LAMMPS (2 Aug 2023 - Update 2)
OMP_NUM_THREADS environment is not set. Defaulting to 1 thread. (src/comm.cpp:98)
  using 1 OpenMP thread(s) per MPI task
Reading data file ...
  triclinic box = (0 0 0) to (15.0372 13.535 17.6074) with tilt (-7.4931 -0.1585 0.0807)
WARNING: Triclinic box skew is large. LAMMPS will run inefficiently. (src/domain.cpp:220)
  2 by 2 by 2 MPI processor grid
  reading atoms ...
  366 atoms
Finding 1-2 1-3 1-4 neighbors ...
  special bond factors lj:    0        0        0       
  special bond factors coul:  0        0        0       
     0 = max # of 1-2 neighbors
     0 = max # of 1-3 neighbors
     0 = max # of 1-4 neighbors
     1 = max # of special neighbors
  special bonds CPU = 0.001 seconds
  read_data CPU = 0.006 seconds
*****Minimization starts.*****
Setting up cg style minimization ...
  Unit style    : real
  Current step  : 0
WARNING: No pairwise cutoff or binsize set. Atom sorting therefore disabled. (src/atom.cpp:2366)
WARNING: Communication cutoff is 0.0. No ghost atoms will be generated. Atoms may get lost. (src/comm_brick.cpp:210)
Per MPI rank memory allocation (min/avg/max) = 6.365 | 6.365 | 6.365 Mbytes
   Step          Temp          E_pair         E_mol          TotEng         Press     
         0   0              0              0              0              0            
         1   0              0              0              0              0            
Loop time of 7.2897e-05 on 8 procs for 1 steps with 366 atoms

101.2% CPU use with 8 MPI tasks x 1 OpenMP threads

Minimization stats:
  Stopping criterion = search direction is not downhill
  Energy initial, next-to-last, final = 
                     0                  0                  0
  Force two-norm initial, final = 0 0
  Force max component initial, final = 0 0
  Final line search alpha, max atom move = 0 0
  Iterations, force evaluations = 1 0

MPI task timing breakdown:
Section |  min time  |  avg time  |  max time  |%varavg| %total
---------------------------------------------------------------
Pair    | 0          | 0          | 0          |   0.0 |  0.00
Bond    | 1.816e-06  | 1.8598e-06 | 1.886e-06  |   0.0 |  2.55
Neigh   | 0          | 0          | 0          |   0.0 |  0.00
Comm    | 4.05e-06   | 4.1904e-06 | 5.168e-06  |   0.0 |  5.75
Output  | 0          | 0          | 0          |   0.0 |  0.00
Modify  | 0          | 0          | 0          |   0.0 |  0.00
Other   |            | 6.685e-05  |            |       | 91.70

Nlocal:          45.75 ave          53 max          35 min
Histogram: 1 0 1 0 1 1 0 1 1 2
Nghost:              0 ave           0 max           0 min
Histogram: 8 0 0 0 0 0 0 0 0 0
Neighs:              0 ave           0 max           0 min
Histogram: 8 0 0 0 0 0 0 0 0 0

Total # of neighbors = 0
Ave neighs/atom = 0
Ave special neighs/atom = 0
Neighbor list builds = 0
Dangerous builds = 0
System init for write_data ...
WARNING: Communication cutoff is 0.0. No ghost atoms will be generated. Atoms may get lost. (src/comm_brick.cpp:210)
WARNING: New thermo_style command, previous thermo_modify settings will be lost (src/output.cpp:903)

CITE-CITE-CITE-CITE-CITE-CITE-CITE-CITE-CITE-CITE-CITE-CITE-CITE

Your simulation uses code contributions which should be cited:
- pair reaxff command: doi:10.1016/j.parco.2011.08.005
- fix qeq/reaxff command: doi:10.1016/j.parco.2011.08.005
The log file lists these citations in BibTeX format.

CITE-CITE-CITE-CITE-CITE-CITE-CITE-CITE-CITE-CITE-CITE-CITE-CITE

WARNING: Fix qeq/reaxff group is not charge neutral, net charge = -29.52 (src/REAXFF/fix_qeq_reaxff.cpp:392)
Neighbor list info ...
  update: every = 10 steps, delay = 0 steps, check = no
  max neighbors/atom: 2000, page size: 100000
  master list distance cutoff = 12
  ghost atom cutoff = 12
  binsize = 6, bins = 4 3 3
  2 neighbor lists, perpetual/occasional/extra = 2 0 0
  (1) pair reaxff, perpetual
      attributes: half, newton off, ghost
      pair build: half/bin/newtoff/ghost
      stencil: full/ghost/bin/3d
      bin: standard
  (2) fix qeq/reaxff, perpetual, copy from (1)
      attributes: half, newton off
      pair build: copy
      stencil: none
      bin: none
Setting up Verlet run ...
  Unit style    : real
  Current step  : 0
  Time step     : 0.5
Per MPI rank memory allocation (min/avg/max) = 136.2 | 139 | 142.6 Mbytes
   Step          Temp          PotEng         Press        f_avgp[1]       Density         Volume    
         0   300           -43876.171      80037.985      0              1.9939932      3583.6077    
       100   394.17576     -44053.219      17438.286      20100.506      1.9939932      3583.6077    
       200   353.44894     -44122.092      12299.895      10307.809      1.9939932      3583.6077    
       300   324.73763     -44187.232      17674.139      10153.399      1.9939932      3583.6077    
       400   316.60576     -44251.386      26668.937      19046.571      1.9939932      3583.6077    
       500   311.85452     -44293.493      20499.652      23939.874      1.9939932      3583.6077    
       600   286.90192     -44299.222      13302.392      18248.878      1.9939932      3583.6077    
       700   293.9852      -44333.746      6045.8646      7272.8542      1.9939932      3583.6077    
       800   296.58519     -44345.153      18019.463      14666.019      1.9939932      3583.6077    
       900   311.3918      -44353.462      21599.515      21463.904      1.9939932      3583.6077    
      1000   297.75059     -44329.901      15334.277      16130.263      1.9939932      3583.6077    
      1100   290.728       -44325.476      14209.613      8902.2254      1.9939932      3583.6077    
      1200   293.44941     -44350.793      15007.44       10698.561      1.9939932      3583.6077    
      1300   294.9809      -44369.407      25845.97       18244.881      1.9939932      3583.6077    
      1400   291.6881      -44370.896      5818.0434      13630.469      1.9939932      3583.6077    
      1500   293.78555     -44356.303      22209.944      16299.522      1.9939932      3583.6077    
      1600   299.4853      -44339.745      4633.8131      19466.593      1.9939932      3583.6077    
      1700   309.0057      -44340.755      7974.3743      13787.66       1.9939932      3583.6077    
      1800   299.93052     -44359.203      13186.124      12245.802      1.9939932      3583.6077    
      1900   305.26822     -44389.751      18537.767      15907.189      1.9939932      3583.6077    
      2000   284.83743     -44366.724      13040.585      19308.225      1.9939932      3583.6077    
      2100   300.81289     -44367.304      8527.9041      15246.53       1.9939932      3583.6077    
      2200   307.36822     -44359.291      16552.389      17787.249      1.9939932      3583.6077    
      2300   310.06431     -44352.431      24597.191      16872.646      1.9939932      3583.6077    
      2400   288.95655     -44357.024      15415.624      12879.406      1.9939932      3583.6077    
      2500   278.87469     -44372.916      20698.218      12016.652      1.9939932      3583.6077    
      2600   298.73446     -44388.666      11724.123      13362.448      1.9939932      3583.6077    
      2700   292.64405     -44356.357      5051.7517      18028          1.9939932      3583.6077    
      2800   313.35678     -44363.799      14684.432      13075.91       1.9939932      3583.6077    
      2900   314.86929     -44372.789      25773.11       22160.101      1.9939932      3583.6077    
      3000   290.50298     -44362.951      19010.829      16013.024      1.9939932      3583.6077    
Loop time of 180.751 on 8 procs for 3000 steps with 366 atoms

Performance: 0.717 ns/day, 33.472 hours/ns, 16.597 timesteps/s, 6.075 katom-step/s
99.0% CPU use with 8 MPI tasks x 1 OpenMP threads

MPI task timing breakdown:
Section |  min time  |  avg time  |  max time  |%varavg| %total
---------------------------------------------------------------
Pair    | 108.8      | 143.24     | 152.95     | 115.6 | 79.25
Bond    | 0.0080797  | 0.0087919  | 0.0094559  |   0.4 |  0.00
Neigh   | 8.5302     | 11.196     | 12.141     |  33.4 |  6.19
Comm    | 2.9615     | 12.695     | 47.15      | 388.5 |  7.02
Output  | 0.0016575  | 0.0018302  | 0.002727   |   0.8 |  0.00
Modify  | 12.599     | 13.534     | 16.195     |  30.4 |  7.49
Other   |            | 0.07931    |            |       |  0.04

Nlocal:          45.75 ave          55 max          32 min
Histogram: 1 0 0 2 0 1 1 0 0 3
Nghost:        3584.38 ave        3671 max        3504 min
Histogram: 2 0 0 0 3 0 1 0 1 1
Neighs:        32812.8 ave       39143 max       23225 min
Histogram: 1 0 0 2 0 1 0 1 0 3

Total # of neighbors = 262502
Ave neighs/atom = 717.21858
Ave special neighs/atom = 0
Neighbor list builds = 300
Dangerous builds not checked
System init for write_data ...
System init for write_restart ...
OMP_NUM_THREADS environment is not set. Defaulting to 1 thread. (src/comm.cpp:98)
  using 1 OpenMP thread(s) per MPI task
Reading restart file ...
  restart file = 2 Aug 2023, LAMMPS = 2 Aug 2023
  restoring atom style full from restart
  triclinic box = (0 0 0) to (15.0372 13.535 17.6074) with tilt (-7.4931 -0.1585 0.0807)
WARNING: Triclinic box skew is large. LAMMPS will run inefficiently. (src/domain.cpp:220)
  2 by 2 by 2 MPI processor grid
  pair style reaxff stores no restart info
  366 atoms
Finding 1-2 1-3 1-4 neighbors ...
  special bond factors lj:    0        0        0       
  special bond factors coul:  0        0        0       
     0 = max # of 1-2 neighbors
     0 = max # of 1-3 neighbors
     0 = max # of 1-4 neighbors
     1 = max # of special neighbors
  special bonds CPU = 0.000 seconds
  read_restart CPU = 0.004 seconds
*****Negative-change 1 starts.*****
Resetting global fix info from restart file:
  fix style: nvt, fix ID: 4
Changing box ...
WARNING: Triclinic box skew is large. LAMMPS will run inefficiently. (src/domain.cpp:220)
  triclinic box = (0 0 0) to (14.886828 13.535 17.6074) with tilt (-7.4931 -0.1585 0.0807)
WARNING: Triclinic box skew is large. LAMMPS will run inefficiently. (src/domain.cpp:220)
  triclinic box = (0 0 0) to (14.886828 13.535 17.6074) with tilt (-7.418169 -0.1585 0.0807)
WARNING: Triclinic box skew is large. LAMMPS will run inefficiently. (src/domain.cpp:220)
  triclinic box = (0 0 0) to (14.886828 13.535 17.6074) with tilt (-7.418169 -0.156915 0.0807)
All restart file global fix info was re-assigned
Neighbor list info ...
  update: every = 10 steps, delay = 0 steps, check = no
  max neighbors/atom: 2000, page size: 100000
  master list distance cutoff = 12
  ghost atom cutoff = 12
  binsize = 6, bins = 4 3 3
  2 neighbor lists, perpetual/occasional/extra = 2 0 0
  (1) pair reaxff, perpetual
      attributes: half, newton off, ghost
      pair build: half/bin/newtoff/ghost
      stencil: full/ghost/bin/3d
      bin: standard
  (2) fix qeq/reaxff, perpetual, copy from (1)
      attributes: half, newton off
      pair build: copy
      stencil: none
      bin: none
Setting up Verlet run ...
  Unit style    : real
  Current step  : 0
  Time step     : 0.5
Per MPI rank memory allocation (min/avg/max) = 137.6 | 140.5 | 143.7 Mbytes
   Step          Temp          PotEng         Press        f_avgp[1]        Volume    
         0   290.50298     -44339.438      60696.305      0              3547.7717    
       100   308.9092      -44361.757      31855.056      25193.514      3547.7717    
       200   298.76294     -44352.644      19934.169      24416.81       3547.7717    
       300   292.4434      -44360.482      17668.316      24425.062      3547.7717    
       400   287.98359     -44370.157      11834.415      21928.029      3547.7717    
       500   287.18412     -44381.468      25176.31       24967.939      3547.7717    
       600   257.9911      -44345.167      18080.562      21413.38       3547.7717    
       700   305.99681     -44364.657      17121.023      30607.541      3547.7717    
       800   292.03248     -44345.057      13450.765      24935.86       3547.7717    
       900   309.44024     -44377.228      30414.01       29102.914      3547.7717    
      1000   300.66116     -44385.679      19039.215      26527.537      3547.7717    
      1100   280.0182      -44380.591      10250.47       23293.604      3547.7717    
      1200   288.89453     -44395.581      22923.038      21351.884      3547.7717    
      1300   307.3483      -44383.307      22308.678      32261.189      3547.7717    
      1400   297.47946     -44351.045      21626.889      25602.883      3547.7717    
      1500   313.30546     -44358.909      27663.16       21053.722      3547.7717    
      1600   323.99827     -44378.479      27492.932      20944.501      3547.7717    
      1700   288.10953     -44376.12       13069.638      21806.516      3547.7717    
      1800   279.03425     -44371.009      25089.192      23062.182      3547.7717    
      1900   283.87821     -44360.641      19487.026      23881.089      3547.7717    
      2000   304.89416     -44365.302      18022.124      22901.07       3547.7717    
      2100   324.29608     -44379.379      15525.312      22914.942      3547.7717    
      2200   298.69753     -44354.651      16842.064      20638.006      3547.7717    
      2300   301.39385     -44358.692      18448.144      23228.095      3547.7717    
      2400   301.70935     -44366.586      21234.209      25773.6        3547.7717    
      2500   293.3353      -44388.609      22288.068      19448.328      3547.7717    
      2600   275.81731     -44385.711      17142.185      19031.818      3547.7717    
      2700   290.97501     -44388.568      15082.971      22309.713      3547.7717    
      2800   292.26409     -44374.916      5478.9592      19883.534      3547.7717    
      2900   306.82363     -44378.245      17272.952      26884.963      3547.7717    
      3000   276.56443     -44337.95       19828.591      25039.426      3547.7717    
Loop time of 185.039 on 8 procs for 3000 steps with 366 atoms

Performance: 0.700 ns/day, 34.266 hours/ns, 16.213 timesteps/s, 5.934 katom-step/s
99.1% CPU use with 8 MPI tasks x 1 OpenMP threads

MPI task timing breakdown:
Section |  min time  |  avg time  |  max time  |%varavg| %total
---------------------------------------------------------------
Pair    | 104.29     | 147.58     | 157.69     | 136.5 | 79.75
Bond    | 0.0078257  | 0.0086762  | 0.0092949  |   0.5 |  0.00
Neigh   | 8.1709     | 11.435     | 12.34      |  37.3 |  6.18
Comm    | 1.9841     | 12.126     | 55.422     | 476.3 |  6.55
Output  | 0.0076132  | 0.0095923  | 0.010953   |   1.2 |  0.01
Modify  | 12.911     | 13.805     | 17.065     |  33.9 |  7.46
Other   |            | 0.07878    |            |       |  0.04

Nlocal:          45.75 ave          55 max          32 min
Histogram: 1 0 0 1 2 0 0 1 1 2
Nghost:        3613.88 ave        3730 max        3511 min
Histogram: 2 0 0 1 1 1 1 0 1 1
Neighs:        33151.4 ave       39902 max       23420 min
Histogram: 1 0 0 1 2 0 0 1 1 2

Total # of neighbors = 265211
Ave neighs/atom = 724.62022
Ave special neighs/atom = 0
Neighbor list builds = 300
Dangerous builds not checked
*****Equilibration neg1 starts.*****
WARNING: New thermo_style command, previous thermo_modify settings will be lost (src/output.cpp:903)
Neighbor list info ...
  update: every = 10 steps, delay = 0 steps, check = no
  max neighbors/atom: 2000, page size: 100000
  master list distance cutoff = 12
  ghost atom cutoff = 12
  binsize = 6, bins = 4 3 3
  2 neighbor lists, perpetual/occasional/extra = 2 0 0
  (1) pair reaxff, perpetual
      attributes: half, newton off, ghost
      pair build: half/bin/newtoff/ghost
      stencil: full/ghost/bin/3d
      bin: standard
  (2) fix qeq/reaxff, perpetual, copy from (1)
      attributes: half, newton off
      pair build: copy
      stencil: none
      bin: none
Setting up Verlet run ...
  Unit style    : real
  Current step  : 0
  Time step     : 0.5
Per MPI rank memory allocation (min/avg/max) = 137.6 | 140.5 | 143.8 Mbytes
   Step          Temp          PotEng         Press        f_avgp[1]        Volume    
         0   276.56443     -44337.95       19828.584      0              3547.7717    
       100   282.73948     -44349.384      12925.73       23850.192      3547.7717    
       200   293.22679     -44382.527      20253.35       20954.9        3547.7717    
       300   280.50565     -44387.789      19926.759      25120.019      3547.7717    
       400   270.01334     -44357.437      15751.849      22714.891      3547.7717    
       500   318.20107     -44376.081      30344.305      21765.805      3547.7717    
       600   294.79828     -44352.526      12719.165      25475.207      3547.7717    
       700   310.86798     -44379.209      26507.6        26076.429      3547.7717    
       800   295.91848     -44382.725      20812.292      22104.488      3547.7717    
       900   280.27403     -44387.137      29377.575      20165.329      3547.7717    
      1000   261.38818     -44384.961      16797.645      25261.522      3547.7717    
      1100   265.89571     -44380.966      20725.791      23728.471      3547.7717    
      1200   304.65545     -44383.625      8475.5113      18438.491      3547.7717    
      1300   328.09975     -44389.339      39587.804      22357.147      3547.7717    
      1400   320.45093     -44386.402      21492.87       27242.748      3547.7717    
      1500   312.97473     -44400.447      18728.651      25229.415      3547.7717    
      1600   277.22921     -44377.761      22546.991      25423.526      3547.7717    
      1700   283.56067     -44377.843      20711.692      19599.206      3547.7717    
      1800   300.3568      -44352.695      8831.6693      23295.275      3547.7717    
      1900   295.96425     -44341.171      20696.37       25437.394      3547.7717    
      2000   299.00744     -44357.199      8039.8088      18853.165      3547.7717    
      2100   293.96001     -44373.65       27673.467      25151.326      3547.7717    
      2200   294.63923     -44376.751      19066.12       22596.148      3547.7717    
      2300   290.07448     -44359.796      15082.446      19511.341      3547.7717    
      2400   311.12861     -44356.107      18225.075      23764.411      3547.7717    
      2500   319.17615     -44359.795      19579.926      27756.209      3547.7717    
      2600   293.116       -44363.242      21085.6        20320.329      3547.7717    
      2700   285.04176     -44371.158      20120.679      20612.714      3547.7717    
      2800   296.02969     -44380.117      12347.393      22191.249      3547.7717    
      2900   292.42002     -44357.572      17310.039      16658.789      3547.7717    
      3000   307.27115     -44353.057      14742.154      22618.821      3547.7717    
Loop time of 184.58 on 8 procs for 3000 steps with 366 atoms

Performance: 0.702 ns/day, 34.182 hours/ns, 16.253 timesteps/s, 5.949 katom-step/s
99.1% CPU use with 8 MPI tasks x 1 OpenMP threads

MPI task timing breakdown:
Section |  min time  |  avg time  |  max time  |%varavg| %total
---------------------------------------------------------------
Pair    | 131.72     | 148.64     | 157.11     |  81.7 | 80.53
Bond    | 0.0080506  | 0.0090408  | 0.0097438  |   0.5 |  0.00
Neigh   | 10.013     | 11.481     | 12.306     |  22.2 |  6.22
Comm    | 2.0689     | 10.566     | 27.506     | 306.5 |  5.72
Output  | 0.0013467  | 0.0015323  | 0.0026502  |   1.1 |  0.00
Modify  | 12.993     | 13.802     | 15.251     |  20.2 |  7.48
Other   |            | 0.0792     |            |       |  0.04

Nlocal:          45.75 ave          55 max          37 min
Histogram: 2 1 0 1 1 0 0 0 0 3
Nghost:        3612.88 ave        3704 max        3523 min
Histogram: 1 1 0 2 0 0 2 0 1 1
Neighs:        33165.8 ave       39619 max       27007 min
Histogram: 3 0 0 1 1 0 0 0 0 3

Total # of neighbors = 265326
Ave neighs/atom = 724.93443
Ave special neighs/atom = 0
Neighbor list builds = 300
Dangerous builds not checked
OMP_NUM_THREADS environment is not set. Defaulting to 1 thread. (src/comm.cpp:98)
  using 1 OpenMP thread(s) per MPI task
Reading restart file ...
  restart file = 2 Aug 2023, LAMMPS = 2 Aug 2023
  restoring atom style full from restart
  triclinic box = (0 0 0) to (15.0372 13.535 17.6074) with tilt (-7.4931 -0.1585 0.0807)
WARNING: Triclinic box skew is large. LAMMPS will run inefficiently. (src/domain.cpp:220)
  2 by 2 by 2 MPI processor grid
  pair style reaxff stores no restart info
  366 atoms
Finding 1-2 1-3 1-4 neighbors ...
  special bond factors lj:    0        0        0       
  special bond factors coul:  0        0        0       
     0 = max # of 1-2 neighbors
     0 = max # of 1-3 neighbors
     0 = max # of 1-4 neighbors
     1 = max # of special neighbors
  special bonds CPU = 0.000 seconds
  read_restart CPU = 0.003 seconds
*****Positive-change 1 starts.*****
Resetting global fix info from restart file:
  fix style: nvt, fix ID: 4
Changing box ...
WARNING: Triclinic box skew is large. LAMMPS will run inefficiently. (src/domain.cpp:220)
  triclinic box = (0 0 0) to (15.187572 13.535 17.6074) with tilt (-7.4931 -0.1585 0.0807)
WARNING: Triclinic box skew is large. LAMMPS will run inefficiently. (src/domain.cpp:220)
  triclinic box = (0 0 0) to (15.187572 13.535 17.6074) with tilt (-7.568031 -0.1585 0.0807)
WARNING: Triclinic box skew is large. LAMMPS will run inefficiently. (src/domain.cpp:220)
  triclinic box = (0 0 0) to (15.187572 13.535 17.6074) with tilt (-7.568031 -0.160085 0.0807)
All restart file global fix info was re-assigned
Neighbor list info ...
  update: every = 10 steps, delay = 0 steps, check = no
  max neighbors/atom: 2000, page size: 100000
  master list distance cutoff = 12
  ghost atom cutoff = 12
  binsize = 6, bins = 4 3 3
  2 neighbor lists, perpetual/occasional/extra = 2 0 0
  (1) pair reaxff, perpetual
      attributes: half, newton off, ghost
      pair build: half/bin/newtoff/ghost
      stencil: full/ghost/bin/3d
      bin: standard
  (2) fix qeq/reaxff, perpetual, copy from (1)
      attributes: half, newton off
      pair build: copy
      stencil: none
      bin: none
Setting up Verlet run ...
  Unit style    : real
  Current step  : 0
  Time step     : 0.5
Per MPI rank memory allocation (min/avg/max) = 136.2 | 138.9 | 141.6 Mbytes
   Step          Temp          PotEng         Press        f_avgp[1]        Volume    
         0   290.50298     -44356.798     -17185.903      0              3619.4438    
       100   299.52204     -44366.815      12273.628      1036.9034      3619.4438    
       200   308.31623     -44374.856      18626.238      9506.8307      3619.4438    
       300   292.06245     -44365.759      14738.182      11554.791      3619.4438    
       400   287.37524     -44380.334      25321.968      6214.1463      3619.4438    
       500   268.21802     -44384.479      5280.711       7500.5514      3619.4438    
       600   276.89646     -44384.67       11439.139      7132.9118      3619.4438    
       700   292.07551     -44364.513     -7318.216       6544.2403      3619.4438    
       800   304.1875      -44369.061      17264.897      7135.5782      3619.4438    
       900   303.10779     -44371.224      12197.146      9564.8443      3619.4438    
      1000   313.5094      -44382.745      7688.2623      10476.436      3619.4438    
      1100   312.76702     -44374.157      10045.176      9544.9456      3619.4438    
      1200   298.60095     -44348.054      11143.744      13415.569      3619.4438    
      1300   316.18042     -44366.948      18975.728      13088.458      3619.4438    
      1400   332.60933     -44412.831      20685.785      6697.2362      3619.4438    
      1500   290.99476     -44391.886      11224.21       8728.9108      3619.4438    
      1600   304.62744     -44411.261      6767.3865      4865.3071      3619.4438    
      1700   277.1145      -44368.955      9418.3743      7668.5322      3619.4438    
      1800   316.84206     -44378.929      13469.599      6773.0502      3619.4438    
      1900   314.38663     -44384.937      14260.859      4143.4324      3619.4438    
      2000   298.02594     -44382.883      9704.2926      8834.8899      3619.4438    
      2100   284.76266     -44378.629      4412.214       9588.4394      3619.4438    
      2200   295.16201     -44373.252      9941.014       10027.91       3619.4438    
      2300   309.77777     -44358.244      17800.668      8094.381       3619.4438    
      2400   312.49776     -44363.673      8638.8659      3999.946       3619.4438    
      2500   289.84602     -44363.781      9861.9695      9459.9065      3619.4438    
      2600   294.89525     -44382.22       21287.169      12047.663      3619.4438    
      2700   285.45268     -44373.305      13696.994      10211.6        3619.4438    
      2800   297.4718      -44374.777      8972.1658      6881.0138      3619.4438    
      2900   323.82209     -44379.533      21452.367      6719.0311      3619.4438    
      3000   314.47269     -44357.607      26025.979      8175.6191      3619.4438    
Loop time of 179.997 on 8 procs for 3000 steps with 366 atoms

Performance: 0.720 ns/day, 33.333 hours/ns, 16.667 timesteps/s, 6.100 katom-step/s
99.1% CPU use with 8 MPI tasks x 1 OpenMP threads

MPI task timing breakdown:
Section |  min time  |  avg time  |  max time  |%varavg| %total
---------------------------------------------------------------
Pair    | 147.52     | 149.82     | 152.81     |  17.5 | 83.23
Bond    | 0.0083458  | 0.009041   | 0.0094583  |   0.4 |  0.01
Neigh   | 11.129     | 11.658     | 12.139     |   9.7 |  6.48
Comm    | 2.1935     | 5.2066     | 7.5295     |  95.0 |  2.89
Output  | 0.0073116  | 0.0090026  | 0.010275   |   1.1 |  0.01
Modify  | 12.756     | 13.216     | 13.724     |   8.7 |  7.34
Other   |            | 0.08105    |            |       |  0.05

Nlocal:          45.75 ave          54 max          34 min
Histogram: 1 0 0 2 1 0 0 0 1 3
Nghost:         3585.5 ave        3700 max        3480 min
Histogram: 1 1 0 2 0 0 2 1 0 1
Neighs:          32488 ave       37999 max       24403 min
Histogram: 1 0 0 3 0 0 0 0 1 3

Total # of neighbors = 259904
Ave neighs/atom = 710.12022
Ave special neighs/atom = 0
Neighbor list builds = 300
Dangerous builds not checked
*****Equilibration pos1 starts.*****
WARNING: New thermo_style command, previous thermo_modify settings will be lost (src/output.cpp:903)
Neighbor list info ...
  update: every = 10 steps, delay = 0 steps, check = no
  max neighbors/atom: 2000, page size: 100000
  master list distance cutoff = 12
  ghost atom cutoff = 12
  binsize = 6, bins = 4 3 3
  2 neighbor lists, perpetual/occasional/extra = 2 0 0
  (1) pair reaxff, perpetual
      attributes: half, newton off, ghost
      pair build: half/bin/newtoff/ghost
      stencil: full/ghost/bin/3d
      bin: standard
  (2) fix qeq/reaxff, perpetual, copy from (1)
      attributes: half, newton off
      pair build: copy
      stencil: none
      bin: none
Setting up Verlet run ...
  Unit style    : real
  Current step  : 0
  Time step     : 0.5
Per MPI rank memory allocation (min/avg/max) = 136.2 | 138.9 | 141.7 Mbytes
   Step          Temp          PotEng         Press        f_avgp[1]        Volume    
         0   314.47269     -44357.607      26025.977      0              3619.4438    
       100   319.86989     -44381.224      11768.748      12428.622      3619.4438    
       200   305.46687     -44392.916      8517.5872      8286.5027      3619.4438    
       300   302.20304     -44390.059      133.87278      4311.7739      3619.4438    
       400   293.96346     -44375.151      8655.9624      11909.062      3619.4438    
       500   309.45858     -44385.311      7705.4881      10795.072      3619.4438    
       600   318.66277     -44381.331      10374.247      6277.5659      3619.4438    
       700   306.30496     -44360.017      4565.2933      4835.295       3619.4438    
       800   296.19879     -44353.629      18709.853      12805.427      3619.4438    
       900   297.53437     -44389.095      11629.006      8258.4281      3619.4438    
      1000   283.81234     -44391.347     -1341.4658      4723.8752      3619.4438    
      1100   288.71504     -44392.423      19261.317      12258.63       3619.4438    
      1200   305.38433     -44387.774      9312.357       7633.7069      3619.4438    
      1300   318.40837     -44383.116      7566.3296      7618.9348      3619.4438    
      1400   319.38224     -44362.493      2774.1981      6841.2032      3619.4438    
      1500   313.74271     -44374.069      18261.234      9618.2323      3619.4438    
      1600   303.58        -44400.482      6396.1904      6150.3881      3619.4438    
      1700   295.52674     -44401.688      17563.445      6336.6233      3619.4438    
      1800   294.55744     -44393.177      7889.9336      2312.2393      3619.4438    
      1900   311.64594     -44389.703      12243.331      8428.6049      3619.4438    
      2000   314.41735     -44371.17       11518.07       10307.492      3619.4438    
      2100   318.41026     -44383.643      22837.82       14381.105      3619.4438    
      2200   309.51979     -44417.615      5022.0938      3181.1063      3619.4438    
      2300   281.85939     -44389.527      8439.3187      9881.952       3619.4438    
      2400   307.26195     -44398.674      12282.79       7765.282       3619.4438    
      2500   288.91454     -44366.281      17559.128      10384.212      3619.4438    
      2600   286.48793     -44352.832      1373.0288      11486.822      3619.4438    
      2700   314.85333     -44361.083      6723.3727      6700.4545      3619.4438    
      2800   297.29145     -44359.71      -87.431943      10060.188      3619.4438    
      2900   315.58751     -44407.788      5502.4128      10316.356      3619.4438    
      3000   303.64543     -44406.752      13452.384      5940.6933      3619.4438    
Loop time of 178.295 on 8 procs for 3000 steps with 366 atoms

Performance: 0.727 ns/day, 33.018 hours/ns, 16.826 timesteps/s, 6.158 katom-step/s
99.2% CPU use with 8 MPI tasks x 1 OpenMP threads

MPI task timing breakdown:
Section |  min time  |  avg time  |  max time  |%varavg| %total
---------------------------------------------------------------
Pair    | 118.46     | 140.27     | 151.7      |  94.1 | 78.67
Bond    | 0.008348   | 0.0088453  | 0.0092459  |   0.4 |  0.00
Neigh   | 9.4488     | 11.006     | 11.83      |  22.3 |  6.17
Comm    | 1.6086     | 13.069     | 34.845     | 307.7 |  7.33
Output  | 0.0013184  | 0.0016898  | 0.0040134  |   2.1 |  0.00
Modify  | 13.014     | 13.865     | 15.458     |  20.4 |  7.78
Other   |            | 0.07716    |            |       |  0.04

Nlocal:          45.75 ave          56 max          34 min
Histogram: 1 0 2 1 0 0 1 0 1 2
Nghost:        3587.62 ave        3696 max        3494 min
Histogram: 2 0 0 2 0 2 0 0 1 1
Neighs:        32473.5 ave       39377 max       24384 min
Histogram: 1 0 2 1 0 0 0 1 1 2

Total # of neighbors = 259788
Ave neighs/atom = 709.80328
Ave special neighs/atom = 0
Neighbor list builds = 300
Dangerous builds not checked
OMP_NUM_THREADS environment is not set. Defaulting to 1 thread. (src/comm.cpp:98)
  using 1 OpenMP thread(s) per MPI task
Reading restart file ...
  restart file = 2 Aug 2023, LAMMPS = 2 Aug 2023
  restoring atom style full from restart
  triclinic box = (0 0 0) to (15.0372 13.535 17.6074) with tilt (-7.4931 -0.1585 0.0807)
WARNING: Triclinic box skew is large. LAMMPS will run inefficiently. (src/domain.cpp:220)
  2 by 2 by 2 MPI processor grid
  pair style reaxff stores no restart info
  366 atoms
Finding 1-2 1-3 1-4 neighbors ...
  special bond factors lj:    0        0        0       
  special bond factors coul:  0        0        0       
     0 = max # of 1-2 neighbors
     0 = max # of 1-3 neighbors
     0 = max # of 1-4 neighbors
     1 = max # of special neighbors
  special bonds CPU = 0.000 seconds
  read_restart CPU = 0.003 seconds
*****Negative-change 2 starts.*****
Resetting global fix info from restart file:
  fix style: nvt, fix ID: 4
Changing box ...
WARNING: Triclinic box skew is large. LAMMPS will run inefficiently. (src/domain.cpp:220)
  triclinic box = (0 0 0) to (15.0372 13.39965 17.6074) with tilt (-7.4931 -0.1585 0.0807)
WARNING: Triclinic box skew is large. LAMMPS will run inefficiently. (src/domain.cpp:220)
  triclinic box = (0 0 0) to (15.0372 13.39965 17.6074) with tilt (-7.4931 -0.1585 0.079893)
All restart file global fix info was re-assigned
Neighbor list info ...
  update: every = 10 steps, delay = 0 steps, check = no
  max neighbors/atom: 2000, page size: 100000
  master list distance cutoff = 12
  ghost atom cutoff = 12
  binsize = 6, bins = 4 3 3
  2 neighbor lists, perpetual/occasional/extra = 2 0 0
  (1) pair reaxff, perpetual
      attributes: half, newton off, ghost
      pair build: half/bin/newtoff/ghost
      stencil: full/ghost/bin/3d
      bin: standard
  (2) fix qeq/reaxff, perpetual, copy from (1)
      attributes: half, newton off
      pair build: copy
      stencil: none
      bin: none
Setting up Verlet run ...
  Unit style    : real
  Current step  : 0
  Time step     : 0.5
Per MPI rank memory allocation (min/avg/max) = 137.3 | 140.6 | 144.2 Mbytes
   Step          Temp          PotEng         Press        f_avgp[1]        Volume    
         0   290.50298     -44344.674      61968.672      0              3547.7717    
       100   300.78114     -44357.615      32794.536      20327.206      3547.7717    
       200   308.65217     -44365.973      25083.527      21948.32       3547.7717    
       300   298.08938     -44364.407      12749.916      19748.247      3547.7717    
       400   278.73278     -44364.184      20205.534      14220.971      3547.7717    
       500   268.35002     -44387.232      21472.61       19770.218      3547.7717    
       600   281.013       -44390.022      16754.402      15126.311      3547.7717    
       700   297.8228      -44385.672      21806.641      17508.537      3547.7717    
       800   297.1773      -44373.285      18613.545      21454.342      3547.7717    
       900   315.2791      -44370.577      31460.504      23546.819      3547.7717    
      1000   322.2214      -44369.598      12323.098      23999.341      3547.7717    
      1100   305.55055     -44372.821      17152.702      14463.656      3547.7717    
      1200   289.29151     -44386.461      22677.541      16527.343      3547.7717    
      1300   285.92926     -44376.454      24460.01       18672.847      3547.7717    
      1400   313.11717     -44385.924      19059.432      15033.341      3547.7717    
      1500   300.45967     -44358.391      17557.539      20019.189      3547.7717    
      1600   309.88075     -44364.952      10956.36       14084.919      3547.7717    
      1700   291.33941     -44356.696      12624.029      14228.542      3547.7717    
      1800   284.45663     -44382.905      18563.268      17615.256      3547.7717    
      1900   289.15216     -44387.618      28117.326      19962.011      3547.7717    
      2000   302.13603     -44373.724      29920.1        19597.959      3547.7717    
      2100   317.15352     -44378.427      6122.1883      19597.377      3547.7717    
      2200   295.73194     -44364.652      24287.444      17205.654      3547.7717    
      2300   298.75227     -44380.114      18729.082      22106.263      3547.7717    
      2400   287.0972      -44381.151      14073.899      17214.704      3547.7717    
      2500   266.93658     -44377.429      21138.885      17532.938      3547.7717    
      2600   291.64911     -44393.924      19014.997      16550.436      3547.7717    
      2700   316.95557     -44389.318      20315.204      11833.438      3547.7717    
      2800   304.11138     -44367.399      20537.88       17404.913      3547.7717    
      2900   295.17172     -44364.02       18843.564      18618.274      3547.7717    
      3000   289.79762     -44379.49       13973.965      17694.963      3547.7717    
Loop time of 184.875 on 8 procs for 3000 steps with 366 atoms

Performance: 0.701 ns/day, 34.236 hours/ns, 16.227 timesteps/s, 5.939 katom-step/s
99.1% CPU use with 8 MPI tasks x 1 OpenMP threads

MPI task timing breakdown:
Section |  min time  |  avg time  |  max time  |%varavg| %total
---------------------------------------------------------------
Pair    | 106.12     | 146.38     | 157.62     | 127.6 | 79.18
Bond    | 0.0079709  | 0.0087595  | 0.0093796  |   0.5 |  0.00
Neigh   | 8.3571     | 11.42      | 12.227     |  35.0 |  6.18
Comm    | 1.8219     | 13.081     | 53.354     | 427.0 |  7.08
Output  | 0.007404   | 0.0091872  | 0.01049    |   1.1 |  0.00
Modify  | 13.116     | 13.9       | 16.954     |  31.6 |  7.52
Other   |            | 0.07862    |            |       |  0.04

Nlocal:          45.75 ave          56 max          33 min
Histogram: 1 0 1 2 0 1 0 0 0 3
Nghost:        3617.75 ave        3725 max        3516 min
Histogram: 2 0 0 1 1 2 0 0 1 1
Neighs:        33132.9 ave       40267 max       24181 min
Histogram: 1 0 1 2 0 1 0 0 0 3

Total # of neighbors = 265063
Ave neighs/atom = 724.21585
Ave special neighs/atom = 0
Neighbor list builds = 300
Dangerous builds not checked
*****Equilibration neg2 starts.*****
WARNING: New thermo_style command, previous thermo_modify settings will be lost (src/output.cpp:903)
Neighbor list info ...
  update: every = 10 steps, delay = 0 steps, check = no
  max neighbors/atom: 2000, page size: 100000
  master list distance cutoff = 12
  ghost atom cutoff = 12
  binsize = 6, bins = 4 3 3
  2 neighbor lists, perpetual/occasional/extra = 2 0 0
  (1) pair reaxff, perpetual
      attributes: half, newton off, ghost
      pair build: half/bin/newtoff/ghost
      stencil: full/ghost/bin/3d
      bin: standard
  (2) fix qeq/reaxff, perpetual, copy from (1)
      attributes: half, newton off
      pair build: copy
      stencil: none
      bin: none
Setting up Verlet run ...
  Unit style    : real
  Current step  : 0
  Time step     : 0.5
Per MPI rank memory allocation (min/avg/max) = 137.3 | 140.6 | 144.2 Mbytes
   Step          Temp          PotEng         Press        f_avgp[1]        Volume    
         0   289.79762     -44379.49       13973.941      0              3547.7717    
       100   314.09289     -44397.681      32459.14       20336.466      3547.7717    
       200   312.0962      -44376.005      27392.165      20232.454      3547.7717    
       300   320.82473     -44361.672      10891.764      13556.006      3547.7717    
       400   290.35003     -44353.977      19704.21       14995.124      3547.7717    
       500   294.68916     -44389.62       14924.282      19622.012      3547.7717    
       600   295.34709     -44397.552      22735.148      13658.876      3547.7717    
       700   277.03187     -44374.075      13272.09       20783.51       3547.7717    
       800   308.64339     -44386.883      24516.819      15037.146      3547.7717    
       900   315.95244     -44368.583      21606.567      19978.268      3547.7717    
      1000   290.90689     -44351.169      19167.239      18197.113      3547.7717    
      1100   294.10073     -44395.823      25393.669      20868.167      3547.7717    
      1200   273.92763     -44377.586      25237.522      22873.458      3547.7717    
      1300   311.61742     -44399.121      12888.865      15356.929      3547.7717    
      1400   315.87988     -44385.192      17325.756      19652.054      3547.7717    
      1500   313.53029     -44374.886      1483.5576      16703.898      3547.7717    
      1600   291.69591     -44382.366      13465.631      19172.118      3547.7717    
      1700   296.21972     -44409.674      12012.456      15894.919      3547.7717    
      1800   283.46669     -44393.904      22476.144      13802.755      3547.7717    
      1900   292.64028     -44383.396      20066.851      17155.193      3547.7717    
      2000   289.3822      -44364.014      22362.756      23536.422      3547.7717    
      2100   300.07387     -44366.26       8940.5502      24686.154      3547.7717    
      2200   314.07557     -44385.884      5868.9662      12847.86       3547.7717    
      2300   306.13953     -44385.023      23221.113      12192.078      3547.7717    
      2400   298.69717     -44383.837      20409.572      14089.912      3547.7717    
      2500   286.7366      -44370.484      14545.986      16914.61       3547.7717    
      2600   293.86472     -44382.876      30665.008      18277.503      3547.7717    
      2700   300.35134     -44398.628      21441.295      16070.071      3547.7717    
      2800   308.74099     -44407.748      21023.087      17317.724      3547.7717    
      2900   301.32675     -44379.435      19745.254      21412.39       3547.7717    
      3000   316.19039     -44380.836      25750.902      19556.864      3547.7717    
Loop time of 184.969 on 8 procs for 3000 steps with 366 atoms

Performance: 0.701 ns/day, 34.253 hours/ns, 16.219 timesteps/s, 5.936 katom-step/s
99.1% CPU use with 8 MPI tasks x 1 OpenMP threads

MPI task timing breakdown:
Section |  min time  |  avg time  |  max time  |%varavg| %total
---------------------------------------------------------------
Pair    | 105.13     | 141.25     | 158.05     | 148.4 | 76.36
Bond    | 0.0081896  | 0.0086543  | 0.0092856  |   0.4 |  0.00
Neigh   | 8.2796     | 11.012     | 12.44      |  39.2 |  5.95
Comm    | 1.3398     | 18.166     | 54.301     | 413.7 |  9.82
Output  | 0.0012263  | 0.0015439  | 0.0029865  |   1.4 |  0.00
Modify  | 13.043     | 14.455     | 17.18      |  34.3 |  7.81
Other   |            | 0.07606    |            |       |  0.04

Nlocal:          45.75 ave          55 max          34 min
Histogram: 1 0 1 1 1 0 1 0 1 2
Nghost:        3625.75 ave        3727 max        3532 min
Histogram: 2 0 0 0 2 2 0 0 1 1
Neighs:          33166 ave       39670 max       24939 min
Histogram: 1 0 1 1 1 0 1 0 1 2

Total # of neighbors = 265328
Ave neighs/atom = 724.93989
Ave special neighs/atom = 0
Neighbor list builds = 300
Dangerous builds not checked
OMP_NUM_THREADS environment is not set. Defaulting to 1 thread. (src/comm.cpp:98)
  using 1 OpenMP thread(s) per MPI task
Reading restart file ...
  restart file = 2 Aug 2023, LAMMPS = 2 Aug 2023
  restoring atom style full from restart
  triclinic box = (0 0 0) to (15.0372 13.535 17.6074) with tilt (-7.4931 -0.1585 0.0807)
WARNING: Triclinic box skew is large. LAMMPS will run inefficiently. (src/domain.cpp:220)
  2 by 2 by 2 MPI processor grid
  pair style reaxff stores no restart info
  366 atoms
Finding 1-2 1-3 1-4 neighbors ...
  special bond factors lj:    0        0        0       
  special bond factors coul:  0        0        0       
     0 = max # of 1-2 neighbors
     0 = max # of 1-3 neighbors
     0 = max # of 1-4 neighbors
     1 = max # of special neighbors
  special bonds CPU = 0.000 seconds
  read_restart CPU = 0.003 seconds
*****Positive-change 2 starts.*****
Resetting global fix info from restart file:
  fix style: nvt, fix ID: 4
Changing box ...
WARNING: Triclinic box skew is large. LAMMPS will run inefficiently. (src/domain.cpp:220)
  triclinic box = (0 0 0) to (15.0372 13.67035 17.6074) with tilt (-7.4931 -0.1585 0.0807)
WARNING: Triclinic box skew is large. LAMMPS will run inefficiently. (src/domain.cpp:220)
  triclinic box = (0 0 0) to (15.0372 13.67035 17.6074) with tilt (-7.4931 -0.1585 0.081507)
All restart file global fix info was re-assigned
Neighbor list info ...
  update: every = 10 steps, delay = 0 steps, check = no
  max neighbors/atom: 2000, page size: 100000
  master list distance cutoff = 12
  ghost atom cutoff = 12
  binsize = 6, bins = 4 3 3
  2 neighbor lists, perpetual/occasional/extra = 2 0 0
  (1) pair reaxff, perpetual
      attributes: half, newton off, ghost
      pair build: half/bin/newtoff/ghost
      stencil: full/ghost/bin/3d
      bin: standard
  (2) fix qeq/reaxff, perpetual, copy from (1)
      attributes: half, newton off
      pair build: copy
      stencil: none
      bin: none
Setting up Verlet run ...
  Unit style    : real
  Current step  : 0
  Time step     : 0.5
Per MPI rank memory allocation (min/avg/max) = 136.3 | 138.7 | 141.1 Mbytes
   Step          Temp          PotEng         Press        f_avgp[1]        Volume    
         0   290.50298     -44349.153     -18679.971      0              3619.4438    
       100   302.98624     -44364.981      9972.2003      6980.5711      3619.4438    
       200   299.64866     -44364.233      4972.2596      13379.971      3619.4438    
       300   280.29019     -44355.418      11988.235      17202.714      3619.4438    
       400   285.19199     -44364.801      11944.487      10051.711      3619.4438    
       500   312.24894     -44364.139      18008.375      12416.341      3619.4438    
       600   299.60429     -44332.473      12704.232      13634.603      3619.4438    
       700   314.30122     -44360.642     -590.09426      15743.678      3619.4438    
       800   287.84751     -44362.823      6444.447       10689.634      3619.4438    
       900   297.20601     -44379.195      27143.981      22334.442      3619.4438    
      1000   296.54742     -44372.008      9784.5079      20103.495      3619.4438    
      1100   316.41299     -44368.502      12934.102      17208.031      3619.4438    
      1200   310.41147     -44332.287      12356.34       13858.636      3619.4438    
      1300   341.88356     -44339.131      8637.0467      16328.158      3619.4438    
      1400   325.20991     -44360.394      4678.4302      16292.558      3619.4438    
      1500   288.51628     -44354.313      14133.758      9138.0471      3619.4438    
      1600   281.2198      -44364.122      9128.7793      11353.164      3619.4438    
      1700   307.40595     -44396.637      4377.5455      15276.273      3619.4438    
      1800   281.24855     -44381.486      1666.9839      10807.651      3619.4438    
      1900   285.30567     -44382.333      14179.631      14470.216      3619.4438    
      2000   305.33978     -44376.15       16657.475      12183.678      3619.4438    
      2100   299.3311      -44349.96       10025.482      18344.925      3619.4438    
      2200   318.73142     -44360.214      12310.184      16176.249      3619.4438    
      2300   299.11141     -44376.283      7815.5154      10341.011      3619.4438    
      2400   279.24773     -44377.558     -204.07748      10512.729      3619.4438    
      2500   282.8142      -44371.925      7149.5274      8394.928       3619.4438    
      2600   293.0105      -44355.875      7441.1036      9863.5255      3619.4438    
      2700   314.03348     -44367.514     -7009.5101      12852.624      3619.4438    
      2800   312.54927     -44372.829      2687.8227      3950.6326      3619.4438    
      2900   307.60383     -44395.463      16361.674      13852.466      3619.4438    
      3000   277.47917     -44381.71       24610.83       22855.727      3619.4438    
Loop time of 178.62 on 8 procs for 3000 steps with 366 atoms

Performance: 0.726 ns/day, 33.078 hours/ns, 16.795 timesteps/s, 6.147 katom-step/s
99.1% CPU use with 8 MPI tasks x 1 OpenMP threads

MPI task timing breakdown:
Section |  min time  |  avg time  |  max time  |%varavg| %total
---------------------------------------------------------------
Pair    | 101.46     | 135.8      | 152.45     | 136.9 | 76.03
Bond    | 0.0081681  | 0.0087165  | 0.0091519  |   0.4 |  0.00
Neigh   | 8.0722     | 10.702     | 11.735     |  35.5 |  5.99
Comm    | 1.3321     | 18         | 52.356     | 376.0 | 10.08
Output  | 0.0074561  | 0.0093324  | 0.010679   |   1.2 |  0.01
Modify  | 13.003     | 14.019     | 16.644     |  31.2 |  7.85
Other   |            | 0.07644    |            |       |  0.04

Nlocal:          45.75 ave          53 max          35 min
Histogram: 1 0 0 1 1 2 0 0 0 3
Nghost:        3545.75 ave        3660 max        3453 min
Histogram: 2 0 1 1 1 0 0 2 0 1
Neighs:        32462.4 ave       37587 max       25001 min
Histogram: 1 0 0 1 2 1 0 0 0 3

Total # of neighbors = 259699
Ave neighs/atom = 709.56011
Ave special neighs/atom = 0
Neighbor list builds = 300
Dangerous builds not checked
*****Equilibration pos2 starts.*****
WARNING: New thermo_style command, previous thermo_modify settings will be lost (src/output.cpp:903)
Neighbor list info ...
  update: every = 10 steps, delay = 0 steps, check = no
  max neighbors/atom: 2000, page size: 100000
  master list distance cutoff = 12
  ghost atom cutoff = 12
  binsize = 6, bins = 4 3 3
  2 neighbor lists, perpetual/occasional/extra = 2 0 0
  (1) pair reaxff, perpetual
      attributes: half, newton off, ghost
      pair build: half/bin/newtoff/ghost
      stencil: full/ghost/bin/3d
      bin: standard
  (2) fix qeq/reaxff, perpetual, copy from (1)
      attributes: half, newton off
      pair build: copy
      stencil: none
      bin: none
Setting up Verlet run ...
  Unit style    : real
  Current step  : 0
  Time step     : 0.5
Per MPI rank memory allocation (min/avg/max) = 135.4 | 138.6 | 141.2 Mbytes
   Step          Temp          PotEng         Press        f_avgp[1]        Volume    
         0   277.47917     -44381.71       24610.725      0              3619.4438    
       100   295.42743     -44377.758      17204.216      13670.982      3619.4438    
       200   300.98533     -44366.204      7445.1789      12964.572      3619.4438    
       300   302.61596     -44375.716      24274.737      14853.766      3619.4438    
       400   299.99397     -44388.653      18812.362      10771.091      3619.4438    
       500   274.1524      -44369.249      9191.7807      8821.0453      3619.4438    
       600   279.24002     -44365.091      8670.397       8586.8304      3619.4438    
       700   303.48181     -44361.788      5234.9744      12377.241      3619.4438    
       800   314.54466     -44364.717      4156.9903      15238.149      3619.4438    
       900   295.52136     -44370.325      19746.548      16809.027      3619.4438    
      1000   302.07776     -44392.834      13484.687      17899.928      3619.4438    
      1100   301.44422     -44401.253      9221.9426      11784.561      3619.4438    
      1200   301.49083     -44398.808      10480.057      9950.9894      3619.4438    
      1300   303.88149     -44398.615     -2434.8948      13936.877      3619.4438    
      1400   301.05328     -44391.698      9557.4964      6307.939       3619.4438    
      1500   291.22692     -44377.742      6775.324       9222.6656      3619.4438    
      1600   296.64609     -44376.658      16823.035      14444.747      3619.4438    
      1700   321.81648     -44367.941     -3644.3589      14571.462      3619.4438    
      1800   313.72332     -44348.397     -553.28894      5468.2462      3619.4438    
      1900   317.99981     -44378.383      19810.243      10848.002      3619.4438    
      2000   312.77765     -44387.502      6088.1676      16017.171      3619.4438    
      2100   280.23677     -44361.529      8219.4472      14985.451      3619.4438    
      2200   306.9672      -44386.336      13607.538      10061.49       3619.4438    
      2300   294.81323     -44373.482      15068.147      18621.376      3619.4438    
      2400   291.61459     -44366.442      14447.232      14493.755      3619.4438    
      2500   296.7264      -44369.071      17612.271      9307.2948      3619.4438    
      2600   296.12425     -44375.058      22781.39       16021.615      3619.4438    
      2700   293.9999      -44384.354      28596.241      20173.533      3619.4438    
      2800   297.96094     -44398.078      17396.216      15430.221      3619.4438    
      2900   301.82024     -44401.532      19386.388      13740.832      3619.4438    
      3000   309.27193     -44400.026      14935.551      14049.835      3619.4438    
Loop time of 179.115 on 8 procs for 3000 steps with 366 atoms

Performance: 0.724 ns/day, 33.169 hours/ns, 16.749 timesteps/s, 6.130 katom-step/s
99.1% CPU use with 8 MPI tasks x 1 OpenMP threads

MPI task timing breakdown:
Section |  min time  |  avg time  |  max time  |%varavg| %total
---------------------------------------------------------------
Pair    | 101.82     | 138.14     | 152.11     | 137.7 | 77.12
Bond    | 0.0082382  | 0.0088762  | 0.0095105  |   0.4 |  0.00
Neigh   | 8.0775     | 10.871     | 12.092     |  37.4 |  6.07
Comm    | 2.1481     | 16.144     | 52.475     | 402.8 |  9.01
Output  | 0.0012838  | 0.0015809  | 0.0031533  |   1.5 |  0.00
Modify  | 12.666     | 13.875     | 16.668     |  33.3 |  7.75
Other   |            | 0.07654    |            |       |  0.04

Nlocal:          45.75 ave          56 max          33 min
Histogram: 1 0 1 0 2 0 1 0 2 1
Nghost:        3555.62 ave        3674 max        3441 min
Histogram: 2 0 1 1 0 1 0 1 1 1
Neighs:        32472.5 ave       39345 max       23680 min
Histogram: 1 0 1 0 2 0 1 0 2 1

Total # of neighbors = 259780
Ave neighs/atom = 709.78142
Ave special neighs/atom = 0
Neighbor list builds = 300
Dangerous builds not checked
OMP_NUM_THREADS environment is not set. Defaulting to 1 thread. (src/comm.cpp:98)
  using 1 OpenMP thread(s) per MPI task
Reading restart file ...
  restart file = 2 Aug 2023, LAMMPS = 2 Aug 2023
  restoring atom style full from restart
  triclinic box = (0 0 0) to (15.0372 13.535 17.6074) with tilt (-7.4931 -0.1585 0.0807)
WARNING: Triclinic box skew is large. LAMMPS will run inefficiently. (src/domain.cpp:220)
  2 by 2 by 2 MPI processor grid
  pair style reaxff stores no restart info
  366 atoms
Finding 1-2 1-3 1-4 neighbors ...
  special bond factors lj:    0        0        0       
  special bond factors coul:  0        0        0       
     0 = max # of 1-2 neighbors
     0 = max # of 1-3 neighbors
     0 = max # of 1-4 neighbors
     1 = max # of special neighbors
  special bonds CPU = 0.000 seconds
  read_restart CPU = 0.003 seconds
*****Negative-change 3 starts.*****
Resetting global fix info from restart file:
  fix style: nvt, fix ID: 4
Changing box ...
WARNING: Triclinic box skew is large. LAMMPS will run inefficiently. (src/domain.cpp:220)
  triclinic box = (0 0 0) to (15.0372 13.535 17.431326) with tilt (-7.4931 -0.1585 0.0807)
All restart file global fix info was re-assigned
Neighbor list info ...
  update: every = 10 steps, delay = 0 steps, check = no
  max neighbors/atom: 2000, page size: 100000
  master list distance cutoff = 12
  ghost atom cutoff = 12
  binsize = 6, bins = 4 3 3
  2 neighbor lists, perpetual/occasional/extra = 2 0 0
  (1) pair reaxff, perpetual
      attributes: half, newton off, ghost
      pair build: half/bin/newtoff/ghost
      stencil: full/ghost/bin/3d
      bin: standard
  (2) fix qeq/reaxff, perpetual, copy from (1)
      attributes: half, newton off
      pair build: copy
      stencil: none
      bin: none
Setting up Verlet run ...
  Unit style    : real
  Current step  : 0
  Time step     : 0.5
Per MPI rank memory allocation (min/avg/max) = 138.2 | 141 | 144.3 Mbytes
   Step          Temp          PotEng         Press        f_avgp[1]        Volume    
         0   290.50298     -44336.193      60899.82       0              3547.7717    
       100   308.107       -44359.196      19515.963      20026.092      3547.7717    
       200   316.39589     -44374.078      20194.511      17969.225      3547.7717    
       300   290.61066     -44362.819      16553.274      20776.43       3547.7717    
       400   287.67092     -44368.662      25270.199      14841.035      3547.7717    
       500   302.93909     -44378.937      29513.912      18336.496      3547.7717    
       600   318.07074     -44349.053      8402.512       16341.152      3547.7717    
       700   311.50396     -44334.106      7008.0626      17777.576      3547.7717    
       800   309.39942     -44360.196      29279.92       22284.169      3547.7717    
       900   316.75369     -44390.669      16262.421      26517.634      3547.7717    
      1000   294.13098     -44376.565      23717.268      20873.916      3547.7717    
      1100   276.27545     -44351.073      30405.219      22088.628      3547.7717    
      1200   299.38898     -44340.485      4217.3984      14116.537      3547.7717    
      1300   322.74464     -44350.823      9689.0873      16447.965      3547.7717    
      1400   305.0184      -44349.913      23080.364      25086.471      3547.7717    
      1500   299.67526     -44357.219      11380.078      21713.44       3547.7717    
      1600   306.06959     -44374.775      19648.235      16982.284      3547.7717    
      1700   294.81783     -44363.944      13640.425      16524.37       3547.7717    
      1800   312.90877     -44356.671      15726.711      14208.01       3547.7717    
      1900   326.86126     -44347.513      14357.814      15626.387      3547.7717    
      2000   311.45773     -44345.358      21945.572      17921.886      3547.7717    
      2100   324.25388     -44387.46       19019.608      20709.897      3547.7717    
      2200   293.14993     -44360.343      15526.955      18376          3547.7717    
      2300   296.76989     -44359.137      8688.1518      16122.653      3547.7717    
      2400   306.34771     -44365.768      25938.217      24503.09       3547.7717    
      2500   317.33122     -44375.118      23488.381      19785.715      3547.7717    
      2600   290.04321     -44356.838      18362.518      17316.813      3547.7717    
      2700   281.32518     -44359.406      29468.325      19760.532      3547.7717    
      2800   289.746       -44371.936      23227.918      18857.954      3547.7717    
      2900   302.52199     -44376.939      24718.264      22337.061      3547.7717    
      3000   324.23966     -44382.228      13272.494      15869.284      3547.7717    
Loop time of 185.503 on 8 procs for 3000 steps with 366 atoms

Performance: 0.699 ns/day, 34.352 hours/ns, 16.172 timesteps/s, 5.919 katom-step/s
99.1% CPU use with 8 MPI tasks x 1 OpenMP threads

MPI task timing breakdown:
Section |  min time  |  avg time  |  max time  |%varavg| %total
---------------------------------------------------------------
Pair    | 105.37     | 144.33     | 157.99     | 137.8 | 77.81
Bond    | 0.0082737  | 0.0089268  | 0.0096281  |   0.5 |  0.00
Neigh   | 8.2584     | 11.211     | 12.316     |  36.6 |  6.04
Comm    | 1.8783     | 15.555     | 54.529     | 419.7 |  8.39
Output  | 0.0070214  | 0.0087022  | 0.0099116  |   1.1 |  0.00
Modify  | 13.222     | 14.309     | 17.256     |  32.4 |  7.71
Other   |            | 0.07795    |            |       |  0.04

Nlocal:          45.75 ave          54 max          34 min
Histogram: 1 0 0 1 1 1 0 1 1 2
Nghost:           3605 ave        3693 max        3526 min
Histogram: 2 0 0 2 0 1 1 0 1 1
Neighs:        33158.9 ave       38826 max       24903 min
Histogram: 1 0 0 2 0 1 0 1 2 1

Total # of neighbors = 265271
Ave neighs/atom = 724.78415
Ave special neighs/atom = 0
Neighbor list builds = 300
Dangerous builds not checked
*****Equilibration neg3 starts.*****
WARNING: New thermo_style command, previous thermo_modify settings will be lost (src/output.cpp:903)
Neighbor list info ...
  update: every = 10 steps, delay = 0 steps, check = no
  max neighbors/atom: 2000, page size: 100000
  master list distance cutoff = 12
  ghost atom cutoff = 12
  binsize = 6, bins = 4 3 3
  2 neighbor lists, perpetual/occasional/extra = 2 0 0
  (1) pair reaxff, perpetual
      attributes: half, newton off, ghost
      pair build: half/bin/newtoff/ghost
      stencil: full/ghost/bin/3d
      bin: standard
  (2) fix qeq/reaxff, perpetual, copy from (1)
      attributes: half, newton off
      pair build: copy
      stencil: none
      bin: none
Setting up Verlet run ...
  Unit style    : real
  Current step  : 0
  Time step     : 0.5
Per MPI rank memory allocation (min/avg/max) = 138.3 | 141 | 144.3 Mbytes
   Step          Temp          PotEng         Press        f_avgp[1]        Volume    
         0   324.23966     -44382.228      13272.252      0              3547.7717    
       100   305.06994     -44369.674      22561.343      19578.699      3547.7717    
       200   277.08612     -44366.794      20976.156      20336.886      3547.7717    
       300   285.35915     -44398.159      20692.742      20563.441      3547.7717    
       400   281.83801     -44373.008      21640.058      14254.209      3547.7717    
       500   307.6157      -44372.64       14810.991      14808.785      3547.7717    
       600   306.30333     -44372.188      14029.432      18464.34       3547.7717    
       700   288.59697     -44358.079      15446.862      15236.288      3547.7717    
       800   296.13556     -44378.22       14738.251      19162.21       3547.7717    
       900   292.87416     -44397.344      11250.788      15380.805      3547.7717    
      1000   296.52206     -44409.51      -205.6714       16394.515      3547.7717    
      1100   303.53227     -44390.752      8328.2336      19251.172      3547.7717    
      1200   307.19773     -44363.981      16490.062      18368.494      3547.7717    
      1300   292.42181     -44354.193      13612.621      18325.716      3547.7717    
      1400   301.87037     -44382.1        21813.2        26320.906      3547.7717    
      1500   293.40862     -44389.933      9714.8447      16919.365      3547.7717    
      1600   288.24684     -44409.085      21061.299      18999.235      3547.7717    
      1700   280.10808     -44419.795      11116.098      19447.071      3547.7717    
      1800   280.83706     -44391.655      18899.503      21517.693      3547.7717    
      1900   303.07745     -44390.208      14409.525      21901.501      3547.7717    
      2000   292.19646     -44364.89       13736.858      12692.288      3547.7717    
      2100   314.26446     -44381.243      33774.96       18176.013      3547.7717    
      2200   310.76187     -44374.358      19213.042      16503.29       3547.7717    
      2300   298.43367     -44392.837      23135.829      14015.739      3547.7717    
      2400   272.54187     -44382.808      17202.792      23565.014      3547.7717    
      2500   296.29388     -44398.325      21584.5        17999.839      3547.7717    
      2600   305.09299     -44386.709      20526.17       25932.599      3547.7717    
      2700   304.59364     -44363.243      14071.591      23551.982      3547.7717    
      2800   330.57325     -44354.767      23643.841      20450.211      3547.7717    
      2900   322.51547     -44361.005      22408.48       20503.075      3547.7717    
      3000   283.86291     -44350.008      22332.582      23473.653      3547.7717    
Loop time of 185.119 on 8 procs for 3000 steps with 366 atoms

Performance: 0.700 ns/day, 34.281 hours/ns, 16.206 timesteps/s, 5.931 katom-step/s
99.1% CPU use with 8 MPI tasks x 1 OpenMP threads

MPI task timing breakdown:
Section |  min time  |  avg time  |  max time  |%varavg| %total
---------------------------------------------------------------
Pair    | 105.24     | 143.33     | 157.2      | 162.7 | 77.42
Bond    | 0.0083443  | 0.0088536  | 0.0094435  |   0.4 |  0.00
Neigh   | 8.2977     | 11.206     | 12.51      |  44.0 |  6.05
Comm    | 2.1271     | 16.02      | 54.116     | 486.4 |  8.65
Output  | 0.001278   | 0.0016283  | 0.0034447  |   1.7 |  0.00
Modify  | 13.182     | 14.478     | 17.39      |  38.9 |  7.82
Other   |            | 0.07732    |            |       |  0.04

Nlocal:          45.75 ave          58 max          32 min
Histogram: 1 0 1 1 1 1 0 2 0 1
Nghost:        3602.75 ave        3710 max        3510 min
Histogram: 2 0 0 1 2 1 0 0 1 1
Neighs:        33150.8 ave       41593 max       23521 min
Histogram: 1 0 1 1 1 0 1 2 0 1

Total # of neighbors = 265206
Ave neighs/atom = 724.60656
Ave special neighs/atom = 0
Neighbor list builds = 300
Dangerous builds not checked
OMP_NUM_THREADS environment is not set. Defaulting to 1 thread. (src/comm.cpp:98)
  using 1 OpenMP thread(s) per MPI task
Reading restart file ...
  restart file = 2 Aug 2023, LAMMPS = 2 Aug 2023
  restoring atom style full from restart
  triclinic box = (0 0 0) to (15.0372 13.535 17.6074) with tilt (-7.4931 -0.1585 0.0807)
WARNING: Triclinic box skew is large. LAMMPS will run inefficiently. (src/domain.cpp:220)
  2 by 2 by 2 MPI processor grid
  pair style reaxff stores no restart info
  366 atoms
Finding 1-2 1-3 1-4 neighbors ...
  special bond factors lj:    0        0        0       
  special bond factors coul:  0        0        0       
     0 = max # of 1-2 neighbors
     0 = max # of 1-3 neighbors
     0 = max # of 1-4 neighbors
     1 = max # of special neighbors
  special bonds CPU = 0.000 seconds
  read_restart CPU = 0.003 seconds
*****Positive-change 3 starts.*****
Resetting global fix info from restart file:
  fix style: nvt, fix ID: 4
Changing box ...
WARNING: Triclinic box skew is large. LAMMPS will run inefficiently. (src/domain.cpp:220)
  triclinic box = (0 0 0) to (15.0372 13.535 17.783474) with tilt (-7.4931 -0.1585 0.0807)
All restart file global fix info was re-assigned
Neighbor list info ...
  update: every = 10 steps, delay = 0 steps, check = no
  max neighbors/atom: 2000, page size: 100000
  master list distance cutoff = 12
  ghost atom cutoff = 12
  binsize = 6, bins = 4 3 3
  2 neighbor lists, perpetual/occasional/extra = 2 0 0
  (1) pair reaxff, perpetual
      attributes: half, newton off, ghost
      pair build: half/bin/newtoff/ghost
      stencil: full/ghost/bin/3d
      bin: standard
  (2) fix qeq/reaxff, perpetual, copy from (1)
      attributes: half, newton off
      pair build: copy
      stencil: none
      bin: none
Setting up Verlet run ...
  Unit style    : real
  Current step  : 0
  Time step     : 0.5
Per MPI rank memory allocation (min/avg/max) = 135.6 | 138.4 | 141.4 Mbytes
   Step          Temp          PotEng         Press        f_avgp[1]        Volume    
         0   290.50298     -44360.323     -18688.13       0              3619.4438    
       100   302.18983     -44371.928      11119.6        6302.0263      3619.4438    
       200   306.93877     -44374.993      12183.428      13381.184      3619.4438    
       300   287.55577     -44366.452      14102.62       17460.124      3619.4438    
       400   277.04272     -44365.651      20475.885      10576.915      3619.4438    
       500   290.66858     -44377.811      14866.276      12767.061      3619.4438    
       600   295.84609     -44362.03       12550.989      8536.1545      3619.4438    
       700   299.49167     -44348.717      3625.4415      16437.133      3619.4438    
       800   311.12401     -44369.032      7505.8587      12770.06       3619.4438    
       900   284.72884     -44366.645      17077.885      10179.227      3619.4438    
      1000   269.89814     -44357.193      17172.6        13471.426      3619.4438    
      1100   307.25831     -44371.042      8861.5314      14111.078      3619.4438    
      1200   335.2352      -44368.542      6134.0251      9377.1136      3619.4438    
      1300   312.74912     -44363.366      12679.222      9106.3456      3619.4438    
      1400   303.59985     -44376.687     -6041.2742      10917.106      3619.4438    
      1500   289.0344      -44383.268      10033.216      16729.426      3619.4438    
      1600   289.84216     -44392.909      10813.534      13073.965      3619.4438    
      1700   309.2235      -44390.994      6644.7739      12448.791      3619.4438    
      1800   325.22683     -44389.92       2247.0394      12519.773      3619.4438    
      1900   292.45382     -44371.985      17260.933      17983.516      3619.4438    
      2000   296.23969     -44398.455      15916.89       14848.686      3619.4438    
      2100   319.9982      -44430.269      1671.2886      11475.163      3619.4438    
      2200   285.93074     -44401.597      9959.2418      13777.418      3619.4438    
      2300   282.89161     -44407.483      14737.026      12671.025      3619.4438    
      2400   304.83952     -44417.101      17354.367      14148.584      3619.4438    
      2500   302.18748     -44388.914      5958.3986      15398.87       3619.4438    
      2600   314.21781     -44393.902      13693.167      10138.106      3619.4438    
      2700   300.37114     -44392.362      10230.301      16121.477      3619.4438    
      2800   279.3186      -44402.578      4759.1684      6239.0894      3619.4438    
      2900   288.00666     -44412.542      4583.0973      12578.434      3619.4438    
      3000   283.79576     -44401.146      10342.593      14605.521      3619.4438    
Loop time of 179.266 on 8 procs for 3000 steps with 366 atoms

Performance: 0.723 ns/day, 33.197 hours/ns, 16.735 timesteps/s, 6.125 katom-step/s
99.1% CPU use with 8 MPI tasks x 1 OpenMP threads

MPI task timing breakdown:
Section |  min time  |  avg time  |  max time  |%varavg| %total
---------------------------------------------------------------
Pair    | 102.22     | 138.19     | 150.3      | 141.7 | 77.09
Bond    | 0.0081645  | 0.0089359  | 0.0095331  |   0.5 |  0.00
Neigh   | 8.1529     | 10.899     | 12.21      |  38.9 |  6.08
Comm    | 3.9339     | 16.069     | 52.066     | 415.5 |  8.96
Output  | 0.008343   | 0.010778   | 0.012826   |   1.5 |  0.01
Modify  | 12.722     | 14.011     | 16.74      |  34.2 |  7.82
Other   |            | 0.0762     |            |       |  0.04

Nlocal:          45.75 ave          55 max          35 min
Histogram: 1 0 0 3 0 0 0 2 1 1
Nghost:        3568.88 ave        3685 max        3466 min
Histogram: 2 0 0 1 2 1 0 0 1 1
Neighs:        32478.1 ave       38726 max       25124 min
Histogram: 1 0 1 2 0 0 0 2 1 1

Total # of neighbors = 259825
Ave neighs/atom = 709.90437
Ave special neighs/atom = 0
Neighbor list builds = 300
Dangerous builds not checked
*****Equilibration pos3 starts.*****
WARNING: New thermo_style command, previous thermo_modify settings will be lost (src/output.cpp:903)
Neighbor list info ...
  update: every = 10 steps, delay = 0 steps, check = no
  max neighbors/atom: 2000, page size: 100000
  master list distance cutoff = 12
  ghost atom cutoff = 12
  binsize = 6, bins = 4 3 3
  2 neighbor lists, perpetual/occasional/extra = 2 0 0
  (1) pair reaxff, perpetual
      attributes: half, newton off, ghost
      pair build: half/bin/newtoff/ghost
      stencil: full/ghost/bin/3d
      bin: standard
  (2) fix qeq/reaxff, perpetual, copy from (1)
      attributes: half, newton off
      pair build: copy
      stencil: none
      bin: none
Setting up Verlet run ...
  Unit style    : real
  Current step  : 0
  Time step     : 0.5
Per MPI rank memory allocation (min/avg/max) = 135.6 | 138.4 | 141.4 Mbytes
   Step          Temp          PotEng         Press        f_avgp[1]        Volume    
         0   283.79576     -44401.146      10342.289      0              3619.4438    
       100   298.05897     -44407.733      12557.152      11462          3619.4438    
       200   308.93216     -44385.961      12343.084      13328.156      3619.4438    
       300   303.22105     -44373.461      16946.86       15780.111      3619.4438    
       400   317.24622     -44400.148      18043.67       14983.76       3619.4438    
       500   307.64801     -44410.213      13573.129      14044.448      3619.4438    
       600   305.86794     -44416.61       8057.4527      21487.281      3619.4438    
       700   296.79584     -44404.756      6429.738       12745.32       3619.4438    
       800   328.89101     -44428.292      12671.042      13124.648      3619.4438    
       900   307.5101      -44379.147      8722.6857      11862.807      3619.4438    
      1000   315.10991     -44383.153      11187.955      14967.035      3619.4438    
      1100   307.95638     -44415.288      15136.373      21784.908      3619.4438    
      1200   291.62496     -44410.57       4563.1387      15985.875      3619.4438    
      1300   310.72194     -44440.288     -1378.1278      14488.143      3619.4438    
      1400   300.4629      -44428.71       16528.601      11016.954      3619.4438    
      1500   313.59853     -44422.862      10688.624      14418.994      3619.4438    
      1600   312.81527     -44393.231      15475.279      16506.726      3619.4438    
      1700   306.67159     -44396.261      9480.3212      10819.679      3619.4438    
      1800   303.06098     -44410.556      11294.759      13137.663      3619.4438    
      1900   310.07628     -44428.674      8149.9536      13574.039      3619.4438    
      2000   317.13516     -44442.668      14923.326      11508.896      3619.4438    
      2100   305.82731     -44427.513      6886.0794      10868.717      3619.4438    
      2200   305.92354     -44411.124      4053.0955      5147.4045      3619.4438    
      2300   306.9867      -44380.456      18067.993      14042.566      3619.4438    
      2400   310.63871     -44386.72       23798.364      18368.194      3619.4438    
      2500   289.42494     -44402.817      6475.8408      17546.124      3619.4438    
      2600   292.912       -44417.496      9247.9971      14232.44       3619.4438    
      2700   290.21042     -44412.026      7882.8378      10392.247      3619.4438    
      2800   294.74296     -44415.293      3197.6754      6557.177       3619.4438    
      2900   291.77162     -44404.884      1555.6689      11060.974      3619.4438    
      3000   302.35371     -44391.125      14267.022      10961.114      3619.4438    
Loop time of 180.077 on 8 procs for 3000 steps with 366 atoms

Performance: 0.720 ns/day, 33.348 hours/ns, 16.660 timesteps/s, 6.097 katom-step/s
99.1% CPU use with 8 MPI tasks x 1 OpenMP threads

MPI task timing breakdown:
Section |  min time  |  avg time  |  max time  |%varavg| %total
---------------------------------------------------------------
Pair    | 101.84     | 137.21     | 153.93     | 151.7 | 76.19
Bond    | 0.0082248  | 0.0089706  | 0.0096637  |   0.5 |  0.00
Neigh   | 8.1495     | 10.811     | 11.902     |  39.7 |  6.00
Comm    | 1.0564     | 17.814     | 53.22      | 421.0 |  9.89
Output  | 0.0012778  | 0.0017627  | 0.0042825  |   2.3 |  0.00
Modify  | 13.091     | 14.158     | 16.794     |  34.6 |  7.86
Other   |            | 0.07466    |            |       |  0.04

Nlocal:          45.75 ave          55 max          32 min
Histogram: 1 0 0 2 1 0 0 1 1 2
Nghost:        3553.88 ave        3679 max        3444 min
Histogram: 2 0 0 1 1 1 1 1 0 1
Neighs:        32478.2 ave       38960 max       22975 min
Histogram: 1 0 0 2 1 0 0 0 2 2

Total # of neighbors = 259826
Ave neighs/atom = 709.9071
Ave special neighs/atom = 0
Neighbor list builds = 300
Dangerous builds not checked
OMP_NUM_THREADS environment is not set. Defaulting to 1 thread. (src/comm.cpp:98)
  using 1 OpenMP thread(s) per MPI task
Reading restart file ...
  restart file = 2 Aug 2023, LAMMPS = 2 Aug 2023
  restoring atom style full from restart
  triclinic box = (0 0 0) to (15.0372 13.535 17.6074) with tilt (-7.4931 -0.1585 0.0807)
WARNING: Triclinic box skew is large. LAMMPS will run inefficiently. (src/domain.cpp:220)
  2 by 2 by 2 MPI processor grid
  pair style reaxff stores no restart info
  366 atoms
Finding 1-2 1-3 1-4 neighbors ...
  special bond factors lj:    0        0        0       
  special bond factors coul:  0        0        0       
     0 = max # of 1-2 neighbors
     0 = max # of 1-3 neighbors
     0 = max # of 1-4 neighbors
     1 = max # of special neighbors
  special bonds CPU = 0.000 seconds
  read_restart CPU = 0.003 seconds
*****Negative-change 4 starts.*****
Resetting global fix info from restart file:
  fix style: nvt, fix ID: 4
Changing box ...
WARNING: Triclinic box skew is large. LAMMPS will run inefficiently. (src/domain.cpp:220)
  triclinic box = (0 0 0) to (15.0372 13.535 17.6074) with tilt (-7.4931 -0.1585 -0.095374)
All restart file global fix info was re-assigned
Neighbor list info ...
  update: every = 10 steps, delay = 0 steps, check = no
  max neighbors/atom: 2000, page size: 100000
  master list distance cutoff = 12
  ghost atom cutoff = 12
  binsize = 6, bins = 4 3 3
  2 neighbor lists, perpetual/occasional/extra = 2 0 0
  (1) pair reaxff, perpetual
      attributes: half, newton off, ghost
      pair build: half/bin/newtoff/ghost
      stencil: full/ghost/bin/3d
      bin: standard
  (2) fix qeq/reaxff, perpetual, copy from (1)
      attributes: half, newton off
      pair build: copy
      stencil: none
      bin: none
Setting up Verlet run ...
  Unit style    : real
  Current step  : 0
  Time step     : 0.5
Per MPI rank memory allocation (min/avg/max) = 136.8 | 139.5 | 142.3 Mbytes
   Step          Temp          PotEng         Press        f_avgp[1]        Volume    
         0   290.50298     -44360.893      17285.387      0              3583.6077    
       100   295.79472     -44365.343      25822.582      14017.689      3583.6077    
       200   318.1782      -44385.043      13135.98       17409.501      3583.6077    
       300   303.56252     -44376.055      20741.848      24401.888      3583.6077    
       400   278.60278     -44357.363      22307.204      12900.881      3583.6077    
       500   272.62014     -44365.184      28775.677      19960.434      3583.6077    
       600   296.31263     -44384.246      18001.898      11867.498      3583.6077    
       700   315.36563     -44376.03       9251.4017      18603.084      3583.6077    
       800   321.08925     -44375.274      21263.876      19990.28       3583.6077    
       900   292.46822     -44358.763      8699.7853      15645.301      3583.6077    
      1000   289.43237     -44377.65       9104.61        21830.215      3583.6077    
      1100   285.31868     -44399.45       17082.068      20869.432      3583.6077    
      1200   297.9904      -44400.025      1309.1672      8109.8309      3583.6077    
      1300   285.18176     -44362.75       16824.519      17723.618      3583.6077    
      1400   297.83203     -44368.546      16001.704      16075.21       3583.6077    
      1500   287.87163     -44354.014      12984.839      17376.574      3583.6077    
      1600   310.91064     -44376.515      26502.313      19440.912      3583.6077    
      1700   279.54433     -44356.527      23008.721      15170.703      3583.6077    
      1800   281.09724     -44377.081      11832.578      18817.99       3583.6077    
      1900   296.22916     -44384.991      16650.62       19435.347      3583.6077    
      2000   310.47679     -44367.806      14134.088      13039          3583.6077    
      2100   310.02256     -44366.006      21444.278      16792.8        3583.6077    
      2200   307.74196     -44374.689      24112.791      19231.456      3583.6077    
      2300   290.82308     -44367.249      10556.049      12142.066      3583.6077    
      2400   299.08004     -44389.384      6024.7428      14010.981      3583.6077    
      2500   284.27589     -44389.981      3704.1566      11717.492      3583.6077    
      2600   291.99379     -44384.999      10998.824      12874.95       3583.6077    
      2700   298.29701     -44364.382      11766.56       14539.894      3583.6077    
      2800   302.71674     -44352.841      15538.661      14520.495      3583.6077    
      2900   313.57013     -44372.243      15653.889      17330.727      3583.6077    
      3000   299.54942     -44376.829      16337.515      15266.959      3583.6077    
Loop time of 182.955 on 8 procs for 3000 steps with 366 atoms

Performance: 0.708 ns/day, 33.881 hours/ns, 16.397 timesteps/s, 6.001 katom-step/s
99.1% CPU use with 8 MPI tasks x 1 OpenMP threads

MPI task timing breakdown:
Section |  min time  |  avg time  |  max time  |%varavg| %total
---------------------------------------------------------------
Pair    | 104.81     | 142.37     | 156.2      | 132.0 | 77.82
[...]
      attributes: half, newton off
      pair build: copy
      stencil: none
      bin: none
Setting up Verlet run ...
  Unit style    : real
  Current step  : 0
  Time step     : 0.5
Per MPI rank memory allocation (min/avg/max) = 136.9 | 139.7 | 142.5 Mbytes
   Step          Temp          PotEng         Press        f_avgp[1]        Volume    
         0   290.50298     -44360.908      20696.534      0              3583.6077    
       100   299.73678     -44369.431      17388.342      12773.285      3583.6077    
       200   318.38548     -44384.349      19276.563      19045.229      3583.6077    
       300   284.3155      -44356.841      16421.229      22127.062      3583.6077    
       400   291.66595     -44380.618      32935.637      15391.032      3583.6077    
       500   272.60219     -44386.884      14621.355      14188.19       3583.6077    
       600   285.10883     -44400.13       8441.8655      15506.152      3583.6077    
       700   293.56279     -44372.631      12007.566      15761.999      3583.6077    
       800   301.45221     -44370.185      14882.872      18306.481      3583.6077    
       900   301.82211     -44370.71       26862.319      17754.925      3583.6077    
      1000   285.86731     -44349.646      15709.216      13317.148      3583.6077    
      1100   313.00778     -44363.353      27270.571      17210.05       3583.6077    
      1200   303.30036     -44339.135      11713.709      12602.07       3583.6077    
      1300   289.89806     -44345.172      4536.1292      12032.544      3583.6077    
      1400   283.83863     -44369.559      862.06815      10582.166      3583.6077    
      1500   285.79548     -44371.717      8975.3665      13069.803      3583.6077    
      1600   309.84372     -44384.383      15335.078      14858.175      3583.6077    
      1700   299.74214     -44367.408      6897.5203      14186.429      3583.6077    
      1800   327.49301     -44377.641      7463.7953      8828.6927      3583.6077    
      1900   330.00977     -44350.549      17980.543      14810.837      3583.6077    
      2000   294.23974     -44333.827      19704.259      16229.815      3583.6077    
      2100   294.89811     -44359.743      14194.157      13179.035      3583.6077    
      2200   308.53915     -44385.28       4875.4838      12275.864      3583.6077    
      2300   291.7084      -44381.282      11702.308      19429.685      3583.6077    
      2400   300.41476     -44381.754     -127.07435      12749.278      3583.6077    
      2500   339.3399      -44384.959      17033.328      14185.119      3583.6077    
      2600   306.80081     -44348.617      19559.969      22247.205      3583.6077    
      2700   298.14981     -44351.709      9588.5455      22174.252      3583.6077    
      2800   282.66786     -44355.984      12563.64       20517.738      3583.6077    
      2900   299.58182     -44384.301      17799.329      19957.189      3583.6077    
      3000   301.3045      -44382.644      18698.845      9818.3744      3583.6077    
Loop time of 107.098 on 8 procs for 3000 steps with 366 atoms

Performance: 1.210 ns/day, 19.833 hours/ns, 28.012 timesteps/s, 10.252 katom-step/s
98.9% CPU use with 8 MPI tasks x 1 OpenMP threads

MPI task timing breakdown:
Section |  min time  |  avg time  |  max time  |%varavg| %total
---------------------------------------------------------------
Pair    | 83.345     | 84.875     | 88.354     |  19.6 | 79.25
Bond    | 0.0061536  | 0.0067129  | 0.0071525  |   0.4 |  0.01
Neigh   | 8.1325     | 8.448      | 8.7815     |   7.3 |  7.89
Comm    | 0.61265    | 4.1003     | 5.6491     |  89.5 |  3.83
Output  | 0.0044397  | 0.0059534  | 0.0069006  |   1.1 |  0.01
Modify  | 9.272      | 9.594      | 9.8919     |   6.5 |  8.96
Other   |            | 0.06766    |            |       |  0.06

Nlocal:          45.75 ave          55 max          31 min
Histogram: 1 0 0 0 2 1 0 2 0 2
Nghost:        3614.12 ave        3732 max        3500 min
Histogram: 1 1 0 1 2 0 1 0 1 1
Neighs:        32816.5 ave       39381 max       22494 min
Histogram: 1 0 0 1 1 1 0 2 0 2

Total # of neighbors = 262532
Ave neighs/atom = 717.30055
Ave special neighs/atom = 0
Neighbor list builds = 300
Dangerous builds not checked
*****Equilibration neg6 starts.*****
WARNING: New thermo_style command, previous thermo_modify settings will be lost (src/output.cpp:903)
Neighbor list info ...
  update: every = 10 steps, delay = 0 steps, check = no
  max neighbors/atom: 2000, page size: 100000
  master list distance cutoff = 12
  ghost atom cutoff = 12
  binsize = 6, bins = 4 3 3
  2 neighbor lists, perpetual/occasional/extra = 2 0 0
  (1) pair reaxff, perpetual
      attributes: half, newton off, ghost
      pair build: half/bin/newtoff/ghost
      stencil: full/ghost/bin/3d
      bin: standard
  (2) fix qeq/reaxff, perpetual, copy from (1)
      attributes: half, newton off
      pair build: copy
      stencil: none
      bin: none
Setting up Verlet run ...
  Unit style    : real
  Current step  : 0
  Time step     : 0.5
Per MPI rank memory allocation (min/avg/max) = 136.9 | 139.9 | 143.3 Mbytes
   Step          Temp          PotEng         Press        f_avgp[1]        Volume    
         0   301.3045      -44382.644      18698.762      0              3583.6077    
       100   308.17388     -44384.442      19967.424      15506.494      3583.6077    
       200   310.80926     -44365.953      9242.9182      14542.023      3583.6077    
       300   315.60689     -44343.454      12996.26       15181.998      3583.6077    
       400   319.7519      -44354.768      3926.0977      16375.277      3583.6077    
       500   302.50337     -44375.607      8841.4047      12785.815      3583.6077    
       600   299.71111     -44382.208      6269.3305      12875.69       3583.6077    
       700   301.56258     -44383.905      18493.817      18582.818      3583.6077    
       800   318.26313     -44402.532      17916.152      15686.426      3583.6077    
       900   308.60783     -44396.615      27036.145      16745.819      3583.6077    
      1000   287.64445     -44377.589      13816.287      11121.055      3583.6077    
      1100   292.5595      -44374.713      6352.3343      13495.876      3583.6077    
      1200   306.89199     -44367.564      23136.402      16046.233      3583.6077    
      1300   316.0712      -44371.116      28442.064      23374.526      3583.6077    
      1400   281.92512     -44365.218      12439.944      14390.746      3583.6077    
      1500   278.93641     -44384.32       13750.726      15537.656      3583.6077    
      1600   278.72774     -44376.449      16127.819      19064.399      3583.6077    
      1700   281.18232     -44360.838      17183.281      18531.864      3583.6077    
      1800   319.86581     -44388.724      11630.935      10454.476      3583.6077    
      1900   307.16778     -44375.533      3240.9383      15203.619      3583.6077    
      2000   295.38101     -44401.556      6891.1411      16937.964      3583.6077    
      2100   283.43871     -44405.428      14025.271      13763.761      3583.6077    
      2200   307.81191     -44405.158      9436.5249      21951.953      3583.6077    
      2300   309.93847     -44383.458      14596.103      17950.854      3583.6077    
      2400   306.95885     -44373.539      22563.848      18358.285      3583.6077    
      2500   289.36762     -44367.179      19803.536      15974.476      3583.6077    
      2600   294.11904     -44398.68       21845.475      14261.565      3583.6077    
      2700   274.70266     -44389.769      16903.689      13634.737      3583.6077    
      2800   303.37846     -44384.792      5579.0085      20743.475      3583.6077    
      2900   282.2119      -44342.229      14669.508      14318.916      3583.6077    
      3000   321.24841     -44387.274      16367.836      11911.213      3583.6077    
Loop time of 103.474 on 8 procs for 3000 steps with 366 atoms

Performance: 1.252 ns/day, 19.162 hours/ns, 28.993 timesteps/s, 10.611 katom-step/s
98.9% CPU use with 8 MPI tasks x 1 OpenMP threads

MPI task timing breakdown:
Section |  min time  |  avg time  |  max time  |%varavg| %total
---------------------------------------------------------------
Pair    | 80.006     | 81.807     | 84.837     |  18.9 | 79.06
Bond    | 0.0059227  | 0.0063755  | 0.0067358  |   0.4 |  0.01
Neigh   | 8.1307     | 8.4042     | 8.701      |   6.3 |  8.12
Comm    | 0.64192    | 3.6812     | 5.494      |  89.8 |  3.56
Output  | 0.0010402  | 0.0011415  | 0.0016251  |   0.5 |  0.00
Modify  | 9.2211     | 9.5068     | 9.7633     |   5.6 |  9.19
Other   |            | 0.0666     |            |       |  0.06

Nlocal:          45.75 ave          57 max          33 min
Histogram: 1 0 1 1 1 0 1 2 0 1
Nghost:           3607 ave        3698 max        3527 min
Histogram: 2 0 0 2 0 1 1 0 1 1
Neighs:        32844.2 ave       40506 max       23979 min
Histogram: 1 0 1 1 1 0 1 1 1 1

Total # of neighbors = 262754
Ave neighs/atom = 717.9071
Ave special neighs/atom = 0
Neighbor list builds = 300
Dangerous builds not checked
OMP_NUM_THREADS environment is not set. Defaulting to 1 thread. (src/comm.cpp:98)
  using 1 OpenMP thread(s) per MPI task
Reading restart file ...
  restart file = 2 Aug 2023, LAMMPS = 2 Aug 2023
  restoring atom style full from restart
  triclinic box = (0 0 0) to (15.0372 13.535 17.6074) with tilt (-7.4931 -0.1585 0.0807)
WARNING: Triclinic box skew is large. LAMMPS will run inefficiently. (src/domain.cpp:220)
  2 by 2 by 2 MPI processor grid
  pair style reaxff stores no restart info
  366 atoms
Finding 1-2 1-3 1-4 neighbors ...
  special bond factors lj:    0        0        0       
  special bond factors coul:  0        0        0       
     0 = max # of 1-2 neighbors
     0 = max # of 1-3 neighbors
     0 = max # of 1-4 neighbors
     1 = max # of special neighbors
  special bonds CPU = 0.000 seconds
  read_restart CPU = 0.002 seconds
*****Positive-change 6 starts.*****
Resetting global fix info from restart file:
  fix style: nvt, fix ID: 4
Changing box ...
WARNING: Triclinic box skew is large. LAMMPS will run inefficiently. (src/domain.cpp:220)
  triclinic box = (0 0 0) to (15.0372 13.535 17.6074) with tilt (-7.35775 -0.1585 0.0807)
All restart file global fix info was re-assigned
Neighbor list info ...
  update: every = 10 steps, delay = 0 steps, check = no
  max neighbors/atom: 2000, page size: 100000
  master list distance cutoff = 12
  ghost atom cutoff = 12
  binsize = 6, bins = 4 3 3
  2 neighbor lists, perpetual/occasional/extra = 2 0 0
  (1) pair reaxff, perpetual
      attributes: half, newton off, ghost
      pair build: half/bin/newtoff/ghost
      stencil: full/ghost/bin/3d
      bin: standard
  (2) fix qeq/reaxff, perpetual, copy from (1)
      attributes: half, newton off
      pair build: copy
      stencil: none
      bin: none
Setting up Verlet run ...
  Unit style    : real
  Current step  : 0
  Time step     : 0.5
Per MPI rank memory allocation (min/avg/max) = 136.6 | 139.1 | 141.7 Mbytes
   Step          Temp          PotEng         Press        f_avgp[1]        Volume    
         0   290.50298     -44356.96       18897.989      0              3583.6077    
       100   309.64264     -44377.572      12015.345      11196.064      3583.6077    
       200   307.01941     -44374.214      13935.178      16406.353      3583.6077    
       300   289.83903     -44363.834      14451.768      20913.229      3583.6077    
       400   294.10115     -44384.434      34841.494      15983.436      3583.6077    
       500   274.93939     -44394.347      28001.72       13269.197      3583.6077    
       600   282.0077      -44392.771      5996.352       6192.6539      3583.6077    
       700   302.17024     -44388.203      4425.4014      15640.842      3583.6077    
       800   297.9147      -44378.114      2814.7459      15542.44       3583.6077    
       900   306.63374     -44379.409      13267.308      13306.958      3583.6077    
      1000   310.4643      -44367.221      29688.379      20150.79       3583.6077    
      1100   315.23453     -44345.503      17400.738      18203.374      3583.6077    
      1200   304.08964     -44341.542      16643.812      6031.8926      3583.6077    
      1300   302.93758     -44377.052      17622.301      15047.969      3583.6077    
      1400   301.45144     -44389.818      21006.428      11702.001      3583.6077    
      1500   298.35862     -44393.388      7226.9594      12629.983      3583.6077    
      1600   311.08495     -44398.387      19898.155      12903.957      3583.6077    
      1700   318.09411     -44369.829      25518.096      19803.06       3583.6077    
      1800   305.17214     -44347.85       13276.35       16936.854      3583.6077    
      1900   290.44037     -44346.678     -869.84784      13487.295      3583.6077    
      2000   272.89567     -44349.736      16112.526      12690.023      3583.6077    
      2100   298.34187     -44378.258      9652.0822      10966.672      3583.6077    
      2200   297.19781     -44367.937      16825.627      8882.4741      3583.6077    
      2300   305.4276      -44368.283      7029.4397      16331.363      3583.6077    
      2400   302.9942      -44356.44       21181.203      13372.787      3583.6077    
      2500   301.83775     -44345.193      9069.915       18210.706      3583.6077    
      2600   287.73255     -44335.118      9424.0371      14328.343      3583.6077    
      2700   314.38583     -44386.702      4021.0034      12142.938      3583.6077    
      2800   286.19452     -44378.535      21198.913      14298.989      3583.6077    
      2900   277.07939     -44372.701      14757.209      12314.436      3583.6077    
      3000   303.541       -44374.2        18519.421      15048.399      3583.6077    
Loop time of 95.9029 on 8 procs for 3000 steps with 366 atoms

Performance: 1.351 ns/day, 17.760 hours/ns, 31.282 timesteps/s, 11.449 katom-step/s
98.8% CPU use with 8 MPI tasks x 1 OpenMP threads

MPI task timing breakdown:
Section |  min time  |  avg time  |  max time  |%varavg| %total
---------------------------------------------------------------
Pair    | 71.633     | 74.096     | 77.669     |  25.0 | 77.26
Bond    | 0.005315   | 0.005696   | 0.0063665  |   0.4 |  0.01
Neigh   | 7.9114     | 8.1812     | 8.4577     |   6.2 |  8.53
Comm    | 0.64375    | 4.2255     | 6.7078     | 105.3 |  4.41
Output  | 0.0042982  | 0.0057956  | 0.0067729  |   1.2 |  0.01
Modify  | 9.0609     | 9.3258     | 9.581      |   5.5 |  9.72
Other   |            | 0.06266    |            |       |  0.07

Nlocal:          45.75 ave          55 max          34 min
Histogram: 1 0 2 0 1 0 0 1 1 2
Nghost:        3578.12 ave        3676 max        3473 min
Histogram: 1 1 0 0 2 2 0 0 0 2
Neighs:        32778.2 ave       39124 max       24692 min
Histogram: 1 0 2 0 1 0 0 1 1 2

Total # of neighbors = 262226
Ave neighs/atom = 716.46448
Ave special neighs/atom = 0
Neighbor list builds = 300
Dangerous builds not checked
*****Equilibration pos6 starts.*****
WARNING: New thermo_style command, previous thermo_modify settings will be lost (src/output.cpp:903)
Neighbor list info ...
  update: every = 10 steps, delay = 0 steps, check = no
  max neighbors/atom: 2000, page size: 100000
  master list distance cutoff = 12
  ghost atom cutoff = 12
  binsize = 6, bins = 4 3 3
  2 neighbor lists, perpetual/occasional/extra = 2 0 0
  (1) pair reaxff, perpetual
      attributes: half, newton off, ghost
      pair build: half/bin/newtoff/ghost
      stencil: full/ghost/bin/3d
      bin: standard
  (2) fix qeq/reaxff, perpetual, copy from (1)
      attributes: half, newton off
      pair build: copy
      stencil: none
      bin: none
Setting up Verlet run ...
  Unit style    : real
  Current step  : 0
  Time step     : 0.5
Per MPI rank memory allocation (min/avg/max) = 136.6 | 139.1 | 141.7 Mbytes
   Step          Temp          PotEng         Press        f_avgp[1]        Volume    
         0   303.541       -44374.2        18519.348      0              3583.6077    
       100   298.4265      -44363.112      7027.0772      10334.007      3583.6077    
       200   303.12198     -44375.251      10636.305      10562.299      3583.6077    
       300   302.58484     -44406.344      16993.876      13182.596      3583.6077    
       400   295.36956     -44400.203      13550.317      14965.711      3583.6077    
       500   295.36602     -44374.364      6566.9959      12614.119      3583.6077    
       600   304.31263     -44369.596      15497.856      17367.189      3583.6077    
       700   294.54497     -44363.963      6790.4431      15480.36       3583.6077    
       800   288.3387      -44365.009      14147.779      13634.771      3583.6077    
       900   290.87879     -44373.443      12722.517      12512.314      3583.6077    
      1000   302.73511     -44375.246      13214.437      16516.708      3583.6077    
      1100   323.64452     -44385.301      8428.0151      12534.715      3583.6077    
      1200   322.70241     -44388.528      21029.798      14429.808      3583.6077    
      1300   283.70566     -44371.886      19784.355      14396.823      3583.6077    
      1400   292.9601      -44394.298      7217.9982      16465.956      3583.6077    
      1500   298.48809     -44391.11       12009.082      12797.284      3583.6077    
      1600   328.88764     -44382.206      20216.114      19569.968      3583.6077    
      1700   299.8717      -44352.3        6048.6381      15795.114      3583.6077    
      1800   313.54744     -44390.894      5120.4519      15392.579      3583.6077    
      1900   289.07465     -44378.772      26949.302      16408.329      3583.6077    
      2000   305.96995     -44394.986      10755.52       15629.982      3583.6077    
      2100   286.55212     -44363.093      12050.598      18326.074      3583.6077    
      2200   308.01017     -44339.734      24032.595      13897.747      3583.6077    
      2300   317.04056     -44352.809      14180.66       11833.215      3583.6077    
      2400   300.37417     -44367.262      13331.293      16385.149      3583.6077    
      2500   314.62573     -44392.057      8406.9382      12689.925      3583.6077    
      2600   306.39963     -44386.638      21051.965      17063.292      3583.6077    
      2700   291.82344     -44385.576      15221.07       13833.756      3583.6077    
      2800   277.77003     -44397.947      20961.457      17484.648      3583.6077    
      2900   285.28727     -44398.269      13122.792      22780.791      3583.6077    
      3000   299.06897     -44385.505      20227.636      21920.54       3583.6077    
Loop time of 95.9431 on 8 procs for 3000 steps with 366 atoms

Performance: 1.351 ns/day, 17.767 hours/ns, 31.269 timesteps/s, 11.444 katom-step/s
98.9% CPU use with 8 MPI tasks x 1 OpenMP threads

MPI task timing breakdown:
Section |  min time  |  avg time  |  max time  |%varavg| %total
---------------------------------------------------------------
Pair    | 71.683     | 74.037     | 77.743     |  24.5 | 77.17
Bond    | 0.0052686  | 0.0056673  | 0.0062983  |   0.4 |  0.01
Neigh   | 7.9055     | 8.1801     | 8.4638     |   6.4 |  8.53
Comm    | 0.62158    | 4.3372     | 6.7045     | 102.0 |  4.52
Output  | 0.0008168  | 0.00089642 | 0.0013788  |   0.0 |  0.00
Modify  | 9.0439     | 9.3191     | 9.5787     |   5.7 |  9.71
Other   |            | 0.06272    |            |       |  0.07

Nlocal:          45.75 ave          55 max          31 min
Histogram: 1 0 0 1 1 1 0 0 2 2
Nghost:        3567.88 ave        3691 max        3455 min
Histogram: 1 1 0 1 1 1 1 1 0 1
Neighs:        32796.5 ave       39412 max       22510 min
Histogram: 1 0 0 1 1 1 0 0 3 1

Total # of neighbors = 262372
Ave neighs/atom = 716.86339
Ave special neighs/atom = 0
Neighbor list builds = 300
Dangerous builds not checked
Total wall time: 1:04:29
