LAMMPS (2 Aug 2023 - Update 2)
OMP_NUM_THREADS environment is not set. Defaulting to 1 thread. (src/comm.cpp:98)
  using 1 OpenMP thread(s) per MPI task
Reading data file ...
  triclinic box = (0 0 0) to (15.4861 14.0699 16.771) with tilt (-7.3915 0.9919 1.0308)
WARNING: Triclinic box skew is large. LAMMPS will run inefficiently. (src/domain.cpp:220)
  2 by 2 by 2 MPI processor grid
  reading atoms ...
  274 atoms
Finding 1-2 1-3 1-4 neighbors ...
  special bond factors lj:    0        0        0       
  special bond factors coul:  0        0        0       
     0 = max # of 1-2 neighbors
     0 = max # of 1-3 neighbors
     0 = max # of 1-4 neighbors
     1 = max # of special neighbors
  special bonds CPU = 0.001 seconds
  read_data CPU = 0.006 seconds
*****Minimization starts.*****
Setting up cg style minimization ...
  Unit style    : real
  Current step  : 0
WARNING: No pairwise cutoff or binsize set. Atom sorting therefore disabled. (src/atom.cpp:2366)
WARNING: Communication cutoff is 0.0. No ghost atoms will be generated. Atoms may get lost. (src/comm_brick.cpp:210)
Per MPI rank memory allocation (min/avg/max) = 6.364 | 6.364 | 6.364 Mbytes
   Step          Temp          E_pair         E_mol          TotEng         Press     
         0   0              0              0              0              0            
         1   0              0              0              0              0            
Loop time of 6.17485e-05 on 8 procs for 1 steps with 274 atoms

53.0% CPU use with 8 MPI tasks x 1 OpenMP threads

Minimization stats:
  Stopping criterion = search direction is not downhill
  Energy initial, next-to-last, final = 
                     0                  0                  0
  Force two-norm initial, final = 0 0
  Force max component initial, final = 0 0
  Final line search alpha, max atom move = 0 0
  Iterations, force evaluations = 1 0

MPI task timing breakdown:
Section |  min time  |  avg time  |  max time  |%varavg| %total
---------------------------------------------------------------
Pair    | 0          | 0          | 0          |   0.0 |  0.00
Bond    | 1.41e-07   | 1.6862e-07 | 1.93e-07   |   0.0 |  0.27
Neigh   | 0          | 0          | 0          |   0.0 |  0.00
Comm    | 8.84e-07   | 1.1765e-06 | 1.487e-06  |   0.0 |  1.91
Output  | 0          | 0          | 0          |   0.0 |  0.00
Modify  | 0          | 0          | 0          |   0.0 |  0.00
Other   |            | 6.04e-05   |            |       | 97.82

Nlocal:          34.25 ave          43 max          26 min
Histogram: 1 1 0 0 2 1 1 1 0 1
Nghost:              0 ave           0 max           0 min
Histogram: 8 0 0 0 0 0 0 0 0 0
Neighs:              0 ave           0 max           0 min
Histogram: 8 0 0 0 0 0 0 0 0 0

Total # of neighbors = 0
Ave neighs/atom = 0
Ave special neighs/atom = 0
Neighbor list builds = 0
Dangerous builds = 0
System init for write_data ...
WARNING: Communication cutoff is 0.0. No ghost atoms will be generated. Atoms may get lost. (src/comm_brick.cpp:210)
WARNING: New thermo_style command, previous thermo_modify settings will be lost (src/output.cpp:903)

CITE-CITE-CITE-CITE-CITE-CITE-CITE-CITE-CITE-CITE-CITE-CITE-CITE

Your simulation uses code contributions which should be cited:
- pair reaxff command: doi:10.1016/j.parco.2011.08.005
- fix qeq/reaxff command: doi:10.1016/j.parco.2011.08.005
The log file lists these citations in BibTeX format.

CITE-CITE-CITE-CITE-CITE-CITE-CITE-CITE-CITE-CITE-CITE-CITE-CITE

WARNING: Fix qeq/reaxff group is not charge neutral, net charge = -8.2 (src/REAXFF/fix_qeq_reaxff.cpp:392)
Neighbor list info ...
  update: every = 10 steps, delay = 0 steps, check = no
  max neighbors/atom: 2000, page size: 100000
  master list distance cutoff = 12
  ghost atom cutoff = 12
  binsize = 6, bins = 4 3 3
  2 neighbor lists, perpetual/occasional/extra = 2 0 0
  (1) pair reaxff, perpetual
      attributes: half, newton off, ghost
      pair build: half/bin/newtoff/ghost
      stencil: full/ghost/bin/3d
      bin: standard
  (2) fix qeq/reaxff, perpetual, copy from (1)
      attributes: half, newton off
      pair build: copy
      stencil: none
      bin: none
Setting up Verlet run ...
  Unit style    : real
  Current step  : 0
  Time step     : 0.5
Per MPI rank memory allocation (min/avg/max) = 102.5 | 103.1 | 103.8 Mbytes
   Step          Temp          PotEng         Press         Density         Volume    
         0   300           -29318.373      56055.99       1.3867102      3654.1976    
       100   1277.2119     -31113.813     -19519.09       1.3867102      3654.1976    
       200   729.26732     -31511.547     -19620.686      1.3867102      3654.1976    
       300   528.07469     -31808.26      -8207.2906      1.3867102      3654.1976    
       400   372.71712     -31933.343     -9342.0707      1.3867102      3654.1976    
       500   292.87841     -32007.731     -8712.1783      1.3867102      3654.1976    
       600   278.62283     -32064.193     -11514.86       1.3867102      3654.1976    
       700   281.04226     -32088.649     -9248.5702      1.3867102      3654.1976    
       800   279.89746     -32064.668     -2375.4753      1.3867102      3654.1976    
       900   303.41482     -32028.512     -22.20827       1.3867102      3654.1976    
      1000   372.27009     -32055.325     -4177.1294      1.3867102      3654.1976    
      1100   316.39072     -32072.652     -10120.325      1.3867102      3654.1976    
      1200   267.89763     -32103.976     -3669.9395      1.3867102      3654.1976    
      1300   273.01778     -32141.707     -4368.5887      1.3867102      3654.1976    
      1400   280.19896     -32148.25      -7665.4644      1.3867102      3654.1976    
      1500   292.1266      -32126.578     -10035.035      1.3867102      3654.1976    
      1600   314.43233     -32120.663      262.09984      1.3867102      3654.1976    
      1700   337.08622     -32146.589     -13782.691      1.3867102      3654.1976    
      1800   293.82713     -32149.147     -5718.6269      1.3867102      3654.1976    
      1900   284.70935     -32181.149     -13842.928      1.3867102      3654.1976    
      2000   282.5813      -32191.498     -11687.094      1.3867102      3654.1976    
      2100   277.26612     -32163.008     -13474.256      1.3867102      3654.1976    
      2200   312.32933     -32144.612     -21383.207      1.3867102      3654.1976    
      2300   345.70766     -32153.367     -23325.455      1.3867102      3654.1976    
      2400   314.22462     -32159.371     -19118.956      1.3867102      3654.1976    
      2500   279.11086     -32177.189     -20608.424      1.3867102      3654.1976    
      2600   276.15098     -32200.031     -8122.6896      1.3867102      3654.1976    
      2700   288.2772      -32208.725     -9149.574       1.3867102      3654.1976    
      2800   313.06516     -32206.801     -16061.714      1.3867102      3654.1976    
      2900   305.04559     -32174.751     -14799.032      1.3867102      3654.1976    
      3000   308.0235      -32160.14      -22041.312      1.3867102      3654.1976    
      3100   313.98315     -32173.362      6218.3598      1.3867102      3654.1976    
      3200   301.12756     -32187.959     -10848.019      1.3867102      3654.1976    
      3300   299.07735     -32201.139     -6418.4441      1.3867102      3654.1976    
      3400   287.3551      -32185.2       -10822.992      1.3867102      3654.1976    
      3500   309.67669     -32185.278     -11125.424      1.3867102      3654.1976    
      3600   318.47383     -32178.124     -9748.0689      1.3867102      3654.1976    
      3700   274.12998     -32147.88      -20803.035      1.3867102      3654.1976    
      3800   305.90346     -32183.966     -7842.3726      1.3867102      3654.1976    
      3900   298.01453     -32186.115     -7371.0775      1.3867102      3654.1976    
      4000   314.96373     -32195.7       -4154.9816      1.3867102      3654.1976    
      4100   316.96719     -32203.599     -4272.4213      1.3867102      3654.1976    
      4200   304.23512     -32202.64      -5724.8512      1.3867102      3654.1976    
      4300   282.73459     -32198.438     -14258.825      1.3867102      3654.1976    
      4400   284.39456     -32198.573     -22452.41       1.3867102      3654.1976    
      4500   288.13087     -32192.259     -12365.28       1.3867102      3654.1976    
      4600   307.33236     -32194.546     -10809.387      1.3867102      3654.1976    
      4700   299.85818     -32185.157     -5759.4296      1.3867102      3654.1976    
      4800   317.95437     -32200.527     -8233.9301      1.3867102      3654.1976    
      4900   309.13622     -32205.415     -8737.9847      1.3867102      3654.1976    
      5000   286.46637     -32205.925     -15067.559      1.3867102      3654.1976    
Loop time of 177.113 on 8 procs for 5000 steps with 274 atoms

Performance: 1.220 ns/day, 19.679 hours/ns, 28.230 timesteps/s, 7.735 katom-step/s
98.6% CPU use with 8 MPI tasks x 1 OpenMP threads

MPI task timing breakdown:
Section |  min time  |  avg time  |  max time  |%varavg| %total
---------------------------------------------------------------
Pair    | 138.84     | 142.22     | 146.9      |  22.7 | 80.30
Bond    | 0.0017191  | 0.0019652  | 0.0022725  |   0.4 |  0.00
Neigh   | 11.351     | 11.51      | 11.674     |   3.6 |  6.50
Comm    | 2.4471     | 7.1426     | 10.526     | 101.5 |  4.03
Output  | 0.0029928  | 0.0031945  | 0.0044111  |   0.8 |  0.00
Modify  | 15.976     | 16.148     | 16.303     |   3.0 |  9.12
Other   |            | 0.08644    |            |       |  0.05

Nlocal:          34.25 ave          42 max          29 min
Histogram: 1 1 2 2 0 0 0 0 0 2
Nghost:        2625.25 ave        2634 max        2614 min
Histogram: 1 1 0 0 1 1 1 0 1 2
Neighs:        17950.1 ave       21797 max       15385 min
Histogram: 1 1 3 1 0 0 0 0 0 2

Total # of neighbors = 143601
Ave neighs/atom = 524.09124
Ave special neighs/atom = 0
Neighbor list builds = 500
Dangerous builds not checked
System init for write_data ...
System init for write_restart ...
OMP_NUM_THREADS environment is not set. Defaulting to 1 thread. (src/comm.cpp:98)
  using 1 OpenMP thread(s) per MPI task
Reading restart file ...
  restart file = 2 Aug 2023, LAMMPS = 2 Aug 2023
  restoring atom style full from restart
  triclinic box = (0 0 0) to (15.4861 14.0699 16.771) with tilt (-7.3915 0.9919 1.0308)
WARNING: Triclinic box skew is large. LAMMPS will run inefficiently. (src/domain.cpp:220)
  2 by 2 by 2 MPI processor grid
  pair style reaxff stores no restart info
  274 atoms
Finding 1-2 1-3 1-4 neighbors ...
  special bond factors lj:    0        0        0       
  special bond factors coul:  0        0        0       
     0 = max # of 1-2 neighbors
     0 = max # of 1-3 neighbors
     0 = max # of 1-4 neighbors
     1 = max # of special neighbors
  special bonds CPU = 0.000 seconds
  read_restart CPU = 0.003 seconds
*****debug*****
xy = -7.3914999999999997371, deltaxy = 0.73915
xz = 0.99190000000000000391, deltaxz = -0.09919
yz = 1.0307999999999999385, deltayz = -0.10308
*****
*****Negative-deform 1 starts.*****
Resetting global fix info from restart file:
  fix style: nvt, fix ID: fnvt
All restart file global fix info was re-assigned
Neighbor list info ...
  update: every = 10 steps, delay = 0 steps, check = no
  max neighbors/atom: 2000, page size: 100000
  master list distance cutoff = 12
  ghost atom cutoff = 12
  binsize = 6, bins = 4 3 3
  2 neighbor lists, perpetual/occasional/extra = 2 0 0
  (1) pair reaxff, perpetual
      attributes: half, newton off, ghost
      pair build: half/bin/newtoff/ghost
      stencil: full/ghost/bin/3d
      bin: standard
  (2) fix qeq/reaxff, perpetual, copy from (1)
      attributes: half, newton off
      pair build: copy
      stencil: none
      bin: none
Setting up Verlet run ...
  Unit style    : real
  Current step  : 0
  Time step     : 0.5
Per MPI rank memory allocation (min/avg/max) = 102.2 | 102.6 | 103.1 Mbytes
   Step          Temp          PotEng         Press          Volume           Lx             Ly             Lz      
         0   286.46637     -32205.925     -15067.536      3654.1976      15.4861        14.0699        16.771       
       100   293.19296     -32215.519     -18834.716      3646.8892      15.455128      14.0699        16.771       
       200   309.73498     -32226.19      -19227.814      3639.5808      15.424156      14.0699        16.771       
       300   282.19517     -32197.315     -6569.6542      3632.2724      15.393183      14.0699        16.771       
       400   310.00572     -32204.865     -10483.724      3624.964       15.362211      14.0699        16.771       
       500   334.47529     -32212.991     -20832.382      3617.6556      15.331239      14.0699        16.771       
       600   306.69983     -32200.403     -5043.8626      3610.3472      15.300267      14.0699        16.771       
       700   302.80823     -32219.915     -7711.4112      3603.0388      15.269295      14.0699        16.771       
       800   297.11336     -32225.247     -16042.995      3595.7304      15.238322      14.0699        16.771       
       900   296.78174     -32227.742     -931.04148      3588.4221      15.20735       14.0699        16.771       
      1000   311.81232     -32233.633     -22734.458      3581.1137      15.176378      14.0699        16.771       
      1100   300.17619     -32212.469     -15976.735      3573.8053      15.145406      14.0699        16.771       
      1200   287.26792     -32191.799      4010.5012      3566.4969      15.114434      14.0699        16.771       
      1300   308.64057     -32211.793     -6782.2879      3559.1885      15.083461      14.0699        16.771       
      1400   302.11116     -32220.302     -1565.6438      3551.8801      15.052489      14.0699        16.771       
      1500   284.66437     -32222.164     -1279.7004      3544.5717      15.021517      14.0699        16.771       
      1600   299.40956     -32243.063     -1453.7765      3537.2633      14.990545      14.0699        16.771       
      1700   299.03815     -32231.462     -6449.3162      3529.9549      14.959573      14.0699        16.771       
      1800   314.68483     -32231.861     -5549.2883      3522.6465      14.9286        14.0699        16.771       
      1900   316.82618     -32236.363     -1751.5208      3515.3381      14.897628      14.0699        16.771       
      2000   305.94433     -32232.038     -11738.365      3508.0297      14.866656      14.0699        16.771       
      2100   301.15716     -32232.545     -12546.626      3500.7213      14.835684      14.0699        16.771       
      2200   310.75302     -32242.113     -1895.722       3493.4129      14.804712      14.0699        16.771       
      2300   296.24432     -32230.686     -2513.0296      3486.1045      14.773739      14.0699        16.771       
      2400   288.05796     -32213.18      -4909.3571      3478.7961      14.742767      14.0699        16.771       
      2500   325.12931     -32228.314      1555.4516      3471.4877      14.711795      14.0699        16.771       
      2600   298.84651     -32219.681     -12980.616      3464.1793      14.680823      14.0699        16.771       
      2700   310.82068     -32248.411      87.097079      3456.8709      14.649851      14.0699        16.771       
      2800   302.07154     -32250.267     -11444.808      3449.5625      14.618878      14.0699        16.771       
      2900   281.04405     -32235.899      2282.6909      3442.2541      14.587906      14.0699        16.771       
      3000   313.51933     -32260.705      8269.105       3434.9458      14.556934      14.0699        16.771       
      3100   287.80055     -32255.677     -6012.3373      3427.6374      14.525962      14.0699        16.771       
      3200   292.40329     -32263.22      -7974.9286      3420.329       14.49499       14.0699        16.771       
      3300   312.64706     -32255.248      10919.195      3413.0206      14.464017      14.0699        16.771       
      3400   306.48079     -32229.303     -5003.4537      3405.7122      14.433045      14.0699        16.771       
      3500   290.90093     -32233.119      3381.6636      3398.4038      14.402073      14.0699        16.771       
      3600   309.84079     -32256.195     -14266.541      3391.0954      14.371101      14.0699        16.771       
      3700   295.24101     -32248.515      4775.6042      3383.787       14.340129      14.0699        16.771       
      3800   292.79905     -32249.983     -10299.907      3376.4786      14.309156      14.0699        16.771       
      3900   297.78871     -32258.271      8027.5912      3369.1702      14.278184      14.0699        16.771       
      4000   315.73164     -32265.261      3213.8684      3361.8618      14.247212      14.0699        16.771       
      4100   307.57659     -32249.83      -6299.6555      3354.5534      14.21624       14.0699        16.771       
      4200   300.95409     -32228.573     -512.45619      3347.245       14.185268      14.0699        16.771       
      4300   324.8669      -32243.632      84.995421      3339.9366      14.154295      14.0699        16.771       
      4400   307.74137     -32254.699     -8508.3387      3332.6282      14.123323      14.0699        16.771       
      4500   293.87185     -32253.159      377.42261      3325.3198      14.092351      14.0699        16.771       
      4600   311.57394     -32254.625      11642.421      3318.0114      14.061379      14.0699        16.771       
      4700   311.98428     -32244.944     -2177.1599      3310.703       14.030407      14.0699        16.771       
      4800   295.17099     -32246.589      3493.651       3303.3946      13.999434      14.0699        16.771       
      4900   288.18107     -32258.401     -2661.8001      3296.0862      13.968462      14.0699        16.771       
      5000   287.28483     -32243.423     -1954.3123      3288.7778      13.93749       14.0699        16.771       
Loop time of 190.496 on 8 procs for 5000 steps with 274 atoms

Performance: 1.134 ns/day, 21.166 hours/ns, 26.247 timesteps/s, 7.192 katom-step/s
98.8% CPU use with 8 MPI tasks x 1 OpenMP threads

MPI task timing breakdown:
Section |  min time  |  avg time  |  max time  |%varavg| %total
---------------------------------------------------------------
Pair    | 151.92     | 155.04     | 159.28     |  18.5 | 81.39
Bond    | 0.0016687  | 0.0020258  | 0.0023371  |   0.5 |  0.00
Neigh   | 12.019     | 12.217     | 12.355     |   3.2 |  6.41
Comm    | 2.1143     | 6.3601     | 9.4912     |  91.5 |  3.34
Output  | 0.015627   | 0.01758    | 0.019388   |   1.0 |  0.01
Modify  | 16.6       | 16.761     | 16.962     |   2.9 |  8.80
Other   |            | 0.09402    |            |       |  0.05

Nlocal:          34.25 ave          40 max          29 min
Histogram: 1 1 1 0 1 2 0 0 1 1
Nghost:        2795.12 ave        2812 max        2767 min
Histogram: 1 0 0 0 1 2 1 0 0 3
Neighs:        19982.9 ave       23311 max       16902 min
Histogram: 1 1 1 0 1 2 0 0 1 1

Total # of neighbors = 159863
Ave neighs/atom = 583.44161
Ave special neighs/atom = 0
Neighbor list builds = 500
Dangerous builds not checked
OMP_NUM_THREADS environment is not set. Defaulting to 1 thread. (src/comm.cpp:98)
  using 1 OpenMP thread(s) per MPI task
Reading restart file ...
  restart file = 2 Aug 2023, LAMMPS = 2 Aug 2023
  restoring atom style full from restart
  triclinic box = (0 0 0) to (15.4861 14.0699 16.771) with tilt (-7.3915 0.9919 1.0308)
WARNING: Triclinic box skew is large. LAMMPS will run inefficiently. (src/domain.cpp:220)
  2 by 2 by 2 MPI processor grid
  pair style reaxff stores no restart info
  274 atoms
Finding 1-2 1-3 1-4 neighbors ...
  special bond factors lj:    0        0        0       
  special bond factors coul:  0        0        0       
     0 = max # of 1-2 neighbors
     0 = max # of 1-3 neighbors
     0 = max # of 1-4 neighbors
     1 = max # of special neighbors
  special bonds CPU = 0.000 seconds
  read_restart CPU = 0.003 seconds
*****Positive-deform 1 starts.*****
Resetting global fix info from restart file:
  fix style: nvt, fix ID: fnvt
All restart file global fix info was re-assigned
Neighbor list info ...
  update: every = 10 steps, delay = 0 steps, check = no
  max neighbors/atom: 2000, page size: 100000
  master list distance cutoff = 12
  ghost atom cutoff = 12
  binsize = 6, bins = 4 3 3
  2 neighbor lists, perpetual/occasional/extra = 2 0 0
  (1) pair reaxff, perpetual
      attributes: half, newton off, ghost
      pair build: half/bin/newtoff/ghost
      stencil: full/ghost/bin/3d
      bin: standard
  (2) fix qeq/reaxff, perpetual, copy from (1)
      attributes: half, newton off
      pair build: copy
      stencil: none
      bin: none
Setting up Verlet run ...
  Unit style    : real
  Current step  : 0
  Time step     : 0.5
Per MPI rank memory allocation (min/avg/max) = 102.2 | 102.6 | 103.1 Mbytes
   Step          Temp          PotEng         Press          Volume           Lx             Ly             Lz      
         0   286.46637     -32205.925     -15067.536      3654.1976      15.4861        14.0699        16.771       
       100   292.90024     -32215.976     -18781.538      3661.506       15.517072      14.0699        16.771       
       200   310.76228     -32221.465     -16434.118      3668.8144      15.548044      14.0699        16.771       
       300   283.83576     -32191.867     -8125.8049      3676.1228      15.579017      14.0699        16.771       
       400   305.51342     -32197.04      -15618.693      3683.4312      15.609989      14.0699        16.771       
       500   301.63287     -32176.729     -10712.113      3690.7396      15.640961      14.0699        16.771       
       600   305.29899     -32177.154     -3052.3939      3698.048       15.671933      14.0699        16.771       
       700   299.90372     -32194.568     -8730.3541      3705.3564      15.702905      14.0699        16.771       
       800   296.45758     -32209.847     -16181.5        3712.6648      15.733878      14.0699        16.771       
       900   265.17845     -32189.913     -6435.6625      3719.9732      15.76485       14.0699        16.771       
      1000   310.39043     -32207.599     -26744.389      3727.2816      15.795822      14.0699        16.771       
      1100   287.19064     -32162.842     -22765.732      3734.59        15.826794      14.0699        16.771       
      1200   324.26257     -32180.074     -25960.677      3741.8984      15.857766      14.0699        16.771       
      1300   297.60765     -32179.317     -18423.79       3749.2067      15.888739      14.0699        16.771       
      1400   287.58187     -32194.365     -15286.111      3756.5151      15.919711      14.0699        16.771       
      1500   277.06448     -32193.927     -16500.835      3763.8235      15.950683      14.0699        16.771       
      1600   300.74872     -32192.061     -10626.148      3771.1319      15.981655      14.0699        16.771       
      1700   307.27632     -32167.416     -9644.0846      3778.4403      16.012627      14.0699        16.771       
      1800   329.96886     -32163.499     -16848.475      3785.7487      16.0436        14.0699        16.771       
      1900   307.04349     -32161.124     -17474.728      3793.0571      16.074572      14.0699        16.771       
      2000   299.04015     -32178.396     -20513.688      3800.3655      16.105544      14.0699        16.771       
      2100   294.29656     -32186.246     -17154.727      3807.6739      16.136516      14.0699        16.771       
      2200   283.72708     -32176.398     -24153.584      3814.9823      16.167488      14.0699        16.771       
      2300   290.40349     -32155.489     -21919.579      3822.2907      16.198461      14.0699        16.771       
      2400   319.5952      -32154.827     -24657.233      3829.5991      16.229433      14.0699        16.771       
      2500   290.0325      -32132.683     -14951.712      3836.9075      16.260405      14.0699        16.771       
      2600   293.83998     -32151.145     -13044.663      3844.2159      16.291377      14.0699        16.771       
      2700   291.76339     -32149.475     -17724.792      3851.5243      16.322349      14.0699        16.771       
      2800   290.06451     -32156.998     -16832.926      3858.8327      16.353322      14.0699        16.771       
      2900   275.02296     -32164.573     -19384.941      3866.1411      16.384294      14.0699        16.771       
      3000   273.62365     -32164.698     -20503.396      3873.4495      16.415266      14.0699        16.771       
      3100   289.5052      -32155.429     -11815.2        3880.7579      16.446238      14.0699        16.771       
      3200   306.27559     -32152.043     -21403.992      3888.0663      16.47721       14.0699        16.771       
      3300   310.20557     -32147.864     -11393.279      3895.3747      16.508183      14.0699        16.771       
      3400   324.54673     -32155.362     -16478.347      3902.683       16.539155      14.0699        16.771       
      3500   277.20579     -32124.218     -11940.681      3909.9914      16.570127      14.0699        16.771       
      3600   302.30333     -32161.909     -17117.163      3917.2998      16.601099      14.0699        16.771       
      3700   292.11963     -32160.899     -18055.176      3924.6082      16.632071      14.0699        16.771       
      3800   297.94086     -32145.711     -16981.153      3931.9166      16.663044      14.0699        16.771       
      3900   299.44253     -32133.003     -20530.026      3939.225       16.694016      14.0699        16.771       
      4000   311.92921     -32132.594     -15002.998      3946.5334      16.724988      14.0699        16.771       
      4100   318.81881     -32130.785     -17803.26       3953.8418      16.75596       14.0699        16.771       
      4200   287.79736     -32112.974     -28670.744      3961.1502      16.786932      14.0699        16.771       
      4300   271.47737     -32120.076     -22880.471      3968.4586      16.817905      14.0699        16.771       
      4400   277.58954     -32118.414     -21826.607      3975.767       16.848877      14.0699        16.771       
      4500   304.85518     -32109.635     -20003.701      3983.0754      16.879849      14.0699        16.771       
      4600   303.2169      -32092.93      -24206.225      3990.3838      16.910821      14.0699        16.771       
      4700   302.57499     -32091.325     -22810.379      3997.6922      16.941793      14.0699        16.771       
      4800   312.9694      -32098.117     -29225.707      4005.0006      16.972766      14.0699        16.771       
      4900   287.33284     -32090.355     -22633.151      4012.309       17.003738      14.0699        16.771       
      5000   309.35391     -32115.275     -29734.951      4019.6174      17.03471       14.0699        16.771       
Loop time of 169.232 on 8 procs for 5000 steps with 274 atoms

Performance: 1.276 ns/day, 18.804 hours/ns, 29.545 timesteps/s, 8.095 katom-step/s
98.7% CPU use with 8 MPI tasks x 1 OpenMP threads

MPI task timing breakdown:
Section |  min time  |  avg time  |  max time  |%varavg| %total
---------------------------------------------------------------
Pair    | 116.54     | 135.29     | 141.72     |  63.6 | 79.94
Bond    | 0.0016541  | 0.0020238  | 0.0024558  |   0.6 |  0.00
Neigh   | 8.3672     | 9.532      | 9.7625     |  14.3 |  5.63
Comm    | 1.8619     | 8.314      | 27.07      | 256.9 |  4.91
Output  | 0.014925   | 0.016943   | 0.018606   |   1.0 |  0.01
Modify  | 15.765     | 15.987     | 17.145     |  11.0 |  9.45
Other   |            | 0.09266    |            |       |  0.05

Nlocal:          34.25 ave          40 max          29 min
Histogram: 1 0 1 2 1 0 1 1 0 1
Nghost:        2475.75 ave        2516 max        2445 min
Histogram: 2 0 1 1 1 0 1 1 0 1
Neighs:        16305.9 ave       18815 max       14067 min
Histogram: 1 0 1 2 1 0 1 1 0 1

Total # of neighbors = 130447
Ave neighs/atom = 476.08394
Ave special neighs/atom = 0
Neighbor list builds = 500
Dangerous builds not checked
OMP_NUM_THREADS environment is not set. Defaulting to 1 thread. (src/comm.cpp:98)
  using 1 OpenMP thread(s) per MPI task
Reading restart file ...
  restart file = 2 Aug 2023, LAMMPS = 2 Aug 2023
  restoring atom style full from restart
  triclinic box = (0 0 0) to (15.4861 14.0699 16.771) with tilt (-7.3915 0.9919 1.0308)
WARNING: Triclinic box skew is large. LAMMPS will run inefficiently. (src/domain.cpp:220)
  2 by 2 by 2 MPI processor grid
  pair style reaxff stores no restart info
  274 atoms
Finding 1-2 1-3 1-4 neighbors ...
  special bond factors lj:    0        0        0       
  special bond factors coul:  0        0        0       
     0 = max # of 1-2 neighbors
     0 = max # of 1-3 neighbors
     0 = max # of 1-4 neighbors
     1 = max # of special neighbors
  special bonds CPU = 0.000 seconds
  read_restart CPU = 0.003 seconds
*****debug*****
xy = -7.3914999999999997371, deltaxy = 0.73915
xz = 0.99190000000000000391, deltaxz = -0.09919
yz = 1.0307999999999999385, deltayz = -0.10308
*****
*****Negative-deform 2 starts.*****
Resetting global fix info from restart file:
  fix style: nvt, fix ID: fnvt
All restart file global fix info was re-assigned
Neighbor list info ...
  update: every = 10 steps, delay = 0 steps, check = no
  max neighbors/atom: 2000, page size: 100000
  master list distance cutoff = 12
  ghost atom cutoff = 12
  binsize = 6, bins = 4 3 3
  2 neighbor lists, perpetual/occasional/extra = 2 0 0
  (1) pair reaxff, perpetual
      attributes: half, newton off, ghost
      pair build: half/bin/newtoff/ghost
      stencil: full/ghost/bin/3d
      bin: standard
  (2) fix qeq/reaxff, perpetual, copy from (1)
      attributes: half, newton off
      pair build: copy
      stencil: none
      bin: none
Setting up Verlet run ...
  Unit style    : real
  Current step  : 0
  Time step     : 0.5
Per MPI rank memory allocation (min/avg/max) = 102.2 | 102.6 | 103.1 Mbytes
   Step          Temp          PotEng         Press          Volume           Lx             Ly             Lz      
         0   286.46637     -32205.925     -15067.536      3654.1976      15.4861        14.0699        16.771       
       100   293.21273     -32215.755     -18812.109      3646.8892      15.4861        14.04176       16.771       
       200   307.30578     -32221.666     -15725.621      3639.5808      15.4861        14.01362       16.771       
       300   271.10028     -32189.245     -2908.6026      3632.2724      15.4861        13.985481      16.771       
       400   315.29783     -32212.139     -13966.548      3624.964       15.4861        13.957341      16.771       
       500   306.55115     -32197.665     -19785.463      3617.6556      15.4861        13.929201      16.771       
       600   303.05707     -32199.219     -16636.572      3610.3472      15.4861        13.901061      16.771       
       700   297.27494     -32208.9       -10553.609      3603.0388      15.4861        13.872921      16.771       
       800   301.48679     -32220.982     -9513.0566      3595.7304      15.4861        13.844782      16.771       
       900   288.31851     -32217.764     -5999.448       3588.4221      15.4861        13.816642      16.771       
      1000   284.31412     -32218.27      -3897.4415      3581.1137      15.4861        13.788502      16.771       
      1100   306.7144      -32235.351     -12993.825      3573.8053      15.4861        13.760362      16.771       
      1200   322.4268      -32245.571     -6095.1378      3566.4969      15.4861        13.732222      16.771       
      1300   295.08041     -32225.934     -11551.895      3559.1885      15.4861        13.704083      16.771       
      1400   298.25873     -32225.601     -429.27127      3551.8801      15.4861        13.675943      16.771       
      1500   286.6549      -32201.224     -1204.5428      3544.5717      15.4861        13.647803      16.771       
      1600   330.2233      -32240.056     -10619.486      3537.2633      15.4861        13.619663      16.771       
      1700   300.12537     -32229.301     -4306.6494      3529.9549      15.4861        13.591523      16.771       
      1800   293.70167     -32232.075     -3060.7863      3522.6465      15.4861        13.563384      16.771       
      1900   291.3433      -32226.269     -10666.408      3515.3381      15.4861        13.535244      16.771       
      2000   289.24378     -32212.774     -5403.6938      3508.0297      15.4861        13.507104      16.771       
      2100   300.85538     -32213.385     -4387.3081      3500.7213      15.4861        13.478964      16.771       
      2200   311.05239     -32228.784     -2623.0298      3493.4129      15.4861        13.450824      16.771       
      2300   292.66095     -32228.65      -12941.579      3486.1045      15.4861        13.422685      16.771       
      2400   311.36675     -32254.048     -17072.207      3478.7961      15.4861        13.394545      16.771       
      2500   291.53339     -32242.175     -4543.6867      3471.4877      15.4861        13.366405      16.771       
      2600   308.35371     -32243.206     -12858.976      3464.1793      15.4861        13.338265      16.771       
      2700   298.30236     -32219.635      105.44361      3456.8709      15.4861        13.310125      16.771       
      2800   325.7874      -32224.23       1154.5238      3449.5625      15.4861        13.281986      16.771       
      2900   311.73514     -32222.943     -5340.5738      3442.2541      15.4861        13.253846      16.771       
      3000   308.1917      -32248.673     -5132.5618      3434.9458      15.4861        13.225706      16.771       
      3100   295.84344     -32244.12      -5488.7204      3427.6374      15.4861        13.197566      16.771       
      3200   289.37914     -32232.621      1788.2832      3420.329       15.4861        13.169426      16.771       
      3300   294.26814     -32234.161     -5107.3699      3413.0206      15.4861        13.141287      16.771       
      3400   312.28602     -32234.143     -3126.6321      3405.7122      15.4861        13.113147      16.771       
      3500   326.27839     -32224.299     -9636.9998      3398.4038      15.4861        13.085007      16.771       
      3600   321.9659      -32226.839      8867.8383      3391.0954      15.4861        13.056867      16.771       
      3700   302.48551     -32237.12      -1905.0812      3383.787       15.4861        13.028727      16.771       
      3800   288.34326     -32228.987     -1289.4893      3376.4786      15.4861        13.000588      16.771       
      3900   290.0702      -32237.682     -17728.555      3369.1702      15.4861        12.972448      16.771       
      4000   273.50765     -32232.088      5134.1984      3361.8618      15.4861        12.944308      16.771       
      4100   303.77098     -32237.427     -420.85651      3354.5534      15.4861        12.916168      16.771       
      4200   318.03753     -32214.677     -13328.203      3347.245       15.4861        12.888028      16.771       
      4300   323.08441     -32220.933      265.31964      3339.9366      15.4861        12.859889      16.771       
      4400   292.17537     -32214.875      8131.4662      3332.6282      15.4861        12.831749      16.771       
      4500   305.9248      -32232.345      1436.5778      3325.3198      15.4861        12.803609      16.771       
      4600   280.75404     -32218.266      346.12014      3318.0114      15.4861        12.775469      16.771       
      4700   295.15661     -32236.416      2146.5703      3310.703       15.4861        12.747329      16.771       
      4800   267.65148     -32236.253      952.15098      3303.3946      15.4861        12.71919       16.771       
      4900   297.35295     -32257.335      9813.4826      3296.0862      15.4861        12.69105       16.771       
      5000   329.29569     -32247.67       9843.6578      3288.7778      15.4861        12.66291       16.771       
Loop time of 192.479 on 8 procs for 5000 steps with 274 atoms

Performance: 1.122 ns/day, 21.387 hours/ns, 25.977 timesteps/s, 7.118 katom-step/s
98.8% CPU use with 8 MPI tasks x 1 OpenMP threads

MPI task timing breakdown:
Section |  min time  |  avg time  |  max time  |%varavg| %total
---------------------------------------------------------------
Pair    | 108.23     | 147.28     | 161.05     | 147.6 | 76.52
Bond    | 0.0016635  | 0.0019691  | 0.0022861  |   0.5 |  0.00
Neigh   | 8.63       | 11.766     | 12.791     |  40.5 |  6.11
Comm    | 1.9758     | 15.735     | 54.772     | 451.3 |  8.18
Output  | 0.016427   | 0.019132   | 0.021363   |   1.2 |  0.01
Modify  | 16.53      | 17.582     | 20.744     |  33.4 |  9.13
Other   |            | 0.09151    |            |       |  0.05

Nlocal:          34.25 ave          39 max          32 min
Histogram: 4 0 1 0 1 0 0 0 1 1
Nghost:        2883.38 ave        2926 max        2844 min
Histogram: 2 1 1 0 0 0 1 0 2 1
Neighs:        19985.4 ave       22674 max       18592 min
Histogram: 4 0 0 1 1 0 0 0 1 1

Total # of neighbors = 159883
Ave neighs/atom = 583.5146
Ave special neighs/atom = 0
Neighbor list builds = 500
Dangerous builds not checked
OMP_NUM_THREADS environment is not set. Defaulting to 1 thread. (src/comm.cpp:98)
  using 1 OpenMP thread(s) per MPI task
Reading restart file ...
  restart file = 2 Aug 2023, LAMMPS = 2 Aug 2023
  restoring atom style full from restart
  triclinic box = (0 0 0) to (15.4861 14.0699 16.771) with tilt (-7.3915 0.9919 1.0308)
WARNING: Triclinic box skew is large. LAMMPS will run inefficiently. (src/domain.cpp:220)
  2 by 2 by 2 MPI processor grid
  pair style reaxff stores no restart info
  274 atoms
Finding 1-2 1-3 1-4 neighbors ...
  special bond factors lj:    0        0        0       
  special bond factors coul:  0        0        0       
     0 = max # of 1-2 neighbors
     0 = max # of 1-3 neighbors
     0 = max # of 1-4 neighbors
     1 = max # of special neighbors
  special bonds CPU = 0.000 seconds
  read_restart CPU = 0.003 seconds
*****Positive-deform 2 starts.*****
Resetting global fix info from restart file:
  fix style: nvt, fix ID: fnvt
All restart file global fix info was re-assigned
Neighbor list info ...
  update: every = 10 steps, delay = 0 steps, check = no
  max neighbors/atom: 2000, page size: 100000
  master list distance cutoff = 12
  ghost atom cutoff = 12
  binsize = 6, bins = 4 3 3
  2 neighbor lists, perpetual/occasional/extra = 2 0 0
  (1) pair reaxff, perpetual
      attributes: half, newton off, ghost
      pair build: half/bin/newtoff/ghost
      stencil: full/ghost/bin/3d
      bin: standard
  (2) fix qeq/reaxff, perpetual, copy from (1)
      attributes: half, newton off
      pair build: copy
      stencil: none
      bin: none
Setting up Verlet run ...
  Unit style    : real
  Current step  : 0
  Time step     : 0.5
Per MPI rank memory allocation (min/avg/max) = 102.2 | 102.6 | 103.1 Mbytes
   Step          Temp          PotEng         Press          Volume           Lx             Ly             Lz      
         0   286.46637     -32205.925     -15067.536      3654.1976      15.4861        14.0699        16.771       
       100   292.80571     -32215.959     -18722.097      3661.506       15.4861        14.09804       16.771       
       200   307.11488     -32219.684     -17952.144      3668.8144      15.4861        14.12618       16.771       
       300   290.90207     -32196.001     -10485.734      3676.1228      15.4861        14.154319      16.771       
       400   300.28956     -32190.21      -12322.601      3683.4312      15.4861        14.182459      16.771       
       500   309.03105     -32183.205     -16504.208      3690.7396      15.4861        14.210599      16.771       
       600   322.64263     -32190.448     -10673.389      3698.048       15.4861        14.238739      16.771       
       700   307.64751     -32199.552     -522.40894      3705.3564      15.4861        14.266879      16.771       
       800   286.49993     -32211.038     -15151.083      3712.6648      15.4861        14.295018      16.771       
       900   275.78834     -32206.997     -6274.5791      3719.9732      15.4861        14.323158      16.771       
      1000   306.63646     -32215.113     -11617.21       3727.2816      15.4861        14.351298      16.771       
      1100   319.30509     -32196.191     -15107.984      3734.59        15.4861        14.379438      16.771       
      1200   322.93069     -32186.813     -11958.324      3741.8984      15.4861        14.407578      16.771       
      1300   311.68901     -32193.93      -17836.465      3749.2067      15.4861        14.435717      16.771       
      1400   305.22143     -32211.371     -13204.208      3756.5151      15.4861        14.463857      16.771       
      1500   259.40259     -32184.034     -12016.882      3763.8235      15.4861        14.491997      16.771       
      1600   283.53371     -32185.465     -11154.703      3771.1319      15.4861        14.520137      16.771       
      1700   320.33451     -32184.113     -12092.425      3778.4403      15.4861        14.548277      16.771       
      1800   314.57182     -32173.344     -6034.7826      3785.7487      15.4861        14.576416      16.771       
      1900   314.25201     -32187.231     -6570.967       3793.0571      15.4861        14.604556      16.771       
      2000   310.47961     -32197.81      -12046.484      3800.3655      15.4861        14.632696      16.771       
      2100   300.89083     -32198.697     -19123.939      3807.6739      15.4861        14.660836      16.771       
      2200   291.34194     -32183.943     -19254.23       3814.9823      15.4861        14.688976      16.771       
      2300   289.78924     -32163.251     -14847.734      3822.2907      15.4861        14.717115      16.771       
      2400   296.03359     -32155.232     -22507.961      3829.5991      15.4861        14.745255      16.771       
      2500   329.49152     -32179.677     -16797.122      3836.9075      15.4861        14.773395      16.771       
      2600   272.35138     -32144.709     -12847.491      3844.2159      15.4861        14.801535      16.771       
      2700   290.52598     -32161.297     -23673.331      3851.5243      15.4861        14.829675      16.771       
      2800   288.00539     -32143.147     -23565.618      3858.8327      15.4861        14.857814      16.771       
      2900   320.3171      -32140.257     -27268.272      3866.1411      15.4861        14.885954      16.771       
      3000   310.98799     -32141.5       -19339.098      3873.4495      15.4861        14.914094      16.771       
      3100   281.54731     -32137.55      -8275.8524      3880.7579      15.4861        14.942234      16.771       
      3200   280.3268      -32129.865     -20059.676      3888.0663      15.4861        14.970374      16.771       
      3300   306.14764     -32133.586     -10474.475      3895.3747      15.4861        14.998513      16.771       
      3400   328.08885     -32142.685     -6303.923       3902.683       15.4861        15.026653      16.771       
      3500   305.94057     -32155.973     -18883.969      3909.9914      15.4861        15.054793      16.771       
      3600   281.19412     -32137.031     -27604.896      3917.2998      15.4861        15.082933      16.771       
      3700   284.94932     -32124.22      -23478.624      3924.6082      15.4861        15.111073      16.771       
      3800   287.47833     -32107.245     -16736.468      3931.9166      15.4861        15.139212      16.771       
      3900   284.33532     -32087.837     -24696.538      3939.225       15.4861        15.167352      16.771       
      4000   298.65305     -32106.6       -23392.288      3946.5334      15.4861        15.195492      16.771       
      4100   293.69867     -32119.177     -25392.545      3953.8418      15.4861        15.223632      16.771       
      4200   288.10823     -32115.237     -17041.31       3961.1502      15.4861        15.251772      16.771       
      4300   320.06749     -32126.909     -18963.988      3968.4586      15.4861        15.279911      16.771       
      4400   331.06465     -32104.985     -18365.577      3975.767       15.4861        15.308051      16.771       
      4500   332.71027     -32084.985     -21208.371      3983.0754      15.4861        15.336191      16.771       
      4600   328.13185     -32095.287     -23043.717      3990.3838      15.4861        15.364331      16.771       
      4700   306.76512     -32096.376     -27225.966      3997.6922      15.4861        15.392471      16.771       
      4800   302.87851     -32099.877     -18987.288      4005.0006      15.4861        15.42061       16.771       
      4900   305.51623     -32095.559     -34151.215      4012.309       15.4861        15.44875       16.771       
      5000   285.13506     -32076.029     -24946.644      4019.6174      15.4861        15.47689       16.771       
Loop time of 169.005 on 8 procs for 5000 steps with 274 atoms

Performance: 1.278 ns/day, 18.778 hours/ns, 29.585 timesteps/s, 8.106 katom-step/s
98.7% CPU use with 8 MPI tasks x 1 OpenMP threads

MPI task timing breakdown:
Section |  min time  |  avg time  |  max time  |%varavg| %total
---------------------------------------------------------------
Pair    | 110.71     | 131.54     | 139.88     |  77.6 | 77.83
Bond    | 0.0015726  | 0.0019448  | 0.0023139  |   0.5 |  0.00
Neigh   | 9.0708     | 10.581     | 11.005     |  19.4 |  6.26
Comm    | 2.2906     | 10.633     | 31.456     | 272.9 |  6.29
Output  | 0.016045   | 0.018454   | 0.020439   |   1.1 |  0.01
Modify  | 15.701     | 16.145     | 17.663     |  15.8 |  9.55
Other   |            | 0.08993    |            |       |  0.05

Nlocal:          34.25 ave          39 max          27 min
Histogram: 1 0 0 0 1 3 0 1 0 2
Nghost:        2386.25 ave        2401 max        2373 min
Histogram: 1 2 0 1 0 1 0 1 1 1
Neighs:        16252.1 ave       18383 max       13006 min
Histogram: 1 0 0 0 1 3 0 1 0 2

Total # of neighbors = 130017
Ave neighs/atom = 474.5146
Ave special neighs/atom = 0
Neighbor list builds = 500
Dangerous builds not checked
OMP_NUM_THREADS environment is not set. Defaulting to 1 thread. (src/comm.cpp:98)
  using 1 OpenMP thread(s) per MPI task
Reading restart file ...
  restart file = 2 Aug 2023, LAMMPS = 2 Aug 2023
  restoring atom style full from restart
  triclinic box = (0 0 0) to (15.4861 14.0699 16.771) with tilt (-7.3915 0.9919 1.0308)
WARNING: Triclinic box skew is large. LAMMPS will run inefficiently. (src/domain.cpp:220)
  2 by 2 by 2 MPI processor grid
  pair style reaxff stores no restart info
  274 atoms
Finding 1-2 1-3 1-4 neighbors ...
  special bond factors lj:    0        0        0       
  special bond factors coul:  0        0        0       
     0 = max # of 1-2 neighbors
     0 = max # of 1-3 neighbors
     0 = max # of 1-4 neighbors
     1 = max # of special neighbors
  special bonds CPU = 0.000 seconds
  read_restart CPU = 0.003 seconds
*****debug*****
xy = -7.3914999999999997371, deltaxy = 0.73915
xz = 0.99190000000000000391, deltaxz = -0.09919
yz = 1.0307999999999999385, deltayz = -0.10308
*****
*****Negative-deform 3 starts.*****
Resetting global fix info from restart file:
  fix style: nvt, fix ID: fnvt
All restart file global fix info was re-assigned
Neighbor list info ...
  update: every = 10 steps, delay = 0 steps, check = no
  max neighbors/atom: 2000, page size: 100000
  master list distance cutoff = 12
  ghost atom cutoff = 12
  binsize = 6, bins = 4 3 3
  2 neighbor lists, perpetual/occasional/extra = 2 0 0
  (1) pair reaxff, perpetual
      attributes: half, newton off, ghost
      pair build: half/bin/newtoff/ghost
      stencil: full/ghost/bin/3d
      bin: standard
  (2) fix qeq/reaxff, perpetual, copy from (1)
      attributes: half, newton off
      pair build: copy
      stencil: none
      bin: none
Setting up Verlet run ...
  Unit style    : real
  Current step  : 0
  Time step     : 0.5
Per MPI rank memory allocation (min/avg/max) = 102.2 | 102.6 | 103.1 Mbytes
   Step          Temp          PotEng         Press          Volume           Lx             Ly             Lz      
         0   286.46637     -32205.925     -15067.536      3654.1976      15.4861        14.0699        16.771       
       100   293.0284      -32215.801     -18806.106      3646.8892      15.4861        14.0699        16.737458    
       200   312.68965     -32223.513     -17549.59       3639.5808      15.4861        14.0699        16.703916    
       300   278.93098     -32194.637     -2212.6162      3632.2724      15.4861        14.0699        16.670374    
       400   315.09096     -32211.172     -12445.348      3624.964       15.4861        14.0699        16.636832    
       500   295.50294     -32179.652     -5930.4361      3617.6556      15.4861        14.0699        16.60329     
       600   329.12281     -32211.258     -6784.4712      3610.3472      15.4861        14.0699        16.569748    
       700   315.9928      -32225.563     -7791.8898      3603.0388      15.4861        14.0699        16.536206    
       800   294.15855     -32231.493     -1250.5323      3595.7304      15.4861        14.0699        16.502664    
       900   287.1493      -32230.549     -4194.9088      3588.4221      15.4861        14.0699        16.469122    
      1000   293.83137     -32218.76      -7777.0242      3581.1137      15.4861        14.0699        16.43558     
      1100   308.22128     -32211.989     -11488.221      3573.8053      15.4861        14.0699        16.402038    
      1200   300.183       -32202.215      985.2869       3566.4969      15.4861        14.0699        16.368496    
      1300   279.32384     -32202.662     -2200.1474      3559.1885      15.4861        14.0699        16.334954    
      1400   286.35116     -32213.134     -8147.4545      3551.8801      15.4861        14.0699        16.301412    
      1500   280.58205     -32206.713     -12593.888      3544.5717      15.4861        14.0699        16.26787     
      1600   309.51642     -32233.636     -5546.0627      3537.2633      15.4861        14.0699        16.234328    
      1700   297.30654     -32233.718     -7105.0529      3529.9549      15.4861        14.0699        16.200786    
      1800   280.98534     -32227.37      -12552.657      3522.6465      15.4861        14.0699        16.167244    
      1900   297.92897     -32235.244     -8339.2225      3515.3381      15.4861        14.0699        16.133702    
      2000   301.13481     -32225.246     -3113.1464      3508.0297      15.4861        14.0699        16.10016     
      2100   327.51733     -32235.282     -11228.046      3500.7213      15.4861        14.0699        16.066618    
      2200   296.51702     -32213.851      1631.9827      3493.4129      15.4861        14.0699        16.033076    
      2300   307.09392     -32227.526     -6269.4245      3486.1045      15.4861        14.0699        15.999534    
      2400   266.47599     -32198.392     -3749.1595      3478.7961      15.4861        14.0699        15.965992    
      2500   297.45043     -32228.308     -1801.2798      3471.4877      15.4861        14.0699        15.93245     
      2600   303.53235     -32242.427     -3744.3024      3464.1793      15.4861        14.0699        15.898908    
      2700   298.79438     -32239.578     -2311.06        3456.8709      15.4861        14.0699        15.865366    
      2800   280.70253     -32225.567     -12180.681      3449.5625      15.4861        14.0699        15.831824    
      2900   285.93383     -32223.407     -403.13393      3442.2541      15.4861        14.0699        15.798282    
      3000   306.99235     -32216.448      821.61929      3434.9458      15.4861        14.0699        15.76474     
      3100   305.63806     -32208.17       360.985        3427.6374      15.4861        14.0699        15.731198    
      3200   302.08506     -32222.626     -7472.5709      3420.329       15.4861        14.0699        15.697656    
      3300   294.72215     -32225.019      4795.9952      3413.0206      15.4861        14.0699        15.664114    
      3400   310.52094     -32236.479     -9768.8846      3405.7122      15.4861        14.0699        15.630572    
      3500   303.81674     -32233.531      294.03695      3398.4038      15.4861        14.0699        15.59703     
      3600   277.44118     -32217.329      1911.381       3391.0954      15.4861        14.0699        15.563488    
      3700   268.37555     -32237.091     -11067.546      3383.787       15.4861        14.0699        15.529946    
      3800   276.70023     -32245.771     -10463.084      3376.4786      15.4861        14.0699        15.496404    
      3900   301.91094     -32239.966      2965.7816      3369.1702      15.4861        14.0699        15.462862    
      4000   283.59146     -32206.586     -5200.8895      3361.8618      15.4861        14.0699        15.42932     
      4100   307.60944     -32221.068      14310.228      3354.5534      15.4861        14.0699        15.395778    
      4200   311.96032     -32232.73      -10886.601      3347.245       15.4861        14.0699        15.362236    
      4300   271.57816     -32217.478      11511.039      3339.9366      15.4861        14.0699        15.328694    
      4400   288.01129     -32238.067      10245.852      3332.6282      15.4861        14.0699        15.295152    
      4500   276.24035     -32231.729     -13035.892      3325.3198      15.4861        14.0699        15.26161     
      4600   285.5743      -32227.437     -3639.1593      3318.0114      15.4861        14.0699        15.228068    
      4700   307.43888     -32217.604     -18171.063      3310.703       15.4861        14.0699        15.194526    
      4800   303.35315     -32205.637     -2376.6754      3303.3946      15.4861        14.0699        15.160984    
      4900   307.57878     -32219.558      10268.073      3296.0862      15.4861        14.0699        15.127442    
      5000   292.47841     -32225.989      16525.905      3288.7778      15.4861        14.0699        15.0939      
Loop time of 189.783 on 8 procs for 5000 steps with 274 atoms

Performance: 1.138 ns/day, 21.087 hours/ns, 26.346 timesteps/s, 7.219 katom-step/s
98.8% CPU use with 8 MPI tasks x 1 OpenMP threads

MPI task timing breakdown:
Section |  min time  |  avg time  |  max time  |%varavg| %total
---------------------------------------------------------------
Pair    | 119.96     | 150.25     | 158.21     |  94.8 | 79.17
Bond    | 0.0016545  | 0.0020418  | 0.0024154  |   0.5 |  0.00
Neigh   | 9.705      | 11.92      | 12.317     |  24.3 |  6.28
Comm    | 2.3712     | 10.353     | 40.628     | 361.1 |  5.46
Output  | 0.013974   | 0.016104   | 0.01777    |   1.1 |  0.01
Modify  | 16.741     | 17.148     | 19.384     |  20.5 |  9.04
Other   |            | 0.09289    |            |       |  0.05

Nlocal:          34.25 ave          39 max          28 min
Histogram: 1 0 1 1 0 1 1 1 0 2
Nghost:        2781.25 ave        2795 max        2764 min
Histogram: 1 2 1 0 0 0 0 0 1 3
Neighs:        20020.6 ave       22804 max       16501 min
Histogram: 1 0 1 1 0 1 2 0 0 2

Total # of neighbors = 160165
Ave neighs/atom = 584.5438
Ave special neighs/atom = 0
Neighbor list builds = 500
Dangerous builds not checked
OMP_NUM_THREADS environment is not set. Defaulting to 1 thread. (src/comm.cpp:98)
  using 1 OpenMP thread(s) per MPI task
Reading restart file ...
  restart file = 2 Aug 2023, LAMMPS = 2 Aug 2023
  restoring atom style full from restart
  triclinic box = (0 0 0) to (15.4861 14.0699 16.771) with tilt (-7.3915 0.9919 1.0308)
WARNING: Triclinic box skew is large. LAMMPS will run inefficiently. (src/domain.cpp:220)
  2 by 2 by 2 MPI processor grid
  pair style reaxff stores no restart info
  274 atoms
Finding 1-2 1-3 1-4 neighbors ...
  special bond factors lj:    0        0        0       
  special bond factors coul:  0        0        0       
     0 = max # of 1-2 neighbors
     0 = max # of 1-3 neighbors
     0 = max # of 1-4 neighbors
     1 = max # of special neighbors
  special bonds CPU = 0.000 seconds
  read_restart CPU = 0.003 seconds
*****Positive-deform 3 starts.*****
Resetting global fix info from restart file:
  fix style: nvt, fix ID: fnvt
All restart file global fix info was re-assigned
Neighbor list info ...
  update: every = 10 steps, delay = 0 steps, check = no
  max neighbors/atom: 2000, page size: 100000
  master list distance cutoff = 12
  ghost atom cutoff = 12
  binsize = 6, bins = 4 3 3
  2 neighbor lists, perpetual/occasional/extra = 2 0 0
  (1) pair reaxff, perpetual
      attributes: half, newton off, ghost
      pair build: half/bin/newtoff/ghost
      stencil: full/ghost/bin/3d
      bin: standard
  (2) fix qeq/reaxff, perpetual, copy from (1)
      attributes: half, newton off
      pair build: copy
      stencil: none
      bin: none
Setting up Verlet run ...
  Unit style    : real
  Current step  : 0
  Time step     : 0.5
Per MPI rank memory allocation (min/avg/max) = 102.2 | 102.6 | 103.1 Mbytes
   Step          Temp          PotEng         Press          Volume           Lx             Ly             Lz      
         0   286.46637     -32205.925     -15067.536      3654.1976      15.4861        14.0699        16.771       
       100   292.89361     -32215.913     -18777.231      3661.506       15.4861        14.0699        16.804542    
       200   312.0638      -32222.165     -17828.691      3668.8144      15.4861        14.0699        16.838084    
       300   279.79151     -32186.601     -6195.0754      3676.1228      15.4861        14.0699        16.871626    
       400   311.03962     -32201.099     -10466.09       3683.4312      15.4861        14.0699        16.905168    
       500   296.40058     -32175.371     -7125.6541      3690.7396      15.4861        14.0699        16.93871     
       600   300.42181     -32179.186     -7714.9569      3698.048       15.4861        14.0699        16.972252    
       700   309.46137     -32194.404     -2594.03        3705.3564      15.4861        14.0699        17.005794    
       800   298.33487     -32207.372     -5483.0077      3712.6648      15.4861        14.0699        17.039336    
       900   279.02527     -32198.894     -18983.468      3719.9732      15.4861        14.0699        17.072878    
      1000   288.34479     -32197.772     -12807.086      3727.2816      15.4861        14.0699        17.10642     
      1100   291.30482     -32178.478     -19967.35       3734.59        15.4861        14.0699        17.139962    
      1200   317.90063     -32179.067     -12547.405      3741.8984      15.4861        14.0699        17.173504    
      1300   309.99604     -32174.148     -15473.047      3749.2067      15.4861        14.0699        17.207046    
      1400   305.47519     -32192.965     -13920.422      3756.5151      15.4861        14.0699        17.240588    
      1500   281.41856     -32196.108     -8434.0327      3763.8235      15.4861        14.0699        17.27413     
      1600   270.22868     -32184.96      -22729.831      3771.1319      15.4861        14.0699        17.307672    
      1700   294.12087     -32184.778     -2984.429       3778.4403      15.4861        14.0699        17.341214    
      1800   297.54189     -32167.477     -13527.317      3785.7487      15.4861        14.0699        17.374756    
      1900   305.29334     -32165.781     -16497.453      3793.0571      15.4861        14.0699        17.408298    
      2000   297.83093     -32169.042     -13393.14       3800.3655      15.4861        14.0699        17.44184     
      2100   295.41467     -32182.201     -9027.7093      3807.6739      15.4861        14.0699        17.475382    
      2200   296.12298     -32180.698     -8968.9104      3814.9823      15.4861        14.0699        17.508924    
      2300   281.15191     -32157.449     -18888.043      3822.2907      15.4861        14.0699        17.542466    
      2400   289.47862     -32148.411     -14886.004      3829.5991      15.4861        14.0699        17.576008    
      2500   297.91017     -32141.662     -17970.396      3836.9075      15.4861        14.0699        17.60955     
      2600   306.14474     -32162.497     -23551.567      3844.2159      15.4861        14.0699        17.643092    
      2700   278.37098     -32158.71      -13689.041      3851.5243      15.4861        14.0699        17.676634    
      2800   294.98108     -32170.067     -20822.059      3858.8327      15.4861        14.0699        17.710176    
      2900   297.44903     -32146.031     -17391.171      3866.1411      15.4861        14.0699        17.743718    
      3000   302.69064     -32115.602     -18332.907      3873.4495      15.4861        14.0699        17.77726     
      3100   300.18972     -32102.269     -17684.292      3880.7579      15.4861        14.0699        17.810802    
      3200   289.64457     -32130.834     -15424.089      3888.0663      15.4861        14.0699        17.844344    
      3300   299.19834     -32146.569     -10803.467      3895.3747      15.4861        14.0699        17.877886    
      3400   274.8866      -32134.221     -25210.354      3902.683       15.4861        14.0699        17.911428    
      3500   303.84469     -32146.338     -22860.539      3909.9914      15.4861        14.0699        17.94497     
      3600   323.35774     -32138.532     -23278.614      3917.2998      15.4861        14.0699        17.978512    
      3700   307.79063     -32117.087     -15918.816      3924.6082      15.4861        14.0699        18.012054    
      3800   286.84413     -32117.711     -21921.594      3931.9166      15.4861        14.0699        18.045596    
      3900   306.4811      -32144.641     -17173.519      3939.225       15.4861        14.0699        18.079138    
      4000   280.19004     -32113.135     -28501.103      3946.5334      15.4861        14.0699        18.11268     
      4100   320.28027     -32123.097     -16642.715      3953.8418      15.4861        14.0699        18.146222    
      4200   321.70245     -32120.765     -19932.607      3961.1502      15.4861        14.0699        18.179764    
      4300   279.16972     -32120.336     -17761.461      3968.4586      15.4861        14.0699        18.213306    
      4400   297.79854     -32131.154     -18023.744      3975.767       15.4861        14.0699        18.246848    
      4500   306.87529     -32134.032     -18189.354      3983.0754      15.4861        14.0699        18.28039     
      4600   303.06702     -32109.256     -17392.714      3990.3838      15.4861        14.0699        18.313932    
      4700   334.1287      -32108.607     -21104.029      3997.6922      15.4861        14.0699        18.347474    
      4800   304.6412      -32096.431     -22708.853      4005.0006      15.4861        14.0699        18.381016    
      4900   295.04977     -32102.934     -10410.321      4012.309       15.4861        14.0699        18.414558    
      5000   300.19907     -32107.158     -16527.291      4019.6174      15.4861        14.0699        18.4481      
Loop time of 171.619 on 8 procs for 5000 steps with 274 atoms

Performance: 1.259 ns/day, 19.069 hours/ns, 29.134 timesteps/s, 7.983 katom-step/s
98.7% CPU use with 8 MPI tasks x 1 OpenMP threads

MPI task timing breakdown:
Section |  min time  |  avg time  |  max time  |%varavg| %total
---------------------------------------------------------------
Pair    | 92.579     | 131.63     | 141.66     | 130.8 | 76.70
Bond    | 0.0016962  | 0.0020065  | 0.0023132  |   0.5 |  0.00
Neigh   | 7.2575     | 10.339     | 10.937     |  36.6 |  6.02
Comm    | 2.6739     | 12.691     | 51.743     | 421.3 |  7.39
Output  | 0.015271   | 0.017432   | 0.019234   |   1.0 |  0.01
Modify  | 16.274     | 16.852     | 19.939     |  28.7 |  9.82
Other   |            | 0.08572    |            |       |  0.05

Nlocal:          34.25 ave          44 max          29 min
Histogram: 1 2 2 0 1 0 1 0 0 1
Nghost:           2455 ave        2498 max        2393 min
Histogram: 1 0 0 2 0 1 0 1 1 2
Neighs:        16285.2 ave       20733 max       13968 min
Histogram: 1 4 0 0 1 0 1 0 0 1

Total # of neighbors = 130282
Ave neighs/atom = 475.48175
Ave special neighs/atom = 0
Neighbor list builds = 500
Dangerous builds not checked
OMP_NUM_THREADS environment is not set. Defaulting to 1 thread. (src/comm.cpp:98)
  using 1 OpenMP thread(s) per MPI task
Reading restart file ...
  restart file = 2 Aug 2023, LAMMPS = 2 Aug 2023
  restoring atom style full from restart
  triclinic box = (0 0 0) to (15.4861 14.0699 16.771) with tilt (-7.3915 0.9919 1.0308)
WARNING: Triclinic box skew is large. LAMMPS will run inefficiently. (src/domain.cpp:220)
  2 by 2 by 2 MPI processor grid
  pair style reaxff stores no restart info
  274 atoms
Finding 1-2 1-3 1-4 neighbors ...
  special bond factors lj:    0        0        0       
  special bond factors coul:  0        0        0       
     0 = max # of 1-2 neighbors
     0 = max # of 1-3 neighbors
     0 = max # of 1-4 neighbors
     1 = max # of special neighbors
  special bonds CPU = 0.000 seconds
  read_restart CPU = 0.003 seconds
*****debug*****
xy = -7.3914999999999997371, deltaxy = 0.73915
xz = 0.99190000000000000391, deltaxz = -0.09919
yz = 1.0307999999999999385, deltayz = -0.10308
*****
*****Negative-deform 4 starts.*****
Resetting global fix info from restart file:
  fix style: nvt, fix ID: fnvt
All restart file global fix info was re-assigned
Neighbor list info ...
  update: every = 10 steps, delay = 0 steps, check = no
  max neighbors/atom: 2000, page size: 100000
  master list distance cutoff = 12
  ghost atom cutoff = 12
  binsize = 6, bins = 4 3 3
  2 neighbor lists, perpetual/occasional/extra = 2 0 0
  (1) pair reaxff, perpetual
      attributes: half, newton off, ghost
      pair build: half/bin/newtoff/ghost
      stencil: full/ghost/bin/3d
      bin: standard
  (2) fix qeq/reaxff, perpetual, copy from (1)
      attributes: half, newton off
      pair build: copy
      stencil: none
      bin: none
Setting up Verlet run ...
  Unit style    : real
  Current step  : 0
  Time step     : 0.5
Per MPI rank memory allocation (min/avg/max) = 102.2 | 102.6 | 103.1 Mbytes
   Step          Temp          PotEng         Press          Volume           Lx             Ly             Lz      
         0   286.46637     -32205.925     -15067.536      3654.1976      15.4861        14.0699        16.771       
       100   293.0155      -32215.885     -18785.628      3654.1976      15.4861        14.0699        16.771       
       200   306.66031     -32219.447     -19099.937      3654.1976      15.4861        14.0699        16.771       
       300   286.20744     -32196.683     -655.32784      3654.1976      15.4861        14.0699        16.771       
       400   307.82901     -32200.839     -8928.5468      3654.1976      15.4861        14.0699        16.771       
       500   303.86651     -32181.736     -7226.548       3654.1976      15.4861        14.0699        16.771       
       600   308.96185     -32188.468     -12511.278      3654.1976      15.4861        14.0699        16.771       
       700   295.22824     -32191.595     -8701.7636      3654.1976      15.4861        14.0699        16.771       
       800   288.75023     -32206.73      -26564.599      3654.1976      15.4861        14.0699        16.771       
       900   281.38572     -32217.765     -16276.233      3654.1976      15.4861        14.0699        16.771       
      1000   298.01478     -32226.37      -13055.107      3654.1976      15.4861        14.0699        16.771       
      1100   300.06012     -32209.566     -12474.905      3654.1976      15.4861        14.0699        16.771       
      1200   321.08053     -32196.86      -9736.6874      3654.1976      15.4861        14.0699        16.771       
      1300   317.84806     -32191.941     -20495.269      3654.1976      15.4861        14.0699        16.771       
      1400   297.2272      -32189.535     -20709.66       3654.1976      15.4861        14.0699        16.771       
      1500   282.52784     -32197.75      -19806.058      3654.1976      15.4861        14.0699        16.771       
      1600   294.37334     -32215.468     -6716.0517      3654.1976      15.4861        14.0699        16.771       
      1700   272.26366     -32185.044     -10852.929      3654.1976      15.4861        14.0699        16.771       
      1800   288.51845     -32177.576     -18593.81       3654.1976      15.4861        14.0699        16.771       
      1900   290.39089     -32168.204     -22535.389      3654.1976      15.4861        14.0699        16.771       
      2000   303.6851      -32183.504     -20763.245      3654.1976      15.4861        14.0699        16.771       
      2100   285.95225     -32184.834     -15724.572      3654.1976      15.4861        14.0699        16.771       
      2200   288.62813     -32198.188     -8450.3213      3654.1976      15.4861        14.0699        16.771       
      2300   303.43074     -32204.865     -1361.5132      3654.1976      15.4861        14.0699        16.771       
      2400   308.40214     -32197.157     -15354.655      3654.1976      15.4861        14.0699        16.771       
      2500   299.45772     -32178.275     -9857.2655      3654.1976      15.4861        14.0699        16.771       
      2600   317.13223     -32181.989     -13190.099      3654.1976      15.4861        14.0699        16.771       
      2700   323.68981     -32192.494     -12533.413      3654.1976      15.4861        14.0699        16.771       
      2800   302.15911     -32203.056     -10159.787      3654.1976      15.4861        14.0699        16.771       
      2900   278.18642     -32186.781     -4512.5995      3654.1976      15.4861        14.0699        16.771       
      3000   309.20304     -32200.438     -5080.6337      3654.1976      15.4861        14.0699        16.771       
      3100   296.86811     -32195.219     -26749.991      3654.1976      15.4861        14.0699        16.771       
      3200   266.98584     -32199.899     -27578.259      3654.1976      15.4861        14.0699        16.771       
      3300   287.65306     -32210.923     -9388.7879      3654.1976      15.4861        14.0699        16.771       
      3400   284.96666     -32189.789     -9771.8944      3654.1976      15.4861        14.0699        16.771       
      3500   319.25312     -32198.86      -21076.289      3654.1976      15.4861        14.0699        16.771       
      3600   297.20976     -32181.757     -13973.165      3654.1976      15.4861        14.0699        16.771       
      3700   296.47255     -32188.461     -14206.861      3654.1976      15.4861        14.0699        16.771       
      3800   308.74214     -32201.841     -17537.854      3654.1976      15.4861        14.0699        16.771       
      3900   304.64218     -32211.677     -7454.5086      3654.1976      15.4861        14.0699        16.771       
      4000   276.06256     -32208.99      -12165.989      3654.1976      15.4861        14.0699        16.771       
      4100   259.30877     -32174.024     -17212.254      3654.1976      15.4861        14.0699        16.771       
      4200   298.80114     -32186.75      -10951.36       3654.1976      15.4861        14.0699        16.771       
      4300   285.1241      -32172.482     -13140.106      3654.1976      15.4861        14.0699        16.771       
      4400   288.75067     -32176.53      -20812.972      3654.1976      15.4861        14.0699        16.771       
      4500   287.29018     -32185.445     -6927.4466      3654.1976      15.4861        14.0699        16.771       
      4600   292.17892     -32206.475     -9530.3083      3654.1976      15.4861        14.0699        16.771       
      4700   278.1883      -32195.062     -22620.394      3654.1976      15.4861        14.0699        16.771       
      4800   306.0728      -32183.92      -4904.6819      3654.1976      15.4861        14.0699        16.771       
      4900   293.75905     -32165.354     -25507.55       3654.1976      15.4861        14.0699        16.771       
      5000   306.95741     -32172.236     -3446.4659      3654.1976      15.4861        14.0699        16.771       
Loop time of 178.04 on 8 procs for 5000 steps with 274 atoms

Performance: 1.213 ns/day, 19.782 hours/ns, 28.084 timesteps/s, 7.695 katom-step/s
98.8% CPU use with 8 MPI tasks x 1 OpenMP threads

MPI task timing breakdown:
Section |  min time  |  avg time  |  max time  |%varavg| %total
---------------------------------------------------------------
Pair    | 99.222     | 139.26     | 148.58     | 129.0 | 78.22
Bond    | 0.0016149  | 0.0019503  | 0.0022871  |   0.5 |  0.00
Neigh   | 7.8531     | 10.972     | 11.521     |  35.7 |  6.16
Comm    | 1.9355     | 11.25      | 51.277     | 453.8 |  6.32
Output  | 0.014264   | 0.016612   | 0.018401   |   1.1 |  0.01
Modify  | 15.897     | 16.446     | 19.583     |  29.4 |  9.24
Other   |            | 0.09316    |            |       |  0.05

Nlocal:          34.25 ave          39 max          31 min
Histogram: 1 1 2 1 0 1 0 1 0 1
Nghost:         2617.5 ave        2647 max        2593 min
Histogram: 2 1 1 0 0 0 1 2 0 1
Neighs:        17956.6 ave       20410 max       16387 min
Histogram: 1 1 2 1 1 0 0 1 0 1

Total # of neighbors = 143653
Ave neighs/atom = 524.28102
Ave special neighs/atom = 0
Neighbor list builds = 500
Dangerous builds not checked
OMP_NUM_THREADS environment is not set. Defaulting to 1 thread. (src/comm.cpp:98)
  using 1 OpenMP thread(s) per MPI task
Reading restart file ...
  restart file = 2 Aug 2023, LAMMPS = 2 Aug 2023
  restoring atom style full from restart
  triclinic box = (0 0 0) to (15.4861 14.0699 16.771) with tilt (-7.3915 0.9919 1.0308)
WARNING: Triclinic box skew is large. LAMMPS will run inefficiently. (src/domain.cpp:220)
  2 by 2 by 2 MPI processor grid
  pair style reaxff stores no restart info
  274 atoms
Finding 1-2 1-3 1-4 neighbors ...
  special bond factors lj:    0        0        0       
  special bond factors coul:  0        0        0       
     0 = max # of 1-2 neighbors
     0 = max # of 1-3 neighbors
     0 = max # of 1-4 neighbors
     1 = max # of special neighbors
  special bonds CPU = 0.000 seconds
  read_restart CPU = 0.003 seconds
*****Positive-deform 4 starts.*****
Resetting global fix info from restart file:
  fix style: nvt, fix ID: fnvt
All restart file global fix info was re-assigned
Neighbor list info ...
  update: every = 10 steps, delay = 0 steps, check = no
  max neighbors/atom: 2000, page size: 100000
  master list distance cutoff = 12
  ghost atom cutoff = 12
  binsize = 6, bins = 4 3 3
  2 neighbor lists, perpetual/occasional/extra = 2 0 0
  (1) pair reaxff, perpetual
      attributes: half, newton off, ghost
      pair build: half/bin/newtoff/ghost
      stencil: full/ghost/bin/3d
      bin: standard
  (2) fix qeq/reaxff, perpetual, copy from (1)
      attributes: half, newton off
      pair build: copy
      stencil: none
      bin: none
Setting up Verlet run ...
  Unit style    : real
  Current step  : 0
  Time step     : 0.5
Per MPI rank memory allocation (min/avg/max) = 102.2 | 102.6 | 103.1 Mbytes
   Step          Temp          PotEng         Press          Volume           Lx             Ly             Lz      
         0   286.46637     -32205.925     -15067.536      3654.1976      15.4861        14.0699        16.771       
       100   292.88871     -32215.802     -18795.317      3654.1976      15.4861        14.0699        16.771       
       200   307.99786     -32223.499     -16894.966      3654.1976      15.4861        14.0699        16.771       
       300   287.08317     -32199.561     -4186.2175      3654.1976      15.4861        14.0699        16.771       
       400   307.00988     -32197.914     -13609.789      3654.1976      15.4861        14.0699        16.771       
       500   295.16796     -32176.631     -9422.121       3654.1976      15.4861        14.0699        16.771       
       600   299.47934     -32183.131     -3392.6341      3654.1976      15.4861        14.0699        16.771       
       700   295.04029     -32202.359      316.24489      3654.1976      15.4861        14.0699        16.771       
       800   277.74075     -32214.01      -14561.812      3654.1976      15.4861        14.0699        16.771       
       900   280.05371     -32222.134     -10659.634      3654.1976      15.4861        14.0699        16.771       
      1000   286.47965     -32212.631     -19265.915      3654.1976      15.4861        14.0699        16.771       
      1100   307.94357     -32203.659     -20737          3654.1976      15.4861        14.0699        16.771       
      1200   308.53608     -32188.112     -8934.0891      3654.1976      15.4861        14.0699        16.771       
      1300   299.24763     -32195.004     -19841.248      3654.1976      15.4861        14.0699        16.771       
      1400   283.84139     -32213.361     -12103.03       3654.1976      15.4861        14.0699        16.771       
      1500   305.2028      -32242.598     -18410.555      3654.1976      15.4861        14.0699        16.771       
      1600   290.26721     -32224.708     -10935.294      3654.1976      15.4861        14.0699        16.771       
      1700   311.65701     -32216.546     -13578.777      3654.1976      15.4861        14.0699        16.771       
      1800   311.83262     -32198.173     -9630.7457      3654.1976      15.4861        14.0699        16.771       
      1900   318.74406     -32210.719     -12164.494      3654.1976      15.4861        14.0699        16.771       
      2000   285.92828     -32205.062     -10679.933      3654.1976      15.4861        14.0699        16.771       
      2100   283.67236     -32212.653     -13352.468      3654.1976      15.4861        14.0699        16.771       
      2200   290.68702     -32202.83      -10138.409      3654.1976      15.4861        14.0699        16.771       
      2300   326.06059     -32214.221     -15245.158      3654.1976      15.4861        14.0699        16.771       
      2400   309.5094      -32205.048     -2532.0693      3654.1976      15.4861        14.0699        16.771       
      2500   309.2401      -32224.633     -10856.347      3654.1976      15.4861        14.0699        16.771       
      2600   280.44563     -32210.054     -29791.983      3654.1976      15.4861        14.0699        16.771       
      2700   305.95073     -32216.258     -13950.11       3654.1976      15.4861        14.0699        16.771       
      2800   296.68686     -32183.807     -23499.646      3654.1976      15.4861        14.0699        16.771       
      2900   316.8418      -32179.677     -8022.2205      3654.1976      15.4861        14.0699        16.771       
      3000   331.58948     -32188.513     -7486.4489      3654.1976      15.4861        14.0699        16.771       
      3100   294.52874     -32196.994     -12085.257      3654.1976      15.4861        14.0699        16.771       
      3200   307.77275     -32211.603     -4740.5431      3654.1976      15.4861        14.0699        16.771       
      3300   312.30315     -32220.503     -5222.5462      3654.1976      15.4861        14.0699        16.771       
[...]
      4700   276.69897     -32190.33      -12834.058      3654.1976      15.4861        14.0699        16.771       
      4800   318.27111     -32213.295     -14088.702      3654.1976      15.4861        14.0699        16.771       
      4900   312.95381     -32215.752     -5858.4442      3654.1976      15.4861        14.0699        16.771       
      5000   308.57132     -32237.412     -12829.748      3654.1976      15.4861        14.0699        16.771       
Loop time of 180.412 on 8 procs for 5000 steps with 274 atoms

Performance: 1.197 ns/day, 20.046 hours/ns, 27.714 timesteps/s, 7.594 katom-step/s
98.7% CPU use with 8 MPI tasks x 1 OpenMP threads

MPI task timing breakdown:
Section |  min time  |  avg time  |  max time  |%varavg| %total
---------------------------------------------------------------
Pair    | 100.01     | 134.75     | 151.74     | 146.7 | 74.69
Bond    | 0.0015393  | 0.0019878  | 0.0022764  |   0.5 |  0.00
Neigh   | 7.2033     | 9.6486     | 10.863     |  40.9 |  5.35
Comm    | 1.4357     | 18.434     | 53.146     | 396.4 | 10.22
Output  | 0.014987   | 0.016927   | 0.018724   |   1.1 |  0.01
Modify  | 16.255     | 17.464     | 19.943     |  30.6 |  9.68
Other   |            | 0.09201    |            |       |  0.05

Nlocal:          34.25 ave          40 max          29 min
Histogram: 1 3 0 0 0 0 1 0 2 1
Nghost:           2613 ave        2638 max        2595 min
Histogram: 2 0 2 1 1 0 0 0 0 2
Neighs:        17908.4 ave       20703 max       15227 min
Histogram: 1 1 2 0 0 0 1 0 2 1

Total # of neighbors = 143267
Ave neighs/atom = 522.87226
Ave special neighs/atom = 0
Neighbor list builds = 500
Dangerous builds not checked
OMP_NUM_THREADS environment is not set. Defaulting to 1 thread. (src/comm.cpp:98)
  using 1 OpenMP thread(s) per MPI task
Reading restart file ...
  restart file = 2 Aug 2023, LAMMPS = 2 Aug 2023
  restoring atom style full from restart
  triclinic box = (0 0 0) to (15.4861 14.0699 16.771) with tilt (-7.3915 0.9919 1.0308)
WARNING: Triclinic box skew is large. LAMMPS will run inefficiently. (src/domain.cpp:220)
  2 by 2 by 2 MPI processor grid
  pair style reaxff stores no restart info
  274 atoms
Finding 1-2 1-3 1-4 neighbors ...
  special bond factors lj:    0        0        0       
  special bond factors coul:  0        0        0       
     0 = max # of 1-2 neighbors
     0 = max # of 1-3 neighbors
     0 = max # of 1-4 neighbors
     1 = max # of special neighbors
  special bonds CPU = 0.000 seconds
  read_restart CPU = 0.003 seconds
*****debug*****
xy = -7.3914999999999997371, deltaxy = 0.73915
xz = 0.99190000000000000391, deltaxz = -0.09919
yz = 1.0307999999999999385, deltayz = -0.10308
*****
*****Negative-deform 6 starts.*****
Resetting global fix info from restart file:
  fix style: nvt, fix ID: fnvt
All restart file global fix info was re-assigned
Neighbor list info ...
  update: every = 10 steps, delay = 0 steps, check = no
  max neighbors/atom: 2000, page size: 100000
  master list distance cutoff = 12
  ghost atom cutoff = 12
  binsize = 6, bins = 4 3 3
  2 neighbor lists, perpetual/occasional/extra = 2 0 0
  (1) pair reaxff, perpetual
      attributes: half, newton off, ghost
      pair build: half/bin/newtoff/ghost
      stencil: full/ghost/bin/3d
      bin: standard
  (2) fix qeq/reaxff, perpetual, copy from (1)
      attributes: half, newton off
      pair build: copy
      stencil: none
      bin: none
Setting up Verlet run ...
  Unit style    : real
  Current step  : 0
  Time step     : 0.5
Per MPI rank memory allocation (min/avg/max) = 102.2 | 102.6 | 103.1 Mbytes
   Step          Temp          PotEng         Press          Volume           Lx             Ly             Lz      
         0   286.46637     -32205.925     -15067.536      3654.1976      15.4861        14.0699        16.771       
       100   292.99152     -32215.745     -18862.171      3654.1976      15.4861        14.0699        16.771       
       200   311.14417     -32225.496     -17397.413      3654.1976      15.4861        14.0699        16.771       
       300   282.86632     -32194.749     -2967.2144      3654.1976      15.4861        14.0699        16.771       
       400   301.4534      -32194.418     -18743.649      3654.1976      15.4861        14.0699        16.771       
       500   309.20912     -32183.993     -10839.822      3654.1976      15.4861        14.0699        16.771       
       600   304.59794     -32187.063     -7536.441       3654.1976      15.4861        14.0699        16.771       
       700   298.0594      -32210.21      -7106.3746      3654.1976      15.4861        14.0699        16.771       
       800   281.85725     -32213.742     -13306.926      3654.1976      15.4861        14.0699        16.771       
       900   300.348       -32229.775     -14146.261      3654.1976      15.4861        14.0699        16.771       
      1000   304.21003     -32216.85      -18641.867      3654.1976      15.4861        14.0699        16.771       
      1100   312.69279     -32203.857     -15827.281      3654.1976      15.4861        14.0699        16.771       
      1200   312.33225     -32200.958     -783.34028      3654.1976      15.4861        14.0699        16.771       
      1300   298.54422     -32204.822     -15189.49       3654.1976      15.4861        14.0699        16.771       
      1400   311.38328     -32231.437     -13069.894      3654.1976      15.4861        14.0699        16.771       
      1500   288.07283     -32218.346     -13386.565      3654.1976      15.4861        14.0699        16.771       
      1600   290.47541     -32203.703     -15310.479      3654.1976      15.4861        14.0699        16.771       
      1700   293.86486     -32181.236     -8133.3509      3654.1976      15.4861        14.0699        16.771       
      1800   316.12474     -32199.932     -22275.612      3654.1976      15.4861        14.0699        16.771       
      1900   316.52502     -32213.2       -11121.951      3654.1976      15.4861        14.0699        16.771       
      2000   290.12358     -32211.92      -4070.7893      3654.1976      15.4861        14.0699        16.771       
      2100   289.76758     -32209.011     -15239.314      3654.1976      15.4861        14.0699        16.771       
      2200   303.64195     -32205.616     -15796.328      3654.1976      15.4861        14.0699        16.771       
      2300   319.11264     -32199.639     -11249.73       3654.1976      15.4861        14.0699        16.771       
      2400   343.54994     -32215.661     -9241.0546      3654.1976      15.4861        14.0699        16.771       
      2500   304.56709     -32197.638     -10950.584      3654.1976      15.4861        14.0699        16.771       
      2600   300.56878     -32206.119     -12542.942      3654.1976      15.4861        14.0699        16.771       
      2700   310.84613     -32229.174     -9143.9201      3654.1976      15.4861        14.0699        16.771       
      2800   299.41905     -32216.44      -15521.939      3654.1976      15.4861        14.0699        16.771       
      2900   316.30614     -32199.934     -11053.187      3654.1976      15.4861        14.0699        16.771       
      3000   321.30348     -32179.935     -13064.812      3654.1976      15.4861        14.0699        16.771       
      3100   320.32156     -32194.276     -7935.2523      3654.1976      15.4861        14.0699        16.771       
      3200   305.76099     -32195.934     -5580.6389      3654.1976      15.4861        14.0699        16.771       
      3300   293.84778     -32195.355     -20842.704      3654.1976      15.4861        14.0699        16.771       
      3400   293.67595     -32198.525     -4255.4324      3654.1976      15.4861        14.0699        16.771       
      3500   288.26593     -32209.41      -20282.112      3654.1976      15.4861        14.0699        16.771       
      3600   293.18399     -32202.644     -16037.493      3654.1976      15.4861        14.0699        16.771       
      3700   308.95633     -32181.094     -22466.848      3654.1976      15.4861        14.0699        16.771       
      3800   301.17665     -32179.154     -20741.62       3654.1976      15.4861        14.0699        16.771       
      3900   314.57095     -32211.441     -16389.233      3654.1976      15.4861        14.0699        16.771       
      4000   308.7748      -32206.037     -3120.971       3654.1976      15.4861        14.0699        16.771       
      4100   290.96514     -32185.555     -18892.509      3654.1976      15.4861        14.0699        16.771       
      4200   297.58591     -32182.153     -14658.194      3654.1976      15.4861        14.0699        16.771       
      4300   308.97872     -32176.528     -13293.836      3654.1976      15.4861        14.0699        16.771       
      4400   312.7762      -32183.637     -8271.3719      3654.1976      15.4861        14.0699        16.771       
      4500   292.30978     -32187.116     -24600.988      3654.1976      15.4861        14.0699        16.771       
      4600   298.27366     -32195.945     -5438.9452      3654.1976      15.4861        14.0699        16.771       
      4700   312.04253     -32193.591     -14208.894      3654.1976      15.4861        14.0699        16.771       
      4800   308.50658     -32170.812     -20926.839      3654.1976      15.4861        14.0699        16.771       
      4900   305.81892     -32173.748     -11270.623      3654.1976      15.4861        14.0699        16.771       
      5000   282.02275     -32179.569     -8610.696       3654.1976      15.4861        14.0699        16.771       
Loop time of 181.373 on 8 procs for 5000 steps with 274 atoms

Performance: 1.191 ns/day, 20.153 hours/ns, 27.568 timesteps/s, 7.554 katom-step/s
98.7% CPU use with 8 MPI tasks x 1 OpenMP threads

MPI task timing breakdown:
Section |  min time  |  avg time  |  max time  |%varavg| %total
---------------------------------------------------------------
Pair    | 101.26     | 136.31     | 152.3      | 163.8 | 75.16
Bond    | 0.0015226  | 0.0019724  | 0.0023239  |   0.6 |  0.00
Neigh   | 7.2576     | 9.8486     | 11.1       |  47.7 |  5.43
Comm    | 1.5721     | 17.567     | 52.587     | 456.1 |  9.69
Output  | 0.016006   | 0.018171   | 0.020082   |   1.1 |  0.01
Modify  | 16.276     | 17.533     | 20.163     |  36.0 |  9.67
Other   |            | 0.09225    |            |       |  0.05

Nlocal:          34.25 ave          39 max          26 min
Histogram: 1 0 0 0 1 1 2 0 1 2
Nghost:           2735 ave        2763 max        2704 min
Histogram: 1 1 0 1 0 1 2 0 0 2
Neighs:        17964.8 ave       20254 max       13748 min
Histogram: 1 0 0 0 1 1 1 1 1 2

Total # of neighbors = 143718
Ave neighs/atom = 524.51825
Ave special neighs/atom = 0
Neighbor list builds = 500
Dangerous builds not checked
OMP_NUM_THREADS environment is not set. Defaulting to 1 thread. (src/comm.cpp:98)
  using 1 OpenMP thread(s) per MPI task
Reading restart file ...
  restart file = 2 Aug 2023, LAMMPS = 2 Aug 2023
  restoring atom style full from restart
  triclinic box = (0 0 0) to (15.4861 14.0699 16.771) with tilt (-7.3915 0.9919 1.0308)
WARNING: Triclinic box skew is large. LAMMPS will run inefficiently. (src/domain.cpp:220)
  2 by 2 by 2 MPI processor grid
  pair style reaxff stores no restart info
  274 atoms
Finding 1-2 1-3 1-4 neighbors ...
  special bond factors lj:    0        0        0       
  special bond factors coul:  0        0        0       
     0 = max # of 1-2 neighbors
     0 = max # of 1-3 neighbors
     0 = max # of 1-4 neighbors
     1 = max # of special neighbors
  special bonds CPU = 0.000 seconds
  read_restart CPU = 0.003 seconds
*****Positive-deform 6 starts.*****
Resetting global fix info from restart file:
  fix style: nvt, fix ID: fnvt
All restart file global fix info was re-assigned
Neighbor list info ...
  update: every = 10 steps, delay = 0 steps, check = no
  max neighbors/atom: 2000, page size: 100000
  master list distance cutoff = 12
  ghost atom cutoff = 12
  binsize = 6, bins = 4 3 3
  2 neighbor lists, perpetual/occasional/extra = 2 0 0
  (1) pair reaxff, perpetual
      attributes: half, newton off, ghost
      pair build: half/bin/newtoff/ghost
      stencil: full/ghost/bin/3d
      bin: standard
  (2) fix qeq/reaxff, perpetual, copy from (1)
      attributes: half, newton off
      pair build: copy
      stencil: none
      bin: none
Setting up Verlet run ...
  Unit style    : real
  Current step  : 0
  Time step     : 0.5
Per MPI rank memory allocation (min/avg/max) = 102.2 | 102.6 | 103.1 Mbytes
   Step          Temp          PotEng         Press          Volume           Lx             Ly             Lz      
         0   286.46637     -32205.925     -15067.536      3654.1976      15.4861        14.0699        16.771       
       100   293.0247      -32215.968     -18463.212      3654.1976      15.4861        14.0699        16.771       
       200   305.94642     -32220.472     -16549.353      3654.1976      15.4861        14.0699        16.771       
       300   280.30876     -32191.029     -3710.3298      3654.1976      15.4861        14.0699        16.771       
       400   308.05285     -32203.247     -16064.219      3654.1976      15.4861        14.0699        16.771       
       500   319.27445     -32198.138     -13003.609      3654.1976      15.4861        14.0699        16.771       
       600   300.41226     -32184.918     -12684.788      3654.1976      15.4861        14.0699        16.771       
       700   295.04338     -32202.389     -2971.2491      3654.1976      15.4861        14.0699        16.771       
       800   298.55268     -32219.356     -13299.895      3654.1976      15.4861        14.0699        16.771       
       900   299.47836     -32219.531     -13232.968      3654.1976      15.4861        14.0699        16.771       
      1000   297.64701     -32204.747      1273.7501      3654.1976      15.4861        14.0699        16.771       
      1100   313.56899     -32198.942     -7053.6123      3654.1976      15.4861        14.0699        16.771       
      1200   324.90745     -32210.421     -3548.4568      3654.1976      15.4861        14.0699        16.771       
      1300   280.89121     -32200.995     -8007.1526      3654.1976      15.4861        14.0699        16.771       
      1400   283.90843     -32214.638     -20621.269      3654.1976      15.4861        14.0699        16.771       
      1500   306.83012     -32231.788      1198.2722      3654.1976      15.4861        14.0699        16.771       
      1600   305.09877     -32216.539     -10215.61       3654.1976      15.4861        14.0699        16.771       
      1700   310.87336     -32202.384     -11969.668      3654.1976      15.4861        14.0699        16.771       
      1800   305.30795     -32197.281     -254.08198      3654.1976      15.4861        14.0699        16.771       
      1900   301.23091     -32202.293     -14103.445      3654.1976      15.4861        14.0699        16.771       
      2000   303.59575     -32214.053     -11368.487      3654.1976      15.4861        14.0699        16.771       
      2100   283.63048     -32200.81      -13950.291      3654.1976      15.4861        14.0699        16.771       
      2200   299.15504     -32196.841     -12979.51       3654.1976      15.4861        14.0699        16.771       
      2300   315.1523      -32193.19       1830.4238      3654.1976      15.4861        14.0699        16.771       
      2400   301.97376     -32192.381     -12464.973      3654.1976      15.4861        14.0699        16.771       
      2500   282.24746     -32193.536     -16984.807      3654.1976      15.4861        14.0699        16.771       
      2600   287.00584     -32201.421     -12104.942      3654.1976      15.4861        14.0699        16.771       
      2700   291.82111     -32199.376     -18422.261      3654.1976      15.4861        14.0699        16.771       
      2800   308.02987     -32190.158     -13107.37       3654.1976      15.4861        14.0699        16.771       
      2900   339.83009     -32189.38      -7914.0804      3654.1976      15.4861        14.0699        16.771       
      3000   314.11233     -32184.51       2467.0402      3654.1976      15.4861        14.0699        16.771       
      3100   298.80857     -32186.612     -12102.041      3654.1976      15.4861        14.0699        16.771       
      3200   289.83504     -32184.535     -6008.0933      3654.1976      15.4861        14.0699        16.771       
      3300   290.65808     -32183.503     -4720.3289      3654.1976      15.4861        14.0699        16.771       
      3400   296.31411     -32172.693     -7146.6205      3654.1976      15.4861        14.0699        16.771       
      3500   315.29353     -32188.337     -6600.1677      3654.1976      15.4861        14.0699        16.771       
      3600   295.47431     -32195.444     -6632.952       3654.1976      15.4861        14.0699        16.771       
      3700   281.30954     -32190.757     -20981.332      3654.1976      15.4861        14.0699        16.771       
      3800   276.69951     -32179.075     -634.66472      3654.1976      15.4861        14.0699        16.771       
      3900   326.80951     -32191.239     -8811.6435      3654.1976      15.4861        14.0699        16.771       
      4000   299.98861     -32149.069      218.5365       3654.1976      15.4861        14.0699        16.771       
      4100   292.18403     -32146.075     -3631.1757      3654.1976      15.4861        14.0699        16.771       
      4200   301.89534     -32166.254     -13430.89       3654.1976      15.4861        14.0699        16.771       
      4300   316.37726     -32185.524      309.55788      3654.1976      15.4861        14.0699        16.771       
      4400   302.06474     -32176.006     -14635.189      3654.1976      15.4861        14.0699        16.771       
      4500   305.75172     -32169.805     -11305.014      3654.1976      15.4861        14.0699        16.771       
      4600   314.57357     -32160.919     -13114.616      3654.1976      15.4861        14.0699        16.771       
      4700   313.77043     -32138.979     -3734.2727      3654.1976      15.4861        14.0699        16.771       
      4800   298.30173     -32149.732     -13222.876      3654.1976      15.4861        14.0699        16.771       
      4900   314.71148     -32183.577     -13817.7        3654.1976      15.4861        14.0699        16.771       
      5000   290.32713     -32172.578     -7639.6164      3654.1976      15.4861        14.0699        16.771       
Loop time of 178.368 on 8 procs for 5000 steps with 274 atoms

Performance: 1.211 ns/day, 19.819 hours/ns, 28.032 timesteps/s, 7.681 katom-step/s
98.8% CPU use with 8 MPI tasks x 1 OpenMP threads

MPI task timing breakdown:
Section |  min time  |  avg time  |  max time  |%varavg| %total
---------------------------------------------------------------
Pair    | 100.62     | 132.4      | 149.06     | 157.5 | 74.23
Bond    | 0.0015333  | 0.0020208  | 0.0023324  |   0.6 |  0.00
Neigh   | 7.7294     | 10.505     | 11.741     |  45.8 |  5.89
Comm    | 1.244      | 17.927     | 49.701     | 427.9 | 10.05
Output  | 0.018328   | 0.020997   | 0.023394   |   1.2 |  0.01
Modify  | 16.201     | 17.424     | 20.208     |  35.7 |  9.77
Other   |            | 0.09081    |            |       |  0.05

Nlocal:          34.25 ave          44 max          27 min
Histogram: 1 0 2 1 2 0 1 0 0 1
Nghost:        2504.62 ave        2535 max        2481 min
Histogram: 1 0 1 2 2 1 0 0 0 1
Neighs:        17960.8 ave       22797 max       14283 min
Histogram: 1 0 1 2 2 0 1 0 0 1

Total # of neighbors = 143686
Ave neighs/atom = 524.40146
Ave special neighs/atom = 0
Neighbor list builds = 500
Dangerous builds not checked
Total wall time: 0:39:02
