LAMMPS (2 Aug 2023 - Update 2)
OMP_NUM_THREADS environment is not set. Defaulting to 1 thread. (src/comm.cpp:98)
  using 1 OpenMP thread(s) per MPI task
Reading data file ...
  triclinic box = (0 0 0) to (15.4861 14.0699 16.771) with tilt (-7.3915 0.9919 1.0308)
WARNING: Triclinic box skew is large. LAMMPS will run inefficiently. (src/domain.cpp:220)
  2 by 2 by 2 MPI processor grid
  reading atoms ...
  274 atoms
Finding 1-2 1-3 1-4 neighbors ...
  special bond factors lj:    0        0        0       
  special bond factors coul:  0        0        0       
     0 = max # of 1-2 neighbors
     0 = max # of 1-3 neighbors
     0 = max # of 1-4 neighbors
     1 = max # of special neighbors
  special bonds CPU = 0.001 seconds
  read_data CPU = 0.006 seconds
*****Minimization starts.*****
Setting up cg style minimization ...
  Unit style    : real
  Current step  : 0
WARNING: No pairwise cutoff or binsize set. Atom sorting therefore disabled. (src/atom.cpp:2366)
WARNING: Communication cutoff is 0.0. No ghost atoms will be generated. Atoms may get lost. (src/comm_brick.cpp:210)
Per MPI rank memory allocation (min/avg/max) = 6.364 | 6.364 | 6.364 Mbytes
   Step          Temp          E_pair         E_mol          TotEng         Press     
         0   0              0              0              0              0            
         1   0              0              0              0              0            
Loop time of 5.09055e-05 on 8 procs for 1 steps with 274 atoms

52.3% CPU use with 8 MPI tasks x 1 OpenMP threads

Minimization stats:
  Stopping criterion = search direction is not downhill
  Energy initial, next-to-last, final = 
                     0                  0                  0
  Force two-norm initial, final = 0 0
  Force max component initial, final = 0 0
  Final line search alpha, max atom move = 0 0
  Iterations, force evaluations = 1 0

MPI task timing breakdown:
Section |  min time  |  avg time  |  max time  |%varavg| %total
---------------------------------------------------------------
Pair    | 0          | 0          | 0          |   0.0 |  0.00
Bond    | 1.467e-06  | 1.467e-06  | 1.467e-06  |   0.0 |  2.88
Neigh   | 0          | 0          | 0          |   0.0 |  0.00
Comm    | 4.539e-06  | 4.539e-06  | 4.539e-06  |   0.0 |  8.92
Output  | 0          | 0          | 0          |   0.0 |  0.00
Modify  | 0          | 0          | 0          |   0.0 |  0.00
Other   |            | 4.49e-05   |            |       | 88.20

Nlocal:          34.25 ave          43 max          26 min
Histogram: 1 1 0 0 2 1 1 1 0 1
Nghost:              0 ave           0 max           0 min
Histogram: 8 0 0 0 0 0 0 0 0 0
Neighs:              0 ave           0 max           0 min
Histogram: 8 0 0 0 0 0 0 0 0 0

Total # of neighbors = 0
Ave neighs/atom = 0
Ave special neighs/atom = 0
Neighbor list builds = 0
Dangerous builds = 0
System init for write_data ...
WARNING: Communication cutoff is 0.0. No ghost atoms will be generated. Atoms may get lost. (src/comm_brick.cpp:210)

CITE-CITE-CITE-CITE-CITE-CITE-CITE-CITE-CITE-CITE-CITE-CITE-CITE

Your simulation uses code contributions which should be cited:
- pair reaxff command: doi:10.1016/j.parco.2011.08.005
- fix qeq/reaxff command: doi:10.1016/j.parco.2011.08.005
The log file lists these citations in BibTeX format.

CITE-CITE-CITE-CITE-CITE-CITE-CITE-CITE-CITE-CITE-CITE-CITE-CITE

WARNING: Fix qeq/reaxff group is not charge neutral, net charge = -8.2 (src/REAXFF/fix_qeq_reaxff.cpp:392)
Neighbor list info ...
  update: every = 10 steps, delay = 0 steps, check = no
  max neighbors/atom: 2000, page size: 100000
  master list distance cutoff = 12
  ghost atom cutoff = 12
  binsize = 6, bins = 4 3 3
  2 neighbor lists, perpetual/occasional/extra = 2 0 0
  (1) pair reaxff, perpetual
      attributes: half, newton off, ghost
      pair build: half/bin/newtoff/ghost
      stencil: full/ghost/bin/3d
      bin: standard
  (2) fix qeq/reaxff, perpetual, copy from (1)
      attributes: half, newton off
      pair build: copy
      stencil: none
      bin: none
Setting up Verlet run ...
  Unit style    : real
  Current step  : 0
  Time step     : 0.5
Per MPI rank memory allocation (min/avg/max) = 102.5 | 103.1 | 103.8 Mbytes
   Step          Temp          PotEng         Press         Density         Volume    
         0   300           -29318.373      56055.99       1.3867102      3654.1976    
       100   1277.2119     -31113.813     -19519.09       1.3867102      3654.1976    
       200   729.26732     -31511.547     -19620.686      1.3867102      3654.1976    
       300   528.07469     -31808.26      -8207.2906      1.3867102      3654.1976    
       400   372.71712     -31933.343     -9342.0707      1.3867102      3654.1976    
       500   292.87841     -32007.731     -8712.1783      1.3867102      3654.1976    
       600   278.62283     -32064.193     -11514.86       1.3867102      3654.1976    
       700   281.04226     -32088.649     -9248.5702      1.3867102      3654.1976    
       800   279.89746     -32064.668     -2375.4753      1.3867102      3654.1976    
       900   303.41482     -32028.512     -22.20827       1.3867102      3654.1976    
      1000   372.27009     -32055.325     -4177.1294      1.3867102      3654.1976    
      1100   316.39072     -32072.652     -10120.325      1.3867102      3654.1976    
      1200   267.89763     -32103.976     -3669.9395      1.3867102      3654.1976    
      1300   273.01778     -32141.707     -4368.5887      1.3867102      3654.1976    
      1400   280.19896     -32148.25      -7665.4644      1.3867102      3654.1976    
      1500   292.1266      -32126.578     -10035.035      1.3867102      3654.1976    
      1600   314.43233     -32120.663      262.09984      1.3867102      3654.1976    
      1700   337.08622     -32146.589     -13782.691      1.3867102      3654.1976    
      1800   293.82713     -32149.147     -5718.6269      1.3867102      3654.1976    
      1900   284.70935     -32181.149     -13842.928      1.3867102      3654.1976    
      2000   282.5813      -32191.498     -11687.094      1.3867102      3654.1976    
      2100   277.26612     -32163.008     -13474.256      1.3867102      3654.1976    
      2200   312.32933     -32144.612     -21383.207      1.3867102      3654.1976    
      2300   345.70766     -32153.367     -23325.455      1.3867102      3654.1976    
      2400   314.22462     -32159.371     -19118.956      1.3867102      3654.1976    
      2500   279.11086     -32177.189     -20608.424      1.3867102      3654.1976    
      2600   276.15098     -32200.031     -8122.6896      1.3867102      3654.1976    
      2700   288.2772      -32208.725     -9149.574       1.3867102      3654.1976    
      2800   313.06516     -32206.801     -16061.714      1.3867102      3654.1976    
      2900   305.04559     -32174.751     -14799.032      1.3867102      3654.1976    
      3000   308.0235      -32160.14      -22041.312      1.3867102      3654.1976    
Loop time of 106.134 on 8 procs for 3000 steps with 274 atoms

Performance: 1.221 ns/day, 19.654 hours/ns, 28.266 timesteps/s, 7.745 katom-step/s
98.5% CPU use with 8 MPI tasks x 1 OpenMP threads

MPI task timing breakdown:
Section |  min time  |  avg time  |  max time  |%varavg| %total
---------------------------------------------------------------
Pair    | 83.122     | 85.143     | 87.319     |  18.2 | 80.22
Bond    | 0.0082554  | 0.0091738  | 0.010267   |   0.7 |  0.01
Neigh   | 6.7658     | 7.009      | 7.3865     |   7.7 |  6.60
Comm    | 1.6788     | 3.8598     | 5.8937     |  85.7 |  3.64
Output  | 0.0017442  | 0.0018791  | 0.0027735  |   0.8 |  0.00
Modify  | 9.6547     | 10.043     | 10.296     |   6.7 |  9.46
Other   |            | 0.06833    |            |       |  0.06

Nlocal:          34.25 ave          40 max          30 min
Histogram: 1 1 0 1 2 1 0 1 0 1
Nghost:           2620 ave        2651 max        2587 min
Histogram: 1 1 1 1 0 0 0 0 3 1
Neighs:        17953.6 ave       20796 max       15859 min
Histogram: 1 1 1 1 2 0 0 1 0 1

Total # of neighbors = 143629
Ave neighs/atom = 524.19343
Ave special neighs/atom = 0
Neighbor list builds = 300
Dangerous builds not checked
System init for write_data ...
System init for write_restart ...
OMP_NUM_THREADS environment is not set. Defaulting to 1 thread. (src/comm.cpp:98)
  using 1 OpenMP thread(s) per MPI task
Reading restart file ...
  restart file = 2 Aug 2023, LAMMPS = 2 Aug 2023
  restoring atom style full from restart
  triclinic box = (0 0 0) to (15.4861 14.0699 16.771) with tilt (-7.3915 0.9919 1.0308)
WARNING: Triclinic box skew is large. LAMMPS will run inefficiently. (src/domain.cpp:220)
  2 by 2 by 2 MPI processor grid
  pair style reaxff stores no restart info
  274 atoms
Finding 1-2 1-3 1-4 neighbors ...
  special bond factors lj:    0        0        0       
  special bond factors coul:  0        0        0       
     0 = max # of 1-2 neighbors
     0 = max # of 1-3 neighbors
     0 = max # of 1-4 neighbors
     1 = max # of special neighbors
  special bonds CPU = 0.000 seconds
  read_restart CPU = 0.003 seconds
*****debug*****
xy = -7.3914999999999997371, deltaxy = 0.073915
xz = 0.99190000000000000391, deltaxz = -0.009919
yz = 1.0307999999999999385, deltayz = -0.010308
*****
*****Negative-deform 1 starts.*****
Resetting global fix info from restart file:
  fix style: nvt, fix ID: fnvt
All restart file global fix info was re-assigned
Neighbor list info ...
  update: every = 10 steps, delay = 0 steps, check = no
  max neighbors/atom: 2000, page size: 100000
  master list distance cutoff = 12
  ghost atom cutoff = 12
  binsize = 6, bins = 4 3 3
  2 neighbor lists, perpetual/occasional/extra = 2 0 0
  (1) pair reaxff, perpetual
      attributes: half, newton off, ghost
      pair build: half/bin/newtoff/ghost
      stencil: full/ghost/bin/3d
      bin: standard
  (2) fix qeq/reaxff, perpetual, copy from (1)
      attributes: half, newton off
      pair build: copy
      stencil: none
      bin: none
Setting up Verlet run ...
  Unit style    : real
  Current step  : 0
  Time step     : 0.5
Per MPI rank memory allocation (min/avg/max) = 101.2 | 102.4 | 103.2 Mbytes
   Step          Temp          PotEng         Press         Density         Volume    
         0   308.0235      -32160.14      -22041.274      1.3867102      3654.1976    
       100   314.08833     -32173.353      6206.6326      1.3871726      3652.9795    
       200   301.24417     -32188.234     -10756.588      1.3876353      3651.7615    
       300   299.2159      -32201.581     -6441.9267      1.3880983      3650.5434    
       400   289.5733      -32187.275     -10089.199      1.3885616      3649.3253    
       500   314.19732     -32189.662     -6210.3738      1.3890253      3648.1073    
       600   327.34654     -32187.115     -5863.0827      1.3894892      3646.8892    
       700   278.01171     -32155.291     -15436.525      1.3899534      3645.6711    
       800   309.33918     -32195.86       3230.1815      1.390418       3644.4531    
       900   298.05011     -32198.513     -12007.931      1.3908829      3643.235     
      1000   312.59039     -32212.234     -7682.6566      1.391348       3642.0169    
      1100   296.08012     -32201.119     -2738.3416      1.3918135      3640.7989    
      1200   294.44086     -32194.417     -813.48655      1.3922793      3639.5808    
      1300   304.17966     -32188.89      -10365.192      1.3927454      3638.3628    
      1400   318.05787     -32186.147     -16714.143      1.3932119      3637.1447    
      1500   309.8947      -32183.739     -4925.4104      1.3936786      3635.9266    
      1600   299.27037     -32191.434     -17857.97       1.3941457      3634.7086    
      1700   288.31933     -32194.894     -12961.573      1.394613       3633.4905    
      1800   286.91834     -32189.985     -18073.276      1.3950807      3632.2724    
      1900   310.47836     -32194.706     -11015.091      1.3955487      3631.0544    
      2000   298.85181     -32172.832     -17534.735      1.396017       3629.8363    
      2100   317.61871     -32193.469     -8316.5702      1.3964856      3628.6182    
      2200   300.6257      -32198.891     -3948.6977      1.3969546      3627.4002    
      2300   276.64622     -32189.379     -14536.592      1.3974238      3626.1821    
      2400   284.52362     -32181.179     -14619.273      1.3978934      3624.964     
      2500   318.77142     -32189.756     -8473.0658      1.3983632      3623.746     
      2600   318.37818     -32190.406     -15651.235      1.3988334      3622.5279    
      2700   301.96086     -32204.003     -20250.641      1.399304       3621.3098    
      2800   296.08165     -32220.195     -11385.213      1.3997748      3620.0918    
      2900   288.78018     -32217.417     -9503.9622      1.4002459      3618.8737    
      3000   292.25806     -32203.286     -1333.3645      1.4007174      3617.6556    
Loop time of 107.573 on 8 procs for 3000 steps with 274 atoms

Performance: 1.205 ns/day, 19.921 hours/ns, 27.888 timesteps/s, 7.641 katom-step/s
98.7% CPU use with 8 MPI tasks x 1 OpenMP threads

MPI task timing breakdown:
Section |  min time  |  avg time  |  max time  |%varavg| %total
---------------------------------------------------------------
Pair    | 69.167     | 84.395     | 89.264     |  65.0 | 78.45
Bond    | 0.0083219  | 0.0090499  | 0.009792   |   0.6 |  0.01
Neigh   | 5.5146     | 6.8797     | 7.4284     |  20.9 |  6.40
Comm    | 1.3159     | 6.2017     | 21.415     | 239.5 |  5.77
Output  | 0.0079461  | 0.0094011  | 0.010526   |   1.0 |  0.01
Modify  | 9.4463     | 10.008     | 11.396     |  17.7 |  9.30
Other   |            | 0.06977    |            |       |  0.06

Nlocal:          34.25 ave          42 max          30 min
Histogram: 1 3 0 2 0 0 1 0 0 1
Nghost:         2628.5 ave        2656 max        2596 min
Histogram: 1 0 2 0 0 1 1 1 1 1
Neighs:        18148.8 ave       22064 max       15870 min
Histogram: 1 2 1 2 0 0 1 0 0 1

Total # of neighbors = 145190
Ave neighs/atom = 529.89051
Ave special neighs/atom = 0
Neighbor list builds = 300
Dangerous builds not checked
OMP_NUM_THREADS environment is not set. Defaulting to 1 thread. (src/comm.cpp:98)
  using 1 OpenMP thread(s) per MPI task
Reading restart file ...
  restart file = 2 Aug 2023, LAMMPS = 2 Aug 2023
  restoring atom style full from restart
  triclinic box = (0 0 0) to (15.4861 14.0699 16.771) with tilt (-7.3915 0.9919 1.0308)
WARNING: Triclinic box skew is large. LAMMPS will run inefficiently. (src/domain.cpp:220)
  2 by 2 by 2 MPI processor grid
  pair style reaxff stores no restart info
  274 atoms
Finding 1-2 1-3 1-4 neighbors ...
  special bond factors lj:    0        0        0       
  special bond factors coul:  0        0        0       
     0 = max # of 1-2 neighbors
     0 = max # of 1-3 neighbors
     0 = max # of 1-4 neighbors
     1 = max # of special neighbors
  special bonds CPU = 0.000 seconds
  read_restart CPU = 0.004 seconds
*****Positive-deform 1 starts.*****
Resetting global fix info from restart file:
  fix style: nvt, fix ID: fnvt
All restart file global fix info was re-assigned
Neighbor list info ...
  update: every = 10 steps, delay = 0 steps, check = no
  max neighbors/atom: 2000, page size: 100000
  master list distance cutoff = 12
  ghost atom cutoff = 12
  binsize = 6, bins = 4 3 3
  2 neighbor lists, perpetual/occasional/extra = 2 0 0
  (1) pair reaxff, perpetual
      attributes: half, newton off, ghost
      pair build: half/bin/newtoff/ghost
      stencil: full/ghost/bin/3d
      bin: standard
  (2) fix qeq/reaxff, perpetual, copy from (1)
      attributes: half, newton off
      pair build: copy
      stencil: none
      bin: none
Setting up Verlet run ...
  Unit style    : real
  Current step  : 0
  Time step     : 0.5
Per MPI rank memory allocation (min/avg/max) = 101.2 | 102.4 | 103.3 Mbytes
   Step          Temp          PotEng         Press         Density         Volume    
         0   308.0235      -32160.14      -22041.274      1.3867102      3654.1976    
       100   313.80779     -32173.35       6254.8574      1.3862481      3655.4157    
       200   300.73715     -32187.223     -11268.749      1.3857864      3656.6337    
       300   298.41069     -32199.963     -7595.1442      1.3853249      3657.8518    
       400   289.54188     -32186.354     -11213.22       1.3848637      3659.0699    
       500   313.66363     -32188.108     -10065.126      1.3844029      3660.2879    
       600   312.50577     -32172.74      -15793.592      1.3839423      3661.506     
       700   264.88868     -32139.709     -16388.342      1.3834821      3662.7241    
       800   295.22141     -32176.098     -9778.8213      1.3830222      3663.9421    
       900   289.3601      -32178.939     -20220.7        1.3825625      3665.1602    
      1000   298.89998     -32181.466     -7997.2658      1.3821032      3666.3783    
      1100   294.18549     -32176.763     -7667.5898      1.3816442      3667.5963    
      1200   306.71981     -32188.19      -8006.703       1.3811855      3668.8144    
      1300   295.6984      -32178.154     -9592.7694      1.3807271      3670.0325    
      1400   293.83228     -32174.682     -18967.751      1.380269       3671.2505    
      1500   279.68911     -32170.692     -8345.3427      1.3798112      3672.4686    
      1600   285.91929     -32178.793     -10381.775      1.3793537      3673.6867    
      1700   285.88178     -32176.491     -23284.415      1.3788965      3674.9047    
      1800   306.15654     -32180.611     -3158.1258      1.3784396      3676.1228    
      1900   297.4224      -32168.78      -10112.123      1.377983       3677.3409    
      2000   325.72177     -32196.761     -17708.692      1.3775267      3678.5589    
      2100   295.69147     -32196.767     -17627.591      1.3770707      3679.777     
      2200   271.34719     -32198.924     -3000.4732      1.376615       3680.9951    
      2300   291.00324     -32208.308     -14360.657      1.3761597      3682.2131    
      2400   297.04334     -32189.284     -6302.0142      1.3757046      3683.4312    
      2500   310.35223     -32183.131     -11090.404      1.3752498      3684.6493    
      2600   329.52837     -32197.405     -7708.8937      1.3747953      3685.8673    
      2700   303.22844     -32195.39      -6828.9397      1.3743411      3687.0854    
      2800   291.38766     -32202.847     -9726.3762      1.3738873      3688.3035    
      2900   301.11702     -32206.638     -3396.033       1.3734337      3689.5215    
      3000   309.52196     -32203.748     -1717.9299      1.3729804      3690.7396    
Loop time of 105.823 on 8 procs for 3000 steps with 274 atoms

Performance: 1.225 ns/day, 19.597 hours/ns, 28.349 timesteps/s, 7.768 katom-step/s
98.7% CPU use with 8 MPI tasks x 1 OpenMP threads

MPI task timing breakdown:
Section |  min time  |  avg time  |  max time  |%varavg| %total
---------------------------------------------------------------
Pair    | 77.872     | 84.396     | 87.838     |  31.7 | 79.75
Bond    | 0.008251   | 0.0091156  | 0.010141   |   0.7 |  0.01
Neigh   | 5.882      | 6.5142     | 6.9202     |  11.4 |  6.16
Comm    | 1.6098     | 5.0694     | 11.577     | 129.3 |  4.79
Output  | 0.0082426  | 0.0094101  | 0.010456   |   0.8 |  0.01
Modify  | 9.3263     | 9.7522     | 10.408     |   9.8 |  9.22
Other   |            | 0.07226    |            |       |  0.07

Nlocal:          34.25 ave          41 max          32 min
Histogram: 4 1 1 0 0 0 1 0 0 1
Nghost:         2581.5 ave        2608 max        2552 min
Histogram: 1 0 0 1 1 2 1 1 0 1
Neighs:        17777.6 ave       21121 max       16598 min
Histogram: 4 1 1 0 0 0 1 0 0 1

Total # of neighbors = 142221
Ave neighs/atom = 519.05474
Ave special neighs/atom = 0
Neighbor list builds = 300
Dangerous builds not checked
OMP_NUM_THREADS environment is not set. Defaulting to 1 thread. (src/comm.cpp:98)
  using 1 OpenMP thread(s) per MPI task
Reading restart file ...
  restart file = 2 Aug 2023, LAMMPS = 2 Aug 2023
  restoring atom style full from restart
  triclinic box = (0 0 0) to (15.4861 14.0699 16.771) with tilt (-7.3915 0.9919 1.0308)
WARNING: Triclinic box skew is large. LAMMPS will run inefficiently. (src/domain.cpp:220)
  2 by 2 by 2 MPI processor grid
  pair style reaxff stores no restart info
  274 atoms
Finding 1-2 1-3 1-4 neighbors ...
  special bond factors lj:    0        0        0       
  special bond factors coul:  0        0        0       
     0 = max # of 1-2 neighbors
     0 = max # of 1-3 neighbors
     0 = max # of 1-4 neighbors
     1 = max # of special neighbors
  special bonds CPU = 0.000 seconds
  read_restart CPU = 0.003 seconds
*****debug*****
xy = -7.3914999999999997371, deltaxy = 0.073915
xz = 0.99190000000000000391, deltaxz = -0.009919
yz = 1.0307999999999999385, deltayz = -0.010308
*****
*****Negative-deform 2 starts.*****
Resetting global fix info from restart file:
  fix style: nvt, fix ID: fnvt
All restart file global fix info was re-assigned
Neighbor list info ...
  update: every = 10 steps, delay = 0 steps, check = no
  max neighbors/atom: 2000, page size: 100000
  master list distance cutoff = 12
  ghost atom cutoff = 12
  binsize = 6, bins = 4 3 3
  2 neighbor lists, perpetual/occasional/extra = 2 0 0
  (1) pair reaxff, perpetual
      attributes: half, newton off, ghost
      pair build: half/bin/newtoff/ghost
      stencil: full/ghost/bin/3d
      bin: standard
  (2) fix qeq/reaxff, perpetual, copy from (1)
      attributes: half, newton off
      pair build: copy
      stencil: none
      bin: none
Setting up Verlet run ...
  Unit style    : real
  Current step  : 0
  Time step     : 0.5
Per MPI rank memory allocation (min/avg/max) = 101.2 | 102.4 | 103.2 Mbytes
   Step          Temp          PotEng         Press         Density         Volume    
         0   308.0235      -32160.14      -22041.274      1.3867102      3654.1976    
       100   313.99632     -32173.363      6215.9463      1.3871726      3652.9795    
       200   300.76333     -32187.476     -11900.62       1.3876353      3651.7615    
       300   298.89734     -32201.364     -6270.5594      1.3880983      3650.5434    
       400   291.17809     -32189.282     -6290.2662      1.3885616      3649.3253    
       500   314.88647     -32190.41      -1067.6479      1.3890253      3648.1073    
       600   330.6108      -32190.399     -11779.397      1.3894892      3646.8892    
       700   277.69994     -32161.263     -20706.07       1.3899534      3645.6711    
       800   300.01891     -32190.461     -1366.8342      1.390418       3644.4531    
       900   297.18655     -32191.213     -18708.92       1.3908829      3643.235     
      1000   289.53229     -32173.495     -5868.3189      1.391348       3642.0169    
      1100   296.86471     -32174.658     -10371.699      1.3918135      3640.7989    
      1200   307.06954     -32186.004      7137.8277      1.3922793      3639.5808    
      1300   297.00127     -32190.013     -11865.968      1.3927454      3638.3628    
      1400   300.03765     -32205.864     -7397.6956      1.3932119      3637.1447    
      1500   289.053       -32212.05      -1654.8539      1.3936786      3635.9266    
      1600   279.55934     -32206.391     -15208.927      1.3941457      3634.7086    
      1700   295.91114     -32207.069     -3627.046       1.394613       3633.4905    
      1800   311.46611     -32201.887     -3426.3378      1.3950807      3632.2724    
      1900   303.00475     -32193.669     -7602.7163      1.3955487      3631.0544    
      2000   309.26525     -32214.609     -13829.573      1.396017       3629.8363    
      2100   279.06191     -32216.692     -10433.434      1.3964856      3628.6182    
      2200   271.25329     -32235.175     -7530.4015      1.3969546      3627.4002    
      2300   284.23719     -32237.066     -1646.5107      1.3974238      3626.1821    
      2400   302.95989     -32216.43      -1491.9875      1.3978934      3624.964     
      2500   309.86596     -32193.079     -19517.333      1.3983632      3623.746     
      2600   328.39634     -32217.504     -18476.995      1.3988334      3622.5279    
      2700   275.48032     -32210.37      -6932.8007      1.399304       3621.3098    
      2800   277.09883     -32222.141     -10147.743      1.3997748      3620.0918    
      2900   298.98083     -32228.995     -11780.474      1.4002459      3618.8737    
      3000   307.89338     -32219.273     -4656.4442      1.4007174      3617.6556    
Loop time of 108.236 on 8 procs for 3000 steps with 274 atoms

Performance: 1.197 ns/day, 20.044 hours/ns, 27.717 timesteps/s, 7.595 katom-step/s
98.6% CPU use with 8 MPI tasks x 1 OpenMP threads

MPI task timing breakdown:
Section |  min time  |  avg time  |  max time  |%varavg| %total
---------------------------------------------------------------
Pair    | 84.103     | 87.489     | 89.888     |  19.3 | 80.83
Bond    | 0.0081827  | 0.009175   | 0.010438   |   0.9 |  0.01
Neigh   | 6.8938     | 7.0972     | 7.4283     |   6.8 |  6.56
Comm    | 1.2914     | 3.7027     | 7.0924     |  94.1 |  3.42
Output  | 0.008457   | 0.0097142  | 0.01075    |   0.8 |  0.01
Modify  | 9.5098     | 9.8566     | 10.073     |   6.1 |  9.11
Other   |            | 0.07184    |            |       |  0.07

Nlocal:          34.25 ave          44 max          27 min
Histogram: 1 0 3 1 1 0 0 1 0 1
Nghost:           2627 ave        2655 max        2592 min
Histogram: 1 0 1 0 1 2 0 2 0 1
Neighs:        18134.2 ave       23052 max       14352 min
Histogram: 1 0 1 3 1 0 0 1 0 1

Total # of neighbors = 145074
Ave neighs/atom = 529.46715
Ave special neighs/atom = 0
Neighbor list builds = 300
Dangerous builds not checked
OMP_NUM_THREADS environment is not set. Defaulting to 1 thread. (src/comm.cpp:98)
  using 1 OpenMP thread(s) per MPI task
Reading restart file ...
  restart file = 2 Aug 2023, LAMMPS = 2 Aug 2023
  restoring atom style full from restart
  triclinic box = (0 0 0) to (15.4861 14.0699 16.771) with tilt (-7.3915 0.9919 1.0308)
WARNING: Triclinic box skew is large. LAMMPS will run inefficiently. (src/domain.cpp:220)
  2 by 2 by 2 MPI processor grid
  pair style reaxff stores no restart info
  274 atoms
Finding 1-2 1-3 1-4 neighbors ...
  special bond factors lj:    0        0        0       
  special bond factors coul:  0        0        0       
     0 = max # of 1-2 neighbors
     0 = max # of 1-3 neighbors
     0 = max # of 1-4 neighbors
     1 = max # of special neighbors
  special bonds CPU = 0.000 seconds
  read_restart CPU = 0.004 seconds
*****Positive-deform 2 starts.*****
Resetting global fix info from restart file:
  fix style: nvt, fix ID: fnvt
All restart file global fix info was re-assigned
Neighbor list info ...
  update: every = 10 steps, delay = 0 steps, check = no
  max neighbors/atom: 2000, page size: 100000
  master list distance cutoff = 12
  ghost atom cutoff = 12
  binsize = 6, bins = 4 3 3
  2 neighbor lists, perpetual/occasional/extra = 2 0 0
  (1) pair reaxff, perpetual
      attributes: half, newton off, ghost
      pair build: half/bin/newtoff/ghost
      stencil: full/ghost/bin/3d
      bin: standard
  (2) fix qeq/reaxff, perpetual, copy from (1)
      attributes: half, newton off
      pair build: copy
      stencil: none
      bin: none
Setting up Verlet run ...
  Unit style    : real
  Current step  : 0
  Time step     : 0.5
Per MPI rank memory allocation (min/avg/max) = 101.2 | 102.4 | 103.3 Mbytes
   Step          Temp          PotEng         Press         Density         Volume    
         0   308.0235      -32160.14      -22041.274      1.3867102      3654.1976    
       100   313.96897     -32173.361      6220.714       1.3862481      3655.4157    
       200   300.26285     -32187.09      -10431.937      1.3857864      3656.6337    
       300   296.23201     -32197.795     -7390.4783      1.3853249      3657.8518    
       400   291.66223     -32186.999     -9076.3167      1.3848637      3659.0699    
       500   309.4674      -32184.543     -2228.0397      1.3844029      3660.2879    
       600   330.63411     -32190.054     -16424.389      1.3839423      3661.506     
       700   269.14417     -32150.259     -15533.557      1.3834821      3662.7241    
       800   292.19124     -32179.801     -3943.1202      1.3830222      3663.9421    
       900   301.75165     -32190.387     -9869.941       1.3825625      3665.1602    
      1000   288.71343     -32178.378     -17436.826      1.3821032      3666.3783    
      1100   296.66171     -32184.271     -16201.105      1.3816442      3667.5963    
      1200   293.80939     -32180.14      -7484.5087      1.3811855      3668.8144    
      1300   306.21049     -32189.07      -16814.518      1.3807271      3670.0325    
      1400   316.6721      -32193.127     -20560.13       1.380269       3671.2505    
      1500   292.56705     -32181.531     -12081.76       1.3798112      3672.4686    
      1600   299.76289     -32191.68      -9649.0439      1.3793537      3673.6867    
      1700   277.16745     -32168.85      -6321.6214      1.3788965      3674.9047    
      1800   291.3607      -32169.583     -9955.9016      1.3784396      3676.1228    
      1900   319.82869     -32186.581     -11968.661      1.377983       3677.3409    
      2000   308.48884     -32182.19      -18329.805      1.3775267      3678.5589    
      2100   297.47603     -32185.423     -3283.2994      1.3770707      3679.777     
      2200   313.36988     -32212.654     -17482.613      1.376615       3680.9951    
      2300   278.28054     -32182.697     -11569.541      1.3761597      3682.2131    
      2400   297.00455     -32176.349     -16584.166      1.3757046      3683.4312    
      2500   323.38176     -32178.973     -12684.973      1.3752498      3684.6493    
      2600   310.38886     -32161.846     -4507.0679      1.3747953      3685.8673    
      2700   306.19544     -32170.8       -14641.654      1.3743411      3687.0854    
      2800   308.50215     -32196.606     -9968.2183      1.3738873      3688.3035    
      2900   293.78754     -32208.456     -9945.4723      1.3734337      3689.5215    
      3000   273.16362     -32200.106     -5266.7991      1.3729804      3690.7396    
Loop time of 105.236 on 8 procs for 3000 steps with 274 atoms

Performance: 1.232 ns/day, 19.488 hours/ns, 28.507 timesteps/s, 7.811 katom-step/s
98.6% CPU use with 8 MPI tasks x 1 OpenMP threads

MPI task timing breakdown:
Section |  min time  |  avg time  |  max time  |%varavg| %total
---------------------------------------------------------------
Pair    | 63.145     | 82.349     | 87.74      |  82.6 | 78.25
Bond    | 0.0081415  | 0.0091232  | 0.0099719  |   0.6 |  0.01
Neigh   | 5.0382     | 6.7263     | 7.3152     |  25.7 |  6.39
Comm    | 1.0463     | 6.4558     | 25.64      | 294.7 |  6.13
Output  | 0.0077667  | 0.0088926  | 0.0097525  |   0.7 |  0.01
Modify  | 9.0078     | 9.6155     | 11.331     |  21.9 |  9.14
Other   |            | 0.07134    |            |       |  0.07

Nlocal:          34.25 ave          43 max          31 min
Histogram: 5 0 1 0 0 0 1 0 0 1
Nghost:        2582.88 ave        2607 max        2562 min
Histogram: 1 0 0 3 1 1 0 1 0 1
Neighs:        17764.8 ave       22083 max       16112 min
Histogram: 4 1 1 0 0 0 1 0 0 1

Total # of neighbors = 142118
Ave neighs/atom = 518.67883
Ave special neighs/atom = 0
Neighbor list builds = 300
Dangerous builds not checked
OMP_NUM_THREADS environment is not set. Defaulting to 1 thread. (src/comm.cpp:98)
  using 1 OpenMP thread(s) per MPI task
Reading restart file ...
  restart file = 2 Aug 2023, LAMMPS = 2 Aug 2023
  restoring atom style full from restart
  triclinic box = (0 0 0) to (15.4861 14.0699 16.771) with tilt (-7.3915 0.9919 1.0308)
WARNING: Triclinic box skew is large. LAMMPS will run inefficiently. (src/domain.cpp:220)
  2 by 2 by 2 MPI processor grid
  pair style reaxff stores no restart info
  274 atoms
Finding 1-2 1-3 1-4 neighbors ...
  special bond factors lj:    0        0        0       
  special bond factors coul:  0        0        0       
     0 = max # of 1-2 neighbors
     0 = max # of 1-3 neighbors
     0 = max # of 1-4 neighbors
     1 = max # of special neighbors
  special bonds CPU = 0.000 seconds
  read_restart CPU = 0.004 seconds
*****debug*****
xy = -7.3914999999999997371, deltaxy = 0.073915
xz = 0.99190000000000000391, deltaxz = -0.009919
yz = 1.0307999999999999385, deltayz = -0.010308
*****
*****Negative-deform 3 starts.*****
Resetting global fix info from restart file:
  fix style: nvt, fix ID: fnvt
All restart file global fix info was re-assigned
Neighbor list info ...
  update: every = 10 steps, delay = 0 steps, check = no
  max neighbors/atom: 2000, page size: 100000
  master list distance cutoff = 12
  ghost atom cutoff = 12
  binsize = 6, bins = 4 3 3
  2 neighbor lists, perpetual/occasional/extra = 2 0 0
  (1) pair reaxff, perpetual
      attributes: half, newton off, ghost
      pair build: half/bin/newtoff/ghost
      stencil: full/ghost/bin/3d
      bin: standard
  (2) fix qeq/reaxff, perpetual, copy from (1)
      attributes: half, newton off
      pair build: copy
      stencil: none
      bin: none
Setting up Verlet run ...
  Unit style    : real
  Current step  : 0
  Time step     : 0.5
Per MPI rank memory allocation (min/avg/max) = 101.2 | 102.4 | 103.2 Mbytes
   Step          Temp          PotEng         Press         Density         Volume    
         0   308.0235      -32160.14      -22041.274      1.3867102      3654.1976    
       100   313.9921      -32173.357      6223.0067      1.3871726      3652.9795    
       200   301.0793      -32187.988     -11120.509      1.3876353      3651.7615    
       300   293.0022      -32195.779     -3084.8407      1.3880983      3650.5434    
       400   286.93108     -32184.681     -9909.3078      1.3885616      3649.3253    
       500   301.79999     -32180.528     -8877.7041      1.3890253      3648.1073    
       600   316.86427     -32177.113     -18834.537      1.3894892      3646.8892    
       700   292.06254     -32160.749     -9918.6232      1.3899534      3645.6711    
       800   318.0061      -32194.191      355.24475      1.390418       3644.4531    
       900   291.61371     -32179.555     -9387.7636      1.3908829      3643.235     
      1000   297.01824     -32181.221     -17627.934      1.391348       3642.0169    
      1100   271.44646     -32159.546     -11334.316      1.3918135      3640.7989    
      1200   312.10894     -32186.316      88.966156      1.3922793      3639.5808    
      1300   283.09312     -32158.359     -9526.9822      1.3927454      3638.3628    
      1400   302.30778     -32173.37      -11004.031      1.3932119      3637.1447    
      1500   292.41818     -32176.987     -7365.0633      1.3936786      3635.9266    
      1600   280.11972     -32175.712     -5618.6233      1.3941457      3634.7086    
      1700   276.41818     -32172.435     -7309.1265      1.394613       3633.4905    
      1800   296.16966     -32175.683      997.89404      1.3950807      3632.2724    
      1900   324.34103     -32191.071     -15182.385      1.3955487      3631.0544    
      2000   307.07892     -32194.273     -3603.171       1.396017       3629.8363    
      2100   323.78483     -32221.401     -16380.157      1.3964856      3628.6182    
      2200   262.35518     -32181.783     -1957.7909      1.3969546      3627.4002    
      2300   303.04365     -32203.223     -2676.2277      1.3974238      3626.1821    
      2400   300.70059     -32191.201     -11612.992      1.3978934      3624.964     
      2500   304.62696     -32187.538     -17753.182      1.3983632      3623.746     
      2600   297.45161     -32193.988     -15447.844      1.3988334      3622.5279    
      2700   293.07561     -32215.037      153.82866      1.399304       3621.3098    
      2800   272.03043     -32210.152     -3776.2669      1.3997748      3620.0918    
      2900   289.30804     -32214.292     -16999.85       1.4002459      3618.8737    
      3000   322.3284      -32221.221     -18140.47       1.4007174      3617.6556    
Loop time of 107.408 on 8 procs for 3000 steps with 274 atoms

Performance: 1.207 ns/day, 19.890 hours/ns, 27.931 timesteps/s, 7.653 katom-step/s
98.7% CPU use with 8 MPI tasks x 1 OpenMP threads

MPI task timing breakdown:
Section |  min time  |  avg time  |  max time  |%varavg| %total
---------------------------------------------------------------
Pair    | 82.374     | 86.24      | 89.298     |  24.4 | 80.29
Bond    | 0.0080985  | 0.0092524  | 0.0099618  |   0.6 |  0.01
Neigh   | 6.424      | 6.9873     | 7.3808     |  10.5 |  6.51
Comm    | 1.2554     | 4.3238     | 8.1738     | 108.6 |  4.03
Output  | 0.008974   | 0.010132   | 0.011187   |   0.8 |  0.01
Modify  | 9.3559     | 9.7667     | 10.35      |   9.3 |  9.09
Other   |            | 0.07098    |            |       |  0.07

Nlocal:          34.25 ave          42 max          31 min
Histogram: 3 2 1 0 0 0 0 1 0 1
Nghost:        2625.38 ave        2652 max        2601 min
Histogram: 1 1 1 1 0 2 0 0 0 2
Neighs:        18136.9 ave       22016 max       16368 min
Histogram: 3 0 3 0 0 0 0 1 0 1

Total # of neighbors = 145095
Ave neighs/atom = 529.5438
Ave special neighs/atom = 0
Neighbor list builds = 300
Dangerous builds not checked
OMP_NUM_THREADS environment is not set. Defaulting to 1 thread. (src/comm.cpp:98)
  using 1 OpenMP thread(s) per MPI task
Reading restart file ...
  restart file = 2 Aug 2023, LAMMPS = 2 Aug 2023
  restoring atom style full from restart
  triclinic box = (0 0 0) to (15.4861 14.0699 16.771) with tilt (-7.3915 0.9919 1.0308)
WARNING: Triclinic box skew is large. LAMMPS will run inefficiently. (src/domain.cpp:220)
  2 by 2 by 2 MPI processor grid
  pair style reaxff stores no restart info
  274 atoms
Finding 1-2 1-3 1-4 neighbors ...
  special bond factors lj:    0        0        0       
  special bond factors coul:  0        0        0       
     0 = max # of 1-2 neighbors
     0 = max # of 1-3 neighbors
     0 = max # of 1-4 neighbors
     1 = max # of special neighbors
  special bonds CPU = 0.000 seconds
  read_restart CPU = 0.004 seconds
*****Positive-deform 3 starts.*****
Resetting global fix info from restart file:
  fix style: nvt, fix ID: fnvt
All restart file global fix info was re-assigned
Neighbor list info ...
  update: every = 10 steps, delay = 0 steps, check = no
  max neighbors/atom: 2000, page size: 100000
  master list distance cutoff = 12
  ghost atom cutoff = 12
  binsize = 6, bins = 4 3 3
  2 neighbor lists, perpetual/occasional/extra = 2 0 0
  (1) pair reaxff, perpetual
      attributes: half, newton off, ghost
      pair build: half/bin/newtoff/ghost
      stencil: full/ghost/bin/3d
      bin: standard
  (2) fix qeq/reaxff, perpetual, copy from (1)
      attributes: half, newton off
      pair build: copy
      stencil: none
      bin: none
Setting up Verlet run ...
  Unit style    : real
  Current step  : 0
  Time step     : 0.5
Per MPI rank memory allocation (min/avg/max) = 101.2 | 102.4 | 103.2 Mbytes
   Step          Temp          PotEng         Press         Density         Volume    
         0   308.0235      -32160.14      -22041.274      1.3867102      3654.1976    
       100   313.98762     -32173.381      6217.1127      1.3862481      3655.4157    
       200   300.37879     -32187.037     -11146.537      1.3857864      3656.6337    
       300   295.95927     -32197.843     -8224.2833      1.3853249      3657.8518    
       400   292.39056     -32187.615     -7997.1271      1.3848637      3659.0699    
       500   304.64775     -32180.221     -11310.583      1.3844029      3660.2879    
       600   320.39977     -32178.254     -10360.71       1.3839423      3661.506     
       700   269.44066     -32147.214     -20694.409      1.3834821      3662.7241    
       800   294.50361     -32181.309     -13695.747      1.3830222      3663.9421    
       900   304.86149     -32194.459     -8910.3162      1.3825625      3665.1602    
      1000   304.7017      -32192.431     -5571.8252      1.3821032      3666.3783    
      1100   296.56518     -32186.377     -5723.3568      1.3816442      3667.5963    
      1200   307.02124     -32193.14      -4444.7899      1.3811855      3668.8144    
      1300   299.32332     -32182.931     -8827.7637      1.3807271      3670.0325    
      1400   308.55842     -32185.34      -10463.425      1.380269       3671.2505    
      1500   302.80087     -32185.349     -15431.85       1.3798112      3672.4686    
      1600   301.49588     -32189.923     -19290.99       1.3793537      3673.6867    
      1700   306.9627      -32197.09      -25479.885      1.3788965      3674.9047    
      1800   299.52536     -32192.462     -3169.596       1.3784396      3676.1228    
      1900   311.99189     -32203.507     -11138.955      1.377983       3677.3409    
      2000   319.10914     -32210.417     -8702.3938      1.3775267      3678.5589    
      2100   300.63597     -32203.223     -21643.578      1.3770707      3679.777     
      2200   299.81547     -32215.182     -5263.0839      1.376615       3680.9951    
      2300   291.7784      -32208.24      -21177.91       1.3761597      3682.2131    
      2400   297.04831     -32199.404     -23338.006      1.3757046      3683.4312    
      2500   291.18958     -32187.257     -16740.811      1.3752498      3684.6493    
      2600   309.8536      -32199.353     -16948.089      1.3747953      3685.8673    
      2700   288.30394     -32195.919     -7444.9892      1.3743411      3687.0854    
      2800   285.70945     -32205.988     -7821.4594      1.3738873      3688.3035    
      2900   302.11315     -32223.557     -13626.083      1.3734337      3689.5215    
      3000   290.01307     -32203.674     -14776.651      1.3729804      3690.7396    
Loop time of 105.463 on 8 procs for 3000 steps with 274 atoms

Performance: 1.229 ns/day, 19.530 hours/ns, 28.446 timesteps/s, 7.794 katom-step/s
98.6% CPU use with 8 MPI tasks x 1 OpenMP threads

MPI task timing breakdown:
Section |  min time  |  avg time  |  max time  |%varavg| %total
---------------------------------------------------------------
Pair    | 62.872     | 80.063     | 87.544     |  96.8 | 75.92
Bond    | 0.0080742  | 0.008978   | 0.00976    |   0.6 |  0.01
Neigh   | 5.2931     | 6.5196     | 7.0825     |  24.2 |  6.18
Comm    | 1.1305     | 8.622      | 25.813     | 295.2 |  8.18
Output  | 0.0083844  | 0.0096494  | 0.010715   |   0.8 |  0.01
Modify  | 9.6073     | 10.174     | 11.404     |  19.4 |  9.65
Other   |            | 0.06614    |            |       |  0.06

Nlocal:          34.25 ave          44 max          29 min
Histogram: 2 1 2 1 0 0 0 0 1 1
Nghost:         2585.5 ave        2600 max        2571 min
Histogram: 2 0 1 0 1 0 1 2 0 1
Neighs:        17769.2 ave       22560 max       15100 min
Histogram: 2 1 2 1 0 0 0 0 1 1

Total # of neighbors = 142154
Ave neighs/atom = 518.81022
Ave special neighs/atom = 0
Neighbor list builds = 300
Dangerous builds not checked
OMP_NUM_THREADS environment is not set. Defaulting to 1 thread. (src/comm.cpp:98)
  using 1 OpenMP thread(s) per MPI task
Reading restart file ...
  restart file = 2 Aug 2023, LAMMPS = 2 Aug 2023
  restoring atom style full from restart
  triclinic box = (0 0 0) to (15.4861 14.0699 16.771) with tilt (-7.3915 0.9919 1.0308)
WARNING: Triclinic box skew is large. LAMMPS will run inefficiently. (src/domain.cpp:220)
  2 by 2 by 2 MPI processor grid
  pair style reaxff stores no restart info
  274 atoms
Finding 1-2 1-3 1-4 neighbors ...
  special bond factors lj:    0        0        0       
  special bond factors coul:  0        0        0       
     0 = max # of 1-2 neighbors
     0 = max # of 1-3 neighbors
     0 = max # of 1-4 neighbors
     1 = max # of special neighbors
  special bonds CPU = 0.000 seconds
  read_restart CPU = 0.003 seconds
*****debug*****
xy = -7.3914999999999997371, deltaxy = 0.073915
xz = 0.99190000000000000391, deltaxz = -0.009919
yz = 1.0307999999999999385, deltayz = -0.010308
*****
*****Negative-deform 4 starts.*****
Resetting global fix info from restart file:
  fix style: nvt, fix ID: fnvt
All restart file global fix info was re-assigned
Neighbor list info ...
  update: every = 10 steps, delay = 0 steps, check = no
  max neighbors/atom: 2000, page size: 100000
  master list distance cutoff = 12
  ghost atom cutoff = 12
  binsize = 6, bins = 4 3 3
  2 neighbor lists, perpetual/occasional/extra = 2 0 0
  (1) pair reaxff, perpetual
      attributes: half, newton off, ghost
      pair build: half/bin/newtoff/ghost
      stencil: full/ghost/bin/3d
      bin: standard
  (2) fix qeq/reaxff, perpetual, copy from (1)
      attributes: half, newton off
      pair build: copy
      stencil: none
      bin: none
Setting up Verlet run ...
  Unit style    : real
  Current step  : 0
  Time step     : 0.5
Per MPI rank memory allocation (min/avg/max) = 101.2 | 102.4 | 103.2 Mbytes
   Step          Temp          PotEng         Press         Density         Volume    
         0   308.0235      -32160.14      -22041.274      1.3867102      3654.1976    
       100   313.98548     -32173.377      6213.3944      1.3867102      3654.1976    
       200   300.62364     -32187.179     -10957.965      1.3867102      3654.1976    
       300   298.52981     -32200.595     -5460.9849      1.3867102      3654.1976    
       400   286.15579     -32184.444     -12300.302      1.3867102      3654.1976    
       500   305.09807     -32182.928     -7434.3314      1.3867102      3654.1976    
       600   321.8334      -32180.327     -8139.7722      1.3867102      3654.1976    
       700   291.17872     -32159.274     -17732.802      1.3867102      3654.1976    
       800   305.0168      -32185.714     -6689.5969      1.3867102      3654.1976    
       900   280.77491     -32185.527     -5711.4949      1.3867102      3654.1976    
      1000   289.57418     -32197.38      -2012.7795      1.3867102      3654.1976    
      1100   299.73186     -32201.326     -13400.644      1.3867102      3654.1976    
      1200   302.76517     -32192.723     -1822.7444      1.3867102      3654.1976    
      1300   315.9861      -32186.742     -22048.561      1.3867102      3654.1976    
      1400   326.54073     -32195.832     -10351.858      1.3867102      3654.1976    
      1500   288.68324     -32187.067     -6879.9507      1.3867102      3654.1976    
      1600   296.85313     -32207.278     -18565.695      1.3867102      3654.1976    
      1700   283.27907     -32192.259     -14044.346      1.3867102      3654.1976    
      1800   317.67706     -32200.534     -15605.019      1.3867102      3654.1976    
      1900   323.09821     -32194.626     -12616.833      1.3867102      3654.1976    
      2000   303.53251     -32182.745     -6313.4839      1.3867102      3654.1976    
      2100   290.1116      -32188.225     -1406.736       1.3867102      3654.1976    
      2200   267.03008     -32191.87      -13413.871      1.3867102      3654.1976    
      2300   272.70768     -32201.138     -13160.304      1.3867102      3654.1976    
      2400   284.91607     -32184.891     -13663.732      1.3867102      3654.1976    
      2500   316.83325     -32179.882     -10300.74       1.3867102      3654.1976    
      2600   311.9234      -32171.18      -8992.5804      1.3867102      3654.1976    
      2700   301.94796     -32184.613     -1799.3205      1.3867102      3654.1976    
      2800   291.56339     -32204.607     -17127.536      1.3867102      3654.1976    
      2900   273.8808      -32202.492     -19012.706      1.3867102      3654.1976    
      3000   293.54177     -32213.424     -18609.496      1.3867102      3654.1976    
Loop time of 106.251 on 8 procs for 3000 steps with 274 atoms

Performance: 1.220 ns/day, 19.676 hours/ns, 28.235 timesteps/s, 7.736 katom-step/s
98.7% CPU use with 8 MPI tasks x 1 OpenMP threads

MPI task timing breakdown:
Section |  min time  |  avg time  |  max time  |%varavg| %total
---------------------------------------------------------------
Pair    | 59.221     | 79.505     | 88.244     | 107.7 | 74.83
Bond    | 0.0077468  | 0.0087669  | 0.0094413  |   0.6 |  0.01
Neigh   | 4.9074     | 6.4539     | 7.051      |  28.0 |  6.07
Comm    | 1.2872     | 10.023     | 30.309     | 303.5 |  9.43
Output  | 0.0081925  | 0.010129   | 0.011467   |   1.1 |  0.01
Modify  | 9.579      | 10.185     | 11.739     |  22.4 |  9.59
Other   |            | 0.06567    |            |       |  0.06

Nlocal:          34.25 ave          43 max          29 min
Histogram: 2 1 1 1 1 0 0 1 0 1
Nghost:           2621 ave        2645 max        2593 min
Histogram: 2 0 1 0 1 0 0 1 1 2
Neighs:        17936.2 ave       22355 max       15184 min
Histogram: 2 1 1 1 1 0 0 1 0 1

Total # of neighbors = 143490
Ave neighs/atom = 523.68613
Ave special neighs/atom = 0
Neighbor list builds = 300
Dangerous builds not checked
OMP_NUM_THREADS environment is not set. Defaulting to 1 thread. (src/comm.cpp:98)
  using 1 OpenMP thread(s) per MPI task
Reading restart file ...
  restart file = 2 Aug 2023, LAMMPS = 2 Aug 2023
  restoring atom style full from restart
  triclinic box = (0 0 0) to (15.4861 14.0699 16.771) with tilt (-7.3915 0.9919 1.0308)
WARNING: Triclinic box skew is large. LAMMPS will run inefficiently. (src/domain.cpp:220)
  2 by 2 by 2 MPI processor grid
  pair style reaxff stores no restart info
  274 atoms
Finding 1-2 1-3 1-4 neighbors ...
  special bond factors lj:    0        0        0       
  special bond factors coul:  0        0        0       
     0 = max # of 1-2 neighbors
     0 = max # of 1-3 neighbors
     0 = max # of 1-4 neighbors
     1 = max # of special neighbors
  special bonds CPU = 0.000 seconds
  read_restart CPU = 0.003 seconds
*****Positive-deform 4 starts.*****
Resetting global fix info from restart file:
  fix style: nvt, fix ID: fnvt
All restart file global fix info was re-assigned
Neighbor list info ...
  update: every = 10 steps, delay = 0 steps, check = no
  max neighbors/atom: 2000, page size: 100000
  master list distance cutoff = 12
  ghost atom cutoff = 12
  binsize = 6, bins = 4 3 3
  2 neighbor lists, perpetual/occasional/extra = 2 0 0
  (1) pair reaxff, perpetual
      attributes: half, newton off, ghost
      pair build: half/bin/newtoff/ghost
      stencil: full/ghost/bin/3d
      bin: standard
  (2) fix qeq/reaxff, perpetual, copy from (1)
      attributes: half, newton off
      pair build: copy
      stencil: none
      bin: none
Setting up Verlet run ...
  Unit style    : real
  Current step  : 0
  Time step     : 0.5
Per MPI rank memory allocation (min/avg/max) = 101.2 | 102.4 | 103.3 Mbytes
   Step          Temp          PotEng         Press         Density         Volume    
         0   308.0235      -32160.14      -22041.274      1.3867102      3654.1976    
       100   313.98193     -32173.348      6223.5401      1.3867102      3654.1976    
       200   303.24698     -32189.907     -11751.723      1.3867102      3654.1976    
       300   294.36349     -32196.393     -6678.0451      1.3867102      3654.1976    
       400   288.2043      -32184.715     -9343.783       1.3867102      3654.1976    
       500   302.93701     -32178.92      -7095.1798      1.3867102      3654.1976    
       600   310.77014     -32171.119     -6131.1163      1.3867102      3654.1976    
       700   269.86004     -32144.37      -17096.06       1.3867102      3654.1976    
       800   299.44512     -32178.518     -4147.6291      1.3867102      3654.1976    
       900   297.06143     -32180.983     -14402.56       1.3867102      3654.1976    
      1000   324.63139     -32208.332     -12395.506      1.3867102      3654.1976    
      1100   307.84855     -32204.099     -11209.509      1.3867102      3654.1976    
      1200   289.96644     -32194.536     -9589.58        1.3867102      3654.1976    
      1300   298.27099     -32194.218     -14742.413      1.3867102      3654.1976    
      1400   310.72825     -32188.311     -16534.903      1.3867102      3654.1976    
      1500   307.89637     -32184.826     -15529.737      1.3867102      3654.1976    
      1600   306.73393     -32205.271     -10540.662      1.3867102      3654.1976    
      1700   271.04076     -32190.665     -14168.943      1.3867102      3654.1976    
      1800   285.6382      -32188.859     -1962.0788      1.3867102      3654.1976    
      1900   290.65956     -32171.254     -5724.5345      1.3867102      3654.1976    
      2000   303.76137     -32168.823     -11004.295      1.3867102      3654.1976    
      2100   288.29093     -32168.425     -10778.597      1.3867102      3654.1976    
      2200   273.64669     -32178.334     -13571.894      1.3867102      3654.1976    
      2300   277.56539     -32197.293     -9659.0039      1.3867102      3654.1976    
      2400   294.01824     -32204.561     -19619.814      1.3867102      3654.1976    
      2500   304.00626     -32181.344     -6428.5658      1.3867102      3654.1976    
      2600   332.47257     -32184.552     -12594.756      1.3867102      3654.1976    
      2700   319.83413     -32191.553     -1643.2966      1.3867102      3654.1976    
      2800   294.74058     -32205.615     -7659.7095      1.3867102      3654.1976    
      2900   283.23811     -32217.098     -15353.599      1.3867102      3654.1976    
      3000   275.69403     -32211.936     -10033.525      1.3867102      3654.1976    
Loop time of 105.598 on 8 procs for 3000 steps with 274 atoms

Performance: 1.227 ns/day, 19.555 hours/ns, 28.410 timesteps/s, 7.784 katom-step/s
98.7% CPU use with 8 MPI tasks x 1 OpenMP threads

MPI task timing breakdown:
Section |  min time  |  avg time  |  max time  |%varavg| %total
---------------------------------------------------------------
Pair    | 59.632     | 78.408     | 88.125     | 110.9 | 74.25
Bond    | 0.0080322  | 0.0089268  | 0.0098913  |   0.6 |  0.01
Neigh   | 4.9118     | 6.4037     | 7.1139     |  31.9 |  6.06
Comm    | 0.99005    | 10.72      | 29.501     | 300.0 | 10.15
Output  | 0.0089105  | 0.010259   | 0.011488   |   0.9 |  0.01
Modify  | 9.2574     | 9.9795     | 11.475     |  25.8 |  9.45
Other   |            | 0.06807    |            |       |  0.06

Nlocal:          34.25 ave          42 max          30 min
Histogram: 3 0 2 0 1 0 0 1 0 1
Nghost:         2609.5 ave        2637 max        2574 min
Histogram: 1 0 1 0 1 2 0 1 0 2
Neighs:        17969.6 ave       21829 max       15887 min
Histogram: 3 0 2 0 1 0 0 1 0 1

Total # of neighbors = 143757
Ave neighs/atom = 524.66058
Ave special neighs/atom = 0
Neighbor list builds = 300
Dangerous builds not checked
OMP_NUM_THREADS environment is not set. Defaulting to 1 thread. (src/comm.cpp:98)
  using 1 OpenMP thread(s) per MPI task
Reading restart file ...
  restart file = 2 Aug 2023, LAMMPS = 2 Aug 2023
  restoring atom style full from restart
  triclinic box = (0 0 0) to (15.4861 14.0699 16.771) with tilt (-7.3915 0.9919 1.0308)
WARNING: Triclinic box skew is large. LAMMPS will run inefficiently. (src/domain.cpp:220)
  2 by 2 by 2 MPI processor grid
  pair style reaxff stores no restart info
  274 atoms
Finding 1-2 1-3 1-4 neighbors ...
  special bond factors lj:    0        0        0       
  special bond factors coul:  0        0        0       
     0 = max # of 1-2 neighbors
     0 = max # of 1-3 neighbors
     0 = max # of 1-4 neighbors
     1 = max # of special neighbors
  special bonds CPU = 0.000 seconds
  read_restart CPU = 0.004 seconds
*****debug*****
xy = -7.3914999999999997371, deltaxy = 0.073915
xz = 0.99190000000000000391, deltaxz = -0.009919
yz = 1.0307999999999999385, deltayz = -0.010308
*****
*****Negative-deform 5 starts.*****
Resetting global fix info from restart file:
  fix style: nvt, fix ID: fnvt
All restart file global fix info was re-assigned
Neighbor list info ...
  update: every = 10 steps, delay = 0 steps, check = no
  max neighbors/atom: 2000, page size: 100000
  master list distance cutoff = 12
  ghost atom cutoff = 12
  binsize = 6, bins = 4 3 3
  2 neighbor lists, perpetual/occasional/extra = 2 0 0
  (1) pair reaxff, perpetual
      attributes: half, newton off, ghost
      pair build: half/bin/newtoff/ghost
      stencil: full/ghost/bin/3d
      bin: standard
  (2) fix qeq/reaxff, perpetual, copy from (1)
      attributes: half, newton off
      pair build: copy
      stencil: none
      bin: none
Setting up Verlet run ...
  Unit style    : real
  Current step  : 0
  Time step     : 0.5
Per MPI rank memory allocation (min/avg/max) = 101.2 | 102.4 | 103.2 Mbytes
   Step          Temp          PotEng         Press         Density         Volume    
         0   308.0235      -32160.14      -22041.274      1.3867102      3654.1976    
       100   314.01131     -32173.366      6219.1769      1.3867102      3654.1976    
       200   301.24025     -32188.204     -10678.282      1.3867102      3654.1976    
       300   298.73744     -32201.172     -6818.574       1.3867102      3654.1976    
       400   286.03745     -32184.199     -14112.185      1.3867102      3654.1976    
       500   304.5293      -32182.088     -6638.7119      1.3867102      3654.1976    
       600   319.72272     -32179.246     -8705.0785      1.3867102      3654.1976    
       700   291.31086     -32163.232     -19625.094      1.3867102      3654.1976    
       800   306.97458     -32190.992     -16479.559      1.3867102      3654.1976    
       900   298.46539     -32197.049     -4047.8733      1.3867102      3654.1976    
      1000   301.40869     -32203.312     -5504.8683      1.3867102      3654.1976    
      1100   298.75485     -32196.177     -11699.895      1.3867102      3654.1976    
      1200   315.65175     -32197.263     -6957.9921      1.3867102      3654.1976    
      1300   311.54208     -32183.936     -10585.602      1.3867102      3654.1976    
      1400   315.7447      -32179.772     -16557.647      1.3867102      3654.1976    
      1500   321.50731     -32179.827     -2588.5824      1.3867102      3654.1976    
      1600   317.34362     -32182.206     -12437.665      1.3867102      3654.1976    
      1700   288.78309     -32176.861     -11397.648      1.3867102      3654.1976    
      1800   290.33029     -32190.953     -19617.83       1.3867102      3654.1976    
      1900   287.6044      -32185.93      -4440.1551      1.3867102      3654.1976    
      2000   301.04604     -32178.206     -10577.147      1.3867102      3654.1976    
      2100   315.61434     -32170.98      -8408.589       1.3867102      3654.1976    
      2200   311.72704     -32177.2       -9451.6666      1.3867102      3654.1976    
      2300   309.13913     -32201.312     -16310.595      1.3867102      3654.1976    
      2400   286.59847     -32206.847      4042.6689      1.3867102      3654.1976    
      2500   299.08695     -32216.746     -7861.6425      1.3867102      3654.1976    
      2600   295.77786     -32190.893     -13348.635      1.3867102      3654.1976    
      2700   313.08264     -32176.83      -9938.602       1.3867102      3654.1976    
      2800   330.95665     -32186.2       -9989.9644      1.3867102      3654.1976    
      2900   300.389       -32194.11      -475.03919      1.3867102      3654.1976    
      3000   283.30144     -32203.426     -26904.714      1.3867102      3654.1976    
Loop time of 105.545 on 8 procs for 3000 steps with 274 atoms

Performance: 1.228 ns/day, 19.545 hours/ns, 28.424 timesteps/s, 7.788 katom-step/s
98.7% CPU use with 8 MPI tasks x 1 OpenMP threads

MPI task timing breakdown:
Section |  min time  |  avg time  |  max time  |%varavg| %total
---------------------------------------------------------------
Pair    | 59.144     | 79.114     | 88.321     | 121.7 | 74.96
Bond    | 0.0077547  | 0.008877   | 0.0096898  |   0.6 |  0.01
Neigh   | 4.9414     | 6.4552     | 7.0662     |  34.0 |  6.12
Comm    | 0.9104     | 10.125     | 30.108     | 340.3 |  9.59
Output  | 0.0085559  | 0.0099745  | 0.011128   |   0.9 |  0.01
Modify  | 9.152      | 9.7638     | 11.289     |  27.7 |  9.25
Other   |            | 0.06818    |            |       |  0.06

Nlocal:          34.25 ave          40 max          31 min
Histogram: 1 2 2 1 0 0 0 0 1 1
Nghost:           2623 ave        2649 max        2591 min
Histogram: 1 0 1 0 1 2 0 1 0 2
Neighs:        17937.4 ave       20738 max       16242 min
Histogram: 1 2 2 1 0 0 0 0 0 2

Total # of neighbors = 143499
Ave neighs/atom = 523.71898
Ave special neighs/atom = 0
Neighbor list builds = 300
Dangerous builds not checked
OMP_NUM_THREADS environment is not set. Defaulting to 1 thread. (src/comm.cpp:98)
  using 1 OpenMP thread(s) per MPI task
Reading restart file ...
  restart file = 2 Aug 2023, LAMMPS = 2 Aug 2023
  restoring atom style full from restart
  triclinic box = (0 0 0) to (15.4861 14.0699 16.771) with tilt (-7.3915 0.9919 1.0308)
WARNING: Triclinic box skew is large. LAMMPS will run inefficiently. (src/domain.cpp:220)
  2 by 2 by 2 MPI processor grid
  pair style reaxff stores no restart info
  274 atoms
Finding 1-2 1-3 1-4 neighbors ...
  special bond factors lj:    0        0        0       
  special bond factors coul:  0        0        0       
     0 = max # of 1-2 neighbors
     0 = max # of 1-3 neighbors
     0 = max # of 1-4 neighbors
     1 = max # of special neighbors
  special bonds CPU = 0.000 seconds
  read_restart CPU = 0.004 seconds
*****Positive-deform 5 starts.*****
Resetting global fix info from restart file:
  fix style: nvt, fix ID: fnvt
All restart file global fix info was re-assigned
Neighbor list info ...
  update: every = 10 steps, delay = 0 steps, check = no
  max neighbors/atom: 2000, page size: 100000
  master list distance cutoff = 12
  ghost atom cutoff = 12
  binsize = 6, bins = 4 3 3
  2 neighbor lists, perpetual/occasional/extra = 2 0 0
  (1) pair reaxff, perpetual
      attributes: half, newton off, ghost
      pair build: half/bin/newtoff/ghost
      stencil: full/ghost/bin/3d
      bin: standard
  (2) fix qeq/reaxff, perpetual, copy from (1)
      attributes: half, newton off
      pair build: copy
      stencil: none
      bin: none
Setting up Verlet run ...
  Unit style    : real
  Current step  : 0
  Time step     : 0.5
Per MPI rank memory allocation (min/avg/max) = 101.2 | 102.4 | 103.3 Mbytes
   Step          Temp          PotEng         Press         Density         Volume    
         0   308.0235      -32160.14      -22041.274      1.3867102      3654.1976    
       100   313.95507     -32173.364      6220.4999      1.3867102      3654.1976    
       200   301.40003     -32188.002     -11460.526      1.3867102      3654.1976    
       300   297.87705     -32199.299     -6038.1547      1.3867102      3654.1976    
       400   289.07122     -32186.637     -11083.977      1.3867102      3654.1976    
       500   300.84365     -32178.336     -6209.0693      1.3867102      3654.1976    
       600   321.19412     -32180.865     -6626.5939      1.3867102      3654.1976    
       700   271.89061     -32143.648     -16949.905      1.3867102      3654.1976    
       800   306.47292     -32179.351     -1217.0961      1.3867102      3654.1976    
       900   295.63669     -32177.49      -1971.6312      1.3867102      3654.1976    
      1000   312.8724      -32189.991     -1300.623       1.3867102      3654.1976    
      1100   313.83837     -32197.207     -3461.9459      1.3867102      3654.1976    
      1200   295.05553     -32189.736     -9846.9087      1.3867102      3654.1976    
      1300   301.2803      -32196.668     -12250.055      1.3867102      3654.1976    
      1400   289.69568     -32188.389     -6321.4807      1.3867102      3654.1976    
      1500   300.3092      -32194.185     -24297.462      1.3867102      3654.1976    
      1600   325.7066      -32197.99      -7680.5639      1.3867102      3654.1976    
      1700   306.36697     -32177.552     -11409.674      1.3867102      3654.1976    
      1800   316.50019     -32194.806     -8863.2295      1.3867102      3654.1976    
      1900   302.61578     -32188.757     -13938.583      1.3867102      3654.1976    
      2000   296.26166     -32192.306     -10511.102      1.3867102      3654.1976    
      2100   301.31688     -32200.16      -13589.188      1.3867102      3654.1976    
      2200   289.92931     -32191.214     -21762.96       1.3867102      3654.1976    
      2300   325.36075     -32216.336     -12188.933      1.3867102      3654.1976    
      2400   274.78993     -32174.476     -10395.362      1.3867102      3654.1976    
      2500   319.11697     -32198.465     -8246.7434      1.3867102      3654.1976    
      2600   305.86025     -32192.016     -13119.323      1.3867102      3654.1976    
      2700   293.32551     -32199.401     -10569.749      1.3867102      3654.1976    
      2800   322.78142     -32235.362     -10767.522      1.3867102      3654.1976    
      2900   284.04666     -32204.593     -5440.7596      1.3867102      3654.1976    
      3000   294.56994     -32198.593     -9656.7384      1.3867102      3654.1976    
Loop time of 105.428 on 8 procs for 3000 steps with 274 atoms

Performance: 1.229 ns/day, 19.524 hours/ns, 28.455 timesteps/s, 7.797 katom-step/s
98.7% CPU use with 8 MPI tasks x 1 OpenMP threads

MPI task timing breakdown:
Section |  min time  |  avg time  |  max time  |%varavg| %total
---------------------------------------------------------------
Pair    | 58.956     | 80.403     | 88.021     | 107.0 | 76.26
Bond    | 0.0079434  | 0.0088053  | 0.0095873  |   0.5 |  0.01
Neigh   | 4.9394     | 6.4918     | 7.0009     |  29.3 |  6.16
Comm    | 1.1415     | 8.7604     | 30.216     | 324.2 |  8.31
Output  | 0.0088606  | 0.010193   | 0.011343   |   0.9 |  0.01
Modify  | 9.1723     | 9.684      | 11.234     |  24.1 |  9.19
Other   |            | 0.06967    |            |       |  0.07

Nlocal:          34.25 ave          41 max          29 min
Histogram: 1 1 1 1 1 1 0 1 0 1
Nghost:        2609.75 ave        2628 max        2585 min
Histogram: 1 1 0 0 2 0 1 0 0 3
Neighs:        17931.6 ave       21331 max       15209 min
Histogram: 1 1 1 1 1 1 0 1 0 1

Total # of neighbors = 143453
Ave neighs/atom = 523.55109
Ave special neighs/atom = 0
Neighbor list builds = 300
Dangerous builds not checked
OMP_NUM_THREADS environment is not set. Defaulting to 1 thread. (src/comm.cpp:98)
  using 1 OpenMP thread(s) per MPI task
Reading restart file ...
  restart file = 2 Aug 2023, LAMMPS = 2 Aug 2023
  restoring atom style full from restart
  triclinic box = (0 0 0) to (15.4861 14.0699 16.771) with tilt (-7.3915 0.9919 1.0308)
WARNING: Triclinic box skew is large. LAMMPS will run inefficiently. (src/domain.cpp:220)
  2 by 2 by 2 MPI processor grid
  pair style reaxff stores no restart info
  274 atoms
Finding 1-2 1-3 1-4 neighbors ...
  special bond factors lj:    0        0        0       
  special bond factors coul:  0        0        0       
     0 = max # of 1-2 neighbors
     0 = max # of 1-3 neighbors
     0 = max # of 1-4 neighbors
     1 = max # of special neighbors
  special bonds CPU = 0.000 seconds
  read_restart CPU = 0.002 seconds
*****debug*****
xy = -7.3914999999999997371, deltaxy = 0.073915
xz = 0.99190000000000000391, deltaxz = -0.009919
yz = 1.0307999999999999385, deltayz = -0.010308
*****
*****Negative-deform 6 starts.*****
Resetting global fix info from restart file:
  fix style: nvt, fix ID: fnvt
All restart file global fix info was re-assigned
Neighbor list info ...
  update: every = 10 steps, delay = 0 steps, check = no
  max neighbors/atom: 2000, page size: 100000
  master list distance cutoff = 12
  ghost atom cutoff = 12
  binsize = 6, bins = 4 3 3
  2 neighbor lists, perpetual/occasional/extra = 2 0 0
  (1) pair reaxff, perpetual
      attributes: half, newton off, ghost
      pair build: half/bin/newtoff/ghost
      stencil: full/ghost/bin/3d
      bin: standard
  (2) fix qeq/reaxff, perpetual, copy from (1)
      attributes: half, newton off
      pair build: copy
      stencil: none
      bin: none
Setting up Verlet run ...
  Unit style    : real
  Current step  : 0
  Time step     : 0.5
Per MPI rank memory allocation (min/avg/max) = 101.2 | 102.4 | 103.2 Mbytes
   Step          Temp          PotEng         Press         Density         Volume    
         0   308.0235      -32160.14      -22041.274      1.3867102      3654.1976    
       100   313.98143     -32173.368      6221.8813      1.3867102      3654.1976    
       200   299.93792     -32186.963     -11310.221      1.3867102      3654.1976    
       300   298.20404     -32200.452     -8251.0013      1.3867102      3654.1976    
       400   292.13881     -32189.636     -8098.5661      1.3867102      3654.1976    
       500   310.02985     -32187.473     -8636.1153      1.3867102      3654.1976    
       600   331.07039     -32190.121     -17441.939      1.3867102      3654.1976    
       700   288.97521     -32163.355     -14357.898      1.3867102      3654.1976    
       800   291.49274     -32175.732     -5120.6399      1.3867102      3654.1976    
       900   297.01642     -32179.992     -11805.21       1.3867102      3654.1976    
      1000   307.70203     -32186.064     -9176.617       1.3867102      3654.1976    
      1100   293.69573     -32179.776     -7409.704       1.3867102      3654.1976    
      1200   298.16478     -32178.567     -6991.1164      1.3867102      3654.1976    
      1300   284.40955     -32176.89      -15003.678      1.3867102      3654.1976    
      1400   316.70554     -32212.508     -15116.884      1.3867102      3654.1976    
      1500   275.70989     -32188.376     -6740.6139      1.3867102      3654.1976    
      1600   314.50644     -32214.186     -6155.2315      1.3867102      3654.1976    
      1700   295.76014     -32187.575     -15359.72       1.3867102      3654.1976    
      1800   305.40486     -32179.277     -20842.963      1.3867102      3654.1976    
      1900   302.96766     -32170.736     -23803.752      1.3867102      3654.1976    
      2000   284.24804     -32165.632     -12303.294      1.3867102      3654.1976    
      2100   278.35993     -32182.323     -14691.572      1.3867102      3654.1976    
      2200   290.02947     -32203.733     -8300.3214      1.3867102      3654.1976    
      2300   290.61736     -32195.166     -18746.368      1.3867102      3654.1976    
      2400   308.6717      -32193.653     -5927.5172      1.3867102      3654.1976    
      2500   305.01171     -32184.665     -21096.126      1.3867102      3654.1976    
      2600   297.93833     -32186.995     -16235.718      1.3867102      3654.1976    
      2700   288.62039     -32196.095     -22861.638      1.3867102      3654.1976    
      2800   289.39609     -32210.417     -8116.8288      1.3867102      3654.1976    
      2900   293.06425     -32215.211     -1176.5553      1.3867102      3654.1976    
      3000   295.46602     -32200.555     -11114.876      1.3867102      3654.1976    
Loop time of 106.444 on 8 procs for 3000 steps with 274 atoms

Performance: 1.218 ns/day, 19.712 hours/ns, 28.184 timesteps/s, 7.722 katom-step/s
98.7% CPU use with 8 MPI tasks x 1 OpenMP threads

MPI task timing breakdown:
Section |  min time  |  avg time  |  max time  |%varavg| %total
---------------------------------------------------------------
Pair    | 59.274     | 82.239     | 88.37      |  96.9 | 77.26
Bond    | 0.0080124  | 0.0087854  | 0.0096211  |   0.5 |  0.01
Neigh   | 4.8764     | 6.5264     | 7.0213     |  25.4 |  6.13
Comm    | 1.5794     | 7.712      | 30.689     | 316.5 |  7.25
Output  | 0.0082616  | 0.0098605  | 0.011021   |   1.0 |  0.01
Modify  | 9.3789     | 9.8803     | 11.524     |  20.7 |  9.28
Other   |            | 0.06733    |            |       |  0.06

Nlocal:          34.25 ave          40 max          30 min
Histogram: 2 0 1 1 0 0 2 1 0 1
Nghost:        2613.38 ave        2635 max        2593 min
Histogram: 1 1 2 0 0 1 0 1 0 2
Neighs:        17955.6 ave       20868 max       15770 min
Histogram: 2 0 1 1 0 1 2 0 0 1

Total # of neighbors = 143645
Ave neighs/atom = 524.25182
Ave special neighs/atom = 0
Neighbor list builds = 300
Dangerous builds not checked
OMP_NUM_THREADS environment is not set. Defaulting to 1 thread. (src/comm.cpp:98)
  using 1 OpenMP thread(s) per MPI task
Reading restart file ...
  restart file = 2 Aug 2023, LAMMPS = 2 Aug 2023
  restoring atom style full from restart
  triclinic box = (0 0 0) to (15.4861 14.0699 16.771) with tilt (-7.3915 0.9919 1.0308)
WARNING: Triclinic box skew is large. LAMMPS will run inefficiently. (src/domain.cpp:220)
  2 by 2 by 2 MPI processor grid
  pair style reaxff stores no restart info
  274 atoms
Finding 1-2 1-3 1-4 neighbors ...
  special bond factors lj:    0        0        0       
  special bond factors coul:  0        0        0       
     0 = max # of 1-2 neighbors
     0 = max # of 1-3 neighbors
     0 = max # of 1-4 neighbors
     1 = max # of special neighbors
  special bonds CPU = 0.000 seconds
  read_restart CPU = 0.003 seconds
*****Positive-deform 6 starts.*****
Resetting global fix info from restart file:
  fix style: nvt, fix ID: fnvt
All restart file global fix info was re-assigned
Neighbor list info ...
  update: every = 10 steps, delay = 0 steps, check = no
  max neighbors/atom: 2000, page size: 100000
  master list distance cutoff = 12
  ghost atom cutoff = 12
  binsize = 6, bins = 4 3 3
  2 neighbor lists, perpetual/occasional/extra = 2 0 0
  (1) pair reaxff, perpetual
      attributes: half, newton off, ghost
      pair build: half/bin/newtoff/ghost
      stencil: full/ghost/bin/3d
      bin: standard
  (2) fix qeq/reaxff, perpetual, copy from (1)
      attributes: half, newton off
      pair build: copy
      stencil: none
      bin: none
Setting up Verlet run ...
  Unit style    : real
  Current step  : 0
  Time step     : 0.5
Per MPI rank memory allocation (min/avg/max) = 101.2 | 102.4 | 103.3 Mbytes
   Step          Temp          PotEng         Press         Density         Volume    
         0   308.0235      -32160.14      -22041.274      1.3867102      3654.1976    
       100   313.95795     -32173.292      6198.731       1.3867102      3654.1976    
       200   301.36239     -32188.1       -11135.253      1.3867102      3654.1976    
       300   298.18076     -32199.981     -6894.1974      1.3867102      3654.1976    
       400   287.61863     -32184.264     -8970.7178      1.3867102      3654.1976    
       500   310.82603     -32185.827     -4439.1369      1.3867102      3654.1976    
       600   323.80398     -32181.78      -12889.21       1.3867102      3654.1976    
       700   271.57666     -32143.558     -14120.215      1.3867102      3654.1976    
       800   307.00154     -32179.747     -538.51037      1.3867102      3654.1976    
       900   296.14888     -32174.044     -9203.6467      1.3867102      3654.1976    
      1000   321.18886     -32194.52      -4811.3952      1.3867102      3654.1976    
      1100   278.77256     -32168.27      -3261.8376      1.3867102      3654.1976    
      1200   307.68517     -32192.684     -12445.22       1.3867102      3654.1976    
      1300   287.56955     -32177.021     -14832.593      1.3867102      3654.1976    
      1400   311.56125     -32194.704     -18439.656      1.3867102      3654.1976    
      1500   296.04232     -32195.379     -20503.05       1.3867102      3654.1976    
      1600   302.40113     -32209.634     -3341.0456      1.3867102      3654.1976    
      1700   294.29662     -32200.457     -10187.355      1.3867102      3654.1976    
      1800   305.60691     -32196.903     -6242.839       1.3867102      3654.1976    
      1900   294.96853     -32175.91      -16176.35       1.3867102      3654.1976    
      2000   322.36331     -32188.436     -10725.699      1.3867102      3654.1976    
      2100   306.4475      -32187.48      -8940.6322      1.3867102      3654.1976    
      2200   300.83491     -32207.788     -13239.731      1.3867102      3654.1976    
      2300   283.11228     -32207.524     -9942.4681      1.3867102      3654.1976    
      2400   285.40627     -32193.57      -13591.668      1.3867102      3654.1976    
      2500   305.40457     -32182.194     -23422.715      1.3867102      3654.1976    
      2600   328.39052     -32196.718     -18124.143      1.3867102      3654.1976    
      2700   319.49441     -32214.181     -22642.831      1.3867102      3654.1976    
      2800   285.3837      -32206.759     -9855.2407      1.3867102      3654.1976    
      2900   307.11794     -32216.689     -12317.897      1.3867102      3654.1976    
      3000   291.16736     -32196.842     -9079.0107      1.3867102      3654.1976    
Loop time of 106.377 on 8 procs for 3000 steps with 274 atoms

Performance: 1.218 ns/day, 19.700 hours/ns, 28.201 timesteps/s, 7.727 katom-step/s
98.7% CPU use with 8 MPI tasks x 1 OpenMP threads

MPI task timing breakdown:
Section |  min time  |  avg time  |  max time  |%varavg| %total
---------------------------------------------------------------
Pair    | 59.412     | 82.355     | 88.197     |  97.7 | 77.42
Bond    | 0.0081574  | 0.0090765  | 0.010116   |   0.6 |  0.01
Neigh   | 4.9702     | 6.6418     | 6.9913     |  24.7 |  6.24
Comm    | 1.4975     | 7.3457     | 30.289     | 327.1 |  6.91
Output  | 0.010943   | 0.013009   | 0.014901   |   1.2 |  0.01
Modify  | 9.594      | 9.9424     | 11.62      |  20.2 |  9.35
Other   |            | 0.07011    |            |       |  0.07

Nlocal:          34.25 ave          42 max          30 min
Histogram: 2 2 0 0 2 1 0 0 0 1
Nghost:           2588 ave        2623 max        2556 min
Histogram: 1 1 2 0 1 0 1 0 1 1
Neighs:          17963 ave       21810 max       15967 min
Histogram: 2 2 0 0 2 1 0 0 0 1

Total # of neighbors = 143704
Ave neighs/atom = 524.46715
Ave special neighs/atom = 0
Neighbor list builds = 300
Dangerous builds not checked
Total wall time: 0:23:02
