LAMMPS (2 Aug 2023 - Update 2)
  using 1 OpenMP thread(s) per MPI task
Reading data file ...
  triclinic box = (0 0 0) to (15.4861 14.0699 16.771) with tilt (-7.3915 0.9919 1.0308)
WARNING: Triclinic box skew is large. LAMMPS will run inefficiently. (src/domain.cpp:220)
  2 by 2 by 2 MPI processor grid
  reading atoms ...
  274 atoms
  reading velocities ...
  274 velocities
Finding 1-2 1-3 1-4 neighbors ...
  special bond factors lj:    0        0        0       
  special bond factors coul:  0        0        0       
     0 = max # of 1-2 neighbors
     0 = max # of 1-3 neighbors
     0 = max # of 1-4 neighbors
     1 = max # of special neighbors
  special bonds CPU = 0.001 seconds
  read_data CPU = 0.007 seconds
WARNING: Van der Waals parameters for element SI indicate inner wall+shielding, but earlier atoms indicate a different van der Waals method. This may cause division-by-zero errors. Keeping van der Waals setting for earlier atoms. (src/REAXFF/reaxff_ffield.cpp:251)
System init for write_restart ...
Neighbor list info ...
  update: every = 1 steps, delay = 0 steps, check = yes
  max neighbors/atom: 2000, page size: 100000
  master list distance cutoff = 12
  ghost atom cutoff = 12
  binsize = 6, bins = 4 3 3
  2 neighbor lists, perpetual/occasional/extra = 2 0 0
  (1) pair reaxff, perpetual
      attributes: half, newton off, ghost
      pair build: half/bin/newtoff/ghost
      stencil: full/ghost/bin/3d
      bin: standard
  (2) fix qeq/reaxff, perpetual, copy from (1)
      attributes: half, newton off
      pair build: copy
      stencil: none
      bin: none
  using 1 OpenMP thread(s) per MPI task
Reading restart file ...
  restart file = 2 Aug 2023, LAMMPS = 2 Aug 2023
  restoring atom style full from restart
  triclinic box = (0 0 0) to (15.4861 14.0699 16.771) with tilt (-7.3915 0.9919 1.0308)
WARNING: Triclinic box skew is large. LAMMPS will run inefficiently. (src/domain.cpp:220)
  2 by 2 by 2 MPI processor grid
  pair style reaxff stores no restart info
  274 atoms
Finding 1-2 1-3 1-4 neighbors ...
  special bond factors lj:    0        0        0       
  special bond factors coul:  0        0        0       
     0 = max # of 1-2 neighbors
     0 = max # of 1-3 neighbors
     0 = max # of 1-4 neighbors
     1 = max # of special neighbors
  special bonds CPU = 0.000 seconds
  read_restart CPU = 0.004 seconds
*****debug*****
xy = -7.3914999999999997371, deltaxy = 0.073915
xz = 0.99190000000000000391, deltaxz = -0.009919
yz = 1.0307999999999999385, deltayz = -0.010308
*****
*****Negative-deform 1 starts.*****
WARNING: Van der Waals parameters for element SI indicate inner wall+shielding, but earlier atoms indicate a different van der Waals method. This may cause division-by-zero errors. Keeping van der Waals setting for earlier atoms. (src/REAXFF/reaxff_ffield.cpp:251)

CITE-CITE-CITE-CITE-CITE-CITE-CITE-CITE-CITE-CITE-CITE-CITE-CITE

Your simulation uses code contributions which should be cited:
- pair reaxff command: doi:10.1016/j.parco.2011.08.005
- fix qeq/reaxff command: doi:10.1016/j.parco.2011.08.005
The log file lists these citations in BibTeX format.

CITE-CITE-CITE-CITE-CITE-CITE-CITE-CITE-CITE-CITE-CITE-CITE-CITE

Neighbor list info ...
  update: every = 10 steps, delay = 0 steps, check = yes
  max neighbors/atom: 2000, page size: 100000
  master list distance cutoff = 12
  ghost atom cutoff = 12
  binsize = 6, bins = 4 3 3
  2 neighbor lists, perpetual/occasional/extra = 2 0 0
  (1) pair reaxff, perpetual
      attributes: half, newton off, ghost
      pair build: half/bin/newtoff/ghost
      stencil: full/ghost/bin/3d
      bin: standard
  (2) fix qeq/reaxff, perpetual, copy from (1)
      attributes: half, newton off
      pair build: copy
      stencil: none
      bin: none
Setting up Verlet run ...
  Unit style    : real
  Current step  : 0
  Time step     : 0.5
Per MPI rank memory allocation (min/avg/max) = 101.4 | 103 | 104.6 Mbytes
   Step          Temp          PotEng         Press          Volume    
         0   300           -28002.895     -1094.8363      3654.1976    
       100   281.47821     -27975.169     -7783.2776      3653.8322    
       200   301.0756      -27963.784     -2528.9943      3653.4668    
       300   320.10508     -27975.119     -6631.6097      3653.1013    
       400   292.97573     -27961.801     -10105.288      3652.7359    
       500   309.66149     -27982.137     -17286.854      3652.3705    
       600   287.11038     -27998.569     -1017.9385      3652.0051    
       700   292.34962     -28015.281     -2975.6794      3651.6397    
       800   293.11454     -28009.681     -13853.827      3651.2743    
       900   279.82468     -27978.937     -15195.036      3650.9088    
      1000   307.47291     -27996.788     -3138.254       3650.5434    
      1100   309.27104     -28016.133      4151.1892      3650.178     
      1200   278.03217     -28017.696      3897.9653      3649.8126    
      1300   291.88945     -28022.432      3411.3444      3649.4472    
      1400   300.52781     -28006.787      3357.4372      3649.0817    
      1500   286.4114      -27987.836     -1749.1647      3648.7163    
      1600   304.29454     -28004.716     -4575.3408      3648.3509    
      1700   312.62711     -28016.698     -2802.7391      3647.9855    
      1800   278.46691     -28012.864     -6949.5787      3647.6201    
      1900   282.44465     -28038.585     -5136.0821      3647.2546    
      2000   284.78705     -28030.716     -1613.2391      3646.8892    
      2100   288.86068     -28019.231      53.189097      3646.5238    
      2200   300.47086     -28013.998     -7001.1758      3646.1584    
      2300   295.85532     -27997.095     -2846.9434      3645.793     
      2400   314.20478     -28006.588     -5842.2053      3645.4275    
      2500   292.86619     -28013.833     -8152.1688      3645.0621    
      2600   281.92698     -28024.065     -9870.9353      3644.6967    
      2700   288.54375     -28023.048     -11779.769      3644.3313    
      2800   312.62357     -28026.893      7562.9051      3643.9659    
      2900   312.76413     -28022.664      943.15293      3643.6004    
      3000   297.67421     -28014.568      1561.2954      3643.235     
      3100   277.27578     -28004.826     -9671.8892      3642.8696    
      3200   286.38571     -28002.225     -6478.288       3642.5042    
      3300   319.566       -27998.709     -2275.7335      3642.1388    
      3400   301.32961     -27983.231     -11697.506      3641.7733    
      3500   307.0682      -28004.633     -5328.2403      3641.4079    
      3600   279.6619      -28005.789     -1641.3519      3641.0425    
      3700   316.30274     -28034.486     -1435.385       3640.6771    
      3800   298.98241     -28011.987     -1874.9412      3640.3117    
      3900   317.57625     -28010.609     -10167.8        3639.9462    
      4000   294.41632     -27979.182     -5748.6984      3639.5808    
      4100   339.9099      -28007.412     -7355.0921      3639.2154    
      4200   308.17553     -28000.789     -8882.9042      3638.85      
      4300   302.34309     -28017.808      176.80214      3638.4846    
      4400   276.97033     -28007.822      5003.774       3638.1191    
      4500   281.12343     -28000.51      -5386.681       3637.7537    
      4600   314.5062      -27997.962     -1576.3113      3637.3883    
      4700   309.16907     -27999.673     -3200.5407      3637.0229    
      4800   304.26107     -28010.642      3026.5389      3636.6575    
      4900   287.24843     -28009.075     -18881.584      3636.292     
      5000   287.42342     -28018.037     -8893.6051      3635.9266    
      5100   290.21305     -28033.686     -455.93953      3635.5612    
      5200   290.79836     -28052.724      5430.9719      3635.1958    
      5300   288.96829     -28056.341     -11826.125      3634.8304    
      5400   304.28796     -28044.436     -7892.4182      3634.4649    
      5500   316.64272     -28038.977      446.54089      3634.0995    
      5600   328.01591     -28056.198      2385.9513      3633.7341    
      5700   300.67033     -28048.573     -5107.9405      3633.3687    
      5800   301.03113     -28053.148     -3708.0616      3633.0033    
      5900   294.43532     -28057.834     -2306.7914      3632.6378    
      6000   284.9325      -28062.046     -22384.515      3632.2724    
      6100   286.52574     -28085.837     -5997.927       3631.907     
      6200   272.73728     -28077.679     -4109.1359      3631.5416    
      6300   298.5006      -28069.449      1881.0925      3631.1762    
      6400   297.99725     -28051.482     -2121.2452      3630.8107    
      6500   297.96949     -28040.422      1095.1775      3630.4453    
      6600   311.42892     -28046.538     -9359.8295      3630.0799    
      6700   298.20417     -28060.795     -9996.3057      3629.7145    
      6800   288.11555     -28069.823     -8720.6804      3629.3491    
      6900   297.42529     -28067.252      6155.8088      3628.9836    
      7000   311.2092      -28063.01      -3986.5691      3628.6182    
      7100   286.79396     -28035.15      -6812.1258      3628.2528    
      7200   297.1004      -28042.982     -475.06609      3627.8874    
      7300   310.80764     -28058.444     -9815.9443      3627.522     
      7400   291.31135     -28047.066     -6031.2686      3627.1565    
      7500   287.68938     -28048.199     -10851.153      3626.7911    
      7600   305.12651     -28049.029     -2726.7384      3626.4257    
      7700   326.15641     -28040.645     -10670.468      3626.0603    
      7800   302.97972     -28037.563     -527.20498      3625.6949    
      7900   295.91616     -28054.008     -17253.265      3625.3294    
      8000   306.1288      -28069.392      2239.0375      3624.964     
      8100   295.50572     -28057.865      163.54037      3624.5986    
      8200   322.50041     -28060.648     -8128.4465      3624.2332    
      8300   328.57467     -28049.356     -17969.197      3623.8678    
      8400   302.23219     -28052.756     -7812.3881      3623.5023    
      8500   309.59982     -28086.662     -4341.2376      3623.1369    
      8600   291.49917     -28085.336      9530.1054      3622.7715    
      8700   293.28141     -28086.575      10821.277      3622.4061    
      8800   323.47905     -28097.697      12266.527      3622.0407    
      8900   312.23197     -28084.633     -12101.426      3621.6752    
      9000   278.46746     -28083.063     -12513.836      3621.3098    
      9100   278.84455     -28092.859     -10663.319      3620.9444    
      9200   277.51235     -28078.677     -7254.5476      3620.579     
      9300   309.58823     -28085.959     -4074.5598      3620.2136    
      9400   313.69328     -28066.94      -23634.899      3619.8482    
      9500   337.36496     -28047.818     -15631.454      3619.4827    
      9600   328.04292     -28061.189      1714.6141      3619.1173    
      9700   303.01293     -28065.616     -1166.7613      3618.7519    
      9800   292.83066     -28081.519     -20183.14       3618.3865    
      9900   286.13822     -28089.263     -13620.269      3618.0211    
     10000   282.13813     -28092.53      -10549.064      3617.6556    
Loop time of 321.665 on 8 procs for 10000 steps with 274 atoms

Performance: 1.343 ns/day, 17.870 hours/ns, 31.088 timesteps/s, 8.518 katom-step/s
98.4% CPU use with 8 MPI tasks x 1 OpenMP threads

MPI task timing breakdown:
Section |  min time  |  avg time  |  max time  |%varavg| %total
---------------------------------------------------------------
Pair    | 256.74     | 268.66     | 280.58     |  55.6 | 83.52
Bond    | 0.028375   | 0.030292   | 0.033019   |   0.9 |  0.01
Neigh   | 3.4724     | 3.6541     | 3.7752     |   4.9 |  1.14
Comm    | 5.6251     | 17.702     | 29.684     | 217.6 |  5.50
Output  | 0.029623   | 0.070914   | 0.16671    |  20.1 |  0.02
Modify  | 31.145     | 31.31      | 31.461     |   1.5 |  9.73
Other   |            | 0.2371     |            |       |  0.07

Nlocal:          34.25 ave          41 max          29 min
Histogram: 2 1 0 0 1 2 0 0 0 2
Nghost:        2620.88 ave        2661 max        2568 min
Histogram: 1 0 2 0 0 1 1 0 1 2
Neighs:        18093.6 ave       21604 max       15339 min
Histogram: 2 0 1 0 2 1 0 0 1 1

Total # of neighbors = 144749
Ave neighs/atom = 528.28102
Ave special neighs/atom = 0
Neighbor list builds = 159
Dangerous builds = 0
  using 1 OpenMP thread(s) per MPI task
Reading restart file ...
  restart file = 2 Aug 2023, LAMMPS = 2 Aug 2023
  restoring atom style full from restart
  triclinic box = (0 0 0) to (15.4861 14.0699 16.771) with tilt (-7.3915 0.9919 1.0308)
WARNING: Triclinic box skew is large. LAMMPS will run inefficiently. (src/domain.cpp:220)
  2 by 2 by 2 MPI processor grid
  pair style reaxff stores no restart info
  274 atoms
Finding 1-2 1-3 1-4 neighbors ...
  special bond factors lj:    0        0        0       
  special bond factors coul:  0        0        0       
     0 = max # of 1-2 neighbors
     0 = max # of 1-3 neighbors
     0 = max # of 1-4 neighbors
     1 = max # of special neighbors
  special bonds CPU = 0.000 seconds
  read_restart CPU = 0.004 seconds
*****Positive-deform 1 starts.*****
WARNING: Van der Waals parameters for element SI indicate inner wall+shielding, but earlier atoms indicate a different van der Waals method. This may cause division-by-zero errors. Keeping van der Waals setting for earlier atoms. (src/REAXFF/reaxff_ffield.cpp:251)
Neighbor list info ...
  update: every = 10 steps, delay = 0 steps, check = yes
  max neighbors/atom: 2000, page size: 100000
  master list distance cutoff = 12
  ghost atom cutoff = 12
  binsize = 6, bins = 4 3 3
  2 neighbor lists, perpetual/occasional/extra = 2 0 0
  (1) pair reaxff, perpetual
      attributes: half, newton off, ghost
      pair build: half/bin/newtoff/ghost
      stencil: full/ghost/bin/3d
      bin: standard
  (2) fix qeq/reaxff, perpetual, copy from (1)
      attributes: half, newton off
      pair build: copy
      stencil: none
      bin: none
Setting up Verlet run ...
  Unit style    : real
  Current step  : 0
  Time step     : 0.5
Per MPI rank memory allocation (min/avg/max) = 101.4 | 103 | 104.7 Mbytes
   Step          Temp          PotEng         Press          Volume    
         0   300           -28002.895     -1094.8363      3654.1976    
       100   281.46341     -27975.173     -7782.188       3654.563     
       200   300.76443     -27963.563     -2454.4851      3654.9284    
       300   318.52082     -27973.987     -4765.5386      3655.2939    
       400   291.73246     -27960.754     -8897.9761      3655.6593    
       500   311.80449     -27983.417     -16387.646      3656.0247    
       600   286.54592     -27997.507     -1178.7858      3656.3901    
       700   299.776       -28020.856     -1891.9875      3656.7555    
       800   295.76917     -28012.333     -12004.395      3657.121     
       900   279.51977     -27978.826     -11074.931      3657.4864    
      1000   310.05491     -28000.333      740.07973      3657.8518    
      1100   309.08928     -28023.08      -940.84549      3658.2172    
      1200   295.91038     -28033.512      2762.0303      3658.5826    
      1300   294.97521     -28027.441      641.43375      3658.9481    
      1400   290.61642     -28004.092      2491.3729      3659.3135    
      1500   292.07578     -27993.318     -8491.1534      3659.6789    
      1600   303.16344     -28002.081     -5554.4151      3660.0443    
      1700   307.37751     -28007.08      -7056.9311      3660.4097    
      1800   310.81418     -28023.246     -6074.0212      3660.7752    
      1900   296.57449     -28041.551      2354.523       3661.1406    
      2000   285.41456     -28030.371     -1366.9045      3661.506     
      2100   292.42861     -28020.244      4796.6996      3661.8714    
      2200   293.90829     -28006.895     -2515.4531      3662.2368    
      2300   313.70362     -28013.33       271.1007       3662.6023    
      2400   300.83892     -28007.174      4804.582       3662.9677    
      2500   292.18826     -28016.403     -56.966696      3663.3331    
      2600   312.85964     -28037.175      14276.139      3663.6985    
      2700   256.82632     -28007.849     -3644.1179      3664.0639    
      2800   292.18652     -28033.712      10744.437      3664.4294    
      2900   312.02037     -28026.715      1445.4815      3664.7948    
      3000   303.27517     -28009.241      9453.2921      3665.1602    
      3100   332.21898     -28041.832     -2489.1337      3665.5256    
      3200   294.62201     -28039.123     -10130.55       3665.891     
      3300   294.22137     -28040.451      5667.9102      3666.2565    
      3400   289.7157      -28026.882     -14224.719      3666.6219    
      3500   309.12663     -28023.288     -5398.8931      3666.9873    
      3600   305.02902     -28013.929     -5727.8684      3667.3527    
      3700   309.77654     -28016.358      12088.109      3667.7181    
      3800   279.56416     -27999.355      3857.2864      3668.0836    
      3900   310.12187     -28031.56      -8911.7481      3668.449     
      4000   292.41903     -28034.816     -7510.0835      3668.8144    
      4100   274.01615     -28042.44      -9305.6048      3669.1798    
      4200   283.27419     -28041.623     -19684.305      3669.5452    
      4300   304.82134     -28042.324     -1440.708       3669.9107    
      4400   279.36679     -28011.42      -13965.448      3670.2761    
      4500   294.85789     -28012.115     -10643.251      3670.6415    
      4600   297.50098     -27996.276      1728.8541      3671.0069    
      4700   322.12877     -27999.436     -13192.708      3671.3723    
      4800   300.00593     -27998.091     -24972.054      3671.7378    
      4900   325.20797     -28029.486     -5108.0181      3672.1032    
      5000   297.11983     -28014.891     -18896.415      3672.4686    
      5100   301.50548     -28026.979     -11413.928      3672.834     
      5200   299.88292     -28047.54      -3235.8888      3673.1994    
      5300   277.92107     -28037.449     -11223.262      3673.5649    
      5400   282.18188     -28011.703     -5770.6225      3673.9303    
      5500   311.76343     -28017.065     -4012.2115      3674.2957    
      5600   301.12948     -28023.276      4580.8793      3674.6611    
      5700   291.68294     -28032.266     -26437.071      3675.0265    
      5800   269.99943     -28019.093     -7479.9664      3675.392     
      5900   313.8445      -28032.524     -12070.686      3675.7574    
      6000   321.00894     -28019.166     -1244.5201      3676.1228    
      6100   297.93173     -28012.148     -16251.211      3676.4882    
      6200   312.36901     -28042.567     -9338.715       3676.8536    
      6300   290.87373     -28032.843     -10426.356      3677.2191    
      6400   283.32418     -28018.719     -15033.658      3677.5845    
      6500   289.39494     -28020.873     -5849.9408      3677.9499    
      6600   272.45671     -28020.631     -17041.36       3678.3153    
      6700   283.38602     -28049.462     -16926.662      3678.6807    
      6800   294.19318     -28061.72      -2133.1858      3679.0462    
      6900   292.75279     -28033.252     -2667.9604      3679.4116    
      7000   306.85233     -28028.813     -10331.448      3679.777     
      7100   313.59236     -28040.088     -8815.1716      3680.1424    
      7200   287.05179     -28033.303     -11653.533      3680.5078    
      7300   294.99542     -28053.85      -19334.097      3680.8733    
      7400   281.24672     -28061.109     -17031.803      3681.2387    
      7500   272.20328     -28062.232      887.26832      3681.6041    
      7600   312.29045     -28066.652     -7403.2734      3681.9695    
      7700   291.99627     -28036.125     -12120.954      3682.3349    
      7800   276.87145     -28023.11      -5317.5055      3682.7003    
      7900   317.37876     -28043.352     -8289.3102      3683.0658    
      8000   313.5439      -28026.573     -6569.8034      3683.4312    
      8100   335.84384     -28032.567      2796.1595      3683.7966    
      8200   307.16435     -28037.226      3875.1928      3684.162     
      8300   276.3615      -28031.461     -12390.884      3684.5274    
      8400   274.9148      -28029.433      6163.4321      3684.8929    
      8500   315.69085     -28046.68      -4836.173       3685.2583    
      8600   331.55221     -28037.214     -3768.5698      3685.6237    
      8700   306.42566     -28028.345     -14537.14       3685.9891    
      8800   285.05199     -28042.819     -10967.899      3686.3545    
      8900   276.01782     -28037.584      4912.053       3686.72      
      9000   313.18296     -28054.73      -12683.076      3687.0854    
      9100   307.77871     -28041.929      2201.6831      3687.4508    
      9200   293.43462     -28054.829     -5497.2206      3687.8162    
      9300   286.08601     -28065.127     -2501.5611      3688.1816    
      9400   281.84292     -28057.922     -5607.9471      3688.5471    
      9500   308.39197     -28071.02      -7661.2331      3688.9125    
      9600   270.96817     -28035.779     -7651.244       3689.2779    
      9700   293.00565     -28049.624     -4644.9915      3689.6433    
      9800   273.72133     -28029.336     -1293.778       3690.0087    
      9900   311.50587     -28053.518     -4485.249       3690.3742    
     10000   282.08152     -28049.747     -5432.5158      3690.7396    
Loop time of 313.285 on 8 procs for 10000 steps with 274 atoms

Performance: 1.379 ns/day, 17.405 hours/ns, 31.920 timesteps/s, 8.746 katom-step/s
98.6% CPU use with 8 MPI tasks x 1 OpenMP threads

MPI task timing breakdown:
Section |  min time  |  avg time  |  max time  |%varavg| %total
---------------------------------------------------------------
Pair    | 213.94     | 252.21     | 270.44     | 117.3 | 80.50
Bond    | 0.026994   | 0.030384   | 0.034446   |   1.2 |  0.01
Neigh   | 2.6112     | 3.2156     | 3.4464     |  14.8 |  1.03
Comm    | 9.0623     | 27.268     | 65.552     | 356.8 |  8.70
Output  | 0.029269   | 0.067896   | 0.15784    |  19.4 |  0.02
Modify  | 29.989     | 30.265     | 30.895     |   5.1 |  9.66
Other   |            | 0.232      |            |       |  0.07

Nlocal:          34.25 ave          44 max          26 min
Histogram: 1 0 2 1 1 0 1 1 0 1
Nghost:           2605 ave        2644 max        2546 min
Histogram: 1 0 0 0 2 1 0 2 0 2
Neighs:        17704.8 ave       22638 max       13494 min
Histogram: 1 0 2 1 1 1 0 1 0 1

Total # of neighbors = 141638
Ave neighs/atom = 516.92701
Ave special neighs/atom = 0
Neighbor list builds = 159
Dangerous builds = 0
  using 1 OpenMP thread(s) per MPI task
Reading restart file ...
  restart file = 2 Aug 2023, LAMMPS = 2 Aug 2023
  restoring atom style full from restart
  triclinic box = (0 0 0) to (15.4861 14.0699 16.771) with tilt (-7.3915 0.9919 1.0308)
WARNING: Triclinic box skew is large. LAMMPS will run inefficiently. (src/domain.cpp:220)
  2 by 2 by 2 MPI processor grid
  pair style reaxff stores no restart info
  274 atoms
Finding 1-2 1-3 1-4 neighbors ...
  special bond factors lj:    0        0        0       
  special bond factors coul:  0        0        0       
     0 = max # of 1-2 neighbors
     0 = max # of 1-3 neighbors
     0 = max # of 1-4 neighbors
     1 = max # of special neighbors
  special bonds CPU = 0.000 seconds
  read_restart CPU = 0.003 seconds
*****debug*****
xy = -7.3914999999999997371, deltaxy = 0.073915
xz = 0.99190000000000000391, deltaxz = -0.009919
yz = 1.0307999999999999385, deltayz = -0.010308
*****
*****Negative-deform 2 starts.*****
WARNING: Van der Waals parameters for element SI indicate inner wall+shielding, but earlier atoms indicate a different van der Waals method. This may cause division-by-zero errors. Keeping van der Waals setting for earlier atoms. (src/REAXFF/reaxff_ffield.cpp:251)
Neighbor list info ...
  update: every = 10 steps, delay = 0 steps, check = yes
  max neighbors/atom: 2000, page size: 100000
  master list distance cutoff = 12
  ghost atom cutoff = 12
  binsize = 6, bins = 4 3 3
  2 neighbor lists, perpetual/occasional/extra = 2 0 0
  (1) pair reaxff, perpetual
      attributes: half, newton off, ghost
      pair build: half/bin/newtoff/ghost
      stencil: full/ghost/bin/3d
      bin: standard
  (2) fix qeq/reaxff, perpetual, copy from (1)
      attributes: half, newton off
      pair build: copy
      stencil: none
      bin: none
Setting up Verlet run ...
  Unit style    : real
  Current step  : 0
  Time step     : 0.5
Per MPI rank memory allocation (min/avg/max) = 101.4 | 103 | 104.6 Mbytes
   Step          Temp          PotEng         Press          Volume    
         0   300           -28002.895     -1094.8363      3654.1976    
       100   281.46942     -27975.165     -7783.6747      3653.8322    
       200   301.08745     -27963.639     -2393.6574      3653.4668    
       300   319.03936     -27974.234     -5547.1155      3653.1013    
       400   292.12093     -27960.983     -10164.068      3652.7359    
       500   313.30493     -27984.559     -15576.82       3652.3705    
       600   285.37119     -27996.401     -891.91388      3652.0051    
       700   286.46337     -28011.35       447.04229      3651.6397    
       800   296.02332     -28011.699     -9551.7504      3651.2743    
       900   279.58549     -27978.859     -10645.191      3650.9088    
      1000   316.24153     -28005.159     -1104.6241      3650.5434    
      1100   305.65259     -28017.39      -619.56324      3650.178     
      1200   283.88127     -28025.365      1738.9734      3649.8126    
      1300   287.40322     -28024.881     -2706.8062      3649.4472    
      1400   280.86909     -28004.47       6337.6561      3649.0817    
      1500   279.84516     -27988.802     -6550.8117      3648.7163    
      1600   308.44819     -28000.877      1350.5214      3648.3509    
      1700   302.48676     -27993.986     -5268.412       3647.9855    
      1800   328.84749     -28024.139     -4264.4926      3647.6201    
      1900   301.87771     -28014.279     -2936.7169      3647.2546    
      2000   289.81393     -28006.993     -2390.7008      3646.8892    
      2100   297.13039     -28014.031     -6119.4058      3646.5238    
      2200   290.60663     -27999.021     -4825.7986      3646.1584    
      2300   308.24549     -27992.139     -11626.096      3645.793     
      2400   314.85717     -27998.098     -9206.0384      3645.4275    
      2500   295.2339      -28017.023     -210.20908      3645.0621    
      2600   307.74425     -28029.967      367.63844      3644.6967    
      2700   274.08904     -28000.172     -8415.5774      3644.3313    
      2800   315.25477     -28008.602     -11029.967      3643.9659    
      2900   319.0795      -28002.12       4263.2719      3643.6004    
      3000   302.67667     -27996.853     -1183.3381      3643.235     
      3100   309.6592      -28010.812     -4736.2734      3642.8696    
      3200   299.10557     -28006.506     -4131.3927      3642.5042    
      3300   279.73853     -27994.157      10313.651      3642.1388    
      3400   310.09069     -28025.11      -8185.4289      3641.7733    
      3500   285.02965     -28019.702     -2638.9893      3641.4079    
      3600   276.34444     -28013.24      -9186.8956      3641.0425    
      3700   305.08421     -28008.808     -10876.502      3640.6771    
      3800   325.07233     -28015.841      8114.8093      3640.3117    
      3900   305.40479     -28014.466     -3118.9562      3639.9462    
      4000   292.54755     -28017.777      2385.7552      3639.5808    
      4100   288.02021     -28010.087     -2007.1256      3639.2154    
      4200   338.42989     -28012.672     -539.13826      3638.85      
      4300   326.3031      -27999.332     -5103.4246      3638.4846    
      4400   312.79421     -28016.182     -4248.063       3638.1191    
      4500   296.94283     -28018.239     -1659.4764      3637.7537    
      4600   299.93495     -28024.888     -5741.0157      3637.3883    
      4700   293.99289     -28019.618     -13964.647      3637.0229    
      4800   307.22179     -28015.062     -110.57879      3636.6575    
      4900   314.65466     -27997.981     -5020.7278      3636.292     
      5000   303.13693     -27995.096     -3631.3272      3635.9266    
      5100   298.76845     -28014.017     -7209.9184      3635.5612    
      5200   276.35628     -28006.828     -6408.1938      3635.1958    
      5300   286.9059      -28012.854     -1417.9734      3634.8304    
      5400   302.32996     -28017.931     -1539.7485      3634.4649    
      5500   307.07272     -28022.485     -14657.849      3634.0995    
      5600   301.78608     -28018.029      88.580476      3633.7341    
      5700   284.45922     -28000.172     -9209.9157      3633.3687    
      5800   306.02044     -28007.1        3815.3769      3633.0033    
      5900   306.20197     -27996.851     -5625.6071      3632.6378    
      6000   312.7066      -28009.067     -4232.1051      3632.2724    
      6100   301.96055     -28032.357      793.47598      3631.907     
      6200   275.39584     -28014.335     -4120.052       3631.5416    
      6300   305.76034     -28025.219     -5926.9975      3631.1762    
      6400   311.04807     -28023.882      801.93645      3630.8107    
      6500   266.89618     -28015.967     -23042.536      3630.4453    
      6600   275.61392     -28036.672     -7783.6968      3630.0799    
      6700   267.45655     -28016.525      3578.9453      3629.7145    
      6800   291.98287     -28022.271     -11019.65       3629.3491    
      6900   322.27908     -28026.572     -13455.829      3628.9836    
      7000   325.35227     -28037.222     -3254.435       3628.6182    
      7100   306.58139     -28044.078     -7687.1472      3628.2528    
      7200   289.15894     -28042.449     -6378.3563      3627.8874    
      7300   300.34419     -28069.829     -6034.4509      3627.522     
      7400   288.70651     -28073.809      478.15369      3627.1565    
      7500   263.68309     -28060.86      -6652.2204      3626.7911    
      7600   310.23456     -28089.707     -9505.769       3626.4257    
      7700   289.50406     -28066.73      -6138.0397      3626.0603    
      7800   281.26145     -28044.747     -10124.017      3625.6949    
      7900   312.60719     -28054.134     -4011.363       3625.3294    
      8000   335.94101     -28072.823     -8996.803       3624.964     
      8100   280.76842     -28063.761     -8863.1542      3624.5986    
      8200   283.39091     -28072.021     -2377.4888      3624.2332    
      8300   304.06131     -28073.151     -1747.6336      3623.8678    
      8400   299.25994     -28046.648     -9408.165       3623.5023    
      8500   305.56421     -28048.665     -9675.5122      3623.1369    
      8600   314.52352     -28075.2       -6625.9029      3622.7715    
      8700   286.25177     -28062.401     -7378.1664      3622.4061    
      8800   339.76869     -28107.936      7969.4059      3622.0407    
      8900   308.96345     -28105.84      -9813.4237      3621.6752    
      9000   281.57796     -28095.068     -10727.896      3621.3098    
      9100   309.05787     -28120.527     -3514.2832      3620.9444    
      9200   277.10973     -28096.16      -3991.6063      3620.579     
      9300   318.64087     -28103.308     -862.43084      3620.2136    
      9400   351.5179      -28113.719     -7956.7035      3619.8482    
      9500   289.4806      -28080.167     -9425.1083      3619.4827    
      9600   302.24475     -28111.284     -3874.0654      3619.1173    
      9700   313.41783     -28116.19       476.41531      3618.7519    
      9800   299.15719     -28102.977     -2638.0448      3618.3865    
      9900   295.35895     -28105.271     -5917.389       3618.0211    
     10000   280.30031     -28126.474     -9986.6169      3617.6556    
Loop time of 320.759 on 8 procs for 10000 steps with 274 atoms

Performance: 1.347 ns/day, 17.820 hours/ns, 31.176 timesteps/s, 8.542 katom-step/s
98.6% CPU use with 8 MPI tasks x 1 OpenMP threads

MPI task timing breakdown:
Section |  min time  |  avg time  |  max time  |%varavg| %total
---------------------------------------------------------------
Pair    | 249.44     | 262.81     | 280.27     |  67.7 | 81.93
Bond    | 0.028709   | 0.03024    | 0.032418   |   0.8 |  0.01
Neigh   | 3.8842     | 4.2562     | 4.496      |   9.7 |  1.33
Comm    | 4.6654     | 22.286     | 35.601     | 233.1 |  6.95
Output  | 0.02922    | 0.068635   | 0.16057    |  19.6 |  0.02
Modify  | 30.793     | 31.076     | 31.468     |   3.7 |  9.69
Other   |            | 0.2321     |            |       |  0.07

Nlocal:          34.25 ave          42 max          26 min
Histogram: 2 0 0 0 1 2 1 0 0 2
Nghost:        2655.38 ave        2678 max        2613 min
Histogram: 1 0 0 0 1 1 1 1 0 3
Neighs:        18086.9 ave       21949 max       13773 min
Histogram: 2 0 0 0 1 2 1 0 0 2

Total # of neighbors = 144695
Ave neighs/atom = 528.08394
Ave special neighs/atom = 0
Neighbor list builds = 191
Dangerous builds = 0
  using 1 OpenMP thread(s) per MPI task
Reading restart file ...
  restart file = 2 Aug 2023, LAMMPS = 2 Aug 2023
  restoring atom style full from restart
  triclinic box = (0 0 0) to (15.4861 14.0699 16.771) with tilt (-7.3915 0.9919 1.0308)
WARNING: Triclinic box skew is large. LAMMPS will run inefficiently. (src/domain.cpp:220)
  2 by 2 by 2 MPI processor grid
  pair style reaxff stores no restart info
  274 atoms
Finding 1-2 1-3 1-4 neighbors ...
  special bond factors lj:    0        0        0       
  special bond factors coul:  0        0        0       
     0 = max # of 1-2 neighbors
     0 = max # of 1-3 neighbors
     0 = max # of 1-4 neighbors
     1 = max # of special neighbors
  special bonds CPU = 0.000 seconds
  read_restart CPU = 0.003 seconds
*****Positive-deform 2 starts.*****
WARNING: Van der Waals parameters for element SI indicate inner wall+shielding, but earlier atoms indicate a different van der Waals method. This may cause division-by-zero errors. Keeping van der Waals setting for earlier atoms. (src/REAXFF/reaxff_ffield.cpp:251)
Neighbor list info ...
  update: every = 10 steps, delay = 0 steps, check = yes
  max neighbors/atom: 2000, page size: 100000
  master list distance cutoff = 12
  ghost atom cutoff = 12
  binsize = 6, bins = 4 3 3
  2 neighbor lists, perpetual/occasional/extra = 2 0 0
  (1) pair reaxff, perpetual
      attributes: half, newton off, ghost
      pair build: half/bin/newtoff/ghost
      stencil: full/ghost/bin/3d
      bin: standard
  (2) fix qeq/reaxff, perpetual, copy from (1)
      attributes: half, newton off
      pair build: copy
      stencil: none
      bin: none
Setting up Verlet run ...
  Unit style    : real
  Current step  : 0
  Time step     : 0.5
Per MPI rank memory allocation (min/avg/max) = 101.4 | 103 | 104.7 Mbytes
   Step          Temp          PotEng         Press          Volume    
         0   300           -28002.895     -1094.8363      3654.1976    
       100   281.47358     -27975.177     -7781.6144      3654.563     
       200   300.75626     -27963.739     -2569.4974      3654.9284    
       300   319.85024     -27975.051     -6452.5141      3655.2939    
       400   293.13302     -27961.944     -9788.3897      3655.6593    
       500   311.59452     -27983.913     -16101.53       3656.0247    
       600   296.10729     -28005.636      1672.3704      3656.3901    
       700   285.32803     -28011          1267.2685      3656.7555    
       800   302.96752     -28020.125     -11741.548      3657.121     
       900   272.51081     -27975.512     -12147.813      3657.4864    
      1000   312.09355     -27998.039     -10182.928      3657.8518    
      1100   303.73099     -28008.459      8459.0804      3658.2172    
      1200   288.94096     -28026.417      6074.5332      3658.5826    
      1300   293.31829     -28027.957     -12648.247      3658.9481    
      1400   277.74611     -27998.445     -5121.8331      3659.3135    
      1500   287.25307     -27985.352     -9769.0541      3659.6789    
      1600   304.19943     -27994.33      -3397.66        3660.0443    
      1700   301.15577     -27996.619     -5718.7245      3660.4097    
      1800   321.64931     -28022.91      -6931.2784      3660.7752    
      1900   300.32084     -28017.38      -9758.9874      3661.1406    
      2000   289.58403     -28028.02      -3256.4756      3661.506     
      2100   273.6079      -28034.122      3033.2772      3661.8714    
      2200   282.24054     -28024.464     -6726.9106      3662.2368    
      2300   289.57616     -28000.175     -10723.334      3662.6023    
      2400   313.49793     -28005.551      7040.9682      3662.9677    
      2500   304.53573     -27996.992     -7776.6486      3663.3331    
      2600   308.77121     -28011.03      -7022.0213      3663.6985    
      2700   285.82927     -28014.078     -16570.534      3664.0639    
      2800   309.72009     -28037.696     -4661.2162      3664.4294    
      2900   296.70834     -27998.438      9652.6378      3664.7948    
      3000   310.19934     -27994.087     -13170.653      3665.1602    
      3100   318.27198     -28014.346     -2453.9167      3665.5256    
      3200   296.60888     -28017.64       4173.9859      3665.891     
      3300   290.91436     -28020.965      10658.782      3666.2565    
      3400   304.52885     -28019.135     -947.33625      3666.6219    
      3500   336.12897     -28015.167     -9951.5506      3666.9873    
      3600   327.63477     -28011.105     -12234.247      3667.3527    
      3700   284.67192     -27996.639     -13658.473      3667.7181    
      3800   305.51223     -28017.632      3845.8134      3668.0836    
      3900   306.13238     -28028.799     -7449.2188      3668.449     
      4000   287.30684     -28031.027      13870.981      3668.8144    
      4100   293.30585     -28030.673     -7564.5989      3669.1798    
      4200   312.45679     -28011.496      3193.5716      3669.5452    
      4300   343.0763      -28050.106      4691.8658      3669.9107    
      4400   310.14664     -28054.642     -4802.5979      3670.2761    
      4500   274.70553     -28044.586     -4900.384       3670.6415    
      4600   284.59845     -28063.984     -13980.167      3671.0069    
      4700   306.70172     -28087.509     -13988.364      3671.3723    
      4800   278.46967     -28057.703     -2323.1068      3671.7378    
      4900   340.87199     -28083.955     -11115.578      3672.1032    
      5000   315.33476     -28054.265      8017.7755      3672.4686    
      5100   312.1617      -28067.703     -7201.4074      3672.834     
      5200   273.14788     -28064.186     -11892.871      3673.1994    
      5300   299.60242     -28093.05      -1577.5378      3673.5649    
      5400   293.26351     -28078.295     -5345.6812      3673.9303    
      5500   315.27351     -28084.175     -4495.5476      3674.2957    
      5600   305.00808     -28077.323     -2991.2323      3674.6611    
      5700   271.94177     -28071.313     -7301.7845      3675.0265    
      5800   273.63255     -28094.01       3826.8249      3675.392     
      5900   282.87156     -28091.179      2814.3893      3675.7574    
      6000   311.74623     -28080.286     -6732.9617      3676.1228    
      6100   307.67444     -28071.994      2797.9792      3676.4882    
      6200   288.4228      -28068.45      -6901.9119      3676.8536    
      6300   282.64339     -28084.235     -12781.987      3677.2191    
      6400   285.7008      -28090.497     -11008.516      3677.5845    
      6500   331.83968     -28099.412      594.46862      3677.9499    
      6600   312.77556     -28076.83      -11225.719      3678.3153    
      6700   292.29417     -28078.933     -10325.564      3678.6807    
      6800   316.68862     -28113.963     -21717.013      3679.0462    
      6900   286.35175     -28097.864     -6147.2892      3679.4116    
      7000   304.60151     -28110.778     -2096.9353      3679.777     
      7100   334.77312     -28107.161     -27441.687      3680.1424    
      7200   294.23602     -28063.284     -5249.7968      3680.5078    
      7300   318.66394     -28106.738      3700.1396      3680.8733    
      7400   319.07421     -28126.73       3022.6989      3681.2387    
      7500   297.88335     -28120.125     -8158.7892      3681.6041    
      7600   283.1021      -28107.604     -8406.6922      3681.9695    
      7700   296.90317     -28090.518     -3208.0685      3682.3349    
      7800   312.66483     -28101.805     -3540.2923      3682.7003    
      7900   300.05138     -28098.309     -7952.1222      3683.0658    
      8000   319.59012     -28119.769     -4038.798       3683.4312    
      8100   305.27058     -28113.34      -10189.494      3683.7966    
      8200   302.72263     -28107.885     -12363.998      3684.162     
      8300   320.60314     -28106.45      -5683.4021      3684.5274    
      8400   293.77287     -28077.251      2618.7159      3684.8929    
      8500   315.35565     -28105.448     -3943.2015      3685.2583    
      8600   311.2063      -28127.944     -5378.5475      3685.6237    
      8700   280.57394     -28108.082     -12792.853      3685.9891    
      8800   295.31329     -28112.846     -10515.701      3686.3545    
      8900   308.28854     -28105.018     -11547.375      3686.72      
      9000   334.31782     -28097.313      5806.4934      3687.0854    
      9100   316.12322     -28091.905     -6207.391       3687.4508    
      9200   291.46056     -28093.555      1314.3399      3687.8162    
      9300   292.82631     -28095.579     -1835.3997      3688.1816    
      9400   294.19778     -28096.606     -14970.556      3688.5471    
      9500   298.18324     -28102.732     -12639.224      3688.9125    
      9600   311.71274     -28114.352     -16072.72       3689.2779    
      9700   299.32408     -28117.023      7464.8752      3689.6433    
      9800   276.89884     -28106.861     -6531.4496      3690.0087    
      9900   288.57077     -28094.383     -328.08911      3690.3742    
     10000   305.30399     -28086.046     -9877.4547      3690.7396    
Loop time of 316.409 on 8 procs for 10000 steps with 274 atoms

Performance: 1.365 ns/day, 17.578 hours/ns, 31.605 timesteps/s, 8.660 katom-step/s
98.6% CPU use with 8 MPI tasks x 1 OpenMP threads

MPI task timing breakdown:
Section |  min time  |  avg time  |  max time  |%varavg| %total
---------------------------------------------------------------
Pair    | 208.2      | 247.31     | 274.33     | 135.3 | 78.16
Bond    | 0.027485   | 0.029696   | 0.031788   |   0.8 |  0.01
Neigh   | 3.0523     | 3.673      | 3.9197     |  16.0 |  1.16
Comm    | 7.0014     | 34.155     | 73.306     | 364.4 | 10.79
Output  | 0.030088   | 0.071009   | 0.16526    |  19.9 |  0.02
Modify  | 30.692     | 30.939     | 31.578     |   5.5 |  9.78
Other   |            | 0.2263     |            |       |  0.07

Nlocal:          34.25 ave          45 max          28 min
Histogram: 1 2 1 1 1 0 1 0 0 1
Nghost:           2616 ave        2644 max        2578 min
Histogram: 1 0 1 1 0 1 1 0 1 2
Neighs:        17748.4 ave       23024 max       14877 min
Histogram: 2 1 1 1 1 0 1 0 0 1

Total # of neighbors = 141987
Ave neighs/atom = 518.20073
Ave special neighs/atom = 0
Neighbor list builds = 173
Dangerous builds = 0
  using 1 OpenMP thread(s) per MPI task
Reading restart file ...
  restart file = 2 Aug 2023, LAMMPS = 2 Aug 2023
  restoring atom style full from restart
  triclinic box = (0 0 0) to (15.4861 14.0699 16.771) with tilt (-7.3915 0.9919 1.0308)
WARNING: Triclinic box skew is large. LAMMPS will run inefficiently. (src/domain.cpp:220)
  2 by 2 by 2 MPI processor grid
  pair style reaxff stores no restart info
  274 atoms
Finding 1-2 1-3 1-4 neighbors ...
  special bond factors lj:    0        0        0       
  special bond factors coul:  0        0        0       
     0 = max # of 1-2 neighbors
     0 = max # of 1-3 neighbors
     0 = max # of 1-4 neighbors
     1 = max # of special neighbors
  special bonds CPU = 0.000 seconds
  read_restart CPU = 0.003 seconds
*****debug*****
xy = -7.3914999999999997371, deltaxy = 0.073915
xz = 0.99190000000000000391, deltaxz = -0.009919
yz = 1.0307999999999999385, deltayz = -0.010308
*****
*****Negative-deform 3 starts.*****
WARNING: Van der Waals parameters for element SI indicate inner wall+shielding, but earlier atoms indicate a different van der Waals method. This may cause division-by-zero errors. Keeping van der Waals setting for earlier atoms. (src/REAXFF/reaxff_ffield.cpp:251)
Neighbor list info ...
  update: every = 10 steps, delay = 0 steps, check = yes
  max neighbors/atom: 2000, page size: 100000
  master list distance cutoff = 12
  ghost atom cutoff = 12
  binsize = 6, bins = 4 3 3
  2 neighbor lists, perpetual/occasional/extra = 2 0 0
  (1) pair reaxff, perpetual
      attributes: half, newton off, ghost
      pair build: half/bin/newtoff/ghost
      stencil: full/ghost/bin/3d
      bin: standard
  (2) fix qeq/reaxff, perpetual, copy from (1)
      attributes: half, newton off
      pair build: copy
      stencil: none
      bin: none
Setting up Verlet run ...
  Unit style    : real
  Current step  : 0
  Time step     : 0.5
Per MPI rank memory allocation (min/avg/max) = 101.4 | 103 | 104.6 Mbytes
   Step          Temp          PotEng         Press          Volume    
         0   300           -28002.895     -1094.8363      3654.1976    
       100   281.47467     -27975.17      -7783.5767      3653.8322    
       200   300.99448     -27963.593     -2349.2131      3653.4668    
       300   319.75516     -27974.843     -5702.2617      3653.1013    
       400   292.10507     -27961.066     -9117.009       3652.7359    
       500   309.74026     -27982.236     -16770.031      3652.3705    
       600   287.49434     -27998.974     -596.2684       3652.0051    
       700   294.98594     -28017.433     -2215.964       3651.6397    
       800   295.82131     -28011.66      -10951.296      3651.2743    
       900   275.91611     -27975.762     -12904.064      3650.9088    
      1000   311.2878      -27999.491     -2444.7314      3650.5434    
      1100   310.83947     -28013.091      5023.3644      3650.178     
      1200   276.87328     -28014.332      806.15636      3649.8126    
      1300   289.91498     -28021.06      -535.01946      3649.4472    
      1400   299.88948     -28005.121      4709.4722      3649.0817    
      1500   288.54083     -27986.579     -10450.813      3648.7163    
      1600   302.27833     -27998.851      3132.7222      3648.3509    
      1700   306.43588     -28011.251     -1983.2164      3647.9855    
      1800   293.69663     -28029.572     -2963.4664      3647.6201    
      1900   276.52963     -28027.504     -12504.704      3647.2546    
      2000   285.87032     -28025.766     -4152.3771      3646.8892    
      2100   286.63666     -28010.783     -3129.5357      3646.5238    
      2200   302.6548      -28004.327     -7087.4828      3646.1584    
      2300   320.75159     -28008.147     -5089.3934      3645.793     
      2400   301.07143     -28006.443     -8301.8533      3645.4275    
      2500   288.31622     -28012.532     -6606.6061      3645.0621    
      2600   279.68013     -28031.627     -8057.0594      3644.6967    
      2700   280.43598     -28048.654     -6209.0399      3644.3313    
      2800   275.27528     -28020.634     -6538.4584      3643.9659    
      2900   295.39489     -28020.086     -6316.7413      3643.6004    
      3000   296.25885     -28001.744     -2465.2746      3643.235     
      3100   312.8501      -28002.727     -8291.5818      3642.8696    
      3200   312.48482     -28014.362      5015.9067      3642.5042    
      3300   296.82524     -28027.281     -2765.5713      3642.1388    
      3400   270.35172     -28006.259     -12215.234      3641.7733    
      3500   293.94683     -28012.286     -3613.1368      3641.4079    
      3600   322.05215     -28025.556     -15467.674      3641.0425    
      3700   290.18891     -27995.408     -1903.0079      3640.6771    
      3800   323.44901     -28001.049     -3007.2346      3640.3117    
      3900   325.85075     -27988.104     -6655.5246      3639.9462    
      4000   326.72662     -28020.15      -13062.216      3639.5808    
      4100   302.0822      -28017.295      2021.7562      3639.2154    
      4200   294.88507     -28012.103     -10638.463      3638.85      
      4300   305.74093     -28011.412     -14660.556      3638.4846    
      4400   314.97048     -28007.845     -8995.4797      3638.1191    
      4500   310.24017     -27986.785     -7096.8044      3637.7537    
      4600   334.48203     -28011.773     -8397.5471      3637.3883    
      4700   313.0993      -28024.468     -10647.808      3637.0229    
      4800   317.00507     -28036.624     -6538.1593      3636.6575    
      4900   288.19807     -28010.986     -9750.7102      3636.292     
      5000   308.16636     -28003.513     -3204.4941      3635.9266    
      5100   313.67685     -27992.939     -3101.7495      3635.5612    
      5200   300.72635     -27995.327     -2282.793       3635.1958    
      5300   286.97503     -28017.537     -8983.8768      3634.8304    
      5400   291.90565     -28025.467     -20448.078      3634.4649    
      5500   297.95179     -28012.288      392.08873      3634.0995    
      5600   317.54516     -28010.88      -1661.823       3633.7341    
      5700   297.58627     -27994.619      994.1766       3633.3687    
      5800   298.17111     -28000.662      1625.4228      3633.0033    
      5900   264.69451     -28002.173     -5597.5971      3632.6378    
      6000   262.97125     -28014.593     -15104.766      3632.2724    
      6100   317.24487     -28041.137     -9710.5986      3631.907     
      6200   306.15038     -28020.335     -142.41898      3631.5416    
      6300   306.16924     -28012.719      3580.1086      3631.1762    
      6400   278.60714     -27988.63      -7559.6704      3630.8107    
      6500   326.50542     -28028.971     -5350.3262      3630.4453    
      6600   295.49893     -28033.09      -18706.811      3630.0799    
      6700   287.4117      -28031.484     -6228.9629      3629.7145    
      6800   307.22025     -28029.977     -857.66762      3629.3491    
      6900   321.94536     -28026.466     -5955.1656      3628.9836    
      7000   293.3097      -28009.515     -1720.2652      3628.6182    
      7100   272.1791      -28013.142      4575.5402      3628.2528    
      7200   271.1622      -28028.067     -3334.9504      3627.8874    
      7300   285.05254     -28022.049     -21720.971      3627.522     
      7400   339.87154     -28043.131     -3290.1053      3627.1565    
      7500   291.39903     -28005.69       94.343949      3626.7911    
      7600   303.42908     -28021.289     -4101.3116      3626.4257    
      7700   301.28389     -28039.111      8355.9848      3626.0603    
      7800   275.15563     -28038.359     -3483.849       3625.6949    
      7900   299.18292     -28045.339     -944.60879      3625.3294    
      8000   286.5916      -28015.966     -4337.928       3624.964     
      8100   287.18784     -28007.193     -16924.313      3624.5986    
      8200   316.4679      -28021.115     -6209.2033      3624.2332    
      8300   327.45687     -28025.007      342.88449      3623.8678    
      8400   309.36501     -28028.958     -6773.6007      3623.5023    
      8500   304.60248     -28042.008      1111.6041      3623.1369    
      8600   304.3137      -28038.842     -1335.6345      3622.7715    
      8700   285.77473     -28033.423      2196.3522      3622.4061    
      8800   293.9509      -28061.921      13780.265      3622.0407    
      8900   289.42976     -28067.358     -13315.873      3621.6752    
      9000   301.57752     -28052.2        9430.3787      3621.3098    
      9100   333.90808     -28063.565      288.5602       3620.9444    
      9200   328.14741     -28066.946     -4384.2109      3620.579     
      9300   309.56726     -28074.917      10153.201      3620.2136    
      9400   294.08997     -28079.095      2809.0538      3619.8482    
      9500   312.08613     -28098.515     -375.10312      3619.4827    
      9600   280.783       -28080.511     -159.64772      3619.1173    
      9700   320.30383     -28099.11       3063.0866      3618.7519    
      9800   311.32851     -28063.794      1321.6433      3618.3865    
      9900   301.36805     -28061.54      -9033.784       3618.0211    
     10000   316.5454      -28092.046     -19447.234      3617.6556    
Loop time of 318.882 on 8 procs for 10000 steps with 274 atoms

Performance: 1.355 ns/day, 17.716 hours/ns, 31.360 timesteps/s, 8.593 katom-step/s
98.6% CPU use with 8 MPI tasks x 1 OpenMP threads

MPI task timing breakdown:
Section |  min time  |  avg time  |  max time  |%varavg| %total
---------------------------------------------------------------
Pair    | 205.55     | 254.11     | 279.18     | 143.4 | 79.69
Bond    | 0.027991   | 0.029596   | 0.031835   |   0.7 |  0.01
Neigh   | 3.2382     | 3.9561     | 4.2285     |  16.7 |  1.24
Comm    | 4.597      | 29.64      | 78.248     | 420.5 |  9.30
Output  | 0.0292     | 0.069134   | 0.16168    |  19.7 |  0.02
Modify  | 30.552     | 30.853     | 31.577     |   6.3 |  9.68
Other   |            | 0.2221     |            |       |  0.07

Nlocal:          34.25 ave          40 max          27 min
Histogram: 1 0 0 1 0 3 1 0 1 1
Nghost:         2628.5 ave        2652 max        2589 min
Histogram: 1 0 1 0 0 1 1 1 0 3
Neighs:        18110.1 ave       21030 max       14288 min
Histogram: 1 0 0 0 1 3 1 0 1 1

Total # of neighbors = 144881
Ave neighs/atom = 528.76277
Ave special neighs/atom = 0
Neighbor list builds = 182
Dangerous builds = 0
  using 1 OpenMP thread(s) per MPI task
Reading restart file ...
  restart file = 2 Aug 2023, LAMMPS = 2 Aug 2023
  restoring atom style full from restart
  triclinic box = (0 0 0) to (15.4861 14.0699 16.771) with tilt (-7.3915 0.9919 1.0308)
WARNING: Triclinic box skew is large. LAMMPS will run inefficiently. (src/domain.cpp:220)
  2 by 2 by 2 MPI processor grid
  pair style reaxff stores no restart info
  274 atoms
Finding 1-2 1-3 1-4 neighbors ...
  special bond factors lj:    0        0        0       
  special bond factors coul:  0        0        0       
     0 = max # of 1-2 neighbors
     0 = max # of 1-3 neighbors
     0 = max # of 1-4 neighbors
     1 = max # of special neighbors
  special bonds CPU = 0.000 seconds
  read_restart CPU = 0.003 seconds
*****Positive-deform 3 starts.*****
WARNING: Van der Waals parameters for element SI indicate inner wall+shielding, but earlier atoms indicate a different van der Waals method. This may cause division-by-zero errors. Keeping van der Waals setting for earlier atoms. (src/REAXFF/reaxff_ffield.cpp:251)
Neighbor list info ...
  update: every = 10 steps, delay = 0 steps, check = yes
  max neighbors/atom: 2000, page size: 100000
  master list distance cutoff = 12
  ghost atom cutoff = 12
  binsize = 6, bins = 4 3 3
  2 neighbor lists, perpetual/occasional/extra = 2 0 0
  (1) pair reaxff, perpetual
      attributes: half, newton off, ghost
      pair build: half/bin/newtoff/ghost
      stencil: full/ghost/bin/3d
      bin: standard
  (2) fix qeq/reaxff, perpetual, copy from (1)
      attributes: half, newton off
      pair build: copy
      stencil: none
      bin: none
Setting up Verlet run ...
  Unit style    : real
  Current step  : 0
  Time step     : 0.5
Per MPI rank memory allocation (min/avg/max) = 101.4 | 103 | 104.6 Mbytes
   Step          Temp          PotEng         Press          Volume    
         0   300           -28002.895     -1094.8363      3654.1976    
       100   281.4706      -27975.168     -7780.215       3654.563     
       200   300.83422     -27963.711     -2597.2149      3654.9284    
       300   319.32487     -27974.598     -6197.0454      3655.2939    
       400   292.59551     -27961.444     -9285.415       3655.6593    
       500   313.06539     -27984.264     -16154.119      3656.0247    
       600   285.36077     -27996.647      44.376759      3656.3901    
       700   291.72472     -28014.708     -403.51861      3656.7555    
       800   294.66792     -28010.106     -11620.285      3657.121     
       900   279.43064     -27977.963     -9136.8191      3657.4864    
      1000   306.52814     -27998.78      -2439.9686      3657.8518    
      1100   299.36374     -28020.324      5051.936       3658.2172    
      1200   289.83802     -28026.725      3732.2386      3658.5826    
      1300   291.12915     -28022.993     -4655.8347      3658.9481    
      1400   284.69403     -28002.158      6931.6579      3659.3135    
      1500   287.29889     -27987.46      -10355.076      3659.6789    
      1600   320.79792     -28005.915     -6059.1946      3660.0443    
      1700   293.10452     -27995.92      -4844.8062      3660.4097    
      1800   284.64264     -28028.842     -3836.1231      3660.7752    
      1900   272.01639     -28015.489     -2900.131       3661.1406    
      2000   300.43696     -28023.334      1437.9873      3661.506     
      2100   311.97197     -28020.766     -5287.496       3661.8714    
      2200   317.68808     -28011.935     -15233.552      3662.2368    
      2300   306.52711     -27989.27      -884.70753      3662.6023    
      2400   323.21875     -27994.942      3822.574       3662.9677    
      2500   303.82318     -27996.774     -7698.2474      3663.3331    
      2600   303.90826     -28020.02      -65.468057      3663.6985    
      2700   311.12865     -28032.697     -8031.3039      3664.0639    
      2800   283.4914      -28002.587     -6590.2159      3664.4294    
      2900   328.8755      -28009.964      2451.7549      3664.7948    
      3000   322.80341     -28012.191     -6142.3953      3665.1602    
      3100   287.29363     -27996.004     -7706.1951      3665.5256    
      3200   320.18842     -28027.813     -7848.2704      3665.891     
      3300   286.9352      -28008.35      -10440.107      3666.2565    
      3400   285.97594     -27995.968     -16660.806      3666.6219    
      3500   329.33099     -28005.124     -7042.2376      3666.9873    
      3600   311.34513     -27999.896     -10749.592      3667.3527    
      3700   304.80224     -28013.948      5535.0856      3667.7181    
      3800   291.81823     -28011.939     -6908.1659      3668.0836    
      3900   285.50338     -28012.692     -3929.7604      3668.449     
      4000   313.5623      -28038.847     -8935.2852      3668.8144    
      4100   333.79595     -28089.337     -7650.2148      3669.1798    
      4200   315.33062     -28111.678     -3381.4709      3669.5452    
      4300   308.07127     -28138.556     -311.90091      3669.9107    
      4400   299.82525     -28151.178      3278.1934      3670.2761    
      4500   288.25815     -28141.256     -10741.259      3670.6415    
      4600   307.84153     -28152.027     -4614.0237      3671.0069    
      4700   284.83666     -28138.418     -4235.6098      3671.3723    
      4800   322.2798      -28172.268     -7940.2343      3671.7378    
      4900   308.08542     -28156.202     -2602.3377      3672.1032    
      5000   308.48634     -28145.229     -4677.2063      3672.4686    
      5100   332.91831     -28156.716     -1375.3624      3672.834     
      5200   327.55345     -28187.095     -2693.882       3673.1994    
      5300   301.57652     -28191.541     -5486.128       3673.5649    
      5400   291.79469     -28196.048     -5598.3829      3673.9303    
      5500   287.0885      -28194.786     -3805.2971      3674.2957    
      5600   294.5734      -28182.672     -3626.4639      3674.6611    
      5700   316.25982     -28180.063     -6934.7982      3675.0265    
      5800   295.9575      -28173.221     -1826.4574      3675.392     
      5900   279.95713     -28171.39       1287.4237      3675.7574    
      6000   296.8192      -28186.997      7460.6285      3676.1228    
      6100   323.18269     -28204.478     -2440.6315      3676.4882    
      6200   295.79615     -28177.609     -8004.4617      3676.8536    
      6300   290.62687     -28174.458     -5006.6647      3677.2191    
      6400   320.68087     -28219.274     -6410.3651      3677.5845    
      6500   275.66404     -28198.418      3439.5211      3677.9499    
      6600   294.57158     -28203.627      5281.9592      3678.3153    
      6700   310.68676     -28190.292      7291.0828      3678.6807    
      6800   310.59026     -28181.253     -4824.077       3679.0462    
      6900   319.73877     -28196.236     -9825.899       3679.4116    
      7000   306.20007     -28197.49      -6786.6741      3679.777     
      7100   287.24419     -28191.813     -9835.4586      3680.1424    
      7200   288.85886     -28181.111     -8001.3676      3680.5078    
      7300   303.48907     -28165.648      9761.0084      3680.8733    
      7400   315.98406     -28170.248     -5725.4895      3681.2387    
      7500   303.74712     -28178.873     -3710.6708      3681.6041    
      7600   293.93712     -28191.825      1416.656       3681.9695    
      7700   289.952       -28187.66      -5201.2529      3682.3349    
      7800   305.22961     -28198.411     -4041.5274      3682.7003    
      7900   314.13618     -28197.94      -9897.6606      3683.0658    
      8000   324.17238     -28187.01       224.77831      3683.4312    
      8100   316.87827     -28185.195     -6365.6         3683.7966    
      8200   308.83984     -28206.675     -8262.8187      3684.162     
      8300   303.34394     -28207.197     -3553.0752      3684.5274    
      8400   290.59826     -28194.6        7139.7691      3684.8929    
      8500   302.6429      -28180.998      2431.2145      3685.2583    
      8600   341.28524     -28188.805      17292.305      3685.6237    
      8700   308.0175      -28182.646     -2104.6758      3685.9891    
      8800   305.61374     -28204.869     -8374.1025      3686.3545    
      8900   308.81757     -28209.957     -5381.2414      3686.72      
      9000   288.51697     -28190.648     -1675.2857      3687.0854    
      9100   312.18658     -28191.272      2762.5705      3687.4508    
      9200   318.90524     -28182.837     -11979.788      3687.8162    
      9300   302.10779     -28192.936     -1480.6301      3688.1816    
      9400   312.26123     -28224.617     -15073.026      3688.5471    
      9500   269.90172     -28193.789     -3710.511       3688.9125    
      9600   312.51047     -28219.353     -10171.091      3689.2779    
      9700   325.23263     -28214.086     -9396.2364      3689.6433    
      9800   308.81049     -28212.799     -4523.3199      3690.0087    
      9900   291.48874     -28230.536      3807.4042      3690.3742    
     10000   293.80852     -28238.289     -4809.5995      3690.7396    
Loop time of 314.394 on 8 procs for 10000 steps with 274 atoms

Performance: 1.374 ns/day, 17.466 hours/ns, 31.807 timesteps/s, 8.715 katom-step/s
98.6% CPU use with 8 MPI tasks x 1 OpenMP threads

MPI task timing breakdown:
Section |  min time  |  avg time  |  max time  |%varavg| %total
---------------------------------------------------------------
Pair    | 204.94     | 243.77     | 270.02     | 132.7 | 77.54
Bond    | 0.027608   | 0.02979    | 0.031965   |   0.9 |  0.01
Neigh   | 3.2862     | 3.8802     | 4.3266     |  19.0 |  1.23
Comm    | 10.224     | 36.436     | 75.318     | 342.9 | 11.59
Output  | 0.027753   | 0.062905   | 0.14455    |  18.3 |  0.02
Modify  | 29.534     | 29.996     | 30.591     |   7.5 |  9.54
Other   |            | 0.2182     |            |       |  0.07

Nlocal:          34.25 ave          43 max          24 min
Histogram: 1 0 1 1 0 1 1 2 0 1
Nghost:        2590.88 ave        2633 max        2532 min
Histogram: 1 0 0 2 0 0 2 0 2 1
Neighs:        17705.9 ave       21973 max       12738 min
Histogram: 1 1 0 1 0 1 1 2 0 1

Total # of neighbors = 141647
Ave neighs/atom = 516.95985
Ave special neighs/atom = 0
Neighbor list builds = 187
Dangerous builds = 0
  using 1 OpenMP thread(s) per MPI task
Reading restart file ...
  restart file = 2 Aug 2023, LAMMPS = 2 Aug 2023
  restoring atom style full from restart
  triclinic box = (0 0 0) to (15.4861 14.0699 16.771) with tilt (-7.3915 0.9919 1.0308)
WARNING: Triclinic box skew is large. LAMMPS will run inefficiently. (src/domain.cpp:220)
  2 by 2 by 2 MPI processor grid
  pair style reaxff stores no restart info
  274 atoms
Finding 1-2 1-3 1-4 neighbors ...
  special bond factors lj:    0        0        0       
  special bond factors coul:  0        0        0       
     0 = max # of 1-2 neighbors
     0 = max # of 1-3 neighbors
     0 = max # of 1-4 neighbors
     1 = max # of special neighbors
  special bonds CPU = 0.000 seconds
  read_restart CPU = 0.003 seconds
*****debug*****
xy = -7.3914999999999997371, deltaxy = 0.073915
xz = 0.99190000000000000391, deltaxz = -0.009919
yz = 1.0307999999999999385, deltayz = -0.010308
*****
*****Negative-deform 4 starts.*****
WARNING: Van der Waals parameters for element SI indicate inner wall+shielding, but earlier atoms indicate a different van der Waals method. This may cause division-by-zero errors. Keeping van der Waals setting for earlier atoms. (src/REAXFF/reaxff_ffield.cpp:251)
Neighbor list info ...
  update: every = 10 steps, delay = 0 steps, check = yes
  max neighbors/atom: 2000, page size: 100000
  master list distance cutoff = 12
  ghost atom cutoff = 12
  binsize = 6, bins = 4 3 3
  2 neighbor lists, perpetual/occasional/extra = 2 0 0
  (1) pair reaxff, perpetual
      attributes: half, newton off, ghost
      pair build: half/bin/newtoff/ghost
      stencil: full/ghost/bin/3d
      bin: standard
  (2) fix qeq/reaxff, perpetual, copy from (1)
      attributes: half, newton off
      pair build: copy
      stencil: none
      bin: none
Setting up Verlet run ...
  Unit style    : real
  Current step  : 0
  Time step     : 0.5
Per MPI rank memory allocation (min/avg/max) = 101.4 | 103 | 104.6 Mbytes
   Step          Temp          PotEng         Press          Volume    
         0   300           -28002.895     -1094.8363      3654.1976    
       100   281.47153     -27975.173     -7782.6564      3654.1976    
       200   300.86693     -27963.607     -2462.1064      3654.1976    
       300   319.49153     -27974.674     -5849.3708      3654.1976    
       400   292.19259     -27961.123     -8877.2506      3654.1976    
       500   311.82867     -27983.432     -16294.08       3654.1976    
       600   287.38594     -27998.358      210.07416      3654.1976    
       700   297.6704      -28019.728     -399.47458      3654.1976    
       800   293.08998     -28009.048     -11197.14       3654.1976    
       900   275.05335     -27973.707     -12661.874      3654.1976    
      1000   313.03945     -28004.493     -2080.1394      3654.1976    
      1100   305.41503     -28019.144      6787.6652      3654.1976    
      1200   286.71542     -28019.511      2932.5808      3654.1976    
      1300   291.48117     -28033.751     -4026.7015      3654.1976    
      1400   275.28886     -28015.91       7168.4583      3654.1976    
      1500   284.97921     -27997.71      -2698.7897      3654.1976    
      1600   306.6809      -27998.258      1769.6363      3654.1976    
      1700   311.89204     -27999.742     -4961.5708      3654.1976    
      1800   299.69917     -28010.66      -5355.242       3654.1976    
      1900   295.26656     -28026.19      -13909.43       3654.1976    
      2000   290.3957      -28024.047     -9931.2992      3654.1976    
      2100   282.8908      -28010.587     -8511.5253      3654.1976    
      2200   292.83624     -28009.827     -11820.606      3654.1976    
      2300   294.44787     -28006.536     -15480.118      3654.1976    
      2400   311.30138     -28010.622     -3364.3498      3654.1976    
      2500   281.46835     -27988.015     -355.97124      3654.1976    
      2600   315.31641     -28031.723     -8466.4873      3654.1976    
      2700   273.92129     -28016.992     -15673.841      3654.1976    
      2800   280.38326     -28012.653     -7693.1307      3654.1976    
      2900   311.10332     -28011.221      6698.7885      3654.1976    
      3000   304.53838     -27999.636     -459.53639      3654.1976    
      3100   301.67308     -28008.43      -3976.06        3654.1976    
      3200   295.40317     -28019.447     -14845.947      3654.1976    
      3300   293.59896     -28019.354      4408.1875      3654.1976    
      3400   280.2514      -27996.734      3667.3521      3654.1976    
      3500   323.39638     -28001.875     -16725.495      3654.1976    
      3600   314.38719     -27994.658      4622.8795      3654.1976    
      3700   295.04287     -28005.285      1324.9553      3654.1976    
      3800   301.66514     -28023.898     -2149.7974      3654.1976    
      3900   292.99663     -28019.158     -9710.6668      3654.1976    
      4000   297.21971     -28019.651      15679.218      3654.1976    
      4100   283.82703     -28015.292      525.64597      3654.1976    
      4200   299.25158     -28030.718     -3558.0014      3654.1976    
      4300   298.75894     -28012.891      6209.4489      3654.1976    
      4400   315.73553     -28013.35      -5784.2898      3654.1976    
      4500   299.07692     -28016.668     -5770.9038      3654.1976    
      4600   290.36467     -28030.762     -6505.9121      3654.1976    
      4700   284.96532     -28021.825     -5207.7188      3654.1976    
      4800   281.29905     -28011.908      6363.5105      3654.1976    
      4900   316.06162     -28032.407     -2340.7468      3654.1976    
      5000   317.31073     -28024.279     -11279.995      3654.1976    
      5100   293.68097     -28006.547      426.94439      3654.1976    
      5200   282.14016     -28013.551     -616.68323      3654.1976    
      5300   289.68609     -28032.937     -1738.7149      3654.1976    
      5400   313.37464     -28039.495     -7782.1932      3654.1976    
      5500   290.86415     -27995.481     -8530.9088      3654.1976    
      5600   312.58333     -28010.97       2105.6324      3654.1976    
      5700   298.00217     -28009.815     -4016.5924      3654.1976    
      5800   289.58868     -28014.039     -11795.272      3654.1976    
      5900   283.56567     -28004.748     -6544.9176      3654.1976    
      6000   315.86859     -28006.118     -89.075254      3654.1976    
      6100   324.19764     -27982.354     -4461.192       3654.1976    
      6200   320.02298     -28001.541     -10864.442      3654.1976    
      6300   309.60335     -28013.234     -3403.6112      3654.1976    
      6400   283.81403     -28004.73      -5079.228       3654.1976    
      6500   300.96533     -28027.519     -10307.305      3654.1976    
      6600   276.43639     -28010.705     -16618.191      3654.1976    
      6700   319.76656     -28036.311     -7199.9419      3654.1976    
      6800   312.86489     -28016.117     -5323.5604      3654.1976    
      6900   302.87382     -28001.579      1132.2372      3654.1976    
      7000   302.27995     -28022.244     -2809.3188      3654.1976    
      7100   317.0523      -28059.292     -56.196542      3654.1976    
      7200   280.78775     -28032.124      3603.6012      3654.1976    
      7300   307.47121     -28042.262     -5860.1504      3654.1976    
      7400   323.1256      -28030.202     -3385.4498      3654.1976    
      7500   309.25419     -28022.751     -12142.963      3654.1976    
      7600   294.09792     -28033.415      5185.1261      3654.1976    
      7700   311.20095     -28047.758      76.562303      3654.1976    
      7800   308.96753     -28051.112     -20571.905      3654.1976    
      7900   305.83036     -28064.974     -19558.755      3654.1976    
      8000   296.88182     -28075.419     -16049.6        3654.1976    
      8100   288.21345     -28062.102     -3764.91        3654.1976    
      8200   321.56462     -28052.001     -7606.3947      3654.1976    
      8300   307.7634      -28035.428     -12395.969      3654.1976    
      8400   300.26404     -28048.891      3822.7839      3654.1976    
      8500   288.98734     -28057.318     -3042.6298      3654.1976    
      8600   290.8082      -28059.341     -6990.9914      3654.1976    
      8700   310.90671     -28049.116     -7748.8436      3654.1976    
      8800   308.28355     -28035.007     -8778.6881      3654.1976    
      8900   297.36053     -28036.764     -1806.9558      3654.1976    
      9000   293.25335     -28046.604     -342.21552      3654.1976    
      9100   302.46372     -28072.523     -1159.9577      3654.1976    
      9200   268.45956     -28053.084     -4.4394874      3654.1976    
      9300   303.30081     -28078.748     -7371.2943      3654.1976    
      9400   297.62182     -28044.598     -6525.4469      3654.1976    
      9500   332.90912     -28059.463     -10123.254      3654.1976    
      9600   307.55829     -28060.348      3240.1978      3654.1976    
      9700   318.10982     -28084.657     -1553.7238      3654.1976    
      9800   295.79826     -28069.463      1478.1759      3654.1976    
      9900   307.20482     -28060.268     -14785.518      3654.1976    
     10000   335.63168     -28050.239     -7569.5128      3654.1976    
Loop time of 318.498 on 8 procs for 10000 steps with 274 atoms

Performance: 1.356 ns/day, 17.694 hours/ns, 31.397 timesteps/s, 8.603 katom-step/s
98.6% CPU use with 8 MPI tasks x 1 OpenMP threads

MPI task timing breakdown:
Section |  min time  |  avg time  |  max time  |%varavg| %total
---------------------------------------------------------------
Pair    | 211.16     | 253.44     | 279.19     | 131.3 | 79.57
Bond    | 0.027768   | 0.029574   | 0.032381   |   0.9 |  0.01
Neigh   | 2.9318     | 3.4292     | 3.7204     |  14.1 |  1.08
Comm    | 4.5679     | 30.507     | 72.866     | 379.3 |  9.58
Output  | 0.028153   | 0.067053   | 0.15729    |  19.6 |  0.02
Modify  | 30.444     | 30.8       | 31.264     |   4.7 |  9.67
Other   |            | 0.2229     |            |       |  0.07

Nlocal:          34.25 ave          42 max          25 min
Histogram: 1 1 0 0 1 1 0 3 0 1
Nghost:        2633.62 ave        2659 max        2602 min
Histogram: 1 1 0 0 0 2 2 0 0 2
Neighs:          17892 ave       21895 max       13065 min
Histogram: 1 0 1 0 0 2 2 1 0 1

Total # of neighbors = 143136
Ave neighs/atom = 522.39416
Ave special neighs/atom = 0
Neighbor list builds = 160
Dangerous builds = 0
  using 1 OpenMP thread(s) per MPI task
Reading restart file ...
  restart file = 2 Aug 2023, LAMMPS = 2 Aug 2023
  restoring atom style full from restart
  triclinic box = (0 0 0) to (15.4861 14.0699 16.771) with tilt (-7.3915 0.9919 1.0308)
WARNING: Triclinic box skew is large. LAMMPS will run inefficiently. (src/domain.cpp:220)
  2 by 2 by 2 MPI processor grid
  pair style reaxff stores no restart info
  274 atoms
Finding 1-2 1-3 1-4 neighbors ...
  special bond factors lj:    0        0        0       
  special bond factors coul:  0        0        0       
     0 = max # of 1-2 neighbors
     0 = max # of 1-3 neighbors
     0 = max # of 1-4 neighbors
     1 = max # of special neighbors
  special bonds CPU = 0.000 seconds
  read_restart CPU = 0.003 seconds
*****Positive-deform 4 starts.*****
WARNING: Van der Waals parameters for element SI indicate inner wall+shielding, but earlier atoms indicate a different van der Waals method. This may cause division-by-zero errors. Keeping van der Waals setting for earlier atoms. (src/REAXFF/reaxff_ffield.cpp:251)
Neighbor list info ...
  update: every = 10 steps, delay = 0 steps, check = yes
  max neighbors/atom: 2000, page size: 100000
  master list distance cutoff = 12
  ghost atom cutoff = 12
  binsize = 6, bins = 4 3 3
  2 neighbor lists, perpetual/occasional/extra = 2 0 0
  (1) pair reaxff, perpetual
      attributes: half, newton off, ghost
      pair build: half/bin/newtoff/ghost
      stencil: full/ghost/bin/3d
      bin: standard
  (2) fix qeq/reaxff, perpetual, copy from (1)
      attributes: half, newton off
      pair build: copy
      stencil: none
      bin: none
Setting up Verlet run ...
  Unit style    : real
  Current step  : 0
  Time step     : 0.5
Per MPI rank memory allocation (min/avg/max) = 101.4 | 103 | 104.7 Mbytes
   Step          Temp          PotEng         Press          Volume    
         0   300           -28002.895     -1094.8363      3654.1976    
       100   281.4714      -27975.169     -7782.7139      3654.1976    
       200   300.96129     -27963.734     -2494.3752      3654.1976    
       300   319.54375     -27974.767     -6062.7191      3654.1976    
       400   292.34952     -27961.271     -9451.2796      3654.1976    
       500   311.05781     -27983.207     -16820.398      3654.1976    
       600   285.94031     -27997.511     -1353.3232      3654.1976    
       700   296.94742     -28017.829     -1041.9797      3654.1976    
       800   299.19321     -28014.916     -13046.522      3654.1976    
       900   280.58171     -27980.393     -14884.308      3654.1976    
      1000   309.90705     -27999.494      102.80542      3654.1976    
      1100   299.19376     -28014.51       1467.9158      3654.1976    
      1200   285.92618     -28021.672      4768.4288      3654.1976    
      1300   297.89048     -28023.266     -3025.6152      3654.1976    
      1400   307.76625     -28009.387      8601.4271      3654.1976    
      1500   290.83403     -27980.119     -5496.5599      3654.1976    
      1600   311.93319     -27999.112      2982.1256      3654.1976    
      1700   299.36373     -27992.697      3418.6564      3654.1976    
      1800   304.12447     -28004.233     -168.78976      3654.1976    
      1900   317.69837     -28028.134     -2175.806       3654.1976    
      2000   274.87095     -28008.023      830.33105      3654.1976    
      2100   291.13797     -28000.501      3887.2601      3654.1976    
      2200   308.13542     -27991.971     -257.48247      3654.1976    
      2300   312.30261     -28000.962      1828.5464      3654.1976    
      2400   298.06561     -28002.004      2438.7125      3654.1976    
      2500   273.37453     -27997.076     -19163.18       3654.1976    
      2600   273.92063     -28010.019     -10615.977      3654.1976    
      2700   292.11673     -28045.126     -6545.0147      3654.1976    
      2800   301.31403     -28036.98       11942.261      3654.1976    
      2900   279.35813     -27994.817     -5209.3688      3654.1976    
      3000   292.18515     -27996.81      -11160.486      3654.1976    
      3100   316.43887     -28011.509     -13695.026      3654.1976    
      3200   308.588       -28006.373     -9023.7794      3654.1976    
      3300   286.90951     -28009.378     -1109.8625      3654.1976    
      3400   280.77607     -28017.236     -656.21898      3654.1976    
      3500   292.46113     -28027.204     -4994.6251      3654.1976    
      3600   325.67314     -28024.059     -4268.1033      3654.1976    
      3700   312.98571     -28004.785     -15304.065      3654.1976    
      3800   297.20969     -28005.401     -12488.624      3654.1976    
      3900   295.18603     -28027.315      2539.349       3654.1976    
      4000   295.04291     -28037.788     -14025.795      3654.1976    
[...]
*****
*****Negative-deform 6 starts.*****
WARNING: Van der Waals parameters for element SI indicate inner wall+shielding, but earlier atoms indicate a different van der Waals method. This may cause division-by-zero errors. Keeping van der Waals setting for earlier atoms. (src/REAXFF/reaxff_ffield.cpp:251)
Neighbor list info ...
  update: every = 10 steps, delay = 0 steps, check = yes
  max neighbors/atom: 2000, page size: 100000
  master list distance cutoff = 12
  ghost atom cutoff = 12
  binsize = 6, bins = 4 3 3
  2 neighbor lists, perpetual/occasional/extra = 2 0 0
  (1) pair reaxff, perpetual
      attributes: half, newton off, ghost
      pair build: half/bin/newtoff/ghost
      stencil: full/ghost/bin/3d
      bin: standard
  (2) fix qeq/reaxff, perpetual, copy from (1)
      attributes: half, newton off
      pair build: copy
      stencil: none
      bin: none
Setting up Verlet run ...
  Unit style    : real
  Current step  : 0
  Time step     : 0.5
Per MPI rank memory allocation (min/avg/max) = 101.4 | 103 | 104.6 Mbytes
   Step          Temp          PotEng         Press          Volume    
         0   300           -28002.895     -1094.8363      3654.1976    
       100   281.46487     -27975.167     -7784.922       3654.1976    
       200   300.84916     -27963.764     -2517.1457      3654.1976    
       300   319.54897     -27974.854     -5870.2462      3654.1976    
       400   292.76944     -27961.718     -9936.4446      3654.1976    
       500   312.55899     -27984.206     -15897.759      3654.1976    
       600   285.11052     -27996.615     -1758.8995      3654.1976    
       700   291.22956     -28014.65      -810.87871      3654.1976    
       800   294.9391      -28011.031     -10702.08       3654.1976    
       900   284.02922     -27982.367     -8408.0051      3654.1976    
      1000   303.4548      -27996.839     -1685.2244      3654.1976    
      1100   300.57378     -28021.101      762.78557      3654.1976    
      1200   285.25189     -28026.127      6529.8303      3654.1976    
      1300   278.64689     -28013.799     -6541.7973      3654.1976    
      1400   297.63484     -28012.272      4115.9863      3654.1976    
      1500   280.59396     -27986.411     -9875.6791      3654.1976    
      1600   318.55736     -28010.445     -4447.6087      3654.1976    
      1700   289.16725     -27998.147     -1784.0681      3654.1976    
      1800   296.65217     -28025.571     -4939.4822      3654.1976    
      1900   291.85102     -28025.924     -6458.1618      3654.1976    
      2000   288.61164     -28011.404      14415.052      3654.1976    
      2100   327.59544     -28016.583     -3382.6518      3654.1976    
      2200   318.02257     -27998.893     -6635.0655      3654.1976    
      2300   293.06624     -27988.991     -3133.6678      3654.1976    
      2400   292.87471     -27998.397      4681.4478      3654.1976    
      2500   298.80434     -28007.016     -8739.7134      3654.1976    
      2600   309.77256     -28016.454     -6628.1159      3654.1976    
      2700   316.6958      -28027.774     -1737.6033      3654.1976    
      2800   287.34562     -28020.942      1130.7459      3654.1976    
      2900   288.85631     -28028.025      5275.9485      3654.1976    
      3000   294.49953     -28009.804      1050.074       3654.1976    
      3100   294.55875     -27986.58      -7546.5017      3654.1976    
      3200   304.10018     -27993.997     -7628.4499      3654.1976    
      3300   297.74468     -28008.549      5932.04        3654.1976    
      3400   283.06041     -28013.911     -8401.3842      3654.1976    
      3500   279.70797     -28006.674      1282.2862      3654.1976    
      3600   305.28223     -28021.408     -239.11913      3654.1976    
      3700   276.1604      -27992.436     -7453.7114      3654.1976    
      3800   300.69449     -27997.541     -2147.9076      3654.1976    
      3900   318.6851      -28009.36       2315.3583      3654.1976    
      4000   280.26913     -27995.471     -1651.5389      3654.1976    
      4100   300.331       -28011.942     -12397.765      3654.1976    
      4200   302.52994     -28014.585     -663.57987      3654.1976    
      4300   278.25479     -27995.236     -5649.7665      3654.1976    
      4400   300.01908     -27996.811     -3026.5331      3654.1976    
      4500   322.26238     -28001.889     -13318.142      3654.1976    
      4600   278.60759     -27985.297     -5268.6878      3654.1976    
      4700   302.06689     -28028.259     -5337.871       3654.1976    
      4800   274.04828     -28006.654     -300.33318      3654.1976    
      4900   294.78938     -28011.989      2497.428       3654.1976    
      5000   301.88454     -28003.958     -127.54881      3654.1976    
      5100   303.05401     -27998.067     -3661.1679      3654.1976    
      5200   297.59523     -27993.958     -13479.562      3654.1976    
      5300   289.66563     -27985.944     -113.92502      3654.1976    
      5400   332.31546     -28021.916     -4253.682       3654.1976    
      5500   288.63514     -28012.498     -1317.1673      3654.1976    
      5600   290.69421     -28026.353     -1183.6021      3654.1976    
      5700   296.52131     -28024.514     -6511.7649      3654.1976    
      5800   300.12716     -27994.744     -14297.527      3654.1976    
      5900   315.36407     -28000.855     -5214.3097      3654.1976    
      6000   278.098       -27980.716     -10814.729      3654.1976    
      6100   294.11625     -28010.243     -15083.987      3654.1976    
      6200   286.48339     -28006.552     -20374.414      3654.1976    
      6300   292.43492     -28001.333     -11157.191      3654.1976    
      6400   301.25537     -28004.105      5762.1392      3654.1976    
      6500   293.93158     -27997.705     -7959.4787      3654.1976    
      6600   309.27103     -28009.195     -8939.2606      3654.1976    
      6700   311.5109      -28019.034     -7637.0494      3654.1976    
      6800   303.6035      -28028.75       914.40991      3654.1976    
      6900   273.27838     -28011.455     -2723.0301      3654.1976    
      7000   310.01985     -28012.83      -8589.5588      3654.1976    
      7100   330.00202     -28012.424     -8403.354       3654.1976    
      7200   320.43589     -28014.659      6115.528       3654.1976    
      7300   298.88022     -28014.196     -9555.972       3654.1976    
      7400   287.72583     -28005.897     -9480.4883      3654.1976    
      7500   309.65988     -28022.622     -9173.9938      3654.1976    
      7600   293.02255     -28004.486     -7744.8909      3654.1976    
      7700   295.15115     -27996.962     -10930.923      3654.1976    
      7800   288.71753     -27986.764     -2117.617       3654.1976    
      7900   303.02911     -27980.601      12012.436      3654.1976    
      8000   319.57099     -27967.207     -1065.561       3654.1976    
      8100   328.34315     -27996.054     -12275.559      3654.1976    
      8200   296.26056     -27992.646     -2440.3635      3654.1976    
      8300   291.4036      -28000.67      -8881.8221      3654.1976    
      8400   309.53877     -28034.293      6043.5218      3654.1976    
      8500   281.65585     -28013.474     -6897.7283      3654.1976    
      8600   297.50734     -28001.713      2762.2969      3654.1976    
      8700   339.70734     -28012.476      1552.3022      3654.1976    
      8800   303.01036     -28004.245     -9591.8491      3654.1976    
      8900   286.20346     -28013.562     -7109.4921      3654.1976    
      9000   278.62533     -28005.075      2555.0565      3654.1976    
      9100   316.33219     -28015.403     -11861.016      3654.1976    
      9200   310.65056     -28007.743      2939.5611      3654.1976    
      9300   284.65531     -27991.339     -14970.581      3654.1976    
      9400   305.96217     -28017.541      1197.5353      3654.1976    
      9500   292.28872     -28010.576      2621.9093      3654.1976    
      9600   290.02967     -28011.783      2917.1779      3654.1976    
      9700   282.24254     -28003.432     -13148.076      3654.1976    
      9800   312.30144     -28021.283     -2972.6802      3654.1976    
      9900   297.77915     -28011.299     -250.31801      3654.1976    
     10000   308.26487     -28032.721      3678.9997      3654.1976    
Loop time of 315.124 on 8 procs for 10000 steps with 274 atoms

Performance: 1.371 ns/day, 17.507 hours/ns, 31.734 timesteps/s, 8.695 katom-step/s
98.6% CPU use with 8 MPI tasks x 1 OpenMP threads

MPI task timing breakdown:
Section |  min time  |  avg time  |  max time  |%varavg| %total
---------------------------------------------------------------
Pair    | 215.05     | 252.96     | 276.68     | 129.7 | 80.27
Bond    | 0.02631    | 0.030232   | 0.033476   |   1.3 |  0.01
Neigh   | 3.0627     | 3.5041     | 3.7168     |  14.1 |  1.11
Comm    | 4.5159     | 28.248     | 66.234     | 388.1 |  8.96
Output  | 0.026909   | 0.061186   | 0.14041    |  17.9 |  0.02
Modify  | 29.835     | 30.087     | 30.622     |   5.1 |  9.55
Other   |            | 0.2304     |            |       |  0.07

Nlocal:          34.25 ave          41 max          29 min
Histogram: 2 1 0 0 1 2 0 0 1 1
Nghost:        2615.12 ave        2634 max        2595 min
Histogram: 2 0 0 0 1 3 0 0 0 2
Neighs:        17911.9 ave       21202 max       15101 min
Histogram: 2 1 0 0 1 2 0 0 1 1

Total # of neighbors = 143295
Ave neighs/atom = 522.97445
Ave special neighs/atom = 0
Neighbor list builds = 166
Dangerous builds = 0
  using 1 OpenMP thread(s) per MPI task
Reading restart file ...
  restart file = 2 Aug 2023, LAMMPS = 2 Aug 2023
  restoring atom style full from restart
  triclinic box = (0 0 0) to (15.4861 14.0699 16.771) with tilt (-7.3915 0.9919 1.0308)
WARNING: Triclinic box skew is large. LAMMPS will run inefficiently. (src/domain.cpp:220)
  2 by 2 by 2 MPI processor grid
  pair style reaxff stores no restart info
  274 atoms
Finding 1-2 1-3 1-4 neighbors ...
  special bond factors lj:    0        0        0       
  special bond factors coul:  0        0        0       
     0 = max # of 1-2 neighbors
     0 = max # of 1-3 neighbors
     0 = max # of 1-4 neighbors
     1 = max # of special neighbors
  special bonds CPU = 0.000 seconds
  read_restart CPU = 0.003 seconds
*****Positive-deform 6 starts.*****
WARNING: Van der Waals parameters for element SI indicate inner wall+shielding, but earlier atoms indicate a different van der Waals method. This may cause division-by-zero errors. Keeping van der Waals setting for earlier atoms. (src/REAXFF/reaxff_ffield.cpp:251)
Neighbor list info ...
  update: every = 10 steps, delay = 0 steps, check = yes
  max neighbors/atom: 2000, page size: 100000
  master list distance cutoff = 12
  ghost atom cutoff = 12
  binsize = 6, bins = 4 3 3
  2 neighbor lists, perpetual/occasional/extra = 2 0 0
  (1) pair reaxff, perpetual
      attributes: half, newton off, ghost
      pair build: half/bin/newtoff/ghost
      stencil: full/ghost/bin/3d
      bin: standard
  (2) fix qeq/reaxff, perpetual, copy from (1)
      attributes: half, newton off
      pair build: copy
      stencil: none
      bin: none
Setting up Verlet run ...
  Unit style    : real
  Current step  : 0
  Time step     : 0.5
Per MPI rank memory allocation (min/avg/max) = 101.4 | 103 | 104.7 Mbytes
   Step          Temp          PotEng         Press          Volume    
         0   300           -28002.895     -1094.8363      3654.1976    
       100   281.47805     -27975.175     -7780.4866      3654.1976    
       200   300.96822     -27963.611     -2446.9824      3654.1976    
       300   319.47567     -27974.612     -6058.0049      3654.1976    
       400   291.85067     -27960.718     -8858.5251      3654.1976    
       500   310.34872     -27982.5       -17148.17       3654.1976    
       600   287.90623     -27999.212      2.9384724      3654.1976    
       700   294.86785     -28016.797     -1763.8197      3654.1976    
       800   297.89583     -28013.589     -13194.692      3654.1976    
       900   275.46493     -27975.214     -15019.305      3654.1976    
      1000   310.11543     -27998.834     -1305.5475      3654.1976    
      1100   306.66331     -28013.161      7304.4698      3654.1976    
      1200   275.7882      -28016.811     -2192.824       3654.1976    
      1300   296.58318     -28029.592     -4054.0629      3654.1976    
      1400   295.44042     -28009.622      5075.4048      3654.1976    
      1500   284.26484     -27986.896     -592.39209      3654.1976    
      1600   304.31204     -28004.97      -2980.4045      3654.1976    
      1700   311.59172     -28013.741     -1086.2306      3654.1976    
      1800   302.14409     -28014.645     -5943.7291      3654.1976    
      1900   291.93201     -28031.153     -7702.9558      3654.1976    
      2000   274.51665     -28031.785     -4168.2639      3654.1976    
      2100   283.11564     -28019         -7791.4113      3654.1976    
      2200   291.17877     -28014.31      -1269.883       3654.1976    
      2300   301.0262      -28006.978     -2868.1234      3654.1976    
      2400   313.62941     -28007.26       2137.8131      3654.1976    
      2500   302.98023     -28002.371      43.85926       3654.1976    
      2600   277.18015     -28011.824      4918.8482      3654.1976    
      2700   287.11951     -28022.749     -10997.018      3654.1976    
      2800   290.37179     -28015.164     -7379.2699      3654.1976    
      2900   297.15223     -28003.137     -6900.1988      3654.1976    
      3000   343.394       -28015.394      3309.5662      3654.1976    
      3100   327.52947     -28013.686     -4753.7734      3654.1976    
      3200   301.06047     -28027.452     -12488.204      3654.1976    
      3300   288.33448     -28033.581     -9542.3233      3654.1976    
      3400   289.65811     -28037.886     -7107.3762      3654.1976    
      3500   317.92198     -28040.069     -14754.736      3654.1976    
      3600   301.66665     -28013.164     -8862.5946      3654.1976    
      3700   308.17422     -28027.749      4920.1707      3654.1976    
      3800   285.87419     -28046.706     -1249.7515      3654.1976    
      3900   278.33397     -28044.279     -10566.336      3654.1976    
      4000   298.06297     -28048.74      -2870.5438      3654.1976    
      4100   306.27233     -28036.135     -7174.0234      3654.1976    
      4200   302.59444     -28028.541     -13721.237      3654.1976    
      4300   289.03466     -28043.854     -9680.1903      3654.1976    
      4400   263.13955     -28042.52      -5924.8537      3654.1976    
      4500   277.83391     -28039.654     -8862.821       3654.1976    
      4600   301.2277      -28041.672     -5506.0191      3654.1976    
      4700   315.84467     -28042.77       5575.985       3654.1976    
      4800   279.07594     -28017.314     -8797.787       3654.1976    
      4900   267.58066     -28034.421     -1017.4182      3654.1976    
      5000   273.97997     -28054.116      3904.2073      3654.1976    
      5100   278.02001     -28043.055      2095.8567      3654.1976    
      5200   305.77889     -28052.071     -6267.8962      3654.1976    
      5300   307.83605     -28037.831     -5499.5083      3654.1976    
      5400   324.29636     -28040.65      -6629.6948      3654.1976    
      5500   281.03174     -28026.644     -3680.771       3654.1976    
      5600   304.84767     -28060.816     -4917.2701      3654.1976    
      5700   283.26378     -28038.838     -6335.5718      3654.1976    
      5800   300.17072     -28043.097      3075.2616      3654.1976    
      5900   292.40483     -28025.502     -5897.467       3654.1976    
      6000   313.4949      -28031.738     -12379.275      3654.1976    
      6100   325.31976     -28033.695      1953.4598      3654.1976    
      6200   313.25438     -28046.958     -1071.3212      3654.1976    
      6300   282.71666     -28042.334     -2849.2202      3654.1976    
      6400   275.21891     -28039.673     -5083.5602      3654.1976    
      6500   305.84243     -28042.628      1521.6067      3654.1976    
      6600   290.10521     -28012.868     -4042.401       3654.1976    
      6700   297.18204     -28022.386      5886.6758      3654.1976    
      6800   281.66916     -28024.965      5762.2647      3654.1976    
      6900   291.86376     -28041.92      -6903.99        3654.1976    
      7000   295.31134     -28041.565     -11425.316      3654.1976    
      7100   276.85931     -28017.832     -10027.531      3654.1976    
      7200   307.17344     -28015.852      1528.542       3654.1976    
      7300   329.69056     -28007.318     -12837.585      3654.1976    
      7400   312.37051     -28024.664     -4939.019       3654.1976    
      7500   304.81333     -28042.036      4359.986       3654.1976    
      7600   287.47319     -28037.679     -2005.0414      3654.1976    
      7700   308.55167     -28044.465     -491.72276      3654.1976    
      7800   300.25077     -28024.529     -6923.6617      3654.1976    
      7900   314.01841     -28035.281     -10697.313      3654.1976    
      8000   298.0914      -28036.114     -13866.066      3654.1976    
      8100   290.35232     -28046.408     -14871.355      3654.1976    
      8200   281.22869     -28049.469      5757.3487      3654.1976    
      8300   299.91272     -28045.839     -10009.061      3654.1976    
      8400   316.1805      -28032.977     -15149.56       3654.1976    
      8500   305.36144     -28029.968      4620.2706      3654.1976    
      8600   304.12414     -28045.655      307.745        3654.1976    
      8700   276.99132     -28043.339     -7593.8948      3654.1976    
      8800   283.86477     -28042.653     -647.46931      3654.1976    
      8900   302.50493     -28045.421     -817.86924      3654.1976    
      9000   280.34691     -28018.051      8626.4138      3654.1976    
      9100   317.71771     -28041.294     -11165.673      3654.1976    
      9200   321.09522     -28072.708     -2805.122       3654.1976    
      9300   294.61985     -28066.037     -9242.4404      3654.1976    
      9400   296.99534     -28061.308      1909.7386      3654.1976    
      9500   320.70366     -28067.866     -16067.51       3654.1976    
      9600   291.39279     -28054.478     -4280.6423      3654.1976    
      9700   291.53014     -28081.493      5101.7887      3654.1976    
      9800   275.63419     -28072.146     -12713.541      3654.1976    
      9900   290.97616     -28069.581     -13177.281      3654.1976    
     10000   312.98225     -28077.33      -2179.0897      3654.1976    
Loop time of 317.853 on 8 procs for 10000 steps with 274 atoms

Performance: 1.359 ns/day, 17.658 hours/ns, 31.461 timesteps/s, 8.620 katom-step/s
98.6% CPU use with 8 MPI tasks x 1 OpenMP threads

MPI task timing breakdown:
Section |  min time  |  avg time  |  max time  |%varavg| %total
---------------------------------------------------------------
Pair    | 209.99     | 254.02     | 277.97     | 135.2 | 79.92
Bond    | 0.027559   | 0.030581   | 0.034172   |   1.2 |  0.01
Neigh   | 3.1964     | 3.8672     | 4.0928     |  15.3 |  1.22
Comm    | 4.5618     | 28.661     | 72.713     | 403.1 |  9.02
Output  | 0.028648   | 0.068982   | 0.16229    |  19.9 |  0.02
Modify  | 30.717     | 30.979     | 31.673     |   5.5 |  9.75
Other   |            | 0.2251     |            |       |  0.07

Nlocal:          34.25 ave          42 max          27 min
Histogram: 1 0 2 1 0 1 1 0 0 2
Nghost:        2593.25 ave        2629 max        2546 min
Histogram: 1 1 0 1 0 1 0 1 1 2
Neighs:        17934.6 ave       21614 max       14425 min
Histogram: 1 1 1 1 0 1 1 0 0 2

Total # of neighbors = 143477
Ave neighs/atom = 523.63869
Ave special neighs/atom = 0
Neighbor list builds = 178
Dangerous builds = 0
Total wall time: 1:03:35
