LAMMPS (2 Aug 2023 - Update 2)
  using 2 OpenMP thread(s) per MPI task
# Initialization
units           real
dimension       3
boundary        p p p
atom_style      full
timestep        0.5   # fs

# Define MD parameters
variable nevery equal 10                  # sampling interval
variable nrepeat equal 10                 # number of samples
variable nfreq equal ${nevery}*${nrepeat} # length of one average
variable nfreq equal 10*${nrepeat} 
variable nfreq equal 10*10 
variable nthermo equal ${nfreq}           # interval for thermo output
variable nthermo equal 100           
# 1 ps : 1e3 fs / 0.5 fs = 2e3 steps
variable nequil equal 50*${nthermo}       # steps of equilibration run 10
variable nequil equal 50*100       
variable nrun equal 50*${nthermo}          # stpes of equilibrated run 10
variable nrun equal 50*100          
variable temp equal 300.0                # temperature of initial sample
variable tdamp equal 50.0                 # time constant for thermostat
variable seed equal 123456                # seed for thermostat
variable ufac equal 1.01325e-4         # pressure unit conversion, from atm to Gpa
variable up equal 0.1                  # the deformation magnitude 0.01

variable FF string "CHONSi.ff C H O Si"   # force field args for pair_coeff
# pair_coeff * * CHONSSi.ff O Si
# pair_coeff * * CHOSiNa.ff O Si
# pair_coeff * * SiOCHN_2018.ff O Si
# pair_coeff * * PDMSDecomp.ff Si O
# pair_coeff * * CHONSi.ff C H O Si
# pair_coeff * * CHOFe.ff O Si
variable structure string 333U-50C-9-vasp

# Read the initial sctructure
# box tilt large
read_data       ${structure}.data
read_data       333U-50C-9-vasp.data
Reading data file ...
  triclinic box = (0 0 0) to (16.6078 13.4502 17.3502) with tilt (-9.4505 -1.0717 0.0034)
WARNING: Triclinic box skew is large. LAMMPS will run inefficiently. (src/domain.cpp:220)
  2 by 2 by 2 MPI processor grid
  reading atoms ...
  386 atoms
Finding 1-2 1-3 1-4 neighbors ...
  special bond factors lj:    0        0        0       
  special bond factors coul:  0        0        0       
     0 = max # of 1-2 neighbors
     0 = max # of 1-3 neighbors
     0 = max # of 1-4 neighbors
     1 = max # of special neighbors
  special bonds CPU = 0.001 seconds
  read_data CPU = 0.007 seconds

# Assign the force field
pair_style reaxff NULL safezone 3.0 mincap 150
pair_coeff * * ${FF}
pair_coeff * * CHONSi.ff C H O Si
# charge method for reaxff
fix myqeq all qeq/reaxff 1 0.0 10.0 1.0e-6 reaxff maxiter 400

# Energy minimization
print "*****Minimization starts.*****"
*****Minimization starts.*****
minimize 1.0e-6 1.0e-6 100 1000

CITE-CITE-CITE-CITE-CITE-CITE-CITE-CITE-CITE-CITE-CITE-CITE-CITE

Your simulation uses code contributions which should be cited:

- pair reaxff command: doi:10.1016/j.parco.2011.08.005

@Article{Aktulga12,
 author = {H. M. Aktulga and J. C. Fogarty and S. A. Pandit and A. Y. Grama},
 title = {Parallel Reactive Molecular Dynamics: {N}umerical Methods and Algorithmic Techniques},
 journal = {Parallel Computing},
 year =    2012,
 volume =  38,
 number =  {4--5},
 pages =   {245--259}
}

- fix qeq/reaxff command: doi:10.1016/j.parco.2011.08.005

@Article{Aktulga12,
 author = {H. M. Aktulga and J. C. Fogarty and S. A. Pandit and A. Y. Grama},
 title = {Parallel Reactive Molecular Dynamics: {N}umerical Methods and Algorithmic Techniques},
 journal = {Parallel Computing},
 year =    2012,
 volume =  38,
 pages =   {245--259}
}

CITE-CITE-CITE-CITE-CITE-CITE-CITE-CITE-CITE-CITE-CITE-CITE-CITE

WARNING: Fix qeq/reaxff group is not charge neutral, net charge = -0.82 (src/REAXFF/fix_qeq_reaxff.cpp:392)
Neighbor list info ...
  update: every = 1 steps, delay = 0 steps, check = yes
  max neighbors/atom: 2000, page size: 100000
  master list distance cutoff = 12
  ghost atom cutoff = 12
  binsize = 6, bins = 5 3 3
  2 neighbor lists, perpetual/occasional/extra = 2 0 0
  (1) pair reaxff, perpetual
      attributes: half, newton off, ghost
      pair build: half/bin/newtoff/ghost
      stencil: full/ghost/bin/3d
      bin: standard
  (2) fix qeq/reaxff, perpetual, copy from (1)
      attributes: half, newton off
      pair build: copy
      stencil: none
      bin: none
Per MPI rank memory allocation (min/avg/max) = 145.4 | 147.4 | 149.4 Mbytes
   Step          Temp          E_pair         E_mol          TotEng         Press     
         0   0             -43202.648      0             -43202.648      114735.64    
        60   0             -44592.068      0             -44592.068      8502.1779    
Loop time of 8.67323 on 16 procs for 60 steps with 386 atoms

97.2% CPU use with 8 MPI tasks x 2 OpenMP threads

Minimization stats:
  Stopping criterion = energy tolerance
  Energy initial, next-to-last, final = 
     -43202.6479194478  -44592.0627460336  -44592.0676727274
  Force two-norm initial, final = 1894.1947 201.85474
  Force max component initial, final = 227.47497 106.5436
  Final line search alpha, max atom move = 0.00055050318 0.058652589
  Iterations, force evaluations = 60 159

MPI task timing breakdown:
Section |  min time  |  avg time  |  max time  |%varavg| %total
---------------------------------------------------------------
Pair    | 6.8171     | 6.9435     | 7.1621     |   4.6 | 80.06
Bond    | 8.0052e-05 | 9.3389e-05 | 0.00010275 |   0.0 |  0.00
Neigh   | 0          | 0          | 0          |   0.0 |  0.00
Comm    | 0.13068    | 0.34894    | 0.47679    |  20.7 |  4.02
Output  | 0          | 0          | 0          |   0.0 |  0.00
Modify  | 1.3683     | 1.3688     | 1.3691     |   0.0 | 15.78
Other   |            | 0.01184    |            |       |  0.14

Nlocal:          48.25 ave          55 max          40 min
Histogram: 2 0 0 0 2 0 1 0 1 2
Nghost:        3730.62 ave        3778 max        3674 min
Histogram: 1 0 1 1 1 0 1 0 2 1
Neighs:        33640.4 ave       38256 max       27931 min
Histogram: 2 0 0 0 2 0 1 0 1 2

Total # of neighbors = 269123
Ave neighs/atom = 697.20984
Ave special neighs/atom = 0
Neighbor list builds = 0
Dangerous builds = 0
min_style cg
# Save the optimized structure
write_data ${structure}_opt.data
write_data 333U-50C-9-vasp_opt.data
System init for write_data ...
velocity        all create ${temp} ${seed} dist gaussian
velocity        all create 300 ${seed} dist gaussian
velocity        all create 300 123456 dist gaussian

# Equilibration
include ff.mod.lmp
# Setup forcefield, system
# undefine any fix ave/* fix before using reset_timestep
if "$(is_defined(fix,avgp))" then "unfix avgp"
if "$(is_defined(fix,avgl))" then "unfix avgl"
reset_timestep 0

# Assign the force field
pair_style reaxff NULL safezone 3.0 mincap 150
pair_coeff * * ${FF}
pair_coeff * * CHONSi.ff C H O Si


# charge method for reaxff
fix myqeq all qeq/reaxff 1 0.0 10.0 1.0e-6 reaxff maxiter 400
# Setup neighbor style
neighbor        2 bin
neigh_modify    every 10 delay 0 check no

# Setup output
thermo		${nthermo}
thermo		100
thermo_style custom step temp pe press vol lx ly lz
# thermo_style custom step vol lx ly lz yz xz xy
thermo_modify norm no
# thermo_modify line multi

# Sample pressure (and length vector)
fix avgp all ave/time  ${nevery} ${nrepeat} ${nfreq} c_thermo_press mode vector
fix avgp all ave/time  10 ${nrepeat} ${nfreq} c_thermo_press mode vector
fix avgp all ave/time  10 10 ${nfreq} c_thermo_press mode vector
fix avgp all ave/time  10 10 100 c_thermo_press mode vector
# variable lx equal lx
# variable ly equal ly
# variable lz equal lz
# fix avgl all ave/time  ${nevery} ${nrepeat} ${nfreq} v_lx v_ly v_lz

# nvt
fix fnvt all nvt temp ${temp} ${temp} ${tdamp}
fix fnvt all nvt temp 300 ${temp} ${tdamp}
fix fnvt all nvt temp 300 300 ${tdamp}
fix fnvt all nvt temp 300 300 50

if "$(is_defined(fix,avgp))" then "unfix avgp"
unfix avgp
if "$(is_defined(fix,avgl))" then "unfix avgl"
thermo_style custom step temp pe press density vol
WARNING: New thermo_style command, previous thermo_modify settings will be lost (src/output.cpp:903)
run ${nequil}
run 5000
Neighbor list info ...
  update: every = 10 steps, delay = 0 steps, check = no
  max neighbors/atom: 2000, page size: 100000
  master list distance cutoff = 12
  ghost atom cutoff = 12
  binsize = 6, bins = 5 3 3
  2 neighbor lists, perpetual/occasional/extra = 2 0 0
  (1) pair reaxff, perpetual
      attributes: half, newton off, ghost
      pair build: half/bin/newtoff/ghost
      stencil: full/ghost/bin/3d
      bin: standard
  (2) fix qeq/reaxff, perpetual, copy from (1)
      attributes: half, newton off
      pair build: copy
      stencil: none
      bin: none
Per MPI rank memory allocation (min/avg/max) = 143.8 | 145.8 | 147.8 Mbytes
   Step          Temp          PotEng         Press         Density         Volume    
         0   300           -44592.068      12562.934      1.7478941      3875.657     
       100   258.229       -44503.844      9669.7908      1.7478941      3875.657     
       200   302.62794     -44504.056      14309.318      1.7478941      3875.657     
       300   329.80717     -44507.212      11670.438      1.7478941      3875.657     
       400   320.13041     -44532.661      6662.1453      1.7478941      3875.657     
       500   304.22793     -44565.318      12415.514      1.7478941      3875.657     
       600   292.59115     -44583.064     -6754.1947      1.7478941      3875.657     
       700   295.05774     -44595.09       14947.72       1.7478941      3875.657     
       800   308.72426     -44604.487      7210.6234      1.7478941      3875.657     
       900   310.91665     -44603.179      49.284722      1.7478941      3875.657     
      1000   295.54523     -44588.702      4796.9883      1.7478941      3875.657     
      1100   312.12086     -44628.207      7280.8289      1.7478941      3875.657     
      1200   296.79763     -44636.945      1166.2252      1.7478941      3875.657     
      1300   301.39025     -44652.982      1722.2869      1.7478941      3875.657     
      1400   320.02991     -44678.866      38.181459      1.7478941      3875.657     
      1500   293.1676      -44651.178     -13127.102      1.7478941      3875.657     
      1600   298.20156     -44630.885      12668.199      1.7478941      3875.657     
      1700   320.43504     -44620.304      7691.9693      1.7478941      3875.657     
      1800   313.19241     -44627.543      12174.734      1.7478941      3875.657     
      1900   310.4499      -44664.561      523.26892      1.7478941      3875.657     
      2000   301.09684     -44678.329      1713.303       1.7478941      3875.657     
      2100   307.84265     -44694.56       1926.0372      1.7478941      3875.657     
      2200   300.39899     -44676.728     -3774.9535      1.7478941      3875.657     
      2300   289.16048     -44645.29      -6457.0186      1.7478941      3875.657     
      2400   312.78878     -44645.897      10108.114      1.7478941      3875.657     
      2500   328.07339     -44650.327      5538.9536      1.7478941      3875.657     
      2600   311.65922     -44668.164      737.95954      1.7478941      3875.657     
      2700   295.78373     -44671.836      9154.3954      1.7478941      3875.657     
      2800   296.08799     -44673.631      6039.2746      1.7478941      3875.657     
      2900   294.5949      -44658.316     -8809.9602      1.7478941      3875.657     
      3000   314.89825     -44651.234     -7636.539       1.7478941      3875.657     
      3100   326.17163     -44656.422      3652.5654      1.7478941      3875.657     
      3200   309.31162     -44677.264      8584.8195      1.7478941      3875.657     
      3300   288.00365     -44672.078      632.35763      1.7478941      3875.657     
      3400   295.29978     -44668.652      13525.538      1.7478941      3875.657     
      3500   295.62179     -44647.686     -6352.4435      1.7478941      3875.657     
      3600   291.06936     -44637.853      2268.6093      1.7478941      3875.657     
      3700   302.1271      -44675.218     -1661.4253      1.7478941      3875.657     
      3800   272.81805     -44666.72       4810.5365      1.7478941      3875.657     
      3900   300.15127     -44688.269     -5067.4538      1.7478941      3875.657     
      4000   310.80088     -44682.358     -1992.832       1.7478941      3875.657     
      4100   296.66401     -44662.318      9534.9955      1.7478941      3875.657     
      4200   298.55372     -44656.346     -7984.8566      1.7478941      3875.657     
      4300   311.79266     -44665.69       1203.3221      1.7478941      3875.657     
      4400   330.54908     -44696.171      13687.712      1.7478941      3875.657     
      4500   297.70458     -44665.587      10198.372      1.7478941      3875.657     
      4600   307.94239     -44673.785     -5690.9647      1.7478941      3875.657     
      4700   287.83779     -44662.068      5739.2463      1.7478941      3875.657     
      4800   282.55737     -44689.108      491.06005      1.7478941      3875.657     
      4900   282.7638      -44691.674      3820.9048      1.7478941      3875.657     
      5000   294.31138     -44672.01      -10358.693      1.7478941      3875.657     
Loop time of 278.525 on 16 procs for 5000 steps with 386 atoms

Performance: 0.776 ns/day, 30.947 hours/ns, 17.952 timesteps/s, 6.929 katom-step/s
99.5% CPU use with 8 MPI tasks x 2 OpenMP threads

MPI task timing breakdown:
Section |  min time  |  avg time  |  max time  |%varavg| %total
---------------------------------------------------------------
Pair    | 176.53     | 214.45     | 234.92     | 158.0 | 77.00
Bond    | 0.001372   | 0.0017173  | 0.0021796  |   0.6 |  0.00
Neigh   | 14.555     | 17.353     | 18.808     |  40.7 |  6.23
Comm    | 3.7319     | 24.222     | 62.13      | 470.2 |  8.70
Output  | 0.0030239  | 0.003193   | 0.0042652  |   0.7 |  0.00
Modify  | 20.934     | 22.37      | 25.191     |  36.0 |  8.03
Other   |            | 0.1213     |            |       |  0.04

Nlocal:          48.25 ave          55 max          42 min
Histogram: 1 0 2 1 0 1 1 0 1 1
Nghost:           3740 ave        3777 max        3701 min
Histogram: 1 1 0 1 1 1 1 0 0 2
Neighs:        33586.8 ave       38054 max       29315 min
Histogram: 1 0 2 1 0 1 1 0 1 1

Total # of neighbors = 268694
Ave neighs/atom = 696.09845
Ave special neighs/atom = 0
Neighbor list builds = 500
Dangerous builds not checked
# Save the equilibrated structure
write_data ${structure}_eq.data
write_data 333U-50C-9-vasp_eq.data
System init for write_data ...

# use tmp to save initial length and tilt
variable tmp equal lx
variable lx0 equal ${tmp}
variable lx0 equal 16.6078
variable tmp equal ly
variable ly0 equal ${tmp}
variable ly0 equal 13.4502
variable tmp equal lz
variable lz0 equal ${tmp}
variable lz0 equal 17.3502

variable tmp equal yz
variable yz0 equal ${tmp}
variable yz0 equal 0.0034
variable tmp equal xz
variable xz0 equal ${tmp}
variable xz0 equal -1.0717
variable tmp equal xy
variable xy0 equal ${tmp}
variable xy0 equal -9.4505

# Write restart
write_restart equil.res
System init for write_restart ...

# dir: direction
# uxx Perturbation
variable dir equal 1
include displace.mod.lmp
# # Find which reference length to use
# if "${dir} == 1" then #    "variable len0 equal ${lx0}"
# if "${dir} == 2" then #    "variable len0 equal ${ly0}"
# if "${dir} == 3" then #    "variable len0 equal ${lz0}"
# if "${dir} == 4" then #    "variable len0 equal ${lz0}"
# if "${dir} == 5" then #    "variable len0 equal ${lz0}"
# if "${dir} == 6" then #    "variable len0 equal ${ly0}"

# Find which length (epsilon) to calculate
if "${dir} == 1" then    "variable len0 equal ${lx0}"    "variable dlen equal lx-${len0}"
variable len0 equal ${lx0}
variable len0 equal 16.6078
variable dlen equal lx-${len0}
variable dlen equal lx-16.6078
if "${dir} == 2" then    "variable len0 equal ${ly0}"    "variable dlen equal ly-${len0}"
if "${dir} == 3" then    "variable len0 equal ${lz0}"    "variable dlen equal lz-${len0}"
if "${dir} == 4" then    "variable len0 equal ${lx0}"    "variable dlen equal 2*(yz-${yz0})"
if "${dir} == 5" then    "variable len0 equal ${ly0}"    "variable dlen equal 2*(xz-${xz0})"
if "${dir} == 6" then    "variable len0 equal ${lz0}"    "variable dlen equal 2*(xy-${xy0})"

# strain vector (epsilon)
variable eps equal v_dlen/v_len0

# stress vector (sigma)
variable sig1 equal -f_avgp[1]*${ufac}
variable sig1 equal -f_avgp[1]*0.000101325
variable sig2 equal -f_avgp[2]*${ufac}
variable sig2 equal -f_avgp[2]*0.000101325
variable sig3 equal -f_avgp[3]*${ufac}
variable sig3 equal -f_avgp[3]*0.000101325
variable sig4 equal -f_avgp[6]*${ufac}
variable sig4 equal -f_avgp[6]*0.000101325
variable sig5 equal -f_avgp[5]*${ufac}
variable sig5 equal -f_avgp[5]*0.000101325
variable sig6 equal -f_avgp[4]*${ufac}
variable sig6 equal -f_avgp[4]*0.000101325

# Reset box and simulation parameters
clear
  using 2 OpenMP thread(s) per MPI task
# box tilt large
read_restart equil.res
Reading restart file ...
  restart file = 2 Aug 2023, LAMMPS = 2 Aug 2023
  restoring atom style full from restart
  triclinic box = (0 0 0) to (16.6078 13.4502 17.3502) with tilt (-9.4505 -1.0717 0.0034)
WARNING: Triclinic box skew is large. LAMMPS will run inefficiently. (src/domain.cpp:220)
  2 by 2 by 2 MPI processor grid
  pair style reaxff stores no restart info
  386 atoms
Finding 1-2 1-3 1-4 neighbors ...
  special bond factors lj:    0        0        0       
  special bond factors coul:  0        0        0       
     0 = max # of 1-2 neighbors
     0 = max # of 1-3 neighbors
     0 = max # of 1-4 neighbors
     1 = max # of special neighbors
  special bonds CPU = 0.000 seconds
  read_restart CPU = 0.003 seconds

# Negative deformation
variable delta equal -${up}*${len0}
variable delta equal -0.1*${len0}
variable delta equal -0.1*16.6078
variable deltaxy equal -${up}*xy
variable deltaxy equal -0.1*xy
variable deltaxz equal -${up}*xz
variable deltaxz equal -0.1*xz
variable deltayz equal -${up}*yz
variable deltayz equal -0.1*yz
print "*****debug*****"
*****debug*****
print "xy = $(xy), deltaxy = ${deltaxy}"
xy = -9.4504999999999999005, deltaxy = 0.94505
print "xz = $(xz), deltaxz = ${deltaxz}"
xz = -1.071700000000000097, deltaxz = 0.10717
print "yz = $(yz), deltayz = ${deltayz}"
yz = 0.0033999999999999998106, deltayz = -0.00034
print "*****"
*****

if "${dir} == 1" then    "fix deform_n all deform ${nthermo} x delta 0 ${delta} xy delta ${deltaxy} xz delta ${deltaxz} remap v units box flip no"
fix deform_n all deform ${nthermo} x delta 0 ${delta} xy delta ${deltaxy} xz delta ${deltaxz} remap v units box flip no
fix deform_n all deform 100 x delta 0 ${delta} xy delta ${deltaxy} xz delta ${deltaxz} remap v units box flip no
fix deform_n all deform 100 x delta 0 -1.66078 xy delta ${deltaxy} xz delta ${deltaxz} remap v units box flip no
fix deform_n all deform 100 x delta 0 -1.66078 xy delta 0.94505 xz delta ${deltaxz} remap v units box flip no
fix deform_n all deform 100 x delta 0 -1.66078 xy delta 0.94505 xz delta 0.10717 remap v units box flip no
if "${dir} == 2" then    "fix deform_n all deform ${nthermo} y delta 0 ${delta} yz delta ${deltayz} remap v units box flip no"
if "${dir} == 3" then    "fix deform_n all deform ${nthermo} z delta 0 ${delta} remap v units box flip no"
if "${dir} == 4" then    "fix deform_n all deform ${nthermo} yz delta ${delta} remap v units box flip no"
if "${dir} == 5" then    "fix deform_n all deform ${nthermo} xz delta ${delta} remap v units box flip no"
if "${dir} == 6" then    "fix deform_n all deform ${nthermo} xy delta ${delta} remap v units box flip no"

# Run MD for Negative deformation
print "*****Negative-deform ${dir} starts.*****"
*****Negative-deform 1 starts.*****
include ff.mod.lmp
# Setup forcefield, system
# undefine any fix ave/* fix before using reset_timestep
if "$(is_defined(fix,avgp))" then "unfix avgp"
if "$(is_defined(fix,avgl))" then "unfix avgl"
reset_timestep 0

# Assign the force field
pair_style reaxff NULL safezone 3.0 mincap 150
pair_coeff * * ${FF}
pair_coeff * * CHONSi.ff C H O Si


# charge method for reaxff
fix myqeq all qeq/reaxff 1 0.0 10.0 1.0e-6 reaxff maxiter 400
# Setup neighbor style
neighbor        2 bin
neigh_modify    every 10 delay 0 check no

# Setup output
thermo		${nthermo}
thermo		100
thermo_style custom step temp pe press vol lx ly lz
# thermo_style custom step vol lx ly lz yz xz xy
thermo_modify norm no
# thermo_modify line multi

# Sample pressure (and length vector)
fix avgp all ave/time  ${nevery} ${nrepeat} ${nfreq} c_thermo_press mode vector
fix avgp all ave/time  10 ${nrepeat} ${nfreq} c_thermo_press mode vector
fix avgp all ave/time  10 10 ${nfreq} c_thermo_press mode vector
fix avgp all ave/time  10 10 100 c_thermo_press mode vector
# variable lx equal lx
# variable ly equal ly
# variable lz equal lz
# fix avgl all ave/time  ${nevery} ${nrepeat} ${nfreq} v_lx v_ly v_lz

# nvt
fix fnvt all nvt temp ${temp} ${temp} ${tdamp}
fix fnvt all nvt temp 300 ${temp} ${tdamp}
fix fnvt all nvt temp 300 300 ${tdamp}
fix fnvt all nvt temp 300 300 50
Resetting global fix info from restart file:
  fix style: nvt, fix ID: fnvt


# Save stress, strain to "./stress_strain/stress_strain.neg${dir}.out"
print "# Stress and strain vectors, ${structure}, negative deformation ${dir}"       file stress_strain/stress_strain.neg${dir}.out screen no
print "# Stress and strain vectors, ${structure}, negative deformation ${dir}"       file stress_strain/stress_strain.neg1.out screen no
fix data all print ${nfreq} "${eps} ${sig1} ${sig2} ${sig3} ${sig4} ${sig5} ${sig6}"       append stress_strain/stress_strain.neg${dir}.out screen no       title "# eps sig1 sig2 sig3 sig4 sig5 sig6"
fix data all print 100 "${eps} ${sig1} ${sig2} ${sig3} ${sig4} ${sig5} ${sig6}"       append stress_strain/stress_strain.neg${dir}.out screen no       title "# eps sig1 sig2 sig3 sig4 sig5 sig6"
fix data all print 100 "${eps} ${sig1} ${sig2} ${sig3} ${sig4} ${sig5} ${sig6}"       append stress_strain/stress_strain.neg1.out screen no       title "# eps sig1 sig2 sig3 sig4 sig5 sig6"

# save trajectory
# if "$(is_defined(dump,dump_neg${dir1}))" then "undump dump_neg${dir1}"
dump dump_neg${dir} all custom ${nthermo} dump/neg_deform${dir}.lammpstrj id type q x y z
dump dump_neg1 all custom ${nthermo} dump/neg_deform${dir}.lammpstrj id type q x y z
dump dump_neg1 all custom 100 dump/neg_deform${dir}.lammpstrj id type q x y z
dump dump_neg1 all custom 100 dump/neg_deform1.lammpstrj id type q x y z
# variable dir1 equal ${dir}
run ${nrun}
run 5000
All restart file global fix info was re-assigned
Neighbor list info ...
  update: every = 10 steps, delay = 0 steps, check = no
  max neighbors/atom: 2000, page size: 100000
  master list distance cutoff = 12
  ghost atom cutoff = 12
  binsize = 6, bins = 5 3 3
  2 neighbor lists, perpetual/occasional/extra = 2 0 0
  (1) pair reaxff, perpetual
      attributes: half, newton off, ghost
      pair build: half/bin/newtoff/ghost
      stencil: full/ghost/bin/3d
      bin: standard
  (2) fix qeq/reaxff, perpetual, copy from (1)
      attributes: half, newton off
      pair build: copy
      stencil: none
      bin: none
Per MPI rank memory allocation (min/avg/max) = 144.7 | 146.2 | 147.7 Mbytes
   Step          Temp          PotEng         Press          Volume           Lx             Ly             Lz      
         0   294.31138     -44672.01      -10358.718      3875.657       16.6078        13.4502        17.3502      
       100   295.16297     -44659.29       3812.3682      3867.9057      16.574584      13.4502        17.3502      
       200   302.98243     -44665.255     -5271.3667      3860.1544      16.541369      13.4502        17.3502      
       300   287.68033     -44656.599      9512.3508      3852.4031      16.508153      13.4502        17.3502      
       400   293.27993     -44679          10422.292      3844.6517      16.474938      13.4502        17.3502      
       500   299.70638     -44687.263     -4455.4214      3836.9004      16.441722      13.4502        17.3502      
       600   288.58869     -44675.355     -2192.8485      3829.1491      16.408506      13.4502        17.3502      
       700   298.44242     -44675.331      2486.9291      3821.3978      16.375291      13.4502        17.3502      
       800   305.23878     -44672.8       -6642.191       3813.6465      16.342075      13.4502        17.3502      
       900   300.84521     -44677.737      11983.308      3805.8952      16.30886       13.4502        17.3502      
      1000   280.98247     -44678.179      5117.132       3798.1439      16.275644      13.4502        17.3502      
      1100   288.57301     -44678.558      13142.797      3790.3925      16.242428      13.4502        17.3502      
      1200   290.0271      -44670.897      4325.8285      3782.6412      16.209213      13.4502        17.3502      
      1300   297.99207     -44684.421      15948.609      3774.8899      16.175997      13.4502        17.3502      
      1400   275.10181     -44673.032      10943.195      3767.1386      16.142782      13.4502        17.3502      
      1500   297.1229      -44688.158      10718.509      3759.3873      16.109566      13.4502        17.3502      
      1600   313.01612     -44700.378      15596.487      3751.636       16.07635       13.4502        17.3502      
      1700   285.79432     -44683.869      14531.182      3743.8847      16.043135      13.4502        17.3502      
      1800   303.65994     -44703.643      20189.022      3736.1333      16.009919      13.4502        17.3502      
      1900   309.40775     -44699.501      17047.783      3728.382       15.976704      13.4502        17.3502      
      2000   303.74343     -44698.683      12136.931      3720.6307      15.943488      13.4502        17.3502      
      2100   275.72361     -44679.665      11863.637      3712.8794      15.910272      13.4502        17.3502      
      2200   316.80415     -44721.959      7810.2529      3705.1281      15.877057      13.4502        17.3502      
      2300   290.69453     -44686.311      20059.769      3697.3768      15.843841      13.4502        17.3502      
      2400   298.28735     -44684.041      4995.365       3689.6255      15.810626      13.4502        17.3502      
      2500   305.52759     -44684.138      15227.118      3681.8741      15.77741       13.4502        17.3502      
      2600   285.99803     -44652.06       11878.313      3674.1228      15.744194      13.4502        17.3502      
      2700   296.11584     -44683.156      27351.237      3666.3715      15.710979      13.4502        17.3502      
      2800   305.33659     -44706.656      12557.839      3658.6202      15.677763      13.4502        17.3502      
      2900   320.35141     -44718.797      17506.909      3650.8689      15.644548      13.4502        17.3502      
      3000   304.27541     -44693.596      24407.921      3643.1176      15.611332      13.4502        17.3502      
      3100   282.71348     -44688.819      14833.89       3635.3663      15.578116      13.4502        17.3502      
      3200   290.6813      -44706.153      25548.477      3627.6149      15.544901      13.4502        17.3502      
      3300   292.91594     -44694.236      27141.568      3619.8636      15.511685      13.4502        17.3502      
      3400   295.13746     -44669.037      17533.631      3612.1123      15.47847       13.4502        17.3502      
      3500   317.88146     -44670.353      28421.767      3604.361       15.445254      13.4502        17.3502      
      3600   292.25632     -44662.928      24071.645      3596.6097      15.412038      13.4502        17.3502      
      3700   280.10741     -44664.021      13817.976      3588.8584      15.378823      13.4502        17.3502      
      3800   315.556       -44692.63       28652.961      3581.1071      15.345607      13.4502        17.3502      
      3900   304.66848     -44684.618      42923.906      3573.3557      15.312392      13.4502        17.3502      
      4000   293.70957     -44683.072      7957.6503      3565.6044      15.279176      13.4502        17.3502      
      4100   325.98345     -44716.232      37732.899      3557.8531      15.24596       13.4502        17.3502      
      4200   291.04863     -44666.939      22335.461      3550.1018      15.212745      13.4502        17.3502      
      4300   309.84655     -44687.103      34032.814      3542.3505      15.179529      13.4502        17.3502      
      4400   285.81169     -44657.23       35516.286      3534.5992      15.146314      13.4502        17.3502      
      4500   289.4261      -44637.926      35037.708      3526.8479      15.113098      13.4502        17.3502      
      4600   296.93888     -44638.879      34006.264      3519.0965      15.079882      13.4502        17.3502      
      4700   309.75565     -44673.084      48421.671      3511.3452      15.046667      13.4502        17.3502      
      4800   290.67278     -44657.373      35179.221      3503.5939      15.013451      13.4502        17.3502      
      4900   283.57085     -44639.558      40786.555      3495.8426      14.980236      13.4502        17.3502      
      5000   304.17444     -44632.069      34532.945      3488.0913      14.94702       13.4502        17.3502      
Loop time of 302.998 on 16 procs for 5000 steps with 386 atoms

Performance: 0.713 ns/day, 33.666 hours/ns, 16.502 timesteps/s, 6.370 katom-step/s
99.5% CPU use with 8 MPI tasks x 2 OpenMP threads

MPI task timing breakdown:
Section |  min time  |  avg time  |  max time  |%varavg| %total
---------------------------------------------------------------
Pair    | 202.37     | 228.65     | 252.18     | 133.0 | 75.46
Bond    | 0.0014075  | 0.0018041  | 0.0023028  |   0.7 |  0.00
Neigh   | 16.021     | 17.96      | 19.617     |  32.4 |  5.93
Comm    | 7.1323     | 30.66      | 56.927     | 363.2 | 10.12
Output  | 0.016494   | 0.018384   | 0.020125   |   0.9 |  0.01
Modify  | 23.921     | 25.578     | 27.532     |  27.1 |  8.44
Other   |            | 0.1339     |            |       |  0.04

Nlocal:          48.25 ave          55 max          41 min
Histogram: 1 0 2 0 0 1 1 2 0 1
Nghost:        3995.75 ave        4061 max        3941 min
Histogram: 1 1 0 2 1 0 2 0 0 1
Neighs:        37399.9 ave       42151 max       32150 min
Histogram: 1 1 1 0 0 1 1 1 1 1

Total # of neighbors = 299199
Ave neighs/atom = 775.12694
Ave special neighs/atom = 0
Neighbor list builds = 500
Dangerous builds not checked
unfix deform_n
unfix data
undump dump_neg${dir}
undump dump_neg1

# Compute elastic constant from pressure
# d1 = -[pxx1-pxx0]/[(v_delta/v_len0] defined in input script
# variable C1neg equal ${d1}
# variable C2neg equal ${d2}
# variable C3neg equal ${d3}
# variable C4neg equal ${d4}
# variable C5neg equal ${d5}
# variable C6neg equal ${d6}

# Reset box and simulation parameters
clear
  using 2 OpenMP thread(s) per MPI task
# box tilt large
read_restart equil.res
Reading restart file ...
  restart file = 2 Aug 2023, LAMMPS = 2 Aug 2023
  restoring atom style full from restart
  triclinic box = (0 0 0) to (16.6078 13.4502 17.3502) with tilt (-9.4505 -1.0717 0.0034)
WARNING: Triclinic box skew is large. LAMMPS will run inefficiently. (src/domain.cpp:220)
  2 by 2 by 2 MPI processor grid
  pair style reaxff stores no restart info
  386 atoms
Finding 1-2 1-3 1-4 neighbors ...
  special bond factors lj:    0        0        0       
  special bond factors coul:  0        0        0       
     0 = max # of 1-2 neighbors
     0 = max # of 1-3 neighbors
     0 = max # of 1-4 neighbors
     1 = max # of special neighbors
  special bonds CPU = 0.000 seconds
  read_restart CPU = 0.003 seconds

# Positive deformation
variable delta equal ${up}*${len0}
variable delta equal 0.1*${len0}
variable delta equal 0.1*16.6078
variable deltaxy equal ${up}*xy
variable deltaxy equal 0.1*xy
variable deltaxz equal ${up}*xz
variable deltaxz equal 0.1*xz
variable deltayz equal ${up}*yz
variable deltayz equal 0.1*yz
if "${dir} == 1" then    "fix deform_p all deform ${nthermo} x delta 0 ${delta} xy delta ${deltaxy} xz delta ${deltaxz} remap v units box"
fix deform_p all deform ${nthermo} x delta 0 ${delta} xy delta ${deltaxy} xz delta ${deltaxz} remap v units box
fix deform_p all deform 100 x delta 0 ${delta} xy delta ${deltaxy} xz delta ${deltaxz} remap v units box
fix deform_p all deform 100 x delta 0 1.66078 xy delta ${deltaxy} xz delta ${deltaxz} remap v units box
fix deform_p all deform 100 x delta 0 1.66078 xy delta -0.94505 xz delta ${deltaxz} remap v units box
fix deform_p all deform 100 x delta 0 1.66078 xy delta -0.94505 xz delta -0.10717 remap v units box
if "${dir} == 2" then    "fix deform_p all deform ${nthermo} y delta 0 ${delta} yz delta ${deltayz} remap v units box"
if "${dir} == 3" then    "fix deform_p all deform ${nthermo} z delta 0 ${delta} remap v units box"
if "${dir} == 4" then    "fix deform_p all deform ${nthermo} yz delta ${delta} remap v units box"
if "${dir} == 5" then    "fix deform_p all deform ${nthermo} xz delta ${delta} remap v units box"
if "${dir} == 6" then    "fix deform_p all deform ${nthermo} xy delta ${delta} remap v units box"

# Run deformation MD
print "*****Positive-deform ${dir} starts.*****"
*****Positive-deform 1 starts.*****
include ff.mod.lmp
# Setup forcefield, system
# undefine any fix ave/* fix before using reset_timestep
if "$(is_defined(fix,avgp))" then "unfix avgp"
if "$(is_defined(fix,avgl))" then "unfix avgl"
reset_timestep 0

# Assign the force field
pair_style reaxff NULL safezone 3.0 mincap 150
pair_coeff * * ${FF}
pair_coeff * * CHONSi.ff C H O Si


# charge method for reaxff
fix myqeq all qeq/reaxff 1 0.0 10.0 1.0e-6 reaxff maxiter 400
# Setup neighbor style
neighbor        2 bin
neigh_modify    every 10 delay 0 check no

# Setup output
thermo		${nthermo}
thermo		100
thermo_style custom step temp pe press vol lx ly lz
# thermo_style custom step vol lx ly lz yz xz xy
thermo_modify norm no
# thermo_modify line multi

# Sample pressure (and length vector)
fix avgp all ave/time  ${nevery} ${nrepeat} ${nfreq} c_thermo_press mode vector
fix avgp all ave/time  10 ${nrepeat} ${nfreq} c_thermo_press mode vector
fix avgp all ave/time  10 10 ${nfreq} c_thermo_press mode vector
fix avgp all ave/time  10 10 100 c_thermo_press mode vector
# variable lx equal lx
# variable ly equal ly
# variable lz equal lz
# fix avgl all ave/time  ${nevery} ${nrepeat} ${nfreq} v_lx v_ly v_lz

# nvt
fix fnvt all nvt temp ${temp} ${temp} ${tdamp}
fix fnvt all nvt temp 300 ${temp} ${tdamp}
fix fnvt all nvt temp 300 300 ${tdamp}
fix fnvt all nvt temp 300 300 50
Resetting global fix info from restart file:
  fix style: nvt, fix ID: fnvt


# Save stress, strain to "./stress_strain/stress_strain.pos${dir}.out"
print "# Stress and strain vectors, ${structure}, positive deformation ${dir}"       file stress_strain/stress_strain.pos${dir}.out screen no
print "# Stress and strain vectors, ${structure}, positive deformation ${dir}"       file stress_strain/stress_strain.pos1.out screen no
fix data all print ${nfreq} "${eps} ${sig1} ${sig2} ${sig3} ${sig4} ${sig5} ${sig6}"       append stress_strain/stress_strain.pos${dir}.out screen no       title "# eps sig1 sig2 sig3 sig4 sig5 sig6"
fix data all print 100 "${eps} ${sig1} ${sig2} ${sig3} ${sig4} ${sig5} ${sig6}"       append stress_strain/stress_strain.pos${dir}.out screen no       title "# eps sig1 sig2 sig3 sig4 sig5 sig6"
fix data all print 100 "${eps} ${sig1} ${sig2} ${sig3} ${sig4} ${sig5} ${sig6}"       append stress_strain/stress_strain.pos1.out screen no       title "# eps sig1 sig2 sig3 sig4 sig5 sig6"

# save trajectory
# if "$(is_defined(dump,dump_pos${dir1}))" then "undump dump_pos${dir1}"
dump dump_pos${dir} all custom ${nthermo} dump/pos_deform${dir}.lammpstrj id type q x y z
dump dump_pos1 all custom ${nthermo} dump/pos_deform${dir}.lammpstrj id type q x y z
dump dump_pos1 all custom 100 dump/pos_deform${dir}.lammpstrj id type q x y z
dump dump_pos1 all custom 100 dump/pos_deform1.lammpstrj id type q x y z
run ${nrun}
run 5000
All restart file global fix info was re-assigned
Neighbor list info ...
  update: every = 10 steps, delay = 0 steps, check = no
  max neighbors/atom: 2000, page size: 100000
  master list distance cutoff = 12
  ghost atom cutoff = 12
  binsize = 6, bins = 5 3 3
  2 neighbor lists, perpetual/occasional/extra = 2 0 0
  (1) pair reaxff, perpetual
      attributes: half, newton off, ghost
      pair build: half/bin/newtoff/ghost
      stencil: full/ghost/bin/3d
      bin: standard
  (2) fix qeq/reaxff, perpetual, copy from (1)
      attributes: half, newton off
      pair build: copy
      stencil: none
      bin: none
Per MPI rank memory allocation (min/avg/max) = 144.8 | 146.2 | 147.7 Mbytes
   Step          Temp          PotEng         Press          Volume           Lx             Ly             Lz      
         0   294.31138     -44672.01      -10358.718      3875.657       16.6078        13.4502        17.3502      
       100   294.56562     -44659.571      3420.159       3883.4083      16.641016      13.4502        17.3502      
       200   307.30959     -44665.097     -9064.861       3891.1596      16.674231      13.4502        17.3502      
       300   291.26622     -44664.598      6460.7463      3898.9109      16.707447      13.4502        17.3502      
       400   275.22012     -44664.176     -6867.096       3906.6622      16.740662      13.4502        17.3502      
       500   297.52948     -44678.514      938.0421       3914.4136      16.773878      13.4502        17.3502      
       600   314.45041     -44657.616     -9259.044       3922.1649      16.807094      13.4502        17.3502      
       700   334.02986     -44663.013     -5364.2101      3929.9162      16.840309      13.4502        17.3502      
       800   309.78664     -44660.382      4549.951       3937.6675      16.873525      13.4502        17.3502      
       900   297.55998     -44665.791      8481.3893      3945.4188      16.90674       13.4502        17.3502      
      1000   283.07266     -44649.373     -9134.1509      3953.1701      16.939956      13.4502        17.3502      
      1100   306.86214     -44663.016     -1439.7471      3960.9214      16.973172      13.4502        17.3502      
      1200   313.29399     -44634.372      3045.5111      3968.6728      17.006387      13.4502        17.3502      
      1300   321.73436     -44625.734     -913.76374      3976.4241      17.039603      13.4502        17.3502      
      1400   294.48329     -44633.814     -453.11321      3984.1754      17.072818      13.4502        17.3502      
      1500   305.27692     -44653.66      -387.85919      3991.9267      17.106034      13.4502        17.3502      
      1600   286.31578     -44633.79      -9493.2019      3999.678       17.13925       13.4502        17.3502      
      1700   294.06151     -44630.14      -8854.0415      4007.4293      17.172465      13.4502        17.3502      
      1800   315.80692     -44636.707     -5505.3352      4015.1806      17.205681      13.4502        17.3502      
      1900   308.62211     -44618.672     -5498.4152      4022.932       17.238896      13.4502        17.3502      
      2000   300.07782     -44633.23      -10034.836      4030.6833      17.272112      13.4502        17.3502      
      2100   316.53704     -44660.771     -3380.7361      4038.4346      17.305328      13.4502        17.3502      
      2200   294.3329      -44630.138     -11297.44       4046.1859      17.338543      13.4502        17.3502      
      2300   303.91581     -44623.722      2224.4301      4053.9372      17.371759      13.4502        17.3502      
      2400   319.31676     -44596.658     -11872.67       4061.6885      17.404974      13.4502        17.3502      
      2500   307.08967     -44578.832     -8719.1447      4069.4398      17.43819       13.4502        17.3502      
      2600   320.51607     -44621.827     -5114.6032      4077.1912      17.471406      13.4502        17.3502      
      2700   314.56914     -44621.98      -8870.314       4084.9425      17.504621      13.4502        17.3502      
      2800   306.91997     -44620.355     -13400.272      4092.6938      17.537837      13.4502        17.3502      
      2900   281.28916     -44597.929     -17136.766      4100.4451      17.571052      13.4502        17.3502      
      3000   305.53138     -44610.99      -19759.851      4108.1964      17.604268      13.4502        17.3502      
      3100   309.44711     -44571.617     -18205.844      4115.9477      17.637484      13.4502        17.3502      
      3200   334.96294     -44583.3       -12119.713      4123.699       17.670699      13.4502        17.3502      
      3300   318.55979     -44597.418     -6964.9084      4131.4504      17.703915      13.4502        17.3502      
      3400   289.65096     -44580.802     -15598.138      4139.2017      17.73713       13.4502        17.3502      
      3500   281.16636     -44581.924     -28350.428      4146.953       17.770346      13.4502        17.3502      
      3600   295.73232     -44588.196     -13515.986      4154.7043      17.803562      13.4502        17.3502      
      3700   297.08396     -44572.794     -17017.643      4162.4556      17.836777      13.4502        17.3502      
      3800   295.41693     -44571.039     -21027.659      4170.2069      17.869993      13.4502        17.3502      
      3900   303.14066     -44587.946     -11016.127      4177.9582      17.903208      13.4502        17.3502      
      4000   287.33861     -44583.759     -27406.702      4185.7096      17.936424      13.4502        17.3502      
      4100   303.64432     -44586.389     -13696.074      4193.4609      17.96964       13.4502        17.3502      
      4200   294.90625     -44548.792     -21182.84       4201.2122      18.002855      13.4502        17.3502      
      4300   299.36896     -44507.473     -23502.841      4208.9635      18.036071      13.4502        17.3502      
      4400   305.27504     -44522.389     -19622.983      4216.7148      18.069286      13.4502        17.3502      
      4500   304.39776     -44544.809     -12544.146      4224.4661      18.102502      13.4502        17.3502      
      4600   293.36444     -44536.138     -23106.589      4232.2174      18.135718      13.4502        17.3502      
      4700   302.82304     -44553.17      -17408.388      4239.9688      18.168933      13.4502        17.3502      
      4800   293.6663      -44561.876     -23059.813      4247.7201      18.202149      13.4502        17.3502      
      4900   275.43373     -44541.902     -20450.574      4255.4714      18.235364      13.4502        17.3502      
      5000   300.77794     -44579.946     -17440.22       4263.2227      18.26858       13.4502        17.3502      
Loop time of 247.595 on 16 procs for 5000 steps with 386 atoms

Performance: 0.872 ns/day, 27.511 hours/ns, 20.194 timesteps/s, 7.795 katom-step/s
99.5% CPU use with 8 MPI tasks x 2 OpenMP threads

MPI task timing breakdown:
Section |  min time  |  avg time  |  max time  |%varavg| %total
---------------------------------------------------------------
Pair    | 143.68     | 181.84     | 207.36     | 206.6 | 73.44
Bond    | 0.0014131  | 0.0017106  | 0.0020444  |   0.6 |  0.00
Neigh   | 11.439     | 14.41      | 16.499     |  56.6 |  5.82
Comm    | 3.1405     | 28.662     | 66.818     | 520.4 | 11.58
Output  | 0.01644    | 0.018392   | 0.020003   |   0.7 |  0.01
Modify  | 20.437     | 22.536     | 25.525     |  45.5 |  9.10
Other   |            | 0.1236     |            |       |  0.05

Nlocal:          48.25 ave          56 max          41 min
Histogram: 1 0 1 1 2 0 1 0 1 1
Nghost:        3352.88 ave        3374 max        3324 min
Histogram: 1 0 1 0 1 0 1 2 1 1
Neighs:        30464.5 ave       34987 max       26170 min
Histogram: 1 1 0 1 2 0 1 0 1 1

Total # of neighbors = 243716
Ave neighs/atom = 631.3886
Ave special neighs/atom = 0
Neighbor list builds = 500
Dangerous builds not checked
unfix deform_p
unfix data
undump dump_pos${dir}
undump dump_pos1

# # Combine positive and negative
# variable C1${dir} equal 0.5*(${C1neg}+${C1pos})
# variable C2${dir} equal 0.5*(${C2neg}+${C2pos})
# variable C3${dir} equal 0.5*(${C3neg}+${C3pos})
# variable C4${dir} equal 0.5*(${C4neg}+${C4pos})
# variable C5${dir} equal 0.5*(${C5neg}+${C5pos})
# variable C6${dir} equal 0.5*(${C6neg}+${C6pos})

# Delete dir to make sure it is not reused
variable dir delete
# uyy Perturbation
variable dir equal 2
include displace.mod.lmp
# # Find which reference length to use
# if "${dir} == 1" then #    "variable len0 equal ${lx0}"
# if "${dir} == 2" then #    "variable len0 equal ${ly0}"
# if "${dir} == 3" then #    "variable len0 equal ${lz0}"
# if "${dir} == 4" then #    "variable len0 equal ${lz0}"
# if "${dir} == 5" then #    "variable len0 equal ${lz0}"
# if "${dir} == 6" then #    "variable len0 equal ${ly0}"

# Find which length (epsilon) to calculate
if "${dir} == 1" then    "variable len0 equal ${lx0}"    "variable dlen equal lx-${len0}"
if "${dir} == 2" then    "variable len0 equal ${ly0}"    "variable dlen equal ly-${len0}"
variable len0 equal ${ly0}
variable len0 equal 13.4502
variable dlen equal ly-${len0}
variable dlen equal ly-13.4502
if "${dir} == 3" then    "variable len0 equal ${lz0}"    "variable dlen equal lz-${len0}"
if "${dir} == 4" then    "variable len0 equal ${lx0}"    "variable dlen equal 2*(yz-${yz0})"
if "${dir} == 5" then    "variable len0 equal ${ly0}"    "variable dlen equal 2*(xz-${xz0})"
if "${dir} == 6" then    "variable len0 equal ${lz0}"    "variable dlen equal 2*(xy-${xy0})"

# strain vector (epsilon)
variable eps equal v_dlen/v_len0

# stress vector (sigma)
variable sig1 equal -f_avgp[1]*${ufac}
variable sig1 equal -f_avgp[1]*0.000101325
variable sig2 equal -f_avgp[2]*${ufac}
variable sig2 equal -f_avgp[2]*0.000101325
variable sig3 equal -f_avgp[3]*${ufac}
variable sig3 equal -f_avgp[3]*0.000101325
variable sig4 equal -f_avgp[6]*${ufac}
variable sig4 equal -f_avgp[6]*0.000101325
variable sig5 equal -f_avgp[5]*${ufac}
variable sig5 equal -f_avgp[5]*0.000101325
variable sig6 equal -f_avgp[4]*${ufac}
variable sig6 equal -f_avgp[4]*0.000101325

# Reset box and simulation parameters
clear
  using 2 OpenMP thread(s) per MPI task
# box tilt large
read_restart equil.res
Reading restart file ...
  restart file = 2 Aug 2023, LAMMPS = 2 Aug 2023
  restoring atom style full from restart
  triclinic box = (0 0 0) to (16.6078 13.4502 17.3502) with tilt (-9.4505 -1.0717 0.0034)
WARNING: Triclinic box skew is large. LAMMPS will run inefficiently. (src/domain.cpp:220)
  2 by 2 by 2 MPI processor grid
  pair style reaxff stores no restart info
  386 atoms
Finding 1-2 1-3 1-4 neighbors ...
  special bond factors lj:    0        0        0       
  special bond factors coul:  0        0        0       
     0 = max # of 1-2 neighbors
     0 = max # of 1-3 neighbors
     0 = max # of 1-4 neighbors
     1 = max # of special neighbors
  special bonds CPU = 0.000 seconds
  read_restart CPU = 0.003 seconds

# Negative deformation
variable delta equal -${up}*${len0}
variable delta equal -0.1*${len0}
variable delta equal -0.1*13.4502
variable deltaxy equal -${up}*xy
variable deltaxy equal -0.1*xy
variable deltaxz equal -${up}*xz
variable deltaxz equal -0.1*xz
variable deltayz equal -${up}*yz
variable deltayz equal -0.1*yz
print "*****debug*****"
*****debug*****
print "xy = $(xy), deltaxy = ${deltaxy}"
xy = -9.4504999999999999005, deltaxy = 0.94505
print "xz = $(xz), deltaxz = ${deltaxz}"
xz = -1.071700000000000097, deltaxz = 0.10717
print "yz = $(yz), deltayz = ${deltayz}"
yz = 0.0033999999999999998106, deltayz = -0.00034
print "*****"
*****

if "${dir} == 1" then    "fix deform_n all deform ${nthermo} x delta 0 ${delta} xy delta ${deltaxy} xz delta ${deltaxz} remap v units box flip no"
if "${dir} == 2" then    "fix deform_n all deform ${nthermo} y delta 0 ${delta} yz delta ${deltayz} remap v units box flip no"
fix deform_n all deform ${nthermo} y delta 0 ${delta} yz delta ${deltayz} remap v units box flip no
fix deform_n all deform 100 y delta 0 ${delta} yz delta ${deltayz} remap v units box flip no
fix deform_n all deform 100 y delta 0 -1.34502 yz delta ${deltayz} remap v units box flip no
fix deform_n all deform 100 y delta 0 -1.34502 yz delta -0.00034 remap v units box flip no
if "${dir} == 3" then    "fix deform_n all deform ${nthermo} z delta 0 ${delta} remap v units box flip no"
if "${dir} == 4" then    "fix deform_n all deform ${nthermo} yz delta ${delta} remap v units box flip no"
if "${dir} == 5" then    "fix deform_n all deform ${nthermo} xz delta ${delta} remap v units box flip no"
if "${dir} == 6" then    "fix deform_n all deform ${nthermo} xy delta ${delta} remap v units box flip no"

# Run MD for Negative deformation
print "*****Negative-deform ${dir} starts.*****"
*****Negative-deform 2 starts.*****
include ff.mod.lmp
# Setup forcefield, system
# undefine any fix ave/* fix before using reset_timestep
if "$(is_defined(fix,avgp))" then "unfix avgp"
if "$(is_defined(fix,avgl))" then "unfix avgl"
reset_timestep 0

# Assign the force field
pair_style reaxff NULL safezone 3.0 mincap 150
pair_coeff * * ${FF}
pair_coeff * * CHONSi.ff C H O Si


# charge method for reaxff
fix myqeq all qeq/reaxff 1 0.0 10.0 1.0e-6 reaxff maxiter 400
# Setup neighbor style
neighbor        2 bin
neigh_modify    every 10 delay 0 check no

# Setup output
thermo		${nthermo}
thermo		100
thermo_style custom step temp pe press vol lx ly lz
# thermo_style custom step vol lx ly lz yz xz xy
thermo_modify norm no
# thermo_modify line multi

# Sample pressure (and length vector)
fix avgp all ave/time  ${nevery} ${nrepeat} ${nfreq} c_thermo_press mode vector
fix avgp all ave/time  10 ${nrepeat} ${nfreq} c_thermo_press mode vector
fix avgp all ave/time  10 10 ${nfreq} c_thermo_press mode vector
fix avgp all ave/time  10 10 100 c_thermo_press mode vector
# variable lx equal lx
# variable ly equal ly
# variable lz equal lz
# fix avgl all ave/time  ${nevery} ${nrepeat} ${nfreq} v_lx v_ly v_lz

# nvt
fix fnvt all nvt temp ${temp} ${temp} ${tdamp}
fix fnvt all nvt temp 300 ${temp} ${tdamp}
fix fnvt all nvt temp 300 300 ${tdamp}
fix fnvt all nvt temp 300 300 50
Resetting global fix info from restart file:
  fix style: nvt, fix ID: fnvt


# Save stress, strain to "./stress_strain/stress_strain.neg${dir}.out"
print "# Stress and strain vectors, ${structure}, negative deformation ${dir}"       file stress_strain/stress_strain.neg${dir}.out screen no
print "# Stress and strain vectors, ${structure}, negative deformation ${dir}"       file stress_strain/stress_strain.neg2.out screen no
fix data all print ${nfreq} "${eps} ${sig1} ${sig2} ${sig3} ${sig4} ${sig5} ${sig6}"       append stress_strain/stress_strain.neg${dir}.out screen no       title "# eps sig1 sig2 sig3 sig4 sig5 sig6"
fix data all print 100 "${eps} ${sig1} ${sig2} ${sig3} ${sig4} ${sig5} ${sig6}"       append stress_strain/stress_strain.neg${dir}.out screen no       title "# eps sig1 sig2 sig3 sig4 sig5 sig6"
fix data all print 100 "${eps} ${sig1} ${sig2} ${sig3} ${sig4} ${sig5} ${sig6}"       append stress_strain/stress_strain.neg2.out screen no       title "# eps sig1 sig2 sig3 sig4 sig5 sig6"

# save trajectory
# if "$(is_defined(dump,dump_neg${dir1}))" then "undump dump_neg${dir1}"
dump dump_neg${dir} all custom ${nthermo} dump/neg_deform${dir}.lammpstrj id type q x y z
dump dump_neg2 all custom ${nthermo} dump/neg_deform${dir}.lammpstrj id type q x y z
dump dump_neg2 all custom 100 dump/neg_deform${dir}.lammpstrj id type q x y z
dump dump_neg2 all custom 100 dump/neg_deform2.lammpstrj id type q x y z
# variable dir1 equal ${dir}
run ${nrun}
run 5000
All restart file global fix info was re-assigned
Neighbor list info ...
  update: every = 10 steps, delay = 0 steps, check = no
  max neighbors/atom: 2000, page size: 100000
  master list distance cutoff = 12
  ghost atom cutoff = 12
  binsize = 6, bins = 5 3 3
  2 neighbor lists, perpetual/occasional/extra = 2 0 0
  (1) pair reaxff, perpetual
      attributes: half, newton off, ghost
      pair build: half/bin/newtoff/ghost
      stencil: full/ghost/bin/3d
      bin: standard
  (2) fix qeq/reaxff, perpetual, copy from (1)
      attributes: half, newton off
      pair build: copy
      stencil: none
      bin: none
Per MPI rank memory allocation (min/avg/max) = 144.7 | 146.2 | 147.7 Mbytes
   Step          Temp          PotEng         Press          Volume           Lx             Ly             Lz      
         0   294.31138     -44672.01      -10358.718      3875.657       16.6078        13.4502        17.3502      
       100   295.13011     -44659.234      3756.9571      3867.9057      16.6078        13.4233        17.3502      
       200   301.74956     -44665.06       1634.5567      3860.1544      16.6078        13.396399      17.3502      
       300   299.11226     -44670.924      5060.2148      3852.4031      16.6078        13.369499      17.3502      
       400   277.24211     -44671.889      15625.179      3844.6517      16.6078        13.342598      17.3502      
       500   295.67779     -44686.007      2961.5624      3836.9004      16.6078        13.315698      17.3502      
       600   307.06397     -44684.139     -6397.0704      3829.1491      16.6078        13.288798      17.3502      
       700   321.03061     -44657.775      2151.8441      3821.3978      16.6078        13.261897      17.3502      
       800   308.89911     -44641.784     -1873.1781      3813.6465      16.6078        13.234997      17.3502      
       900   303.16084     -44663.576      12933.423      3805.8952      16.6078        13.208096      17.3502      
      1000   303.41694     -44682.31       17728.871      3798.1439      16.6078        13.181196      17.3502      
      1100   301.44026     -44686.455      632.55455      3790.3925      16.6078        13.154296      17.3502      
      1200   297.75672     -44685.308      3505.4955      3782.6412      16.6078        13.127395      17.3502      
      1300   302.97309     -44715.772      14330.771      3774.8899      16.6078        13.100495      17.3502      
      1400   289.38289     -44706.146      12877.922      3767.1386      16.6078        13.073594      17.3502      
      1500   292.95426     -44692.933     -1334.3886      3759.3873      16.6078        13.046694      17.3502      
      1600   311.87251     -44704.963      11552.874      3751.636       16.6078        13.019794      17.3502      
      1700   317.84974     -44701.997      3065.4699      3743.8847      16.6078        12.992893      17.3502      
      1800   309.56064     -44695.712      8088.092       3736.1333      16.6078        12.965993      17.3502      
      1900   300.47504     -44710.982      6765.778       3728.382       16.6078        12.939092      17.3502      
      2000   285.50833     -44698.137      10080.26       3720.6307      16.6078        12.912192      17.3502      
      2100   304.9696      -44688.493      13751.433      3712.8794      16.6078        12.885292      17.3502      
      2200   309.92767     -44664.915      14049.64       3705.1281      16.6078        12.858391      17.3502      
      2300   302.55344     -44659.283      7342.7768      3697.3768      16.6078        12.831491      17.3502      
      2400   292.90813     -44684.302      22593.375      3689.6255      16.6078        12.80459       17.3502      
      2500   293.31711     -44688.466      8350.0992      3681.8741      16.6078        12.77769       17.3502      
      2600   290.58501     -44677.961      10253.982      3674.1228      16.6078        12.75079       17.3502      
      2700   319.15302     -44671.465      23946.262      3666.3715      16.6078        12.723889      17.3502      
      2800   308.60061     -44636.902      25129.779      3658.6202      16.6078        12.696989      17.3502      
      2900   303.86514     -44645.13       16668.504      3650.8689      16.6078        12.670088      17.3502      
      3000   295.49998     -44657.437      18662.758      3643.1176      16.6078        12.643188      17.3502      
      3100   290.65744     -44658.884      25224.376      3635.3663      16.6078        12.616288      17.3502      
      3200   288.08767     -44657.846      17916.795      3627.6149      16.6078        12.589387      17.3502      
      3300   294.39691     -44652.456      29976.844      3619.8636      16.6078        12.562487      17.3502      
      3400   307.99756     -44640.622      29761.512      3612.1123      16.6078        12.535586      17.3502      
      3500   294.19878     -44641.849      22325.413      3604.361       16.6078        12.508686      17.3502      
      3600   299.33        -44666.735      15924.337      3596.6097      16.6078        12.481786      17.3502      
      3700   304.86043     -44668.394      18008.446      3588.8584      16.6078        12.454885      17.3502      
      3800   291.32697     -44625.128      27310.297      3581.1071      16.6078        12.427985      17.3502      
      3900   315.00513     -44614.177      26897.887      3573.3557      16.6078        12.401084      17.3502      
      4000   297.71972     -44585.833      33480.871      3565.6044      16.6078        12.374184      17.3502      
      4100   291.85035     -44619.887      29931.248      3557.8531      16.6078        12.347284      17.3502      
      4200   289.45474     -44625.98       27810.928      3550.1018      16.6078        12.320383      17.3502      
      4300   274.28166     -44599.746      29788.032      3542.3505      16.6078        12.293483      17.3502      
      4400   310.32045     -44646.278      27005.814      3534.5992      16.6078        12.266582      17.3502      
      4500   281.10483     -44635.067      38383.788      3526.8479      16.6078        12.239682      17.3502      
      4600   292.71785     -44636.446      39878.074      3519.0965      16.6078        12.212782      17.3502      
      4700   291.86582     -44609.51       43782.057      3511.3452      16.6078        12.185881      17.3502      
      4800   334.13251     -44600.517      47539.459      3503.5939      16.6078        12.158981      17.3502      
      4900   324.85044     -44592.481      38060.727      3495.8426      16.6078        12.13208       17.3502      
      5000   322.09415     -44603.977      37987.102      3488.0913      16.6078        12.10518       17.3502      
Loop time of 310.244 on 16 procs for 5000 steps with 386 atoms

Performance: 0.696 ns/day, 34.472 hours/ns, 16.116 timesteps/s, 6.221 katom-step/s
99.4% CPU use with 8 MPI tasks x 2 OpenMP threads

MPI task timing breakdown:
Section |  min time  |  avg time  |  max time  |%varavg| %total
---------------------------------------------------------------
Pair    | 194.03     | 232.3      | 257.42     | 141.2 | 74.88
Bond    | 0.0014573  | 0.0018007  | 0.0022034  |   0.6 |  0.00
Neigh   | 15.291     | 18.387     | 20.36      |  39.8 |  5.93
Comm    | 8.8487     | 33.944     | 72.213     | 368.9 | 10.94
Output  | 0.019      | 0.02153    | 0.024468   |   1.2 |  0.01
Modify  | 23.387     | 25.369     | 28.454     |  33.8 |  8.18
Other   |            | 0.2197     |            |       |  0.07

Nlocal:          48.25 ave          57 max          40 min
Histogram: 1 1 2 0 0 1 0 1 1 1
Nghost:        4195.88 ave        4254 max        4131 min
Histogram: 2 0 1 1 0 0 0 1 1 2
Neighs:        37380.1 ave       43680 max       31382 min
Histogram: 1 1 1 1 0 1 0 1 1 1

Total # of neighbors = 299041
Ave neighs/atom = 774.71762
Ave special neighs/atom = 0
Neighbor list builds = 500
Dangerous builds not checked
unfix deform_n
unfix data
undump dump_neg${dir}
undump dump_neg2

# Compute elastic constant from pressure
# d1 = -[pxx1-pxx0]/[(v_delta/v_len0] defined in input script
# variable C1neg equal ${d1}
# variable C2neg equal ${d2}
# variable C3neg equal ${d3}
# variable C4neg equal ${d4}
# variable C5neg equal ${d5}
# variable C6neg equal ${d6}

# Reset box and simulation parameters
clear
  using 2 OpenMP thread(s) per MPI task
# box tilt large
read_restart equil.res
Reading restart file ...
  restart file = 2 Aug 2023, LAMMPS = 2 Aug 2023
  restoring atom style full from restart
  triclinic box = (0 0 0) to (16.6078 13.4502 17.3502) with tilt (-9.4505 -1.0717 0.0034)
WARNING: Triclinic box skew is large. LAMMPS will run inefficiently. (src/domain.cpp:220)
  2 by 2 by 2 MPI processor grid
  pair style reaxff stores no restart info
  386 atoms
Finding 1-2 1-3 1-4 neighbors ...
  special bond factors lj:    0        0        0       
  special bond factors coul:  0        0        0       
     0 = max # of 1-2 neighbors
     0 = max # of 1-3 neighbors
     0 = max # of 1-4 neighbors
     1 = max # of special neighbors
  special bonds CPU = 0.000 seconds
  read_restart CPU = 0.003 seconds

# Positive deformation
variable delta equal ${up}*${len0}
variable delta equal 0.1*${len0}
variable delta equal 0.1*13.4502
variable deltaxy equal ${up}*xy
variable deltaxy equal 0.1*xy
variable deltaxz equal ${up}*xz
variable deltaxz equal 0.1*xz
variable deltayz equal ${up}*yz
variable deltayz equal 0.1*yz
if "${dir} == 1" then    "fix deform_p all deform ${nthermo} x delta 0 ${delta} xy delta ${deltaxy} xz delta ${deltaxz} remap v units box"
if "${dir} == 2" then    "fix deform_p all deform ${nthermo} y delta 0 ${delta} yz delta ${deltayz} remap v units box"
fix deform_p all deform ${nthermo} y delta 0 ${delta} yz delta ${deltayz} remap v units box
fix deform_p all deform 100 y delta 0 ${delta} yz delta ${deltayz} remap v units box
fix deform_p all deform 100 y delta 0 1.34502 yz delta ${deltayz} remap v units box
fix deform_p all deform 100 y delta 0 1.34502 yz delta 0.00034 remap v units box
if "${dir} == 3" then    "fix deform_p all deform ${nthermo} z delta 0 ${delta} remap v units box"
if "${dir} == 4" then    "fix deform_p all deform ${nthermo} yz delta ${delta} remap v units box"
if "${dir} == 5" then    "fix deform_p all deform ${nthermo} xz delta ${delta} remap v units box"
if "${dir} == 6" then    "fix deform_p all deform ${nthermo} xy delta ${delta} remap v units box"

# Run deformation MD
print "*****Positive-deform ${dir} starts.*****"
*****Positive-deform 2 starts.*****
include ff.mod.lmp
# Setup forcefield, system
# undefine any fix ave/* fix before using reset_timestep
if "$(is_defined(fix,avgp))" then "unfix avgp"
if "$(is_defined(fix,avgl))" then "unfix avgl"
reset_timestep 0

# Assign the force field
pair_style reaxff NULL safezone 3.0 mincap 150
pair_coeff * * ${FF}
pair_coeff * * CHONSi.ff C H O Si


# charge method for reaxff
fix myqeq all qeq/reaxff 1 0.0 10.0 1.0e-6 reaxff maxiter 400
# Setup neighbor style
neighbor        2 bin
neigh_modify    every 10 delay 0 check no

# Setup output
thermo		${nthermo}
thermo		100
thermo_style custom step temp pe press vol lx ly lz
# thermo_style custom step vol lx ly lz yz xz xy
thermo_modify norm no
# thermo_modify line multi

# Sample pressure (and length vector)
fix avgp all ave/time  ${nevery} ${nrepeat} ${nfreq} c_thermo_press mode vector
fix avgp all ave/time  10 ${nrepeat} ${nfreq} c_thermo_press mode vector
fix avgp all ave/time  10 10 ${nfreq} c_thermo_press mode vector
fix avgp all ave/time  10 10 100 c_thermo_press mode vector
# variable lx equal lx
# variable ly equal ly
# variable lz equal lz
# fix avgl all ave/time  ${nevery} ${nrepeat} ${nfreq} v_lx v_ly v_lz

# nvt
fix fnvt all nvt temp ${temp} ${temp} ${tdamp}
fix fnvt all nvt temp 300 ${temp} ${tdamp}
fix fnvt all nvt temp 300 300 ${tdamp}
fix fnvt all nvt temp 300 300 50
Resetting global fix info from restart file:
  fix style: nvt, fix ID: fnvt


# Save stress, strain to "./stress_strain/stress_strain.pos${dir}.out"
print "# Stress and strain vectors, ${structure}, positive deformation ${dir}"       file stress_strain/stress_strain.pos${dir}.out screen no
print "# Stress and strain vectors, ${structure}, positive deformation ${dir}"       file stress_strain/stress_strain.pos2.out screen no
fix data all print ${nfreq} "${eps} ${sig1} ${sig2} ${sig3} ${sig4} ${sig5} ${sig6}"       append stress_strain/stress_strain.pos${dir}.out screen no       title "# eps sig1 sig2 sig3 sig4 sig5 sig6"
fix data all print 100 "${eps} ${sig1} ${sig2} ${sig3} ${sig4} ${sig5} ${sig6}"       append stress_strain/stress_strain.pos${dir}.out screen no       title "# eps sig1 sig2 sig3 sig4 sig5 sig6"
fix data all print 100 "${eps} ${sig1} ${sig2} ${sig3} ${sig4} ${sig5} ${sig6}"       append stress_strain/stress_strain.pos2.out screen no       title "# eps sig1 sig2 sig3 sig4 sig5 sig6"

# save trajectory
# if "$(is_defined(dump,dump_pos${dir1}))" then "undump dump_pos${dir1}"
dump dump_pos${dir} all custom ${nthermo} dump/pos_deform${dir}.lammpstrj id type q x y z
dump dump_pos2 all custom ${nthermo} dump/pos_deform${dir}.lammpstrj id type q x y z
dump dump_pos2 all custom 100 dump/pos_deform${dir}.lammpstrj id type q x y z
dump dump_pos2 all custom 100 dump/pos_deform2.lammpstrj id type q x y z
run ${nrun}
run 5000
All restart file global fix info was re-assigned
Neighbor list info ...
  update: every = 10 steps, delay = 0 steps, check = no
  max neighbors/atom: 2000, page size: 100000
  master list distance cutoff = 12
  ghost atom cutoff = 12
  binsize = 6, bins = 5 3 3
  2 neighbor lists, perpetual/occasional/extra = 2 0 0
  (1) pair reaxff, perpetual
      attributes: half, newton off, ghost
      pair build: half/bin/newtoff/ghost
      stencil: full/ghost/bin/3d
      bin: standard
  (2) fix qeq/reaxff, perpetual, copy from (1)
      attributes: half, newton off
      pair build: copy
      stencil: none
      bin: none
Per MPI rank memory allocation (min/avg/max) = 144.8 | 146.2 | 147.7 Mbytes
   Step          Temp          PotEng         Press          Volume           Lx             Ly             Lz      
         0   294.31138     -44672.01      -10358.718      3875.657       16.6078        13.4502        17.3502      
       100   294.59461     -44659.891      3727.9534      3883.4083      16.6078        13.4771        17.3502      
       200   305.87186     -44665.462     -7356.0259      3891.1596      16.6078        13.504001      17.3502      
       300   294.29477     -44666.79       2780.5948      3898.9109      16.6078        13.530901      17.3502      
       400   275.76014     -44670.42       2257.7691      3906.6622      16.6078        13.557802      17.3502      
       500   305.25007     -44701.168     -13123.577      3914.4136      16.6078        13.584702      17.3502      
       600   282.19409     -44658.103     -6038.0694      3922.1649      16.6078        13.611602      17.3502      
       700   297.28295     -44647.013     -7109.5634      3929.9162      16.6078        13.638503      17.3502      
       800   308.39444     -44651.138      5464.3906      3937.6675      16.6078        13.665403      17.3502      
       900   305.40708     -44668.894      17667.242      3945.4188      16.6078        13.692304      17.3502      
      1000   291.53897     -44677.555      14287.504      3953.1701      16.6078        13.719204      17.3502      
      1100   271.50084     -44662.496      3101.1623      3960.9214      16.6078        13.746104      17.3502      
      1200   299.95689     -44669.076     -4889.8069      3968.6728      16.6078        13.773005      17.3502      
      1300   315.23974     -44639.34      -15888.327      3976.4241      16.6078        13.799905      17.3502      
      1400   295.26044     -44622.978     -499.48439      3984.1754      16.6078        13.826806      17.3502      
      1500   305.15719     -44658.074     -67.337149      3991.9267      16.6078        13.853706      17.3502      
      1600   284.15001     -44652.31       17697.001      3999.678       16.6078        13.880606      17.3502      
      1700   294.19157     -44663.938      4522.0887      4007.4293      16.6078        13.907507      17.3502      
      1800   300.17978     -44660.376     -11842.85       4015.1806      16.6078        13.934407      17.3502      
      1900   302.32389     -44673.67      -5515.8506      4022.932       16.6078        13.961308      17.3502      
      2000   304.77695     -44684.954     -63.493849      4030.6833      16.6078        13.988208      17.3502      
      2100   293.79155     -44691.448     -12338.003      4038.4346      16.6078        14.015108      17.3502      
      2200   285.73774     -44674.091     -2777.5649      4046.1859      16.6078        14.042009      17.3502      
      2300   286.80128     -44637.465     -12577.505      4053.9372      16.6078        14.068909      17.3502      
      2400   318.35932     -44656.741     -16550.625      4061.6885      16.6078        14.09581       17.3502      
      2500   310.4974      -44656.631     -10304.959      4069.4398      16.6078        14.12271       17.3502      
      2600   313.07567     -44678.146     -12133.617      4077.1912      16.6078        14.14961       17.3502      
      2700   286.30414     -44654.292     -8945.471       4084.9425      16.6078        14.176511      17.3502      
      2800   300.19127     -44658.359     -18657.582      4092.6938      16.6078        14.203411      17.3502      
      2900   292.92377     -44633.873     -19407.097      4100.4451      16.6078        14.230312      17.3502      
      3000   281.62074     -44615.296      587.16645      4108.1964      16.6078        14.257212      17.3502      
      3100   300.59068     -44640.185     -20332.688      4115.9477      16.6078        14.284112      17.3502      
      3200   296.83747     -44641.479     -15676.018      4123.699       16.6078        14.311013      17.3502      
      3300   302.10577     -44660.42      -12329.694      4131.4504      16.6078        14.337913      17.3502      
      3400   265.8711      -44642.11      -14667.762      4139.2017      16.6078        14.364814      17.3502      
      3500   276.37323     -44667.782     -15935.341      4146.953       16.6078        14.391714      17.3502      
      3600   275.47493     -44636.005     -18557.136      4154.7043      16.6078        14.418614      17.3502      
      3700   296.08503     -44628.528     -15234.845      4162.4556      16.6078        14.445515      17.3502      
      3800   306.82124     -44639.318     -15207.554      4170.2069      16.6078        14.472415      17.3502      
      3900   293.89545     -44624.098     -18285.431      4177.9582      16.6078        14.499316      17.3502      
      4000   301.49179     -44643.466     -14587.453      4185.7096      16.6078        14.526216      17.3502      
      4100   271.05543     -44636.314     -22269.988      4193.4609      16.6078        14.553116      17.3502      
      4200   295.89833     -44659.767     -21366.597      4201.2122      16.6078        14.580017      17.3502      
      4300   297.69051     -44635.143     -21625.7        4208.9635      16.6078        14.606917      17.3502      
      4400   306.05637     -44624.463     -16912.903      4216.7148      16.6078        14.633818      17.3502      
      4500   300.69065     -44623.517     -14072.683      4224.4661      16.6078        14.660718      17.3502      
      4600   290.4385      -44629.805     -21748.472      4232.2174      16.6078        14.687618      17.3502      
      4700   288.4346      -44656.577     -12095.264      4239.9688      16.6078        14.714519      17.3502      
      4800   278.82991     -44633.344     -25951.647      4247.7201      16.6078        14.741419      17.3502      
      4900   298.68362     -44621.224     -18401.289      4255.4714      16.6078        14.76832       17.3502      
      5000   301.67571     -44602.882     -15092.195      4263.2227      16.6078        14.79522       17.3502      
Loop time of 245.141 on 16 procs for 5000 steps with 386 atoms

Performance: 0.881 ns/day, 27.238 hours/ns, 20.396 timesteps/s, 7.873 katom-step/s
99.5% CPU use with 8 MPI tasks x 2 OpenMP threads

MPI task timing breakdown:
Section |  min time  |  avg time  |  max time  |%varavg| %total
---------------------------------------------------------------
Pair    | 143.89     | 179.05     | 206.47     | 199.0 | 73.04
Bond    | 0.0013326  | 0.0016739  | 0.0020839  |   0.6 |  0.00
Neigh   | 11.067     | 14.06      | 16.693     |  62.9 |  5.74
Comm    | 1.8374     | 29.222     | 64.403     | 492.3 | 11.92
Output  | 0.017809   | 0.020096   | 0.0222     |   0.9 |  0.01
Modify  | 19.975     | 22.669     | 25.711     |  50.1 |  9.25
Other   |            | 0.1211     |            |       |  0.05

Nlocal:          48.25 ave          54 max          40 min
Histogram: 2 0 0 0 0 0 2 2 1 1
Nghost:           3218 ave        3248 max        3195 min
Histogram: 4 0 0 0 0 0 2 0 0 2
Neighs:        30442.6 ave       33704 max       25445 min
Histogram: 2 0 0 0 0 0 2 1 2 1

Total # of neighbors = 243541
Ave neighs/atom = 630.93523
Ave special neighs/atom = 0
Neighbor list builds = 500
Dangerous builds not checked
unfix deform_p
unfix data
undump dump_pos${dir}
undump dump_pos2

# # Combine positive and negative
# variable C1${dir} equal 0.5*(${C1neg}+${C1pos})
# variable C2${dir} equal 0.5*(${C2neg}+${C2pos})
# variable C3${dir} equal 0.5*(${C3neg}+${C3pos})
# variable C4${dir} equal 0.5*(${C4neg}+${C4pos})
# variable C5${dir} equal 0.5*(${C5neg}+${C5pos})
# variable C6${dir} equal 0.5*(${C6neg}+${C6pos})

# Delete dir to make sure it is not reused
variable dir delete
# uzz Perturbation
variable dir equal 3
include displace.mod.lmp
# # Find which reference length to use
# if "${dir} == 1" then #    "variable len0 equal ${lx0}"
# if "${dir} == 2" then #    "variable len0 equal ${ly0}"
# if "${dir} == 3" then #    "variable len0 equal ${lz0}"
# if "${dir} == 4" then #    "variable len0 equal ${lz0}"
# if "${dir} == 5" then #    "variable len0 equal ${lz0}"
# if "${dir} == 6" then #    "variable len0 equal ${ly0}"

# Find which length (epsilon) to calculate
if "${dir} == 1" then    "variable len0 equal ${lx0}"    "variable dlen equal lx-${len0}"
if "${dir} == 2" then    "variable len0 equal ${ly0}"    "variable dlen equal ly-${len0}"
if "${dir} == 3" then    "variable len0 equal ${lz0}"    "variable dlen equal lz-${len0}"
variable len0 equal ${lz0}
variable len0 equal 17.3502
variable dlen equal lz-${len0}
variable dlen equal lz-17.3502
if "${dir} == 4" then    "variable len0 equal ${lx0}"    "variable dlen equal 2*(yz-${yz0})"
if "${dir} == 5" then    "variable len0 equal ${ly0}"    "variable dlen equal 2*(xz-${xz0})"
if "${dir} == 6" then    "variable len0 equal ${lz0}"    "variable dlen equal 2*(xy-${xy0})"

# strain vector (epsilon)
variable eps equal v_dlen/v_len0

# stress vector (sigma)
variable sig1 equal -f_avgp[1]*${ufac}
variable sig1 equal -f_avgp[1]*0.000101325
variable sig2 equal -f_avgp[2]*${ufac}
variable sig2 equal -f_avgp[2]*0.000101325
variable sig3 equal -f_avgp[3]*${ufac}
variable sig3 equal -f_avgp[3]*0.000101325
variable sig4 equal -f_avgp[6]*${ufac}
variable sig4 equal -f_avgp[6]*0.000101325
variable sig5 equal -f_avgp[5]*${ufac}
variable sig5 equal -f_avgp[5]*0.000101325
variable sig6 equal -f_avgp[4]*${ufac}
variable sig6 equal -f_avgp[4]*0.000101325

# Reset box and simulation parameters
clear
  using 2 OpenMP thread(s) per MPI task
# box tilt large
read_restart equil.res
Reading restart file ...
  restart file = 2 Aug 2023, LAMMPS = 2 Aug 2023
  restoring atom style full from restart
  triclinic box = (0 0 0) to (16.6078 13.4502 17.3502) with tilt (-9.4505 -1.0717 0.0034)
WARNING: Triclinic box skew is large. LAMMPS will run inefficiently. (src/domain.cpp:220)
  2 by 2 by 2 MPI processor grid
  pair style reaxff stores no restart info
  386 atoms
Finding 1-2 1-3 1-4 neighbors ...
  special bond factors lj:    0        0        0       
  special bond factors coul:  0        0        0       
     0 = max # of 1-2 neighbors
     0 = max # of 1-3 neighbors
     0 = max # of 1-4 neighbors
     1 = max # of special neighbors
  special bonds CPU = 0.000 seconds
  read_restart CPU = 0.003 seconds

# Negative deformation
variable delta equal -${up}*${len0}
variable delta equal -0.1*${len0}
variable delta equal -0.1*17.3502
variable deltaxy equal -${up}*xy
variable deltaxy equal -0.1*xy
variable deltaxz equal -${up}*xz
variable deltaxz equal -0.1*xz
variable deltayz equal -${up}*yz
variable deltayz equal -0.1*yz
print "*****debug*****"
*****debug*****
print "xy = $(xy), deltaxy = ${deltaxy}"
xy = -9.4504999999999999005, deltaxy = 0.94505
print "xz = $(xz), deltaxz = ${deltaxz}"
xz = -1.071700000000000097, deltaxz = 0.10717
print "yz = $(yz), deltayz = ${deltayz}"
yz = 0.0033999999999999998106, deltayz = -0.00034
print "*****"
*****

if "${dir} == 1" then    "fix deform_n all deform ${nthermo} x delta 0 ${delta} xy delta ${deltaxy} xz delta ${deltaxz} remap v units box flip no"
if "${dir} == 2" then    "fix deform_n all deform ${nthermo} y delta 0 ${delta} yz delta ${deltayz} remap v units box flip no"
if "${dir} == 3" then    "fix deform_n all deform ${nthermo} z delta 0 ${delta} remap v units box flip no"
fix deform_n all deform ${nthermo} z delta 0 ${delta} remap v units box flip no
fix deform_n all deform 100 z delta 0 ${delta} remap v units box flip no
fix deform_n all deform 100 z delta 0 -1.73502 remap v units box flip no
if "${dir} == 4" then    "fix deform_n all deform ${nthermo} yz delta ${delta} remap v units box flip no"
if "${dir} == 5" then    "fix deform_n all deform ${nthermo} xz delta ${delta} remap v units box flip no"
if "${dir} == 6" then    "fix deform_n all deform ${nthermo} xy delta ${delta} remap v units box flip no"

# Run MD for Negative deformation
print "*****Negative-deform ${dir} starts.*****"
*****Negative-deform 3 starts.*****
include ff.mod.lmp
# Setup forcefield, system
# undefine any fix ave/* fix before using reset_timestep
if "$(is_defined(fix,avgp))" then "unfix avgp"
if "$(is_defined(fix,avgl))" then "unfix avgl"
reset_timestep 0

# Assign the force field
pair_style reaxff NULL safezone 3.0 mincap 150
pair_coeff * * ${FF}
pair_coeff * * CHONSi.ff C H O Si


# charge method for reaxff
fix myqeq all qeq/reaxff 1 0.0 10.0 1.0e-6 reaxff maxiter 400
# Setup neighbor style
neighbor        2 bin
neigh_modify    every 10 delay 0 check no

# Setup output
thermo		${nthermo}
thermo		100
thermo_style custom step temp pe press vol lx ly lz
# thermo_style custom step vol lx ly lz yz xz xy
thermo_modify norm no
# thermo_modify line multi

# Sample pressure (and length vector)
fix avgp all ave/time  ${nevery} ${nrepeat} ${nfreq} c_thermo_press mode vector
fix avgp all ave/time  10 ${nrepeat} ${nfreq} c_thermo_press mode vector
fix avgp all ave/time  10 10 ${nfreq} c_thermo_press mode vector
fix avgp all ave/time  10 10 100 c_thermo_press mode vector
# variable lx equal lx
# variable ly equal ly
# variable lz equal lz
# fix avgl all ave/time  ${nevery} ${nrepeat} ${nfreq} v_lx v_ly v_lz

# nvt
fix fnvt all nvt temp ${temp} ${temp} ${tdamp}
fix fnvt all nvt temp 300 ${temp} ${tdamp}
fix fnvt all nvt temp 300 300 ${tdamp}
fix fnvt all nvt temp 300 300 50
Resetting global fix info from restart file:
  fix style: nvt, fix ID: fnvt


# Save stress, strain to "./stress_strain/stress_strain.neg${dir}.out"
print "# Stress and strain vectors, ${structure}, negative deformation ${dir}"       file stress_strain/stress_strain.neg${dir}.out screen no
print "# Stress and strain vectors, ${structure}, negative deformation ${dir}"       file stress_strain/stress_strain.neg3.out screen no
fix data all print ${nfreq} "${eps} ${sig1} ${sig2} ${sig3} ${sig4} ${sig5} ${sig6}"       append stress_strain/stress_strain.neg${dir}.out screen no       title "# eps sig1 sig2 sig3 sig4 sig5 sig6"
[...]
       900   297.42319     -44666.94       3299.1306      3875.657       16.6078        13.4502        17.3502      
      1000   295.41881     -44684.518      25740.675      3875.657       16.6078        13.4502        17.3502      
      1100   274.23961     -44685.178      22293.428      3875.657       16.6078        13.4502        17.3502      
      1200   278.11383     -44667.817      8290.8821      3875.657       16.6078        13.4502        17.3502      
      1300   291.27586     -44647.622     -263.50556      3875.657       16.6078        13.4502        17.3502      
      1400   316.3097      -44658.707     -7695.716       3875.657       16.6078        13.4502        17.3502      
      1500   301.65007     -44648.801      1736.2634      3875.657       16.6078        13.4502        17.3502      
      1600   289.12151     -44644.693      3229.4001      3875.657       16.6078        13.4502        17.3502      
      1700   308.81318     -44675.662     -4101.8084      3875.657       16.6078        13.4502        17.3502      
      1800   305.38508     -44669.054     -3306.8906      3875.657       16.6078        13.4502        17.3502      
      1900   308.67651     -44668         -643.91725      3875.657       16.6078        13.4502        17.3502      
      2000   281.05267     -44654.05      -5086.265       3875.657       16.6078        13.4502        17.3502      
      2100   269.73474     -44650.651      4282.8926      3875.657       16.6078        13.4502        17.3502      
      2200   292.07182     -44662.947      3410.1409      3875.657       16.6078        13.4502        17.3502      
      2300   323.28908     -44654.778     -14725.388      3875.657       16.6078        13.4502        17.3502      
      2400   321.88822     -44652.828     -3357.6049      3875.657       16.6078        13.4502        17.3502      
      2500   298.35704     -44644.132      17367.777      3875.657       16.6078        13.4502        17.3502      
      2600   301.52073     -44654.112      372.02915      3875.657       16.6078        13.4502        17.3502      
      2700   286.98587     -44642.593      11150.018      3875.657       16.6078        13.4502        17.3502      
      2800   285.52826     -44649.856      12685.129      3875.657       16.6078        13.4502        17.3502      
      2900   312.55901     -44671.19       9717.9151      3875.657       16.6078        13.4502        17.3502      
      3000   317.05843     -44635.064      1176.0381      3875.657       16.6078        13.4502        17.3502      
      3100   324.49112     -44633.582      5830.8875      3875.657       16.6078        13.4502        17.3502      
      3200   303.25312     -44631.846      426.54806      3875.657       16.6078        13.4502        17.3502      
      3300   304.71837     -44649.812      966.34511      3875.657       16.6078        13.4502        17.3502      
      3400   286.65963     -44632.049     -2235.7934      3875.657       16.6078        13.4502        17.3502      
      3500   304.39491     -44637.28      -6908.8742      3875.657       16.6078        13.4502        17.3502      
      3600   309.53718     -44631.04       1436.4103      3875.657       16.6078        13.4502        17.3502      
      3700   301.98436     -44605.79      -1388.1296      3875.657       16.6078        13.4502        17.3502      
      3800   305.39843     -44629.138     -2820.0587      3875.657       16.6078        13.4502        17.3502      
      3900   294.47037     -44635.378     -1921.817       3875.657       16.6078        13.4502        17.3502      
      4000   305.21452     -44652.384     -1714.9906      3875.657       16.6078        13.4502        17.3502      
      4100   305.42893     -44639.755     -2010.3931      3875.657       16.6078        13.4502        17.3502      
      4200   304.07757     -44627.778      2458.5852      3875.657       16.6078        13.4502        17.3502      
      4300   317.22216     -44633.93       10785.186      3875.657       16.6078        13.4502        17.3502      
      4400   292.8025      -44603.605      13294.818      3875.657       16.6078        13.4502        17.3502      
      4500   301.30288     -44624.604     -4473.9118      3875.657       16.6078        13.4502        17.3502      
      4600   285.97921     -44621.643     -7975.4973      3875.657       16.6078        13.4502        17.3502      
      4700   293.98908     -44637.843     -10280.169      3875.657       16.6078        13.4502        17.3502      
      4800   284.25582     -44635.459      1824.3594      3875.657       16.6078        13.4502        17.3502      
      4900   293.32371     -44649.564      10605.609      3875.657       16.6078        13.4502        17.3502      
      5000   284.07286     -44618.126     -4927.5264      3875.657       16.6078        13.4502        17.3502      
Loop time of 181.423 on 16 procs for 5000 steps with 386 atoms

Performance: 1.191 ns/day, 20.158 hours/ns, 27.560 timesteps/s, 10.638 katom-step/s
99.6% CPU use with 8 MPI tasks x 2 OpenMP threads

MPI task timing breakdown:
Section |  min time  |  avg time  |  max time  |%varavg| %total
---------------------------------------------------------------
Pair    | 144.5      | 146.58     | 149.36     |  12.8 | 80.79
Bond    | 0.00088273 | 0.0012179  | 0.0017583  |   0.8 |  0.00
Neigh   | 13.604     | 13.74      | 14.063     |   3.7 |  7.57
Comm    | 1.4755     | 4.2443     | 6.3398     |  75.2 |  2.34
Output  | 0.011327   | 0.012817   | 0.014134   |   0.8 |  0.01
Modify  | 16.391     | 16.727     | 16.869     |   3.5 |  9.22
Other   |            | 0.1207     |            |       |  0.07

Nlocal:          48.25 ave          54 max          41 min
Histogram: 1 0 1 2 0 0 1 0 1 2
Nghost:         3940.5 ave        3977 max        3918 min
Histogram: 3 0 0 2 1 0 0 0 1 1
Neighs:        33580.8 ave       37403 max       28702 min
Histogram: 1 0 1 2 0 0 1 0 1 2

Total # of neighbors = 268646
Ave neighs/atom = 695.97409
Ave special neighs/atom = 0
Neighbor list builds = 500
Dangerous builds not checked
unfix deform_n
unfix data
undump dump_neg${dir}
undump dump_neg6

# Compute elastic constant from pressure
# d1 = -[pxx1-pxx0]/[(v_delta/v_len0] defined in input script
# variable C1neg equal ${d1}
# variable C2neg equal ${d2}
# variable C3neg equal ${d3}
# variable C4neg equal ${d4}
# variable C5neg equal ${d5}
# variable C6neg equal ${d6}

# Reset box and simulation parameters
clear
  using 2 OpenMP thread(s) per MPI task
# box tilt large
read_restart equil.res
Reading restart file ...
  restart file = 2 Aug 2023, LAMMPS = 2 Aug 2023
  restoring atom style full from restart
  triclinic box = (0 0 0) to (16.6078 13.4502 17.3502) with tilt (-9.4505 -1.0717 0.0034)
WARNING: Triclinic box skew is large. LAMMPS will run inefficiently. (src/domain.cpp:220)
  2 by 2 by 2 MPI processor grid
  pair style reaxff stores no restart info
  386 atoms
Finding 1-2 1-3 1-4 neighbors ...
  special bond factors lj:    0        0        0       
  special bond factors coul:  0        0        0       
     0 = max # of 1-2 neighbors
     0 = max # of 1-3 neighbors
     0 = max # of 1-4 neighbors
     1 = max # of special neighbors
  special bonds CPU = 0.000 seconds
  read_restart CPU = 0.002 seconds

# Positive deformation
variable delta equal ${up}*${len0}
variable delta equal 0.1*${len0}
variable delta equal 0.1*17.3502
variable deltaxy equal ${up}*xy
variable deltaxy equal 0.1*xy
variable deltaxz equal ${up}*xz
variable deltaxz equal 0.1*xz
variable deltayz equal ${up}*yz
variable deltayz equal 0.1*yz
if "${dir} == 1" then    "fix deform_p all deform ${nthermo} x delta 0 ${delta} xy delta ${deltaxy} xz delta ${deltaxz} remap v units box"
if "${dir} == 2" then    "fix deform_p all deform ${nthermo} y delta 0 ${delta} yz delta ${deltayz} remap v units box"
if "${dir} == 3" then    "fix deform_p all deform ${nthermo} z delta 0 ${delta} remap v units box"
if "${dir} == 4" then    "fix deform_p all deform ${nthermo} yz delta ${delta} remap v units box"
if "${dir} == 5" then    "fix deform_p all deform ${nthermo} xz delta ${delta} remap v units box"
if "${dir} == 6" then    "fix deform_p all deform ${nthermo} xy delta ${delta} remap v units box"
fix deform_p all deform ${nthermo} xy delta ${delta} remap v units box
fix deform_p all deform 100 xy delta ${delta} remap v units box
fix deform_p all deform 100 xy delta 1.73502 remap v units box

# Run deformation MD
print "*****Positive-deform ${dir} starts.*****"
*****Positive-deform 6 starts.*****
include ff.mod.lmp
# Setup forcefield, system
# undefine any fix ave/* fix before using reset_timestep
if "$(is_defined(fix,avgp))" then "unfix avgp"
if "$(is_defined(fix,avgl))" then "unfix avgl"
reset_timestep 0

# Assign the force field
pair_style reaxff NULL safezone 3.0 mincap 150
pair_coeff * * ${FF}
pair_coeff * * CHONSi.ff C H O Si


# charge method for reaxff
fix myqeq all qeq/reaxff 1 0.0 10.0 1.0e-6 reaxff maxiter 400
# Setup neighbor style
neighbor        2 bin
neigh_modify    every 10 delay 0 check no

# Setup output
thermo		${nthermo}
thermo		100
thermo_style custom step temp pe press vol lx ly lz
# thermo_style custom step vol lx ly lz yz xz xy
thermo_modify norm no
# thermo_modify line multi

# Sample pressure (and length vector)
fix avgp all ave/time  ${nevery} ${nrepeat} ${nfreq} c_thermo_press mode vector
fix avgp all ave/time  10 ${nrepeat} ${nfreq} c_thermo_press mode vector
fix avgp all ave/time  10 10 ${nfreq} c_thermo_press mode vector
fix avgp all ave/time  10 10 100 c_thermo_press mode vector
# variable lx equal lx
# variable ly equal ly
# variable lz equal lz
# fix avgl all ave/time  ${nevery} ${nrepeat} ${nfreq} v_lx v_ly v_lz

# nvt
fix fnvt all nvt temp ${temp} ${temp} ${tdamp}
fix fnvt all nvt temp 300 ${temp} ${tdamp}
fix fnvt all nvt temp 300 300 ${tdamp}
fix fnvt all nvt temp 300 300 50
Resetting global fix info from restart file:
  fix style: nvt, fix ID: fnvt


# Save stress, strain to "./stress_strain/stress_strain.pos${dir}.out"
print "# Stress and strain vectors, ${structure}, positive deformation ${dir}"       file stress_strain/stress_strain.pos${dir}.out screen no
print "# Stress and strain vectors, ${structure}, positive deformation ${dir}"       file stress_strain/stress_strain.pos6.out screen no
fix data all print ${nfreq} "${eps} ${sig1} ${sig2} ${sig3} ${sig4} ${sig5} ${sig6}"       append stress_strain/stress_strain.pos${dir}.out screen no       title "# eps sig1 sig2 sig3 sig4 sig5 sig6"
fix data all print 100 "${eps} ${sig1} ${sig2} ${sig3} ${sig4} ${sig5} ${sig6}"       append stress_strain/stress_strain.pos${dir}.out screen no       title "# eps sig1 sig2 sig3 sig4 sig5 sig6"
fix data all print 100 "${eps} ${sig1} ${sig2} ${sig3} ${sig4} ${sig5} ${sig6}"       append stress_strain/stress_strain.pos6.out screen no       title "# eps sig1 sig2 sig3 sig4 sig5 sig6"

# save trajectory
# if "$(is_defined(dump,dump_pos${dir1}))" then "undump dump_pos${dir1}"
dump dump_pos${dir} all custom ${nthermo} dump/pos_deform${dir}.lammpstrj id type q x y z
dump dump_pos6 all custom ${nthermo} dump/pos_deform${dir}.lammpstrj id type q x y z
dump dump_pos6 all custom 100 dump/pos_deform${dir}.lammpstrj id type q x y z
dump dump_pos6 all custom 100 dump/pos_deform6.lammpstrj id type q x y z
run ${nrun}
run 5000
All restart file global fix info was re-assigned
Neighbor list info ...
  update: every = 10 steps, delay = 0 steps, check = no
  max neighbors/atom: 2000, page size: 100000
  master list distance cutoff = 12
  ghost atom cutoff = 12
  binsize = 6, bins = 5 3 3
  2 neighbor lists, perpetual/occasional/extra = 2 0 0
  (1) pair reaxff, perpetual
      attributes: half, newton off, ghost
      pair build: half/bin/newtoff/ghost
      stencil: full/ghost/bin/3d
      bin: standard
  (2) fix qeq/reaxff, perpetual, copy from (1)
      attributes: half, newton off
      pair build: copy
      stencil: none
      bin: none
Per MPI rank memory allocation (min/avg/max) = 144.8 | 146.2 | 147.7 Mbytes
   Step          Temp          PotEng         Press          Volume           Lx             Ly             Lz      
         0   294.31138     -44672.01      -10358.718      3875.657       16.6078        13.4502        17.3502      
       100   294.9862      -44659.583      3628.2376      3875.657       16.6078        13.4502        17.3502      
       200   301.11516     -44664.21      -1762.1559      3875.657       16.6078        13.4502        17.3502      
       300   289.75494     -44656.549     -3200.6221      3875.657       16.6078        13.4502        17.3502      
       400   279.46395     -44665.522      4294.2447      3875.657       16.6078        13.4502        17.3502      
       500   298.47066     -44699.261     -117.69733      3875.657       16.6078        13.4502        17.3502      
       600   291.49694     -44701.44      -9895.9776      3875.657       16.6078        13.4502        17.3502      
       700   278.21735     -44663.339     -1361.4783      3875.657       16.6078        13.4502        17.3502      
       800   312.94192     -44664.891     -127.81235      3875.657       16.6078        13.4502        17.3502      
       900   300.43354     -44647.354     -3294.945       3875.657       16.6078        13.4502        17.3502      
      1000   304.33963     -44667.353      19252.829      3875.657       16.6078        13.4502        17.3502      
      1100   276.4935      -44660.583      3521.5896      3875.657       16.6078        13.4502        17.3502      
      1200   316.82015     -44703.254     -851.10215      3875.657       16.6078        13.4502        17.3502      
      1300   308.61847     -44689.513     -1864.9626      3875.657       16.6078        13.4502        17.3502      
      1400   311.2374      -44681.934     -2856.4282      3875.657       16.6078        13.4502        17.3502      
      1500   305.00186     -44667.355      13698.654      3875.657       16.6078        13.4502        17.3502      
      1600   306.48901     -44664.232      12807.79       3875.657       16.6078        13.4502        17.3502      
      1700   300.22173     -44671.349      7307.0408      3875.657       16.6078        13.4502        17.3502      
      1800   278.96731     -44662.925      9228.1564      3875.657       16.6078        13.4502        17.3502      
      1900   292.62941     -44678.527      3981.2575      3875.657       16.6078        13.4502        17.3502      
      2000   304.29791     -44654.52       14841.047      3875.657       16.6078        13.4502        17.3502      
      2100   319.91892     -44642.625      6560.958       3875.657       16.6078        13.4502        17.3502      
      2200   317.18844     -44659.93       10297.709      3875.657       16.6078        13.4502        17.3502      
      2300   300.90899     -44661.883     -5344.0289      3875.657       16.6078        13.4502        17.3502      
      2400   292.96435     -44662.044      12697.291      3875.657       16.6078        13.4502        17.3502      
      2500   292.11023     -44654.773      1118.8337      3875.657       16.6078        13.4502        17.3502      
      2600   291.39085     -44644.002     -572.35417      3875.657       16.6078        13.4502        17.3502      
      2700   303.89781     -44664.002      7602.4811      3875.657       16.6078        13.4502        17.3502      
      2800   298.25946     -44668.012      15422.089      3875.657       16.6078        13.4502        17.3502      
      2900   297.19247     -44675.61       7583.3075      3875.657       16.6078        13.4502        17.3502      
      3000   314.50086     -44691.253      1874.3522      3875.657       16.6078        13.4502        17.3502      
      3100   318.57146     -44670.058     -654.5971       3875.657       16.6078        13.4502        17.3502      
      3200   322.15924     -44648.932      4185.8082      3875.657       16.6078        13.4502        17.3502      
      3300   293.48968     -44627.01       9536.2521      3875.657       16.6078        13.4502        17.3502      
      3400   293.27791     -44645.251      12942.331      3875.657       16.6078        13.4502        17.3502      
      3500   298.50829     -44656.378      10476.099      3875.657       16.6078        13.4502        17.3502      
      3600   306.58816     -44655.933     -1608.6955      3875.657       16.6078        13.4502        17.3502      
      3700   306.9781      -44658.718     -1518.1553      3875.657       16.6078        13.4502        17.3502      
      3800   291.20938     -44651.369     -7032.5616      3875.657       16.6078        13.4502        17.3502      
      3900   288.70351     -44662.424     -4490.6499      3875.657       16.6078        13.4502        17.3502      
      4000   279.98622     -44645.344      12750.089      3875.657       16.6078        13.4502        17.3502      
      4100   314.99444     -44654.354      8160.9149      3875.657       16.6078        13.4502        17.3502      
      4200   321.26109     -44642.667     -4668.225       3875.657       16.6078        13.4502        17.3502      
      4300   300.12678     -44624.324      10345.961      3875.657       16.6078        13.4502        17.3502      
      4400   295.72853     -44639.71       6066.6412      3875.657       16.6078        13.4502        17.3502      
      4500   308.09425     -44656.492      6169.3091      3875.657       16.6078        13.4502        17.3502      
      4600   292.58479     -44634.055      1141.4682      3875.657       16.6078        13.4502        17.3502      
      4700   299.18154     -44640.893      2601.9915      3875.657       16.6078        13.4502        17.3502      
      4800   304.74607     -44644.731      1695.464       3875.657       16.6078        13.4502        17.3502      
      4900   321.50581     -44658.839      5550.4167      3875.657       16.6078        13.4502        17.3502      
      5000   308.79376     -44640.23      -404.16418      3875.657       16.6078        13.4502        17.3502      
Loop time of 150.471 on 16 procs for 5000 steps with 386 atoms

Performance: 1.435 ns/day, 16.719 hours/ns, 33.229 timesteps/s, 12.826 katom-step/s
100.0% CPU use with 8 MPI tasks x 2 OpenMP threads

MPI task timing breakdown:
Section |  min time  |  avg time  |  max time  |%varavg| %total
---------------------------------------------------------------
Pair    | 114.59     | 118.69     | 121.2      |  17.3 | 78.88
Bond    | 0.00076244 | 0.00098649 | 0.0013007  |   0.0 |  0.00
Neigh   | 11.818     | 11.959     | 12.292     |   4.2 |  7.95
Comm    | 1.5592     | 4.0645     | 8.1718     |  93.5 |  2.70
Output  | 0.013131   | 0.014989   | 0.016568   |   0.8 |  0.01
Modify  | 15.278     | 15.623     | 15.775     |   3.8 | 10.38
Other   |            | 0.1208     |            |       |  0.08

Nlocal:          48.25 ave          57 max          37 min
Histogram: 1 0 0 0 2 1 1 2 0 1
Nghost:        3585.25 ave        3609 max        3542 min
Histogram: 1 0 0 0 1 0 3 0 0 3
Neighs:        33596.4 ave       39317 max       25927 min
Histogram: 1 0 0 0 2 1 1 2 0 1

Total # of neighbors = 268771
Ave neighs/atom = 696.29793
Ave special neighs/atom = 0
Neighbor list builds = 500
Dangerous builds not checked
unfix deform_p
unfix data
undump dump_pos${dir}
undump dump_pos6

# # Combine positive and negative
# variable C1${dir} equal 0.5*(${C1neg}+${C1pos})
# variable C2${dir} equal 0.5*(${C2neg}+${C2pos})
# variable C3${dir} equal 0.5*(${C3neg}+${C3pos})
# variable C4${dir} equal 0.5*(${C4neg}+${C4pos})
# variable C5${dir} equal 0.5*(${C5neg}+${C5pos})
# variable C6${dir} equal 0.5*(${C6neg}+${C6pos})

# Delete dir to make sure it is not reused
variable dir delete

# Calc and output
# include calc.mod.lmp

Total wall time: 0:55:14
