LAMMPS (2 Aug 2023 - Update 2)
  using 1 OpenMP thread(s) per MPI task
Reading data file ...
  triclinic box = (0 0 0) to (16.7222 13.589 17.3161) with tilt (-7.3464 -0.3071 -0.018)
WARNING: Triclinic box skew is large. LAMMPS will run inefficiently. (src/domain.cpp:220)
  2 by 2 by 2 MPI processor grid
  reading atoms ...
  386 atoms
Finding 1-2 1-3 1-4 neighbors ...
  special bond factors lj:    0        0        0       
  special bond factors coul:  0        0        0       
     0 = max # of 1-2 neighbors
     0 = max # of 1-3 neighbors
     0 = max # of 1-4 neighbors
     1 = max # of special neighbors
  special bonds CPU = 0.001 seconds
  read_data CPU = 0.013 seconds
WARNING: Van der Waals parameters for element SI indicate inner wall+shielding, but earlier atoms indicate a different van der Waals method. This may cause division-by-zero errors. Keeping van der Waals setting for earlier atoms. (src/REAXFF/reaxff_ffield.cpp:251)
System init for write_restart ...
WARNING: Fix qeq/reaxff group is not charge neutral, net charge = -0.82 (src/REAXFF/fix_qeq_reaxff.cpp:392)
Neighbor list info ...
  update: every = 1 steps, delay = 0 steps, check = yes
  max neighbors/atom: 2000, page size: 100000
  master list distance cutoff = 12
  ghost atom cutoff = 12
  binsize = 6, bins = 5 3 3
  2 neighbor lists, perpetual/occasional/extra = 2 0 0
  (1) pair reaxff, perpetual
      attributes: half, newton off, ghost
      pair build: half/bin/newtoff/ghost
      stencil: full/ghost/bin/3d
      bin: standard
  (2) fix qeq/reaxff, perpetual, copy from (1)
      attributes: half, newton off
      pair build: copy
      stencil: none
      bin: none
  using 1 OpenMP thread(s) per MPI task
Reading restart file ...
  restart file = 2 Aug 2023, LAMMPS = 2 Aug 2023
  restoring atom style full from restart
  triclinic box = (0 0 0) to (16.7222 13.589 17.3161) with tilt (-7.3464 -0.3071 -0.018)
WARNING: Triclinic box skew is large. LAMMPS will run inefficiently. (src/domain.cpp:220)
  2 by 2 by 2 MPI processor grid
  pair style reaxff stores no restart info
  386 atoms
Finding 1-2 1-3 1-4 neighbors ...
  special bond factors lj:    0        0        0       
  special bond factors coul:  0        0        0       
     0 = max # of 1-2 neighbors
     0 = max # of 1-3 neighbors
     0 = max # of 1-4 neighbors
     1 = max # of special neighbors
  special bonds CPU = 0.000 seconds
  read_restart CPU = 0.005 seconds
*****Positive-deform 3 starts.*****
WARNING: Van der Waals parameters for element SI indicate inner wall+shielding, but earlier atoms indicate a different van der Waals method. This may cause division-by-zero errors. Keeping van der Waals setting for earlier atoms. (src/REAXFF/reaxff_ffield.cpp:251)

CITE-CITE-CITE-CITE-CITE-CITE-CITE-CITE-CITE-CITE-CITE-CITE-CITE

Your simulation uses code contributions which should be cited:
- pair reaxff command: doi:10.1016/j.parco.2011.08.005
- fix qeq/reaxff command: doi:10.1016/j.parco.2011.08.005
The log file lists these citations in BibTeX format.

CITE-CITE-CITE-CITE-CITE-CITE-CITE-CITE-CITE-CITE-CITE-CITE-CITE

WARNING: Compute rdf cutoff less than neighbor cutoff - forcing a needless neighbor list build (src/compute_rdf.cpp:179)
WARNING: Fix qeq/reaxff group is not charge neutral, net charge = -0.82 (src/REAXFF/fix_qeq_reaxff.cpp:392)
Neighbor list info ...
  update: every = 10 steps, delay = 0 steps, check = no
  max neighbors/atom: 2000, page size: 100000
  master list distance cutoff = 12
  ghost atom cutoff = 12
  binsize = 6, bins = 5 3 3
  3 neighbor lists, perpetual/occasional/extra = 2 1 0
  (1) pair reaxff, perpetual
      attributes: half, newton off, ghost
      pair build: half/bin/newtoff/ghost
      stencil: full/ghost/bin/3d
      bin: standard
  (2) compute rdf, occasional
      attributes: half, newton on, cut 7
      pair build: half/bin/newton/tri
      stencil: half/bin/3d/tri
      bin: standard
  (3) fix qeq/reaxff, perpetual, copy from (1)
      attributes: half, newton off
      pair build: copy
      stencil: none
      bin: none
Setting up Verlet run ...
  Unit style    : real
  Current step  : 0
  Time step     : 0.5
Per MPI rank memory allocation (min/avg/max) = 138.6 | 140.7 | 142.7 Mbytes
   Step          Temp          Press          Volume           Lz          Density    
         0   300            195465.33      3934.8755      17.3161        1.7215889    
       100   1057.7238      26522.481      3936.843       17.324758      1.7207286    
       200   815.42213      37866.53       3938.8104      17.333416      1.7198691    
       300   562.67692      34250.198      3940.7778      17.342074      1.7190104    
       400   388.7214       14985.291      3942.7453      17.350732      1.7181526    
       500   340.09751      11246.226      3944.7127      17.35939       1.7172957    
       600   277.47731      7980.6777      3946.6801      17.368048      1.7164396    
       700   266.89109     -3906.3002      3948.6476      17.376706      1.7155844    
       800   272.05028      3016.6701      3950.615       17.385364      1.71473      
       900   309.60573      466.42425      3952.5825      17.394022      1.7138765    
      1000   316.66019      4350.7024      3954.5499      17.40268       1.7130238    
      1100   303.12199      8946.6931      3956.5173      17.411339      1.712172     
      1200   278.92611      13879.082      3958.4848      17.419997      1.711321     
      1300   297.43915      966.91067      3960.4522      17.428655      1.7104709    
      1400   261.92904     -249.91301      3962.4196      17.437313      1.7096216    
      1500   263.57209      5450.2868      3964.3871      17.445971      1.7087731    
      1600   266.83744      8382.0331      3966.3545      17.454629      1.7079255    
      1700   286.75494      13036.24       3968.322       17.463287      1.7070788    
      1800   343.02691      23595.492      3970.2894      17.471945      1.7062328    
      1900   308.26308     -984.89255      3972.2568      17.480603      1.7053877    
      2000   308.83071      4754.1876      3974.2243      17.489261      1.7045435    
      2100   308.61936      3349.847       3976.1917      17.497919      1.7037001    
      2200   266.74682      12129.048      3978.1591      17.506577      1.7028575    
      2300   295.03546      4296.8924      3980.1266      17.515235      1.7020157    
      2400   305.8898       2236.3006      3982.094       17.523893      1.7011748    
      2500   297.91183     -504.80714      3984.0615      17.532551      1.7003347    
      2600   323.05336      5636.507       3986.0289      17.541209      1.6994955    
      2700   309.95471     -4070.111       3987.9963      17.549867      1.6986571    
      2800   287.64457     -2972.3837      3989.9638      17.558525      1.6978195    
      2900   292.88192      1523.4743      3991.9312      17.567183      1.6969827    
      3000   282.22891      14203.471      3993.8986      17.575841      1.6961467    
      3100   322.86402      20453.774      3995.8661      17.5845        1.6953116    
      3200   304.23225      8076.2299      3997.8335      17.593158      1.6944773    
      3300   303.49962      4098.0791      3999.801       17.601816      1.6936438    
      3400   356.04848      5165.9679      4001.7684      17.610474      1.6928111    
      3500   319.01213      6831.3772      4003.7358      17.619132      1.6919793    
      3600   260.04249      8064.4644      4005.7033      17.62779       1.6911483    
      3700   268.916       -3380.0319      4007.6707      17.636448      1.690318     
      3800   297.12213      2396.0348      4009.6381      17.645106      1.6894886    
      3900   300.09383     -1297.8234      4011.6056      17.653764      1.6886601    
      4000   319.62984      4610.2099      4013.573       17.662422      1.6878323    
      4100   303.57744     -5115.1753      4015.5405      17.67108       1.6870053    
      4200   289.79465      3760.123       4017.5079      17.679738      1.6861792    
      4300   276.03579     -3078.5695      4019.4753      17.688396      1.6853538    
      4400   287.22554      10760.66       4021.4428      17.697054      1.6845293    
      4500   299.54371      1026.5812      4023.4102      17.705712      1.6837056    
      4600   317.34576     -357.68255      4025.3776      17.71437       1.6828826    
      4700   308.69845     -12703.834      4027.3451      17.723028      1.6820605    
      4800   316.65553      2760.0429      4029.3125      17.731686      1.6812392    
      4900   288.24174      513.26614      4031.28        17.740344      1.6804187    
      5000   286.8183      -404.94112      4033.2474      17.749002      1.679599     
      5100   288.22414     -9304.264       4035.2148      17.757661      1.67878      
      5200   302.50063     -1473.0415      4037.1823      17.766319      1.6779619    
      5300   305.66704     -322.9262       4039.1497      17.774977      1.6771446    
      5400   274.73284     -7279.528       4041.1172      17.783635      1.6763281    
      5500   301.29869     -5224.9949      4043.0846      17.792293      1.6755123    
      5600   303.95096     -102.59823      4045.052       17.800951      1.6746974    
      5700   290.5505       5226.051       4047.0195      17.809609      1.6738833    
      5800   300.65561     -5868.2284      4048.9869      17.818267      1.6730699    
      5900   306.51777     -6317.8985      4050.9543      17.826925      1.6722573    
      6000   283.14473      9288.3239      4052.9218      17.835583      1.6714456    
      6100   276.4681       12406.622      4054.8892      17.844241      1.6706346    
      6200   301.97038      2504.945       4056.8567      17.852899      1.6698244    
      6300   314.2846       10604.398      4058.8241      17.861557      1.669015     
      6400   286.07567      5029.3054      4060.7915      17.870215      1.6682063    
      6500   306.56505      8232.5111      4062.759       17.878873      1.6673985    
      6600   311.47987     -4560.1092      4064.7264      17.887531      1.6665914    
      6700   276.15153     -1220.7923      4066.6938      17.896189      1.6657851    
      6800   280.54795     -1979.8536      4068.6613      17.904847      1.6649796    
      6900   300.45052      13471.227      4070.6287      17.913505      1.6641749    
      7000   315.59513     -11212.317      4072.5962      17.922163      1.6633709    
      7100   322.75032      1790.5443      4074.5636      17.930822      1.6625678    
      7200   298.91027      8430.2739      4076.531       17.93948       1.6617654    
      7300   284.65858     -5580.7162      4078.4985      17.948138      1.6609637    
      7400   267.09777      10859.65       4080.4659      17.956796      1.6601629    
      7500   297.11738      2587.6437      4082.4333      17.965454      1.6593628    
      7600   316.19721     -7725.3911      4084.4008      17.974112      1.6585635    
      7700   303.92941     -193.65362      4086.3682      17.98277       1.657765     
      7800   315.69417     -3300.9665      4088.3357      17.991428      1.6569672    
      7900   300.5858       3567.7249      4090.3031      18.000086      1.6561702    
      8000   278.29431      7.8790408      4092.2705      18.008744      1.655374     
      8100   294.93821     -6114.4305      4094.238       18.017402      1.6545785    
      8200   288.29809      7156.1719      4096.2054      18.02606       1.6537838    
      8300   298.10052      518.7604       4098.1728      18.034718      1.6529898    
      8400   309.06299      14010.589      4100.1403      18.043376      1.6521967    
      8500   311.51719     -1197.3045      4102.1077      18.052034      1.6514042    
      8600   287.24914     -3629.7752      4104.0752      18.060692      1.6506126    
      8700   301.05869     -2227.3588      4106.0426      18.06935       1.6498217    
      8800   298.21901      14324.022      4108.01        18.078008      1.6490315    
      8900   283.83086      5969.3163      4109.9775      18.086666      1.6482421    
      9000   317.07356     -422.00569      4111.9449      18.095325      1.6474535    
      9100   322.00574      8720.1998      4113.9123      18.103983      1.6466656    
      9200   309.32762      3224.4166      4115.8798      18.112641      1.6458785    
      9300   307.06969     -12296.637      4117.8472      18.121299      1.6450921    
      9400   287.17608     -8147.5785      4119.8147      18.129957      1.6443065    
      9500   296.66242     -13600.728      4121.7821      18.138615      1.6435216    
      9600   317.78283      11392.17       4123.7495      18.147273      1.6427375    
      9700   327.87127     -12088.7        4125.717       18.155931      1.6419541    
      9800   318.78712      2667.6063      4127.6844      18.164589      1.6411715    
      9900   299.82546     -5225.2406      4129.6519      18.173247      1.6403896    
     10000   294.39917      6636.4046      4131.6193      18.181905      1.6396085    
     10100   293.94143      10438.863      4133.5867      18.190563      1.6388281    
     10200   294.87674      6278.7508      4135.5542      18.199221      1.6380485    
     10300   302.14226     -13527.426      4137.5216      18.207879      1.6372695    
     10400   299.99195     -3977.1199      4139.489       18.216537      1.6364914    
     10500   304.32594     -4982.4344      4141.4565      18.225195      1.6357139    
     10600   286.80893     -7377.9917      4143.4239      18.233853      1.6349373    
     10700   304.05109     -4758.3053      4145.3914      18.242511      1.6341613    
     10800   309.1156       1224.3035      4147.3588      18.251169      1.6333861    
     10900   303.13557     -16976.24       4149.3262      18.259827      1.6326116    
     11000   318.96515     -16370.953      4151.2937      18.268485      1.6318378    
     11100   297.90596     -6955.5327      4153.2611      18.277144      1.6310648    
     11200   296.83258     -8532.4273      4155.2285      18.285802      1.6302925    
     11300   282.85157      4411.6612      4157.196       18.29446       1.629521     
     11400   310.72781     -6602.1991      4159.1634      18.303118      1.6287502    
     11500   297.24066     -19784.398      4161.1309      18.311776      1.6279801    
     11600   304.81559     -19663.881      4163.0983      18.320434      1.6272107    
     11700   291.57145     -4263.1352      4165.0657      18.329092      1.6264421    
     11800   290.47133     -6467.527       4167.0332      18.33775       1.6256742    
     11900   301.49964      958.06904      4169.0006      18.346408      1.624907     
     12000   302.50398     -2954.4319      4170.968       18.355066      1.6241405    
     12100   328.07239      3806.9467      4172.9355      18.363724      1.6233748    
     12200   330.00791     -7481.05        4174.9029      18.372382      1.6226097    
     12300   298.13755      279.52204      4176.8704      18.38104       1.6218454    
     12400   308.96916     -10285.614      4178.8378      18.389698      1.6210819    
     12500   288.63877     -5981.8145      4180.8052      18.398356      1.620319     
     12600   299.40558      6656.5818      4182.7727      18.407014      1.6195568    
     12700   293.652       -9076.406       4184.7401      18.415672      1.6187954    
     12800   306.92366     -3872.4062      4186.7075      18.42433       1.6180347    
     12900   308.93998      3145.394       4188.675       18.432988      1.6172747    
     13000   286.3464      -4878.3042      4190.6424      18.441646      1.6165154    
     13100   294.6972      -10154.278      4192.6099      18.450305      1.6157569    
     13200   288.83775     -681.57112      4194.5773      18.458963      1.614999     
     13300   322.12887      1327.0791      4196.5447      18.467621      1.6142418    
     13400   315.92251     -14848.549      4198.5122      18.476279      1.6134854    
     13500   309.32154     -7775.3781      4200.4796      18.484937      1.6127297    
     13600   299.74405     -4828.1016      4202.447       18.493595      1.6119746    
     13700   287.67851     -6957.8353      4204.4145      18.502253      1.6112203    
     13800   291.68208     -4231.6808      4206.3819      18.510911      1.6104667    
     13900   302.7177      -12678.839      4208.3494      18.519569      1.6097138    
     14000   308.82078     -21015.755      4210.3168      18.528227      1.6089616    
     14100   307.874        1170.0699      4212.2842      18.536885      1.6082101    
     14200   300.40368     -18484.235      4214.2517      18.545543      1.6074593    
     14300   287.16368     -10984.995      4216.2191      18.554201      1.6067092    
     14400   300.68583      1032.7935      4218.1865      18.562859      1.6059598    
     14500   322.75308     -8635.2979      4220.154       18.571517      1.6052111    
     14600   310.12841     -18517.972      4222.1214      18.580175      1.6044631    
     14700   316.01083     -12966.425      4224.0889      18.588833      1.6037158    
     14800   300.46476     -1524.3526      4226.0563      18.597491      1.6029692    
     14900   288.95217     -1089.3792      4228.0237      18.606149      1.6022233    
     15000   313.48696     -13356.352      4229.9912      18.614807      1.6014781    
     15100   298.45893     -16347.202      4231.9586      18.623466      1.6007335    
     15200   299.41283     -7299.0014      4233.9261      18.632124      1.5999897    
     15300   286.49679     -1085.1868      4235.8935      18.640782      1.5992466    
     15400   287.03435      5282.3707      4237.8609      18.64944       1.5985041    
     15500   274.80469     -22067.668      4239.8284      18.658098      1.5977623    
     15600   315.48264     -11197.809      4241.7958      18.666756      1.5970213    
     15700   322.98797     -10914.441      4243.7632      18.675414      1.5962809    
     15800   278.66223     -19473.124      4245.7307      18.684072      1.5955412    
     15900   292.00421     -19795.378      4247.6981      18.69273       1.5948022    
     16000   309.30575      1905.8179      4249.6656      18.701388      1.5940638    
     16100   298.27669     -13522.338      4251.633       18.710046      1.5933262    
     16200   288.94257     -9195.8947      4253.6004      18.718704      1.5925892    
     16300   294.9584      -14750.369      4255.5679      18.727362      1.5918529    
     16400   305.41152     -5636.8608      4257.5353      18.73602       1.5911173    
     16500   290.33151     -17921.051      4259.5027      18.744678      1.5903824    
     16600   317.2246      -3553.9922      4261.4702      18.753336      1.5896481    
     16700   287.56588     -13775.484      4263.4376      18.761994      1.5889146    
     16800   284.17249     -1411.8699      4265.4051      18.770652      1.5881817    
     16900   272.72194     -14670.713      4267.3725      18.77931       1.5874494    
     17000   288.78248     -3221.701       4269.3399      18.787968      1.5867179    
     17100   304.78655     -6186.3876      4271.3074      18.796627      1.585987     
     17200   303.59142     -5197.4859      4273.2748      18.805285      1.5852568    
     17300   304.42444     -15256.254      4275.2422      18.813943      1.5845273    
     17400   271.16734     -8533.2985      4277.2097      18.822601      1.5837985    
     17500   294.08816     -12516.586      4279.1771      18.831259      1.5830703    
     17600   290.06667     -8894.7073      4281.1446      18.839917      1.5823428    
     17700   305.59616      7454.5413      4283.112       18.848575      1.5816159    
     17800   328.83538     -6143.546       4285.0794      18.857233      1.5808897    
     17900   300.238       -21739.639      4287.0469      18.865891      1.5801642    
     18000   290.83798     -16595.081      4289.0143      18.874549      1.5794394    
     18100   289.49518     -1986.0634      4290.9817      18.883207      1.5787152    
     18200   279.07446      761.34483      4292.9492      18.891865      1.5779917    
     18300   312.67176     -9588.1257      4294.9166      18.900523      1.5772688    
     18400   320.57543     -30925.415      4296.8841      18.909181      1.5765466    
     18500   297.00021     -10314.526      4298.8515      18.917839      1.5758251    
     18600   313.32806     -11262.707      4300.8189      18.926497      1.5751042    
     18700   298.1412      -11020.723      4302.7864      18.935155      1.574384     
     18800   300.78743      2820.4724      4304.7538      18.943813      1.5736645    
     18900   303.15729     -3990.7518      4306.7212      18.952471      1.5729456    
     19000   308.80077     -15249.64       4308.6887      18.961129      1.5722273    
     19100   307.57188     -3768.6624      4310.6561      18.969788      1.5715097    
     19200   283.76244     -4710.1581      4312.6236      18.978446      1.5707928    
     19300   283.8362      -5757.016       4314.591       18.987104      1.5700765    
     19400   305.71559     -1780.7971      4316.5584      18.995762      1.5693609    
     19500   314.20961     -17425.759      4318.5259      19.00442       1.5686459    
     19600   321.48066     -6823.6981      4320.4933      19.013078      1.5679316    
     19700   293.69326     -16964.657      4322.4608      19.021736      1.567218     
     19800   297.29735     -8861.5738      4324.4282      19.030394      1.5665049    
     19900   288.73472     -12014.615      4326.3956      19.039052      1.5657926    
     20000   295.26254     -16066.461      4328.3631      19.04771       1.5650808    
     20100   285.78535     -15822.674      4330.3305      19.056368      1.5643698    
     20200   316.33547     -7263.1618      4332.2979      19.065026      1.5636593    
     20300   328.3455      -13875.602      4334.2654      19.073684      1.5629495    
     20400   288.86265     -17175.09       4336.2328      19.082342      1.5622404    
     20500   270.19186     -24211.661      4338.2003      19.091         1.5615319    
     20600   285.80057     -11991.903      4340.1677      19.099658      1.560824     
     20700   309.70441     -3220.061       4342.1351      19.108316      1.5601168    
     20800   297.28986     -14416.746      4344.1026      19.116974      1.5594103    
     20900   288.72243     -6975.975       4346.07        19.125632      1.5587043    
     21000   292.06527     -8678.5326      4348.0374      19.13429       1.557999     
     21100   277.72438     -24386.191      4350.0049      19.142949      1.5572944    
     21200   288.77999     -11607.494      4351.9723      19.151607      1.5565903    
     21300   306.38969     -5002.5503      4353.9398      19.160265      1.555887     
     21400   304.06567     -7667.7989      4355.9072      19.168923      1.5551842    
     21500   306.16775     -13241.384      4357.8746      19.177581      1.5544821    
     21600   305.71836     -11512.39       4359.8421      19.186239      1.5537806    
     21700   291.20683     -13890.619      4361.8095      19.194897      1.5530798    
     21800   283.38404     -6284.1919      4363.7769      19.203555      1.5523796    
     21900   301.13889     -11905.605      4365.7444      19.212213      1.55168      
     22000   291.4863      -12374.27       4367.7118      19.220871      1.550981     
     22100   310.42952     -16839.93       4369.6793      19.229529      1.5502827    
     22200   318.59182     -15779.034      4371.6467      19.238187      1.549585     
     22300   297.70322     -12888.748      4373.6141      19.246845      1.5488879    
     22400   292.08853     -17955.766      4375.5816      19.255503      1.5481915    
     22500   310.37281     -18484.007      4377.549       19.264161      1.5474957    
     22600   325.17672     -8598.9117      4379.5164      19.272819      1.5468005    
     22700   295.47966     -10428.118      4381.4839      19.281477      1.5461059    
     22800   300.82176     -9412.9024      4383.4513      19.290135      1.545412     
     22900   286.89217     -14674.995      4385.4188      19.298793      1.5447186    
     23000   299.19456     -15605.518      4387.3862      19.307451      1.5440259    
     23100   308.35608     -13643.762      4389.3536      19.31611       1.5433339    
     23200   298.86014     -6442.3713      4391.3211      19.324768      1.5426424    
     23300   289.99567     -13384.78       4393.2885      19.333426      1.5419516    
     23400   321.81301     -14302.487      4395.2559      19.342084      1.5412613    
     23500   295.93332     -24109.188      4397.2234      19.350742      1.5405717    
     23600   283.82324     -5578.1659      4399.1908      19.3594        1.5398828    
     23700   277.38609     -19605.714      4401.1583      19.368058      1.5391944    
     23800   304.28156     -21207.805      4403.1257      19.376716      1.5385066    
     23900   301.72686     -13226.098      4405.0931      19.385374      1.5378195    
     24000   327.33957     -13371.012      4407.0606      19.394032      1.537133     
     24100   316.19158      1812.3976      4409.028       19.40269       1.5364471    
     24200   268.51791     -19423.816      4410.9954      19.411348      1.5357618    
     24300   295.18331     -9919.275       4412.9629      19.420006      1.5350771    
     24400   291.49418     -9721.2989      4414.9303      19.428664      1.534393     
     24500   316.66519     -15873.314      4416.8978      19.437322      1.5337095    
     24600   305.84167     -16078.981      4418.8652      19.44598       1.5330266    
     24700   295.00057     -12001.499      4420.8326      19.454638      1.5323444    
     24800   293.95085     -2692.9249      4422.8001      19.463296      1.5316627    
     24900   283.79501     -18451.341      4424.7675      19.471954      1.5309817    
     25000   303.91759     -12334.414      4426.735       19.480612      1.5303013    
     25100   283.87796     -5731.2956      4428.7024      19.489271      1.5296214    
     25200   303.86366     -18146.843      4430.6698      19.497929      1.5289422    
     25300   297.03292     -14863.551      4432.6373      19.506587      1.5282636    
     25400   300.63644     -14513.514      4434.6047      19.515245      1.5275856    
     25500   300.24928     -21016.393      4436.5721      19.523903      1.5269081    
     25600   271.90845     -16430.911      4438.5396      19.532561      1.5262313    
     25700   281.60398     -13959.308      4440.507       19.541219      1.5255551    
     25800   298.20627     -17316.452      4442.4745      19.549877      1.5248795    
     25900   314.44183     -17951.16       4444.4419      19.558535      1.5242044    
     26000   305.3608      -12456.203      4446.4093      19.567193      1.52353      
     26100   284.75757     -19775.275      4448.3768      19.575851      1.5228562    
     26200   293.27434     -25390.308      4450.3442      19.584509      1.522183     
     26300   326.81278     -17331.144      4452.3116      19.593167      1.5215103    
     26400   304.1844      -12230.103      4454.2791      19.601825      1.5208383    
     26500   294.0177      -9774.1323      4456.2465      19.610483      1.5201668    
     26600   295.79948     -10143.867      4458.214       19.619141      1.519496     
     26700   325.03003     -13912.361      4460.1814      19.627799      1.5188257    
     26800   313.77089     -9133.5036      4462.1488      19.636457      1.518156     
     26900   297.21324     -16766.582      4464.1163      19.645115      1.5174869    
     27000   276.06894     -22010.518      4466.0837      19.653773      1.5168184    
     27100   286.24732     -14284.246      4468.0511      19.662432      1.5161505    
     27200   312.50398     -16987.638      4470.0186      19.67109       1.5154832    
     27300   313.71323     -10123.563      4471.986       19.679748      1.5148165    
     27400   301.28221     -20648.038      4473.9535      19.688406      1.5141503    
     27500   298.45        -9801.8372      4475.9209      19.697064      1.5134848    
     27600   267.8361      -14261.433      4477.8883      19.705722      1.5128198    
     27700   287.58919     -9547.5142      4479.8558      19.71438       1.5121554    
     27800   290.00095     -25569.49       4481.8232      19.723038      1.5114916    
     27900   312.7745      -21769.463      4483.7906      19.731696      1.5108284    
     28000   299.19552     -13418.262      4485.7581      19.740354      1.5101657    
     28100   310.35018     -15733.085      4487.7255      19.749012      1.5095037    
     28200   311.70803     -16705.382      4489.693       19.75767       1.5088422    
     28300   292.45625     -13417.52       4491.6604      19.766328      1.5081813    
     28400   299.69579     -25639.264      4493.6278      19.774986      1.507521     
     28500   296.37777     -15383.289      4495.5953      19.783644      1.5068612    
     28600   329.12679     -21389.289      4497.5627      19.792302      1.506202     
     28700   295.44518     -18859.415      4499.5301      19.80096       1.5055434    
     28800   299.21077     -9938.5391      4501.4976      19.809618      1.5048854    
     28900   291.16329     -7069.145       4503.465       19.818276      1.504228     
     29000   315.94991     -18091.973      4505.4325      19.826935      1.5035711    
     29100   330.55704     -16367.455      4507.3999      19.835593      1.5029148    
     29200   312.51794     -23038.628      4509.3673      19.844251      1.5022591    
     29300   308.02677     -20969.963      4511.3348      19.852909      1.5016039    
     29400   310.18438     -9546.1884      4513.3022      19.861567      1.5009494    
     29500   285.11083     -19901.094      4515.2697      19.870225      1.5002954    
     29600   291.30693     -18791.299      4517.2371      19.878883      1.4996419    
     29700   303.44993     -17891.858      4519.2045      19.887541      1.4989891    
     29800   330.16286     -19959.271      4521.172       19.896199      1.4983367    
     29900   307.23049     -19227.562      4523.1394      19.904857      1.497685     
     30000   304.67007     -9842.485       4525.1068      19.913515      1.4970338    
     30100   280.96335     -29734.454      4527.0743      19.922173      1.4963832    
     30200   295.73356     -16080.317      4529.0417      19.930831      1.4957332    
     30300   285.33578     -23697.876      4531.0092      19.939489      1.4950837    
     30400   288.05237     -17298.971      4532.9766      19.948147      1.4944348    
     30500   302.45356     -21211.693      4534.944       19.956805      1.4937865    
     30600   318.74824     -24562.132      4536.9115      19.965463      1.4931387    
     30700   307.92218     -20649.659      4538.8789      19.974121      1.4924915    
     30800   292.39207     -18746.819      4540.8463      19.982779      1.4918448    
     30900   297.04888     -14973.2        4542.8138      19.991437      1.4911987    
     31000   298.01548     -13747.631      4544.7812      20.000096      1.4905532    
     31100   287.26537     -22298.691      4546.7487      20.008754      1.4899082    
     31200   291.08468     -21453.363      4548.7161      20.017412      1.4892638    
     31300   312.32891     -19626.216      4550.6835      20.02607       1.4886199    
     31400   306.32694     -13217.597      4552.651       20.034728      1.4879766    
     31500   296.58425     -10274.713      4554.6184      20.043386      1.4873338    
     31600   310.04889     -14163.564      4556.5858      20.052044      1.4866916    
     31700   311.09052     -25867.263      4558.5533      20.060702      1.48605      
     31800   285.92453     -14308.12       4560.5207      20.06936       1.4854089    
     31900   309.84493     -21867.043      4562.4882      20.078018      1.4847684    
     32000   299.00304     -27264.854      4564.4556      20.086676      1.4841284    
     32100   313.17025     -18483.902      4566.423       20.095334      1.4834889    
     32200   302.84597     -11309.289      4568.3905      20.103992      1.4828501    
     32300   300.0205      -24594.327      4570.3579      20.11265       1.4822117    
     32400   299.78871     -25945.691      4572.3253      20.121308      1.4815739    
     32500   302.15824     -30542.377      4574.2928      20.129966      1.4809367    
     32600   313.59332     -16593.5        4576.2602      20.138624      1.4803       
     32700   316.22792     -23005.955      4578.2277      20.147282      1.4796639    
     32800   320.93975     -19725.33       4580.1951      20.15594       1.4790283    
     32900   318.36074     -14945.09       4582.1625      20.164598      1.4783932    
     33000   298.61068     -20745.994      4584.13        20.173256      1.4777587    
     33100   306.08077     -22847.612      4586.0974      20.181915      1.4771248    
     33200   314.10726     -24047.944      4588.0648      20.190573      1.4764914    
     33300   296.54554     -18914.936      4590.0323      20.199231      1.4758585    
     33400   289.69925     -17422.428      4591.9997      20.207889      1.4752262    
     33500   292.46526     -33269.841      4593.9672      20.216547      1.4745944    
     33600   309.23772     -22648.108      4595.9346      20.225205      1.4739631    
     33700   308.47118     -20816.338      4597.902       20.233863      1.4733324    
     33800   310.1141      -21923.599      4599.8695      20.242521      1.4727022    
     33900   296.34013     -26419.458      4601.8369      20.251179      1.4720726    
     34000   270.68796     -26712.5        4603.8043      20.259837      1.4714435    
     34100   287.46906     -22035.765      4605.7718      20.268495      1.470815     
     34200   296.86309     -27674.61       4607.7392      20.277153      1.470187     
     34300   306.19199     -23787.462      4609.7067      20.285811      1.4695595    
     34400   307.63025     -25666.669      4611.6741      20.294469      1.4689325    
     34500   308.21694     -27780.411      4613.6415      20.303127      1.4683061    
     34600   304.20482     -20181.662      4615.609       20.311785      1.4676802    
     34700   297.58574     -22260.464      4617.5764      20.320443      1.4670549    
     34800   303.4841      -22413.001      4619.5439      20.329101      1.4664301    
     34900   315.2645      -21947.189      4621.5113      20.337759      1.4658058    
     35000   316.25473     -22162.474      4623.4787      20.346417      1.4651821    
     35100   301.053       -31869.75       4625.4462      20.355076      1.4645588    
     35200   274.85739     -22089.531      4627.4136      20.363734      1.4639362    
     35300   299.44232     -21880.258      4629.381       20.372392      1.463314     
     35400   303.34053     -17240.531      4631.3485      20.38105       1.4626924    
     35500   312.37595     -31213.72       4633.3159      20.389708      1.4620713    
     35600   313.18696     -20063.329      4635.2834      20.398366      1.4614507    
     35700   296.75206     -24045.382      4637.2508      20.407024      1.4608307    
     35800   283.94577     -23034.373      4639.2182      20.415682      1.4602111    
     35900   304.1075      -29044.354      4641.1857      20.42434       1.4595921    
     36000   299.80713     -29986.01       4643.1531      20.432998      1.4589737    
     36100   309.84937     -20892.57       4645.1205      20.441656      1.4583557    
     36200   309.86885     -25651.277      4647.088       20.450314      1.4577383    
     36300   301.78467     -21138.316      4649.0554      20.458972      1.4571214    
     36400   280.68917     -21631.459      4651.0229      20.46763       1.456505     
     36500   290.67205     -31268.505      4652.9903      20.476288      1.4558892    
     36600   300.17629     -21120.615      4654.9577      20.484946      1.4552738    
     36700   316.57818     -31785.569      4656.9252      20.493604      1.454659     
     36800   307.2085      -32084.499      4658.8926      20.502262      1.4540447    
     36900   313.89824     -31941.556      4660.86        20.51092       1.4534309    
     37000   281.8123      -27421.558      4662.8275      20.519578      1.4528177    
     37100   294.89765     -28869.308      4664.7949      20.528237      1.4522049    
     37200   298.44619     -35720.14       4666.7624      20.536895      1.4515927    
     37300   315.84572     -34357.578      4668.7298      20.545553      1.450981     
     37400   300.70453     -25900.06       4670.6972      20.554211      1.4503698    
     37500   307.27537     -24385.649      4672.6647      20.562869      1.4497591    
     37600   298.36591     -20789.834      4674.6321      20.571527      1.4491489    
     37700   291.69344     -32922.832      4676.5995      20.580185      1.4485393    
     37800   267.98087     -30878.62       4678.567       20.588843      1.4479301    
     37900   294.02629     -29555.232      4680.5344      20.597501      1.4473215    
     38000   311.02883     -22423.968      4682.5019      20.606159      1.4467134    
     38100   293.10361     -32113.622      4684.4693      20.614817      1.4461058    
     38200   299.24359     -35432.472      4686.4367      20.623475      1.4454987    
     38300   304.37902     -27976.104      4688.4042      20.632133      1.4448921    
     38400   285.88119     -34165.113      4690.3716      20.640791      1.444286     
     38500   298.49391     -26538.942      4692.339       20.649449      1.4436804    
     38600   306.15211     -37103.616      4694.3065      20.658107      1.4430754    
     38700   312.50078     -27029.767      4696.2739      20.666765      1.4424708    
     38800   306.22741     -27056.938      4698.2414      20.675423      1.4418668    
     38900   301.49185     -25143.815      4700.2088      20.684081      1.4412632    
     39000   286.46938     -21831.601      4702.1762      20.692739      1.4406602    
     39100   282.1152      -27793.523      4704.1437      20.701398      1.4400577    
     39200   287.24996     -32435.316      4706.1111      20.710056      1.4394556    
     39300   309.58308     -23064.264      4708.0786      20.718714      1.4388541    
     39400   283.92969     -25660.686      4710.046       20.727372      1.4382531    
     39500   318.356       -23221.294      4712.0134      20.73603       1.4376525    
     39600   300.0982      -33595.789      4713.9809      20.744688      1.4370525    
     39700   291.58565     -30090.062      4715.9483      20.753346      1.436453     
     39800   293.5984      -30110.761      4717.9157      20.762004      1.435854     
     39900   303.44954     -25528.47       4719.8832      20.770662      1.4352555    
     40000   293.78889     -23605.539      4721.8506      20.77932       1.4346574    
     40100   282.05656     -23677.401      4723.8181      20.787978      1.4340599    
     40200   301.3371      -23582.812      4725.7855      20.796636      1.4334629    
     40300   286.3454      -19513.885      4727.7529      20.805294      1.4328664    
     40400   305.40724     -26351.376      4729.7204      20.813952      1.4322703    
     40500   294.29383     -26261.087      4731.6878      20.82261       1.4316748    
     40600   297.62863     -31380.132      4733.6552      20.831268      1.4310797    
     40700   290.08939     -26716.82       4735.6227      20.839926      1.4304852    
     40800   286.70116     -28599.249      4737.5901      20.848584      1.4298911    
     40900   286.34194     -30396.735      4739.5576      20.857242      1.4292976    
     41000   298.18221     -24927.99       4741.525       20.8659        1.4287045    
     41100   305.45968     -22610.644      4743.4924      20.874559      1.4281119    
     41200   322.69871     -25757.584      4745.4599      20.883217      1.4275198    
     41300   297.92829     -25178.394      4747.4273      20.891875      1.4269282    
     41400   299.91596     -16965.69       4749.3947      20.900533      1.4263371    
     41500   299.67224     -29086.739      4751.3622      20.909191      1.4257465    
     41600   295.59939     -24791.186      4753.3296      20.917849      1.4251564    
     41700   324.04422     -26495.805      4755.2971      20.926507      1.4245668    
     41800   313.74135     -18011.327      4757.2645      20.935165      1.4239776    
     41900   304.42442     -17890.547      4759.2319      20.943823      1.4233889    
     42000   290.56297     -15006.585      4761.1994      20.952481      1.4228008    
     42100   293.025       -27381.198      4763.1668      20.961139      1.4222131    
     42200   304.0665      -26150.178      4765.1342      20.969797      1.4216259    
     42300   281.16078     -29951.236      4767.1017      20.978455      1.4210391    
     42400   320.73834     -23927.355      4769.0691      20.987113      1.4204529    
     42500   290.16834     -26693.36       4771.0366      20.995771      1.4198672    
     42600   292.22403     -20067.681      4773.004       21.004429      1.4192819    
     42700   295.03698     -20615.082      4774.9714      21.013087      1.4186971    
     42800   284.93514     -30232.972      4776.9389      21.021745      1.4181128    
     42900   306.69987     -19831.042      4778.9063      21.030403      1.417529     
     43000   319.59134     -27795.964      4780.8737      21.039061      1.4169456    
     43100   308.98539     -26244.854      4782.8412      21.04772       1.4163628    
     43200   311.26633     -20153.542      4784.8086      21.056378      1.4157804    
     43300   290.23789     -24779.665      4786.7761      21.065036      1.4151985    
     43400   296.77823     -25229.024      4788.7435      21.073694      1.414617     
     43500   310.4997      -26202.091      4790.7109      21.082352      1.4140361    
     43600   309.56114     -26225.493      4792.6784      21.09101       1.4134556    
     43700   298.7867      -30704.09       4794.6458      21.099668      1.4128756    
     43800   315.98142     -21138.747      4796.6133      21.108326      1.4122961    
     43900   291.57307     -26838.699      4798.5807      21.116984      1.411717     
     44000   269.61616     -29420.035      4800.5481      21.125642      1.4111385    
     44100   270.117       -23418.704      4802.5156      21.1343        1.4105604    
     44200   311.00476     -28394.262      4804.483       21.142958      1.4099827    
     44300   310.46556     -34303.163      4806.4504      21.151616      1.4094056    
     44400   316.46324     -22852.085      4808.4179      21.160274      1.4088289    
     44500   303.05758     -23894.738      4810.3853      21.168932      1.4082527    
     44600   300.3621      -23642.632      4812.3528      21.17759       1.407677     
     44700   288.97004     -22183.959      4814.3202      21.186248      1.4071017    
     44800   288.93053     -23529.777      4816.2876      21.194906      1.4065269    
     44900   314.11664     -18741          4818.2551      21.203564      1.4059526    
     45000   316.87479     -38434.174      4820.2225      21.212222      1.4053787    
     45100   320.08505     -25987.206      4822.1899      21.220881      1.4048053    
     45200   296.49889     -22737.989      4824.1574      21.229539      1.4042324    
     45300   297.69272     -31695.007      4826.1248      21.238197      1.4036599    
     45400   277.31739     -22283.652      4828.0923      21.246855      1.403088     
     45500   280.42363     -23180.299      4830.0597      21.255513      1.4025164    
     45600   299.99897     -16136.094      4832.0271      21.264171      1.4019454    
     45700   319.81594     -17602.008      4833.9946      21.272829      1.4013748    
     45800   304.77382     -25852.868      4835.962       21.281487      1.4008047    
     45900   281.96872     -15678.533      4837.9294      21.290145      1.400235     
     46000   301.34549     -21904.136      4839.8969      21.298803      1.3996658    
     46100   310.19872     -13016.556      4841.8643      21.307461      1.3990971    
     46200   301.20983     -19595.053      4843.8318      21.316119      1.3985288    
     46300   293.66617     -28651.163      4845.7992      21.324777      1.397961     
     46400   294.63219     -22639.546      4847.7666      21.333435      1.3973936    
     46500   281.13929     -25080.51       4849.7341      21.342093      1.3968267    
     46600   276.40133     -22780.293      4851.7015      21.350751      1.3962603    
     46700   289.12627     -26520.108      4853.6689      21.359409      1.3956943    
     46800   320.90428     -27509.668      4855.6364      21.368067      1.3951288    
     46900   314.27668     -24056.778      4857.6038      21.376725      1.3945637    
     47000   317.84797     -15778.07       4859.5713      21.385383      1.3939991    
     47100   307.30486     -21602.251      4861.5387      21.394042      1.393435     
     47200   275.25622     -20410.435      4863.5061      21.4027        1.3928713    
     47300   298.94345     -25755.093      4865.4736      21.411358      1.3923081    
     47400   322.56014     -26186.467      4867.441       21.420016      1.3917453    
     47500   298.81961     -18407.464      4869.4084      21.428674      1.391183     
     47600   283.75469     -27129.064      4871.3759      21.437332      1.3906211    
     47700   308.62329     -21022.314      4873.3433      21.44599       1.3900597    
     47800   301.34071     -31402.865      4875.3108      21.454648      1.3894987    
     47900   299.76616     -30813.988      4877.2782      21.463306      1.3889382    
     48000   294.56688     -26024.763      4879.2456      21.471964      1.3883782    
     48100   308.63892     -17130.557      4881.2131      21.480622      1.3878186    
     48200   286.35922     -16191.583      4883.1805      21.48928       1.3872594    
     48300   276.85766     -22600.128      4885.1479      21.497938      1.3867007    
     48400   295.87439     -17312.701      4887.1154      21.506596      1.3861425    
     48500   320.92043     -25396.756      4889.0828      21.515254      1.3855846    
     48600   317.50379     -25031.86       4891.0503      21.523912      1.3850273    
     48700   311.44885     -28568.718      4893.0177      21.53257       1.3844704    
     48800   303.75716     -19800.211      4894.9851      21.541228      1.3839139    
     48900   288.49429     -23354.477      4896.9526      21.549886      1.3833579    
     49000   300.92147     -31579.629      4898.92        21.558544      1.3828023    
     49100   323.19919     -25978.627      4900.8875      21.567203      1.3822472    
     49200   302.20001     -27303.646      4902.8549      21.575861      1.3816926    
     49300   274.70022     -29106.617      4904.8223      21.584519      1.3811383    
     49400   304.85738     -19196.538      4906.7898      21.593177      1.3805845    
     49500   304.99136     -30120.537      4908.7572      21.601835      1.3800312    
     49600   289.81316     -24611.775      4910.7246      21.610493      1.3794783    
     49700   299.14368     -32407.387      4912.6921      21.619151      1.3789259    
     49800   298.85267     -25354.974      4914.6595      21.627809      1.3783738    
     49900   297.69344     -26425.448      4916.627       21.636467      1.3778223    
     50000   311.71129     -23968          4918.5944      21.645125      1.3772711    
     50100   328.03928     -26418.441      4920.5618      21.653783      1.3767205    
     50200   300.0886      -22479.245      4922.5293      21.662441      1.3761702    
     50300   288.02758     -17819.097      4924.4967      21.671099      1.3756204    
     50400   304.8563      -26838.312      4926.4641      21.679757      1.375071     
     50500   321.96639     -26506.133      4928.4316      21.688415      1.3745221    
     50600   309.26848     -28106.242      4930.399       21.697073      1.3739736    
     50700   312.5384      -30479.212      4932.3665      21.705731      1.3734255    
     50800   291.58233     -22028.924      4934.3339      21.714389      1.3728779    
     50900   307.1015      -27072.679      4936.3013      21.723047      1.3723307    
     51000   315.89806     -23065.256      4938.2688      21.731705      1.371784     
     51100   310.6462      -22176.441      4940.2362      21.740364      1.3712377    
     51200   278.94297     -30186.932      4942.2036      21.749022      1.3706918    
     51300   283.01126     -35742.765      4944.1711      21.75768       1.3701464    
     51400   306.0797      -27878.076      4946.1385      21.766338      1.3696014    
     51500   307.77344     -27029.863      4948.106       21.774996      1.3690568    
     51600   301.12927     -26578.647      4950.0734      21.783654      1.3685127    
     51700   284.79909     -17654.176      4952.0408      21.792312      1.367969     
     51800   282.14789     -26902.674      4954.0083      21.80097       1.3674257    
     51900   306.33871     -30058.828      4955.9757      21.809628      1.3668828    
     52000   286.94053     -36201.982      4957.9431      21.818286      1.3663404    
     52100   290.48667     -39157.546      4959.9106      21.826944      1.3657984    
     52200   282.96928     -33021.294      4961.878       21.835602      1.3652569    
     52300   282.50132     -34187.695      4963.8455      21.84426       1.3647158    
     52400   300.33058     -30304.723      4965.8129      21.852918      1.3641751    
     52500   294.85956     -25937.183      4967.7803      21.861576      1.3636348    
     52600   303.75278     -31139.145      4969.7478      21.870234      1.363095     
     52700   292.64432     -26413.022      4971.7152      21.878892      1.3625555    
     52800   305.99902     -18470.698      4973.6826      21.88755       1.3620166    
     52900   306.74984     -38845.687      4975.6501      21.896208      1.361478     
     53000   320.37546     -27232.231      4977.6175      21.904866      1.3609399    
     53100   310.78287     -28353.3        4979.585       21.913525      1.3604022    
     53200   302.32137     -32805.968      4981.5524      21.922183      1.3598649    
     53300   301.3649      -28573.274      4983.5198      21.930841      1.359328     
     53400   306.03649     -35413.882      4985.4873      21.939499      1.3587916    
     53500   321.98354     -35430.017      4987.4547      21.948157      1.3582556    
     53600   294.83922     -41882.262      4989.4222      21.956815      1.35772      
     53700   287.03814     -27772.876      4991.3896      21.965473      1.3571848    
     53800   281.69257     -26834.806      4993.357       21.974131      1.3566501    
     53900   315.82398     -32514.671      4995.3245      21.982789      1.3561157    
     54000   310.66641     -26714.558      4997.2919      21.991447      1.3555818    
     54100   317.75518     -30765.955      4999.2593      22.000105      1.3550483    
     54200   301.41341     -27399.622      5001.2268      22.008763      1.3545153    
     54300   298.81011     -38335.8        5003.1942      22.017421      1.3539826    
     54400   293.2524      -37392.432      5005.1617      22.026079      1.3534504    
     54500   308.49204     -28499.523      5007.1291      22.034737      1.3529186    
     54600   298.55645     -28506.842      5009.0965      22.043395      1.3523872    
     54700   284.60363     -18295.016      5011.064       22.052053      1.3518562    
     54800   298.89401     -25099.572      5013.0314      22.060711      1.3513257    
     54900   331.95459     -26368.096      5014.9988      22.069369      1.3507955    
     55000   303.99778     -35632.698      5016.9663      22.078027      1.3502658    
     55100   273.69394     -33624.038      5018.9337      22.086686      1.3497365    
     55200   289.34514     -37616.094      5020.9012      22.095344      1.3492076    
     55300   312.20652     -40542.845      5022.8686      22.104002      1.3486791    
     55400   316.37932     -36396.534      5024.836       22.11266       1.3481511    
     55500   300.51325     -28137.729      5026.8035      22.121318      1.3476234    
     55600   300.0507      -35597.575      5028.7709      22.129976      1.3470962    
     55700   297.99612     -23795.712      5030.7383      22.138634      1.3465694    
     55800   313.36678     -26714.874      5032.7058      22.147292      1.3460429    
     55900   297.15194     -35541.861      5034.6732      22.15595       1.3455169    
     56000   310.94575     -37543.715      5036.6407      22.164608      1.3449913    
     56100   318.90314     -39020.798      5038.6081      22.173266      1.3444662    
     56200   304.86258     -22938.277      5040.5755      22.181924      1.3439414    
     56300   290.81005     -30184.292      5042.543       22.190582      1.343417     
     56400   275.94065     -30645.773      5044.5104      22.19924       1.3428931    
     56500   302.80507     -34322.597      5046.4778      22.207898      1.3423695    
     56600   315.29264     -33515.897      5048.4453      22.216556      1.3418464    
     56700   328.87083     -32547.241      5050.4127      22.225214      1.3413237    
     56800   301.98471     -39390.379      5052.3802      22.233872      1.3408013    
     56900   289.7705      -25577.742      5054.3476      22.24253       1.3402794    
     57000   286.20402     -34056.238      5056.315       22.251188      1.3397579    
     57100   300.5888      -37510.328      5058.2825      22.259847      1.3392368    
     57200   292.27772     -30007.932      5060.2499      22.268505      1.3387161    
     57300   315.25083     -28473.761      5062.2173      22.277163      1.3381958    
     57400   296.70903     -30708.156      5064.1848      22.285821      1.3376759    
     57500   307.99478     -36989.956      5066.1522      22.294479      1.3371564    
     57600   299.43213     -35264.548      5068.1197      22.303137      1.3366374    
     57700   292.54225     -35293.558      5070.0871      22.311795      1.3361187    
     57800   293.65617     -31030.208      5072.0545      22.320453      1.3356004    
     57900   306.84428     -33534.63       5074.022       22.329111      1.3350825    
     58000   299.9814      -34178.021      5075.9894      22.337769      1.3345651    
     58100   334.07496     -30640.548      5077.9568      22.346427      1.334048     
     58200   300.3646      -27184.51       5079.9243      22.355085      1.3335313    
     58300   305.50391     -31597.168      5081.8917      22.363743      1.333015     
     58400   301.73349     -35117.517      5083.8592      22.372401      1.3324992    
     58500   277.0892      -28128.614      5085.8266      22.381059      1.3319837    
     58600   303.24081     -39896.427      5087.794       22.389717      1.3314686    
     58700   323.53524     -29324.32       5089.7615      22.398375      1.3309539    
     58800   298.28023     -33296.77       5091.7289      22.407033      1.3304397    
     58900   303.98452     -25669.563      5093.6964      22.415691      1.3299258    
     59000   303.56749     -34234.56       5095.6638      22.424349      1.3294123    
     59100   294.59569     -34503.099      5097.6312      22.433008      1.3288992    
     59200   301.77987     -34707.088      5099.5987      22.441666      1.3283865    
     59300   299.19285     -31091.617      5101.5661      22.450324      1.3278742    
     59400   336.50561     -26479.168      5103.5335      22.458982      1.3273623    
     59500   295.74561     -31005.3        5105.501       22.46764       1.3268508    
     59600   299.72903     -28294.447      5107.4684      22.476298      1.3263397    
     59700   306.39565     -34629.199      5109.4359      22.484956      1.325829     
     59800   292.11141     -40645.195      5111.4033      22.493614      1.3253186    
     59900   276.77162     -32741.913      5113.3707      22.502272      1.3248087    
     60000   297.16661     -26978.656      5115.3382      22.51093       1.3242992    
     60100   325.11664     -33393.474      5117.3056      22.519588      1.32379      
     60200   325.17531     -22352.015      5119.273       22.528246      1.3232813    
     60300   292.86122     -29621.81       5121.2405      22.536904      1.3227729    
     60400   300.88034     -30931.87       5123.2079      22.545562      1.3222649    
     60500   293.37626     -36232.47       5125.1754      22.55422       1.3217573    
     60600   294.56271     -29505.691      5127.1428      22.562878      1.3212501    
     60700   299.72466     -25064.742      5129.1102      22.571536      1.3207433    
     60800   315.83387     -31912.374      5131.0777      22.580194      1.3202369    
     60900   313.08901     -32768.83       5133.0451      22.588852      1.3197309    
     61000   285.28589     -37437.449      5135.0125      22.59751       1.3192252    
     61100   296.83233     -31108.106      5136.98        22.606169      1.31872      
     61200   281.82947     -32529.744      5138.9474      22.614827      1.3182151    
     61300   298.33238     -29393.331      5140.9149      22.623485      1.3177106    
     61400   301.97344     -34084.73       5142.8823      22.632143      1.3172065    
     61500   310.76987     -41310.146      5144.8497      22.640801      1.3167028    
     61600   305.49976     -26839.857      5146.8172      22.649459      1.3161995    
     61700   288.111       -32122.182      5148.7846      22.658117      1.3156965    
     61800   290.29061     -30586.968      5150.752       22.666775      1.315194     
     61900   301.47888     -32881.962      5152.7195      22.675433      1.3146918    
     62000   289.27847     -30573.379      5154.6869      22.684091      1.31419      
     62100   315.93358     -33261.223      5156.6544      22.692749      1.3136886    
     62200   312.37583     -34966.92       5158.6218      22.701407      1.3131876    
     62300   296.36437     -28218.265      5160.5892      22.710065      1.3126869    
     62400   287.76604     -27911.616      5162.5567      22.718723      1.3121867    
     62500   302.06161     -40522.549      5164.5241      22.727381      1.3116868    
     62600   305.79551     -32763.003      5166.4915      22.736039      1.3111873    
     62700   307.65731     -30774.298      5168.459       22.744697      1.3106882    
     62800   294.92334     -40574.412      5170.4264      22.753355      1.3101894    
     62900   295.70424     -33105.661      5172.3939      22.762013      1.3096911    
     63000   292.51166     -28182.424      5174.3613      22.770671      1.3091931    
     63100   297.51481     -34431.389      5176.3287      22.77933       1.3086955    
     63200   289.43006     -35766.221      5178.2962      22.787988      1.3081983    
     63300   304.4841      -35805.153      5180.2636      22.796646      1.3077014    
     63400   314.07263     -34577.916      5182.2311      22.805304      1.307205     
     63500   308.38871     -30309.495      5184.1985      22.813962      1.3067089    
     63600   284.71009     -45677.387      5186.1659      22.82262       1.3062131    
     63700   300.91716     -27180.871      5188.1334      22.831278      1.3057178    
     63800   302.00335     -33971.015      5190.1008      22.839936      1.3052228    
     63900   303.77317     -40372.686      5192.0682      22.848594      1.3047282    
     64000   275.78742     -34109.709      5194.0357      22.857252      1.304234     
     64100   306.43955     -35104.15       5196.0031      22.86591       1.3037402    
     64200   297.9161      -30668.268      5197.9706      22.874568      1.3032467    
     64300   285.21457     -35486.83       5199.938       22.883226      1.3027536    
     64400   291.27893     -31219.687      5201.9054      22.891884      1.3022609    
     64500   301.09965     -34490.708      5203.8729      22.900542      1.3017686    
     64600   303.40774     -35344.686      5205.8403      22.9092        1.3012766    
     64700   308.62443     -27984.786      5207.8077      22.917858      1.300785     
     64800   305.70767     -35199.227      5209.7752      22.926516      1.3002938    
     64900   303.85804     -21229.773      5211.7426      22.935174      1.2998029    
     65000   299.81084     -19811.617      5213.7101      22.943832      1.2993124    
     65100   296.43077     -29774.815      5215.6775      22.952491      1.2988223    
     65200   303.82223     -27487.766      5217.6449      22.961149      1.2983325    
     65300   292.42293     -31922.262      5219.6124      22.969807      1.2978431    
     65400   275.20382     -23078.013      5221.5798      22.978465      1.2973541    
     65500   298.09043     -28156.341      5223.5472      22.987123      1.2968655    
     65600   303.84518     -27008.259      5225.5147      22.995781      1.2963772    
     65700   319.68407     -21146.182      5227.4821      23.004439      1.2958893    
     65800   293.70487     -24774.401      5229.4496      23.013097      1.2954017    
     65900   285.03886     -22054.016      5231.417       23.021755      1.2949146    
     66000   279.37078     -25887.942      5233.3844      23.030413      1.2944278    
     66100   307.25492     -29335.986      5235.3519      23.039071      1.2939413    
     66200   320.78988     -33745.756      5237.3193      23.047729      1.2934552    
     66300   310.38761     -25214.141      5239.2867      23.056387      1.2929695    
     66400   303.61272     -34890.546      5241.2542      23.065045      1.2924842    
     66500   299.36525     -32342.427      5243.2216      23.073703      1.2919992    
     66600   277.40331     -32345.682      5245.1891      23.082361      1.2915146    
     66700   301.58523     -24758.995      5247.1565      23.091019      1.2910303    
     66800   302.01226     -35727.266      5249.1239      23.099677      1.2905464    
     66900   314.86104     -31986.531      5251.0914      23.108335      1.2900629    
     67000   299.06449     -27853.142      5253.0588      23.116993      1.2895797    
     67100   278.51971     -33339.609      5255.0262      23.125652      1.2890969    
     67200   288.92298     -25480.337      5256.9937      23.13431       1.2886145    
     67300   288.03375     -32121.899      5258.9611      23.142968      1.2881324    
     67400   307.36807     -33292.084      5260.9286      23.151626      1.2876507    
     67500   300.08776     -18123.873      5262.896       23.160284      1.2871693    
     67600   295.29337     -20153.764      5264.8634      23.168942      1.2866883    
     67700   300.27898     -33974.48       5266.8309      23.1776        1.2862076    
     67800   297.98424     -34212.288      5268.7983      23.186258      1.2857274    
     67900   300.13005     -26507.137      5270.7657      23.194916      1.2852474    
     68000   294.25673     -34463.585      5272.7332      23.203574      1.2847679    
     68100   301.99298     -23910.319      5274.7006      23.212232      1.2842886    
     68200   328.12787     -30062.736      5276.6681      23.22089       1.2838098    
     68300   302.79785     -34552.629      5278.6355      23.229548      1.2833313    
     68400   279.95709     -39000.847      5280.6029      23.238206      1.2828531    
     68500   279.64136     -35130.646      5282.5704      23.246864      1.2823754    
     68600   279.0326      -34226.153      5284.5378      23.255522      1.2818979    
     68700   315.02914     -25284.673      5286.5053      23.26418       1.2814209    
     68800   302.55149     -32747.001      5288.4727      23.272838      1.2809441    
     68900   313.29691     -36040.426      5290.4401      23.281496      1.2804678    
     69000   294.261       -30566.742      5292.4076      23.290154      1.2799918    
     69100   277.6192      -33439.84       5294.375       23.298813      1.2795161    
     69200   298.8369      -29068.209      5296.3424      23.307471      1.2790408    
     69300   296.75447     -33381.794      5298.3099      23.316129      1.2785659    
     69400   299.16183     -32036.9        5300.2773      23.324787      1.2780913    
     69500   287.7245      -26976.66       5302.2448      23.333445      1.277617     
     69600   302.89681     -22735.55       5304.2122      23.342103      1.2771431    
     69700   292.09356     -42634.259      5306.1796      23.350761      1.2766696    
     69800   296.31039     -32436.268      5308.1471      23.359419      1.2761964    
     69900   306.77318     -29269.964      5310.1145      23.368077      1.2757235    
     70000   304.67759     -32295.47       5312.0819      23.376735      1.2752511    
     70100   310.95732     -38656.8        5314.0494      23.385393      1.2747789    
     70200   307.22883     -31084.375      5316.0168      23.394051      1.2743071    
     70300   281.77159     -27549.864      5317.9843      23.402709      1.2738357    
     70400   296.00967     -33413.491      5319.9517      23.411367      1.2733646    
     70500   320.77658     -36993.178      5321.9191      23.420025      1.2728938    
     70600   278.27284     -32310.858      5323.8866      23.428683      1.2724234    
     70700   282.65773     -28816.988      5325.854       23.437341      1.2719534    
     70800   290.48958     -32035.567      5327.8214      23.445999      1.2714837    
     70900   293.70277     -41638.487      5329.7889      23.454657      1.2710143    
     71000   300.73844     -22772.151      5331.7563      23.463316      1.2705453    
     71100   293.94557     -29651.337      5333.7238      23.471974      1.2700767    
     71200   282.61022     -29195.742      5335.6912      23.480632      1.2696084    
     71300   294.13896     -32075.924      5337.6586      23.48929       1.2691404    
     71400   311.07513     -29085.553      5339.6261      23.497948      1.2686728    
     71500   297.10433     -28684.022      5341.5935      23.506606      1.2682055    
     71600   298.25        -34937.132      5343.5609      23.515264      1.2677385    
     71700   295.6075      -26113.044      5345.5284      23.523922      1.2672719    
     71800   284.71315     -32295.794      5347.4958      23.53258       1.2668057    
     71900   325.36711     -32525.881      5349.4633      23.541238      1.2663398    
     72000   305.91628     -28678.284      5351.4307      23.549896      1.2658742    
     72100   289.59769     -24701.419      5353.3981      23.558554      1.265409     
     72200   296.04381     -30695.116      5355.3656      23.567212      1.2649441    
     72300   296.36981     -29511.556      5357.333       23.57587       1.2644796    
     72400   308.82031     -24384.536      5359.3004      23.584528      1.2640154    
     72500   310.1302      -32276.951      5361.2679      23.593186      1.2635515    
     72600   296.76223     -34666.318      5363.2353      23.601844      1.263088     
     72700   278.28031     -35901.962      5365.2028      23.610502      1.2626248    
     72800   295.48473     -19686.183      5367.1702      23.61916       1.262162     
     72900   313.75578     -23747.685      5369.1376      23.627818      1.2616995    
     73000   315.87959     -24443.797      5371.1051      23.636476      1.2612373    
     73100   294.9232      -36294.962      5373.0725      23.645135      1.2607755    
     73200   293.72568     -31715.114      5375.04        23.653793      1.260314     
     73300   284.24806     -31931.317      5377.0074      23.662451      1.2598529    
     73400   288.42125     -25014.609      5378.9748      23.671109      1.259392     
     73500   311.06867     -27795.807      5380.9423      23.679767      1.2589316    
     73600   333.03185     -28286.831      5382.9097      23.688425      1.2584714    
     73700   304.16684     -24386.255      5384.8771      23.697083      1.2580116    
     73800   303.20808     -31455.273      5386.8446      23.705741      1.2575522    
     73900   291.2527      -13952.889      5388.812       23.714399      1.257093     
     74000   277.22057     -20454.383      5390.7795      23.723057      1.2566343    
     74100   296.13832     -18775.247      5392.7469      23.731715      1.2561758    
     74200   307.34391     -27093.593      5394.7143      23.740373      1.2557177    
     74300   327.97153     -21114.871      5396.6818      23.749031      1.2552599    
     74400   303.84445     -18417.066      5398.6492      23.757689      1.2548024    
     74500   312.70626     -15874.274      5400.6166      23.766347      1.2543453    
     74600   313.73762     -26863.013      5402.5841      23.775005      1.2538885    
     74700   289.99718     -27118.563      5404.5515      23.783663      1.2534321    
     74800   316.31919     -20019.222      5406.519       23.792321      1.2529759    
     74900   305.61717     -25719.806      5408.4864      23.800979      1.2525201    
     75000   308.78033     -30089.31       5410.4538      23.809637      1.2520647    
     75100   288.05399     -25333.202      5412.4213      23.818296      1.2516095    
     75200   303.58924     -25180.484      5414.3887      23.826954      1.2511547    
     75300   307.62312     -19252.95       5416.3561      23.835612      1.2507003    
     75400   305.57747     -22955.609      5418.3236      23.84427       1.2502461    
     75500   331.66032     -29239.178      5420.291       23.852928      1.2497923    
     75600   281.89297     -23858.847      5422.2585      23.861586      1.2493388    
     75700   285.1355      -20808.979      5424.2259      23.870244      1.2488857    
     75800   298.83639     -23551.464      5426.1933      23.878902      1.2484329    
     75900   305.31181     -33613.075      5428.1608      23.88756       1.2479804    
     76000   315.14499     -27969.262      5430.1282      23.896218      1.2475282    
     76100   274.33333     -24563.606      5432.0956      23.904876      1.2470764    
     76200   280.51234     -19187.253      5434.0631      23.913534      1.2466249    
     76300   288.6386      -28983.68       5436.0305      23.922192      1.2461737    
     76400   317.19551     -21528.316      5437.998       23.93085       1.2457228    
     76500   305.45906     -33617.211      5439.9654      23.939508      1.2452723    
     76600   283.24956     -30804.687      5441.9328      23.948166      1.2448221    
     76700   283.19144     -27420.111      5443.9003      23.956824      1.2443722    
     76800   281.55902     -27758.245      5445.8677      23.965482      1.2439226    
     76900   304.02541     -22500.926      5447.8351      23.97414       1.2434734    
     77000   303.89889     -24001.485      5449.8026      23.982798      1.2430245    
     77100   307.93053     -22335.197      5451.77        23.991457      1.2425759    
     77200   312.04079     -24284.252      5453.7375      24.000115      1.2421277    
     77300   284.45114     -31064.286      5455.7049      24.008773      1.2416797    
     77400   306.32375     -23591.989      5457.6723      24.017431      1.2412321    
     77500   290.02576     -19466.932      5459.6398      24.026089      1.2407848    
     77600   280.57436     -26076.171      5461.6072      24.034747      1.2403378    
     77700   282.15303     -33472.405      5463.5746      24.043405      1.2398912    
     77800   299.21685     -23832.033      5465.5421      24.052063      1.2394449    
     77900   306.07638     -24169.1        5467.5095      24.060721      1.2389989    
     78000   301.90169     -24502.007      5469.477       24.069379      1.2385532    
     78100   289.7793      -20339.667      5471.4444      24.078037      1.2381078    
     78200   292.89274     -21579.302      5473.4118      24.086695      1.2376628    
     78300   282.79999     -31000.833      5475.3793      24.095353      1.2372181    
     78400   304.15486     -32746.893      5477.3467      24.104011      1.2367737    
     78500   311.44364     -25720.045      5479.3142      24.112669      1.2363296    
     78600   285.82856     -24241.343      5481.2816      24.121327      1.2358858    
     78700   289.08068     -28497.603      5483.249       24.129985      1.2354424    
     78800   308.64916     -24236.467      5485.2165      24.138643      1.2349992    
     78900   328.49443     -30247.043      5487.1839      24.147301      1.2345564    
     79000   312.23945     -22206.703      5489.1513      24.155959      1.2341139    
     79100   296.31047     -31034.877      5491.1188      24.164618      1.2336717    
     79200   292.82763     -23318.1        5493.0862      24.173276      1.2332299    
     79300   274.16964     -17860.864      5495.0537      24.181934      1.2327883    
     79400   296.81928     -20444.489      5497.0211      24.190592      1.2323471    
     79500   296.94119     -31240.413      5498.9885      24.19925       1.2319062    
     79600   315.06453     -13101.582      5500.956       24.207908      1.2314656    
     79700   298.10743     -28168.849      5502.9234      24.216566      1.2310253    
     79800   287.82546     -23539.631      5504.8908      24.225224      1.2305854    
     79900   299.14521     -23182.984      5506.8583      24.233882      1.2301457    
     80000   312.85115     -14266.589      5508.8257      24.24254       1.2297064    
     80100   301.0299      -25479.284      5510.7932      24.251198      1.2292674    
     80200   308.46307     -36572.597      5512.7606      24.259856      1.2288286    
     80300   299.33742     -22415.156      5514.728       24.268514      1.2283902    
     80400   289.98827     -25487.037      5516.6955      24.277172      1.2279522    
     80500   301.19606     -26142.254      5518.6629      24.28583       1.2275144    
     80600   312.693       -29286.874      5520.6303      24.294488      1.2270769    
     80700   308.00932     -25858.399      5522.5978      24.303146      1.2266398    
     80800   294.23987     -27298.668      5524.5652      24.311804      1.2262029    
     80900   299.16348     -16887.224      5526.5327      24.320462      1.2257664    
     81000   301.24738     -28324.597      5528.5001      24.32912       1.2253302    
     81100   275.15901     -30881.796      5530.4675      24.337779      1.2248943    
     81200   297.34379     -27165.493      5532.435       24.346437      1.2244587    
     81300   314.99576     -22743.737      5534.4024      24.355095      1.2240234    
     81400   303.38604     -27067.761      5536.3698      24.363753      1.2235884    
     81500   294.75396     -31294.672      5538.3373      24.372411      1.2231538    
     81600   298.21573     -31652.342      5540.3047      24.381069      1.2227194    
     81700   283.93346     -29120.8        5542.2722      24.389727      1.2222854    
     81800   297.48463     -33051.927      5544.2396      24.398385      1.2218516    
     81900   294.77694     -29815.932      5546.207       24.407043      1.2214182    
     82000   296.16807     -32195.538      5548.1745      24.415701      1.2209851    
     82100   292.07233     -28810.359      5550.1419      24.424359      1.2205522    
     82200   299.88039     -32685.313      5552.1093      24.433017      1.2201197    
     82300   295.29948     -17168.797      5554.0768      24.441675      1.2196875    
     82400   303.00869     -25999.902      5556.0442      24.450333      1.2192556    
     82500   286.02831     -30586.017      5558.0117      24.458991      1.218824     
     82600   287.87446     -31160.901      5559.9791      24.467649      1.2183927    
     82700   303.23553     -25323.467      5561.9465      24.476307      1.2179617    
     82800   303.84624     -18573.594      5563.914       24.484965      1.2175311    
     82900   292.7817      -22009.08       5565.8814      24.493623      1.2171007    
     83000   287.20978     -19672.67       5567.8489      24.502281      1.2166706    
     83100   299.66489     -23322.055      5569.8163      24.51094       1.2162409    
     83200   292.76079     -17427.903      5571.7837      24.519598      1.2158114    
     83300   310.67186     -12100.788      5573.7512      24.528256      1.2153822    
     83400   304.86038     -20192.669      5575.7186      24.536914      1.2149534    
     83500   287.22106     -23684.342      5577.686       24.545572      1.2145248    
     83600   287.29018     -19198.685      5579.6535      24.55423       1.2140966    
     83700   315.84883     -19057.319      5581.6209      24.562888      1.2136686    
     83800   313.91793     -13838.394      5583.5884      24.571546      1.213241     
     83900   298.34223     -14443.6        5585.5558      24.580204      1.2128136    
     84000   296.00302     -17655.404      5587.5232      24.588862      1.2123866    
     84100   306.48042     -15733.196      5589.4907      24.59752       1.2119598    
     84200   316.1613      -15034.214      5591.4581      24.606178      1.2115334    
     84300   289.795       -13690.956      5593.4255      24.614836      1.2111072    
     84400   290.96234     -21704.283      5595.393       24.623494      1.2106814    
     84500   279.30813     -18270.366      5597.3604      24.632152      1.2102558    
     84600   311.17646     -19167.442      5599.3279      24.64081       1.2098306    
     84700   312.20263     -18573.122      5601.2953      24.649468      1.2094056    
     84800   283.87996     -10503.203      5603.2627      24.658126      1.208981     
     84900   297.9497      -16341.729      5605.2302      24.666784      1.2085566    
     85000   292.75624     -20923.095      5607.1976      24.675442      1.2081326    
     85100   301.17451     -21148.263      5609.165       24.684101      1.2077088    
     85200   319.55069     -17552.729      5611.1325      24.692759      1.2072854    
     85300   314.72024     -19941.869      5613.0999      24.701417      1.2068622    
     85400   292.6012      -7368.756       5615.0674      24.710075      1.2064393    
     85500   307.16091     -17735.609      5617.0348      24.718733      1.2060168    
     85600   288.93904     -20392.575      5619.0022      24.727391      1.2055945    
     85700   304.84806     -21693.63       5620.9697      24.736049      1.2051725    
     85800   317.55793     -18892.383      5622.9371      24.744707      1.2047508    
     85900   298.95197     -16712.918      5624.9045      24.753365      1.2043294    
     86000   291.80511     -23379.576      5626.872       24.762023      1.2039083    
     86100   299.31956     -15511.273      5628.8394      24.770681      1.2034875    
     86200   310.86362     -22231.686      5630.8069      24.779339      1.203067     
     86300   321.33066     -9144.5234      5632.7743      24.787997      1.2026468    
     86400   303.93051     -21643.029      5634.7417      24.796655      1.2022269    
     86500   283.18375     -20787.236      5636.7092      24.805313      1.2018073    
     86600   284.73751     -22617.071      5638.6766      24.813971      1.2013879    
     86700   304.1935      -10902.042      5640.644       24.822629      1.2009689    
     86800   301.62068     -8890.031       5642.6115      24.831287      1.2005502    
[...]
     98600   296.44928     -17913.003      5874.7691      25.852937      1.1531071    
     98700   294.66627     -12508.99       5876.7366      25.861595      1.1527211    
     98800   301.17184     -16682.605      5878.704       25.870253      1.1523353    
     98900   287.12667     -23122.169      5880.6715      25.878911      1.1519498    
     99000   274.19949     -10306.102      5882.6389      25.887569      1.1515645    
     99100   288.62605     -13871.279      5884.6063      25.896228      1.1511795    
     99200   292.83037     -12821.278      5886.5738      25.904886      1.1507947    
     99300   297.31573     -17117.253      5888.5412      25.913544      1.1504102    
     99400   299.73465     -10335.889      5890.5086      25.922202      1.150026     
     99500   290.67009     -10836.852      5892.4761      25.93086       1.149642     
     99600   271.35773     -8716.3711      5894.4435      25.939518      1.1492583    
     99700   295.69292     -9033.5625      5896.411       25.948176      1.1488748    
     99800   310.19082     -14348.029      5898.3784      25.956834      1.1484916    
     99900   286.75608     -16362.604      5900.3458      25.965492      1.1481087    
    100000   303.82637     -14198.649      5902.3133      25.97415       1.147726     
    100100   305.51308     -21725.422      5904.2807      25.982808      1.1473435    
    100200   291.52392     -10023.926      5906.2481      25.991466      1.1469613    
    100300   294.82709     -14132.497      5908.2156      26.000124      1.1465794    
    100400   291.67514     -18780.933      5910.183       26.008782      1.1461977    
    100500   311.73163     -12255.749      5912.1505      26.01744       1.1458163    
    100600   307.79034     -11359.81       5914.1179      26.026098      1.1454351    
    100700   277.59322     -19869.921      5916.0853      26.034756      1.1450542    
    100800   291.4364      -15822.297      5918.0528      26.043414      1.1446735    
    100900   309.74099     -15802.402      5920.0202      26.052072      1.1442931    
    101000   314.44253     -19372.649      5921.9876      26.06073       1.1439129    
    101100   295.34545     -9748.9684      5923.9551      26.069389      1.143533     
    101200   307.05055     -19791.403      5925.9225      26.078047      1.1431533    
    101300   326.99978     -22792.567      5927.89        26.086705      1.1427739    
    101400   327.99488     -7065.2976      5929.8574      26.095363      1.1423948    
    101500   301.10479     -13524.116      5931.8248      26.104021      1.1420159    
    101600   309.66208     -14065.508      5933.7923      26.112679      1.1416372    
    101700   299.90291     -14207.589      5935.7597      26.121337      1.1412588    
    101800   291.07654     -17814.336      5937.7271      26.129995      1.1408807    
    101900   307.75716     -14083.17       5939.6946      26.138653      1.1405028    
    102000   318.47636     -13754.928      5941.662       26.147311      1.1401251    
    102100   313.50197     -21677.013      5943.6295      26.155969      1.1397477    
    102200   308.06042     -11751.497      5945.5969      26.164627      1.1393706    
    102300   321.25992     -17797.795      5947.5643      26.173285      1.1389937    
    102400   292.41285     -14463.622      5949.5318      26.181943      1.138617     
    102500   295.07978     -23346.362      5951.4992      26.190601      1.1382406    
    102600   297.9907      -18130.867      5953.4667      26.199259      1.1378645    
    102700   321.36467     -16310.569      5955.4341      26.207917      1.1374886    
    102800   314.02441     -9807.4776      5957.4015      26.216575      1.1371129    
    102900   311.6757      -14076.637      5959.369       26.225233      1.1367375    
    103000   297.37125     -8590.4065      5961.3364      26.233891      1.1363623    
    103100   303.70665     -16446.162      5963.3038      26.24255       1.1359874    
    103200   295.80135     -21422.517      5965.2713      26.251208      1.1356127    
    103300   307.58579     -22413.191      5967.2387      26.259866      1.1352383    
    103400   317.91428     -16831.779      5969.2062      26.268524      1.1348642    
    103500   313.17348     -14511.002      5971.1736      26.277182      1.1344902    
    103600   291.36307     -15766.282      5973.141       26.28584       1.1341166    
    103700   289.92069     -18759.316      5975.1085      26.294498      1.1337431    
    103800   296.80317     -23815.049      5977.0759      26.303156      1.1333699    
    103900   301.60297     -16801.382      5979.0433      26.311814      1.132997     
    104000   309.7487      -19014.079      5981.0108      26.320472      1.1326243    
    104100   322.62755     -15560.605      5982.9782      26.32913       1.1322518    
    104200   302.62023     -16749.011      5984.9457      26.337788      1.1318796    
    104300   296.24051     -11666.886      5986.9131      26.346446      1.1315077    
    104400   295.55922     -11242.166      5988.8805      26.355104      1.131136     
    104500   327.39901     -7324.3596      5990.848       26.363762      1.1307645    
    104600   322.19767     -18875.673      5992.8154      26.37242       1.1303933    
    104700   306.92847     -19336.883      5994.7828      26.381078      1.1300223    
    104800   303.78275     -17294.378      5996.7503      26.389736      1.1296515    
    104900   271.68394     -22465.956      5998.7177      26.398394      1.129281     
    105000   296.6113      -25251.123      6000.6852      26.407052      1.1289108    
    105100   300.4258      -11225.361      6002.6526      26.415711      1.1285408    
    105200   312.45027     -17846.731      6004.62        26.424369      1.128171     
    105300   325.78251     -14554.82       6006.5875      26.433027      1.1278015    
    105400   302.58382     -10423.693      6008.5549      26.441685      1.1274322    
    105500   295.55133     -20435.357      6010.5223      26.450343      1.1270631    
    105600   291.2938      -26344.128      6012.4898      26.459001      1.1266943    
    105700   315.13911     -22026.816      6014.4572      26.467659      1.1263258    
    105800   308.00327     -13321.736      6016.4247      26.476317      1.1259574    
    105900   312.83321     -16741.111      6018.3921      26.484975      1.1255894    
    106000   288.48267     -16114.846      6020.3595      26.493633      1.1252215    
    106100   292.72428     -15657.364      6022.327       26.502291      1.1248539    
    106200   312.46429     -27320.865      6024.2944      26.510949      1.1244866    
    106300   316.14257     -29221.905      6026.2618      26.519607      1.1241194    
    106400   304.52486     -14309.065      6028.2293      26.528265      1.1237526    
    106500   301.54289     -19550.49       6030.1967      26.536923      1.1233859    
    106600   297.94038     -19057.008      6032.1642      26.545581      1.1230195    
    106700   286.60554     -19910.197      6034.1316      26.554239      1.1226534    
    106800   319.7783      -19514.691      6036.099       26.562897      1.1222874    
    106900   307.98545     -26070.226      6038.0665      26.571555      1.1219217    
    107000   281.51414     -8019.2282      6040.0339      26.580213      1.1215563    
    107100   303.45987     -15136          6042.0013      26.588872      1.1211911    
    107200   292.44631     -18737.655      6043.9688      26.59753       1.1208261    
    107300   278.94959     -21466.023      6045.9362      26.606188      1.1204614    
    107400   280.53447     -17446.122      6047.9037      26.614846      1.1200969    
    107500   307.36444     -21712.098      6049.8711      26.623504      1.1197326    
    107600   311.78729     -7325.3145      6051.8385      26.632162      1.1193686    
    107700   293.53042     -33293.492      6053.806       26.64082       1.1190048    
    107800   291.2989      -13424.176      6055.7734      26.649478      1.1186413    
    107900   307.63962     -10086.156      6057.7409      26.658136      1.118278     
    108000   337.87309     -11808.975      6059.7083      26.666794      1.1179149    
    108100   317.4657      -14372.244      6061.6757      26.675452      1.117552     
    108200   297.67035     -11321.198      6063.6432      26.68411       1.1171894    
    108300   293.72697     -15573.15       6065.6106      26.692768      1.1168271    
    108400   289.6769      -2033.9494      6067.578       26.701426      1.1164649    
    108500   312.30037     -1956.7499      6069.5455      26.710084      1.116103     
    108600   315.85949     -7757.7627      6071.5129      26.718742      1.1157414    
    108700   311.72542     -10059.844      6073.4804      26.7274        1.1153799    
    108800   280.01935     -9156.4562      6075.4478      26.736058      1.1150187    
    108900   303.92953     -9491.3851      6077.4152      26.744716      1.1146578    
    109000   296.14664     -5255.8958      6079.3827      26.753374      1.114297     
    109100   310.12109     -9363.069       6081.3501      26.762033      1.1139365    
    109200   317.15386     -13912.87       6083.3175      26.770691      1.1135763    
    109300   302.29624     -17410.175      6085.285       26.779349      1.1132162    
    109400   291.98449     -23051.8        6087.2524      26.788007      1.1128564    
    109500   277.45864     -8624.69        6089.2199      26.796665      1.1124969    
    109600   306.78033     -9816.9553      6091.1873      26.805323      1.1121375    
    109700   296.71007     -6402.605       6093.1547      26.813981      1.1117784    
    109800   302.70625     -10626.617      6095.1222      26.822639      1.1114196    
    109900   301.87662     -7334.7907      6097.0896      26.831297      1.1110609    
    110000   290.77306     -9555.6795      6099.057       26.839955      1.1107025    
    110100   303.04289     -2550.5968      6101.0245      26.848613      1.1103444    
    110200   288.56957     -2800.4039      6102.9919      26.857271      1.1099864    
    110300   273.91051     -13455.959      6104.9594      26.865929      1.1096287    
    110400   276.32304     -7984.8118      6106.9268      26.874587      1.1092712    
    110500   305.47165     -9329.6874      6108.8942      26.883245      1.108914     
    110600   302.45162     -2977.6839      6110.8617      26.891903      1.1085569    
    110700   313.33603     -15071.443      6112.8291      26.900561      1.1082001    
    110800   305.81335     -6375.7662      6114.7965      26.909219      1.1078436    
    110900   290.20491     -12639.812      6116.764       26.917877      1.1074872    
    111000   300.65561     -13077.801      6118.7314      26.926535      1.1071311    
    111100   297.29732     -9533.9807      6120.6989      26.935194      1.1067753    
    111200   299.65165     -4302.5427      6122.6663      26.943852      1.1064196    
    111300   314.70887     -7042.0044      6124.6337      26.95251       1.1060642    
    111400   306.85407     -10583.455      6126.6012      26.961168      1.105709     
    111500   308.7676      -4440.2754      6128.5686      26.969826      1.105354     
    111600   289.45105     -14079.338      6130.536       26.978484      1.1049993    
    111700   288.70638     -6234.2114      6132.5035      26.987142      1.1046448    
    111800   301.43819     -12017.76       6134.4709      26.9958        1.1042905    
    111900   305.94723     -6752.8058      6136.4384      27.004458      1.1039365    
    112000   312.20702     -1137.0615      6138.4058      27.013116      1.1035826    
    112100   282.9284      -8176.8467      6140.3732      27.021774      1.103229     
    112200   291.56453     -10193.113      6142.3407      27.030432      1.1028757    
    112300   291.13882     -2997.5025      6144.3081      27.03909       1.1025225    
    112400   284.52288     -7635.4715      6146.2756      27.047748      1.1021696    
    112500   284.81901     -8892.113       6148.243       27.056406      1.1018169    
    112600   308.53834     -7625.1715      6150.2104      27.065064      1.1014644    
    112700   293.37502     -16274.782      6152.1779      27.073722      1.1011122    
    112800   305.28604     -13869.205      6154.1453      27.08238       1.1007602    
    112900   295.60947     -8401.2608      6156.1127      27.091038      1.1004084    
    113000   292.85373     -7806.3127      6158.0802      27.099697      1.1000568    
    113100   297.27146     -12623.47       6160.0476      27.108355      1.0997055    
    113200   294.58548     -10227.877      6162.0151      27.117013      1.0993544    
    113300   293.21326     -11521.159      6163.9825      27.125671      1.0990035    
    113400   292.87972     -14599.121      6165.9499      27.134329      1.0986528    
    113500   300.06714     -4570.6624      6167.9174      27.142987      1.0983023    
    113600   308.3524      -9270.5044      6169.8848      27.151645      1.0979521    
    113700   293.61486      398.62003      6171.8522      27.160303      1.0976021    
    113800   289.61039     -7619.7992      6173.8197      27.168961      1.0972523    
    113900   295.05761     -10828.786      6175.7871      27.177619      1.0969028    
    114000   308.73094     -14648.426      6177.7546      27.186277      1.0965535    
    114100   301.85012     -18962.731      6179.722       27.194935      1.0962043    
    114200   302.63678     -11705.169      6181.6894      27.203593      1.0958555    
    114300   295.58478     -11082.429      6183.6569      27.212251      1.0955068    
    114400   258.89503      188.4935       6185.6243      27.220909      1.0951583    
    114500   314.35045     -11337.428      6187.5917      27.229567      1.0948101    
    114600   298.23318     -14547.744      6189.5592      27.238225      1.0944621    
    114700   302.72431     -10748.785      6191.5266      27.246883      1.0941143    
    114800   293.61383     -10744.93       6193.4941      27.255541      1.0937668    
    114900   283.84319     -12895.923      6195.4615      27.264199      1.0934195    
    115000   285.82094     -4876.858       6197.4289      27.272858      1.0930723    
    115100   306.05204     -14663.949      6199.3964      27.281516      1.0927254    
    115200   312.12133     -12789.602      6201.3638      27.290174      1.0923788    
    115300   296.04185     -14620.829      6203.3312      27.298832      1.0920323    
    115400   295.1383      -12191.6        6205.2987      27.30749       1.0916861    
    115500   267.55055     -18316.03       6207.2661      27.316148      1.09134      
    115600   298.22475     -10717.914      6209.2336      27.324806      1.0909942    
    115700   306.26636     -12441.792      6211.201       27.333464      1.0906487    
    115800   300.33381     -19936.904      6213.1684      27.342122      1.0903033    
    115900   298.93598     -11020.313      6215.1359      27.35078       1.0899582    
    116000   280.70142     -15856.336      6217.1033      27.359438      1.0896132    
    116100   300.37585     -13894.289      6219.0707      27.368096      1.0892685    
    116200   289.56212     -10583.791      6221.0382      27.376754      1.0889241    
    116300   295.57983     -6975.8141      6223.0056      27.385412      1.0885798    
    116400   306.93039     -14100.05       6224.9731      27.39407       1.0882357    
    116500   284.82527     -7721.5136      6226.9405      27.402728      1.0878919    
    116600   293.18057     -16485.642      6228.9079      27.411386      1.0875483    
    116700   276.24249     -16987.036      6230.8754      27.420044      1.0872049    
    116800   291.98734     -2309.8787      6232.8428      27.428702      1.0868617    
    116900   308.02795     -18079.984      6234.8102      27.43736       1.0865187    
    117000   293.28043     -19266.551      6236.7777      27.446018      1.086176     
    117100   292.83684     -17385.124      6238.7451      27.454677      1.0858334    
    117200   288.49051     -9044.2453      6240.7126      27.463335      1.0854911    
    117300   301.60214     -2127.4115      6242.68        27.471993      1.085149     
    117400   292.50197     -23853.04       6244.6474      27.480651      1.0848071    
    117500   305.38744     -4495.9956      6246.6149      27.489309      1.0844655    
    117600   323.89836     -9284.7519      6248.5823      27.497967      1.084124     
    117700   295.70105     -8299.5534      6250.5498      27.506625      1.0837828    
    117800   291.2655      -15622.448      6252.5172      27.515283      1.0834417    
    117900   297.97071     -17675.028      6254.4846      27.523941      1.0831009    
    118000   292.87969     -11137.017      6256.4521      27.532599      1.0827603    
    118100   319.51166     -5882.7959      6258.4195      27.541257      1.0824199    
    118200   301.76065     -13994.959      6260.3869      27.549915      1.0820798    
    118300   307.29958     -8699.6777      6262.3544      27.558573      1.0817398    
    118400   285.77559     -10420.103      6264.3218      27.567231      1.0814001    
    118500   293.67633     -14556.921      6266.2893      27.575889      1.0810605    
    118600   304.27251     -8142.4174      6268.2567      27.584547      1.0807212    
    118700   315.14942     -6178.1138      6270.2241      27.593205      1.0803821    
    118800   302.23727     -5439.0742      6272.1916      27.601863      1.0800432    
    118900   288.74411      398.64484      6274.159       27.610521      1.0797046    
    119000   281.70548     -11963.175      6276.1264      27.619179      1.0793661    
    119100   299.2684      -10809.181      6278.0939      27.627838      1.0790278    
    119200   321.62274     -7241.6549      6280.0613      27.636496      1.0786898    
    119300   294.80576     -11164.097      6282.0288      27.645154      1.078352     
    119400   298.81237     -13420.861      6283.9962      27.653812      1.0780144    
    119500   310.91514     -15782.701      6285.9636      27.66247       1.0776769    
    119600   309.49302     -14685.809      6287.9311      27.671128      1.0773398    
    119700   310.50211     -10868.904      6289.8985      27.679786      1.0770028    
    119800   302.2358      -12050.364      6291.8659      27.688444      1.076666     
    119900   298.24304     -19289.38       6293.8334      27.697102      1.0763294    
    120000   298.33184     -8863.1826      6295.8008      27.70576       1.0759931    
Loop time of 4072.2 on 8 procs for 120000 steps with 386 atoms

Performance: 1.273 ns/day, 18.853 hours/ns, 29.468 timesteps/s, 11.375 katom-step/s
98.8% CPU use with 8 MPI tasks x 1 OpenMP threads

MPI task timing breakdown:
Section |  min time  |  avg time  |  max time  |%varavg| %total
---------------------------------------------------------------
Pair    | 2328.7     | 2709.5     | 3224.5     | 597.1 | 66.54
Bond    | 0.28779    | 0.30854    | 0.33356    |   2.9 |  0.01
Neigh   | 177.31     | 203.17     | 248.69     | 180.2 |  4.99
Comm    | 210.22     | 725.12     | 1105.8     |1154.0 | 17.81
Output  | 0.38607    | 0.4215     | 0.45626    |   3.5 |  0.01
Modify  | 385.21     | 431.09     | 457.25     | 124.7 | 10.59
Other   |            | 2.57       |            |       |  0.06

Nlocal:          48.25 ave          61 max          34 min
Histogram: 1 0 2 0 0 1 1 1 1 1
Nghost:        2488.75 ave        2561 max        2413 min
Histogram: 1 1 0 1 1 2 0 0 0 2
Neighs:        21017.9 ave       24405 max       15376 min
Histogram: 1 0 1 1 0 0 0 2 1 2

Total # of neighbors = 168143
Ave neighs/atom = 435.60363
Ave special neighs/atom = 0
Neighbor list builds = 12000
Dangerous builds not checked
Total wall time: 1:07:52
