LAMMPS data file via write_data, version 2 Aug 2023, timestep = 2000, units = real

366 atoms
4 atom types

0.0510649769513396 15.67293502304857 xlo xhi
0.11783617922154388 13.7852638207784 ylo yhi
-0.07156479409877115 17.318064794098724 zlo zhi
-7.728076479528264 -0.1489165100850435 -0.045718737362614184 xy xz yz

Masses

1 12.0107
2 1.00794
3 15.9994
4 28.0855

Atoms # full

11 1 4 0.9524760342510465 -0.7328246849384324 4.9245686538418685 7.064877069130673 0 0 0
69 1 1 -0.6614104502919694 -2.0940105273800427 5.459017348003683 5.800399640769625 0 0 0
102 1 3 -0.8477403681960524 -0.9447938412064181 3.2876928386142366 2.4026117091985353 0 0 0
104 1 3 -0.8279852408524891 -0.5699161312840015 5.035770800346536 0.19537467921081159 0 0 0
98 1 3 -0.7828176529544761 -0.2712913329466721 1.7430750118105942 4.492069298585412 0 0 0
215 1 2 0.1609989552955603 -2.1425073510746597 6.243548271636076 5.047850966713351 0 0 0
210 1 2 0.1652614475336175 -1.6180448556545692 6.324506865960732 2.204959505196492 0 0 0
19 1 4 1.586368507938072 7.620666336979152 0.15470520817607258 1.9006195703095172 0 0 0
105 1 3 -0.7884502897288387 0.08252444061070412 3.781898094021875 6.360858538788401 0 0 0
216 1 2 0.1520039412870272 -3.043145030424548 5.524110725846226 6.64347738918013 0 0 0
70 1 1 -0.6687189208532845 0.40415353278303867 6.376966148873926 7.462224799233494 0 0 0
9 1 4 1.554929544071307 0.09290033205760012 4.247943470882379 1.4948569716743398 0 0 0
124 1 3 -0.8175360501472257 0.7018730683182622 5.4008151093731325 2.383654694680885 0 0 0
5 1 4 1.280028652272777 0.7686180641862257 2.4696071930786614 5.561317788379231 0 0 0
303 3 4 1.355008943620931 5.3299284808832015 4.565637853134134 1.3103569299639481 0 0 0
29 1 4 1.14287672768549 4.741150040057453 4.269260559298516 7.740321118014691 0 0 0
64 1 1 -0.6768445864847735 2.1656944737543466 3.3044760487617455 4.475854407843691 0 0 0
76 1 1 -0.6916755023906458 5.494350407948233 1.333902407985948 4.7893473590894375 0 0 0
79 1 1 -0.6480563041076555 3.0761326669988853 5.074464830318172 7.0206413776032 0 0 0
99 1 3 -0.786018387599569 1.6155669060834195 1.445268953653145 6.662561217896621 0 0 0
103 1 3 -0.7966466605492805 1.2828965042366942 3.310287066052263 0.8498898721314235 0 0 0
115 1 3 -0.8825613274202898 6.524466273484429 0.9682297243837081 1.0563064208536266 0 0 0
324 4 1 -0.6616023671614401 3.716995836840058 0.21637951198225408 2.782282979328546 0 0 0
126 1 3 -0.8011082860409329 5.6629063861430735 3.2725756396735957 6.808609388215413 0 0 0
199 1 2 0.1839523416844097 1.7265758131015454 2.8033360021648996 3.5056699224247136 0 0 0
200 1 2 0.1601822283024496 3.005948687663069 2.712983170002241 4.863180766707794 0 0 0
201 1 2 0.1811240933509841 2.5118789436546205 4.3794499967147145 4.331298363427171 0 0 0
244 1 2 0.1844013068449012 2.7111230716101566 4.352876106511776 6.1055700810612 0 0 0
245 1 2 0.1415165766075378 3.2696260445279632 6.283016825189882 6.812668218154696 0 0 0
246 1 2 0.188697743415486 2.4042571037717813 4.90504315249588 7.966599046659855 0 0 0
305 3 1 -0.6564202710118446 4.24168260212063 3.4517365838041325 2.4501210795945445 0 0 0
309 3 3 -0.8419645919130477 5.892445885790634 3.5485643487317398 0.25852372879813884 0 0 0
310 3 3 -0.7718767304241769 4.103512462703414 5.509024716835174 0.8520878000308696 0 0 0
312 3 2 0.2369011341280202 3.1233722870102616 3.847790022784314 2.2421931236374038 0 0 0
313 3 2 0.1486337184706621 4.623588542011878 3.6694830720344576 3.5186695602545535 0 0 0
314 3 2 0.1755962325865914 4.302195095337652 2.3127390110849864 2.1808014950820023 0 0 0
355 13 3 -0.8245523864810742 1.984143375877468 0.6529877109652561 0.5029137263369549 0 0 0
236 1 2 0.1652481220818586 4.601838833802387 1.9985326986567398 4.744230627819778 0 0 0
235 1 2 0.1956620822174166 6.107174360439367 1.4105138363042047 3.8177255964652073 0 0 0
325 4 2 0.1479632569621899 3.050969301165043 1.116997366790256 3.2472151750297136 0 0 0
219 1 2 0.1820343290672558 1.33350994340869 6.4536262174005845 6.871432457846949 0 0 0
4 1 4 1.4010257494463 2.45253765262288 0.41116764620817997 7.642211907347808 0 0 0
77 1 1 -0.6559299880981648 3.2895217757161768 6.1984121085946855 3.898892349255091 0 0 0
239 1 2 0.1411685042614809 2.9680120691527985 5.962548719106911 5.017771584666979 0 0 0
326 4 2 0.2115386638024526 4.560906102152047 0.5144769710042619 2.0367753845211336 0 0 0
238 1 2 0.185122094301708 3.6367838033603848 5.161177986260893 3.406279947061579 0 0 0
214 1 2 0.2642289195661751 -2.253245089593592 4.481517794287053 5.174171075755313 0 0 0
27 1 4 1.143408884954937 1.4860130678416226 6.766496914988803 3.049702639069496 0 0 0
237 1 2 0.2708473719427664 5.1592360809923505 0.19499403800841347 4.977848828840876 0 0 0
217 1 2 0.1414319879538959 0.5470390103595434 5.979327410808878 8.574226568141107 0 0 0
68 1 1 -0.6822303178297736 -1.63301081619278 4.300451322298536 8.730576013332902 0 0 0
106 1 3 -0.8330439466829961 -2.595281927321268 6.264015866721786 16.29158876509404 0 0 0
332 6 2 0.1975688474278635 -0.5328997411391105 3.9592873217365927 15.007315426723098 0 0 0
212 1 2 0.135938335156283 -2.064327773750111 5.220983753909085 9.266027544278659 0 0 0
331 6 1 -0.6451012806035497 -1.6338518330847125 3.5766178369695387 14.89578406127434 0 0 0
213 1 2 0.1650373000756501 -0.9565466633568436 3.7393219390683123 9.407326907885922 0 0 0
252 1 2 0.1765917984709132 -0.4236662872426122 6.087198001795625 14.563461308807316 0 0 0
202 1 2 0.2051193350485642 -1.1122515804020912 2.3074801322812304 11.293657558988047 0 0 0
65 1 1 -0.6536330893939771 -0.25989898373033815 1.6283893779456182 10.854078705104715 0 0 0
100 1 3 -0.8498116445236351 -0.04741822056778369 1.85826417801967 16.25575942966607 0 0 0
254 1 2 0.1662544646576495 1.0178679495501801 6.463574377721965 11.635228943592743 0 0 0
253 1 2 0.1644686416233131 2.193887172731947 5.479130355443045 10.47318039623519 0 0 0
32 1 4 1.149781960689705 3.5917309453631883 6.3845124258349335 12.031400862331045 0 0 0
20 1 4 1.591356172124251 6.072183960375237 1.9433562887427651 17.24564646283735 0 0 0
255 1 2 0.1755998674090182 1.5861571298215884 4.628801297979419 12.18103453403969 0 0 0
251 1 2 0.1867656696469186 1.2366904808370816 5.800076619448482 13.561767163338653 0 0 0
207 1 2 0.1612152547416482 0.24260207229231784 3.6826990964095887 13.128081830415562 0 0 0
359 17 2 0.1843692195918177 -1.9968325474165862 3.5301225050655787 13.700435677216309 1 0 0
204 1 2 0.1664445522381372 0.1276075525168509 1.9572737384661143 9.886024429680573 0 0 0
206 1 2 0.2352815884127101 0.8858838370708826 2.215269806359266 14.06821544591321 0 0 0
250 1 2 0.211889422443939 1.059984355958063 5.0369343844057815 15.32607637001758 0 0 0
125 1 3 -0.7934151030148464 4.244682973704156 3.638174876071235 9.199127154570125 0 0 0
8 1 4 1.151029571130385 1.531590442882038 1.778509146685867 11.839349369870607 0 0 0
22 1 4 1.59942627008212 3.939524068310653 2.171384131916218 9.83203311806907 0 0 0
25 1 4 1.576874446913713 3.7784696948650804 1.8272436666950513 15.261295069191334 0 0 0
328 5 2 0.1781108334520123 0.6862288345024747 0.255630753032146 9.639010199773788 0 1 0
30 1 4 1.663560788432197 5.222502791128302 4.205174126711033 13.637157314683465 0 0 0
66 1 1 -0.7020147133589132 1.129771509089573 2.9774731500914986 13.332199137843789 0 0 0
81 1 1 -0.6751736681052605 0.7231174223711317 5.925583516197823 14.630903329933851 0 0 0
82 1 1 -0.6481320395012256 1.864511687490717 5.708680193067378 11.592316744681101 0 0 0
101 1 3 -0.8176450869853464 1.6596835500316054 0.27467603314177175 12.34835620006225 0 0 0
117 1 3 -0.8175745841237848 2.6977927418573007 2.4066810964633154 10.840240959679157 0 0 0
119 1 3 -0.8775098242785051 3.2932600602049735 0.49221998280582935 14.554326434577597 0 0 0
120 1 3 -0.8672775836143886 4.899628389964498 1.3491882813339888 16.308284908141708 0 0 0
121 1 3 -0.8147865982733958 2.489947002697303 2.583500539030852 16.134227337996897 0 0 0
122 1 3 -0.8527581743980776 5.2680044043443495 1.6483076189314774 10.581871819239366 0 0 0
127 1 3 -0.8582201401579544 4.383696640328376 2.9706723334682197 14.175326137336395 0 0 0
131 1 3 -0.8491787567283885 4.346364899114995 5.166847846669181 12.799730972780441 0 0 0
205 1 2 0.2179378888409672 2.1574878092291363 3.4159692652374773 13.488347697754927 0 0 0
10 1 4 1.32969064298567 -1.372886095204923 6.420524187076947 17.29883205184199 0 0 -1
3 1 4 1.5605169666348 1.3280203206305872 2.0462385931038956 17.077980824911023 0 0 0
227 1 2 0.1688622274177871 -1.0726233343287557 6.372602168764164 12.939162185705879 0 0 0
116 1 3 -0.8297329474327199 3.349265907778489 1.2737965992353153 8.661409065643404 0 0 0
221 1 2 0.1828949710895355 -4.3419601836949475 8.307488511837182 8.541830103674684 0 0 0
208 1 2 0.175326864163128 -3.0651833629088823 7.3963033367490825 1.5934517998632667 0 0 0
263 1 2 0.1696729947920511 -0.6327259641600481 11.211437656038925 0.0825335023909492 0 0 0
241 1 2 0.1533448972352037 -0.5884748609491441 7.2324639439640865 3.928507896314902 0 0 0
358 16 2 0.2644858131750274 -3.6005433916164344 13.143072436194394 3.6721119686744137 0 0 0
78 1 1 -0.6618258867421798 0.4610311860640007 7.472938988377988 4.432456754995753 0 0 0
1 1 4 1.333890201508457 -5.4209945719754575 13.290725998925549 1.6909599399574775 0 0 0
209 1 2 0.1837310496349032 -1.4354857377484158 8.159212050405607 1.6748993041242968 0 0 0
14 1 4 1.107799154611385 -2.3379436622800958 9.559022283300347 7.582116293023748 0 0 0
15 1 4 1.552381063009278 -4.134162305846802 11.812331498317238 5.93335213900522 0 0 0
34 1 4 1.269909200864305 -1.2348383036129278 11.575285409266598 3.942204565506522 0 0 0
72 1 1 -0.6740895853116968 -1.5123865679099973 8.623635449044578 6.160227803240824 0 0 0
84 1 1 -0.6756708623593801 -1.6314861942842174 9.93932178009737 3.1963648225897843 0 0 0
107 1 3 -0.7964367084026842 -6.43700994618792 12.722425362405815 2.7783409548302824 0 0 0
108 1 3 -0.7723608324965188 -4.734327151681562 11.749465273709564 0.9516361237363837 0 0 0
109 1 3 -0.7957274027196695 -5.374576694313841 11.464918910554847 4.969153226417001 0 0 0
110 1 3 -0.7577227809915681 -3.7192698238786295 10.482530590596777 6.909679582552003 0 0 0
111 1 3 -0.8651103374326951 -4.505336966127868 13.00457124342185 6.830338166318124 0 0 0
134 1 3 -0.8172555246604792 -0.9548294206991215 12.56076164495946 2.6900374265204303 0 0 0
135 1 3 -0.8005547742149782 -2.898258044120432 12.16933790488595 4.958280117537904 0 0 0
223 1 2 0.152377304588165 -1.7470169945563772 7.441564516821002 6.044579434132928 0 0 0
225 1 2 0.1865940797520986 -1.5740052033768022 9.12403324332601 5.053974437832155 0 0 0
261 1 2 0.168709853153526 -1.6914030927124297 10.279419252508596 2.0596772841342195 0 0 0
224 1 2 0.2070636332277573 -0.4278081185197568 8.829774344806967 6.57067687637816 0 0 0
259 1 2 0.1571474829656755 -2.631467298170572 9.363036790974572 3.6014407428038173 0 0 0
289 1 2 0.1697718463091684 -3.215725096511855 8.368188466297461 5.048809113856569 1 0 0
290 1 2 0.1608018710838717 -4.197030183466544 9.079640064102104 3.63757909606271 1 0 0
338 8 2 0.17839979407387 -2.340640014837008 9.26951735137889 0.14078412685445243 0 0 0
361 19 2 0.1698867587983915 -3.822124795766937 9.500692181643856 1.383401521604062 0 0 1
67 1 1 -0.6838482472435293 -1.9832072921346402 7.189172014701283 1.4833004556801688 0 0 0
260 1 2 0.1695744886707284 -0.6371177751282954 9.368674549304231 3.306814399990004 0 0 0
220 1 2 0.1333219528884825 -2.624958860923647 7.389051933847403 8.189639282261801 0 0 0
95 1 1 -0.6585723879627047 -4.196579699561399 8.281921319106289 4.411319836116769 1 0 0
132 1 3 -0.8124766586608694 1.800364771692517 7.979272888004324 2.020715433602609 0 0 0
337 8 1 -0.676087336092496 -3.4409736620706806 9.366177925686621 0.2811235221089648 0 0 0
138 1 3 -0.8343299322101504 -1.3286432151288416 10.328722198225531 8.589910998931147 0 0 0
142 1 3 -0.804880039288199 1.5828488295438357 9.956361483348417 6.486887807584408 0 0 0
218 1 2 0.1472477793722712 -0.23146259059844787 7.35796358253063 7.344013834798074 0 0 0
141 1 3 -0.8483589574682862 -0.07856387638436887 11.378683812611051 5.04917146617068 0 0 0
242 1 2 0.1985005208197828 0.7293508316386303 8.625319467470078 4.416925934282973 0 0 0
243 1 2 0.1829608648025268 0.47204700292706203 7.080187802127729 5.557088356634867 0 0 0
267 1 2 0.1565619319539256 3.590306912036257 7.529962294265445 5.6909737221628465 0 0 0
228 1 2 0.176944032016772 -0.18793492516527505 7.93270965561476 12.305265800748574 0 0 0
71 1 1 -0.6516263360253147 -3.173885476116512 8.27845879612633 8.777284386063197 0 0 0
299 2 3 -0.8243494765728793 -5.872013195524519 10.347761219454789 16.143019864376242 0 0 0
145 1 3 -0.7678786683607025 3.250086258250114 7.7928442322080045 12.990144067768233 0 0 0
139 1 3 -0.8442369876867827 -0.8116424584036068 12.898506547509974 8.755670942612042 0 0 0
147 1 3 -0.8666260339223536 1.8888079284942332 10.059853900745495 12.336798400131604 0 0 0
226 1 2 0.1560497043110528 -1.6086218916727977 7.110213568974849 11.280304816412793 0 0 0
297 2 4 1.146611618099539 -4.535691838422984 10.873953982701629 17.05808818793603 0 0 0
222 1 2 0.1907608343565756 -3.0081417833499837 8.26408501523554 9.86337702913111 0 0 0
300 2 2 0.2608999761419743 -3.289325185982483 12.91560181294179 16.37643343560542 0 0 0
302 2 2 0.1760485402581351 -2.0766440429018265 11.547727666114998 16.297552573612464 0 0 0
301 2 2 0.207332418302032 -3.3771990436054025 11.693497192464235 14.96565741324922 0 0 0
342 9 2 0.1700018065685781 -1.2356774144109437 11.549941056997714 14.129586936365008 0 0 0
73 1 1 -0.6695496588892327 -1.1562441096866445 7.306217782041076 12.311559111103346 0 0 0
6 1 4 1.551068835329668 -5.190874848167863 13.122968302079908 13.51149126552583 0 -1 0
16 1 4 1.154625614685729 -2.425105679505115 8.490627472780666 13.160772264166969 0 0 0
18 1 4 1.346214857919189 -3.329293488678073 11.197415756778312 11.642111382692445 0 0 0
37 1 4 1.592391644715625 -0.8695839176294502 11.521043229557119 9.58697533407636 0 0 0
74 1 1 -0.6624686539598382 -1.5142841373400115 9.51928336892826 14.48047234231899 0 0 0
75 1 1 -0.6490118929270614 -4.439567064973047 10.9839972485005 10.107576557330676 0 0 0
112 1 3 -0.7919220149574248 -3.3057878129686036 7.432039327077299 14.018677189548953 0 0 0
113 1 3 -0.7918261743045045 -3.116425196764416 9.59604998963906 12.172750678425835 0 0 0
114 1 3 -0.8426683497612757 -4.1153636508728635 12.133808694018022 12.74150494420658 0 0 0
140 1 3 -0.801004886184261 -1.9688165296338411 11.661660062424222 10.925493373824207 0 0 0
229 1 2 0.1659285288337944 -2.10351100754833 10.40579371180021 15.054638480549276 0 0 0
230 1 2 0.1952249683137192 -0.7012390842308007 9.955052691183337 13.8211275058557 0 0 0
231 1 2 0.2589220395240414 -1.0660021147594472 8.766568850308463 15.24471545744866 0 0 0
232 1 2 0.1934722425273522 -4.139015648721574 11.883140837208185 9.433920426757586 0 0 0
234 1 2 0.1970125033245268 -4.0447234078101015 9.909438331829403 9.634860915649918 0 0 0
298 2 1 -0.6932019164137257 -3.1002246546949093 11.842714692935843 16.064732820919254 0 0 0
340 9 1 -0.654536434368056 -1.3019049837263816 12.775418737835434 14.107188970266794 0 0 0
341 9 2 0.2018892442948838 -1.2763960050152086 13.290454651501847 15.138127473692027 0 0 0
356 14 3 -0.8421690405140825 -6.254923807899216 12.226910080928786 14.293233187492309 0 0 0
329 5 2 0.1719605511566086 -5.801790450628661 12.349884321663058 9.368906257481202 0 0 0
262 1 2 0.17405198842518 -0.41454074575431166 11.762690839472548 15.679245981594043 0 0 -1
362 20 2 0.2376283896948586 0.03457710401522063 10.046138721821727 16.304404370462372 0 0 0
130 1 3 -0.758475468152464 -0.2858913268454147 7.67069172048051 16.544462868616534 0 0 0
233 1 2 0.1746447977014065 -5.584528264669071 11.007893384159903 10.487503639979577 0 0 0
144 1 3 -0.8317850547799029 1.3289134372581914 8.74039058361824 14.59378432702439 0 0 0
343 9 2 0.2399582373337295 -2.1252920045468136 13.219241872097424 13.409233415208014 0 0 0
85 1 1 -0.6823485249380548 -0.07037261404204911 11.09638803268708 16.604640090182187 0 0 -1
265 1 2 0.2078926586914361 0.4298449299857108 8.691451830783443 8.648016686381522 0 0 0
39 1 4 1.538956518096437 2.5216470236111204 9.241403760488943 13.567567584153185 0 0 0
129 1 3 -0.805235809419273 2.595208190420266 7.080923059090046 16.49805442251374 0 0 0
146 1 3 -0.8357472669409038 0.5591671589455377 11.214899171024932 10.214806589013122 0 0 0
266 1 2 0.2212908772903341 1.7393279735602531 8.984205982682916 9.994963487963485 0 0 0
86 1 1 -0.6562352072578624 1.517014657447649 8.54962759713571 9.00846956660448 0 0 0
31 1 4 1.31657546548319 1.237530388040119 7.462929451777626 15.578926792971338 0 0 0
264 1 2 0.1470001879390556 1.8267359053570866 7.451442288740119 8.841210375074056 0 0 0
327 5 1 -0.6707526222040785 -6.5359515399898935 13.208072600402325 8.850295050921227 0 0 0
258 1 2 0.1617805184748578 3.217763634550908 7.684158306373186 9.823641058516472 0 0 0
339 8 2 0.265445979355909 -4.09573609226407 8.439034152001845 17.10595816793562 0 0 -1
344 10 1 -0.6485859335695517 14.132112094163803 1.2311545041379923 8.208390691333312 0 0 0
304 3 4 0.9439887980594515 6.764714929555229 6.543979434068127 3.660535959983378 0 0 0
308 3 1 -0.622212661003205 6.173436250344793 6.005178017462959 5.3019028908469705 0 0 0
311 3 3 -0.7601932823795077 6.287346496769908 5.562801427602593 2.480887001936575 0 0 0
321 3 2 0.1698200240583569 5.0504230546464735 6.171422440125743 5.343726699344907 0 0 0
80 1 1 -0.6623689525902258 6.042868737687271 5.584067177392582 8.12374054702988 0 0 0
249 1 2 0.1392935970780539 5.480067836903797 6.501317099275375 7.859507235111497 0 0 0
323 3 2 0.2029014406038955 6.559383996110331 4.8954704219234015 5.2427600026616 0 0 0
247 1 2 0.1874018083060879 7.003551112672871 5.460251474183639 7.412443395081477 0 0 0
169 1 3 -0.789698588937782 9.477676685071081 3.3868870116386796 8.54933201944564 0 0 0
151 1 3 -0.8019546114041326 7.996716990691886 2.937372372290414 4.922174416993859 0 0 0
276 1 2 0.2161973303785581 7.954860397239163 4.498552005285569 6.498372816504762 0 0 0
43 1 4 1.602453262697751 11.565902383689417 1.805072301850123 0.1276631312883481 0 0 0
273 1 2 0.1582293065683728 11.587542840831313 6.464237655978206 2.2572107194053865 0 0 0
306 3 1 -0.6634894915568291 8.71162183587828 6.833796623058659 3.6317610911989178 0 0 0
150 1 3 -0.8582171017943104 8.310716221716673 1.205299557934817 2.984319841920656 0 0 0
277 1 2 0.1727661280440432 8.836023483045015 5.84743749809827 5.375366063307261 0 0 0
274 1 2 0.1554267151771127 10.68085951995308 5.5348568112558905 3.7927688571601674 0 0 0
2 1 4 1.606406754149545 14.07809068839599 2.171436627480682 3.4166852149208253 0 0 0
42 1 4 1.626714361540072 8.935968141399927 2.396914020737774 3.750391685234203 0 0 0
46 1 4 1.558370753946553 11.627893237183935 2.199012099071333 5.297963000815536 0 0 0
50 1 4 1.419337777207023 10.379459320154272 4.2879465884528685 1.6561937196760157 0 0 0
52 1 4 1.187665302352049 10.094152424548202 4.220726053499037 7.295753791203812 0 0 0
89 1 1 -0.6569193472006062 11.389251860190694 5.429260331887082 2.8408518017735713 0 0 0
90 1 1 -0.663123396016068 8.79623284389299 5.282513306675062 6.469330670895299 0 0 0
149 1 3 -0.8774424181765113 13.493433620088718 0.8912222923769049 2.728517916433464 0 0 0
153 1 3 -0.8259798980842366 11.53073916613988 0.45836410110752906 1.1994730422637423 0 0 0
156 1 3 -0.8598864478370435 12.945565217912254 2.8780562724665595 4.368260030888979 0 0 0
157 1 3 -0.8010909501382352 10.317017536717433 1.8012873082460206 4.4257579691446685 0 0 0
158 1 3 -0.8326819961243102 12.1855241213025 1.0445883728360175 6.344292481177689 0 0 0
165 1 3 -0.8292434720416475 9.265030198958744 3.645486937935738 2.718969333693616 0 0 0
166 1 3 -0.8313934293268415 11.388968788616609 3.199532781504731 1.0458379687792554 0 0 0
168 1 3 -0.8553187976537006 9.945191180581933 5.459707591080482 0.6472376753149746 0 0 0
170 1 3 -0.8116030989179907 10.979087138962077 3.333804358570942 6.296551680163691 0 0 0
275 1 2 0.1271843331547153 8.720338250169208 6.036760542822347 7.384799109892986 0 0 0
91 1 1 -0.6647397159751202 11.186397536549222 5.731623787185133 8.02057994408924 0 0 0
211 1 2 0.1675154151298234 13.141241880681536 3.5960991273559686 8.349754166318974 -1 0 0
364 22 2 0.2178786609462641 12.285522087462494 4.779187896454857 2.984500678128608 -1 0 0
315 3 2 0.1869035204970087 9.321784179611155 5.867483455823898 3.769796532832434 0 0 0
271 1 2 0.140674404692322 11.319434670696674 6.493967312127625 7.16247391261467 0 0 0
270 1 2 0.1583547769563445 12.24857397604134 5.197604366747429 8.308505575469546 0 0 0
346 10 2 0.2033902429216854 14.34939911540682 2.1697388781624425 7.605263258934121 0 0 0
345 10 2 0.1931024801349129 15.101540121876164 0.5816789540243815 8.409915235634932 0 0 0
118 1 3 -0.8260078799382504 7.417648076313853 1.107726116887598 6.888523188894507 0 0 0
23 1 4 1.297715173863914 6.6458316956027055 2.1790150436063804 5.977548371424826 0 0 0
248 1 2 0.186266132494607 6.384994586458919 5.602204689142689 9.194170189239186 0 0 0
26 1 4 1.596675164712018 6.618454748082417 2.1617353981878087 11.318434281015707 0 0 0
128 1 3 -0.7769787706087912 6.363363234058222 3.585553292165133 12.571091461559188 0 0 0
174 1 3 -0.8231385947235421 6.006583886363353 4.981250581299447 14.715146918500158 0 0 0
54 1 4 1.610116375013589 6.4277215223493736 6.5194531787270815 15.31917389571722 0 0 0
162 1 3 -0.8302292964374106 7.550221941032222 1.9305020375773283 16.34157450995948 0 0 0
285 1 2 0.1652623588760271 5.9652082227074965 6.4280275336636725 10.821278074647408 0 0 0
284 1 2 0.2794757119452793 6.934054936312258 5.018839147840732 11.730195616319392 0 0 0
93 1 1 -0.6727542578453871 7.084903733407112 5.9721924960802095 11.05160718868299 0 0 0
175 1 3 -0.7988450476922342 7.807647881920057 6.375691809647805 16.20343587433839 0 0 0
256 1 2 0.1615454764641095 4.793940759722431 6.495479213656838 9.543311598698024 0 0 0
155 1 3 -0.8774263660277473 7.7358795388767865 2.5699880776208928 10.340890085771878 0 0 0
283 1 2 0.1482720228972864 7.72210146566059 5.785793496054391 10.11238613343683 0 0 0
365 23 2 0.1731215578471867 10.73087329419823 6.222990641953027 10.60331192359855 -1 0 0
203 1 2 0.2107707379885695 15.028027117089788 0.5113125428310897 10.838656833854806 -1 0 0
363 21 2 0.1868404603065383 13.592524853309692 1.5501826269782677 9.171592693079166 -1 0 0
279 1 2 0.1714989624080994 10.780003943565793 6.2939671436808124 8.92834889768187 0 0 0
280 1 2 0.1644268902605855 13.30620109142084 3.8337722123045737 10.636464046990769 0 0 0
12 1 4 1.53865562942313 11.758838681469722 6.4102529374878445 15.26862709182674 -1 0 0
7 1 4 1.394688099054864 14.095982219462588 1.807444092242133 15.585732523560942 0 0 0
45 1 4 1.623916161643047 9.179054651209611 2.2028694543939054 9.682875661153991 0 0 0
48 1 4 1.666276490610585 8.827146309296525 2.0493779966857533 15.510880192729593 0 0 0
49 1 4 1.397647820577572 11.525111972099952 2.3851666277138897 11.983154699076609 0 0 0
51 1 4 1.389993051455729 9.35770136695733 6.519338267096195 17.010853194129012 0 0 0
53 1 4 1.588904748299862 9.906845205845888 4.347916715422861 13.872419048629002 0 0 0
88 1 1 -0.6139357454602874 12.974674935214836 3.5216470398775224 11.773762379238189 0 0 0
152 1 3 -0.8574875514165063 12.775512442530939 1.7146638589851881 16.61003572641401 0 0 0
159 1 3 -0.83486818373744 14.035986145299756 0.8671170856379171 14.206637274080386 0 0 0
160 1 3 -0.8425085529322874 8.73929598352747 0.82503114391983 14.417708675933646 0 0 0
161 1 3 -0.8245287364459312 10.164584736762025 1.9037184796768822 16.52253273662574 0 0 0
163 1 3 -0.7917167048860351 10.521423328819168 2.3008347575019528 10.67265235659865 0 0 0
164 1 3 -0.7854765099466944 12.265684452400745 0.9298504686355159 12.455325657383694 0 0 0
171 1 3 -0.8191535935102995 8.880933914823752 3.5518352401875983 14.818604549077351 0 0 0
172 1 3 -0.8384602269886308 10.649751300728534 3.2238092591412073 13.036089612662055 0 0 0
173 1 3 -0.8622935478735958 11.130372964567234 5.082782373769581 14.83498123284012 0 0 0
177 1 3 -0.821234836079233 9.370947423368143 5.542691100757006 12.781070422839946 0 0 0
272 1 2 0.1802993153699201 12.882252987744923 4.327362218777183 12.543819453293196 0 0 0
55 1 4 1.200494335274498 8.67916227111149 6.721511183996308 11.919484775034583 0 0 0
154 1 3 -0.8075589246923223 9.136953485478118 0.8115219915319813 8.96288211890805 0 0 0
123 1 3 -0.8454717805622186 7.1771965234924515 1.1161662157359447 12.375231461249617 0 0 0
333 6 2 0.2584330524378616 13.251283747059725 4.091846564923657 15.622472050036391 -1 0 0
35 1 4 1.432766621280109 1.6429937734733897 11.787796545059255 0.05306756802953673 0 0 0
334 7 1 -0.6580896004981487 8.908585950080434 9.904815071286155 3.1407698536780924 0 0 0
44 1 4 1.426884000684463 5.145768446041402 13.730676126515519 7.38099632394671 0 0 0
268 1 2 0.2326091989996568 4.482600317076652 9.072089234216698 6.345694184113923 0 0 0
278 1 2 0.1614407291238654 11.447382096389187 7.178442764423333 3.9466065877446397 0 0 0
21 1 4 1.61318387502227 0.33550942486761565 13.66514204346057 7.9001695501641604 0 0 0
41 1 4 1.654299950214644 4.9897015879509725 13.405294866240776 1.971456786763711 0 -1 0
318 3 2 0.2413117490419039 5.1540329248489885 8.298062565216245 2.6031309623491024 0 0 0
291 1 2 0.1940017893291457 9.738382690443723 9.077093700477498 6.9452378535677495 0 0 0
33 1 4 1.53022240626721 2.818681148655145 9.240779916229283 1.6827014304961623 0 0 0
240 1 2 0.1773608116218719 4.169213359720052 7.014199282156189 3.832479580274177 0 0 0
56 1 4 1.616174303234534 3.7879210611216925 11.231040948051945 4.010487755973116 0 0 0
60 1 4 1.581790077715411 6.324475920378837 11.318530044454384 5.806016938110129 0 0 0
87 1 1 -0.6897609057643956 3.8251578234284813 8.212836487399912 6.6403781355474365 0 0 0
133 1 3 -0.8422582796599662 4.1631548275654975 8.49515956242503 0.9399596414083509 0 0 0
96 1 1 -0.676462676608993 9.352690266434063 8.436970164897836 7.797364197166957 0 0 0
143 1 3 -0.8473128901880893 1.2183982619431133 12.579315501120991 6.975896150598681 0 0 0
178 1 3 -0.8377080231433797 3.338490987747466 9.939417115533477 3.184161004199651 0 0 0
179 1 3 -0.8449314021976465 4.331664110892375 12.282171886997798 2.956705130567106 0 0 0
180 1 3 -0.831577400343629 2.593983575357618 11.938266790897792 4.8211260530716675 0 0 0
186 1 3 -0.8533177301437992 4.912386786641164 10.819071437760108 5.2623442840083445 0 0 0
187 1 3 -0.7916169988624339 6.961764600836263 9.987408196739938 6.453571212103549 0 0 0
188 1 3 -0.8243192785921137 6.2409265977855055 12.60941737031618 6.791840340214388 0 0 0
269 1 2 0.1364742502976739 4.1948379521033905 7.675049651141033 7.515780850113803 0 0 0
307 3 1 -0.6666285306854802 5.729950427957691 8.32272061573974 3.5885032848053013 0 0 0
319 3 2 0.1653780114273823 6.595286182518879 9.095496097731981 3.5939483262307332 0 0 0
320 3 2 0.2112920427166186 5.034568900480769 8.485986140830793 4.460576996436172 0 0 0
357 15 3 -0.8500370372111791 6.133257754501382 12.542151062831294 1.0043713864852508 0 0 0
322 3 2 0.0474592563183249 7.058949357758972 7.008225427298911 6.397258451082806 0 0 0
351 12 1 -0.6751242665313777 6.871143279201692 9.95066112064113 0.6109036072273686 0 0 0
58 1 4 0.797900289531268 7.507946734730875 8.645198959924848 7.340114164725607 0 0 0
185 1 3 -0.828659392614811 7.427027189602526 11.669302847519518 4.646386532456212 0 0 0
136 1 3 -0.8501452936825544 2.2060682985585705 10.446881685318775 0.8864429803590734 0 0 0
352 12 2 0.1644866119240359 7.530302173476027 9.89505942312449 1.5629896962426275 0 0 0
354 12 2 0.2584221392904517 5.90323433709939 9.454602869916204 0.8410202028363716 0 0 0
182 1 3 -0.8357913966408362 3.411021881076393 10.486977074443008 8.511038827264512 0 0 0
137 1 3 -0.8024008305722319 0.9347237924352458 12.984920129625461 1.0004589874157745 0 0 0
347 11 1 -0.6636876816377685 9.328791429296238 8.112516521640856 0.769354688548745 0 0 0
316 3 2 0.141814202169462 9.013441751777009 7.585174579549525 4.47042485165304 0 0 0
349 11 2 0.1647646628297669 10.123934752404724 7.924816365852885 1.5191541569840066 0 0 0
317 3 2 0.1825228626024131 8.901946480197852 7.284252087004123 2.548436248083895 0 0 0
336 7 2 0.1468396839375253 7.9293063525224525 9.313464670852948 3.2749734903589114 0 0 0
13 1 4 1.382859356085749 8.820252917719086 11.615108664694855 3.9568419011821927 -1 0 0
286 1 2 0.1680022092750925 10.54888270820557 8.42509121766011 5.1252606132737775 0 0 0
350 11 2 0.1629874922962699 8.273565593046058 8.134250226178011 1.1805684424548089 0 0 0
292 1 2 0.1446256297686223 9.983463299661429 7.388179432700971 7.915045650174485 0 0 0
335 7 2 0.1900166373541415 9.048426898587005 10.199332992801754 2.0408932628041465 0 0 0
360 18 2 0.1846823222322119 9.90295065440157 9.326862767132567 3.577226157485261 -1 0 0
36 1 4 1.199652729252116 2.597718033027436 9.513021940288453 7.593566307314274 0 0 0
330 5 2 0.1927838821343323 8.365761834265141 12.804335959602657 8.040630370327513 -1 0 0
28 1 4 1.54306058087147 4.09412578081886 7.07472630707107 -0.004599159849167464 0 0 1
348 11 2 0.2470321740313701 9.53959345865702 9.061154838807877 0.05898029396185275 0 0 0
38 1 4 1.602624934212023 1.3256260053364053 11.599988328211921 5.792903308043541 0 0 0
183 1 3 -0.7863742159892184 4.355850004718503 13.078106660001545 8.623032393689101 0 0 0
176 1 3 -0.8007675618536922 5.21226359589757 7.003497487205311 16.406166648978576 0 0 0
40 1 4 1.594449622824533 1.6374930400540242 11.462682067791341 11.499562924444355 0 0 0
257 1 2 0.1937894286126861 4.878379495559289 7.8809919194094356 10.873058741443772 0 0 0
83 1 1 -0.6827451152078723 4.168215522731557 7.13825684435325 10.323247567284266 0 0 0
47 1 4 1.674258474662891 5.338418136396017 13.542761949118002 13.43172309423384 0 -1 0
288 1 2 0.1676942618508468 6.897967512203021 7.617940410994177 9.85892994097731 0 0 0
17 1 4 1.608404530968724 8.662544285128373 11.129241370148659 15.233146822227756 0 0 0