LAMMPS (2 Aug 2023 - Update 2)
OMP_NUM_THREADS environment is not set. Defaulting to 1 thread. (src/comm.cpp:98)
  using 1 OpenMP thread(s) per MPI task
Reading data file ...
  triclinic box = (0.051064977 0.11783618 -0.071564794) to (15.672935 13.785264 17.318065) with tilt (-7.7280765 -0.14891651 -0.045718737)
WARNING: Triclinic box skew is large. LAMMPS will run inefficiently. (src/domain.cpp:220)
  2 by 2 by 2 MPI processor grid
  reading atoms ...
  366 atoms
  reading velocities ...
  366 velocities
Finding 1-2 1-3 1-4 neighbors ...
  special bond factors lj:    0        0        0       
  special bond factors coul:  0        0        0       
     0 = max # of 1-2 neighbors
     0 = max # of 1-3 neighbors
     0 = max # of 1-4 neighbors
     1 = max # of special neighbors
  special bonds CPU = 0.001 seconds
  read_data CPU = 0.008 seconds
*****Minimization starts.*****
Setting up cg style minimization ...
  Unit style    : real
  Current step  : 0
WARNING: No pairwise cutoff or binsize set. Atom sorting therefore disabled. (src/atom.cpp:2366)
WARNING: Communication cutoff is 0.0. No ghost atoms will be generated. Atoms may get lost. (src/comm_brick.cpp:210)
Per MPI rank memory allocation (min/avg/max) = 6.365 | 6.365 | 6.365 Mbytes
   Step          Temp          E_pair         E_mol          TotEng         Press     
         0   300            0              0              326.3987       4018.5663    
         1   300            0              0              326.3987       4018.5663    
Loop time of 5.3804e-05 on 8 procs for 1 steps with 366 atoms

40.7% CPU use with 8 MPI tasks x 1 OpenMP threads

Minimization stats:
  Stopping criterion = search direction is not downhill
  Energy initial, next-to-last, final = 
                     0                  0                  0
  Force two-norm initial, final = 0 0
  Force max component initial, final = 0 0
  Final line search alpha, max atom move = 0 0
  Iterations, force evaluations = 1 0

MPI task timing breakdown:
Section |  min time  |  avg time  |  max time  |%varavg| %total
---------------------------------------------------------------
Pair    | 0          | 0          | 0          |   0.0 |  0.00
Bond    | 1.43e-07   | 2.4862e-07 | 3.46e-07   |   0.0 |  0.46
Neigh   | 0          | 0          | 0          |   0.0 |  0.00
Comm    | 1.057e-06  | 1.9693e-06 | 5.888e-06  |   0.0 |  3.66
Output  | 0          | 0          | 0          |   0.0 |  0.00
Modify  | 0          | 0          | 0          |   0.0 |  0.00
Other   |            | 5.159e-05  |            |       | 95.88

Nlocal:          45.75 ave          54 max          39 min
Histogram: 2 0 0 2 1 0 1 0 1 1
Nghost:              0 ave           0 max           0 min
Histogram: 8 0 0 0 0 0 0 0 0 0
Neighs:              0 ave           0 max           0 min
Histogram: 8 0 0 0 0 0 0 0 0 0

Total # of neighbors = 0
Ave neighs/atom = 0
Ave special neighs/atom = 0
Neighbor list builds = 0
Dangerous builds = 0
WARNING: New thermo_style command, previous thermo_modify settings will be lost (src/output.cpp:903)

CITE-CITE-CITE-CITE-CITE-CITE-CITE-CITE-CITE-CITE-CITE-CITE-CITE

Your simulation uses code contributions which should be cited:
- pair reaxff command: doi:10.1016/j.parco.2011.08.005
- fix qeq/reaxff command: doi:10.1016/j.parco.2011.08.005
The log file lists these citations in BibTeX format.

CITE-CITE-CITE-CITE-CITE-CITE-CITE-CITE-CITE-CITE-CITE-CITE-CITE

Neighbor list info ...
  update: every = 10 steps, delay = 0 steps, check = no
  max neighbors/atom: 2000, page size: 100000
  master list distance cutoff = 12
  ghost atom cutoff = 12
  binsize = 6, bins = 4 3 3
  2 neighbor lists, perpetual/occasional/extra = 2 0 0
  (1) pair reaxff, perpetual
      attributes: half, newton off, ghost
      pair build: half/bin/newtoff/ghost
      stencil: full/ghost/bin/3d
      bin: standard
  (2) fix qeq/reaxff, perpetual, copy from (1)
      attributes: half, newton off
      pair build: copy
      stencil: none
      bin: none
Setting up Verlet run ...
  Unit style    : real
  Current step  : 0
  Time step     : 0.5
Per MPI rank memory allocation (min/avg/max) = 129.8 | 134.3 | 139.2 Mbytes
   Step          Temp          PotEng         Press        f_avgp[1]       Density         Volume    
         0   300           -44413.832      6135.6906      0              1.9245713      3712.8734    
       100   308.3096      -44409.653     -5165.6423      707.60024      1.9245713      3712.8734    
       200   334.28654     -44411.64      -539.31865      5093.8071      1.9245713      3712.8734    
       300   301.24809     -44375.739     -1437.3907      635.54353      1.9245713      3712.8734    
       400   287.01388     -44403.163      1480.8253      2324.7749      1.9245713      3712.8734    
       500   274.89147     -44401.116     -6053.0418      2433.7611      1.9245713      3712.8734    
       600   286.09329     -44391.486      14719.203      3379.5346      1.9245713      3712.8734    
       700   319.92995     -44404.47       837.17097      88.924081      1.9245713      3712.8734    
       800   329.91628     -44418.038     -12195.094     -36.807221      1.9245713      3712.8734    
       900   293.46329     -44408.717     -2150.9778      3913.0753      1.9245713      3712.8734    
      1000   302.93654     -44425.559      1840.324       2321.9679      1.9245713      3712.8734    
      1100   292.73767     -44411.064      2518.6498     -212.46967      1.9245713      3712.8734    
      1200   289.5972      -44397.967     -7638.0576      8643.9607      1.9245713      3712.8734    
      1300   314.81606     -44424.248      83.073146      2595.7658      1.9245713      3712.8734    
      1400   302.10213     -44421.787      2092.0786      4914.538       1.9245713      3712.8734    
      1500   295.72744     -44423.814      7818.6726      1132.3994      1.9245713      3712.8734    
      1600   286.40767     -44410.29      -9489.8152     -181.68365      1.9245713      3712.8734    
      1700   318.4584      -44418.267     -1130.4694      2517.6475      1.9245713      3712.8734    
      1800   302.86001     -44391.303      8057.276       5260.6031      1.9245713      3712.8734    
      1900   319.08141     -44424.859     -2045.8182     -29.246026      1.9245713      3712.8734    
      2000   287.10151     -44427.719     -9504.8247      1426.9804      1.9245713      3712.8734    
Loop time of 114.447 on 8 procs for 2000 steps with 366 atoms

Performance: 0.755 ns/day, 31.791 hours/ns, 17.475 timesteps/s, 6.396 katom-step/s
98.9% CPU use with 8 MPI tasks x 1 OpenMP threads

MPI task timing breakdown:
Section |  min time  |  avg time  |  max time  |%varavg| %total
---------------------------------------------------------------
Pair    | 88.472     | 93.896     | 97.693     |  25.7 | 82.04
Bond    | 0.00071988 | 0.00083236 | 0.00096004 |   0.0 |  0.00
Neigh   | 6.9315     | 7.3119     | 7.6467     |   7.9 |  6.39
Comm    | 0.84823    | 4.6584     | 10.094     | 115.8 |  4.07
Output  | 0.0012623  | 0.0014515  | 0.0020549  |   0.6 |  0.00
Modify  | 8.2107     | 8.5371     | 8.9093     |   7.1 |  7.46
Other   |            | 0.04175    |            |       |  0.04

Nlocal:          45.75 ave          54 max          39 min
Histogram: 1 1 2 0 1 0 0 1 1 1
Nghost:        3442.25 ave        3554 max        3330 min
Histogram: 1 1 0 0 2 1 1 0 1 1
Neighs:          31528 ave       37201 max       27106 min
Histogram: 1 2 1 0 1 0 0 1 1 1

Total # of neighbors = 252224
Ave neighs/atom = 689.13661
Ave special neighs/atom = 0
Neighbor list builds = 200
Dangerous builds not checked
System init for write_data ...
System init for write_restart ...
OMP_NUM_THREADS environment is not set. Defaulting to 1 thread. (src/comm.cpp:98)
  using 1 OpenMP thread(s) per MPI task
Reading restart file ...
  restart file = 2 Aug 2023, LAMMPS = 2 Aug 2023
  restoring atom style full from restart
  triclinic box = (0.051064977 0.11783618 -0.071564794) to (15.672935 13.785264 17.318065) with tilt (-7.7280765 -0.14891651 -0.045718737)
WARNING: Triclinic box skew is large. LAMMPS will run inefficiently. (src/domain.cpp:220)
  2 by 2 by 2 MPI processor grid
  pair style reaxff stores no restart info
  366 atoms
Finding 1-2 1-3 1-4 neighbors ...
  special bond factors lj:    0        0        0       
  special bond factors coul:  0        0        0       
     0 = max # of 1-2 neighbors
     0 = max # of 1-3 neighbors
     0 = max # of 1-4 neighbors
     1 = max # of special neighbors
  special bonds CPU = 0.000 seconds
  read_restart CPU = 0.004 seconds
*****Negative-change 1 starts.*****
Resetting global fix info from restart file:
  fix style: nvt, fix ID: 4
Changing box ...
WARNING: Triclinic box skew is large. LAMMPS will run inefficiently. (src/domain.cpp:220)
  triclinic box = (0.051064977 0.11783618 -0.071564794) to (15.516716 13.785264 17.318065) with tilt (-7.7280765 -0.14891651 -0.045718737)
WARNING: Triclinic box skew is large. LAMMPS will run inefficiently. (src/domain.cpp:220)
  triclinic box = (0.051064977 0.11783618 -0.071564794) to (15.516716 13.785264 17.318065) with tilt (-7.6507957 -0.14891651 -0.045718737)
WARNING: Triclinic box skew is large. LAMMPS will run inefficiently. (src/domain.cpp:220)
  triclinic box = (0.051064977 0.11783618 -0.071564794) to (15.516716 13.785264 17.318065) with tilt (-7.6507957 -0.14742734 -0.045718737)
All restart file global fix info was re-assigned
Neighbor list info ...
  update: every = 10 steps, delay = 0 steps, check = no
  max neighbors/atom: 2000, page size: 100000
  master list distance cutoff = 12
  ghost atom cutoff = 12
  binsize = 6, bins = 4 3 3
  2 neighbor lists, perpetual/occasional/extra = 2 0 0
  (1) pair reaxff, perpetual
      attributes: half, newton off, ghost
      pair build: half/bin/newtoff/ghost
      stencil: full/ghost/bin/3d
      bin: standard
  (2) fix qeq/reaxff, perpetual, copy from (1)
      attributes: half, newton off
      pair build: copy
      stencil: none
      bin: none
Setting up Verlet run ...
  Unit style    : real
  Current step  : 0
  Time step     : 0.5
Per MPI rank memory allocation (min/avg/max) = 130.6 | 135.1 | 139.8 Mbytes
   Step          Temp          PotEng         Press        f_avgp[1]        Volume    
         0   287.10151     -44420.357      26882.105      0              3675.7446    
       100   287.23862     -44420.8        24340.149      13844.056      3675.7446    
       200   299.23217     -44415.513     -698.64953      9954.1109      3675.7446    
       300   305.46926     -44401.732      6065.0721      8988.9647      3675.7446    
       400   293.10118     -44387.75      -5664.7039      10355.77       3675.7446    
       500   297.30838     -44399.514      2090.2292      11038.745      3675.7446    
       600   294.9139      -44418.189      6122.5025      6961.3211      3675.7446    
       700   272.18882     -44426.383      7222.7664      8872.9257      3675.7446    
       800   279.16196     -44417.242      4360.6651      6529.0459      3675.7446    
       900   300.25206     -44410.432      19789.491      10389.572      3675.7446    
      1000   307.68924     -44405.51       1671.3777      11772.888      3675.7446    
      1100   293.57577     -44386.795      7940.3191      4437.8065      3675.7446    
      1200   301.12663     -44422.464     -8358.5462      1459.2426      3675.7446    
      1300   286.0836      -44423.407     -3613.4324     -344.73207      3675.7446    
      1400   289.28289     -44416.038      9619.5292      5464.9028      3675.7446    
      1500   300.27592     -44411.919      3118.0514      9844.0208      3675.7446    
      1600   295.8359      -44401.25       6979.675       4869.1497      3675.7446    
      1700   315.45575     -44415.19       12263.688      11552.765      3675.7446    
      1800   305.59579     -44400.723      7514.0945      13110.343      3675.7446    
      1900   315.57008     -44408.935      2876.4669      9449.8876      3675.7446    
      2000   310.37948     -44410.241      5138.1168      6241.5318      3675.7446    
Loop time of 116.427 on 8 procs for 2000 steps with 366 atoms

Performance: 0.742 ns/day, 32.341 hours/ns, 17.178 timesteps/s, 6.287 katom-step/s
99.0% CPU use with 8 MPI tasks x 1 OpenMP threads

MPI task timing breakdown:
Section |  min time  |  avg time  |  max time  |%varavg| %total
---------------------------------------------------------------
Pair    | 91.341     | 95.368     | 99.404     |  24.4 | 81.91
Bond    | 0.00074458 | 0.00081896 | 0.0010011  |   0.0 |  0.00
Neigh   | 7.1342     | 7.4192     | 7.7776     |   7.4 |  6.37
Comm    | 0.83233    | 4.8854     | 8.9255     | 108.2 |  4.20
Output  | 0.0046155  | 0.0056992  | 0.006462   |   0.9 |  0.00
Modify  | 8.3609     | 8.7073     | 8.983      |   6.6 |  7.48
Other   |            | 0.04114    |            |       |  0.04

Nlocal:          45.75 ave          52 max          40 min
Histogram: 1 1 2 0 1 0 0 0 1 2
Nghost:        3475.75 ave        3614 max        3353 min
Histogram: 1 1 0 2 0 1 1 1 0 1
Neighs:          31893 ave       36307 max       28120 min
Histogram: 1 2 1 0 1 0 0 1 1 1

Total # of neighbors = 255144
Ave neighs/atom = 697.11475
Ave special neighs/atom = 0
Neighbor list builds = 200
Dangerous builds not checked
*****Equilibration neg1 starts.*****
WARNING: New thermo_style command, previous thermo_modify settings will be lost (src/output.cpp:903)
Neighbor list info ...
  update: every = 10 steps, delay = 0 steps, check = no
  max neighbors/atom: 2000, page size: 100000
  master list distance cutoff = 12
  ghost atom cutoff = 12
  binsize = 6, bins = 4 3 3
  2 neighbor lists, perpetual/occasional/extra = 2 0 0
  (1) pair reaxff, perpetual
      attributes: half, newton off, ghost
      pair build: half/bin/newtoff/ghost
      stencil: full/ghost/bin/3d
      bin: standard
  (2) fix qeq/reaxff, perpetual, copy from (1)
      attributes: half, newton off
      pair build: copy
      stencil: none
      bin: none
Setting up Verlet run ...
  Unit style    : real
  Current step  : 0
  Time step     : 0.5
Per MPI rank memory allocation (min/avg/max) = 130.6 | 135.2 | 139.7 Mbytes
   Step          Temp          PotEng         Press        f_avgp[1]        Volume    
         0   310.37948     -44410.241      5138.1754      0              3675.7446    
       100   302.57468     -44411.477      16565.583      7584.2985      3675.7446    
       200   264.54854     -44402.631      293.71466      4024.0507      3675.7446    
       300   282.94917     -44425.233      7611.017       5120.0136      3675.7446    
       400   296.31225     -44424.782      4442.3266      10702.357      3675.7446    
       500   285.69124     -44405.09       65.852571      253.45431      3675.7446    
       600   304.53674     -44412.506     -2444.1667      3075.6954      3675.7446    
       700   310.92673     -44405.768     -691.52568      5820.4651      3675.7446    
       800   302.01336     -44369.704      3238.531      -2630.3743      3675.7446    
       900   321.97663     -44377.033      19061.578      6344.9213      3675.7446    
      1000   305.0337      -44395.376      6086.8712      12213.002      3675.7446    
      1100   296.08333     -44405.779     -980.69545      13419.489      3675.7446    
      1200   288.27264     -44410.866      16611.152      10069.824      3675.7446    
      1300   286.53014     -44409.945      10753.375      6700.0541      3675.7446    
      1400   311.20795     -44417.661      4141.1007      6176.12        3675.7446    
      1500   328.49259     -44406.631      632.10461      9287.4089      3675.7446    
      1600   328.48376     -44399.652      6101.9304      12481.477      3675.7446    
      1700   318.56759     -44415.201      9265.2253      13966.803      3675.7446    
      1800   302.3545      -44408.655      9404.4475      9260.0314      3675.7446    
      1900   295.36426     -44402.173      16626.097      6533.7069      3675.7446    
      2000   298.50685     -44401.663      10967.959      7266.0396      3675.7446    
Loop time of 116.68 on 8 procs for 2000 steps with 366 atoms

Performance: 0.740 ns/day, 32.411 hours/ns, 17.141 timesteps/s, 6.274 katom-step/s
99.1% CPU use with 8 MPI tasks x 1 OpenMP threads

MPI task timing breakdown:
Section |  min time  |  avg time  |  max time  |%varavg| %total
---------------------------------------------------------------
Pair    | 87.044     | 94.444     | 99.676     |  36.7 | 80.94
Bond    | 0.00074841 | 0.00082118 | 0.00096784 |   0.0 |  0.00
Neigh   | 6.7481     | 7.3489     | 7.8036     |  11.1 |  6.30
Comm    | 0.75058    | 6.0007     | 13.401     | 146.0 |  5.14
Output  | 0.00096944 | 0.0010931  | 0.0016139  |   0.6 |  0.00
Modify  | 8.4018     | 8.843      | 9.4452     |  10.0 |  7.58
Other   |            | 0.0407     |            |       |  0.03

Nlocal:          45.75 ave          50 max          40 min
Histogram: 2 0 0 0 0 2 0 0 1 3
Nghost:        3502.75 ave        3614 max        3398 min
Histogram: 2 0 0 0 2 2 0 0 1 1
Neighs:        31888.8 ave       34655 max       28097 min
Histogram: 2 0 0 0 1 1 0 1 1 2

Total # of neighbors = 255110
Ave neighs/atom = 697.02186
Ave special neighs/atom = 0
Neighbor list builds = 200
Dangerous builds not checked
OMP_NUM_THREADS environment is not set. Defaulting to 1 thread. (src/comm.cpp:98)
  using 1 OpenMP thread(s) per MPI task
Reading restart file ...
  restart file = 2 Aug 2023, LAMMPS = 2 Aug 2023
  restoring atom style full from restart
  triclinic box = (0.051064977 0.11783618 -0.071564794) to (15.672935 13.785264 17.318065) with tilt (-7.7280765 -0.14891651 -0.045718737)
WARNING: Triclinic box skew is large. LAMMPS will run inefficiently. (src/domain.cpp:220)
  2 by 2 by 2 MPI processor grid
  pair style reaxff stores no restart info
  366 atoms
Finding 1-2 1-3 1-4 neighbors ...
  special bond factors lj:    0        0        0       
  special bond factors coul:  0        0        0       
     0 = max # of 1-2 neighbors
     0 = max # of 1-3 neighbors
     0 = max # of 1-4 neighbors
     1 = max # of special neighbors
  special bonds CPU = 0.000 seconds
  read_restart CPU = 0.003 seconds
*****Positive-change 1 starts.*****
Resetting global fix info from restart file:
  fix style: nvt, fix ID: 4
Changing box ...
WARNING: Triclinic box skew is large. LAMMPS will run inefficiently. (src/domain.cpp:220)
  triclinic box = (0.051064977 0.11783618 -0.071564794) to (15.829154 13.785264 17.318065) with tilt (-7.7280765 -0.14891651 -0.045718737)
WARNING: Triclinic box skew is large. LAMMPS will run inefficiently. (src/domain.cpp:220)
  triclinic box = (0.051064977 0.11783618 -0.071564794) to (15.829154 13.785264 17.318065) with tilt (-7.8053572 -0.14891651 -0.045718737)
WARNING: Triclinic box skew is large. LAMMPS will run inefficiently. (src/domain.cpp:220)
  triclinic box = (0.051064977 0.11783618 -0.071564794) to (15.829154 13.785264 17.318065) with tilt (-7.8053572 -0.15040568 -0.045718737)
All restart file global fix info was re-assigned
Neighbor list info ...
  update: every = 10 steps, delay = 0 steps, check = no
  max neighbors/atom: 2000, page size: 100000
  master list distance cutoff = 12
  ghost atom cutoff = 12
  binsize = 6, bins = 4 3 3
  2 neighbor lists, perpetual/occasional/extra = 2 0 0
  (1) pair reaxff, perpetual
      attributes: half, newton off, ghost
      pair build: half/bin/newtoff/ghost
      stencil: full/ghost/bin/3d
      bin: standard
  (2) fix qeq/reaxff, perpetual, copy from (1)
      attributes: half, newton off
      pair build: copy
      stencil: none
      bin: none
Setting up Verlet run ...
  Unit style    : real
  Current step  : 0
  Time step     : 0.5
Per MPI rank memory allocation (min/avg/max) = 129.7 | 133.6 | 138.2 Mbytes
   Step          Temp          PotEng         Press        f_avgp[1]        Volume    
         0   287.10151     -44406.453     -44130.792      0              3750.0021    
       100   288.79446     -44411.394      2695.3562     -10149.926      3750.0021    
       200   306.01064     -44418.771     -5731.0297     -6584.0752      3750.0021    
       300   331.83789     -44424.144     -11285.919     -4571.6884      3750.0021    
       400   301.7169      -44378.141     -915.03797      1954.8302      3750.0021    
       500   302.24328     -44376.789      9479.7636     -5094.797       3750.0021    
       600   321.35502     -44419.176     -437.93507     -2219.826       3750.0021    
       700   277.16347     -44401.862      9615.8788     -4030.8181      3750.0021    
       800   290.42597     -44419.047      3200.348      -2301.006       3750.0021    
       900   307.98323     -44417.251     -5615.1689     -5993.5956      3750.0021    
      1000   313.14098     -44402.367     -12118.419     -1552.0151      3750.0021    
      1100   308.08526     -44394.868     -5432.2147     -4559.0218      3750.0021    
      1200   288.8886      -44415.348     -6103.8869     -4528.4746      3750.0021    
      1300   293.41391     -44431.268     -4394.4627     -12092.48       3750.0021    
      1400   288.78899     -44408.829     -589.71852     -8194.78        3750.0021    
      1500   289.67347     -44387.663      1314.4819     -6189.9392      3750.0021    
      1600   291.96419     -44377.69      -2435.9155     -10388.147      3750.0021    
      1700   305.46295     -44392.809     -5423.9653     -13572.793      3750.0021    
      1800   291.80314     -44413.631     -11394.981     -8742.6465      3750.0021    
      1900   308.24878     -44449.285     -1811.6651     -9979.8414      3750.0021    
      2000   274.30204     -44405.645     -662.56264     -6765.5968      3750.0021    
Loop time of 112.981 on 8 procs for 2000 steps with 366 atoms

Performance: 0.765 ns/day, 31.384 hours/ns, 17.702 timesteps/s, 6.479 katom-step/s
99.1% CPU use with 8 MPI tasks x 1 OpenMP threads

MPI task timing breakdown:
Section |  min time  |  avg time  |  max time  |%varavg| %total
---------------------------------------------------------------
Pair    | 83.949     | 91.992     | 96.142     |  37.1 | 81.42
Bond    | 0.00071267 | 0.00079408 | 0.00093922 |   0.0 |  0.00
Neigh   | 6.5215     | 7.2038     | 7.588      |  11.7 |  6.38
Comm    | 0.88617    | 5.0541     | 13.099     | 158.5 |  4.47
Output  | 0.0043877  | 0.005537   | 0.0063219  |   0.9 |  0.00
Modify  | 8.3162     | 8.6865     | 9.3705     |  10.5 |  7.69
Other   |            | 0.03823    |            |       |  0.03

Nlocal:          45.75 ave          53 max          38 min
Histogram: 2 0 0 0 3 0 0 0 1 2
Nghost:        3442.38 ave        3547 max        3343 min
Histogram: 2 0 0 1 1 1 1 0 1 1
Neighs:        31203.5 ave       35965 max       26181 min
Histogram: 2 0 0 1 2 0 0 0 1 2

Total # of neighbors = 249628
Ave neighs/atom = 682.04372
Ave special neighs/atom = 0
Neighbor list builds = 200
Dangerous builds not checked
*****Equilibration pos1 starts.*****
WARNING: New thermo_style command, previous thermo_modify settings will be lost (src/output.cpp:903)
Neighbor list info ...
  update: every = 10 steps, delay = 0 steps, check = no
  max neighbors/atom: 2000, page size: 100000
  master list distance cutoff = 12
  ghost atom cutoff = 12
  binsize = 6, bins = 4 3 3
  2 neighbor lists, perpetual/occasional/extra = 2 0 0
  (1) pair reaxff, perpetual
      attributes: half, newton off, ghost
      pair build: half/bin/newtoff/ghost
      stencil: full/ghost/bin/3d
      bin: standard
  (2) fix qeq/reaxff, perpetual, copy from (1)
      attributes: half, newton off
      pair build: copy
      stencil: none
      bin: none
Setting up Verlet run ...
  Unit style    : real
  Current step  : 0
  Time step     : 0.5
Per MPI rank memory allocation (min/avg/max) = 129.7 | 133.6 | 138.2 Mbytes
   Step          Temp          PotEng         Press        f_avgp[1]        Volume    
         0   274.30204     -44405.645     -662.52827      0              3750.0021    
       100   321.8554      -44440.732     -3202.6039     -7458.2418      3750.0021    
       200   306.96875     -44400.663     -10178.592     -5708.3035      3750.0021    
       300   294.05111     -44384.125     -4644.2456     -13829.851      3750.0021    
       400   304.68414     -44400.478     -11467.411     -9842.3138      3750.0021    
       500   305.24889     -44411.047     -8283.9912     -10955.147      3750.0021    
       600   290.2626      -44418.505     -5882.452      -9794.1847      3750.0021    
       700   278.06075     -44423.377     -1849.087      -7212.2373      3750.0021    
       800   279.53448     -44428.052     -3079.7593     -4307.4987      3750.0021    
       900   293.07142     -44409.69      -3739.2211     -10736.661      3750.0021    
      1000   308.75491     -44400.88      -11193.392     -3623.4056      3750.0021    
      1100   323.21005     -44408.814     -9640.423      -7251.9216      3750.0021    
      1200   296.74058     -44402.278     -10763.516     -6302.4574      3750.0021    
      1300   289.84085     -44416.875      833.17926     -10808.99       3750.0021    
      1400   285.15571     -44407.439     -325.14316     -3784.4849      3750.0021    
      1500   304.46399     -44417.484      4333.7494     -6829.5259      3750.0021    
      1600   306.43092     -44417.168     -19660.452     -9258.5901      3750.0021    
      1700   326.63538     -44438.253      3847.5031     -3560.5119      3750.0021    
      1800   305.19919     -44422.141     -1151.3867     -7930.6475      3750.0021    
      1900   280.3003      -44413.448     -5439.1354     -13480.612      3750.0021    
      2000   298.46701     -44442.084     -7633.8319     -9691.5404      3750.0021    
Loop time of 113.549 on 8 procs for 2000 steps with 366 atoms

Performance: 0.761 ns/day, 31.541 hours/ns, 17.614 timesteps/s, 6.447 katom-step/s
99.1% CPU use with 8 MPI tasks x 1 OpenMP threads

MPI task timing breakdown:
Section |  min time  |  avg time  |  max time  |%varavg| %total
---------------------------------------------------------------
Pair    | 89.845     | 93.294     | 96.294     |  20.3 | 82.16
Bond    | 0.00069581 | 0.00077638 | 0.00093837 |   0.0 |  0.00
Neigh   | 7.0191     | 7.3527     | 7.7861     |   8.3 |  6.48
Comm    | 0.99778    | 4.0172     | 7.4797     |  98.6 |  3.54
Output  | 0.00097416 | 0.0010672  | 0.0015478  |   0.6 |  0.00
Modify  | 8.4279     | 8.8451     | 9.1681     |   7.2 |  7.79
Other   |            | 0.03805    |            |       |  0.03

Nlocal:          45.75 ave          54 max          39 min
Histogram: 1 1 0 2 1 1 0 0 1 1
Nghost:        3441.12 ave        3543 max        3342 min
Histogram: 2 0 0 0 2 2 0 0 1 1
Neighs:        31199.6 ave       36425 max       26970 min
Histogram: 1 1 0 3 0 1 0 0 1 1

Total # of neighbors = 249597
Ave neighs/atom = 681.95902
Ave special neighs/atom = 0
Neighbor list builds = 200
Dangerous builds not checked
OMP_NUM_THREADS environment is not set. Defaulting to 1 thread. (src/comm.cpp:98)
  using 1 OpenMP thread(s) per MPI task
Reading restart file ...
  restart file = 2 Aug 2023, LAMMPS = 2 Aug 2023
  restoring atom style full from restart
  triclinic box = (0.051064977 0.11783618 -0.071564794) to (15.672935 13.785264 17.318065) with tilt (-7.7280765 -0.14891651 -0.045718737)
WARNING: Triclinic box skew is large. LAMMPS will run inefficiently. (src/domain.cpp:220)
  2 by 2 by 2 MPI processor grid
  pair style reaxff stores no restart info
  366 atoms
Finding 1-2 1-3 1-4 neighbors ...
  special bond factors lj:    0        0        0       
  special bond factors coul:  0        0        0       
     0 = max # of 1-2 neighbors
     0 = max # of 1-3 neighbors
     0 = max # of 1-4 neighbors
     1 = max # of special neighbors
  special bonds CPU = 0.000 seconds
  read_restart CPU = 0.003 seconds
*****Negative-change 2 starts.*****
Resetting global fix info from restart file:
  fix style: nvt, fix ID: 4
Changing box ...
WARNING: Triclinic box skew is large. LAMMPS will run inefficiently. (src/domain.cpp:220)
  triclinic box = (0.051064977 0.11783618 -0.071564794) to (15.672935 13.64859 17.318065) with tilt (-7.7280765 -0.14891651 -0.045718737)
WARNING: Triclinic box skew is large. LAMMPS will run inefficiently. (src/domain.cpp:220)
  triclinic box = (0.051064977 0.11783618 -0.071564794) to (15.672935 13.64859 17.318065) with tilt (-7.7280765 -0.14891651 -0.04526155)
All restart file global fix info was re-assigned
Neighbor list info ...
  update: every = 10 steps, delay = 0 steps, check = no
  max neighbors/atom: 2000, page size: 100000
  master list distance cutoff = 12
  ghost atom cutoff = 12
  binsize = 6, bins = 4 3 3
  2 neighbor lists, perpetual/occasional/extra = 2 0 0
  (1) pair reaxff, perpetual
      attributes: half, newton off, ghost
      pair build: half/bin/newtoff/ghost
      stencil: full/ghost/bin/3d
      bin: standard
  (2) fix qeq/reaxff, perpetual, copy from (1)
      attributes: half, newton off
      pair build: copy
      stencil: none
      bin: none
Setting up Verlet run ...
  Unit style    : real
  Current step  : 0
  Time step     : 0.5
Per MPI rank memory allocation (min/avg/max) = 130.7 | 135.2 | 139.7 Mbytes
   Step          Temp          PotEng         Press        f_avgp[1]        Volume    
         0   287.10151     -44424.015      24805.789      0              3675.7446    
       100   290.16632     -44427.142      23114.895      7031.9665      3675.7446    
       200   297.5915      -44417.348      18655.906      7302.6378      3675.7446    
       300   308.18045     -44407.549      7800.1039      4346.5458      3675.7446    
       400   306.0035      -44401.681      3065.1114      9279.1472      3675.7446    
       500   315.06091     -44424.86       1145.7083      3139.36        3675.7446    
       600   299.26704     -44418.736      6720.2482      2350.2169      3675.7446    
       700   287.69289     -44409.06       14328.72       5572.1118      3675.7446    
       800   286.47707     -44408.641      307.94426      8912.3541      3675.7446    
       900   300.89238     -44418.251      9704.0883      8645.7092      3675.7446    
      1000   302.03957     -44417.481     -363.23178      7320.3494      3675.7446    
      1100   318.81326     -44439.284      2723.5527     -1304.7079      3675.7446    
      1200   298.22526     -44436.616      2141.2944     -2384.8117      3675.7446    
      1300   272.89879     -44420.787      3693.5272      2576.1328      3675.7446    
      1400   298.04722     -44421.901      8261.012      -199.84686      3675.7446    
      1500   299.02746     -44409.557      6509.318       6349.1473      3675.7446    
      1600   311.52811     -44430.533      5379.5394      1714.1633      3675.7446    
      1700   306.71491     -44429.522      10113.888      4516.7746      3675.7446    
      1800   277.69298     -44393.919      3035.477       3860.3058      3675.7446    
      1900   331.74333     -44418.994      11136.867      9324.8773      3675.7446    
      2000   326.97805     -44400.727      7366.1311      3352.1042      3675.7446    
Loop time of 116.746 on 8 procs for 2000 steps with 366 atoms

Performance: 0.740 ns/day, 32.430 hours/ns, 17.131 timesteps/s, 6.270 katom-step/s
99.0% CPU use with 8 MPI tasks x 1 OpenMP threads

MPI task timing breakdown:
Section |  min time  |  avg time  |  max time  |%varavg| %total
---------------------------------------------------------------
Pair    | 92.379     | 95.6       | 99.608     |  21.4 | 81.89
Bond    | 0.00064084 | 0.00079487 | 0.0009278  |   0.0 |  0.00
Neigh   | 7.1683     | 7.4636     | 7.9694     |   8.7 |  6.39
Comm    | 0.80689    | 4.8332     | 8.07       |  95.9 |  4.14
Output  | 0.0048275  | 0.0059124  | 0.0067059  |   0.9 |  0.01
Modify  | 8.3098     | 8.8027     | 9.085      |   7.7 |  7.54
Other   |            | 0.04021    |            |       |  0.03

Nlocal:          45.75 ave          52 max          41 min
Histogram: 3 1 0 1 0 0 0 0 1 2
Nghost:           3477 ave        3585 max        3375 min
Histogram: 2 0 0 0 2 2 0 0 1 1
Neighs:        31850.9 ave       36060 max       28758 min
Histogram: 3 1 0 1 0 0 0 0 1 2

Total # of neighbors = 254807
Ave neighs/atom = 696.19399
Ave special neighs/atom = 0
Neighbor list builds = 200
Dangerous builds not checked
*****Equilibration neg2 starts.*****
WARNING: New thermo_style command, previous thermo_modify settings will be lost (src/output.cpp:903)
Neighbor list info ...
  update: every = 10 steps, delay = 0 steps, check = no
  max neighbors/atom: 2000, page size: 100000
  master list distance cutoff = 12
  ghost atom cutoff = 12
  binsize = 6, bins = 4 3 3
  2 neighbor lists, perpetual/occasional/extra = 2 0 0
  (1) pair reaxff, perpetual
      attributes: half, newton off, ghost
      pair build: half/bin/newtoff/ghost
      stencil: full/ghost/bin/3d
      bin: standard
  (2) fix qeq/reaxff, perpetual, copy from (1)
      attributes: half, newton off
      pair build: copy
      stencil: none
      bin: none
Setting up Verlet run ...
  Unit style    : real
  Current step  : 0
  Time step     : 0.5
Per MPI rank memory allocation (min/avg/max) = 130.7 | 135.1 | 139.7 Mbytes
   Step          Temp          PotEng         Press        f_avgp[1]        Volume    
         0   326.97805     -44400.727      7366.1286      0              3675.7446    
       100   316.8592      -44413.707      10271.952      2559.544       3675.7446    
       200   291.75132     -44406.186      21026.008      5069.4392      3675.7446    
       300   302.21433     -44419.227      4103.3772      8975.9599      3675.7446    
       400   294.7592      -44409.616      8986.7232      4108.1475      3675.7446    
       500   310.40393     -44412.693      953.43229      3415.3198      3675.7446    
       600   344.57768     -44421.153      6812.9106      5851.7055      3675.7446    
       700   310.26141     -44398.382      15474.909      7342.3367      3675.7446    
       800   300.00741     -44417.843      3392.4282      2977.9563      3675.7446    
       900   287.43384     -44411.08       12293.454      11020.554      3675.7446    
      1000   293.19314     -44413.641      4758.8507      8434.556       3675.7446    
      1100   318.64249     -44426.099      3109.2936      9124.9498      3675.7446    
      1200   288.77749     -44384.079      2125.1161      1141.0573      3675.7446    
      1300   322.33562     -44430.419      8193.8074      929.99269      3675.7446    
      1400   305.89456     -44441.349      3220.2702      3629.7989      3675.7446    
      1500   287.9947      -44435.494     -6414.192       2291.3124      3675.7446    
      1600   308.35982     -44449.497      1763.0163      2698.6418      3675.7446    
      1700   299.60702     -44402.546      8678.7995      143.26981      3675.7446    
      1800   314.43485     -44406.733      3572.0496      1487.0996      3675.7446    
      1900   302.04228     -44403.52       2787.2087      1474.9239      3675.7446    
      2000   292.0787      -44421.501      5209.8636      3510.3176      3675.7446    
Loop time of 116.594 on 8 procs for 2000 steps with 366 atoms

Performance: 0.741 ns/day, 32.387 hours/ns, 17.154 timesteps/s, 6.278 katom-step/s
99.1% CPU use with 8 MPI tasks x 1 OpenMP threads

MPI task timing breakdown:
Section |  min time  |  avg time  |  max time  |%varavg| %total
---------------------------------------------------------------
Pair    | 92.345     | 95.546     | 99.579     |  21.6 | 81.95
Bond    | 0.00063513 | 0.00080397 | 0.00092094 |   0.0 |  0.00
Neigh   | 7.2028     | 7.45       | 7.8028     |   7.4 |  6.39
Comm    | 0.79733    | 4.8488     | 8.0656     |  96.3 |  4.16
Output  | 0.00097665 | 0.0010843  | 0.0016084  |   0.6 |  0.00
Modify  | 8.3664     | 8.7068     | 8.9406     |   6.5 |  7.47
Other   |            | 0.04108    |            |       |  0.04

Nlocal:          45.75 ave          55 max          39 min
Histogram: 1 2 1 0 0 2 1 0 0 1
Nghost:         3472.5 ave        3572 max        3369 min
Histogram: 2 0 0 1 1 1 0 1 1 1
Neighs:        31866.1 ave       37787 max       27388 min
Histogram: 1 1 2 0 0 2 1 0 0 1

Total # of neighbors = 254929
Ave neighs/atom = 696.52732
Ave special neighs/atom = 0
Neighbor list builds = 200
Dangerous builds not checked
OMP_NUM_THREADS environment is not set. Defaulting to 1 thread. (src/comm.cpp:98)
  using 1 OpenMP thread(s) per MPI task
Reading restart file ...
  restart file = 2 Aug 2023, LAMMPS = 2 Aug 2023
  restoring atom style full from restart
  triclinic box = (0.051064977 0.11783618 -0.071564794) to (15.672935 13.785264 17.318065) with tilt (-7.7280765 -0.14891651 -0.045718737)
WARNING: Triclinic box skew is large. LAMMPS will run inefficiently. (src/domain.cpp:220)
  2 by 2 by 2 MPI processor grid
  pair style reaxff stores no restart info
  366 atoms
Finding 1-2 1-3 1-4 neighbors ...
  special bond factors lj:    0        0        0       
  special bond factors coul:  0        0        0       
     0 = max # of 1-2 neighbors
     0 = max # of 1-3 neighbors
     0 = max # of 1-4 neighbors
     1 = max # of special neighbors
  special bonds CPU = 0.000 seconds
  read_restart CPU = 0.003 seconds
*****Positive-change 2 starts.*****
Resetting global fix info from restart file:
  fix style: nvt, fix ID: 4
Changing box ...
WARNING: Triclinic box skew is large. LAMMPS will run inefficiently. (src/domain.cpp:220)
  triclinic box = (0.051064977 0.11783618 -0.071564794) to (15.672935 13.921938 17.318065) with tilt (-7.7280765 -0.14891651 -0.045718737)
WARNING: Triclinic box skew is large. LAMMPS will run inefficiently. (src/domain.cpp:220)
  triclinic box = (0.051064977 0.11783618 -0.071564794) to (15.672935 13.921938 17.318065) with tilt (-7.7280765 -0.14891651 -0.046175925)
All restart file global fix info was re-assigned
Neighbor list info ...
  update: every = 10 steps, delay = 0 steps, check = no
  max neighbors/atom: 2000, page size: 100000
  master list distance cutoff = 12
  ghost atom cutoff = 12
  binsize = 6, bins = 4 3 3
  2 neighbor lists, perpetual/occasional/extra = 2 0 0
  (1) pair reaxff, perpetual
      attributes: half, newton off, ghost
      pair build: half/bin/newtoff/ghost
      stencil: full/ghost/bin/3d
      bin: standard
  (2) fix qeq/reaxff, perpetual, copy from (1)
      attributes: half, newton off
      pair build: copy
      stencil: none
      bin: none
Setting up Verlet run ...
  Unit style    : real
  Current step  : 0
  Time step     : 0.5
Per MPI rank memory allocation (min/avg/max) = 128.4 | 132.4 | 137.3 Mbytes
   Step          Temp          PotEng         Press        f_avgp[1]        Volume    
         0   287.10151     -44404.653     -44305.413      0              3750.0021    
       100   292.75836     -44413.596      3584.2733     -4031.4617      3750.0021    
       200   297.22282     -44407.477      807.64356     -705.51957      3750.0021    
       300   307.38722     -44392.539     -1122.6858     -1319.312       3750.0021    
       400   306.40327     -44381.691     -6402.0544     -2409.0663      3750.0021    
       500   296.64008     -44377.675      5458.1379      2642.1223      3750.0021    
       600   316.07335     -44405.336     -5425.3412     -2657.1289      3750.0021    
       700   285.18194     -44382.488     -1858.5993     -1300.2265      3750.0021    
       800   283.38651     -44385.03       828.4881       1498.5732      3750.0021    
       900   282.63706     -44380.841      2274.5489      3644.9764      3750.0021    
      1000   308.50929     -44380.866      3603.2285      2170.3202      3750.0021    
      1100   282.11915     -44337.262     -6650.5282      435.07843      3750.0021    
      1200   300.39564     -44376.177     -6387.067       1225.9606      3750.0021    
      1300   300.45933     -44403.59      -4290.0599     -3274.8157      3750.0021    
      1400   284.6805      -44389.163     -15465.346      1339.961       3750.0021    
      1500   294.60391     -44390.893     -4995.5432     -87.472749      3750.0021    
      1600   316.37649     -44398.194      2828.5345      4352.1536      3750.0021    
      1700   305.72727     -44359.906     -17754.18       705.82056      3750.0021    
      1800   330.89993     -44374.802     -9798.1406      257.40873      3750.0021    
      1900   294.5146      -44373.801     -1773.184      -2192.5923      3750.0021    
      2000   303.88663     -44394.088     -295.04142     -3457.8948      3750.0021    
Loop time of 112.266 on 8 procs for 2000 steps with 366 atoms

Performance: 0.770 ns/day, 31.185 hours/ns, 17.815 timesteps/s, 6.520 katom-step/s
99.0% CPU use with 8 MPI tasks x 1 OpenMP threads

MPI task timing breakdown:
Section |  min time  |  avg time  |  max time  |%varavg| %total
---------------------------------------------------------------
Pair    | 75.948     | 90.043     | 95.631     |  59.7 | 80.20
Bond    | 0.00070539 | 0.00083257 | 0.00098268 |   0.0 |  0.00
Neigh   | 5.976      | 7.0733     | 7.5401     |  17.1 |  6.30
Comm    | 0.76562    | 6.3751     | 20.471     | 224.7 |  5.68
Output  | 0.0044539  | 0.0054893  | 0.0062202  |   0.8 |  0.00
Modify  | 8.2788     | 8.7294     | 9.8279     |  15.3 |  7.78
Other   |            | 0.03918    |            |       |  0.03

Nlocal:          45.75 ave          52 max          40 min
Histogram: 2 0 1 1 0 1 0 0 1 2
Nghost:        3399.12 ave        3520 max        3289 min
Histogram: 1 1 0 2 0 1 1 1 0 1
Neighs:        31169.5 ave       35432 max       27422 min
Histogram: 2 0 1 1 0 1 0 1 1 1

Total # of neighbors = 249356
Ave neighs/atom = 681.30055
Ave special neighs/atom = 0
Neighbor list builds = 200
Dangerous builds not checked
*****Equilibration pos2 starts.*****
WARNING: New thermo_style command, previous thermo_modify settings will be lost (src/output.cpp:903)
Neighbor list info ...
  update: every = 10 steps, delay = 0 steps, check = no
  max neighbors/atom: 2000, page size: 100000
  master list distance cutoff = 12
  ghost atom cutoff = 12
  binsize = 6, bins = 4 3 3
  2 neighbor lists, perpetual/occasional/extra = 2 0 0
  (1) pair reaxff, perpetual
      attributes: half, newton off, ghost
      pair build: half/bin/newtoff/ghost
      stencil: full/ghost/bin/3d
      bin: standard
  (2) fix qeq/reaxff, perpetual, copy from (1)
      attributes: half, newton off
      pair build: copy
      stencil: none
      bin: none
Setting up Verlet run ...
  Unit style    : real
  Current step  : 0
  Time step     : 0.5
Per MPI rank memory allocation (min/avg/max) = 128.5 | 132.4 | 137.3 Mbytes
   Step          Temp          PotEng         Press        f_avgp[1]        Volume    
         0   303.88663     -44394.088     -294.89937      0              3750.0021    
       100   305.30538     -44397.898     -8663.3216     -4861.8192      3750.0021    
       200   323.92687     -44405.983      9868.1101     -5246.3885      3750.0021    
       300   308.50141     -44384.201     -867.34345      2033.629       3750.0021    
       400   314.09583     -44411.715      1813.1051     -3247.079       3750.0021    
       500   301.98447     -44422.166     -3027.6521     -6375.4224      3750.0021    
       600   283.62795     -44403.898     -13293.779     -955.75043      3750.0021    
       700   319.51339     -44415.757      1550.6393     -4357.8239      3750.0021    
       800   310.40173     -44393.109     -9468.7785      771.1202       3750.0021    
       900   283.37952     -44370.421     -513.66984     -2900.3661      3750.0021    
      1000   306.31174     -44406.688      998.77048      1502.2606      3750.0021    
      1100   298.52957     -44414.333     -11563.377     -2028.7883      3750.0021    
      1200   279.26038     -44417.2       -3696.8816     -3107.4137      3750.0021    
      1300   284.35851     -44439.171     -5822.1011     -11377.171      3750.0021    
      1400   301.62027     -44426.068     -3294.8999     -3903.6962      3750.0021    
      1500   306.87112     -44405.424     -370.42899     -6742.988       3750.0021    
      1600   298.03649     -44396.309     -5949.1776     -3109.4492      3750.0021    
      1700   289.48206     -44402.269      1991.7319     -3860.3694      3750.0021    
      1800   289.90366     -44415.852     -3114.5908     -5333.7152      3750.0021    
      1900   260.77229     -44403.544     -3403.6476     -6121.3236      3750.0021    
      2000   285.8155      -44413.161     -2046.5198     -4248.6599      3750.0021    
Loop time of 112.051 on 8 procs for 2000 steps with 366 atoms

Performance: 0.771 ns/day, 31.125 hours/ns, 17.849 timesteps/s, 6.533 katom-step/s
98.9% CPU use with 8 MPI tasks x 1 OpenMP threads

MPI task timing breakdown:
Section |  min time  |  avg time  |  max time  |%varavg| %total
---------------------------------------------------------------
Pair    | 63.757     | 88.192     | 95.42      | 100.6 | 78.71
Bond    | 0.00066154 | 0.00082936 | 0.00099714 |   0.0 |  0.00
Neigh   | 5.1069     | 6.9705     | 7.5602     |  27.8 |  6.22
Comm    | 0.76727    | 8.0201     | 32.454     | 333.9 |  7.16
Output  | 0.0010559  | 0.0011792  | 0.0017478  |   0.6 |  0.00
Modify  | 8.258      | 8.8275     | 10.697     |  24.6 |  7.88
Other   |            | 0.03909    |            |       |  0.03

Nlocal:          45.75 ave          52 max          39 min
Histogram: 2 0 0 1 1 1 0 0 1 2
Nghost:        3407.75 ave        3518 max        3296 min
Histogram: 1 0 1 1 1 0 2 1 0 1
Neighs:        31172.9 ave       35009 max       26826 min
Histogram: 2 0 1 0 1 1 0 0 1 2

Total # of neighbors = 249383
Ave neighs/atom = 681.37432
Ave special neighs/atom = 0
Neighbor list builds = 200
Dangerous builds not checked
OMP_NUM_THREADS environment is not set. Defaulting to 1 thread. (src/comm.cpp:98)
  using 1 OpenMP thread(s) per MPI task
Reading restart file ...
  restart file = 2 Aug 2023, LAMMPS = 2 Aug 2023
  restoring atom style full from restart
  triclinic box = (0.051064977 0.11783618 -0.071564794) to (15.672935 13.785264 17.318065) with tilt (-7.7280765 -0.14891651 -0.045718737)
WARNING: Triclinic box skew is large. LAMMPS will run inefficiently. (src/domain.cpp:220)
  2 by 2 by 2 MPI processor grid
  pair style reaxff stores no restart info
  366 atoms
Finding 1-2 1-3 1-4 neighbors ...
  special bond factors lj:    0        0        0       
  special bond factors coul:  0        0        0       
     0 = max # of 1-2 neighbors
     0 = max # of 1-3 neighbors
     0 = max # of 1-4 neighbors
     1 = max # of special neighbors
  special bonds CPU = 0.000 seconds
  read_restart CPU = 0.004 seconds
*****Negative-change 3 starts.*****
Resetting global fix info from restart file:
  fix style: nvt, fix ID: 4
Changing box ...
WARNING: Triclinic box skew is large. LAMMPS will run inefficiently. (src/domain.cpp:220)
  triclinic box = (0.051064977 0.11783618 -0.071564794) to (15.672935 13.785264 17.144168) with tilt (-7.7280765 -0.14891651 -0.045718737)
All restart file global fix info was re-assigned
Neighbor list info ...
  update: every = 10 steps, delay = 0 steps, check = no
  max neighbors/atom: 2000, page size: 100000
  master list distance cutoff = 12
  ghost atom cutoff = 12
  binsize = 6, bins = 4 3 3
  2 neighbor lists, perpetual/occasional/extra = 2 0 0
  (1) pair reaxff, perpetual
      attributes: half, newton off, ghost
      pair build: half/bin/newtoff/ghost
      stencil: full/ghost/bin/3d
      bin: standard
  (2) fix qeq/reaxff, perpetual, copy from (1)
      attributes: half, newton off
      pair build: copy
      stencil: none
      bin: none
Setting up Verlet run ...
  Unit style    : real
  Current step  : 0
  Time step     : 0.5
Per MPI rank memory allocation (min/avg/max) = 131.2 | 135.1 | 139 Mbytes
   Step          Temp          PotEng         Press        f_avgp[1]        Volume    
         0   287.10151     -44420.53       27106.375      0              3675.7446    
       100   287.70133     -44421.743      19557.186      9027.5362      3675.7446    
       200   299.41204     -44419.666      9739.4169      5404.3673      3675.7446    
       300   317.53458     -44416.098      6361.648       4241.0439      3675.7446    
       400   292.35491     -44385.848     -3435.7074      10508.116      3675.7446    
       500   294.03949     -44397.934      6556.6284      6515.1583      3675.7446    
       600   302.58322     -44417.191      8921.4391      8506.3122      3675.7446    
       700   291.10104     -44406.219      11833.978      5681.6476      3675.7446    
       800   283.94056     -44399.287      8412.3672      9015.1081      3675.7446    
       900   307.91031     -44421.893      5459.6908      7583.3253      3675.7446    
      1000   302.96038     -44419.243      12505.896      8770.5827      3675.7446    
      1100   294.18044     -44424.158      12294.656      10812.56       3675.7446    
      1200   280.91883     -44426.649     -1665.2462      6001.8009      3675.7446    
      1300   288.91575     -44436.965     -12044.081      2853.7561      3675.7446    
      1400   292.63332     -44405.822     -2059.9688      2779.4086      3675.7446    
      1500   309.09024     -44411.326      4781.3114      5431.4721      3675.7446    
      1600   321.29589     -44431.034      1823.1975      9003.0389      3675.7446    
      1700   282.45758     -44407.968      11653.761      11764.374      3675.7446    
      1800   287.5128      -44426.111      20552.675      8139.9547      3675.7446    
      1900   285.9805      -44434.174      5114.3583      6882.0467      3675.7446    
      2000   284.91544     -44411.07       10326.893      6804.0037      3675.7446    
Loop time of 116.175 on 8 procs for 2000 steps with 366 atoms

Performance: 0.744 ns/day, 32.271 hours/ns, 17.215 timesteps/s, 6.301 katom-step/s
98.9% CPU use with 8 MPI tasks x 1 OpenMP threads

MPI task timing breakdown:
Section |  min time  |  avg time  |  max time  |%varavg| %total
---------------------------------------------------------------
Pair    | 66.475     | 91.909     | 99.026     | 102.6 | 79.11
Bond    | 0.00065442 | 0.00083901 | 0.001093   |   0.0 |  0.00
Neigh   | 5.2705     | 7.1828     | 7.7857     |  28.1 |  6.18
Comm    | 0.93529    | 8.0719     | 33.502     | 346.4 |  6.95
Output  | 0.0046702  | 0.0057265  | 0.0064672  |   0.8 |  0.00
Modify  | 8.3772     | 8.9647     | 10.885     |  25.2 |  7.72
Other   |            | 0.03981    |            |       |  0.03

Nlocal:          45.75 ave          54 max          39 min
Histogram: 1 1 1 2 0 0 0 1 1 1
Nghost:        3480.38 ave        3608 max        3369 min
Histogram: 2 0 0 1 1 2 0 0 1 1
Neighs:        31870.9 ave       37390 max       27365 min
Histogram: 1 1 1 2 0 0 0 1 1 1

Total # of neighbors = 254967
Ave neighs/atom = 696.63115
Ave special neighs/atom = 0
Neighbor list builds = 200
Dangerous builds not checked
*****Equilibration neg3 starts.*****
WARNING: New thermo_style command, previous thermo_modify settings will be lost (src/output.cpp:903)
Neighbor list info ...
  update: every = 10 steps, delay = 0 steps, check = no
  max neighbors/atom: 2000, page size: 100000
  master list distance cutoff = 12
  ghost atom cutoff = 12
  binsize = 6, bins = 4 3 3
  2 neighbor lists, perpetual/occasional/extra = 2 0 0
  (1) pair reaxff, perpetual
      attributes: half, newton off, ghost
      pair build: half/bin/newtoff/ghost
      stencil: full/ghost/bin/3d
      bin: standard
  (2) fix qeq/reaxff, perpetual, copy from (1)
      attributes: half, newton off
      pair build: copy
      stencil: none
      bin: none
Setting up Verlet run ...
  Unit style    : real
  Current step  : 0
  Time step     : 0.5
Per MPI rank memory allocation (min/avg/max) = 131.1 | 135 | 138.9 Mbytes
   Step          Temp          PotEng         Press        f_avgp[1]        Volume    
         0   284.91544     -44411.071      10326.722      0              3675.7446    
       100   296.03868     -44410.369     -2133.0812      8774.212       3675.7446    
       200   325.4627      -44414.75      -1565.8963      6919.3766      3675.7446    
       300   350.69232     -44419.718     -2757.3366      7344.0762      3675.7446    
       400   306.68665     -44393.742      2465.9047      7748.9375      3675.7446    
       500   281.63168     -44401.227      3447.3309      2685.9069      3675.7446    
       600   279.78707     -44399.65       3824.3036      8106.8782      3675.7446    
       700   283.34127     -44386.875      12882.973      7481.4794      3675.7446    
       800   312.93597     -44405.893      5918.9053      7806.4723      3675.7446    
       900   310.93194     -44414.115      5974.9152      2367.6142      3675.7446    
      1000   278.09701     -44414.053      3400.4535      7934.173       3675.7446    
      1100   311.54959     -44449.162      8166.6376      7412.7354      3675.7446    
      1200   287.38007     -44402.8       -793.61926      4724.5744      3675.7446    
      1300   309.34227     -44411.277      11867.754      2243.2144      3675.7446    
      1400   318.93803     -44418.707      7387.9771      7288.8148      3675.7446    
      1500   293.24351     -44394.451      21545.404      6707.5441      3675.7446    
      1600   290.87449     -44408.567      3383.9241      5279.164       3675.7446    
      1700   261.63041     -44402.747      3924.0667      3209.7344      3675.7446    
      1800   265.6662      -44430.678      7632.2814      2926.4453      3675.7446    
      1900   257.80244     -44432.423      11731.727      3393.7205      3675.7446    
      2000   286.8996      -44424.645     -846.8228       3429.9827      3675.7446    
Loop time of 116.38 on 8 procs for 2000 steps with 366 atoms

Performance: 0.742 ns/day, 32.328 hours/ns, 17.185 timesteps/s, 6.290 katom-step/s
98.9% CPU use with 8 MPI tasks x 1 OpenMP threads

MPI task timing breakdown:
Section |  min time  |  avg time  |  max time  |%varavg| %total
---------------------------------------------------------------
Pair    | 66.368     | 91.917     | 99.173     | 103.3 | 78.98
Bond    | 0.00060804 | 0.00083259 | 0.0010942  |   0.0 |  0.00
Neigh   | 5.2827     | 7.1984     | 7.7778     |  28.1 |  6.19
Comm    | 0.9291     | 8.2064     | 33.75      | 345.8 |  7.05
Output  | 0.00093786 | 0.0011116  | 0.0019706  |   1.0 |  0.00
Modify  | 8.4544     | 9.0171     | 10.942     |  25.1 |  7.75
Other   |            | 0.03984    |            |       |  0.03

Nlocal:          45.75 ave          49 max          39 min
Histogram: 1 0 1 0 1 0 0 0 0 5
Nghost:        3456.75 ave        3553 max        3365 min
Histogram: 2 0 0 1 1 2 0 0 1 1
Neighs:        31865.2 ave       34159 max       27390 min
Histogram: 1 0 1 1 0 0 0 0 1 4

Total # of neighbors = 254922
Ave neighs/atom = 696.5082
Ave special neighs/atom = 0
Neighbor list builds = 200
Dangerous builds not checked
OMP_NUM_THREADS environment is not set. Defaulting to 1 thread. (src/comm.cpp:98)
  using 1 OpenMP thread(s) per MPI task
Reading restart file ...
  restart file = 2 Aug 2023, LAMMPS = 2 Aug 2023
  restoring atom style full from restart
  triclinic box = (0.051064977 0.11783618 -0.071564794) to (15.672935 13.785264 17.318065) with tilt (-7.7280765 -0.14891651 -0.045718737)
WARNING: Triclinic box skew is large. LAMMPS will run inefficiently. (src/domain.cpp:220)
  2 by 2 by 2 MPI processor grid
  pair style reaxff stores no restart info
  366 atoms
Finding 1-2 1-3 1-4 neighbors ...
  special bond factors lj:    0        0        0       
  special bond factors coul:  0        0        0       
     0 = max # of 1-2 neighbors
     0 = max # of 1-3 neighbors
     0 = max # of 1-4 neighbors
     1 = max # of special neighbors
  special bonds CPU = 0.000 seconds
  read_restart CPU = 0.003 seconds
*****Positive-change 3 starts.*****
Resetting global fix info from restart file:
  fix style: nvt, fix ID: 4
Changing box ...
WARNING: Triclinic box skew is large. LAMMPS will run inefficiently. (src/domain.cpp:220)
  triclinic box = (0.051064977 0.11783618 -0.071564794) to (15.672935 13.785264 17.491961) with tilt (-7.7280765 -0.14891651 -0.045718737)
All restart file global fix info was re-assigned
Neighbor list info ...
  update: every = 10 steps, delay = 0 steps, check = no
  max neighbors/atom: 2000, page size: 100000
  master list distance cutoff = 12
  ghost atom cutoff = 12
  binsize = 6, bins = 4 3 3
  2 neighbor lists, perpetual/occasional/extra = 2 0 0
  (1) pair reaxff, perpetual
      attributes: half, newton off, ghost
      pair build: half/bin/newtoff/ghost
      stencil: full/ghost/bin/3d
      bin: standard
  (2) fix qeq/reaxff, perpetual, copy from (1)
      attributes: half, newton off
      pair build: copy
      stencil: none
      bin: none
Setting up Verlet run ...
  Unit style    : real
  Current step  : 0
  Time step     : 0.5
Per MPI rank memory allocation (min/avg/max) = 129 | 132.8 | 137.4 Mbytes
   Step          Temp          PotEng         Press        f_avgp[1]        Volume    
         0   287.10151     -44407.885     -43032.898      0              3750.0021    
       100   293.40626     -44417.773      1185.7173     -5655.3046      3750.0021    
       200   295.37393     -44408.231     -4833.0331     -2178.0385      3750.0021    
       300   314.97809     -44405.696      3737.3089     -1625.3476      3750.0021    
       400   306.51548     -44383.763     -9372.6799     -3559.6241      3750.0021    
       500   297.56135     -44381.779     -6023.8091     -2942.7102      3750.0021    
       600   310.66795     -44402.499     -10335.052     -4500.4162      3750.0021    
       700   312.40544     -44418.132     -6936.8322     -3340.4324      3750.0021    
       800   284.63441     -44411.075      3611.1432      362.59598      3750.0021    
       900   273.56059     -44399.183      2270.426      -4464.9169      3750.0021    
      1000   315.74186     -44418.19       30.899236      2306.9996      3750.0021    
      1100   293.67505     -44378.854     -4929.6767     -1758.8513      3750.0021    
      1200   305.20789     -44395.174     -9558.5604     -6976.7807      3750.0021    
      1300   308.96453     -44409.978     -12771.995     -2903.4864      3750.0021    
      1400   294.93021     -44401.802     -6047.1465     -2458.4732      3750.0021    
      1500   305.16726     -44427.829     -1831.925       5501.2771      3750.0021    
      1600   296.64054     -44439.209     -2265.3208      2413.6988      3750.0021    
      1700   284.06766     -44433.056     -1191.6346     -4355.3774      3750.0021    
      1800   293.93779     -44410.955     -6099.8418      109.20992      3750.0021    
      1900   294.72551     -44388.502     -582.50769     -278.03346      3750.0021    
      2000   310.09153     -44400.631     -5284.8326     -5023.6901      3750.0021    
Loop time of 112.168 on 8 procs for 2000 steps with 366 atoms

Performance: 0.770 ns/day, 31.158 hours/ns, 17.830 timesteps/s, 6.526 katom-step/s
98.8% CPU use with 8 MPI tasks x 1 OpenMP threads

MPI task timing breakdown:
Section |  min time  |  avg time  |  max time  |%varavg| %total
---------------------------------------------------------------
Pair    | 64.049     | 88.584     | 95.393     | 100.7 | 78.97
Bond    | 0.00068601 | 0.00083069 | 0.001027   |   0.0 |  0.00
Neigh   | 5.1445     | 7.0027     | 7.5917     |  27.7 |  6.24
Comm    | 0.91647    | 7.7441     | 32.27      | 340.7 |  6.90
Output  | 0.0059711  | 0.0070546  | 0.0077529  |   0.7 |  0.01
Modify  | 8.2139     | 8.79       | 10.661     |  24.8 |  7.84
Other   |            | 0.03942    |            |       |  0.04

Nlocal:          45.75 ave          52 max          37 min
Histogram: 1 0 0 1 0 2 1 1 1 1
Nghost:         3424.5 ave        3541 max        3316 min
Histogram: 2 0 0 1 1 2 0 0 1 1
Neighs:        31198.8 ave       35107 max       25452 min
Histogram: 1 0 0 1 0 2 1 1 1 1

Total # of neighbors = 249590
Ave neighs/atom = 681.93989
Ave special neighs/atom = 0
Neighbor list builds = 200
Dangerous builds not checked
*****Equilibration pos3 starts.*****
WARNING: New thermo_style command, previous thermo_modify settings will be lost (src/output.cpp:903)
Neighbor list info ...
  update: every = 10 steps, delay = 0 steps, check = no
  max neighbors/atom: 2000, page size: 100000
  master list distance cutoff = 12
  ghost atom cutoff = 12
  binsize = 6, bins = 4 3 3
  2 neighbor lists, perpetual/occasional/extra = 2 0 0
  (1) pair reaxff, perpetual
      attributes: half, newton off, ghost
      pair build: half/bin/newtoff/ghost
      stencil: full/ghost/bin/3d
      bin: standard
  (2) fix qeq/reaxff, perpetual, copy from (1)
      attributes: half, newton off
      pair build: copy
      stencil: none
      bin: none
Setting up Verlet run ...
  Unit style    : real
  Current step  : 0
  Time step     : 0.5
Per MPI rank memory allocation (min/avg/max) = 129.1 | 132.9 | 137.4 Mbytes
   Step          Temp          PotEng         Press        f_avgp[1]        Volume    
         0   310.09153     -44400.631     -5284.9763      0              3750.0021    
       100   291.18584     -44397.212     -7496.1801     -3292.1911      3750.0021    
       200   283.30434     -44413.456     -11791.173     -1847.9451      3750.0021    
       300   291.84802     -44424.203     -9920.2257      820.13106      3750.0021    
       400   308.03149     -44430.689     -1873.2552     -4578.7674      3750.0021    
       500   280.57237     -44393.364      1041.7982     -5881.9863      3750.0021    
       600   295.90229     -44397.127     -6521.1404     -7505.5571      3750.0021    
       700   306.57448     -44397.327     -11552.879     -3538.6883      3750.0021    
       800   312.62335     -44392.786     -13673.992      586.83031      3750.0021    
       900   317.99797     -44409.035     -2292.7199     -5458.3825      3750.0021    
      1000   293.4637      -44414.738      2869.948       14.944604      3750.0021    
      1100   278.57906     -44405.823     -10900.624     -3419.1748      3750.0021    
      1200   289.82552     -44407.823      1860.2063     -7608.808       3750.0021    
      1300   318.78337     -44405.992     -15674.408     -4644.9232      3750.0021    
      1400   298.89632     -44384.292     -5981.4003     -8670.0526      3750.0021    
      1500   301.24106     -44399.045     -1620.484      -3284.6634      3750.0021    
      1600   304.11186     -44420.311     -7136.1492     -3658.754       3750.0021    
      1700   287.34992     -44403.708     -1564.2357     -827.43167      3750.0021    
      1800   315.48843     -44394.3        908.3041      -591.61732      3750.0021    
      1900   327.91983     -44391.786     -844.70634     -1602.7519      3750.0021    
      2000   313.05281     -44397.893      432.66067      4292.8113      3750.0021    
Loop time of 112.719 on 8 procs for 2000 steps with 366 atoms

Performance: 0.767 ns/day, 31.311 hours/ns, 17.743 timesteps/s, 6.494 katom-step/s
98.9% CPU use with 8 MPI tasks x 1 OpenMP threads

MPI task timing breakdown:
Section |  min time  |  avg time  |  max time  |%varavg| %total
---------------------------------------------------------------
Pair    | 64.466     | 87.966     | 95.675     | 103.1 | 78.04
Bond    | 0.0006812  | 0.00082938 | 0.0010521  |   0.0 |  0.00
Neigh   | 5.1688     | 7.019      | 7.8253     |  29.9 |  6.23
Comm    | 0.97909    | 8.7047     | 32.199     | 327.8 |  7.72
Output  | 0.00096127 | 0.0011391  | 0.0016749  |   0.6 |  0.00
Modify  | 8.1922     | 8.9876     | 10.847     |  26.4 |  7.97
Other   |            | 0.03989    |            |       |  0.04

Nlocal:          45.75 ave          53 max          37 min
Histogram: 1 0 0 2 1 0 1 1 1 1
Nghost:        3429.25 ave        3517 max        3340 min
Histogram: 2 0 0 1 1 1 1 0 0 2
Neighs:        31184.2 ave       35815 max       25432 min
Histogram: 1 0 0 2 1 0 1 1 1 1

Total # of neighbors = 249474
Ave neighs/atom = 681.62295
Ave special neighs/atom = 0
Neighbor list builds = 200
Dangerous builds not checked
OMP_NUM_THREADS environment is not set. Defaulting to 1 thread. (src/comm.cpp:98)
  using 1 OpenMP thread(s) per MPI task
Reading restart file ...
  restart file = 2 Aug 2023, LAMMPS = 2 Aug 2023
  restoring atom style full from restart
  triclinic box = (0.051064977 0.11783618 -0.071564794) to (15.672935 13.785264 17.318065) with tilt (-7.7280765 -0.14891651 -0.045718737)
WARNING: Triclinic box skew is large. LAMMPS will run inefficiently. (src/domain.cpp:220)
  2 by 2 by 2 MPI processor grid
  pair style reaxff stores no restart info
  366 atoms
Finding 1-2 1-3 1-4 neighbors ...
  special bond factors lj:    0        0        0       
  special bond factors coul:  0        0        0       
     0 = max # of 1-2 neighbors
     0 = max # of 1-3 neighbors
     0 = max # of 1-4 neighbors
     1 = max # of special neighbors
  special bonds CPU = 0.000 seconds
  read_restart CPU = 0.003 seconds
*****Negative-change 4 starts.*****
Resetting global fix info from restart file:
  fix style: nvt, fix ID: 4
Changing box ...
WARNING: Triclinic box skew is large. LAMMPS will run inefficiently. (src/domain.cpp:220)
  triclinic box = (0.051064977 0.11783618 -0.071564794) to (15.672935 13.785264 17.318065) with tilt (-7.7280765 -0.14891651 -0.21961503)
All restart file global fix info was re-assigned
Neighbor list info ...
  update: every = 10 steps, delay = 0 steps, check = no
  max neighbors/atom: 2000, page size: 100000
  master list distance cutoff = 12
  ghost atom cutoff = 12
  binsize = 6, bins = 4 3 3
  2 neighbor lists, perpetual/occasional/extra = 2 0 0
  (1) pair reaxff, perpetual
      attributes: half, newton off, ghost
      pair build: half/bin/newtoff/ghost
      stencil: full/ghost/bin/3d
      bin: standard
  (2) fix qeq/reaxff, perpetual, copy from (1)
      attributes: half, newton off
      pair build: copy
      stencil: none
      bin: none
Setting up Verlet run ...
  Unit style    : real
  Current step  : 0
  Time step     : 0.5
Per MPI rank memory allocation (min/avg/max) = 129.8 | 134 | 138.6 Mbytes
   Step          Temp          PotEng         Press        f_avgp[1]        Volume    
         0   287.10151     -44422.325     -6782.8945      0              3712.8734    
       100   284.73229     -44419.265      11858.494      760.29923      3712.8734    
       200   301.88469     -44419.13      -323.59479      908.42223      3712.8734    
       300   321.07928     -44419.192     -4330.2747      176.42391      3712.8734    
       400   312.35308     -44405.649     -11205.372      7147.352       3712.8734    
       500   297.96524     -44400.519     -381.86789      1151.7525      3712.8734    
       600   312.73395     -44423.223      126.02836      1651.6151      3712.8734    
       700   281.55726     -44392.475      8926.9839      5890.0977      3712.8734    
       800   292.54431     -44400.654      41.38283       3012.2371      3712.8734    
       900   304.8639      -44401.488     -520.40763      4177.1479      3712.8734    
      1000   293.17656     -44383.77      -2744.3666      2905.6304      3712.8734    
      1100   284.95816     -44388.264     -7505.0516      327.3641       3712.8734    
      1200   283.28136     -44418.58       317.10732      601.19285      3712.8734    
      1300   290.27658     -44434.265      14760.283      528.63011      3712.8734    
      1400   290.44284     -44423.678      8432.699       3892.0887      3712.8734    
      1500   308.56511     -44412.496      183.96023      5057.3608      3712.8734    
      1600   304.882       -44393          1634.0743      1791.0507      3712.8734    
      1700   299.22458     -44399.557      3376.958       3577.4696      3712.8734    
      1800   305.75462     -44427.079     -14034.021     -2041.2432      3712.8734    
      1900   279.38704     -44414.314     -2936.3956      5663.8431      3712.8734    
      2000   308.12554     -44440.524     -2297.8506      4160.8988      3712.8734    
Loop time of 114.205 on 8 procs for 2000 steps with 366 atoms

Performance: 0.757 ns/day, 31.724 hours/ns, 17.512 timesteps/s, 6.410 katom-step/s
98.8% CPU use with 8 MPI tasks x 1 OpenMP threads

MPI task timing breakdown:
Section |  min time  |  avg time  |  max time  |%varavg| %total
---------------------------------------------------------------
Pair    | 65.975     | 90.032     | 97.126     |  98.3 | 78.83
Bond    | 0.00072967 | 0.0008438  | 0.00096015 |   0.0 |  0.00
Neigh   | 5.2979     | 7.1545     | 7.9113     |  28.1 |  6.26
Comm    | 0.86009    | 7.9796     | 32.039     | 330.2 |  6.99
Output  | 0.0045184  | 0.005561   | 0.0062923  |   0.8 |  0.00
Modify  | 8.2574     | 8.9937     | 10.851     |  24.9 |  7.88
Other   |            | 0.03942    |            |       |  0.03

Nlocal:          45.75 ave          51 max          39 min
Histogram: 1 0 2 0 0 1 0 2 0 2
Nghost:        3435.12 ave        3540 max        3341 min
Histogram: 2 0 0 0 2 2 0 0 1 1
Neighs:        31532.5 ave       35156 max       27113 min
Histogram: 1 0 2 0 1 0 0 2 0 2

Total # of neighbors = 252260
Ave neighs/atom = 689.23497
Ave special neighs/atom = 0
Neighbor list builds = 200
Dangerous builds not checked
*****Equilibration neg4 starts.*****
WARNING: New thermo_style command, previous thermo_modify settings will be lost (src/output.cpp:903)
Neighbor list info ...
  update: every = 10 steps, delay = 0 steps, check = no
  max neighbors/atom: 2000, page size: 100000
  master list distance cutoff = 12
  ghost atom cutoff = 12
  binsize = 6, bins = 4 3 3
  2 neighbor lists, perpetual/occasional/extra = 2 0 0
  (1) pair reaxff, perpetual
      attributes: half, newton off, ghost
      pair build: half/bin/newtoff/ghost
      stencil: full/ghost/bin/3d
      bin: standard
  (2) fix qeq/reaxff, perpetual, copy from (1)
      attributes: half, newton off
      pair build: copy
      stencil: none
      bin: none
Setting up Verlet run ...
  Unit style    : real
  Current step  : 0
  Time step     : 0.5
Per MPI rank memory allocation (min/avg/max) = 129.9 | 133.9 | 138.6 Mbytes
   Step          Temp          PotEng         Press        f_avgp[1]        Volume    
         0   308.12554     -44440.524     -2298.0051      0              3712.8734    
       100   298.71329     -44427.855     -1411.6995     -3894.5038      3712.8734    
       200   292.11393     -44393.676     -4917.9679     -3765.8042      3712.8734    
       300   309.93218     -44385.106     -7618.0826     -6790.6363      3712.8734    
       400   322.26298     -44413.536     -2820.1916     -1413.3577      3712.8734    
       500   298.49064     -44414.213      3705.1341      2119.7744      3712.8734    
       600   307.88356     -44432.568      4830.3746      2342.6742      3712.8734    
       700   298.92195     -44426.656     -2766.035      -4376.6654      3712.8734    
       800   311.87609     -44434.001     -7699.2736     -3225.6027      3712.8734    
       900   311.09788     -44416.852      7979.9544      6090.8979      3712.8734    
      1000   327.42997     -44413.184      12245.981      3183.9166      3712.8734    
      1100   310.06898     -44405.539     -3163.72        5947.7332      3712.8734    
      1200   304.25828     -44428.342      4894.4051      721.99183      3712.8734    
      1300   290.04754     -44422.682     -629.5944       5271.5706      3712.8734    
      1400   291.48401     -44417.534      260.31585      9392.6753      3712.8734    
      1500   313.49054     -44421.937     -1361.6477      7498.7454      3712.8734    
      1600   321.74394     -44398.379      5407.2739      1280.105       3712.8734    
      1700   301.8973      -44380.113      793.59291      2730.6177      3712.8734    
      1800   295.49681     -44409.283      11778.857      4938.7618      3712.8734    
      1900   270.09232     -44395.236     -2859.1385      2019.3103      3712.8734    
      2000   309.12055     -44429.835      10978.639      2864.8002      3712.8734    
Loop time of 114.067 on 8 procs for 2000 steps with 366 atoms

Performance: 0.757 ns/day, 31.685 hours/ns, 17.534 timesteps/s, 6.417 katom-step/s
98.9% CPU use with 8 MPI tasks x 1 OpenMP threads

MPI task timing breakdown:
Section |  min time  |  avg time  |  max time  |%varavg| %total
---------------------------------------------------------------
Pair    | 80.141     | 91.948     | 97.04      |  51.4 | 80.61
Bond    | 0.00070803 | 0.00082159 | 0.00092363 |   0.0 |  0.00
Neigh   | 6.2989     | 7.2659     | 7.757      |  15.7 |  6.37
Comm    | 0.92207    | 6.0355     | 17.843     | 200.9 |  5.29
Output  | 0.00095415 | 0.0010762  | 0.0015776  |   0.6 |  0.00
Modify  | 8.3017     | 8.7757     | 9.745      |  14.1 |  7.69
Other   |            | 0.03957    |            |       |  0.03

Nlocal:          45.75 ave          50 max          37 min
Histogram: 1 0 0 1 0 0 1 1 2 2
Nghost:        3448.62 ave        3555 max        3351 min
Histogram: 2 0 0 0 3 1 0 0 1 1
Neighs:        31560.9 ave       34485 max       25777 min
Histogram: 1 0 0 1 0 1 0 1 2 2

Total # of neighbors = 252487
Ave neighs/atom = 689.85519
Ave special neighs/atom = 0
Neighbor list builds = 200
Dangerous builds not checked
OMP_NUM_THREADS environment is not set. Defaulting to 1 thread. (src/comm.cpp:98)
  using 1 OpenMP thread(s) per MPI task
Reading restart file ...
  restart file = 2 Aug 2023, LAMMPS = 2 Aug 2023
  restoring atom style full from restart
  triclinic box = (0.051064977 0.11783618 -0.071564794) to (15.672935 13.785264 17.318065) with tilt (-7.7280765 -0.14891651 -0.045718737)
WARNING: Triclinic box skew is large. LAMMPS will run inefficiently. (src/domain.cpp:220)
  2 by 2 by 2 MPI processor grid
  pair style reaxff stores no restart info
  366 atoms
Finding 1-2 1-3 1-4 neighbors ...
  special bond factors lj:    0        0        0       
  special bond factors coul:  0        0        0       
     0 = max # of 1-2 neighbors
     0 = max # of 1-3 neighbors
     0 = max # of 1-4 neighbors
     1 = max # of special neighbors
  special bonds CPU = 0.000 seconds
  read_restart CPU = 0.003 seconds
*****Positive-change 4 starts.*****
Resetting global fix info from restart file:
  fix style: nvt, fix ID: 4
Changing box ...
WARNING: Triclinic box skew is large. LAMMPS will run inefficiently. (src/domain.cpp:220)
  triclinic box = (0.051064977 0.11783618 -0.071564794) to (15.672935 13.785264 17.318065) with tilt (-7.7280765 -0.14891651 0.12817756)
All restart file global fix info was re-assigned
Neighbor list info ...
  update: every = 10 steps, delay = 0 steps, check = no
  max neighbors/atom: 2000, page size: 100000
  master list distance cutoff = 12
  ghost atom cutoff = 12
  binsize = 6, bins = 4 3 3
  2 neighbor lists, perpetual/occasional/extra = 2 0 0
  (1) pair reaxff, perpetual
      attributes: half, newton off, ghost
      pair build: half/bin/newtoff/ghost
      stencil: full/ghost/bin/3d
      bin: standard
  (2) fix qeq/reaxff, perpetual, copy from (1)
      attributes: half, newton off
      pair build: copy
      stencil: none
      bin: none
Setting up Verlet run ...
  Unit style    : real
  Current step  : 0
  Time step     : 0.5
Per MPI rank memory allocation (min/avg/max) = 129.8 | 134 | 138.6 Mbytes
   Step          Temp          PotEng         Press        f_avgp[1]        Volume    
         0   287.10151     -44424.997     -11138.041      0              3712.8734    
       100   279.85974     -44416.723      10206.997      2174.9925      3712.8734    
       200   289.1951      -44407.778     -3430.7954      2535.079       3712.8734    
       300   318.68776     -44417.709      1278.4326      941.47205      3712.8734    
       400   292.57094     -44386.871     -4006.0536      1055.4519      3712.8734    
       500   301.8884      -44404.742      5376.189       1670.5221      3712.8734    
       600   306.32995     -44405.588     -3441.6401      3414.4614      3712.8734    
       700   288.98607     -44367.292      11566.738      7149.8516      3712.8734    
       800   328.55207     -44395.191      5055.5314      3566.9256      3712.8734    
       900   315.70432     -44404.846     -3458.8635     -1515.0882      3712.8734    
      1000   295.83318     -44411.527      3700.0418      6356.2907      3712.8734    
      1100   289.50383     -44415.594     -2221.4988      2895.8096      3712.8734    
      1200   285.81153     -44402.409     -4731.8721     -4018.071       3712.8734    
      1300   303.04332     -44394.225      6480.2807     -2899.3263      3712.8734    
      1400   309.22387     -44380.962      4435.9375      1238.6587      3712.8734    
      1500   314.00988     -44419.082      8641.8492     -231.5432       3712.8734    
      1600   295.26023     -44426.72       9403.0005      647.0567       3712.8734    
      1700   300.11904     -44432.547     -639.18144     -1292.9623      3712.8734    
      1800   294.77029     -44417.985      5302.7808     -2106.7874      3712.8734    
      1900   310.08153     -44416.971      4747.5094     -2046.5481      3712.8734    
      2000   314.7573      -44407.353      9356.86       -429.6969       3712.8734    
Loop time of 114.722 on 8 procs for 2000 steps with 366 atoms

Performance: 0.753 ns/day, 31.867 hours/ns, 17.433 timesteps/s, 6.381 katom-step/s
98.9% CPU use with 8 MPI tasks x 1 OpenMP threads

MPI task timing breakdown:
Section |  min time  |  avg time  |  max time  |%varavg| %total
---------------------------------------------------------------
Pair    | 85.628     | 93.152     | 97.562     |  37.2 | 81.20
Bond    | 0.00071171 | 0.00082558 | 0.00094957 |   0.0 |  0.00
Neigh   | 6.669      | 7.3306     | 7.7499     |  12.5 |  6.39
Comm    | 0.98358    | 5.4075     | 12.931     | 154.5 |  4.71
Output  | 0.0045058  | 0.0055242  | 0.0062863  |   0.8 |  0.00
Modify  | 8.3755     | 8.7853     | 9.4479     |  11.3 |  7.66
Other   |            | 0.03964    |            |       |  0.03

Nlocal:          45.75 ave          53 max          39 min
Histogram: 1 1 1 0 0 2 0 2 0 1
Nghost:           3432 ave        3558 max        3317 min
Histogram: 1 1 1 0 1 1 1 1 0 1
Neighs:        31547.5 ave       36377 max       27166 min
Histogram: 1 2 0 0 1 1 1 0 1 1

Total # of neighbors = 252380
Ave neighs/atom = 689.56284
Ave special neighs/atom = 0
Neighbor list builds = 200
Dangerous builds not checked
*****Equilibration pos4 starts.*****
WARNING: New thermo_style command, previous thermo_modify settings will be lost (src/output.cpp:903)
Neighbor list info ...
  update: every = 10 steps, delay = 0 steps, check = no
  max neighbors/atom: 2000, page size: 100000
  master list distance cutoff = 12
  ghost atom cutoff = 12
  binsize = 6, bins = 4 3 3
  2 neighbor lists, perpetual/occasional/extra = 2 0 0
  (1) pair reaxff, perpetual
      attributes: half, newton off, ghost
      pair build: half/bin/newtoff/ghost
      stencil: full/ghost/bin/3d
      bin: standard
  (2) fix qeq/reaxff, perpetual, copy from (1)
      attributes: half, newton off
      pair build: copy
      stencil: none
      bin: none
Setting up Verlet run ...
  Unit style    : real
  Current step  : 0
  Time step     : 0.5
Per MPI rank memory allocation (min/avg/max) = 129.8 | 134 | 138.6 Mbytes
   Step          Temp          PotEng         Press        f_avgp[1]        Volume    
         0   314.7573      -44407.354      9356.7717      0              3712.8734    
       100   302.81378     -44402.39       2576.4023     -138.46254      3712.8734    
       200   293.00902     -44426.116     -1604.7169      5640.9889      3712.8734    
       300   285.62389     -44426.626     -1119.5402      868.17606      3712.8734    
       400   299.80289     -44425.976     -3613.0672     -4176.977       3712.8734    
       500   304.0997      -44418.164      4652.3456      240.82626      3712.8734    
       600   312.66384     -44423.975      2902.0631     -1676.2167      3712.8734    
[...]
      1700   301.56146     -44428.537      13323.391      5963.4938      3712.8734    
      1800   313.82536     -44422.172     -7669.2219      444.97729      3712.8734    
      1900   302.5771      -44391.972      4778.3962     -6358.3607      3712.8734    
      2000   320.09137     -44398.449      5584.7709      2584.2292      3712.8734    
Loop time of 71.5339 on 8 procs for 2000 steps with 366 atoms

Performance: 1.208 ns/day, 19.871 hours/ns, 27.959 timesteps/s, 10.233 katom-step/s
98.9% CPU use with 8 MPI tasks x 1 OpenMP threads

MPI task timing breakdown:
Section |  min time  |  avg time  |  max time  |%varavg| %total
---------------------------------------------------------------
Pair    | 54.98      | 57.155     | 59.307     |  18.0 | 79.90
Bond    | 0.00054922 | 0.00068923 | 0.00087152 |   0.0 |  0.00
Neigh   | 4.9808     | 5.2081     | 5.598      |   7.8 |  7.28
Comm    | 0.54997    | 2.7042     | 4.8797     |  82.7 |  3.78
Output  | 0.00095589 | 0.0010258  | 0.0013018  |   0.3 |  0.00
Modify  | 6.039      | 6.4295     | 6.6579     |   7.0 |  8.99
Other   |            | 0.03534    |            |       |  0.05

Nlocal:          45.75 ave          50 max          38 min
Histogram: 1 0 1 0 0 2 0 1 0 3
Nghost:        3446.62 ave        3574 max        3327 min
Histogram: 2 0 0 0 2 2 0 0 1 1
Neighs:        31541.8 ave       34511 max       26465 min
Histogram: 1 0 1 0 0 2 0 1 0 3

Total # of neighbors = 252334
Ave neighs/atom = 689.43716
Ave special neighs/atom = 0
Neighbor list builds = 200
Dangerous builds not checked
OMP_NUM_THREADS environment is not set. Defaulting to 1 thread. (src/comm.cpp:98)
  using 1 OpenMP thread(s) per MPI task
Reading restart file ...
  restart file = 2 Aug 2023, LAMMPS = 2 Aug 2023
  restoring atom style full from restart
  triclinic box = (0.051064977 0.11783618 -0.071564794) to (15.672935 13.785264 17.318065) with tilt (-7.7280765 -0.14891651 -0.045718737)
WARNING: Triclinic box skew is large. LAMMPS will run inefficiently. (src/domain.cpp:220)
  2 by 2 by 2 MPI processor grid
  pair style reaxff stores no restart info
  366 atoms
Finding 1-2 1-3 1-4 neighbors ...
  special bond factors lj:    0        0        0       
  special bond factors coul:  0        0        0       
     0 = max # of 1-2 neighbors
     0 = max # of 1-3 neighbors
     0 = max # of 1-4 neighbors
     1 = max # of special neighbors
  special bonds CPU = 0.000 seconds
  read_restart CPU = 0.002 seconds
*****Negative-change 6 starts.*****
Resetting global fix info from restart file:
  fix style: nvt, fix ID: 4
Changing box ...
WARNING: Triclinic box skew is large. LAMMPS will run inefficiently. (src/domain.cpp:220)
  triclinic box = (0.051064977 0.11783618 -0.071564794) to (15.672935 13.785264 17.318065) with tilt (-7.8647508 -0.14891651 -0.045718737)
All restart file global fix info was re-assigned
Neighbor list info ...
  update: every = 10 steps, delay = 0 steps, check = no
  max neighbors/atom: 2000, page size: 100000
  master list distance cutoff = 12
  ghost atom cutoff = 12
  binsize = 6, bins = 4 3 3
  2 neighbor lists, perpetual/occasional/extra = 2 0 0
  (1) pair reaxff, perpetual
      attributes: half, newton off, ghost
      pair build: half/bin/newtoff/ghost
      stencil: full/ghost/bin/3d
      bin: standard
  (2) fix qeq/reaxff, perpetual, copy from (1)
      attributes: half, newton off
      pair build: copy
      stencil: none
      bin: none
Setting up Verlet run ...
  Unit style    : real
  Current step  : 0
  Time step     : 0.5
Per MPI rank memory allocation (min/avg/max) = 130.3 | 134.5 | 139 Mbytes
   Step          Temp          PotEng         Press        f_avgp[1]        Volume    
         0   287.10151     -44422.82      -8345.0981      0              3712.8734    
       100   278.59192     -44412.916      9698.3089      390.89804      3712.8734    
       200   297.09861     -44413.02      -1359.4021      67.056744      3712.8734    
       300   310.03565     -44405.822      2631.4338      243.57722      3712.8734    
       400   320.87507     -44413.963     -3620.0804      3495.125       3712.8734    
       500   297.21644     -44395.365      500.44052     -1776.0215      3712.8734    
       600   294.34793     -44395.725     -2116.2384      2403.8804      3712.8734    
       700   299.60769     -44395.052      1535.3345      2072.729       3712.8734    
       800   313.01039     -44411.921     -138.67525      3634.6578      3712.8734    
       900   301.58112     -44413.187      3839.1263      8303.0899      3712.8734    
      1000   296.8713      -44418.55      -6199.8957      7381.0271      3712.8734    
      1100   307.03514     -44428.316     -4175.3587      7039.5988      3712.8734    
      1200   302.08709     -44399.597      1818.6577      5392.5455      3712.8734    
      1300   299.74871     -44376.281      9686.1356      3673.3815      3712.8734    
      1400   324.54914     -44412.992      10330.563     -336.51431      3712.8734    
      1500   309.08066     -44432.661     -6798.8218     -2170.6477      3712.8734    
      1600   307.47277     -44439.184     -3160.2859     -1255.7719      3712.8734    
      1700   298.99111     -44417.474      4790.315       3303.6636      3712.8734    
      1800   315.9927      -44417.926     -11079.397      8083.2872      3712.8734    
      1900   320.26955     -44415.706     -1597.9435      1082.4596      3712.8734    
      2000   304.26693     -44412.729      2731.7804     -5265.5583      3712.8734    
Loop time of 67.348 on 8 procs for 2000 steps with 366 atoms

Performance: 1.283 ns/day, 18.708 hours/ns, 29.697 timesteps/s, 10.869 katom-step/s
98.8% CPU use with 8 MPI tasks x 1 OpenMP threads

MPI task timing breakdown:
Section |  min time  |  avg time  |  max time  |%varavg| %total
---------------------------------------------------------------
Pair    | 50.741     | 53.287     | 55.376     |  18.8 | 79.12
Bond    | 0.00052498 | 0.00069158 | 0.001058   |   0.0 |  0.00
Neigh   | 5.0489     | 5.2655     | 5.6407     |   7.6 |  7.82
Comm    | 0.43722    | 2.5292     | 5.0757     |  86.4 |  3.76
Output  | 0.0030768  | 0.0038755  | 0.0043911  |   0.7 |  0.01
Modify  | 5.8533     | 6.2277     | 6.4437     |   6.9 |  9.25
Other   |            | 0.03437    |            |       |  0.05

Nlocal:          45.75 ave          50 max          41 min
Histogram: 1 0 1 1 0 2 1 0 1 1
Nghost:        3434.75 ave        3546 max        3331 min
Histogram: 1 1 0 1 1 2 0 0 1 1
Neighs:        31524.5 ave       34166 max       28383 min
Histogram: 1 0 1 1 0 2 0 1 0 2

Total # of neighbors = 252196
Ave neighs/atom = 689.06011
Ave special neighs/atom = 0
Neighbor list builds = 200
Dangerous builds not checked
*****Equilibration neg6 starts.*****
WARNING: New thermo_style command, previous thermo_modify settings will be lost (src/output.cpp:903)
Neighbor list info ...
  update: every = 10 steps, delay = 0 steps, check = no
  max neighbors/atom: 2000, page size: 100000
  master list distance cutoff = 12
  ghost atom cutoff = 12
  binsize = 6, bins = 4 3 3
  2 neighbor lists, perpetual/occasional/extra = 2 0 0
  (1) pair reaxff, perpetual
      attributes: half, newton off, ghost
      pair build: half/bin/newtoff/ghost
      stencil: full/ghost/bin/3d
      bin: standard
  (2) fix qeq/reaxff, perpetual, copy from (1)
      attributes: half, newton off
      pair build: copy
      stencil: none
      bin: none
Setting up Verlet run ...
  Unit style    : real
  Current step  : 0
  Time step     : 0.5
Per MPI rank memory allocation (min/avg/max) = 130.4 | 134.4 | 139 Mbytes
   Step          Temp          PotEng         Press        f_avgp[1]        Volume    
         0   304.26693     -44412.729      2732.0035      0              3712.8734    
       100   287.97676     -44398.933      3953.1294      6963.0713      3712.8734    
       200   297.93949     -44419.576      63.707581      5022.1636      3712.8734    
       300   285.03707     -44416.167      3643.274       198.91103      3712.8734    
       400   279.20475     -44406.21      -3110.139       5479.117       3712.8734    
       500   324.81282     -44428.465     -6536.9747      1819.6785      3712.8734    
       600   309.23965     -44400.067     -3659.3858     -827.36233      3712.8734    
       700   290.18296     -44399.188      2891.6416      3291.5977      3712.8734    
       800   294.50528     -44421.282     -6331.1284      1712.3739      3712.8734    
       900   289.12191     -44414.529      2648.759       203.41941      3712.8734    
      1000   295.81724     -44410.468      4338.0767      2787.9351      3712.8734    
      1100   318.4585      -44417.508     -1319.5054      3250.2884      3712.8734    
      1200   291.76504     -44388.708      1668.5624      1589.828       3712.8734    
      1300   297.77582     -44408.918     -2160.8703      2565.9108      3712.8734    
      1400   288.87561     -44431.882      8886.9427      3489.7152      3712.8734    
      1500   297.29657     -44443.648     -2050.5946      2045.4708      3712.8734    
      1600   304.50165     -44427.723      1653.376       1997.8473      3712.8734    
      1700   294.40669     -44395.226      13976.113      9122.4465      3712.8734    
      1800   290.04785     -44386.041      3926.722       251.07439      3712.8734    
      1900   314.9665      -44419.524      7545.4524      2921.1144      3712.8734    
      2000   301.46059     -44420.247     -5614.2103     -5061.4368      3712.8734    
Loop time of 66.0845 on 8 procs for 2000 steps with 366 atoms

Performance: 1.307 ns/day, 18.357 hours/ns, 30.264 timesteps/s, 11.077 katom-step/s
98.9% CPU use with 8 MPI tasks x 1 OpenMP threads

MPI task timing breakdown:
Section |  min time  |  avg time  |  max time  |%varavg| %total
---------------------------------------------------------------
Pair    | 49.446     | 51.98      | 54.24      |  19.8 | 78.66
Bond    | 0.00048784 | 0.00066707 | 0.0010004  |   0.0 |  0.00
Neigh   | 5.0317     | 5.252      | 5.4713     |   6.1 |  7.95
Comm    | 0.46042    | 2.7244     | 5.2613     |  86.5 |  4.12
Output  | 0.00086068 | 0.00092291 | 0.001219   |   0.0 |  0.00
Modify  | 5.8757     | 6.0925     | 6.3108     |   5.6 |  9.22
Other   |            | 0.03359    |            |       |  0.05

Nlocal:          45.75 ave          52 max          39 min
Histogram: 1 1 0 1 1 0 1 1 1 1
Nghost:         3471.5 ave        3597 max        3353 min
Histogram: 2 0 0 1 1 1 1 0 1 1
Neighs:        31522.1 ave       35440 max       27064 min
Histogram: 1 1 1 0 1 0 1 0 2 1

Total # of neighbors = 252177
Ave neighs/atom = 689.0082
Ave special neighs/atom = 0
Neighbor list builds = 200
Dangerous builds not checked
OMP_NUM_THREADS environment is not set. Defaulting to 1 thread. (src/comm.cpp:98)
  using 1 OpenMP thread(s) per MPI task
Reading restart file ...
  restart file = 2 Aug 2023, LAMMPS = 2 Aug 2023
  restoring atom style full from restart
  triclinic box = (0.051064977 0.11783618 -0.071564794) to (15.672935 13.785264 17.318065) with tilt (-7.7280765 -0.14891651 -0.045718737)
WARNING: Triclinic box skew is large. LAMMPS will run inefficiently. (src/domain.cpp:220)
  2 by 2 by 2 MPI processor grid
  pair style reaxff stores no restart info
  366 atoms
Finding 1-2 1-3 1-4 neighbors ...
  special bond factors lj:    0        0        0       
  special bond factors coul:  0        0        0       
     0 = max # of 1-2 neighbors
     0 = max # of 1-3 neighbors
     0 = max # of 1-4 neighbors
     1 = max # of special neighbors
  special bonds CPU = 0.000 seconds
  read_restart CPU = 0.002 seconds
*****Positive-change 6 starts.*****
Resetting global fix info from restart file:
  fix style: nvt, fix ID: 4
Changing box ...
WARNING: Triclinic box skew is large. LAMMPS will run inefficiently. (src/domain.cpp:220)
  triclinic box = (0.051064977 0.11783618 -0.071564794) to (15.672935 13.785264 17.318065) with tilt (-7.5914022 -0.14891651 -0.045718737)
All restart file global fix info was re-assigned
Neighbor list info ...
  update: every = 10 steps, delay = 0 steps, check = no
  max neighbors/atom: 2000, page size: 100000
  master list distance cutoff = 12
  ghost atom cutoff = 12
  binsize = 6, bins = 4 3 3
  2 neighbor lists, perpetual/occasional/extra = 2 0 0
  (1) pair reaxff, perpetual
      attributes: half, newton off, ghost
      pair build: half/bin/newtoff/ghost
      stencil: full/ghost/bin/3d
      bin: standard
  (2) fix qeq/reaxff, perpetual, copy from (1)
      attributes: half, newton off
      pair build: copy
      stencil: none
      bin: none
Setting up Verlet run ...
  Unit style    : real
  Current step  : 0
  Time step     : 0.5
Per MPI rank memory allocation (min/avg/max) = 129.7 | 133.8 | 138.3 Mbytes
   Step          Temp          PotEng         Press        f_avgp[1]        Volume    
         0   287.10151     -44426.147     -10270.049      0              3712.8734    
       100   278.67061     -44416.085      13047.95       2178.3016      3712.8734    
       200   307.11843     -44426.952     -3747.453       2447.6965      3712.8734    
       300   323.30097     -44422.547     -6899.4563      1189.1046      3712.8734    
       400   286.95629     -44383.164      622.60148      5557.2048      3712.8734    
       500   302.64154     -44413.469      7996.0923      3653.9319      3712.8734    
       600   295.71031     -44418.177     -7504.726       4203.3884      3712.8734    
       700   283.7424      -44409.286      5283.0853      2677.6234      3712.8734    
       800   272.64011     -44397.323      1118.0055      6806.1627      3712.8734    
       900   294.79573     -44409.229      12807.243      2569.1781      3712.8734    
      1000   306.94926     -44411.332     -111.25333      8535.9732      3712.8734    
      1100   293.63765     -44403.962      7.7999133      5177.7783      3712.8734    
      1200   289.78811     -44425.85      -8408.7906      6685.2932      3712.8734    
      1300   279.73052     -44435.243      4821.467       5732.0924      3712.8734    
      1400   304.70567     -44448.534      2714.3544      146.53115      3712.8734    
      1500   293.25499     -44411.224      2646.9929      4412.4221      3712.8734    
      1600   307.09613     -44420.257      2171.8647      9123.9106      3712.8734    
      1700   311.02572     -44425.144     -1031.8751      2327.3352      3712.8734    
      1800   298.17149     -44419.075     -5503.1383      215.84835      3712.8734    
      1900   281.01481     -44428.81      -6556.8225     -1470.0632      3712.8734    
      2000   277.93266     -44427.655      5291.5443      1259.7854      3712.8734    
Loop time of 65.069 on 8 procs for 2000 steps with 366 atoms

Performance: 1.328 ns/day, 18.075 hours/ns, 30.737 timesteps/s, 11.250 katom-step/s
98.8% CPU use with 8 MPI tasks x 1 OpenMP threads

MPI task timing breakdown:
Section |  min time  |  avg time  |  max time  |%varavg| %total
---------------------------------------------------------------
Pair    | 49.014     | 51.348     | 53.416     |  18.2 | 78.91
Bond    | 0.00052726 | 0.00063678 | 0.0007267  |   0.0 |  0.00
Neigh   | 4.9892     | 5.1963     | 5.4236     |   6.5 |  7.99
Comm    | 0.39461    | 2.4657     | 4.801      |  83.3 |  3.79
Output  | 0.0028927  | 0.003738   | 0.0042993  |   0.8 |  0.01
Modify  | 5.7897     | 6.0215     | 6.2279     |   6.0 |  9.25
Other   |            | 0.03348    |            |       |  0.05

Nlocal:          45.75 ave          52 max          39 min
Histogram: 1 1 0 2 0 0 2 0 0 2
Nghost:         3416.5 ave        3522 max        3314 min
Histogram: 1 1 0 1 1 1 1 0 1 1
Neighs:        31552.4 ave       35831 max       27107 min
Histogram: 1 1 1 1 0 0 2 0 0 2

Total # of neighbors = 252419
Ave neighs/atom = 689.6694
Ave special neighs/atom = 0
Neighbor list builds = 200
Dangerous builds not checked
*****Equilibration pos6 starts.*****
WARNING: New thermo_style command, previous thermo_modify settings will be lost (src/output.cpp:903)
Neighbor list info ...
  update: every = 10 steps, delay = 0 steps, check = no
  max neighbors/atom: 2000, page size: 100000
  master list distance cutoff = 12
  ghost atom cutoff = 12
  binsize = 6, bins = 4 3 3
  2 neighbor lists, perpetual/occasional/extra = 2 0 0
  (1) pair reaxff, perpetual
      attributes: half, newton off, ghost
      pair build: half/bin/newtoff/ghost
      stencil: full/ghost/bin/3d
      bin: standard
  (2) fix qeq/reaxff, perpetual, copy from (1)
      attributes: half, newton off
      pair build: copy
      stencil: none
      bin: none
Setting up Verlet run ...
  Unit style    : real
  Current step  : 0
  Time step     : 0.5
Per MPI rank memory allocation (min/avg/max) = 129.8 | 133.7 | 138.3 Mbytes
   Step          Temp          PotEng         Press        f_avgp[1]        Volume    
         0   277.93266     -44427.655      5291.6962      0              3712.8734    
       100   292.58801     -44426.719      7064.662       3185.0522      3712.8734    
       200   312.22565     -44422.709      5139.308       1368.5507      3712.8734    
       300   296.5079      -44403.294      6302.4515      2795.6597      3712.8734    
       400   305.66929     -44411.609      4560.0913      714.27852      3712.8734    
       500   300.38751     -44411.458      1849.6542      627.02719      3712.8734    
       600   287.89061     -44430.604     -2656.0428     -961.29706      3712.8734    
       700   286.19302     -44443.321      3012.6104      3713.4434      3712.8734    
       800   294.95015     -44436.613      3648.7632      4711.7009      3712.8734    
       900   277.86722     -44396.257      1864.3538      4663.0306      3712.8734    
      1000   301.93065     -44410.824     -5234.6566      3911.0027      3712.8734    
      1100   331.13055     -44443.439      3297.1252      2656.5274      3712.8734    
      1200   287.47097     -44409.611      11265.115      7115.1946      3712.8734    
      1300   273.2759      -44414.178     -7643.0227     -1990.7382      3712.8734    
      1400   298.3434      -44454.921     -3568.0888     -1139.6262      3712.8734    
      1500   321.73797     -44457.781      1462.7568      2124.9747      3712.8734    
      1600   312.70846     -44425.393      4497.0659      3107.462       3712.8734    
      1700   303.15948     -44402.304     -2137.791      -838.59132      3712.8734    
      1800   314.80391     -44413.943      1515.2401      6259.6202      3712.8734    
      1900   282.43185     -44418.892     -7434.6216      5518.8097      3712.8734    
      2000   279.9116      -44421.835     -2142.3778      1817.1801      3712.8734    
Loop time of 64.8288 on 8 procs for 2000 steps with 366 atoms

Performance: 1.333 ns/day, 18.008 hours/ns, 30.851 timesteps/s, 11.291 katom-step/s
98.8% CPU use with 8 MPI tasks x 1 OpenMP threads

MPI task timing breakdown:
Section |  min time  |  avg time  |  max time  |%varavg| %total
---------------------------------------------------------------
Pair    | 49.253     | 51.301     | 53.168     |  17.5 | 79.13
Bond    | 0.00051479 | 0.00064292 | 0.00071548 |   0.0 |  0.00
Neigh   | 5.022      | 5.1686     | 5.3444     |   4.7 |  7.97
Comm    | 0.40351    | 2.2735     | 4.323      |  83.3 |  3.51
Output  | 0.00083513 | 0.00089596 | 0.001141   |   0.0 |  0.00
Modify  | 5.8762     | 6.0503     | 6.1959     |   4.3 |  9.33
Other   |            | 0.03361    |            |       |  0.05

Nlocal:          45.75 ave          49 max          39 min
Histogram: 1 0 0 0 2 0 0 1 0 4
Nghost:         3439.5 ave        3547 max        3343 min
Histogram: 1 1 0 2 0 2 0 0 1 1
Neighs:        31527.8 ave       33645 max       27113 min
Histogram: 1 0 0 1 1 0 0 1 0 4

Total # of neighbors = 252222
Ave neighs/atom = 689.13115
Ave special neighs/atom = 0
Neighbor list builds = 200
Dangerous builds not checked
Total wall time: 0:43:16
