LAMMPS (2 Aug 2023 - Update 2)
OMP_NUM_THREADS environment is not set. Defaulting to 1 thread. (src/comm.cpp:98)
  using 1 OpenMP thread(s) per MPI task
Reading data file ...
  triclinic box = (0 0 0) to (16.8189 12.842 16.0755) with tilt (-8.3798 1.195 0.4312)
WARNING: Triclinic box skew is large. LAMMPS will run inefficiently. (src/domain.cpp:220)
  2 by 2 by 2 MPI processor grid
  reading atoms ...
  274 atoms
Finding 1-2 1-3 1-4 neighbors ...
  special bond factors lj:    0        0        0       
  special bond factors coul:  0        0        0       
     0 = max # of 1-2 neighbors
     0 = max # of 1-3 neighbors
     0 = max # of 1-4 neighbors
     1 = max # of special neighbors
  special bonds CPU = 0.001 seconds
  read_data CPU = 0.007 seconds
*****Minimization starts.*****
Setting up cg style minimization ...
  Unit style    : real
  Current step  : 0
WARNING: No pairwise cutoff or binsize set. Atom sorting therefore disabled. (src/atom.cpp:2366)
WARNING: Communication cutoff is 0.0. No ghost atoms will be generated. Atoms may get lost. (src/comm_brick.cpp:210)
Per MPI rank memory allocation (min/avg/max) = 6.364 | 6.364 | 6.364 Mbytes
   Step          Temp          E_pair         E_mol          TotEng         Press     
         0   0              0              0              0              0            
         1   0              0              0              0              0            
Loop time of 5.26436e-05 on 8 procs for 1 steps with 274 atoms

46.5% CPU use with 8 MPI tasks x 1 OpenMP threads

Minimization stats:
  Stopping criterion = search direction is not downhill
  Energy initial, next-to-last, final = 
                     0                  0                  0
  Force two-norm initial, final = 0 0
  Force max component initial, final = 0 0
  Final line search alpha, max atom move = 0 0
  Iterations, force evaluations = 1 0

MPI task timing breakdown:
Section |  min time  |  avg time  |  max time  |%varavg| %total
---------------------------------------------------------------
Pair    | 0          | 0          | 0          |   0.0 |  0.00
Bond    | 9.78e-07   | 1.8683e-06 | 2.165e-06  |   0.0 |  3.55
Neigh   | 0          | 0          | 0          |   0.0 |  0.00
Comm    | 4.121e-06  | 4.1733e-06 | 4.33e-06   |   0.0 |  7.93
Output  | 0          | 0          | 0          |   0.0 |  0.00
Modify  | 0          | 0          | 0          |   0.0 |  0.00
Other   |            | 4.66e-05   |            |       | 88.52

Nlocal:          34.25 ave          40 max          23 min
Histogram: 1 0 0 0 0 0 2 3 1 1
Nghost:              0 ave           0 max           0 min
Histogram: 8 0 0 0 0 0 0 0 0 0
Neighs:              0 ave           0 max           0 min
Histogram: 8 0 0 0 0 0 0 0 0 0

Total # of neighbors = 0
Ave neighs/atom = 0
Ave special neighs/atom = 0
Neighbor list builds = 0
Dangerous builds = 0
System init for write_data ...
WARNING: Communication cutoff is 0.0. No ghost atoms will be generated. Atoms may get lost. (src/comm_brick.cpp:210)

CITE-CITE-CITE-CITE-CITE-CITE-CITE-CITE-CITE-CITE-CITE-CITE-CITE

Your simulation uses code contributions which should be cited:
- pair reaxff command: doi:10.1016/j.parco.2011.08.005
- fix qeq/reaxff command: doi:10.1016/j.parco.2011.08.005
The log file lists these citations in BibTeX format.

CITE-CITE-CITE-CITE-CITE-CITE-CITE-CITE-CITE-CITE-CITE-CITE-CITE

WARNING: Fix qeq/reaxff group is not charge neutral, net charge = -8.2 (src/REAXFF/fix_qeq_reaxff.cpp:392)
Neighbor list info ...
  update: every = 10 steps, delay = 0 steps, check = no
  max neighbors/atom: 2000, page size: 100000
  master list distance cutoff = 12
  ghost atom cutoff = 12
  binsize = 6, bins = 5 3 3
  2 neighbor lists, perpetual/occasional/extra = 2 0 0
  (1) pair reaxff, perpetual
      attributes: half, newton off, ghost
      pair build: half/bin/newtoff/ghost
      stencil: full/ghost/bin/3d
      bin: standard
  (2) fix qeq/reaxff, perpetual, copy from (1)
      attributes: half, newton off
      pair build: copy
      stencil: none
      bin: none
Setting up Verlet run ...
  Unit style    : real
  Current step  : 0
  Time step     : 0.5
Per MPI rank memory allocation (min/avg/max) = 109.8 | 110.8 | 111.6 Mbytes
   Step          Temp          PotEng         Press         Density         Volume    
         0   300           -29524.072      53373.102      1.4594291      3472.1201    
       100   940.83325     -30895.433     -22221.566      1.4594291      3472.1201    
       200   655.32859     -31410.555     -8415.0945      1.4594291      3472.1201    
       300   492.44705     -31703.584     -1794.1004      1.4594291      3472.1201    
       400   382.80684     -31863.571     -399.08344      1.4594291      3472.1201    
       500   340.51122     -31988.881     -4396.9622      1.4594291      3472.1201    
       600   278.76054     -32030.093     -12030.124      1.4594291      3472.1201    
       700   252.54387     -32039.073     -16008.085      1.4594291      3472.1201    
       800   303.17696     -32059.227     -7196.0812      1.4594291      3472.1201    
       900   316.31868     -32035.623      1880.9547      1.4594291      3472.1201    
      1000   302.25251     -32011.681      399.58501      1.4594291      3472.1201    
      1100   315.72134     -32030.621     -1937.705       1.4594291      3472.1201    
      1200   304.92451     -32062.996     -4858.2292      1.4594291      3472.1201    
      1300   271.27974     -32068.968     -12188.651      1.4594291      3472.1201    
      1400   282.30555     -32083.975     -5263.1535      1.4594291      3472.1201    
      1500   284.15138     -32063.957     -2027.0405      1.4594291      3472.1201    
      1600   304.84901     -32054.903     -8468.5027      1.4594291      3472.1201    
      1700   320.05144     -32056.724     -12833.076      1.4594291      3472.1201    
      1800   304.8515      -32060.022     -6647.9777      1.4594291      3472.1201    
      1900   292.71773     -32083.757     -1193.4113      1.4594291      3472.1201    
      2000   272.13786     -32083.142      6047.8677      1.4594291      3472.1201    
      2100   289.96718     -32084.631      9390.5456      1.4594291      3472.1201    
      2200   287.75492     -32058.426     -9151.3398      1.4594291      3472.1201    
      2300   335.25197     -32079.165     -16200.698      1.4594291      3472.1201    
      2400   310.32653     -32067.983      2160.6232      1.4594291      3472.1201    
      2500   290.62987     -32076.478     -2874.5909      1.4594291      3472.1201    
      2600   291.63604     -32096.204      1291.0485      1.4594291      3472.1201    
      2700   278.45821     -32085.212      2152.4342      1.4594291      3472.1201    
      2800   295.16014     -32075.293      11384.18       1.4594291      3472.1201    
      2900   321.3704      -32074.659      4968.7777      1.4594291      3472.1201    
      3000   317.98161     -32069.827      4987.1493      1.4594291      3472.1201    
      3100   315.69129     -32093.196     -2919.9481      1.4594291      3472.1201    
      3200   272.69984     -32080.299     -10479.085      1.4594291      3472.1201    
      3300   295.4357      -32094.378     -2307.7923      1.4594291      3472.1201    
      3400   306.68136     -32082.661      166.83382      1.4594291      3472.1201    
      3500   303.62197     -32071.67      -7119.6858      1.4594291      3472.1201    
      3600   295.73041     -32073.133     -3795.8248      1.4594291      3472.1201    
      3700   277.22679     -32074.502     -11588.427      1.4594291      3472.1201    
      3800   297.79238     -32096.778     -7570.1459      1.4594291      3472.1201    
      3900   281.6086      -32077.626     -6662.3657      1.4594291      3472.1201    
      4000   300.60001     -32070.467      2359.5495      1.4594291      3472.1201    
      4100   294.06074     -32057.62       5645.1046      1.4594291      3472.1201    
      4200   301.27329     -32073.305     -18150.364      1.4594291      3472.1201    
      4300   303.9283      -32079.447      7855.4458      1.4594291      3472.1201    
      4400   305.65864     -32079.704      2286.7804      1.4594291      3472.1201    
      4500   322.922       -32092.465     -3549.397       1.4594291      3472.1201    
      4600   285.80906     -32064.212     -12844.728      1.4594291      3472.1201    
      4700   314.3524      -32094.977     -4345.0284      1.4594291      3472.1201    
      4800   296.7886      -32095.23      -3105.819       1.4594291      3472.1201    
      4900   274.49523     -32085.05       4288.4756      1.4594291      3472.1201    
      5000   303.35124     -32096.072      7339.555       1.4594291      3472.1201    
      5100   312.81138     -32085.288     -9208.7156      1.4594291      3472.1201    
      5200   315.87031     -32080.161      1911.4367      1.4594291      3472.1201    
      5300   294.51043     -32063.337     -7181.957       1.4594291      3472.1201    
      5400   302.37637     -32077.028     -5387.4033      1.4594291      3472.1201    
      5500   300.55289     -32083.698     -11712.412      1.4594291      3472.1201    
      5600   286.81598     -32082.197     -4124.5423      1.4594291      3472.1201    
      5700   287.94838     -32087.873     -17730.521      1.4594291      3472.1201    
      5800   288.56291     -32084.062     -6294.3873      1.4594291      3472.1201    
      5900   309.02052     -32089.82       5873.2398      1.4594291      3472.1201    
      6000   332.32223     -32090.501     -1939.7511      1.4594291      3472.1201    
      6100   282.03925     -32054.438     -17108.767      1.4594291      3472.1201    
      6200   302.85272     -32086.968     -10100.378      1.4594291      3472.1201    
      6300   285.77809     -32089.215     -4845.2139      1.4594291      3472.1201    
      6400   290.19453     -32093.381     -3191.1067      1.4594291      3472.1201    
      6500   301.88465     -32095.543     -25381.646      1.4594291      3472.1201    
      6600   286.51305     -32075.469     -2743.8843      1.4594291      3472.1201    
      6700   302.9048      -32069.597      933.3274       1.4594291      3472.1201    
      6800   319.28075     -32082.065     -6514.6725      1.4594291      3472.1201    
      6900   284.22641     -32076.56      -12313.662      1.4594291      3472.1201    
      7000   290.24417     -32099.671      5197.8377      1.4594291      3472.1201    
Loop time of 270.667 on 8 procs for 7000 steps with 274 atoms

Performance: 1.117 ns/day, 21.482 hours/ns, 25.862 timesteps/s, 7.086 katom-step/s
98.8% CPU use with 8 MPI tasks x 1 OpenMP threads

MPI task timing breakdown:
Section |  min time  |  avg time  |  max time  |%varavg| %total
---------------------------------------------------------------
Pair    | 157.88     | 206.45     | 228.71     | 152.1 | 76.27
Bond    | 0.019327   | 0.0208     | 0.022472   |   0.8 |  0.01
Neigh   | 11.075     | 14.56      | 15.707     |  38.0 |  5.38
Comm    | 3.0833     | 25.385     | 73.991     | 434.2 |  9.38
Output  | 0.003312   | 0.0036088  | 0.0053757  |   1.1 |  0.00
Modify  | 22.986     | 24.101     | 27.569     |  29.3 |  8.90
Other   |            | 0.1493     |            |       |  0.06

Nlocal:          34.25 ave          45 max          18 min
Histogram: 1 0 1 0 1 0 0 3 1 1
Nghost:         2821.5 ave        2838 max        2805 min
Histogram: 1 0 1 1 1 2 0 0 1 1
Neighs:        18928.9 ave       24520 max       10201 min
Histogram: 1 0 1 0 1 0 0 3 1 1

Total # of neighbors = 151431
Ave neighs/atom = 552.66788
Ave special neighs/atom = 0
Neighbor list builds = 700
Dangerous builds not checked
System init for write_data ...
System init for write_restart ...
OMP_NUM_THREADS environment is not set. Defaulting to 1 thread. (src/comm.cpp:98)
  using 1 OpenMP thread(s) per MPI task
Reading restart file ...
  restart file = 2 Aug 2023, LAMMPS = 2 Aug 2023
  restoring atom style full from restart
  triclinic box = (0 0 0) to (16.8189 12.842 16.0755) with tilt (-8.3798 1.195 0.4312)
WARNING: Triclinic box skew is large. LAMMPS will run inefficiently. (src/domain.cpp:220)
  2 by 2 by 2 MPI processor grid
  pair style reaxff stores no restart info
  274 atoms
Finding 1-2 1-3 1-4 neighbors ...
  special bond factors lj:    0        0        0       
  special bond factors coul:  0        0        0       
     0 = max # of 1-2 neighbors
     0 = max # of 1-3 neighbors
     0 = max # of 1-4 neighbors
     1 = max # of special neighbors
  special bonds CPU = 0.000 seconds
  read_restart CPU = 0.003 seconds
*****debug*****
xy = -8.3797999999999994714, deltaxy = 0.083798
xz = 1.1950000000000000622, deltaxz = -0.01195
yz = 0.43120000000000002771, deltayz = -0.004312
*****
*****Negative-deform 1 starts.*****
Resetting global fix info from restart file:
  fix style: nvt, fix ID: fnvt
All restart file global fix info was re-assigned
Neighbor list info ...
  update: every = 10 steps, delay = 0 steps, check = no
  max neighbors/atom: 2000, page size: 100000
  master list distance cutoff = 12
  ghost atom cutoff = 12
  binsize = 6, bins = 5 3 3
  2 neighbor lists, perpetual/occasional/extra = 2 0 0
  (1) pair reaxff, perpetual
      attributes: half, newton off, ghost
      pair build: half/bin/newtoff/ghost
      stencil: full/ghost/bin/3d
      bin: standard
  (2) fix qeq/reaxff, perpetual, copy from (1)
      attributes: half, newton off
      pair build: copy
      stencil: none
      bin: none
Setting up Verlet run ...
  Unit style    : real
  Current step  : 0
  Time step     : 0.5
Per MPI rank memory allocation (min/avg/max) = 109.5 | 110 | 110.5 Mbytes
   Step          Temp          PotEng         Press         Density         Volume    
         0   290.24417     -32099.671      5197.9179      1.4594291      3472.1201    
       100   262.08506     -32083.018     -12357.19       1.4596376      3471.6241    
       200   303.84078     -32096.999     -1309.7777      1.4598462      3471.1281    
       300   297.24776     -32072.324     -9821.6634      1.4600548      3470.6321    
       400   300.28396     -32075.92      -414.40216      1.4602635      3470.1361    
       500   302.14399     -32087.982     -10170.711      1.4604723      3469.6401    
       600   301.83832     -32092.566     -9057.8291      1.4606811      3469.144     
       700   289.98919     -32083.174     -26887.275      1.46089        3468.648     
       800   290.68438     -32079.474     -4260.5826      1.4610989      3468.152     
       900   316.3759      -32085.039      74.436534      1.4613079      3467.656     
      1000   314.22006     -32075.554     -5948.4386      1.461517       3467.16      
      1100   280.13387     -32062.035     -387.75561      1.4617261      3466.6639    
      1200   293.70816     -32091.467     -8565.7917      1.4619353      3466.1679    
      1300   286.50549     -32087.106     -8498.6226      1.4621445      3465.6719    
      1400   297.32823     -32070.166     -6642.5298      1.4623538      3465.1759    
      1500   322.87742     -32072.049     -8760.6534      1.4625632      3464.6799    
      1600   320.14776     -32078.588     -8652.993       1.4627726      3464.1839    
      1700   298.93487     -32076.756     -330.57669      1.4629821      3463.6878    
      1800   311.31779     -32102.086     -3591.3769      1.4631916      3463.1918    
      1900   285.46619     -32092.724      3893.2154      1.4634012      3462.6958    
      2000   296.48936     -32094.976     -10130.383      1.4636108      3462.1998    
      2100   318.75069     -32078.7        50.092426      1.4638206      3461.7038    
      2200   303.31201     -32063.719      9151.9374      1.4640303      3461.2078    
      2300   310.79524     -32086.01       278.6619       1.4642402      3460.7117    
      2400   279.74234     -32080.186      1756.701       1.4644501      3460.2157    
      2500   288.60789     -32087.852     -8011.3424      1.46466        3459.7197    
      2600   300.4125      -32092.679      6017.5531      1.46487        3459.2237    
      2700   294.00206     -32080.16      -8414.3209      1.4650801      3458.7277    
      2800   310.03538     -32072.043      4076.8621      1.4652903      3458.2317    
      2900   327.81137     -32080.481     -5136.4945      1.4655005      3457.7356    
      3000   300.28501     -32084.39       85.648972      1.4657107      3457.2396    
      3100   290.04969     -32096.504     -7787.5267      1.465921       3456.7436    
      3200   298.97298     -32105.164     -2634.8236      1.4661314      3456.2476    
      3300   315.39009     -32104.505      8527.1001      1.4663419      3455.7516    
      3400   324.77319     -32090.01      -5492.4958      1.4665524      3455.2556    
      3500   317.00761     -32072.61      -14514.225      1.4667629      3454.7595    
      3600   309.55604     -32099.65      -861.10961      1.4669735      3454.2635    
      3700   312.25396     -32122.924     -4080.5819      1.4671842      3453.7675    
      3800   297.31234     -32110.983     -4213.0933      1.467395       3453.2715    
      3900   293.83106     -32086.798     -5698.9421      1.4676058      3452.7755    
      4000   309.55481     -32086.468      7318.0721      1.4678166      3452.2795    
      4100   307.96553     -32104.76       1253.654       1.4680275      3451.7834    
      4200   306.23175     -32119.586     -293.93261      1.4682385      3451.2874    
      4300   304.59567     -32119.731     -16781.442      1.4684496      3450.7914    
      4400   288.14099     -32100.677     -9964.2158      1.4686607      3450.2954    
      4500   312.56997     -32097.927     -12936.026      1.4688718      3449.7994    
      4600   317.16088     -32088.782     -8561.8165      1.4690831      3449.3033    
      4700   304.0912      -32104.643     -1875.9116      1.4692944      3448.8073    
      4800   296.53276     -32107.684     -18830.775      1.4695057      3448.3113    
      4900   294.29424     -32110.428     -1034.0781      1.4697171      3447.8153    
      5000   296.24994     -32118.072     -5132.1433      1.4699286      3447.3193    
      5100   308.34222     -32130.145     -6645.6715      1.4701401      3446.8233    
      5200   288.56905     -32098.177      773.61873      1.4703517      3446.3272    
      5300   320.75073     -32100.73       13726.708      1.4705634      3445.8312    
      5400   313.53749     -32100.776      3787.6114      1.4707751      3445.3352    
      5500   295.75901     -32110.883     -50.449533      1.4709869      3444.8392    
      5600   314.57688     -32130.427     -110.98132      1.4711987      3444.3432    
      5700   310.80014     -32122.227     -5783.1038      1.4714106      3443.8472    
      5800   302.92856     -32101.355      4717.2053      1.4716225      3443.3511    
      5900   305.56804     -32089.986     -5481.4736      1.4718346      3442.8551    
      6000   326.92272     -32095.708      354.21721      1.4720466      3442.3591    
      6100   317.38974     -32108.39      -3521.6811      1.4722588      3441.8631    
      6200   304.5303      -32121.131      352.55253      1.472471       3441.3671    
      6300   291.62094     -32119.04      -1221.7145      1.4726832      3440.8711    
      6400   310.80103     -32132.418     -13518.301      1.4728956      3440.375     
      6500   310.79752     -32114.168     -1238.741       1.473108       3439.879     
      6600   311.4661      -32100.21       4986.7525      1.4733204      3439.383     
      6700   296.41688     -32103.03      -7328.099       1.4735329      3438.887     
      6800   294.7499      -32128.43       181.44712      1.4737455      3438.391     
      6900   293.2742      -32129.139      2454.0398      1.4739581      3437.895     
      7000   328.69097     -32152.006     -3679.2569      1.4741708      3437.3989    
Loop time of 272.408 on 8 procs for 7000 steps with 274 atoms

Performance: 1.110 ns/day, 21.620 hours/ns, 25.697 timesteps/s, 7.041 katom-step/s
98.9% CPU use with 8 MPI tasks x 1 OpenMP threads

MPI task timing breakdown:
Section |  min time  |  avg time  |  max time  |%varavg| %total
---------------------------------------------------------------
Pair    | 156.06     | 208.14     | 229.14     | 187.3 | 76.41
Bond    | 0.019358   | 0.020571   | 0.021885   |   0.7 |  0.01
Neigh   | 11.06      | 14.58      | 15.781     |  44.7 |  5.35
Comm    | 3.7824     | 24.807     | 76.914     | 543.1 |  9.11
Output  | 0.019928   | 0.022786   | 0.025253   |   1.3 |  0.01
Modify  | 23.501     | 24.675     | 28.183     |  34.1 |  9.06
Other   |            | 0.1576     |            |       |  0.06

Nlocal:          34.25 ave          43 max          26 min
Histogram: 2 1 0 0 1 0 1 1 0 2
Nghost:        2813.88 ave        2844 max        2794 min
Histogram: 1 2 0 0 3 0 1 0 0 1
Neighs:        19118.8 ave       23622 max       14748 min
Histogram: 3 0 0 0 1 0 1 1 0 2

Total # of neighbors = 152950
Ave neighs/atom = 558.21168
Ave special neighs/atom = 0
Neighbor list builds = 700
Dangerous builds not checked
OMP_NUM_THREADS environment is not set. Defaulting to 1 thread. (src/comm.cpp:98)
  using 1 OpenMP thread(s) per MPI task
Reading restart file ...
  restart file = 2 Aug 2023, LAMMPS = 2 Aug 2023
  restoring atom style full from restart
  triclinic box = (0 0 0) to (16.8189 12.842 16.0755) with tilt (-8.3798 1.195 0.4312)
WARNING: Triclinic box skew is large. LAMMPS will run inefficiently. (src/domain.cpp:220)
  2 by 2 by 2 MPI processor grid
  pair style reaxff stores no restart info
  274 atoms
Finding 1-2 1-3 1-4 neighbors ...
  special bond factors lj:    0        0        0       
  special bond factors coul:  0        0        0       
     0 = max # of 1-2 neighbors
     0 = max # of 1-3 neighbors
     0 = max # of 1-4 neighbors
     1 = max # of special neighbors
  special bonds CPU = 0.000 seconds
  read_restart CPU = 0.004 seconds
*****Positive-deform 1 starts.*****
Resetting global fix info from restart file:
  fix style: nvt, fix ID: fnvt
All restart file global fix info was re-assigned
Neighbor list info ...
  update: every = 10 steps, delay = 0 steps, check = no
  max neighbors/atom: 2000, page size: 100000
  master list distance cutoff = 12
  ghost atom cutoff = 12
  binsize = 6, bins = 5 3 3
  2 neighbor lists, perpetual/occasional/extra = 2 0 0
  (1) pair reaxff, perpetual
      attributes: half, newton off, ghost
      pair build: half/bin/newtoff/ghost
      stencil: full/ghost/bin/3d
      bin: standard
  (2) fix qeq/reaxff, perpetual, copy from (1)
      attributes: half, newton off
      pair build: copy
      stencil: none
      bin: none
Setting up Verlet run ...
  Unit style    : real
  Current step  : 0
  Time step     : 0.5
Per MPI rank memory allocation (min/avg/max) = 109.5 | 110 | 110.5 Mbytes
   Step          Temp          PotEng         Press         Density         Volume    
         0   290.24417     -32099.671      5197.9179      1.4594291      3472.1201    
       100   262.05278     -32083.043     -12352.471      1.4592206      3472.6162    
       200   304.27021     -32097.165     -1837.1364      1.4590122      3473.1122    
       300   298.38747     -32072.987     -8247.2103      1.4588039      3473.6082    
       400   305.14225     -32079.204     -2483.7485      1.4585956      3474.1042    
       500   304.71045     -32089.899     -10213.879      1.4583874      3474.6002    
       600   304.16475     -32094.232     -3865.0712      1.4581792      3475.0962    
       700   295.71856     -32089.663     -25285.646      1.4579711      3475.5923    
       800   309.51673     -32091.293     -12071.978      1.4577631      3476.0883    
       900   293.55208     -32050.318     -4020.9658      1.4575551      3476.5843    
      1000   331.07044     -32084.248     -10311.725      1.4573472      3477.0803    
      1100   276.67573     -32067.233      1018.9402      1.4571393      3477.5763    
      1200   304.44351     -32101.396     -6335.0866      1.4569315      3478.0723    
      1300   278.61091     -32082.739     -6446.4703      1.4567238      3478.5684    
      1400   299.22263     -32090.429     -6164.6228      1.4565161      3479.0644    
      1500   296.10198     -32056.195     -4158.6911      1.4563084      3479.5604    
      1600   319.26407     -32064.411     -9110.1567      1.4561009      3480.0564    
      1700   307.09515     -32074.851     -6720.8115      1.4558934      3480.5524    
      1800   293.18577     -32081.453     -3712.0708      1.4556859      3481.0484    
      1900   313.36014     -32101.989     -7565.7242      1.4554785      3481.5445    
      2000   277.05062     -32081.327     -875.74658      1.4552712      3482.0405    
      2100   285.19324     -32082.031     -5859.8475      1.4550639      3482.5365    
      2200   296.88454     -32060.742     -2478.7018      1.4548567      3483.0325    
      2300   320.36146     -32079.347     -2832.8084      1.4546495      3483.5285    
      2400   291.72993     -32068.689     -8645.8537      1.4544424      3484.0246    
      2500   300.30691     -32099.406     -4540.0682      1.4542354      3484.5206    
      2600   266.96285     -32093.908     -13438.178      1.4540284      3485.0166    
      2700   299.00863     -32111.386     -4741.4861      1.4538215      3485.5126    
      2800   309.69406     -32103.894     -8339.5282      1.4536146      3486.0086    
      2900   301.18755     -32086.352     -7377.3282      1.4534078      3486.5046    
      3000   319.0437      -32088.475     -13812.6        1.4532011      3487.0007    
      3100   317.21443     -32073.123      2078.6584      1.4529944      3487.4967    
      3200   315.16144     -32060.878      1030.8989      1.4527878      3487.9927    
      3300   302.37561     -32076.671     -8670.7844      1.4525812      3488.4887    
      3400   285.01559     -32080.559     -2567.866       1.4523747      3488.9847    
      3500   276.8754      -32079.047     -3729.3951      1.4521683      3489.4807    
      3600   292.53493     -32085.92      -5331.6668      1.4519619      3489.9768    
      3700   296.54932     -32056.766     -1260.6986      1.4517555      3490.4728    
      3800   333.86827     -32079.263     -7009.9135      1.4515493      3490.9688    
      3900   312.43556     -32081.432     -14967.994      1.451343       3491.4648    
      4000   290.28633     -32077.17      -6748.1132      1.4511369      3491.9608    
      4100   313.70864     -32093.422     -11956.482      1.4509308      3492.4568    
      4200   292.85672     -32081.725     -85.90144       1.4507247      3492.9529    
      4300   289.53688     -32095.178     -14773.938      1.4505188      3493.4489    
      4400   279.01229     -32096.076      1324.1839      1.4503128      3493.9449    
      4500   303.91445     -32091.851     -17086.518      1.450107       3494.4409    
      4600   297.05829     -32069.604     -20662.939      1.4499012      3494.9369    
      4700   297.13504     -32066.692     -3145.5329      1.4496954      3495.4329    
      4800   280.47361     -32063.056     -8456.9121      1.4494897      3495.929     
      4900   294.12254     -32086.199     -9544.6338      1.4492841      3496.425     
      5000   263.13881     -32084.16      -8595.2952      1.4490785      3496.921     
      5100   283.73497     -32092.6       -15022.471      1.448873       3497.417     
      5200   301.99346     -32083.064     -7295.5519      1.4486676      3497.913     
      5300   291.28511     -32061.801     -1576.747       1.4484622      3498.409     
      5400   288.50873     -32066.412     -4218.726       1.4482568      3498.9051    
      5500   294.62796     -32079.779     -3139.896       1.4480515      3499.4011    
      5600   303.17198     -32101.17      -1993.8724      1.4478463      3499.8971    
      5700   287.31881     -32117.612     -14603.56       1.4476412      3500.3931    
      5800   284.04455     -32110.83      -14039.357      1.4474361      3500.8891    
      5900   310.63007     -32109.324     -13149.24       1.447231       3501.3852    
      6000   295.3602      -32087.157     -7570.0702      1.447026       3501.8812    
      6100   299.26796     -32084.203     -10468.194      1.4468211      3502.3772    
      6200   305.94564     -32083.919      3382.1722      1.4466162      3502.8732    
      6300   314.15975     -32106.815     -9612.0407      1.4464114      3503.3692    
      6400   302.84716     -32121.099     -8821.5234      1.4462066      3503.8652    
      6500   296.36841     -32114.003     -1700.9004      1.4460019      3504.3613    
      6600   298.69879     -32090.166     -515.92845      1.4457973      3504.8573    
      6700   312.42698     -32088.788     -4725.4828      1.4455927      3505.3533    
      6800   316.04272     -32096.468      5012.6927      1.4453882      3505.8493    
      6900   282.49038     -32080.465     -9411.9158      1.4451837      3506.3453    
      7000   280.05415     -32098.284     -7808.3842      1.4449793      3506.8413    
Loop time of 270.984 on 8 procs for 7000 steps with 274 atoms

Performance: 1.116 ns/day, 21.507 hours/ns, 25.832 timesteps/s, 7.078 katom-step/s
98.8% CPU use with 8 MPI tasks x 1 OpenMP threads

MPI task timing breakdown:
Section |  min time  |  avg time  |  max time  |%varavg| %total
---------------------------------------------------------------
Pair    | 151.08     | 205.96     | 227.59     | 198.0 | 76.01
Bond    | 0.019196   | 0.020428   | 0.021655   |   0.7 |  0.01
Neigh   | 11.015     | 14.476     | 15.721     |  48.6 |  5.34
Comm    | 3.8194     | 25.464     | 80.386     | 563.4 |  9.40
Output  | 0.01966    | 0.022491   | 0.025019   |   1.3 |  0.01
Modify  | 23.647     | 24.876     | 28.308     |  36.9 |  9.18
Other   |            | 0.1611     |            |       |  0.06

Nlocal:          34.25 ave          43 max          25 min
Histogram: 2 0 1 0 0 0 3 0 0 2
Nghost:        2814.12 ave        2843 max        2791 min
Histogram: 2 0 1 1 1 1 0 0 0 2
Neighs:        18751.2 ave       23245 max       13970 min
Histogram: 2 0 1 0 0 0 3 0 0 2

Total # of neighbors = 150010
Ave neighs/atom = 547.48175
Ave special neighs/atom = 0
Neighbor list builds = 700
Dangerous builds not checked
OMP_NUM_THREADS environment is not set. Defaulting to 1 thread. (src/comm.cpp:98)
  using 1 OpenMP thread(s) per MPI task
Reading restart file ...
  restart file = 2 Aug 2023, LAMMPS = 2 Aug 2023
  restoring atom style full from restart
  triclinic box = (0 0 0) to (16.8189 12.842 16.0755) with tilt (-8.3798 1.195 0.4312)
WARNING: Triclinic box skew is large. LAMMPS will run inefficiently. (src/domain.cpp:220)
  2 by 2 by 2 MPI processor grid
  pair style reaxff stores no restart info
  274 atoms
Finding 1-2 1-3 1-4 neighbors ...
  special bond factors lj:    0        0        0       
  special bond factors coul:  0        0        0       
     0 = max # of 1-2 neighbors
     0 = max # of 1-3 neighbors
     0 = max # of 1-4 neighbors
     1 = max # of special neighbors
  special bonds CPU = 0.000 seconds
  read_restart CPU = 0.005 seconds
*****debug*****
xy = -8.3797999999999994714, deltaxy = 0.083798
xz = 1.1950000000000000622, deltaxz = -0.01195
yz = 0.43120000000000002771, deltayz = -0.004312
*****
*****Negative-deform 2 starts.*****
Resetting global fix info from restart file:
  fix style: nvt, fix ID: fnvt
All restart file global fix info was re-assigned
Neighbor list info ...
  update: every = 10 steps, delay = 0 steps, check = no
  max neighbors/atom: 2000, page size: 100000
  master list distance cutoff = 12
  ghost atom cutoff = 12
  binsize = 6, bins = 5 3 3
  2 neighbor lists, perpetual/occasional/extra = 2 0 0
  (1) pair reaxff, perpetual
      attributes: half, newton off, ghost
      pair build: half/bin/newtoff/ghost
      stencil: full/ghost/bin/3d
      bin: standard
  (2) fix qeq/reaxff, perpetual, copy from (1)
      attributes: half, newton off
      pair build: copy
      stencil: none
      bin: none
Setting up Verlet run ...
  Unit style    : real
  Current step  : 0
  Time step     : 0.5
Per MPI rank memory allocation (min/avg/max) = 109.5 | 110 | 110.5 Mbytes
   Step          Temp          PotEng         Press         Density         Volume    
         0   290.24417     -32099.671      5197.9179      1.4594291      3472.1201    
       100   262.06835     -32083.027     -12355.324      1.4596376      3471.6241    
       200   303.94635     -32097.318     -1916.0347      1.4598462      3471.1281    
       300   299.92636     -32074.505     -8473.2478      1.4600548      3470.6321    
       400   298.52289     -32073.898      2631.4079      1.4602635      3470.1361    
       500   299.29762     -32085.463     -7956.8178      1.4604723      3469.6401    
       600   287.87153     -32081.224     -2811.4709      1.4606811      3469.144     
       700   310.19598     -32099.897     -10772.342      1.46089        3468.648     
       800   290.56622     -32077.329     -11331.872      1.4610989      3468.152     
       900   329.92857     -32081.332     -7760.0191      1.4613079      3467.656     
      1000   318.7456      -32072.34      -7257.2619      1.461517       3467.16      
      1100   301.86338     -32082.945     -7748.9467      1.4617261      3466.6639    
      1200   296.654       -32094.816     -9760.1737      1.4619353      3466.1679    
      1300   282.21791     -32091.159      10313.807      1.4621445      3465.6719    
      1400   287.06936     -32088.79      -1272.7643      1.4623538      3465.1759    
      1500   321.50141     -32081.654     -11294.138      1.4625632      3464.6799    
      1600   310.65925     -32072.094     -5348.6513      1.4627726      3464.1839    
      1700   296.13605     -32083.235      4584.6944      1.4629821      3463.6878    
      1800   289.35927     -32085.745      7681.7124      1.4631916      3463.1918    
      1900   304.1394      -32101.216     -2583.6442      1.4634012      3462.6958    
      2000   304.84985     -32095.146     -1388.672       1.4636108      3462.1998    
      2100   316.30376     -32080.471     -20539.308      1.4638206      3461.7038    
      2200   321.65064     -32077.677     -4507.1224      1.4640303      3461.2078    
      2300   299.79558     -32089.553     -5338.7179      1.4642402      3460.7117    
      2400   308.25964     -32111.036     -14400.782      1.4644501      3460.2157    
      2500   311.70597     -32120.905     -7998.7517      1.46466        3459.7197    
      2600   311.15823     -32112.972     -1414.3241      1.46487        3459.2237    
      2700   326.96433     -32101.307      3583.069       1.4650801      3458.7277    
      2800   340.00889     -32101.464     -9628.3474      1.4652903      3458.2317    
      2900   301.22867     -32103.386     -694.88185      1.4655005      3457.7356    
      3000   310.65199     -32122.746     -2864.6788      1.4657107      3457.2396    
      3100   305.15221     -32122.383     -770.68772      1.465921       3456.7436    
      3200   280.72913     -32106.015     -15711.963      1.4661314      3456.2476    
      3300   305.41264     -32104.654     -8951.6863      1.4663419      3455.7516    
      3400   324.53002     -32103.02       5476.0761      1.4665524      3455.2556    
      3500   309.02434     -32103.886      6361.5646      1.4667629      3454.7595    
      3600   269.19087     -32090.932     -12188.128      1.4669735      3454.2635    
      3700   289.80628     -32108.048     -5553.1826      1.4671842      3453.7675    
      3800   298.09547     -32111.728     -17063.64       1.467395       3453.2715    
      3900   300.77458     -32117.538     -5539.9953      1.4676058      3452.7755    
      4000   291.37084     -32129.054      124.97035      1.4678166      3452.2795    
      4100   283.49078     -32136.49       6115.1377      1.4680275      3451.7834    
      4200   295.26702     -32129.635      190.05699      1.4682385      3451.2874    
      4300   302.95517     -32107.117     -8519.461       1.4684496      3450.7914    
      4400   312.097       -32106.215     -1834.203       1.4686607      3450.2954    
      4500   314.43821     -32105.104      4358.4017      1.4688718      3449.7994    
      4600   286.87542     -32104.594     -10648.813      1.4690831      3449.3033    
      4700   293.62285     -32127.7       -4661.9417      1.4692944      3448.8073    
      4800   293.11104     -32130.4       -10216.15       1.4695057      3448.3113    
      4900   286.71346     -32126.23      -7361.1087      1.4697171      3447.8153    
      5000   321.48865     -32140.914      6208.0889      1.4699286      3447.3193    
      5100   338.71337     -32130.707      7173.0178      1.4701401      3446.8233    
      5200   290.90631     -32113.031     -15525.237      1.4703517      3446.3272    
      5300   302.52817     -32137.971     -5247.4269      1.4705634      3445.8312    
      5400   282.59862     -32131.379      7505.7157      1.4707751      3445.3352    
      5500   289.30929     -32125.259      9581.4845      1.4709869      3444.8392    
      5600   322.13773     -32124.946     -10532.384      1.4711987      3444.3432    
      5700   292.46064     -32101.353     -5658.268       1.4714106      3443.8472    
      5800   282.63057     -32129.573     -9685.3444      1.4716225      3443.3511    
      5900   297.22002     -32146.32      -2191.9508      1.4718346      3442.8551    
      6000   314.16433     -32155.435      12810.171      1.4720466      3442.3591    
      6100   308.36694     -32137.842     -5404.5105      1.4722588      3441.8631    
      6200   304.36442     -32104.4       -1653.4679      1.472471       3441.3671    
      6300   319.58098     -32114.893     -11060.319      1.4726832      3440.8711    
      6400   310.95164     -32131.759     -6622.589       1.4728956      3440.375     
      6500   309.92263     -32148.228     -6948.7405      1.473108       3439.879     
      6600   302.1096      -32151.289      2140.9087      1.4733204      3439.383     
      6700   294.02125     -32140.707      2574.9242      1.4735329      3438.887     
      6800   315.22662     -32146.951     -11331.05       1.4737455      3438.391     
      6900   329.25307     -32150.944      6874.0049      1.4739581      3437.895     
      7000   297.44659     -32140.54       4627.8506      1.4741708      3437.3989    
Loop time of 273.377 on 8 procs for 7000 steps with 274 atoms

Performance: 1.106 ns/day, 21.697 hours/ns, 25.606 timesteps/s, 7.016 katom-step/s
98.7% CPU use with 8 MPI tasks x 1 OpenMP threads

MPI task timing breakdown:
Section |  min time  |  avg time  |  max time  |%varavg| %total
---------------------------------------------------------------
Pair    | 210.44     | 222.6      | 230.33     |  42.5 | 81.42
Bond    | 0.017764   | 0.020603   | 0.022221   |   1.0 |  0.01
Neigh   | 15.129     | 15.749     | 16.515     |  10.1 |  5.76
Comm    | 2.9052     | 10.649     | 22.884     | 195.1 |  3.90
Output  | 0.021813   | 0.024789   | 0.0274     |   1.3 |  0.01
Modify  | 23.319     | 24.167     | 24.724     |   8.4 |  8.84
Other   |            | 0.1705     |            |       |  0.06

Nlocal:          34.25 ave          40 max          23 min
Histogram: 1 1 0 1 0 0 0 0 1 4
Nghost:        2854.25 ave        2873 max        2843 min
Histogram: 2 2 0 0 0 1 2 0 0 1
Neighs:        19150.9 ave       22277 max       13095 min
Histogram: 1 1 0 1 0 0 0 0 1 4

Total # of neighbors = 153207
Ave neighs/atom = 559.14964
Ave special neighs/atom = 0
Neighbor list builds = 700
Dangerous builds not checked
OMP_NUM_THREADS environment is not set. Defaulting to 1 thread. (src/comm.cpp:98)
  using 1 OpenMP thread(s) per MPI task
Reading restart file ...
  restart file = 2 Aug 2023, LAMMPS = 2 Aug 2023
  restoring atom style full from restart
  triclinic box = (0 0 0) to (16.8189 12.842 16.0755) with tilt (-8.3798 1.195 0.4312)
WARNING: Triclinic box skew is large. LAMMPS will run inefficiently. (src/domain.cpp:220)
  2 by 2 by 2 MPI processor grid
  pair style reaxff stores no restart info
  274 atoms
Finding 1-2 1-3 1-4 neighbors ...
  special bond factors lj:    0        0        0       
  special bond factors coul:  0        0        0       
     0 = max # of 1-2 neighbors
     0 = max # of 1-3 neighbors
     0 = max # of 1-4 neighbors
     1 = max # of special neighbors
  special bonds CPU = 0.000 seconds
  read_restart CPU = 0.003 seconds
*****Positive-deform 2 starts.*****
Resetting global fix info from restart file:
  fix style: nvt, fix ID: fnvt
All restart file global fix info was re-assigned
Neighbor list info ...
  update: every = 10 steps, delay = 0 steps, check = no
  max neighbors/atom: 2000, page size: 100000
  master list distance cutoff = 12
  ghost atom cutoff = 12
  binsize = 6, bins = 5 3 3
  2 neighbor lists, perpetual/occasional/extra = 2 0 0
  (1) pair reaxff, perpetual
      attributes: half, newton off, ghost
      pair build: half/bin/newtoff/ghost
      stencil: full/ghost/bin/3d
      bin: standard
  (2) fix qeq/reaxff, perpetual, copy from (1)
      attributes: half, newton off
      pair build: copy
      stencil: none
      bin: none
Setting up Verlet run ...
  Unit style    : real
  Current step  : 0
  Time step     : 0.5
Per MPI rank memory allocation (min/avg/max) = 109.5 | 110 | 110.5 Mbytes
   Step          Temp          PotEng         Press         Density         Volume    
         0   290.24417     -32099.671      5197.9179      1.4594291      3472.1201    
       100   262.06511     -32083.031     -12352.312      1.4592206      3472.6162    
       200   303.85516     -32096.926     -1146.8525      1.4590122      3473.1122    
       300   298.66629     -32073.363     -7830.707       1.4588039      3473.6082    
       400   299.07602     -32074.578      729.81279      1.4585956      3474.1042    
       500   306.77302     -32091.373     -9193.2917      1.4583874      3474.6002    
       600   297.18885     -32088.589     -2585.7899      1.4581792      3475.0962    
       700   301.19042     -32096.915     -12555.523      1.4579711      3475.5923    
       800   284.36257     -32083.929     -7864.199       1.4577631      3476.0883    
       900   275.47216     -32067.11       1928.0201      1.4575551      3476.5843    
      1000   323.42753     -32093.647     -3102.2719      1.4573472      3477.0803    
      1100   293.14254     -32065.832     -1328.6669      1.4571393      3477.5763    
      1200   310.73439     -32089.771     -5902.381       1.4569315      3478.0723    
      1300   289.40157     -32088.767     -14174.589      1.4567238      3478.5684    
      1400   315.61239     -32109.891      8225.4671      1.4565161      3479.0644    
      1500   303.16518     -32073.426     -6789.983       1.4563084      3479.5604    
      1600   323.36652     -32070.394     -10488.288      1.4561009      3480.0564    
      1700   321.27423     -32086.344     -3474.9089      1.4558934      3480.5524    
      1800   287.4014      -32079.236     -1320.4935      1.4556859      3481.0484    
      1900   288.37453     -32081.726     -2605.5394      1.4554785      3481.5445    
      2000   276.83997     -32067.516     -8130.5453      1.4552712      3482.0405    
      2100   311.09635     -32068.295     -800.68399      1.4550639      3482.5365    
      2200   314.29466     -32058.38      -335.203        1.4548567      3483.0325    
      2300   305.79184     -32067.333     -5176.5038      1.4546495      3483.5285    
      2400   305.73088     -32083.523     -11588.228      1.4544424      3484.0246    
      2500   308.98983     -32095.331     -8308.8441      1.4542354      3484.5206    
      2600   294.17994     -32097.33      -5245.8228      1.4540284      3485.0166    
      2700   279.82018     -32096.194      137.58614      1.4538215      3485.5126    
      2800   295.87146     -32091.862      975.64576      1.4536146      3486.0086    
      2900   320.609       -32080.29      -12838.406      1.4534078      3486.5046    
      3000   299.76418     -32076.15      -3367.2481      1.4532011      3487.0007    
      3100   299.09965     -32094.757     -891.4599       1.4529944      3487.4967    
      3200   287.85136     -32097.113     -7569.3144      1.4527878      3487.9927    
      3300   279.92186     -32086.771     -2207.4898      1.4525812      3488.4887    
      3400   302.78076     -32069.441     -15313.886      1.4523747      3488.9847    
      3500   325.1263      -32083.892     -1966.3946      1.4521683      3489.4807    
      3600   298.98595     -32081.728     -7692.7955      1.4519619      3489.9768    
      3700   295.45754     -32097.191     -1689.9275      1.4517555      3490.4728    
      3800   293.08661     -32101.305     -2993.7224      1.4515493      3490.9688    
      3900   286.11081     -32094.706     -2947.716       1.451343       3491.4648    
      4000   307.95115     -32089.106     -5248.0694      1.4511369      3491.9608    
      4100   338.50492     -32097.432     -120.19779      1.4509308      3492.4568    
      4200   302.81083     -32081.063      11583.566      1.4507247      3492.9529    
      4300   291.90778     -32093.935     -7299.6272      1.4505188      3493.4489    
      4400   286.50113     -32090.934     -1107.993       1.4503128      3493.9449    
      4500   299.04663     -32093.484      5302.6707      1.450107       3494.4409    
      4600   291.20635     -32086.61       4343.3203      1.4499012      3494.9369    
      4700   297.61043     -32100.031     -4324.4863      1.4496954      3495.4329    
      4800   271.44721     -32102.658     -9612.1843      1.4494897      3495.929     
      4900   268.63859     -32112.745     -1045.7479      1.4492841      3496.425     
      5000   286.44404     -32102.02       2310.9485      1.4490785      3496.921     
      5100   296.10598     -32089.842     -16195.726      1.448873       3497.417     
      5200   322.05043     -32109.304      2621.2382      1.4486676      3497.913     
      5300   320.64357     -32117.164      899.19127      1.4484622      3498.409     
      5400   283.77154     -32108.24      -15946.556      1.4482568      3498.9051    
      5500   301.48358     -32130.773     -4342.8242      1.4480515      3499.4011    
      5600   307.00271     -32126.731      302.23766      1.4478463      3499.8971    
      5700   293.39361     -32093.282      2141.7879      1.4476412      3500.3931    
      5800   325.46568     -32102.558     -7757.1452      1.4474361      3500.8891    
      5900   307.3622      -32095.467     -21850.009      1.447231       3501.3852    
      6000   287.02607     -32111.117      4650.6799      1.447026       3501.8812    
      6100   283.79729     -32112.471      519.85137      1.4468211      3502.3772    
      6200   292.24928     -32106.463     -13934.289      1.4466162      3502.8732    
      6300   315.43959     -32110.584     -6763.0739      1.4464114      3503.3692    
      6400   308.34834     -32109.178     -10488.154      1.4462066      3503.8652    
      6500   263.84579     -32108.793     -3557.7944      1.4460019      3504.3613    
      6600   280.61724     -32118.079     -4426.4049      1.4457973      3504.8573    
      6700   288.94822     -32106.266     -3469.913       1.4455927      3505.3533    
      6800   317.8746      -32120.287     -6394.5335      1.4453882      3505.8493    
      6900   298.37055     -32104.916     -10044.461      1.4451837      3506.3453    
      7000   324.04655     -32125.705     -11190.569      1.4449793      3506.8413    
Loop time of 270.48 on 8 procs for 7000 steps with 274 atoms

Performance: 1.118 ns/day, 21.467 hours/ns, 25.880 timesteps/s, 7.091 katom-step/s
98.8% CPU use with 8 MPI tasks x 1 OpenMP threads

MPI task timing breakdown:
Section |  min time  |  avg time  |  max time  |%varavg| %total
---------------------------------------------------------------
Pair    | 171.99     | 211.75     | 227.56     | 122.3 | 78.29
Bond    | 0.019679   | 0.020648   | 0.022248   |   0.6 |  0.01
Neigh   | 12.021     | 14.966     | 16.186     |  30.5 |  5.53
Comm    | 3.7485     | 19.566     | 59.296     | 402.3 |  7.23
Output  | 0.021408   | 0.024218   | 0.027049   |   1.3 |  0.01
Modify  | 22.789     | 23.988     | 26.971     |  24.3 |  8.87
Other   |            | 0.1655     |            |       |  0.06

Nlocal:          34.25 ave          42 max          23 min
Histogram: 1 0 0 2 0 0 1 2 1 1
Nghost:        2792.62 ave        2800 max        2779 min
Histogram: 1 0 0 0 1 0 2 1 1 2
Neighs:          18744 ave       22783 max       12824 min
Histogram: 1 0 0 2 0 0 1 2 1 1

Total # of neighbors = 149952
Ave neighs/atom = 547.27007
Ave special neighs/atom = 0
Neighbor list builds = 700
Dangerous builds not checked
OMP_NUM_THREADS environment is not set. Defaulting to 1 thread. (src/comm.cpp:98)
  using 1 OpenMP thread(s) per MPI task
Reading restart file ...
  restart file = 2 Aug 2023, LAMMPS = 2 Aug 2023
  restoring atom style full from restart
  triclinic box = (0 0 0) to (16.8189 12.842 16.0755) with tilt (-8.3798 1.195 0.4312)
WARNING: Triclinic box skew is large. LAMMPS will run inefficiently. (src/domain.cpp:220)
  2 by 2 by 2 MPI processor grid
  pair style reaxff stores no restart info
  274 atoms
Finding 1-2 1-3 1-4 neighbors ...
  special bond factors lj:    0        0        0       
  special bond factors coul:  0        0        0       
     0 = max # of 1-2 neighbors
     0 = max # of 1-3 neighbors
     0 = max # of 1-4 neighbors
     1 = max # of special neighbors
  special bonds CPU = 0.000 seconds
  read_restart CPU = 0.003 seconds
*****debug*****
xy = -8.3797999999999994714, deltaxy = 0.083798
xz = 1.1950000000000000622, deltaxz = -0.01195
yz = 0.43120000000000002771, deltayz = -0.004312
*****
*****Negative-deform 3 starts.*****
Resetting global fix info from restart file:
  fix style: nvt, fix ID: fnvt
All restart file global fix info was re-assigned
Neighbor list info ...
  update: every = 10 steps, delay = 0 steps, check = no
  max neighbors/atom: 2000, page size: 100000
  master list distance cutoff = 12
  ghost atom cutoff = 12
  binsize = 6, bins = 5 3 3
  2 neighbor lists, perpetual/occasional/extra = 2 0 0
  (1) pair reaxff, perpetual
      attributes: half, newton off, ghost
      pair build: half/bin/newtoff/ghost
      stencil: full/ghost/bin/3d
      bin: standard
  (2) fix qeq/reaxff, perpetual, copy from (1)
      attributes: half, newton off
      pair build: copy
      stencil: none
      bin: none
Setting up Verlet run ...
  Unit style    : real
  Current step  : 0
  Time step     : 0.5
Per MPI rank memory allocation (min/avg/max) = 109.5 | 110 | 110.5 Mbytes
   Step          Temp          PotEng         Press         Density         Volume    
         0   290.24417     -32099.671      5197.9179      1.4594291      3472.1201    
       100   262.06809     -32083.028     -12353.593      1.4596376      3471.6241    
       200   304.05497     -32097.123     -1699.9095      1.4598462      3471.1281    
       300   299.57055     -32073.88      -7542.1467      1.4600548      3470.6321    
       400   303.15305     -32078.201     -898.05965      1.4602635      3470.1361    
       500   293.94634     -32081.244     -8094.528       1.4604723      3469.6401    
       600   294.82081     -32086.447     -1481.3592      1.4606811      3469.144     
       700   294.13401     -32088.201     -27452.928      1.46089        3468.648     
       800   283.03562     -32071.359     -5622.7357      1.4610989      3468.152     
       900   306.84805     -32066.878     -7363.6534      1.4613079      3467.656     
      1000   312.7538      -32072.211     -4432.5266      1.461517       3467.16      
      1100   301.48856     -32089.002     -3553.9731      1.4617261      3466.6639    
      1200   314.89113     -32113.289     -11466.365      1.4619353      3466.1679    
      1300   282.6723      -32088.682     -6387.3813      1.4621445      3465.6719    
      1400   316.15944     -32095.078      875.091        1.4623538      3465.1759    
      1500   313.23779     -32062.837     -7843.1551      1.4625632      3464.6799    
      1600   320.0712      -32071.895     -9138.7588      1.4627726      3464.1839    
      1700   323.42054     -32092.269     -11627.418      1.4629821      3463.6878    
      1800   304.3388      -32097.14      -11130.768      1.4631916      3463.1918    
      1900   300.92873     -32101.068     -4120.7923      1.4634012      3462.6958    
      2000   282.38849     -32089.713     -10199.581      1.4636108      3462.1998    
      2100   307.62139     -32106.199      2359.7902      1.4638206      3461.7038    
      2200   312.95336     -32084.914     -5819.6915      1.4640303      3461.2078    
      2300   310.49518     -32070.134     -1023.4398      1.4642402      3460.7117    
      2400   316.98584     -32081.406     -1828.6554      1.4644501      3460.2157    
      2500   302.1855      -32102.973     -15098.001      1.46466        3459.7197    
      2600   286.88205     -32097.814     -4210.2888      1.46487        3459.2237    
      2700   290.37806     -32097.181     -4934.2958      1.4650801      3458.7277    
      2800   318.74793     -32108.17      -9901.6732      1.4652903      3458.2317    
      2900   292.27555     -32080.303     -12132.595      1.4655005      3457.7356    
      3000   337.19786     -32113.851     -845.57572      1.4657107      3457.2396    
      3100   307.30167     -32109.584     -9467.1518      1.465921       3456.7436    
      3200   273.68947     -32099.258     -7012.6089      1.4661314      3456.2476    
      3300   280.25047     -32099.714     -13829.98       1.4663419      3455.7516    
      3400   308.90319     -32097.204     -4968.7346      1.4665524      3455.2556    
      3500   307.19995     -32083.81       7035.5957      1.4667629      3454.7595    
      3600   301.98346     -32082.999     -9650.9484      1.4669735      3454.2635    
      3700   310.24936     -32098.245     -8872.0487      1.4671842      3453.7675    
      3800   299.36786     -32100.009     -20343.009      1.467395       3453.2715    
      3900   303.10454     -32116.987     -1346.4121      1.4676058      3452.7755    
      4000   278.83543     -32112.514     -12794.973      1.4678166      3452.2795    
      4100   284.32574     -32121.307     -5825.3525      1.4680275      3451.7834    
      4200   281.95871     -32096.509     -18309.638      1.4682385      3451.2874    
      4300   304.16966     -32095.664     -9255.6835      1.4684496      3450.7914    
      4400   327.60324     -32108.349     -19978.782      1.4686607      3450.2954    
      4500   300.06838     -32100.497     -12423.065      1.4688718      3449.7994    
      4600   276.84267     -32112.39      -2808.5162      1.4690831      3449.3033    
      4700   309.25236     -32134.656     -4917.0566      1.4692944      3448.8073    
      4800   290.82151     -32110.335     -12282.1        1.4695057      3448.3113    
      4900   297.63064     -32095.204     -7983.8322      1.4697171      3447.8153    
      5000   330.90863     -32108.787     -5791.999       1.4699286      3447.3193    
      5100   291.85347     -32086.469     -11374.804      1.4701401      3446.8233    
      5200   298.08984     -32097.892     -7986.4781      1.4703517      3446.3272    
      5300   323.69371     -32121.818     -904.10929      1.4705634      3445.8312    
      5400   296.67489     -32101.78      -4159.5176      1.4707751      3445.3352    
      5500   290.59747     -32097.829     -2815.6079      1.4709869      3444.8392    
      5600   306.501       -32112.624     -7674.9164      1.4711987      3444.3432    
      5700   288.17723     -32103.488     -16799.002      1.4714106      3443.8472    
      5800   304.00526     -32105.689     -969.87234      1.4716225      3443.3511    
      5900   308.91721     -32085.86       2830.0698      1.4718346      3442.8551    
      6000   322.87992     -32087.37      -9592.3526      1.4720466      3442.3591    
      6100   312.98806     -32098.941     -3363.8699      1.4722588      3441.8631    
      6200   304.63738     -32106.25      -687.18259      1.472471       3441.3671    
      6300   303.28317     -32106.782     -4869.0094      1.4726832      3440.8711    
      6400   310.03595     -32120.289      4685.9968      1.4728956      3440.375     
      6500   308.27697     -32137.709      3205.7108      1.473108       3439.879     
      6600   299.38553     -32144.66      -9040.0226      1.4733204      3439.383     
      6700   302.43556     -32141.71      -6031.8503      1.4735329      3438.887     
      6800   309.46516     -32112.497     -11523.423      1.4737455      3438.391     
      6900   291.72924     -32090.822      2303.1971      1.4739581      3437.895     
      7000   321.73258     -32124.293      12109.858      1.4741708      3437.3989    
Loop time of 273.01 on 8 procs for 7000 steps with 274 atoms

Performance: 1.108 ns/day, 21.667 hours/ns, 25.640 timesteps/s, 7.025 katom-step/s
98.8% CPU use with 8 MPI tasks x 1 OpenMP threads

MPI task timing breakdown:
Section |  min time  |  avg time  |  max time  |%varavg| %total
---------------------------------------------------------------
Pair    | 191.82     | 218.73     | 229.92     |  78.6 | 80.12
Bond    | 0.018941   | 0.020075   | 0.021577   |   0.6 |  0.01
Neigh   | 13.257     | 15.368     | 15.852     |  20.7 |  5.63
Comm    | 3.349      | 14.542     | 41.418     | 304.7 |  5.33
Output  | 0.019881   | 0.022923   | 0.025685   |   1.4 |  0.01
Modify  | 23.696     | 24.164     | 26.321     |  16.8 |  8.85
Other   |            | 0.1612     |            |       |  0.06

Nlocal:          34.25 ave          44 max          27 min
Histogram: 2 1 0 0 1 2 0 1 0 1
Nghost:        2849.25 ave        2871 max        2836 min
Histogram: 2 1 1 0 2 0 1 0 0 1
Neighs:          19142 ave       24390 max       15125 min
Histogram: 2 1 0 0 1 2 0 1 0 1

Total # of neighbors = 153136
Ave neighs/atom = 558.89051
Ave special neighs/atom = 0
Neighbor list builds = 700
Dangerous builds not checked
OMP_NUM_THREADS environment is not set. Defaulting to 1 thread. (src/comm.cpp:98)
  using 1 OpenMP thread(s) per MPI task
Reading restart file ...
  restart file = 2 Aug 2023, LAMMPS = 2 Aug 2023
  restoring atom style full from restart
  triclinic box = (0 0 0) to (16.8189 12.842 16.0755) with tilt (-8.3798 1.195 0.4312)
WARNING: Triclinic box skew is large. LAMMPS will run inefficiently. (src/domain.cpp:220)
  2 by 2 by 2 MPI processor grid
  pair style reaxff stores no restart info
  274 atoms
Finding 1-2 1-3 1-4 neighbors ...
  special bond factors lj:    0        0        0       
  special bond factors coul:  0        0        0       
     0 = max # of 1-2 neighbors
     0 = max # of 1-3 neighbors
     0 = max # of 1-4 neighbors
     1 = max # of special neighbors
  special bonds CPU = 0.000 seconds
  read_restart CPU = 0.003 seconds
*****Positive-deform 3 starts.*****
Resetting global fix info from restart file:
  fix style: nvt, fix ID: fnvt
All restart file global fix info was re-assigned
Neighbor list info ...
  update: every = 10 steps, delay = 0 steps, check = no
  max neighbors/atom: 2000, page size: 100000
  master list distance cutoff = 12
  ghost atom cutoff = 12
  binsize = 6, bins = 5 3 3
  2 neighbor lists, perpetual/occasional/extra = 2 0 0
  (1) pair reaxff, perpetual
      attributes: half, newton off, ghost
      pair build: half/bin/newtoff/ghost
      stencil: full/ghost/bin/3d
      bin: standard
  (2) fix qeq/reaxff, perpetual, copy from (1)
      attributes: half, newton off
      pair build: copy
      stencil: none
      bin: none
Setting up Verlet run ...
  Unit style    : real
  Current step  : 0
  Time step     : 0.5
Per MPI rank memory allocation (min/avg/max) = 109.5 | 110 | 110.5 Mbytes
   Step          Temp          PotEng         Press         Density         Volume    
         0   290.24417     -32099.671      5197.9179      1.4594291      3472.1201    
       100   262.06647     -32083.03      -12351.749      1.4592206      3472.6162    
       200   304.2878      -32097.186     -1555.9812      1.4590122      3473.1122    
       300   298.83374     -32072.879     -9884.9932      1.4588039      3473.6082    
       400   300.90788     -32074.981     -770.18215      1.4585956      3474.1042    
       500   304.78843     -32089.837     -11195.963      1.4583874      3474.6002    
       600   296.07591     -32087.921     -3850.37        1.4581792      3475.0962    
       700   287.04682     -32081.134     -24940.053      1.4579711      3475.5923    
       800   304.54652     -32092.425     -15541.191      1.4577631      3476.0883    
       900   285.44307     -32075.043     -7949.8161      1.4575551      3476.5843    
      1000   290.71397     -32082.308     -14623.804      1.4573472      3477.0803    
      1100   309.69272     -32098.201     -1937.0497      1.4571393      3477.5763    
      1200   314.21641     -32105.627     -1222.5654      1.4569315      3478.0723    
      1300   296.21994     -32087.626     -862.61759      1.4567238      3478.5684    
      1400   296.12029     -32082.545     -10499.694      1.4565161      3479.0644    
      1500   304.21396     -32073.297     -10964.506      1.4563084      3479.5604    
      1600   315.78122     -32060.464     -1839.9719      1.4561009      3480.0564    
      1700   328.80769     -32081.47      -8868.5291      1.4558934      3480.5524    
      1800   293.57535     -32074.584     -1835.1353      1.4556859      3481.0484    
      1900   300.48782     -32084.373     -1511.6636      1.4554785      3481.5445    
      2000   282.88411     -32079.781     -19105.032      1.4552712      3482.0405    
      2100   280.306       -32090.2       -5898.4111      1.4550639      3482.5365    
      2200   288.48808     -32096.568     -3898.774       1.4548567      3483.0325    
      2300   273.8597      -32055.337     -5347.0717      1.4546495      3483.5285    
      2400   311.72234     -32073.503      2009.3538      1.4544424      3484.0246    
      2500   280.16468     -32058.905      1593.2397      1.4542354      3484.5206    
      2600   294.48972     -32084.254      5167.3693      1.4540284      3485.0166    
      2700   278.14636     -32090.289     -3357.9479      1.4538215      3485.5126    
      2800   281.52724     -32112.134     -6006.4374      1.4536146      3486.0086    
      2900   273.51365     -32092.354     -6331.7478      1.4534078      3486.5046    
      3000   295.6331      -32081.53      -10253.987      1.4532011      3487.0007    
      3100   296.57645     -32078.46      -5683.3691      1.4529944      3487.4967    
      3200   300.8957      -32082.328     -7726.753       1.4527878      3487.9927    
      3300   315.38308     -32087.475     -1203.8096      1.4525812      3488.4887    
      3400   284.76812     -32066.369     -13782.391      1.4523747      3488.9847    
      3500   294.80068     -32088.116      12105.613      1.4521683      3489.4807    
      3600   288.03184     -32096.922     -12252.053      1.4519619      3489.9768    
      3700   286.22009     -32086.523      2577.6447      1.4517555      3490.4728    
      3800   336.26513     -32096.988      2854.2463      1.4515493      3490.9688    
      3900   301.60265     -32069.519      4114.0052      1.451343       3491.4648    
      4000   299.94014     -32084.561     -8145.0337      1.4511369      3491.9608    
      4100   309.03997     -32108.862     -4889.9305      1.4509308      3492.4568    
      4200   323.07591     -32128.416      1729.8843      1.4507247      3492.9529    
      4300   292.61913     -32105.103     -10149.911      1.4505188      3493.4489    
      4400   294.18172     -32099.312     -6460.2388      1.4503128      3493.9449    
      4500   289.15314     -32078.994     -6837.6479      1.450107       3494.4409    
      4600   322.46699     -32092.917      1044.3814      1.4499012      3494.9369    
      4700   317.47669     -32094.724      1675.6952      1.4496954      3495.4329    
      4800   285.43745     -32090.022     -3701.2898      1.4494897      3495.929     
      4900   288.23375     -32110.208      3551.6276      1.4492841      3496.425     
      5000   277.89437     -32105.923     -6084.4861      1.4490785      3496.921     
      5100   302.00872     -32100.199     -3819.8431      1.448873       3497.417     
      5200   312.87543     -32093.284      14568.554      1.4486676      3497.913     
      5300   306.24498     -32095.29      -11678.621      1.4484622      3498.409     
      5400   271.5889      -32076.388      5642.5848      1.4482568      3498.9051    
      5500   297.8414      -32096.675     -3783.0257      1.4480515      3499.4011    
      5600   321.00311     -32102.526     -5233.5068      1.4478463      3499.8971    
      5700   308.75207     -32090.294     -16025.358      1.4476412      3500.3931    
      5800   315.50152     -32089.308     -7960.9069      1.4474361      3500.8891    
      5900   298.76106     -32080.368      4886.0541      1.447231       3501.3852    
      6000   307.55928     -32093.404     -2151.9733      1.447026       3501.8812    
      6100   270.05501     -32080.324     -9962.5971      1.4468211      3502.3772    
      6200   304.71295     -32110.445     -3650.6784      1.4466162      3502.8732    
      6300   296.96902     -32085.331     -4718.933       1.4464114      3503.3692    
      6400   318.99987     -32078.338     -6834.5734      1.4462066      3503.8652    
      6500   304.23734     -32069.353     -6913.5328      1.4460019      3504.3613    
      6600   324.53984     -32095.492     -4264.9491      1.4457973      3504.8573    
      6700   277.60862     -32086.205     -291.02004      1.4455927      3505.3533    
      6800   270.6471      -32098.06      -1243.6435      1.4453882      3505.8493    
      6900   285.21367     -32092.735      1517.5054      1.4451837      3506.3453    
      7000   297.43757     -32081.787     -6613.9775      1.4449793      3506.8413    
Loop time of 269.577 on 8 procs for 7000 steps with 274 atoms

Performance: 1.122 ns/day, 21.395 hours/ns, 25.967 timesteps/s, 7.115 katom-step/s
98.8% CPU use with 8 MPI tasks x 1 OpenMP threads

MPI task timing breakdown:
Section |  min time  |  avg time  |  max time  |%varavg| %total
---------------------------------------------------------------
Pair    | 157.25     | 208.8      | 227.52     | 158.1 | 77.46
Bond    | 0.019077   | 0.020441   | 0.022104   |   0.8 |  0.01
Neigh   | 11         | 14.648     | 15.668     |  39.7 |  5.43
Comm    | 3.1127     | 21.861     | 73.365     | 488.6 |  8.11
Output  | 0.020729   | 0.02341    | 0.025845   |   1.2 |  0.01
Modify  | 23.057     | 24.063     | 27.768     |  31.3 |  8.93
Other   |            | 0.1575     |            |       |  0.06

Nlocal:          34.25 ave          45 max          21 min
Histogram: 1 1 0 1 0 0 2 1 1 1
Nghost:        2799.88 ave        2821 max        2791 min
Histogram: 1 5 0 0 0 0 0 1 0 1
Neighs:        18737.5 ave       24306 max       11699 min
Histogram: 1 1 0 1 0 0 2 1 1 1

Total # of neighbors = 149900
Ave neighs/atom = 547.08029
Ave special neighs/atom = 0
Neighbor list builds = 700
Dangerous builds not checked
OMP_NUM_THREADS environment is not set. Defaulting to 1 thread. (src/comm.cpp:98)
  using 1 OpenMP thread(s) per MPI task
Reading restart file ...
  restart file = 2 Aug 2023, LAMMPS = 2 Aug 2023
  restoring atom style full from restart
  triclinic box = (0 0 0) to (16.8189 12.842 16.0755) with tilt (-8.3798 1.195 0.4312)
WARNING: Triclinic box skew is large. LAMMPS will run inefficiently. (src/domain.cpp:220)
  2 by 2 by 2 MPI processor grid
  pair style reaxff stores no restart info
  274 atoms
Finding 1-2 1-3 1-4 neighbors ...
  special bond factors lj:    0        0        0       
  special bond factors coul:  0        0        0       
     0 = max # of 1-2 neighbors
     0 = max # of 1-3 neighbors
     0 = max # of 1-4 neighbors
     1 = max # of special neighbors
  special bonds CPU = 0.000 seconds
  read_restart CPU = 0.004 seconds
*****debug*****
xy = -8.3797999999999994714, deltaxy = 0.083798
xz = 1.1950000000000000622, deltaxz = -0.01195
yz = 0.43120000000000002771, deltayz = -0.004312
*****
*****Negative-deform 4 starts.*****
Resetting global fix info from restart file:
  fix style: nvt, fix ID: fnvt
All restart file global fix info was re-assigned
Neighbor list info ...
  update: every = 10 steps, delay = 0 steps, check = no
  max neighbors/atom: 2000, page size: 100000
  master list distance cutoff = 12
  ghost atom cutoff = 12
  binsize = 6, bins = 5 3 3
  2 neighbor lists, perpetual/occasional/extra = 2 0 0
  (1) pair reaxff, perpetual
      attributes: half, newton off, ghost
      pair build: half/bin/newtoff/ghost
      stencil: full/ghost/bin/3d
      bin: standard
  (2) fix qeq/reaxff, perpetual, copy from (1)
      attributes: half, newton off
      pair build: copy
      stencil: none
      bin: none
Setting up Verlet run ...
  Unit style    : real
  Current step  : 0
  Time step     : 0.5
Per MPI rank memory allocation (min/avg/max) = 109.5 | 110 | 110.5 Mbytes
   Step          Temp          PotEng         Press         Density         Volume    
         0   290.24417     -32099.671      5197.9179      1.4594291      3472.1201    
       100   262.06526     -32083.023     -12354.915      1.4594291      3472.1201    
       200   303.83983     -32096.935     -1635.6964      1.4594291      3472.1201    
       300   300.87677     -32075.134     -10219.887      1.4594291      3472.1201    
       400   301.65613     -32076.325      1055.167       1.4594291      3472.1201    
       500   299.2098      -32085.124     -9398.6484      1.4594291      3472.1201    
       600   297.7716      -32088.93      -5684.7511      1.4594291      3472.1201    
       700   300.63152     -32092.439     -15069.81       1.4594291      3472.1201    
       800   314.39814     -32093.268     -3701.4551      1.4594291      3472.1201    
       900   307.44865     -32054.731      2117.3631      1.4594291      3472.1201    
      1000   339.15226     -32086.646     -6410.3872      1.4594291      3472.1201    
      1100   302.76476     -32085.256     -2400.0473      1.4594291      3472.1201    
      1200   291.94333     -32086.626      3200.9096      1.4594291      3472.1201    
      1300   295.06572     -32084.962      622.50369      1.4594291      3472.1201    
      1400   308.42183     -32074.601     -3317.764       1.4594291      3472.1201    
      1500   318.45943     -32055.736     -1705.1021      1.4594291      3472.1201    
      1600   313.82879     -32043.365     -6785.3268      1.4594291      3472.1201    
      1700   313.71076     -32085.445     -1212.902       1.4594291      3472.1201    
      1800   288.26523     -32080.668     -4541.0816      1.4594291      3472.1201    
      1900   285.47659     -32084.292      413.96853      1.4594291      3472.1201    
      2000   284.94674     -32088.673     -7264.833       1.4594291      3472.1201    
      2100   285.48883     -32086.138     -7725.5347      1.4594291      3472.1201    
      2200   323.31676     -32095.958     -4309.131       1.4594291      3472.1201    
      2300   298.47819     -32071.898     -5555.9843      1.4594291      3472.1201    
      2400   294.63112     -32077.375     -9061.3964      1.4594291      3472.1201    
      2500   300.03484     -32109.334     -12724.232      1.4594291      3472.1201    
      2600   273.61744     -32093.38      -16532.159      1.4594291      3472.1201    
      2700   305.40241     -32102.494     -10613.376      1.4594291      3472.1201    
      2800   295.35314     -32081.262     -7423.2215      1.4594291      3472.1201    
      2900   329.50424     -32079.083     -15705.898      1.4594291      3472.1201    
      3000   327.39332     -32060.82      -9304.4879      1.4594291      3472.1201    
      3100   317.62722     -32075.68       1222.1613      1.4594291      3472.1201    
      3200   314.73699     -32089.475     -9069.4009      1.4594291      3472.1201    
      3300   290.83009     -32089.636     -3072.4169      1.4594291      3472.1201    
      3400   299.43342     -32105.613     -6320.1103      1.4594291      3472.1201    
      3500   284.33833     -32094.247      2669.5635      1.4594291      3472.1201    
      3600   319.64824     -32091.583     -6001.5767      1.4594291      3472.1201    
      3700   317.22611     -32082.033     -13389.775      1.4594291      3472.1201    
      3800   289.20889     -32075.744     -5737.8827      1.4594291      3472.1201    
      3900   307.32647     -32101.791     -17551.511      1.4594291      3472.1201    
      4000   290.11938     -32088.662     -10458.366      1.4594291      3472.1201    
      4100   310.06353     -32099.575     -17035.895      1.4594291      3472.1201    
      4200   279.60949     -32070.224     -3469.6748      1.4594291      3472.1201    
      4300   318.5255      -32098.223     -7878.2929      1.4594291      3472.1201    
      4400   284.88393     -32088.895      3524.5349      1.4594291      3472.1201    
      4500   263.23312     -32100.063      6880.7989      1.4594291      3472.1201    
      4600   274.82789     -32100.614      1418.362       1.4594291      3472.1201    
      4700   302.24351     -32099.629     -779.24966      1.4594291      3472.1201    
      4800   295.77986     -32081.567     -6902.9757      1.4594291      3472.1201    
      4900   308.19394     -32093.334     -4730.5765      1.4594291      3472.1201    
      5000   294.67001     -32090.708     -1313.3832      1.4594291      3472.1201    
      5100   280.02262     -32103.704     -14865.013      1.4594291      3472.1201    
      5200   274.61334     -32107.287     -4923.0998      1.4594291      3472.1201    
      5300   283.30409     -32089.421      1171.9816      1.4594291      3472.1201    
      5400   279.43054     -32071.516     -12993.749      1.4594291      3472.1201    
      5500   305.97185     -32088.338      6286.4929      1.4594291      3472.1201    
      5600   287.50751     -32088.248     -6675.1852      1.4594291      3472.1201    
      5700   292.81355     -32106.971     -5803.3274      1.4594291      3472.1201    
      5800   288.45666     -32105.254     -16541.743      1.4594291      3472.1201    
      5900   312.17894     -32099.046      127.64776      1.4594291      3472.1201    
      6000   302.14547     -32074.467     -4310.2649      1.4594291      3472.1201    
      6100   314.77177     -32081.044     -3813.8609      1.4594291      3472.1201    
      6200   296.17941     -32092.692     -9056.5399      1.4594291      3472.1201    
      6300   282.80971     -32099.958     -9355.656       1.4594291      3472.1201    
      6400   294.09772     -32102.211      2231.7802      1.4594291      3472.1201    
      6500   322.89999     -32106.071     -4493.6175      1.4594291      3472.1201    
      6600   297.11215     -32075.984     -3554.8789      1.4594291      3472.1201    
      6700   322.33074     -32074.609     -260.22161      1.4594291      3472.1201    
      6800   310.84884     -32041.4       -15653.303      1.4594291      3472.1201    
      6900   335.68772     -32087.073     -1504.8736      1.4594291      3472.1201    
      7000   300.62785     -32080.71      -818.51322      1.4594291      3472.1201    
Loop time of 260.016 on 8 procs for 7000 steps with 274 atoms

Performance: 1.163 ns/day, 20.636 hours/ns, 26.921 timesteps/s, 7.376 katom-step/s
98.9% CPU use with 8 MPI tasks x 1 OpenMP threads

MPI task timing breakdown:
Section |  min time  |  avg time  |  max time  |%varavg| %total
---------------------------------------------------------------
Pair    | 152.32     | 194.61     | 218.24     | 162.9 | 74.84
Bond    | 0.018075   | 0.019035   | 0.019754   |   0.4 |  0.01
Neigh   | 11.058     | 14.318     | 15.648     |  43.9 |  5.51
Comm    | 2.785      | 26.413     | 68.659     | 442.1 | 10.16
Output  | 0.018661   | 0.021345   | 0.023672   |   1.2 |  0.01
Modify  | 23.134     | 24.485     | 27.801     |  34.0 |  9.42
Other   |            | 0.151      |            |       |  0.06

Nlocal:          34.25 ave          43 max          21 min
Histogram: 1 0 1 0 0 1 1 2 1 1
Nghost:           2834 ave        2859 max        2815 min
Histogram: 2 0 0 1 2 1 1 0 0 1
Neighs:        18924.4 ave       23543 max       11862 min
Histogram: 1 0 1 0 0 1 1 2 1 1

Total # of neighbors = 151395
Ave neighs/atom = 552.5365
Ave special neighs/atom = 0
Neighbor list builds = 700
Dangerous builds not checked
OMP_NUM_THREADS environment is not set. Defaulting to 1 thread. (src/comm.cpp:98)
  using 1 OpenMP thread(s) per MPI task
Reading restart file ...
  restart file = 2 Aug 2023, LAMMPS = 2 Aug 2023
  restoring atom style full from restart
  triclinic box = (0 0 0) to (16.8189 12.842 16.0755) with tilt (-8.3798 1.195 0.4312)
WARNING: Triclinic box skew is large. LAMMPS will run inefficiently. (src/domain.cpp:220)
  2 by 2 by 2 MPI processor grid
  pair style reaxff stores no restart info
  274 atoms
Finding 1-2 1-3 1-4 neighbors ...
  special bond factors lj:    0        0        0       
  special bond factors coul:  0        0        0       
     0 = max # of 1-2 neighbors
     0 = max # of 1-3 neighbors
     0 = max # of 1-4 neighbors
     1 = max # of special neighbors
  special bonds CPU = 0.000 seconds
  read_restart CPU = 0.003 seconds
*****Positive-deform 4 starts.*****
Resetting global fix info from restart file:
  fix style: nvt, fix ID: fnvt
All restart file global fix info was re-assigned
Neighbor list info ...
  update: every = 10 steps, delay = 0 steps, check = no
  max neighbors/atom: 2000, page size: 100000
  master list distance cutoff = 12
  ghost atom cutoff = 12
  binsize = 6, bins = 5 3 3
  2 neighbor lists, perpetual/occasional/extra = 2 0 0
  (1) pair reaxff, perpetual
      attributes: half, newton off, ghost
      pair build: half/bin/newtoff/ghost
      stencil: full/ghost/bin/3d
      bin: standard
  (2) fix qeq/reaxff, perpetual, copy from (1)
      attributes: half, newton off
      pair build: copy
      stencil: none
      bin: none
Setting up Verlet run ...
  Unit style    : real
  Current step  : 0
  Time step     : 0.5
Per MPI rank memory allocation (min/avg/max) = 109.5 | 110 | 110.5 Mbytes
   Step          Temp          PotEng         Press         Density         Volume    
         0   290.24417     -32099.671      5197.9179      1.4594291      3472.1201    
       100   262.0739      -32083.034     -12353.286      1.4594291      3472.1201    
       200   304.46086     -32097.293     -1689.0022      1.4594291      3472.1201    
       300   298.88932     -32073.205     -7695.7425      1.4594291      3472.1201    
       400   299.80652     -32074.416     -2866.9628      1.4594291      3472.1201    
       500   303.80575     -32088.752     -6820.1484      1.4594291      3472.1201    
       600   294.59636     -32086.309     -1066.8525      1.4594291      3472.1201    
       700   293.89474     -32086.338     -18846.562      1.4594291      3472.1201    
       800   291.36416     -32078.061     -11739.744      1.4594291      3472.1201    
       900   304.31347     -32056.947      5760.8155      1.4594291      3472.1201    
      1000   312.95185     -32056.674      699.33015      1.4594291      3472.1201    
      1100   307.01983     -32077.104     -3649.7426      1.4594291      3472.1201    
      1200   319.79997     -32103.49      -8699.8705      1.4594291      3472.1201    
[...]
      7000   304.44252     -32119.3       -4685.7417      1.4594291      3472.1201    
Loop time of 252.271 on 8 procs for 7000 steps with 274 atoms

Performance: 1.199 ns/day, 20.021 hours/ns, 27.748 timesteps/s, 7.603 katom-step/s
98.9% CPU use with 8 MPI tasks x 1 OpenMP threads

MPI task timing breakdown:
Section |  min time  |  avg time  |  max time  |%varavg| %total
---------------------------------------------------------------
Pair    | 139.47     | 181.47     | 210.03     | 212.3 | 71.93
Bond    | 0.016697   | 0.017724   | 0.018537   |   0.4 |  0.01
Neigh   | 11.085     | 13.964     | 15.846     |  59.3 |  5.54
Comm    | 3.008      | 31.603     | 73.605     | 508.6 | 12.53
Output  | 0.017697   | 0.020154   | 0.022259   |   1.2 |  0.01
Modify  | 23.173     | 25.049     | 27.965     |  44.8 |  9.93
Other   |            | 0.1487     |            |       |  0.06

Nlocal:          34.25 ave          43 max          25 min
Histogram: 1 1 1 0 0 1 1 1 1 1
Nghost:        2822.12 ave        2839 max        2813 min
Histogram: 2 2 1 0 0 1 1 0 0 1
Neighs:        18937.4 ave       23510 max       14060 min
Histogram: 1 1 1 0 0 1 1 1 1 1

Total # of neighbors = 151499
Ave neighs/atom = 552.91606
Ave special neighs/atom = 0
Neighbor list builds = 700
Dangerous builds not checked
OMP_NUM_THREADS environment is not set. Defaulting to 1 thread. (src/comm.cpp:98)
  using 1 OpenMP thread(s) per MPI task
Reading restart file ...
  restart file = 2 Aug 2023, LAMMPS = 2 Aug 2023
  restoring atom style full from restart
  triclinic box = (0 0 0) to (16.8189 12.842 16.0755) with tilt (-8.3798 1.195 0.4312)
WARNING: Triclinic box skew is large. LAMMPS will run inefficiently. (src/domain.cpp:220)
  2 by 2 by 2 MPI processor grid
  pair style reaxff stores no restart info
  274 atoms
Finding 1-2 1-3 1-4 neighbors ...
  special bond factors lj:    0        0        0       
  special bond factors coul:  0        0        0       
     0 = max # of 1-2 neighbors
     0 = max # of 1-3 neighbors
     0 = max # of 1-4 neighbors
     1 = max # of special neighbors
  special bonds CPU = 0.000 seconds
  read_restart CPU = 0.002 seconds
*****debug*****
xy = -8.3797999999999994714, deltaxy = 0.083798
xz = 1.1950000000000000622, deltaxz = -0.01195
yz = 0.43120000000000002771, deltayz = -0.004312
*****
*****Negative-deform 6 starts.*****
Resetting global fix info from restart file:
  fix style: nvt, fix ID: fnvt
All restart file global fix info was re-assigned
Neighbor list info ...
  update: every = 10 steps, delay = 0 steps, check = no
  max neighbors/atom: 2000, page size: 100000
  master list distance cutoff = 12
  ghost atom cutoff = 12
  binsize = 6, bins = 5 3 3
  2 neighbor lists, perpetual/occasional/extra = 2 0 0
  (1) pair reaxff, perpetual
      attributes: half, newton off, ghost
      pair build: half/bin/newtoff/ghost
      stencil: full/ghost/bin/3d
      bin: standard
  (2) fix qeq/reaxff, perpetual, copy from (1)
      attributes: half, newton off
      pair build: copy
      stencil: none
      bin: none
Setting up Verlet run ...
  Unit style    : real
  Current step  : 0
  Time step     : 0.5
Per MPI rank memory allocation (min/avg/max) = 109.5 | 110 | 110.5 Mbytes
   Step          Temp          PotEng         Press         Density         Volume    
         0   290.24417     -32099.671      5197.9179      1.4594291      3472.1201    
       100   262.06876     -32083.031     -12356.088      1.4594291      3472.1201    
       200   303.60735     -32096.891     -1914.922       1.4594291      3472.1201    
       300   296.8472      -32072.103     -8607.1647      1.4594291      3472.1201    
       400   298.84573     -32074.423     -1711.1457      1.4594291      3472.1201    
       500   304.78807     -32090.456     -6662.2715      1.4594291      3472.1201    
       600   291.50554     -32085.299      611.8424       1.4594291      3472.1201    
       700   289.75805     -32083.949     -18781.795      1.4594291      3472.1201    
       800   290.29088     -32079.493     -7914.4372      1.4594291      3472.1201    
       900   308.15977     -32075.929     -2967.0189      1.4594291      3472.1201    
      1000   310.36241     -32067.71      -6115.0051      1.4594291      3472.1201    
      1100   313.47238     -32084.685     -1867.812       1.4594291      3472.1201    
      1200   296.56608     -32093.856     -12511.421      1.4594291      3472.1201    
      1300   293.72212     -32102.763     -2407.9029      1.4594291      3472.1201    
      1400   289.28066     -32099.046     -9521.6963      1.4594291      3472.1201    
      1500   275.77898     -32070.438     -7611.1868      1.4594291      3472.1201    
      1600   335.96165     -32091.845     -5787.4573      1.4594291      3472.1201    
      1700   310.7106      -32079.196     -7460.7493      1.4594291      3472.1201    
      1800   284.66185     -32083.255     -2257.9081      1.4594291      3472.1201    
      1900   288.33543     -32091.609      1451.3452      1.4594291      3472.1201    
      2000   277.94255     -32078.864     -8328.952       1.4594291      3472.1201    
      2100   323.29728     -32089.06      -15511.013      1.4594291      3472.1201    
      2200   349.50304     -32095.08      -5908.3814      1.4594291      3472.1201    
      2300   314.14344     -32076.117     -4573.832       1.4594291      3472.1201    
      2400   294.50632     -32070.642     -17194.628      1.4594291      3472.1201    
      2500   286.19384     -32081.827      588.94763      1.4594291      3472.1201    
      2600   293.56766     -32103.864     -12438.192      1.4594291      3472.1201    
      2700   304.88058     -32112.006     -11457.506      1.4594291      3472.1201    
      2800   285.16756     -32083.184      3295.0579      1.4594291      3472.1201    
      2900   310.84781     -32072.395     -7382.7854      1.4594291      3472.1201    
      3000   287.58552     -32057.913     -4557.7264      1.4594291      3472.1201    
      3100   299.94653     -32089.784      3973.1799      1.4594291      3472.1201    
      3200   293.13241     -32100.324     -24506.181      1.4594291      3472.1201    
      3300   298.21451     -32104.118     -2220.0359      1.4594291      3472.1201    
      3400   293.99583     -32093.872     -640.2871       1.4594291      3472.1201    
      3500   285.00274     -32074.326     -1513.0294      1.4594291      3472.1201    
      3600   322.10127     -32098.699     -2034.4052      1.4594291      3472.1201    
      3700   294.10229     -32081.275     -761.03161      1.4594291      3472.1201    
      3800   303.55865     -32093.321     -7236.1907      1.4594291      3472.1201    
      3900   307.54952     -32092.056     -11362.074      1.4594291      3472.1201    
      4000   323.12838     -32074.657     -7405.7568      1.4594291      3472.1201    
      4100   325.14031     -32075.887     -8209.006       1.4594291      3472.1201    
      4200   306.28921     -32086.926     -5806.0363      1.4594291      3472.1201    
      4300   296.91061     -32086.962      3196.858       1.4594291      3472.1201    
      4400   290.09658     -32083.766     -18872.787      1.4594291      3472.1201    
      4500   317.09364     -32104.966     -14799.533      1.4594291      3472.1201    
      4600   289.36362     -32106.998     -11014.782      1.4594291      3472.1201    
      4700   281.27615     -32109.1        10087.335      1.4594291      3472.1201    
      4800   288.69906     -32094.584     -6263.0591      1.4594291      3472.1201    
      4900   315.84197     -32095.933     -6310.4577      1.4594291      3472.1201    
      5000   284.91714     -32071.913     -3599.4787      1.4594291      3472.1201    
      5100   299.6876      -32087.754     -9956.4552      1.4594291      3472.1201    
      5200   302.0355      -32099.085     -467.03486      1.4594291      3472.1201    
      5300   291.67401     -32113.949     -15133.086      1.4594291      3472.1201    
      5400   282.57855     -32111.518      2820.8448      1.4594291      3472.1201    
      5500   285.92647     -32085.562     -3561.6368      1.4594291      3472.1201    
      5600   309.37661     -32094.061     -8447.7564      1.4594291      3472.1201    
      5700   302.80959     -32086.7       -3546.5513      1.4594291      3472.1201    
      5800   311.76951     -32089.427     -3531.3515      1.4594291      3472.1201    
      5900   324.95143     -32104.707     -17290.665      1.4594291      3472.1201    
      6000   293.78799     -32102.697     -16915.15       1.4594291      3472.1201    
      6100   293.20941     -32110.567     -2518.9005      1.4594291      3472.1201    
      6200   297.26486     -32102.911     -8415.987       1.4594291      3472.1201    
      6300   316.06827     -32084.942     -9171.3766      1.4594291      3472.1201    
      6400   311.03714     -32089.266      3566.9056      1.4594291      3472.1201    
      6500   286.63652     -32088.431     -4578.1824      1.4594291      3472.1201    
      6600   293.23465     -32099.917     -8900.1219      1.4594291      3472.1201    
      6700   298.43065     -32097.012     -3420.9675      1.4594291      3472.1201    
      6800   308.32509     -32074.416     -3565.2705      1.4594291      3472.1201    
      6900   310.75253     -32059.798     -9344.4434      1.4594291      3472.1201    
      7000   319.95402     -32081.899     -6253.5134      1.4594291      3472.1201    
Loop time of 224.608 on 8 procs for 7000 steps with 274 atoms

Performance: 1.346 ns/day, 17.826 hours/ns, 31.165 timesteps/s, 8.539 katom-step/s
98.9% CPU use with 8 MPI tasks x 1 OpenMP threads

MPI task timing breakdown:
Section |  min time  |  avg time  |  max time  |%varavg| %total
---------------------------------------------------------------
Pair    | 127.73     | 147.07     | 187.9      | 181.2 | 65.48
Bond    | 0.015607   | 0.016719   | 0.017972   |   0.6 |  0.01
Neigh   | 11.004     | 12.24      | 15.605     |  55.0 |  5.45
Comm    | 1.8661     | 42.7       | 62.045     | 336.2 | 19.01
Output  | 0.014632   | 0.016628   | 0.018468   |   1.0 |  0.01
Modify  | 19.043     | 22.424     | 23.671     |  40.9 |  9.98
Other   |            | 0.1355     |            |       |  0.06

Nlocal:          34.25 ave          40 max          25 min
Histogram: 1 1 1 0 0 0 0 1 0 4
Nghost:        2814.62 ave        2849 max        2791 min
Histogram: 1 2 0 0 2 2 0 0 0 1
Neighs:        18944.2 ave       22126 max       13989 min
Histogram: 1 2 0 0 0 0 0 1 0 4

Total # of neighbors = 151554
Ave neighs/atom = 553.11679
Ave special neighs/atom = 0
Neighbor list builds = 700
Dangerous builds not checked
OMP_NUM_THREADS environment is not set. Defaulting to 1 thread. (src/comm.cpp:98)
  using 1 OpenMP thread(s) per MPI task
Reading restart file ...
  restart file = 2 Aug 2023, LAMMPS = 2 Aug 2023
  restoring atom style full from restart
  triclinic box = (0 0 0) to (16.8189 12.842 16.0755) with tilt (-8.3798 1.195 0.4312)
WARNING: Triclinic box skew is large. LAMMPS will run inefficiently. (src/domain.cpp:220)
  2 by 2 by 2 MPI processor grid
  pair style reaxff stores no restart info
  274 atoms
Finding 1-2 1-3 1-4 neighbors ...
  special bond factors lj:    0        0        0       
  special bond factors coul:  0        0        0       
     0 = max # of 1-2 neighbors
     0 = max # of 1-3 neighbors
     0 = max # of 1-4 neighbors
     1 = max # of special neighbors
  special bonds CPU = 0.000 seconds
  read_restart CPU = 0.002 seconds
*****Positive-deform 6 starts.*****
Resetting global fix info from restart file:
  fix style: nvt, fix ID: fnvt
All restart file global fix info was re-assigned
Neighbor list info ...
  update: every = 10 steps, delay = 0 steps, check = no
  max neighbors/atom: 2000, page size: 100000
  master list distance cutoff = 12
  ghost atom cutoff = 12
  binsize = 6, bins = 5 3 3
  2 neighbor lists, perpetual/occasional/extra = 2 0 0
  (1) pair reaxff, perpetual
      attributes: half, newton off, ghost
      pair build: half/bin/newtoff/ghost
      stencil: full/ghost/bin/3d
      bin: standard
  (2) fix qeq/reaxff, perpetual, copy from (1)
      attributes: half, newton off
      pair build: copy
      stencil: none
      bin: none
Setting up Verlet run ...
  Unit style    : real
  Current step  : 0
  Time step     : 0.5
Per MPI rank memory allocation (min/avg/max) = 109.5 | 110 | 110.5 Mbytes
   Step          Temp          PotEng         Press         Density         Volume    
         0   290.24417     -32099.671      5197.9179      1.4594291      3472.1201    
       100   262.07194     -32083.031     -12352.062      1.4594291      3472.1201    
       200   303.90119     -32096.934     -1428.4729      1.4594291      3472.1201    
       300   300.4778      -32074.444     -8625.4789      1.4594291      3472.1201    
       400   294.74427     -32070.617      658.88604      1.4594291      3472.1201    
       500   301.25494     -32086.789     -9850.6468      1.4594291      3472.1201    
       600   296.88878     -32088.555     -2974.6995      1.4594291      3472.1201    
       700   280.10099     -32080.281     -18634.33       1.4594291      3472.1201    
       800   300.21334     -32095.055     -8276.7698      1.4594291      3472.1201    
       900   305.87091     -32077.179     -900.36538      1.4594291      3472.1201    
      1000   323.52002     -32083.394     -10639.002      1.4594291      3472.1201    
      1100   293.76334     -32072.497     -7212.0577      1.4594291      3472.1201    
      1200   293.57264     -32095.826     -6938.7956      1.4594291      3472.1201    
      1300   291.57459     -32096.678     -10546.254      1.4594291      3472.1201    
      1400   321.12427     -32103.225     -4629.1736      1.4594291      3472.1201    
      1500   289.37836     -32063.316     -8090.2395      1.4594291      3472.1201    
      1600   338.22924     -32063.096      1960.6057      1.4594291      3472.1201    
      1700   329.81363     -32061.465     -5403.503       1.4594291      3472.1201    
      1800   308.17627     -32071.268     -191.79434      1.4594291      3472.1201    
      1900   300.73563     -32089.016     -3152.9769      1.4594291      3472.1201    
      2000   303.97577     -32102.381      931.88662      1.4594291      3472.1201    
      2100   283.08942     -32081.846     -8159.2173      1.4594291      3472.1201    
      2200   305.82786     -32073.325     -6362.4683      1.4594291      3472.1201    
      2300   322.8598      -32074.099     -16.956714      1.4594291      3472.1201    
      2400   302.82509     -32066.985      2162.9379      1.4594291      3472.1201    
      2500   295.78448     -32071.892     -10465.798      1.4594291      3472.1201    
      2600   295.85293     -32086.79      -4324.6576      1.4594291      3472.1201    
      2700   266.27509     -32091.231     -346.73927      1.4594291      3472.1201    
      2800   291.96302     -32102.229     -4435.747       1.4594291      3472.1201    
      2900   291.66202     -32087.964     -7798.784       1.4594291      3472.1201    
      3000   306.04547     -32088.038      12040.546      1.4594291      3472.1201    
      3100   291.42548     -32068.629     -105.23509      1.4594291      3472.1201    
      3200   310.09005     -32078.46      -6417.0118      1.4594291      3472.1201    
      3300   302.66552     -32094.616      11762.522      1.4594291      3472.1201    
      3400   289.77288     -32103.356     -2691.1089      1.4594291      3472.1201    
      3500   288.90083     -32093.002     -334.99988      1.4594291      3472.1201    
      3600   292.03517     -32072.024      6403.2834      1.4594291      3472.1201    
      3700   320.66984     -32084.263     -197.79799      1.4594291      3472.1201    
      3800   314.26145     -32080.429      3929.6103      1.4594291      3472.1201    
      3900   284.74939     -32071.375     -6993.29        1.4594291      3472.1201    
      4000   310.71277     -32104.465     -9586.7213      1.4594291      3472.1201    
      4100   286.51572     -32117.815     -10454.547      1.4594291      3472.1201    
      4200   280.0028      -32113.06      -9003.0987      1.4594291      3472.1201    
      4300   284.48865     -32102.186      6409.0566      1.4594291      3472.1201    
      4400   295.81288     -32099.121      3502.242       1.4594291      3472.1201    
      4500   304.98959     -32094.866      991.17943      1.4594291      3472.1201    
      4600   307.42294     -32084.862     -1417.2379      1.4594291      3472.1201    
      4700   334.54331     -32090.274     -4871.4092      1.4594291      3472.1201    
      4800   321.72924     -32067.073     -10429.799      1.4594291      3472.1201    
      4900   312.35383     -32070.861     -4729.2619      1.4594291      3472.1201    
      5000   298.58313     -32085.967      474.16335      1.4594291      3472.1201    
      5100   302.89275     -32098.243     -10192.519      1.4594291      3472.1201    
      5200   278.40083     -32078.091     -19504.92       1.4594291      3472.1201    
      5300   304.07756     -32080.443      5055.989       1.4594291      3472.1201    
      5400   321.96596     -32066.831     -6567.8223      1.4594291      3472.1201    
      5500   330.42815     -32079.018     -1018.7561      1.4594291      3472.1201    
      5600   304.65762     -32078.935     -2283.0656      1.4594291      3472.1201    
      5700   292.89147     -32078.324      151.01945      1.4594291      3472.1201    
      5800   312.82581     -32095.175     -5878.815       1.4594291      3472.1201    
      5900   301.11567     -32086.746     -11912.795      1.4594291      3472.1201    
      6000   278.25722     -32069.439     -10290.491      1.4594291      3472.1201    
      6100   305.72685     -32072.09       4924.5644      1.4594291      3472.1201    
      6200   325.58821     -32077.608     -7891.1312      1.4594291      3472.1201    
      6300   322.00181     -32099.491     -6711.794       1.4594291      3472.1201    
      6400   278.38072     -32082.025     -9001.0755      1.4594291      3472.1201    
      6500   298.92074     -32097.558     -13264.218      1.4594291      3472.1201    
      6600   299.21733     -32087.467     -5695.8126      1.4594291      3472.1201    
      6700   305.7063      -32070.7        185.16795      1.4594291      3472.1201    
      6800   312.13524     -32066.122     -11011.272      1.4594291      3472.1201    
      6900   310.01064     -32081.921     -7349.3796      1.4594291      3472.1201    
      7000   300.11479     -32101.703     -6647.7731      1.4594291      3472.1201    
Loop time of 226.358 on 8 procs for 7000 steps with 274 atoms

Performance: 1.336 ns/day, 17.965 hours/ns, 30.925 timesteps/s, 8.473 katom-step/s
98.9% CPU use with 8 MPI tasks x 1 OpenMP threads

MPI task timing breakdown:
Section |  min time  |  avg time  |  max time  |%varavg| %total
---------------------------------------------------------------
Pair    | 126.77     | 147.03     | 189.63     | 189.4 | 64.96
Bond    | 0.015305   | 0.016958   | 0.018383   |   0.8 |  0.01
Neigh   | 10.931     | 12.133     | 15.678     |  57.2 |  5.36
Comm    | 1.6393     | 44.234     | 64.494     | 345.2 | 19.54
Output  | 0.014406   | 0.016683   | 0.018633   |   1.1 |  0.01
Modify  | 19.214     | 22.789     | 24.013     |  42.0 | 10.07
Other   |            | 0.1372     |            |       |  0.06

Nlocal:          34.25 ave          45 max          25 min
Histogram: 2 0 1 0 0 2 1 1 0 1
Nghost:        2795.38 ave        2824 max        2779 min
Histogram: 2 0 3 1 0 0 0 0 1 1
Neighs:        18946.2 ave       24523 max       14028 min
Histogram: 2 0 1 0 0 2 1 1 0 1

Total # of neighbors = 151570
Ave neighs/atom = 553.17518
Ave special neighs/atom = 0
Neighbor list builds = 700
Dangerous builds not checked
Total wall time: 0:56:10
