ITEM: TIMESTEP
0
ITEM: NUMBER OF ATOMS
274
ITEM: BOX BOUNDS xy xz yz pp pp pp
-8.3797999999999995e+00 1.8013900000000000e+01 -8.3797999999999995e+00
0.0000000000000000e+00 1.3273200000000001e+01 1.1950000000000001e+00
0.0000000000000000e+00 1.6075500000000002e+01 4.3120000000000003e-01
ITEM: ATOMS id type q x y z
119 2 -0.00752243 7.56094 1.08809 5.23229
12 4 1.26263 -1.05672 6.2564 5.49774
7 4 1.16479 1.05606 2.32802 5.14415
9 4 1.26104 -0.476995 4.60121 1.88531
10 4 1.60452 0.32634 4.32262 7.36578
242 1 -0.659361 3.31885 0.672361 2.98819
21 4 0.794931 5.91587 1.4418 5.49188
26 4 1.28134 5.26117 4.49648 6.83159
41 1 -0.666569 1.07888 0.807425 6.33011
44 1 -0.666023 3.7639 4.03166 1.67874
55 3 -0.801177 1.08221 1.1628 1.22924
56 3 -0.846894 -0.266656 2.39059 4.3466
58 3 -0.775768 -1.7736 4.36409 2.86899
59 3 -0.869379 -0.0552413 3.56565 0.820396
243 2 0.154761 3.45123 1.82963 2.60701
61 3 -0.789507 1.28637 3.51965 6.0847
62 3 -0.85926 -0.841086 5.21923 6.69028
74 3 -0.783786 5.64293 0.418897 7.11798
78 3 -0.869022 0.610031 5.03655 2.98287
81 3 -0.772538 5.66418 2.96127 5.92567
84 3 -0.788841 2.81057 5.80917 4.20274
85 3 -0.805056 4.70164 5.67774 5.91606
113 2 0.105096 -1.58802 5.368 4.10952
111 2 0.0108412 2.43584 2.06953 4.09254
112 2 -0.0198496 -0.85755 6.00902 1.07987
5 4 1.34809 0.441621 2.17587 0.179553
118 2 -0.0107726 4.69382 0.915758 4.3356
24 4 1.28415 5.03905 4.87915 0.472272
222 3 -0.76475 6.53983 1.32574 1.19482
223 2 -0.0928813 6.51891 0.791639 3.80657
141 2 0.158248 3.74237 2.84005 1.72247
142 2 0.182535 2.74971 4.48619 1.4537
143 2 0.209199 4.23773 4.48634 2.63809
220 4 1.02869 7.00665 0.211834 2.16755
244 2 0.121136 2.99438 0.413039 4.10206
135 2 0.229628 0.981977 1.3426 7.37341
25 4 1.41583 1.31443 6.23552 3.65361
248 2 0.154238 2.7321 3.35553 0.13157
133 2 0.159316 2.02454 0.290912 6.22798
138 2 0.163108 1.39416 1.10598 12.6799
8 4 1.20513 1.87049 2.70022 11.0801
13 4 1.29943 0.557087 5.10228 12.4231
82 3 -0.833032 1.37351 5.19043 8.17435
20 4 1.24224 4.61283 2.81304 9.19617
23 4 1.29689 7.00733 2.89227 11.1406
99 3 -0.836849 8.05738 1.15606 8.35257
226 4 0.899992 3.79777 6.45537 15.098
42 1 -0.653316 2.39657 1.66618 12.5474
57 3 -0.798357 0.317641 2.1242 10.5239
63 3 -0.882075 -0.222108 4.18153 13.3587
64 3 -0.80876 1.9137 4.50162 11.8749
65 3 -0.835256 -2.29471 5.85929 9.62148
66 3 -0.847752 -0.286075 5.72537 11.2626
73 3 -0.761412 3.20399 2.45471 10.1224
75 3 -0.857176 5.7052 2.96424 10.3024
76 3 -0.863418 7.05392 1.57627 11.9313
80 3 -0.794373 4.5508 4.12082 8.26656
228 2 -0.00244515 2.7064 5.15697 15.4317
137 2 0.178384 3.30552 1.08036 12.0214
114 2 -0.0197666 1.06528 6.5527 13.2047
229 2 -0.0395984 3.71547 6.67048 13.3489
124 2 0.0572191 3.371 5.32055 12.0228
136 2 0.185079 2.71497 2.30142 13.4899
179 4 1.28954 7.59796 2.5296 15.6454
183 1 -0.658888 6.22656 1.37343 15.0462
77 3 -0.786205 7.13624 4.02229 15.8362
262 3 -0.827529 0.511704 2.09862 15.0849
196 2 0.169249 5.54254 2.10085 14.5233
117 2 0.0919086 5.03237 1.47101 8.20108
227 3 -0.816434 5.28859 6.08152 15.4858
195 2 0.281325 6.5733 0.538766 14.3651
245 1 -0.652061 3.19404 3.23584 15.2384
246 2 0.138905 3.22107 3.85239 14.3146
247 2 0.162005 3.58595 2.20035 14.9892
27 4 1.33921 1.7195 6.63762 8.75691
60 3 -0.866285 -0.352627 3.18633 8.22809
266 2 0.0820308 -1.81921 5.20395 15.7503
14 4 1.53625 -1.10779 6.69071 10.2929
197 2 0.204408 5.74275 0.920218 16.0115
265 2 0.186813 -4.37578 12.6628 2.43879
3 3 -0.778029 -6.01006 11.6493 0.933254
268 2 0.273918 -4.74148 9.32545 2.06825
16 4 1.42087 -3.24639 7.94689 6.66532
17 4 1.2147 -4.55305 9.85486 4.70904
154 2 0.167081 0.919266 9.57543 7.37447
161 2 0.195541 -1.00667 9.76971 0.38206
31 4 1.25293 -2.04543 10.1905 3.09161
33 4 1.12288 0.0998973 11.0251 5.4851
48 1 -0.657003 -1.24019 8.78784 2.13555
49 1 -0.650156 0.102916 9.47141 6.53327
69 3 -0.793663 -6.11152 10.1277 4.35945
68 3 -0.845413 -2.10122 7.43688 5.65295
271 2 0.148804 1.48393 10.3138 2.3709
70 3 -0.751857 -4.53853 8.50569 5.61138
79 3 -0.834499 0.392623 7.05147 4.95962
87 3 -0.788044 1.6964 7.41776 2.407
30 4 0.993731 2.32593 8.15941 1.14155
89 3 -0.73984 -2.00887 11.5648 1.94545
90 3 -0.858453 -3.56793 9.93463 3.4335
93 3 -0.812249 -0.91466 10.6536 4.29893
94 3 -0.826042 -0.263526 12.2141 6.57606
115 2 -0.0205655 -4.13621 11.1057 5.81295
147 2 0.201697 1.89188 7.39446 6.57072
151 2 0.194462 -0.141995 9.17713 1.82998
152 2 0.170853 -1.91518 8.445 1.27934
153 2 0.181306 -1.26672 7.95433 2.95836
251 1 -0.66234 -5.42075 8.92893 1.24941
155 2 0.285041 0.259154 8.52951 5.90591
156 2 0.280568 -0.968924 9.44867 6.99299
46 1 -0.681635 2.41727 7.86336 7.41555
148 2 0.170301 3.54906 7.62546 7.6034
272 2 0.17342 0.699129 10.0713 0.526387
19 4 1.35334 -1.18368 12.7824 7.74203
1 4 1.26058 -6.6418 12.7353 2.05056
28 4 1.23031 4.07048 6.64183 4.85755
91 3 -0.820798 -2.5867 9.51708 7.67241
149 2 0.161977 2.16254 8.95408 7.57492
47 1 -0.651845 1.67413 9.93179 1.2254
122 2 -0.00133078 3.46417 8.08834 5.73322
159 2 0.205894 1.45753 9.81473 11.0993
18 4 1.19168 -2.27796 8.40691 12.8261
22 4 1.29267 -0.66063 13.0041 12.0636
32 4 0.937105 -2.52968 10.437 8.9536
35 4 1.19038 -1.36833 10.7352 14.4225
15 4 1.02218 -4.18215 10.7797 16.028
160 2 0.17401 1.05023 10.2987 14.7787
50 1 -0.661899 2.15183 10.6483 11.3593
51 1 -0.645209 0.243927 10.7587 15.4272
162 2 0.200228 0.341664 11.8669 15.5647
72 3 -0.794616 -1.87379 8.02457 11.2481
83 3 -0.754663 0.000772791 7.29704 9.28019
88 3 -0.788833 3.18184 7.74064 15.749
92 3 -0.818315 -1.45198 11.5405 9.20907
95 3 -0.794543 3.67508 8.24454 11.8244
96 3 -0.768331 -1.09043 9.24724 13.5788
97 3 -0.824975 -1.22309 12.1854 13.1977
98 3 -0.801786 -2.71331 10.7437 15.3346
116 2 -0.0531796 -3.6409 9.44925 12.6017
120 2 0.0970231 -0.954537 12.1463 10.5933
126 2 0.0619462 -2.31778 9.4407 10.2962
127 2 -0.04668 -4.03198 11.1014 9.22848
128 2 0.0230242 2.24903 10.0965 13.2726
139 2 0.142084 -4.61929 10.5554 13.6291
71 3 -0.838405 -2.67628 7.06558 13.5362
158 2 0.242106 1.63647 11.6234 11.7091
140 2 0.153291 -5.86935 11.6419 14.609
29 4 0.939598 3.76627 6.7698 11.1284
86 3 -0.795297 2.80887 6.83066 9.89637
187 3 -0.813191 0.897262 13.1255 12.2742
235 2 0.162305 11.5707 1.50688 3.09056
37 4 1.23096 13.0125 1.87151 5.79771
225 2 0.127047 9.13659 0.305443 3.08673
39 4 1.38461 11.2092 3.82617 7.39292
45 1 -0.659284 6.93838 5.21097 7.43016
54 1 -0.625225 10.7037 5.32965 6.25443
101 3 -0.836608 14.024 2.88748 5.02834
102 3 -0.821957 13.8222 0.869233 6.88424
250 2 0.182919 11.559 4.60106 0.151995
4 4 1.47076 15.0551 2.70103 3.88577
106 3 -0.812786 11.772 2.67806 6.37064
232 3 -0.792722 14.4035 1.56826 2.79665
129 2 0.00456673 12.2728 0.865649 4.57956
130 2 0.063539 7.8616 5.84078 3.48594
234 2 0.177126 11.5018 0.305133 1.694
169 2 0.220885 11.6478 5.51815 5.68998
146 2 0.2005 7.69938 4.48114 6.98476
103 3 -0.807876 5.90122 5.83359 1.46404
145 2 0.16701 7.1062 6.24095 7.10138
170 2 0.197622 10.5603 6.29327 6.9494
171 2 0.173234 9.74029 5.08613 5.65614
231 1 -0.664041 11.7513 0.427595 2.75247
224 2 0.167218 9.05239 0.923204 1.26892
267 2 0.163839 12.3215 6.40426 0.17244
230 4 1.12356 13.7263 0.153585 2.49166
105 3 -0.799951 9.74843 3.3254 7.88217
134 2 0.239546 16.9794 0.183489 5.98643
11 4 1.42503 13.011 5.98955 8.92926
36 4 1.31073 9.04738 2.27509 9.00377
52 1 -0.665228 10.5409 1.49234 9.90941
177 2 0.174319 13.8918 0.813051 13.8277
100 3 -0.805997 8.35911 3.11969 10.2788
107 3 -0.834782 12.1873 4.29678 8.45903
110 2 0.011649 14.657 2.95272 10.0832
188 3 -0.816044 8.87492 1.97395 14.7243
202 2 0.172429 13.9608 3.82491 11.6085
163 2 0.196 11.3582 2.20163 10.2323
249 1 -0.637791 13.5816 5.74101 15.881
165 2 0.248223 10.0966 0.884322 10.8934
172 4 1.01172 16.2675 2.76772 14.1276
173 1 -0.631483 14.4871 1.76947 13.5703
174 2 0.0911881 14.5225 2.6343 14.7362
175 2 0.0541929 15.9632 1.23316 12.9791
176 2 0.162158 13.9296 2.33937 12.6155
164 2 0.151517 10.8437 0.740679 9.09292
178 4 1.1261 13.6948 5.67136 14.1657
180 4 1.26354 9.97817 1.40357 13.8252
181 4 1.31246 11.7681 3.91252 12.4939
205 2 0.192342 9.25066 5.42273 9.23729
185 1 -0.683199 12.9518 3.29586 11.0822
6 4 1.31402 16.0078 2.26724 9.37003
189 3 -0.769313 10.9909 2.52656 13.1809
190 3 -0.83869 12.854 4.55765 13.509
192 3 -0.784871 10.7661 4.98018 11.8066
263 3 -0.836424 15.5863 0.832632 8.90091
199 2 0.179213 12.0137 0.593333 14.6954
200 2 0.257312 12.6832 3.65114 9.98759
201 2 0.124209 12.8352 2.10651 11.3104
182 4 1.02366 10.6345 6.28509 10.7668
144 2 0.189257 6.86979 5.2152 8.56606
204 2 0.14923 8.05958 6.49611 10.4255
186 1 -0.662908 8.979 6.52159 9.77577
121 2 -0.0140666 6.89161 4.12559 12.308
123 2 -0.0488038 5.32982 6.37975 10.7197
233 2 0.17127 2.87273 12.464 3.41801
255 2 0.144795 1.9143 12.261 4.99435
167 2 0.1682 9.14349 7.56935 2.76479
53 1 -0.631236 8.09628 7.5603 3.22543
104 3 -0.832576 5.25917 7.16601 3.89435
237 1 -0.664481 7.6207 10.282 0.249878
125 2 -0.0142766 4.03859 8.14162 1.41704
150 2 0.134733 2.7154 10.3884 0.750336
166 2 0.0453545 7.17295 8.32184 2.07154
168 2 0.180959 8.0695 8.16375 4.15637
206 4 1.16066 9.19802 10.6002 3.8898
215 2 0.148641 5.29412 9.08197 7.24275
208 4 1.08259 7.4943 10.16 6.72392
209 1 -0.661957 6.09087 8.83975 6.44756
261 2 0.20315 5.98482 12.2786 4.90293
211 3 -0.756394 8.22612 10.5171 5.27338
212 3 -0.787005 6.84073 11.5071 7.40651
213 2 -0.0193363 8.54053 9.46825 2.86785
254 1 -0.671666 1.83338 11.1317 4.68343
216 2 0.169849 6.59222 7.87129 6.62787
217 2 0.18133 5.68704 8.97662 5.37275
219 2 0.201275 9.65692 9.58436 7.29426
252 2 0.149139 10.3298 8.96525 1.55482
257 2 0.140264 2.61678 10.4083 5.19353
238 3 -0.785477 5.74029 12.1985 1.03158
240 2 0.157032 7.9765 10.5232 1.33332
38 4 1.00235 6.30548 6.76303 2.75849
67 3 -0.855232 13.0193 6.80786 7.52663
258 1 -0.664784 5.586 11.7977 3.90562
259 2 0.170885 6.45984 11.097 3.51167
260 2 0.144319 4.6265 11.1611 4.09076
274 2 0.152894 8.70828 8.00769 7.59878
239 2 0.12091 6.77228 9.34788 0.186639
207 4 1.22999 6.19971 12.8471 8.02362
210 1 -0.655165 8.79016 9.12926 7.80659
2 3 -0.786603 9.10891 12.0769 3.21963
221 1 -0.657851 0.452079 12.8618 1.96398
270 2 0.186777 0.960756 11.8781 1.63717
253 2 0.158719 11.6666 7.95083 0.769094
256 2 0.160955 1.61864 10.9223 3.57928
198 2 0.162118 2.25171 12.1133 14.3896
40 4 0.899521 6.16957 11.5415 13.0087
108 3 -0.819424 4.88162 10.6744 12.6363
109 3 -0.824247 6.64828 11.7343 14.4993
214 2 -0.0439909 5.0178 12.3273 9.01953
132 2 -0.0441599 7.42146 11.0167 12.0735
264 2 0.0508183 9.14215 12.4291 15.4285
203 2 0.16799 8.92069 7.41109 8.98484
269 2 0.143476 10.3914 10.2507 13.4932
193 2 0.0644699 11.2921 9.40678 15.2715
273 2 0.180976 2.24771 13.2185 16.0741
194 2 -0.00217849 9.6264 7.65567 11.2224
191 3 -0.817788 11.9338 6.7668 9.98412
34 4 1.0243 3.63743 9.77753 12.2918
241 2 0.167757 9.66049 10.6387 15.4974
218 2 0.146969 8.60158 9.4232 8.92148
236 4 1.06518 7.47525 11.9536 15.8115
157 2 0.134723 2.87876 10.8917 10.4057
131 2 -0.0183058 6.11593 13.0817 12.2917
184 1 -0.655922 2.59046 13.0903 14.9184
43 1 -0.65699 11.2148 10.5772 14.1881
ITEM: TIMESTEP
100
ITEM: NUMBER OF ATOMS
274
ITEM: BOX BOUNDS xy xz yz pp pp pp
-8.3797999999999995e+00 1.8013900000000000e+01 -8.3797999999999995e+00
0.0000000000000000e+00 1.3271725200000001e+01 1.1950000000000001e+00
0.0000000000000000e+00 1.6075500000000002e+01 4.3115208888888823e-01
ITEM: ATOMS id type q x y z
119 2 -0.0137075 7.42442 1.0717 5.21068
12 4 1.30504 -0.931244 6.21919 5.36486
7 4 1.13233 0.895034 2.18361 5.18844
9 4 1.2053 -0.535459 4.65186 1.99132
10 4 1.60903 0.446242 4.39516 7.28944
242 1 -0.685177 3.3161 0.704223 2.95057
21 4 0.77813 5.76716 1.43181 5.51494
26 4 1.30148 5.35959 4.39592 6.81572
41 1 -0.654993 0.76502 0.62806 6.29274
44 1 -0.68038 3.90774 3.88722 1.62552
55 3 -0.803147 0.928503 1.04447 1.25554
56 3 -0.822787 -0.46047 2.20599 4.40069
58 3 -0.807739 -1.90676 4.39771 2.85938
59 3 -0.83397 -0.0804996 3.50311 0.939177
243 2 0.156237 3.46942 1.86417 2.83811
61 3 -0.816037 1.14646 3.47205 6.07892
62 3 -0.850846 -0.660883 5.30787 6.63195
74 3 -0.810185 5.59228 0.494875 7.2673
78 3 -0.856137 0.767546 4.96044 2.88485
81 3 -0.768779 5.52207 3.02354 5.70724
84 3 -0.813765 3.02883 5.87829 4.0604
85 3 -0.819473 4.75663 5.67265 6.02621
113 2 0.0956588 -1.57904 5.28633 4.0715
111 2 0.0103035 2.19805 1.92874 4.0785
112 2 -0.0302299 -0.944136 5.943 0.951332
5 4 1.37039 0.467496 2.16767 0.237488
118 2 -0.0225833 4.57346 0.770561 4.44291
24 4 1.29513 5.10013 4.80125 0.453302
222 3 -0.786516 6.64079 1.19164 1.00973
223 2 -0.101197 6.31317 0.885918 3.80685
141 2 0.161884 4.12795 2.77216 1.59812
142 2 0.185713 2.80115 4.12075 1.40275
143 2 0.216273 4.19554 4.35372 2.61623
220 4 0.973352 6.97104 0.261816 2.20678
244 2 0.137887 2.92329 0.319922 3.99848
135 2 0.227193 0.526269 1.20114 7.30787
25 4 1.42126 1.47114 6.22694 3.52383
248 2 0.161478 2.77171 3.20104 0.0562583
265 2 0.168438 4.13846 0.0739784 2.41445
28 4 1.24254 4.16789 6.5481 4.91509
82 3 -0.828985 1.43607 5.37297 8.03249
138 2 0.160531 1.31484 1.01385 12.6131
8 4 1.2249 1.89618 2.70811 11.1209
13 4 1.31005 0.473374 5.13867 12.3542
172 4 0.943796 -0.440099 2.71546 13.9805
20 4 1.30862 4.51277 2.82824 9.24111
23 4 1.22776 7.01471 2.96051 11.1568
99 3 -0.781466 8.03322 1.15984 8.37426
226 4 0.89646 3.85328 6.41935 15.0613
42 1 -0.671861 2.33466 1.59611 12.5452
57 3 -0.83058 0.428129 2.14846 10.6329
63 3 -0.874946 -0.18031 4.15549 13.3026
64 3 -0.823797 1.85408 4.49877 11.8671
65 3 -0.850917 -2.27539 5.97736 9.44961
66 3 -0.88349 -0.563476 5.68688 11.3236
73 3 -0.796277 3.09133 2.53761 9.87659
75 3 -0.863498 5.66859 3.09286 10.2336
76 3 -0.828308 7.09567 1.64761 12.1363
80 3 -0.802148 4.54269 3.92386 8.13166
228 2 -0.0094066 2.74618 5.12765 15.389
137 2 0.160096 3.13084 0.897035 12.135
114 2 -0.0360379 0.914442 6.30128 13.5175
229 2 -0.0232841 3.73041 6.46641 13.3528
124 2 0.0405552 3.33677 5.39033 12.0158
136 2 0.190539 2.60117 2.18984 13.5634
179 4 1.24921 7.55938 2.38553 15.5841
183 1 -0.674418 5.99721 1.56361 14.8673
77 3 -0.75887 7.03508 4.09799 15.7854
262 3 -0.795916 0.707977 2.00627 15.1917
196 2 0.190439 5.61992 2.43576 14.2558
117 2 0.0987558 4.88897 1.34908 8.46589
227 3 -0.798452 5.29249 5.91015 15.4796
195 2 0.278891 6.38678 0.705259 14.2322
245 1 -0.6702 3.1979 3.19433 15.2599
246 2 0.148695 3.19436 3.8221 14.3634
247 2 0.166488 3.61137 2.13612 15.0815
60 3 -0.808518 -0.282556 3.32506 8.47482
197 2 0.188534 5.42399 1.30703 15.7298
14 4 1.55767 -1.08346 6.65405 10.2287
133 2 0.165252 -6.65321 12.8675 6.26443
3 3 -0.803239 -5.98048 11.5475 0.767886
268 2 0.256058 -4.81199 9.28299 2.17472
16 4 1.47156 -3.25959 8.00947 6.57084
17 4 1.22208 -4.53327 10.0379 4.86136
154 2 0.173327 0.971685 9.5644 7.36067
161 2 0.179642 -1.15587 9.70928 0.537592
31 4 1.30492 -2.12067 10.3088 3.08289
33 4 1.14618 0.0611784 10.9082 5.46635
48 1 -0.637968 -1.21769 8.76816 2.40586
49 1 -0.654808 0.132496 9.35978 6.57948
69 3 -0.80191 -6.06215 10.3097 4.37443
68 3 -0.826371 -2.05271 7.41392 5.60691
271 2 0.154172 1.43245 10.1261 2.30118
70 3 -0.796326 -4.51305 8.75836 5.89431
79 3 -0.855292 0.39505 6.90142 4.92915
87 3 -0.837663 1.56004 7.3372 2.39508
30 4 1.00195 2.31996 8.10348 1.1848
89 3 -0.781015 -2.06405 11.4527 1.99289
90 3 -0.847514 -3.52084 9.7967 3.63839
93 3 -0.809901 -1.03477 10.6708 4.33838
94 3 -0.783496 -0.328182 12.0976 6.47827
115 2 -0.0369514 -3.952 11.4332 5.65031
147 2 0.19745 1.88098 7.67003 6.51645
151 2 0.182638 -0.175953 9.14887 1.891
152 2 0.15535 -2.0005 8.42858 1.63012
153 2 0.210284 -0.892947 7.96844 3.15657
251 1 -0.654888 -5.40047 8.94859 1.26857
155 2 0.267151 0.313671 8.41124 5.90534
156 2 0.28812 -0.878326 9.30083 7.06694
46 1 -0.660089 2.3835 7.9966 7.47712
148 2 0.175081 3.43724 7.67764 7.67141
272 2 0.174632 0.560084 10.0379 0.548702
19 4 1.32428 -1.32994 12.7526 7.76636
1 4 1.30595 -6.55852 12.6962 1.96383
2 3 -0.829281 -7.34523 11.9107 3.07686
91 3 -0.820509 -2.58107 9.40527 7.68589
149 2 0.145432 2.15929 9.11489 7.85322
47 1 -0.663458 1.59026 9.88416 1.19439
122 2 0.00382186 3.52225 7.89081 5.90059
253 2 0.155496 -4.77899 8.16072 0.676153
159 2 0.203742 1.59219 9.83095 10.8737
18 4 1.23028 -2.33706 8.34278 12.6454
22 4 1.21167 -0.581605 13.0359 12.0841
32 4 0.965802 -2.51711 10.3888 8.86765
35 4 1.21882 -1.42151 10.6785 14.3733
15 4 1.10776 -4.28453 10.7982 16.0167
160 2 0.152068 0.883326 10.6036 14.7952
50 1 -0.67427 2.30817 10.5204 11.347
51 1 -0.634109 0.016115 10.8122 15.5645
162 2 0.214083 -0.0290268 11.9571 15.8031
72 3 -0.811572 -1.775 8.15465 11.2055
83 3 -0.837281 0.0676778 7.31521 9.28394
88 3 -0.778604 3.3606 7.82901 15.7269
92 3 -0.822804 -1.42015 11.4677 9.0171
95 3 -0.820271 3.77072 8.02154 12.0121
96 3 -0.793823 -1.35936 9.30404 13.5183
97 3 -0.784855 -1.2966 12.1531 13.1778
98 3 -0.779218 -2.86928 10.7491 15.243
116 2 -0.0347586 -3.87157 9.05597 12.5138
120 2 0.0592863 -0.91295 12.4075 10.5281
126 2 0.0886702 -2.2491 9.35604 10.1353
127 2 -0.0602034 -3.9928 11.0061 9.22189
128 2 0.0195255 2.23498 10.0857 13.2786
139 2 0.160795 -4.55308 10.8324 13.5511
71 3 -0.811708 -2.67501 6.99087 13.5061
158 2 0.244739 1.82454 11.4632 11.7864
140 2 0.162899 -5.8906 11.7217 14.4066
29 4 0.977444 3.65753 6.74381 11.1047
86 3 -0.826094 2.61056 6.8999 10.0186
43 1 -0.653295 -5.55269 10.701 14.0479
27 4 1.39868 1.51286 6.78398 8.81442
187 3 -0.795799 1.04928 13.0111 12.3214
235 2 0.157793 11.4387 1.65499 3.24856
37 4 1.24928 13.051 1.83276 5.85567
225 2 0.0924492 8.88585 0.33888 3.348
39 4 1.28145 11.264 3.94954 7.26764
45 1 -0.664564 7.14165 5.06521 7.25245
54 1 -0.659184 10.8947 5.46893 6.18076
101 3 -0.809618 13.9922 2.94799 5.07901
102 3 -0.844786 13.8272 0.91667 6.92247
250 2 0.188414 11.3729 4.94766 0.331895
4 4 1.44954 14.9253 2.67886 3.80685
106 3 -0.809375 11.8626 2.67417 6.49435
232 3 -0.825635 14.3723 1.48488 2.89846
129 2 -0.000689156 12.2649 0.813812 4.68812
130 2 0.0473954 7.78421 5.83279 3.85764
234 2 0.173495 11.2768 0.485246 1.76653
169 2 0.191791 11.6897 5.33371 5.39143
146 2 0.208553 7.73717 4.20012 6.83402
103 3 -0.773698 6.05181 5.89447 1.58852
145 2 0.166414 7.26983 6.04685 6.70646
170 2 0.232002 10.8425 6.44705 6.75385
171 2 0.163998 9.91487 5.26315 5.67086
231 1 -0.639848 11.5924 0.587943 2.86448
224 2 0.165912 9.21738 1.11073 1.4361
221 1 -0.625782 8.80283 0.166685 1.99452
230 4 1.1049 13.681 0.094305 2.56185
105 3 -0.757169 9.59387 3.45594 7.88433
273 2 0.186481 9.43144 0.177512 0.0434552
266 2 0.0665103 13.6109 4.78129 0.00452113
11 4 1.51221 13.0454 6.07676 8.87453
36 4 1.29102 9.06004 2.37173 9.04956
52 1 -0.676421 10.4902 1.51566 9.87149
177 2 0.168813 14.0476 0.776409 13.8368
100 3 -0.830227 8.26511 3.15353 10.1979
107 3 -0.798191 12.3016 4.40452 8.43077
110 2 0.0186443 14.8308 2.8982 10.3921
188 3 -0.76534 8.78847 2.11104 14.5422
202 2 0.176035 13.9125 3.79443 11.6065
163 2 0.184241 11.3958 2.20479 10.1088
249 1 -0.646964 13.4127 5.98225 15.9993
165 2 0.237955 10.1006 0.94984 10.863
123 2 -0.0307648 5.15116 6.62114 10.3368
173 1 -0.639891 14.6177 1.70535 13.4299
174 2 0.0602341 14.6179 2.7467 14.7116
175 2 0.0549013 16.1003 1.3768 12.8266
176 2 0.165161 14.024 2.31264 12.5953
164 2 0.160506 10.6999 0.736081 9.02272
178 4 1.11337 13.7352 5.7294 14.3578
180 4 1.21156 10.1113 1.46163 13.7201
181 4 1.35812 11.7481 3.93939 12.5604
205 2 0.186759 9.23858 5.38872 9.22861
185 1 -0.689103 12.9956 3.27141 11.1342
6 4 1.3302 16.1258 2.23997 9.5189
189 3 -0.819123 11.1461 2.58159 13.0528
190 3 -0.784477 12.6926 4.74495 13.6531
192 3 -0.787954 10.851 5.10185 11.9575
263 3 -0.847351 15.6059 0.926174 8.91516
199 2 0.167087 12.1188 1.05764 14.8639
200 2 0.242651 12.6658 3.70349 10.0548
201 2 0.139105 12.9314 2.10033 11.2751
182 4 1.04768 10.6956 6.22934 10.7371
144 2 0.199738 7.22959 5.1104 8.38284
204 2 0.161219 8.21957 6.30143 10.6403
186 1 -0.670499 8.98386 6.47034 9.87827
184 1 -0.639622 11.0403 0.541008 14.9956
121 2 -0.00586305 7.12413 4.31722 12.1333
233 2 0.171697 2.69643 12.5903 3.46274
255 2 0.146314 1.5785 12.3678 4.70059
167 2 0.178439 9.36754 7.13526 2.83308
53 1 -0.637829 8.40902 7.35087 3.26024
104 3 -0.817621 5.32841 7.21511 3.85265
237 1 -0.666919 7.60467 10.2951 0.168414
125 2 -0.0110133 3.95153 8.293 1.52127
150 2 0.159589 2.4996 10.3991 0.750071
166 2 0.0448065 7.4677 8.24247 2.21081
168 2 0.157786 8.54283 8.00932 4.20058
206 4 1.23333 9.28926 10.6135 3.94553
215 2 0.16523 5.25305 9.23427 6.57835
208 4 1.03719 7.5892 10.1202 6.66631
209 1 -0.667227 6.18508 8.95502 6.124
261 2 0.20544 6.20847 12.3422 4.84298
211 3 -0.792797 8.43269 10.542 5.36551
212 3 -0.754725 6.68675 11.5632 7.5878
213 2 -0.0134715 8.73367 9.26803 3.03657
254 1 -0.686096 1.74675 11.1783 4.65765
216 2 0.143897 6.67186 7.96201 6.62421
217 2 0.200441 6.10834 8.84438 5.01315
219 2 0.198767 9.66451 9.20227 7.39015
252 2 0.15388 10.3952 8.5704 1.54964
257 2 0.150405 2.52391 10.8431 5.3472
238 3 -0.770944 5.46979 12.1204 1.05494
240 2 0.16302 7.93212 10.5152 1.18799
38 4 1.00679 6.4728 6.71153 2.86267
67 3 -0.852931 12.948 6.93062 7.60021
258 1 -0.686204 5.67205 11.8571 3.98233
259 2 0.147228 6.28378 10.9827 3.49962
260 2 0.144592 4.66374 11.4907 4.3145
274 2 0.144373 8.26921 8.00506 8.02324
239 2 0.139449 6.83543 9.32693 0.107925
267 2 0.171171 12.2602 6.56566 0.367811
210 1 -0.666426 8.67118 9.097 7.93314
270 2 0.185401 0.874713 12.0417 1.64532
256 2 0.154331 1.83679 10.7144 3.6385
134 2 0.238013 8.28078 12.9297 5.84192
198 2 0.146061 2.54058 12.2482 14.4492
40 4 0.928262 6.05804 11.5012 13.0016
108 3 -0.825261 4.87776 10.5319 12.6959
109 3 -0.810225 6.65997 11.6235 14.4325
214 2 -0.0356014 4.86877 12.5921 9.10641
132 2 -0.0342125 7.31653 11.1771 11.9462
264 2 0.0755912 9.05733 12.581 15.6342
203 2 0.161959 8.77774 7.47507 9.18358
269 2 0.144406 10.6234 10.3644 13.1864
193 2 0.0587425 11.1163 9.6065 15.3591
131 2 -0.0219622 5.85637 13.0074 12.2595
194 2 0.0115148 9.70138 7.56918 11.3261
191 3 -0.836661 12.0065 6.69892 10.0128
34 4 1.03797 3.66174 9.60128 12.391
241 2 0.162577 9.71564 10.6838 15.3454
218 2 0.16258 8.68212 9.65594 8.8782
236 4 1.02296 7.41557 11.9256 15.8135
157 2 0.139454 3.09707 10.8235 10.5154
207 4 1.25726 6.14093 12.9204 8.05241
ITEM: TIMESTEP
200
ITEM: NUMBER OF ATOMS
274
ITEM: BOX BOUNDS xy xz yz pp pp pp
-8.3797999999999995e+00 1.8013900000000000e+01 -8.3797999999999995e+00
0.0000000000000000e+00 1.3270250400000000e+01 1.1950000000000001e+00
0.0000000000000000e+00 1.6075500000000002e+01 4.3110417777777776e-01
ITEM: ATOMS id type q x y z
119 2 -0.0265917 7.43407 1.28201 5.08612
12 4 1.31764 -0.891069 6.24373 5.30157
7 4 1.08588 0.869202 2.05767 5.21021
9 4 1.24472 -0.450319 4.55402 1.91429
10 4 1.60112 0.368267 4.39371 7.33445
242 1 -0.68664 3.2413 0.515759 3.03124
21 4 0.768828 5.8088 1.41466 5.51604
26 4 1.22881 5.43405 4.40237 6.6847
41 1 -0.651412 0.567662 0.476317 6.15431
44 1 -0.68153 3.97195 3.86624 1.70531
55 3 -0.810566 1.06223 0.997055 1.08347
56 3 -0.79417 -0.465821 2.29935 4.30879
58 3 -0.81307 -1.73479 4.28475 2.86486
59 3 -0.860987 -0.173562 3.397 0.860537
243 2 0.150403 3.39958 1.62113 3.32233
61 3 -0.762185 1.10655 3.16684 6.35298
62 3 -0.870795 -0.673934 5.22405 6.48227
74 3 -0.783704 5.64935 0.437586 7.25571
78 3 -0.848297 0.834183 5.01889 2.74462
81 3 -0.787132 5.48186 3.03481 5.75975
84 3 -0.787406 3.05252 5.94803 3.93791
85 3 -0.779949 4.73747 5.71662 5.95988
113 2 0.0930555 -1.67475 5.31692 4.13734
111 2 -0.00614435 2.27989 1.79775 4.1607
112 2 -0.02684 -0.887315 5.98673 1.09055
5 4 1.35158 0.380064 2.09682 0.179548
118 2 -0.0269427 4.62987 0.740451 4.49444
24 4 1.26117 5.14312 4.83703 0.544372
222 3 -0.78243 6.36224 1.16406 1.04572
223 2 -0.0905062 6.37648 0.793371 3.81055
141 2 0.167304 4.1743 2.78502 1.40884
142 2 0.192128 2.93452 4.20896 1.47414
143 2 0.215208 4.31341 4.06139 2.78602
220 4 1.05045 6.90707 0.238811 2.16597
265 2 0.188558 3.98321 0.116678 2.13679
135 2 0.230978 0.813977 0.7151 7.2683
25 4 1.41266 1.51811 6.33732 3.45129
248 2 0.157216 2.78881 3.18984 0.185161
82 3 -0.786119 1.54088 5.44565 7.98815
138 2 0.178444 1.79225 1.03464 12.7727
8 4 1.25123 1.93582 2.71543 11.0727
13 4 1.27552 0.463619 5.11083 12.3271
123 2 -0.0156364 5.09698 6.1136 10.735
20 4 1.29313 4.55025 2.74023 9.27264
23 4 1.29312 6.91061 2.99001 11.1812
99 3 -0.823258 8.12906 1.28006 8.3043
226 4 0.894582 3.8444 6.3617 15.2019
42 1 -0.668343 2.64424 1.71507 12.5203
57 3 -0.810111 0.412777 2.09723 10.6305
63 3 -0.841415 -0.146665 4.02584 13.3356
64 3 -0.810081 1.82909 4.49713 11.8807
65 3 -0.86614 -2.30749 5.99705 9.45594
66 3 -0.886023 -0.440747 5.61431 11.155
73 3 -0.789054 3.09875 2.5472 9.9375
75 3 -0.850479 5.53389 2.91333 10.4883
76 3 -0.852803 7.16572 1.57574 11.845
80 3 -0.732539 4.68218 4.00174 8.41849
228 2 -0.0174417 2.83549 5.057 15.6032
137 2 0.180133 3.55312 1.24246 11.9707
114 2 -0.0455751 0.872074 6.54601 13.071
229 2 -0.0405136 3.70122 6.45475 13.4889
124 2 0.0511317 3.3414 5.20609 12.0869
136 2 0.180176 2.91866 2.26357 13.5083
179 4 1.24781 7.48329 2.35505 15.54
183 1 -0.687592 6.04544 1.53853 14.6626
29 4 0.956197 3.55948 6.68902 11.2589
262 3 -0.778184 0.464836 1.89675 15.078
196 2 0.166766 5.62849 2.42181 14.1482
117 2 0.0990071 5.04883 1.31716 8.3911
227 3 -0.780729 5.34555 6.06058 15.5369
195 2 0.2802 6.45752 0.728751 13.9154
245 1 -0.643695 3.22663 3.13514 15.4201
246 2 0.123459 3.00114 3.79782 14.4429
247 2 0.170182 3.66675 2.0823 15.1661
60 3 -0.852558 -0.217085 3.45112 8.47084
197 2 0.189296 5.38152 1.17451 15.4738
121 2 -0.0191791 6.76654 4.15481 12.3938
14 4 1.4966 -1.08832 6.68085 10.2189
6 4 1.34327 -0.670904 2.42051 9.47157
133 2 0.182087 -7.06464 12.6096 5.66741
3 3 -0.793464 -5.9518 11.5586 0.884344
268 2 0.267028 -4.62438 9.38139 2.13544
16 4 1.47019 -3.16288 8.08911 6.63189
17 4 1.18941 -4.45676 10.1189 5.02213
154 2 0.156563 0.970839 9.437 7.32306
161 2 0.17932 -1.118 9.42372 0.341588
31 4 1.2533 -2.1729 10.1072 3.09551
33 4 1.15403 -0.0223986 10.9322 5.49233
48 1 -0.659522 -1.25736 8.64802 2.23424
49 1 -0.661112 0.100822 9.36954 6.52128
69 3 -0.800022 -6.02719 10.447 4.52147
68 3 -0.831654 -1.95744 7.40206 5.71339
271 2 0.153977 1.26488 10.3068 2.26992
70 3 -0.819367 -4.3182 8.72763 5.80438
79 3 -0.864723 0.436714 6.88079 4.80856
87 3 -0.823832 1.64034 7.58123 2.38348
30 4 1.06578 2.32467 8.21258 1.12906
89 3 -0.728564 -1.86987 11.5805 2.00429
90 3 -0.841408 -3.64186 10.0568 3.52088
93 3 -0.780336 -1.11657 10.5542 4.31632
94 3 -0.846336 -0.489613 12.1002 6.43351
115 2 -0.0174918 -3.90124 11.3755 5.95106
147 2 0.19123 1.99374 7.50904 6.56019
151 2 0.213128 -0.191184 9.06538 1.83523
152 2 0.146341 -2.12224 8.4279 1.52841
153 2 0.178471 -1.19978 7.80229 3.03974
251 1 -0.666876 -5.21655 8.95888 1.20433
155 2 0.264025 0.269579 8.37632 5.88841
156 2 0.281664 -0.940256 9.40939 6.99149
46 1 -0.670866 2.53709 7.92888 7.44749
148 2 0.186087 3.6018 7.62609 7.52598
272 2 0.183629 0.542638 9.99036 0.424882
19 4 1.33534 -1.17473 12.801 7.73775
1 4 1.27766 -6.66563 12.6545 1.99949
244 2 0.154092 -5.1659 12.6445 3.90291
91 3 -0.842898 -2.54298 9.5953 7.62639
149 2 0.143111 2.31561 9.01861 7.59634
47 1 -0.655215 1.4637 9.90905 1.09545
122 2 -0.0160812 3.39677 8.03874 5.62057
253 2 0.160281 -4.6499 8.08932 0.7717
267 2 0.159951 -4.10159 6.83552 0.268574
28 4 1.21427 4.15745 6.73343 4.86877
270 2 0.190788 0.690121 11.7542 1.5593
159 2 0.179956 1.47364 9.65074 11.1549
18 4 1.22484 -2.29742 8.31304 12.7696
22 4 1.27641 -0.559531 12.9709 12.0082
32 4 0.967547 -2.36096 10.4302 8.95951
35 4 1.24201 -1.47042 10.7153 14.3117
15 4 1.10527 -4.20669 10.8323 16.0706
160 2 0.180768 0.735891 9.94152 14.6346
50 1 -0.658549 2.2572 10.4592 11.526
51 1 -0.637507 0.0875164 10.4574 15.3611
162 2 0.180617 0.37068 11.5775 15.4912
72 3 -0.826131 -1.94573 8.03985 11.2812
83 3 -0.830772 -0.00761985 7.44172 9.1726
88 3 -0.801511 3.35372 7.7677 15.8856
92 3 -0.840186 -1.39756 11.6049 9.19158
95 3 -0.816311 3.82591 8.08163 12.0082
96 3 -0.817224 -1.29439 9.35894 13.5166
97 3 -0.823242 -1.27153 12.1381 13.0683
98 3 -0.801358 -2.84883 10.8289 15.2361
116 2 -0.0338142 -3.60755 9.23486 12.5318
120 2 0.0969434 -0.786017 12.1686 10.5777
126 2 0.0742422 -2.0446 9.31972 10.1391
127 2 -0.0474876 -3.86062 10.7922 9.54051
128 2 0.0124744 2.27028 9.9821 13.4345
139 2 0.155492 -4.63944 10.8669 13.5849
71 3 -0.849202 -2.66032 6.97948 13.623
158 2 0.238025 1.65678 11.4162 11.9835
140 2 0.172112 -5.87969 11.9477 14.5108
27 4 1.35543 1.51391 6.83315 8.77111
86 3 -0.78759 2.5695 6.7622 10.0314
43 1 -0.65062 -5.63514 10.8815 14.162
187 3 -0.834004 0.982002 13.016 12.245
235 2 0.172039 11.3771 1.62522 3.23995
37 4 1.29415 13.007 1.79733 5.95904
225 2 0.12673 8.992 0.160433 3.12016
39 4 1.34817 11.2925 3.90938 7.38619
45 1 -0.672586 7.21173 4.6831 7.11851
54 1 -0.649692 11.0015 5.22281 6.02601
101 3 -0.833293 13.8888 2.68211 4.92162
102 3 -0.871223 13.7455 1.06066 7.09215
250 2 0.14158 11.1589 5.33633 0.184435
4 4 1.47775 14.8259 2.59377 3.672
106 3 -0.822452 11.855 2.71798 6.52829
232 3 -0.829562 14.317 1.41387 2.74469
129 2 -0.0048134 12.2072 0.669096 4.86428
130 2 0.0482704 7.90063 5.6312 3.58207
234 2 0.17015 11.399 0.35672 1.90703
169 2 0.208664 12.0133 5.23369 5.4576
146 2 0.18801 7.79474 4.02176 6.45697
103 3 -0.77475 5.95673 5.869 1.50593
145 2 0.155793 7.40275 5.8006 6.92122
170 2 0.225394 10.9037 6.18313 6.4949
171 2 0.160155 10.0487 4.9457 5.42763
231 1 -0.651862 11.6809 0.576692 3.01619
224 2 0.167594 9.05994 0.864258 1.34461
266 2 0.0931202 13.4478 4.7802 0.0784981
134 2 0.237396 16.2962 0.291028 5.91955
11 4 1.51476 13.082 6.18295 8.8808
36 4 1.30988 9.01981 2.40307 9.12371
52 1 -0.673565 10.4844 1.65922 9.98055
177 2 0.179267 14.148 0.764772 13.7557
100 3 -0.827583 8.08891 3.30133 10.1939
107 3 -0.790971 12.326 4.56578 8.52676
110 2 0.0265307 14.7545 3.16185 10.2659
188 3 -0.788947 8.78165 2.06336 14.6229
202 2 0.180584 13.8772 3.76306 11.7319
163 2 0.196842 11.3896 2.27771 10.3669
249 1 -0.624311 13.5811 6.17246 16.059
165 2 0.24134 10.0343 1.04114 10.8996
77 3 -0.72782 7.27881 4.07581 15.7794
173 1 -0.684632 14.6921 1.57852 13.2528
174 2 0.0370383 14.4584 2.82342 14.6859
175 2 0.112346 15.8249 1.2144 12.4544