ITEM: TIMESTEP
0
ITEM: NUMBER OF ATOMS
274
ITEM: BOX BOUNDS xy xz yz pp pp pp
-8.3797999999999995e+00 1.8013900000000000e+01 -8.3797999999999995e+00
0.0000000000000000e+00 1.3273200000000001e+01 1.1950000000000001e+00
0.0000000000000000e+00 1.6075500000000002e+01 4.3120000000000003e-01
ITEM: ATOMS id type q x y z
119 2 -0.00752243 7.56094 1.08809 5.23229
12 4 1.26263 -1.05672 6.2564 5.49774
7 4 1.16479 1.05606 2.32802 5.14415
9 4 1.26104 -0.476995 4.60121 1.88531
10 4 1.60452 0.32634 4.32262 7.36578
242 1 -0.659361 3.31885 0.672361 2.98819
21 4 0.794931 5.91587 1.4418 5.49188
26 4 1.28134 5.26117 4.49648 6.83159
41 1 -0.666569 1.07888 0.807425 6.33011
44 1 -0.666023 3.7639 4.03166 1.67874
55 3 -0.801177 1.08221 1.1628 1.22924
56 3 -0.846894 -0.266656 2.39059 4.3466
58 3 -0.775768 -1.7736 4.36409 2.86899
59 3 -0.869379 -0.0552413 3.56565 0.820396
243 2 0.154761 3.45123 1.82963 2.60701
61 3 -0.789507 1.28637 3.51965 6.0847
62 3 -0.85926 -0.841086 5.21923 6.69028
74 3 -0.783786 5.64293 0.418897 7.11798
78 3 -0.869022 0.610031 5.03655 2.98287
81 3 -0.772538 5.66418 2.96127 5.92567
84 3 -0.788841 2.81057 5.80917 4.20274
85 3 -0.805056 4.70164 5.67774 5.91606
113 2 0.105096 -1.58802 5.368 4.10952
111 2 0.0108412 2.43584 2.06953 4.09254
112 2 -0.0198496 -0.85755 6.00902 1.07987
5 4 1.34809 0.441621 2.17587 0.179553
118 2 -0.0107726 4.69382 0.915758 4.3356
24 4 1.28415 5.03905 4.87915 0.472272
222 3 -0.76475 6.53983 1.32574 1.19482
223 2 -0.0928813 6.51891 0.791639 3.80657
141 2 0.158248 3.74237 2.84005 1.72247
142 2 0.182535 2.74971 4.48619 1.4537
143 2 0.209199 4.23773 4.48634 2.63809
220 4 1.02869 7.00665 0.211834 2.16755
244 2 0.121136 2.99438 0.413039 4.10206
135 2 0.229628 0.981977 1.3426 7.37341
25 4 1.41583 1.31443 6.23552 3.65361
248 2 0.154238 2.7321 3.35553 0.13157
133 2 0.159316 2.02454 0.290912 6.22798
138 2 0.163108 1.39416 1.10598 12.6799
8 4 1.20513 1.87049 2.70022 11.0801
13 4 1.29943 0.557087 5.10228 12.4231
82 3 -0.833032 1.37351 5.19043 8.17435
20 4 1.24224 4.61283 2.81304 9.19617
23 4 1.29689 7.00733 2.89227 11.1406
99 3 -0.836849 8.05738 1.15606 8.35257
226 4 0.899992 3.79777 6.45537 15.098
42 1 -0.653316 2.39657 1.66618 12.5474
57 3 -0.798357 0.317641 2.1242 10.5239
63 3 -0.882075 -0.222108 4.18153 13.3587
64 3 -0.80876 1.9137 4.50162 11.8749
65 3 -0.835256 -2.29471 5.85929 9.62148
66 3 -0.847752 -0.286075 5.72537 11.2626
73 3 -0.761412 3.20399 2.45471 10.1224
75 3 -0.857176 5.7052 2.96424 10.3024
76 3 -0.863418 7.05392 1.57627 11.9313
80 3 -0.794373 4.5508 4.12082 8.26656
228 2 -0.00244515 2.7064 5.15697 15.4317
137 2 0.178384 3.30552 1.08036 12.0214
114 2 -0.0197666 1.06528 6.5527 13.2047
229 2 -0.0395984 3.71547 6.67048 13.3489
124 2 0.0572191 3.371 5.32055 12.0228
136 2 0.185079 2.71497 2.30142 13.4899
179 4 1.28954 7.59796 2.5296 15.6454
183 1 -0.658888 6.22656 1.37343 15.0462
77 3 -0.786205 7.13624 4.02229 15.8362
262 3 -0.827529 0.511704 2.09862 15.0849
196 2 0.169249 5.54254 2.10085 14.5233
117 2 0.0919086 5.03237 1.47101 8.20108
227 3 -0.816434 5.28859 6.08152 15.4858
195 2 0.281325 6.5733 0.538766 14.3651
245 1 -0.652061 3.19404 3.23584 15.2384
246 2 0.138905 3.22107 3.85239 14.3146
247 2 0.162005 3.58595 2.20035 14.9892
27 4 1.33921 1.7195 6.63762 8.75691
60 3 -0.866285 -0.352627 3.18633 8.22809
266 2 0.0820308 -1.81921 5.20395 15.7503
14 4 1.53625 -1.10779 6.69071 10.2929
197 2 0.204408 5.74275 0.920218 16.0115
265 2 0.186813 -4.37578 12.6628 2.43879
3 3 -0.778029 -6.01006 11.6493 0.933254
268 2 0.273918 -4.74148 9.32545 2.06825
16 4 1.42087 -3.24639 7.94689 6.66532
17 4 1.2147 -4.55305 9.85486 4.70904
154 2 0.167081 0.919266 9.57543 7.37447
161 2 0.195541 -1.00667 9.76971 0.38206
31 4 1.25293 -2.04543 10.1905 3.09161
33 4 1.12288 0.0998973 11.0251 5.4851
48 1 -0.657003 -1.24019 8.78784 2.13555
49 1 -0.650156 0.102916 9.47141 6.53327
69 3 -0.793663 -6.11152 10.1277 4.35945
68 3 -0.845413 -2.10122 7.43688 5.65295
271 2 0.148804 1.48393 10.3138 2.3709
70 3 -0.751857 -4.53853 8.50569 5.61138
79 3 -0.834499 0.392623 7.05147 4.95962
87 3 -0.788044 1.6964 7.41776 2.407
30 4 0.993731 2.32593 8.15941 1.14155
89 3 -0.73984 -2.00887 11.5648 1.94545
90 3 -0.858453 -3.56793 9.93463 3.4335
93 3 -0.812249 -0.91466 10.6536 4.29893
94 3 -0.826042 -0.263526 12.2141 6.57606
115 2 -0.0205655 -4.13621 11.1057 5.81295
147 2 0.201697 1.89188 7.39446 6.57072
151 2 0.194462 -0.141995 9.17713 1.82998
152 2 0.170853 -1.91518 8.445 1.27934
153 2 0.181306 -1.26672 7.95433 2.95836
251 1 -0.66234 -5.42075 8.92893 1.24941
155 2 0.285041 0.259154 8.52951 5.90591
156 2 0.280568 -0.968924 9.44867 6.99299
46 1 -0.681635 2.41727 7.86336 7.41555
148 2 0.170301 3.54906 7.62546 7.6034
272 2 0.17342 0.699129 10.0713 0.526387
19 4 1.35334 -1.18368 12.7824 7.74203
1 4 1.26058 -6.6418 12.7353 2.05056
28 4 1.23031 4.07048 6.64183 4.85755
91 3 -0.820798 -2.5867 9.51708 7.67241
149 2 0.161977 2.16254 8.95408 7.57492
47 1 -0.651845 1.67413 9.93179 1.2254
122 2 -0.00133078 3.46417 8.08834 5.73322
159 2 0.205894 1.45753 9.81473 11.0993
18 4 1.19168 -2.27796 8.40691 12.8261
22 4 1.29267 -0.66063 13.0041 12.0636
32 4 0.937105 -2.52968 10.437 8.9536
35 4 1.19038 -1.36833 10.7352 14.4225
15 4 1.02218 -4.18215 10.7797 16.028
160 2 0.17401 1.05023 10.2987 14.7787
50 1 -0.661899 2.15183 10.6483 11.3593
51 1 -0.645209 0.243927 10.7587 15.4272
162 2 0.200228 0.341664 11.8669 15.5647
72 3 -0.794616 -1.87379 8.02457 11.2481
83 3 -0.754663 0.000772791 7.29704 9.28019
88 3 -0.788833 3.18184 7.74064 15.749
92 3 -0.818315 -1.45198 11.5405 9.20907
95 3 -0.794543 3.67508 8.24454 11.8244
96 3 -0.768331 -1.09043 9.24724 13.5788
97 3 -0.824975 -1.22309 12.1854 13.1977
98 3 -0.801786 -2.71331 10.7437 15.3346
116 2 -0.0531796 -3.6409 9.44925 12.6017
120 2 0.0970231 -0.954537 12.1463 10.5933
126 2 0.0619462 -2.31778 9.4407 10.2962
127 2 -0.04668 -4.03198 11.1014 9.22848
128 2 0.0230242 2.24903 10.0965 13.2726
139 2 0.142084 -4.61929 10.5554 13.6291
71 3 -0.838405 -2.67628 7.06558 13.5362
158 2 0.242106 1.63647 11.6234 11.7091
140 2 0.153291 -5.86935 11.6419 14.609
29 4 0.939598 3.76627 6.7698 11.1284
86 3 -0.795297 2.80887 6.83066 9.89637
187 3 -0.813191 0.897262 13.1255 12.2742
235 2 0.162305 11.5707 1.50688 3.09056
37 4 1.23096 13.0125 1.87151 5.79771
225 2 0.127047 9.13659 0.305443 3.08673
39 4 1.38461 11.2092 3.82617 7.39292
45 1 -0.659284 6.93838 5.21097 7.43016
54 1 -0.625225 10.7037 5.32965 6.25443
101 3 -0.836608 14.024 2.88748 5.02834
102 3 -0.821957 13.8222 0.869233 6.88424
250 2 0.182919 11.559 4.60106 0.151995
4 4 1.47076 15.0551 2.70103 3.88577
106 3 -0.812786 11.772 2.67806 6.37064
232 3 -0.792722 14.4035 1.56826 2.79665
129 2 0.00456673 12.2728 0.865649 4.57956
130 2 0.063539 7.8616 5.84078 3.48594
234 2 0.177126 11.5018 0.305133 1.694
169 2 0.220885 11.6478 5.51815 5.68998
146 2 0.2005 7.69938 4.48114 6.98476
103 3 -0.807876 5.90122 5.83359 1.46404
145 2 0.16701 7.1062 6.24095 7.10138
170 2 0.197622 10.5603 6.29327 6.9494
171 2 0.173234 9.74029 5.08613 5.65614
231 1 -0.664041 11.7513 0.427595 2.75247
224 2 0.167218 9.05239 0.923204 1.26892
267 2 0.163839 12.3215 6.40426 0.17244
230 4 1.12356 13.7263 0.153585 2.49166
105 3 -0.799951 9.74843 3.3254 7.88217
134 2 0.239546 16.9794 0.183489 5.98643
11 4 1.42503 13.011 5.98955 8.92926
36 4 1.31073 9.04738 2.27509 9.00377
52 1 -0.665228 10.5409 1.49234 9.90941
177 2 0.174319 13.8918 0.813051 13.8277
100 3 -0.805997 8.35911 3.11969 10.2788
107 3 -0.834782 12.1873 4.29678 8.45903
110 2 0.011649 14.657 2.95272 10.0832
188 3 -0.816044 8.87492 1.97395 14.7243
202 2 0.172429 13.9608 3.82491 11.6085
163 2 0.196 11.3582 2.20163 10.2323
249 1 -0.637791 13.5816 5.74101 15.881
165 2 0.248223 10.0966 0.884322 10.8934
172 4 1.01172 16.2675 2.76772 14.1276
173 1 -0.631483 14.4871 1.76947 13.5703
174 2 0.0911881 14.5225 2.6343 14.7362
175 2 0.0541929 15.9632 1.23316 12.9791
176 2 0.162158 13.9296 2.33937 12.6155
164 2 0.151517 10.8437 0.740679 9.09292
178 4 1.1261 13.6948 5.67136 14.1657
180 4 1.26354 9.97817 1.40357 13.8252
181 4 1.31246 11.7681 3.91252 12.4939
205 2 0.192342 9.25066 5.42273 9.23729
185 1 -0.683199 12.9518 3.29586 11.0822
6 4 1.31402 16.0078 2.26724 9.37003
189 3 -0.769313 10.9909 2.52656 13.1809
190 3 -0.83869 12.854 4.55765 13.509
192 3 -0.784871 10.7661 4.98018 11.8066
263 3 -0.836424 15.5863 0.832632 8.90091
199 2 0.179213 12.0137 0.593333 14.6954
200 2 0.257312 12.6832 3.65114 9.98759
201 2 0.124209 12.8352 2.10651 11.3104
182 4 1.02366 10.6345 6.28509 10.7668
144 2 0.189257 6.86979 5.2152 8.56606
204 2 0.14923 8.05958 6.49611 10.4255
186 1 -0.662908 8.979 6.52159 9.77577
121 2 -0.0140666 6.89161 4.12559 12.308
123 2 -0.0488038 5.32982 6.37975 10.7197
233 2 0.17127 2.87273 12.464 3.41801
255 2 0.144795 1.9143 12.261 4.99435
167 2 0.1682 9.14349 7.56935 2.76479
53 1 -0.631236 8.09628 7.5603 3.22543
104 3 -0.832576 5.25917 7.16601 3.89435
237 1 -0.664481 7.6207 10.282 0.249878
125 2 -0.0142766 4.03859 8.14162 1.41704
150 2 0.134733 2.7154 10.3884 0.750336
166 2 0.0453545 7.17295 8.32184 2.07154
168 2 0.180959 8.0695 8.16375 4.15637
206 4 1.16066 9.19802 10.6002 3.8898
215 2 0.148641 5.29412 9.08197 7.24275
208 4 1.08259 7.4943 10.16 6.72392
209 1 -0.661957 6.09087 8.83975 6.44756
261 2 0.20315 5.98482 12.2786 4.90293
211 3 -0.756394 8.22612 10.5171 5.27338
212 3 -0.787005 6.84073 11.5071 7.40651
213 2 -0.0193363 8.54053 9.46825 2.86785
254 1 -0.671666 1.83338 11.1317 4.68343
216 2 0.169849 6.59222 7.87129 6.62787
217 2 0.18133 5.68704 8.97662 5.37275
219 2 0.201275 9.65692 9.58436 7.29426
252 2 0.149139 10.3298 8.96525 1.55482
257 2 0.140264 2.61678 10.4083 5.19353
238 3 -0.785477 5.74029 12.1985 1.03158
240 2 0.157032 7.9765 10.5232 1.33332
38 4 1.00235 6.30548 6.76303 2.75849
67 3 -0.855232 13.0193 6.80786 7.52663
258 1 -0.664784 5.586 11.7977 3.90562
259 2 0.170885 6.45984 11.097 3.51167
260 2 0.144319 4.6265 11.1611 4.09076
274 2 0.152894 8.70828 8.00769 7.59878
239 2 0.12091 6.77228 9.34788 0.186639
207 4 1.22999 6.19971 12.8471 8.02362
210 1 -0.655165 8.79016 9.12926 7.80659
2 3 -0.786603 9.10891 12.0769 3.21963
221 1 -0.657851 0.452079 12.8618 1.96398
270 2 0.186777 0.960756 11.8781 1.63717
253 2 0.158719 11.6666 7.95083 0.769094
256 2 0.160955 1.61864 10.9223 3.57928
198 2 0.162118 2.25171 12.1133 14.3896
40 4 0.899521 6.16957 11.5415 13.0087
108 3 -0.819424 4.88162 10.6744 12.6363
109 3 -0.824247 6.64828 11.7343 14.4993
214 2 -0.0439909 5.0178 12.3273 9.01953
132 2 -0.0441599 7.42146 11.0167 12.0735
264 2 0.0508183 9.14215 12.4291 15.4285
203 2 0.16799 8.92069 7.41109 8.98484
269 2 0.143476 10.3914 10.2507 13.4932
193 2 0.0644699 11.2921 9.40678 15.2715
273 2 0.180976 2.24771 13.2185 16.0741
194 2 -0.00217849 9.6264 7.65567 11.2224
191 3 -0.817788 11.9338 6.7668 9.98412
34 4 1.0243 3.63743 9.77753 12.2918
241 2 0.167757 9.66049 10.6387 15.4974
218 2 0.146969 8.60158 9.4232 8.92148
236 4 1.06518 7.47525 11.9536 15.8115
157 2 0.134723 2.87876 10.8917 10.4057
131 2 -0.0183058 6.11593 13.0817 12.2917
184 1 -0.655922 2.59046 13.0903 14.9184
43 1 -0.65699 11.2148 10.5772 14.1881
ITEM: TIMESTEP
100
ITEM: NUMBER OF ATOMS
274
ITEM: BOX BOUNDS xy xz yz pp pp pp
-8.3797999999999995e+00 1.8013900000000000e+01 -8.3797999999999995e+00
0.0000000000000000e+00 1.3274674800000000e+01 1.1950000000000001e+00
0.0000000000000000e+00 1.6075500000000002e+01 4.3124791111111116e-01
ITEM: ATOMS id type q x y z
119 2 -0.014277 7.42294 1.07268 5.20354
12 4 1.30504 -0.931226 6.21918 5.36485
7 4 1.13233 0.895078 2.18361 5.18841
9 4 1.20529 -0.535451 4.65186 1.99132
10 4 1.60904 0.446239 4.39517 7.28945
242 1 -0.685399 3.31616 0.704234 2.95058
21 4 0.778234 5.76759 1.43177 5.51509
26 4 1.30143 5.35959 4.39587 6.81569
41 1 -0.655032 0.764947 0.628177 6.29281
44 1 -0.680345 3.90769 3.88732 1.62548
55 3 -0.803105 0.928543 1.04441 1.25557
56 3 -0.822774 -0.460469 2.206 4.40069
58 3 -0.807735 -1.90676 4.39771 2.85938
59 3 -0.833959 -0.0804977 3.50311 0.939177
243 2 0.156291 3.46965 1.86426 2.83739
61 3 -0.816005 1.14646 3.47206 6.07891
62 3 -0.850846 -0.660883 5.30787 6.63195
74 3 -0.810126 5.59206 0.494741 7.2673
78 3 -0.856141 0.767557 4.96047 2.88485
81 3 -0.768669 5.52129 3.02364 5.70676
84 3 -0.813747 3.02882 5.8783 4.06039
85 3 -0.819427 4.75664 5.67266 6.02623
113 2 0.0956591 -1.57903 5.28633 4.0715
111 2 0.0103504 2.19698 1.93044 4.07833
112 2 -0.0302239 -0.944138 5.943 0.951331
5 4 1.37036 0.46753 2.16762 0.237523
118 2 -0.0225556 4.57508 0.772921 4.44219
24 4 1.29511 5.10017 4.80126 0.453268
222 3 -0.786548 6.64107 1.19148 1.00983
223 2 -0.101083 6.31342 0.885165 3.80731
141 2 0.161834 4.12866 2.77219 1.59711
142 2 0.18573 2.80093 4.12049 1.40292
143 2 0.216301 4.19554 4.35336 2.61637
220 4 0.97351 6.97112 0.261403 2.20681
244 2 0.13816 2.92556 0.319046 3.9968
135 2 0.227217 0.526523 1.20119 7.30789
25 4 1.42128 1.47114 6.22696 3.52382
248 2 0.161467 2.7717 3.20111 0.0562542
265 2 0.16838 4.13811 0.0733413 2.4132
28 4 1.24254 4.16789 6.5481 4.91509
82 3 -0.828983 1.43607 5.37297 8.0325
138 2 0.160532 1.31485 1.01385 12.6131
8 4 1.22491 1.89618 2.70811 11.1209
13 4 1.31005 0.473374 5.13867 12.3542
172 4 0.943797 -0.440097 2.71546 13.9805
20 4 1.30861 4.51279 2.82822 9.24109
23 4 1.22777 7.01472 2.96051 11.1568
99 3 -0.781475 8.0332 1.15981 8.37429
226 4 0.896469 3.85328 6.4194 15.0613
42 1 -0.671856 2.33466 1.5961 12.5452
57 3 -0.830579 0.428129 2.14846 10.6329
63 3 -0.874943 -0.18031 4.15549 13.3026
64 3 -0.823796 1.85408 4.49877 11.8671
65 3 -0.850917 -2.27539 5.97736 9.44961
66 3 -0.883492 -0.563478 5.68688 11.3236
73 3 -0.796263 3.09132 2.53762 9.8766
75 3 -0.8635 5.66859 3.09286 10.2336
76 3 -0.828303 7.09567 1.64762 12.1363
80 3 -0.802142 4.54269 3.92384 8.13166
228 2 -0.00940138 2.74619 5.12767 15.389
137 2 0.160099 3.13083 0.897028 12.135
114 2 -0.0360363 0.914442 6.30128 13.5175
229 2 -0.0232768 3.73041 6.46643 13.3527
124 2 0.0405555 3.33677 5.39035 12.0159
136 2 0.190539 2.60118 2.18985 13.5634
179 4 1.24915 7.55948 2.38548 15.5841
183 1 -0.674494 5.9972 1.56366 14.8673
77 3 -0.75889 7.03508 4.09793 15.7854
262 3 -0.795902 0.707981 2.00627 15.1917
196 2 0.190497 5.61978 2.43545 14.2559
117 2 0.0987348 4.88902 1.34919 8.46596
227 3 -0.798448 5.29248 5.91016 15.4796
195 2 0.278898 6.38666 0.705477 14.2323
245 1 -0.670199 3.1979 3.19433 15.2599
246 2 0.148702 3.19434 3.82208 14.3634
247 2 0.166487 3.61136 2.13614 15.0815
60 3 -0.808516 -0.282557 3.32506 8.47483
197 2 0.188506 5.42422 1.30709 15.7299
14 4 1.55767 -1.08347 6.65406 10.2287
133 2 0.165264 -6.65331 12.8678 6.26396
3 3 -0.803222 -5.98053 11.5476 0.767931
268 2 0.256054 -4.81196 9.28299 2.17473
16 4 1.47156 -3.25959 8.00947 6.57084
17 4 1.22208 -4.53325 10.0379 4.86135
154 2 0.173327 0.971679 9.56437 7.3607
161 2 0.179621 -1.1559 9.7093 0.537642
31 4 1.30488 -2.12071 10.3089 3.08291
33 4 1.14621 0.0611562 10.9082 5.46638
48 1 -0.637999 -1.21771 8.76824 2.40584
49 1 -0.654809 0.13249 9.35976 6.57948
69 3 -0.801926 -6.06214 10.3097 4.37444
68 3 -0.826371 -2.05271 7.41392 5.60691
271 2 0.154183 1.43235 10.1258 2.30123
70 3 -0.796323 -4.51305 8.75837 5.89431
79 3 -0.8553 0.395061 6.90141 4.92913
87 3 -0.837666 1.56004 7.33721 2.39506
30 4 1.00194 2.31996 8.10349 1.18479
89 3 -0.781036 -2.06448 11.4529 1.9928
90 3 -0.847526 -3.52085 9.79669 3.6384
93 3 -0.809909 -1.03475 10.6708 4.33835
94 3 -0.783444 -0.328185 12.0975 6.4783
115 2 -0.0369438 -3.95197 11.4332 5.6503
147 2 0.19745 1.88098 7.67003 6.51646
151 2 0.182641 -0.176065 9.14897 1.89105
152 2 0.155368 -2.00047 8.42878 1.63014
153 2 0.210289 -0.892947 7.96856 3.1566
251 1 -0.654892 -5.40046 8.9486 1.26858
155 2 0.267146 0.313674 8.41122 5.90534
156 2 0.28812 -0.878337 9.30079 7.06695
46 1 -0.660092 2.3835 7.9966 7.47712
148 2 0.175082 3.43724 7.67764 7.67141
272 2 0.17464 0.559982 10.0382 0.548783
19 4 1.32425 -1.32992 12.7524 7.76653
1 4 1.30592 -6.55833 12.6963 1.96404
2 3 -0.829288 -7.34518 11.9108 3.07685
91 3 -0.820506 -2.58108 9.40525 7.68588
149 2 0.145429 2.15931 9.11489 7.85321
47 1 -0.663488 1.59011 9.88436 1.19446
122 2 0.00381939 3.52224 7.8908 5.9006
253 2 0.155502 -4.77899 8.16074 0.676149
159 2 0.20374 1.59217 9.83099 10.8738
18 4 1.23028 -2.33707 8.34277 12.6454
22 4 1.21169 -0.581572 13.0359 12.0842
32 4 0.965779 -2.51712 10.3888 8.86765
35 4 1.21883 -1.42153 10.6785 14.3733
15 4 1.10772 -4.28454 10.7982 16.0167
160 2 0.152079 0.883324 10.6037 14.7952
50 1 -0.674279 2.30817 10.5204 11.347
51 1 -0.634103 0.0160809 10.8122 15.5644
162 2 0.214092 -0.0290685 11.9572 15.8031
72 3 -0.811579 -1.77501 8.15467 11.2055
83 3 -0.837284 0.0676773 7.31521 9.28394
88 3 -0.778612 3.36058 7.82906 15.727
92 3 -0.822847 -1.42009 11.4677 9.01704
95 3 -0.820272 3.77072 8.02152 12.0121
96 3 -0.793819 -1.35936 9.30404 13.5183
97 3 -0.784839 -1.29659 12.1531 13.1778
98 3 -0.779214 -2.86929 10.7491 15.243
116 2 -0.0347573 -3.87157 9.05596 12.5138
120 2 0.0592709 -0.912826 12.4075 10.5281
126 2 0.0886803 -2.24892 9.35609 10.1353
127 2 -0.0601997 -3.99281 11.0061 9.2219
128 2 0.0195232 2.23499 10.0857 13.2786
139 2 0.160799 -4.55308 10.8324 13.5511
71 3 -0.811705 -2.67501 6.99087 13.5061
158 2 0.244738 1.82459 11.4632 11.7864
140 2 0.162903 -5.8906 11.7217 14.4066
29 4 0.977455 3.65752 6.74381 11.1047
86 3 -0.826098 2.61057 6.89991 10.0186
43 1 -0.65329 -5.55269 10.701 14.0479
27 4 1.39868 1.51286 6.78399 8.81443
187 3 -0.795805 1.0493 13.0111 12.3214
235 2 0.157796 11.4387 1.65501 3.24851
37 4 1.24928 13.051 1.83276 5.85567
225 2 0.0922497 8.88549 0.337526 3.34983
39 4 1.28145 11.264 3.94954 7.26764
45 1 -0.664536 7.14161 5.06521 7.25244
54 1 -0.659185 10.8947 5.46893 6.18076
101 3 -0.809616 13.9922 2.94799 5.07901
102 3 -0.844784 13.8272 0.916669 6.92247
250 2 0.188411 11.3729 4.94766 0.331899
4 4 1.44953 14.9253 2.67886 3.80685
106 3 -0.809371 11.8626 2.67417 6.49435
232 3 -0.825634 14.3722 1.48487 2.89846
129 2 -0.000685231 12.2649 0.813804 4.68813
130 2 0.0473952 7.78422 5.83277 3.85765
234 2 0.173498 11.2767 0.485181 1.76657
169 2 0.191794 11.6897 5.33371 5.39143
146 2 0.208456 7.73776 4.19974 6.83388
103 3 -0.773697 6.05182 5.89447 1.58853
145 2 0.166433 7.26987 6.04671 6.70644
170 2 0.232001 10.8425 6.44705 6.75384
171 2 0.163992 9.91487 5.26315 5.67086
231 1 -0.639855 11.5924 0.587937 2.8645
224 2 0.165904 9.21604 1.10953 1.436
221 1 -0.625563 8.80241 0.164963 1.99434
230 4 1.1049 13.681 0.0943026 2.56185
105 3 -0.757186 9.59387 3.45593 7.88433
273 2 0.186462 9.4312 0.176399 0.0431371
266 2 0.0665132 13.6109 4.78129 0.00451105
11 4 1.51222 13.0454 6.07676 8.87452
36 4 1.29101 9.06004 2.37173 9.04956
52 1 -0.67642 10.4902 1.51567 9.87149
177 2 0.168813 14.0476 0.776407 13.8368
100 3 -0.830237 8.26511 3.15353 10.1979
107 3 -0.798192 12.3016 4.40452 8.43077
110 2 0.018642 14.8308 2.89818 10.3921
188 3 -0.76534 8.78848 2.11099 14.5422
202 2 0.176033 13.9124 3.79445 11.6066
163 2 0.184239 11.3958 2.20479 10.1088
249 1 -0.646964 13.4127 5.98225 15.9993
165 2 0.237957 10.1006 0.949872 10.863
123 2 -0.0307625 5.15115 6.62115 10.3368
173 1 -0.639888 14.6177 1.70534 13.4299
174 2 0.0602363 14.618 2.7467 14.7116
175 2 0.0549001 16.1003 1.3768 12.8266
176 2 0.16516 14.024 2.31264 12.5953
164 2 0.160504 10.6999 0.736065 9.02273
178 4 1.11337 13.7352 5.72939 14.3578
180 4 1.21156 10.1113 1.46151 13.7201
181 4 1.35812 11.7481 3.93936 12.5604
205 2 0.186755 9.23858 5.38872 9.22861
185 1 -0.689101 12.9956 3.27142 11.1342
6 4 1.3302 16.1258 2.23997 9.51889
189 3 -0.819113 11.1462 2.58158 13.0528
190 3 -0.784471 12.6926 4.74494 13.6531
192 3 -0.787944 10.851 5.10184 11.9575
263 3 -0.847345 15.6059 0.926173 8.91515
199 2 0.167063 12.1188 1.05684 14.864
200 2 0.24265 12.6658 3.70349 10.0548
201 2 0.139105 12.9314 2.10033 11.2751
182 4 1.04768 10.6956 6.22934 10.7371
144 2 0.199753 7.22957 5.11034 8.3827
204 2 0.16122 8.21957 6.30143 10.6403
186 1 -0.6705 8.98386 6.47034 9.87827
184 1 -0.639631 11.0402 0.540207 14.9952
121 2 -0.00585561 7.12413 4.31723 12.1333
233 2 0.171714 2.69642 12.5904 3.46279
255 2 0.146356 1.57866 12.3678 4.70096
167 2 0.178437 9.36754 7.13525 2.83308
53 1 -0.63783 8.40903 7.35086 3.26024
104 3 -0.817617 5.32841 7.21511 3.85265
237 1 -0.666914 7.60467 10.2951 0.168414
125 2 -0.0110223 3.95145 8.29304 1.52129
150 2 0.159587 2.49954 10.3992 0.750316
166 2 0.0448062 7.46769 8.24247 2.21081
168 2 0.157789 8.54283 8.00933 4.20058
206 4 1.23331 9.28927 10.6135 3.94551
215 2 0.165231 5.25305 9.23428 6.57835
208 4 1.0372 7.5892 10.1202 6.66631
209 1 -0.667226 6.18508 8.95502 6.124
261 2 0.205443 6.20847 12.3422 4.84297
211 3 -0.792789 8.43268 10.542 5.36551
212 3 -0.754725 6.68675 11.5632 7.5878
213 2 -0.0134697 8.7337 9.26805 3.03653
254 1 -0.686115 1.74682 11.1783 4.65781
216 2 0.143898 6.67186 7.96202 6.62422
217 2 0.200442 6.10834 8.84437 5.01315
219 2 0.198771 9.6645 9.20227 7.39014
252 2 0.153881 10.3952 8.5704 1.54966
257 2 0.150404 2.52388 10.843 5.34736
238 3 -0.770943 5.46979 12.1204 1.05494
240 2 0.163028 7.93212 10.5152 1.18798
38 4 1.0068 6.4728 6.71153 2.86267
67 3 -0.852928 12.948 6.93062 7.60021
258 1 -0.686208 5.67205 11.8571 3.98233
259 2 0.147229 6.28377 10.9828 3.4996
260 2 0.144596 4.66376 11.4907 4.31449
274 2 0.144372 8.26922 8.00506 8.02324
239 2 0.139449 6.83543 9.32693 0.107928
267 2 0.171175 12.2602 6.56566 0.3678
210 1 -0.666424 8.67118 9.097 7.93314
270 2 0.185391 0.874918 12.0395 1.64521
256 2 0.154349 1.83689 10.7147 3.63868
134 2 0.23803 8.28082 12.9297 5.84213
198 2 0.146093 2.54069 12.2476 14.4483
40 4 0.92826 6.05803 11.5012 13.0016
108 3 -0.825263 4.87776 10.5319 12.6959
109 3 -0.810224 6.65997 11.6235 14.4325
214 2 -0.0356021 4.86877 12.5921 9.10641
132 2 -0.0342151 7.31653 11.1771 11.9462
264 2 0.0756016 9.05733 12.581 15.6342
203 2 0.161959 8.77774 7.47507 9.18358
269 2 0.144406 10.6234 10.3644 13.1864
193 2 0.0587463 11.1163 9.60652 15.3592
131 2 -0.021963 5.85636 13.0074 12.2595
194 2 0.011516 9.70138 7.56917 11.3261
191 3 -0.836659 12.0065 6.69891 10.0128
34 4 1.03797 3.66174 9.60128 12.391
241 2 0.162579 9.71563 10.6838 15.3454
218 2 0.162584 8.68212 9.65594 8.8782
236 4 1.02296 7.41557 11.9256 15.8135
157 2 0.139453 3.09707 10.8235 10.5155
207 4 1.25727 6.14093 12.9204 8.05242
ITEM: TIMESTEP
200
ITEM: NUMBER OF ATOMS
274
ITEM: BOX BOUNDS xy xz yz pp pp pp
-8.3797999999999995e+00 1.8013900000000000e+01 -8.3797999999999995e+00
0.0000000000000000e+00 1.3276149600000000e+01 1.1950000000000001e+00
0.0000000000000000e+00 1.6075500000000002e+01 4.3129582222222140e-01
ITEM: ATOMS id type q x y z
119 2 -0.0265597 7.43594 1.30416 5.08273
12 4 1.31758 -0.891099 6.24372 5.30171
7 4 1.08631 0.868631 2.05768 5.21085
9 4 1.24465 -0.45024 4.55314 1.9145
10 4 1.60123 0.368102 4.39325 7.33437
242 1 -0.687227 3.24187 0.511749 3.0319
21 4 0.768627 5.80841 1.41111 5.51712
26 4 1.22863 5.43413 4.40189 6.68445
41 1 -0.651814 0.567998 0.474509 6.1524
44 1 -0.681206 3.97135 3.86715 1.7048
55 3 -0.810589 1.06223 0.995908 1.08278
56 3 -0.794317 -0.465523 2.29884 4.30804
58 3 -0.813045 -1.73479 4.28396 2.86515
59 3 -0.860798 -0.172848 3.39533 0.861386
243 2 0.150214 3.39554 1.61659 3.32555
61 3 -0.762595 1.10633 3.1668 6.35294
62 3 -0.870748 -0.673952 5.22393 6.48252
74 3 -0.783557 5.64623 0.436354 7.25663
78 3 -0.848331 0.834041 5.01904 2.74458
81 3 -0.78667 5.48424 3.03352 5.75974
84 3 -0.787358 3.05245 5.94803 3.93795
85 3 -0.779902 4.73733 5.71648 5.95987
113 2 0.0930481 -1.67433 5.31622 4.1379
111 2 -0.00633901 2.2786 1.79614 4.16093
112 2 -0.0269611 -0.887172 5.98526 1.08973
5 4 1.35206 0.380159 2.0951 0.179611
118 2 -0.0263682 4.62585 0.731762 4.4844
24 4 1.26073 5.14365 4.83665 0.544194
222 3 -0.782619 6.36204 1.16053 1.04535
223 2 -0.0906942 6.38756 0.794127 3.81933
141 2 0.167073 4.17273 2.78633 1.40534
142 2 0.192209 2.93414 4.21144 1.47426
143 2 0.215069 4.31304 4.05878 2.78665
220 4 1.05132 6.90707 0.236567 2.16571
265 2 0.188898 3.98355 0.11477 2.1394
135 2 0.230789 0.812723 0.716691 7.2674
25 4 1.41292 1.51791 6.33712 3.45153
248 2 0.157224 2.78794 3.18983 0.185409
82 3 -0.786084 1.54072 5.44546 7.98829
138 2 0.178422 1.79111 1.03525 12.7718
8 4 1.251 1.93565 2.71533 11.0723
13 4 1.27553 0.463355 5.11017 12.3273
123 2 -0.0155434 5.09686 6.11322 10.7355
20 4 1.29339 4.5506 2.73958 9.27302
23 4 1.29304 6.91121 2.98716 11.1819
99 3 -0.823073 8.1288 1.27913 8.30322
226 4 0.894348 3.84454 6.36147 15.2018
42 1 -0.66833 2.64379 1.71558 12.5201
57 3 -0.810101 0.412541 2.09662 10.6302
63 3 -0.84142 -0.147287 4.02531 13.3357
64 3 -0.810094 1.82858 4.49669 11.8806
65 3 -0.865991 -2.30737 5.99717 9.45602
66 3 -0.885934 -0.440768 5.6145 11.1553
73 3 -0.789078 3.09958 2.5468 9.93701
75 3 -0.850358 5.53358 2.91263 10.4888
76 3 -0.853584 7.1662 1.57204 11.8434
80 3 -0.732498 4.68286 4.00112 8.41848
228 2 -0.0174747 2.83572 5.05665 15.6034
137 2 0.180174 3.55265 1.24268 11.9716
114 2 -0.0456341 0.871974 6.54488 13.0715
229 2 -0.0405781 3.70125 6.45474 13.4888
124 2 0.0510476 3.34082 5.2067 12.0875
136 2 0.180225 2.91776 2.26368 13.5084
179 4 1.24773 7.48417 2.3532 15.5399
183 1 -0.687513 6.04719 1.53955 14.6637
29 4 0.956139 3.55938 6.6893 11.2591
262 3 -0.778314 0.464981 1.8965 15.0785
196 2 0.16694 5.62821 2.42082 14.1494
117 2 0.0991521 5.04579 1.31628 8.39121
227 3 -0.780566 5.34595 6.06071 15.5367
195 2 0.280069 6.46264 0.72608 13.9124
245 1 -0.643538 3.22615 3.13467 15.4207
246 2 0.123448 3.00052 3.79702 14.4432
247 2 0.17017 3.6671 2.08087 15.1667
60 3 -0.852644 -0.217445 3.4503 8.47009
197 2 0.18956 5.3902 1.17806 15.4791
121 2 -0.0190739 6.76832 4.15138 12.395
14 4 1.49659 -1.08849 6.68113 10.2191
6 4 1.34307 -0.670834 2.41998 9.47132
133 2 0.183369 -7.06779 12.6007 5.67612
3 3 -0.793323 -5.95171 11.5609 0.885572
268 2 0.267093 -4.6265 9.37938 2.13364
16 4 1.47026 -3.16262 8.0894 6.63208
17 4 1.18961 -4.45663 10.1191 5.02196
154 2 0.156435 0.970959 9.43729 7.32219
161 2 0.179239 -1.11792 9.42478 0.340717
31 4 1.25406 -2.17285 10.1104 3.09502
33 4 1.15421 -0.0231945 10.9326 5.49218
48 1 -0.658428 -1.25825 8.64942 2.23413
49 1 -0.661324 0.10071 9.37022 6.52046
69 3 -0.800256 -6.02679 10.4475 4.52123
68 3 -0.831587 -1.95752 7.40199 5.71373
271 2 0.15412 1.26549 10.3043 2.26883
70 3 -0.819395 -4.31744 8.72771 5.80424
79 3 -0.86478 0.436768 6.88047 4.80849
87 3 -0.823916 1.6402 7.581 2.38387
30 4 1.06562 2.32472 8.21213 1.12915
89 3 -0.729351 -1.87098 11.5813 2.0048
90 3 -0.841099 -3.64225 10.0574 3.52107
93 3 -0.780645 -1.11681 10.5557 4.31583
94 3 -0.846426 -0.490306 12.1014 6.43181
115 2 -0.0177001 -3.90281 11.3752 5.95132
147 2 0.191234 1.99437 7.50769 6.56019
151 2 0.21299 -0.190821 9.0612 1.83435
152 2 0.145944 -2.12344 8.42767 1.52267
153 2 0.17799 -1.20321 7.80121 3.04193
251 1 -0.667133 -5.21619 8.95884 1.20369
155 2 0.264033 0.269407 8.37715 5.88738
156 2 0.281566 -0.940573 9.4105 6.991
46 1 -0.670834 2.53717 7.92865 7.44756
148 2 0.186117 3.60188 7.62606 7.5268
272 2 0.183532 0.542578 9.98785 0.424094
19 4 1.33409 -1.1756 12.802 7.73752
1 4 1.27792 -6.66527 12.6557 1.99962
244 2 0.15459 -5.1688 12.6427 3.90102
91 3 -0.843043 -2.54215 9.59587 7.62644
149 2 0.143087 2.31509 9.0185 7.59536
47 1 -0.655339 1.46437 9.9092 1.09415
122 2 -0.0160539 3.3969 8.03912 5.62076
253 2 0.160285 -4.64886 8.0896 0.769761
267 2 0.159941 -4.10204 6.83583 0.268288
28 4 1.21424 4.15747 6.73344 4.8687
270 2 0.190652 0.682001 11.7564 1.55745
159 2 0.179803 1.4736 9.64883 11.1596
18 4 1.22457 -2.29712 8.31367 12.7696
22 4 1.27808 -0.561112 12.9723 12.0067
32 4 0.967687 -2.35974 10.4317 8.95897
35 4 1.24149 -1.47042 10.7159 14.3116
15 4 1.10471 -4.20665 10.8332 16.0711
160 2 0.180669 0.735507 9.94112 14.6335
50 1 -0.658744 2.25669 10.4604 11.5263
51 1 -0.637488 0.0873581 10.4578 15.3605
162 2 0.180378 0.370338 11.5787 15.4894
72 3 -0.82599 -1.94561 8.04053 11.2808
83 3 -0.830701 -0.00763773 7.4417 9.17265
88 3 -0.801487 3.35384 7.76762 15.8856
92 3 -0.840731 -1.39902 11.6078 9.19199
95 3 -0.81618 3.82617 8.08207 12.0079
96 3 -0.817422 -1.29451 9.36036 13.5158
97 3 -0.823495 -1.26982 12.1412 13.0673
98 3 -0.801202 -2.84871 10.8295 15.2362
116 2 -0.0337261 -3.60747 9.23471 12.5318
120 2 0.0968187 -0.790909 12.1702 10.5784
126 2 0.0742107 -2.04326 9.32141 10.1389
127 2 -0.0473834 -3.85965 10.7911 9.5408
128 2 0.0122876 2.27184 9.98314 13.4354
139 2 0.155494 -4.64054 10.8669 13.5844
71 3 -0.849018 -2.66016 6.97961 13.623
158 2 0.237204 1.6571 11.4131 11.9841
140 2 0.172081 -5.87972 11.9481 14.51
27 4 1.35533 1.51378 6.83308 8.77112
86 3 -0.787545 2.5696 6.76225 10.0314
43 1 -0.650634 -5.63546 10.8816 14.1623
187 3 -0.832272 0.979955 13.0206 12.2495
235 2 0.171953 11.3813 1.62523 3.23916
37 4 1.2943 13.0075 1.79628 5.95923
225 2 0.125968 8.98943 0.164253 3.12492
39 4 1.3477 11.2928 3.90907 7.38654
45 1 -0.672579 7.21122 4.68239 7.11775
54 1 -0.649797 11.0015 5.22214 6.02653
101 3 -0.833222 13.8894 2.68148 4.92247
102 3 -0.871431 13.746 1.06104 7.09211
250 2 0.141571 11.1586 5.33616 0.182744
4 4 1.47766 14.8259 2.5931 3.67214
106 3 -0.822184 11.8556 2.71745 6.52914
232 3 -0.82996 14.3164 1.4131 2.74515
129 2 -0.00471652 12.2088 0.667929 4.86405
130 2 0.0482657 7.89882 5.63252 3.58092
234 2 0.170734 11.3968 0.355051 1.91109
169 2 0.208664 12.0132 5.2334 5.45776
146 2 0.188278 7.79419 4.02105 6.45647
103 3 -0.774653 5.95668 5.86864 1.50558
145 2 0.155784 7.40275 5.79997 6.92064
170 2 0.225322 10.9038 6.18259 6.49518
171 2 0.160225 10.0487 4.94524 5.42817
231 1 -0.651888 11.682 0.575148 3.01483
224 2 0.16741 9.05852 0.865646 1.34263
266 2 0.0929186 13.4489 4.78007 0.0786032
134 2 0.237243 16.2941 0.290001 5.9191
11 4 1.51471 13.082 6.18243 8.8808
36 4 1.31018 9.01872 2.40248 9.12299
52 1 -0.671111 10.4831 1.65724 9.97891
177 2 0.179012 14.1496 0.764604 13.7564
100 3 -0.827565 8.08876 3.30025 10.1935
107 3 -0.790973 12.3263 4.5656 8.52804
110 2 0.0262835 14.7567 3.16115 10.2648
188 3 -0.789188 8.78316 2.06144 14.6217
202 2 0.180783 13.8782 3.761 11.7333
163 2 0.194883 11.3993 2.28975 10.3713
249 1 -0.624274 13.5808 6.17277 16.0585
165 2 0.240955 10.0345 1.04103 10.898
77 3 -0.727806 7.27957 4.07323 15.7793
173 1 -0.684669 14.6953 1.57691 13.2519
174 2 0.0365226 14.4608 2.82268 14.6859