ITEM: TIMESTEP
0
ITEM: NUMBER OF ATOMS
274
ITEM: BOX BOUNDS xy xz yz pp pp pp
-8.3797999999999995e+00 1.8013900000000000e+01 -8.3797999999999995e+00
0.0000000000000000e+00 1.3273200000000001e+01 1.1950000000000001e+00
0.0000000000000000e+00 1.6075500000000002e+01 4.3120000000000003e-01
ITEM: ATOMS id type q x y z
119 2 -0.00752243 7.56094 1.08809 5.23229
12 4 1.26263 -1.05672 6.2564 5.49774
7 4 1.16479 1.05606 2.32802 5.14415
9 4 1.26104 -0.476995 4.60121 1.88531
10 4 1.60452 0.32634 4.32262 7.36578
242 1 -0.659361 3.31885 0.672361 2.98819
21 4 0.794931 5.91587 1.4418 5.49188
26 4 1.28134 5.26117 4.49648 6.83159
41 1 -0.666569 1.07888 0.807425 6.33011
44 1 -0.666023 3.7639 4.03166 1.67874
55 3 -0.801177 1.08221 1.1628 1.22924
56 3 -0.846894 -0.266656 2.39059 4.3466
58 3 -0.775768 -1.7736 4.36409 2.86899
59 3 -0.869379 -0.0552413 3.56565 0.820396
243 2 0.154761 3.45123 1.82963 2.60701
61 3 -0.789507 1.28637 3.51965 6.0847
62 3 -0.85926 -0.841086 5.21923 6.69028
74 3 -0.783786 5.64293 0.418897 7.11798
78 3 -0.869022 0.610031 5.03655 2.98287
81 3 -0.772538 5.66418 2.96127 5.92567
84 3 -0.788841 2.81057 5.80917 4.20274
85 3 -0.805056 4.70164 5.67774 5.91606
113 2 0.105096 -1.58802 5.368 4.10952
111 2 0.0108412 2.43584 2.06953 4.09254
112 2 -0.0198496 -0.85755 6.00902 1.07987
5 4 1.34809 0.441621 2.17587 0.179553
118 2 -0.0107726 4.69382 0.915758 4.3356
24 4 1.28415 5.03905 4.87915 0.472272
222 3 -0.76475 6.53983 1.32574 1.19482
223 2 -0.0928813 6.51891 0.791639 3.80657
141 2 0.158248 3.74237 2.84005 1.72247
142 2 0.182535 2.74971 4.48619 1.4537
143 2 0.209199 4.23773 4.48634 2.63809
220 4 1.02869 7.00665 0.211834 2.16755
244 2 0.121136 2.99438 0.413039 4.10206
135 2 0.229628 0.981977 1.3426 7.37341
25 4 1.41583 1.31443 6.23552 3.65361
248 2 0.154238 2.7321 3.35553 0.13157
133 2 0.159316 2.02454 0.290912 6.22798
138 2 0.163108 1.39416 1.10598 12.6799
8 4 1.20513 1.87049 2.70022 11.0801
13 4 1.29943 0.557087 5.10228 12.4231
82 3 -0.833032 1.37351 5.19043 8.17435
20 4 1.24224 4.61283 2.81304 9.19617
23 4 1.29689 7.00733 2.89227 11.1406
99 3 -0.836849 8.05738 1.15606 8.35257
226 4 0.899992 3.79777 6.45537 15.098
42 1 -0.653316 2.39657 1.66618 12.5474
57 3 -0.798357 0.317641 2.1242 10.5239
63 3 -0.882075 -0.222108 4.18153 13.3587
64 3 -0.80876 1.9137 4.50162 11.8749
65 3 -0.835256 -2.29471 5.85929 9.62148
66 3 -0.847752 -0.286075 5.72537 11.2626
73 3 -0.761412 3.20399 2.45471 10.1224
75 3 -0.857176 5.7052 2.96424 10.3024
76 3 -0.863418 7.05392 1.57627 11.9313
80 3 -0.794373 4.5508 4.12082 8.26656
228 2 -0.00244515 2.7064 5.15697 15.4317
137 2 0.178384 3.30552 1.08036 12.0214
114 2 -0.0197666 1.06528 6.5527 13.2047
229 2 -0.0395984 3.71547 6.67048 13.3489
124 2 0.0572191 3.371 5.32055 12.0228
136 2 0.185079 2.71497 2.30142 13.4899
179 4 1.28954 7.59796 2.5296 15.6454
183 1 -0.658888 6.22656 1.37343 15.0462
77 3 -0.786205 7.13624 4.02229 15.8362
262 3 -0.827529 0.511704 2.09862 15.0849
196 2 0.169249 5.54254 2.10085 14.5233
117 2 0.0919086 5.03237 1.47101 8.20108
227 3 -0.816434 5.28859 6.08152 15.4858
195 2 0.281325 6.5733 0.538766 14.3651
245 1 -0.652061 3.19404 3.23584 15.2384
246 2 0.138905 3.22107 3.85239 14.3146
247 2 0.162005 3.58595 2.20035 14.9892
27 4 1.33921 1.7195 6.63762 8.75691
60 3 -0.866285 -0.352627 3.18633 8.22809
266 2 0.0820308 -1.81921 5.20395 15.7503
14 4 1.53625 -1.10779 6.69071 10.2929
197 2 0.204408 5.74275 0.920218 16.0115
265 2 0.186813 -4.37578 12.6628 2.43879
3 3 -0.778029 -6.01006 11.6493 0.933254
268 2 0.273918 -4.74148 9.32545 2.06825
16 4 1.42087 -3.24639 7.94689 6.66532
17 4 1.2147 -4.55305 9.85486 4.70904
154 2 0.167081 0.919266 9.57543 7.37447
161 2 0.195541 -1.00667 9.76971 0.38206
31 4 1.25293 -2.04543 10.1905 3.09161
33 4 1.12288 0.0998973 11.0251 5.4851
48 1 -0.657003 -1.24019 8.78784 2.13555
49 1 -0.650156 0.102916 9.47141 6.53327
69 3 -0.793663 -6.11152 10.1277 4.35945
68 3 -0.845413 -2.10122 7.43688 5.65295
271 2 0.148804 1.48393 10.3138 2.3709
70 3 -0.751857 -4.53853 8.50569 5.61138
79 3 -0.834499 0.392623 7.05147 4.95962
87 3 -0.788044 1.6964 7.41776 2.407
30 4 0.993731 2.32593 8.15941 1.14155
89 3 -0.73984 -2.00887 11.5648 1.94545
90 3 -0.858453 -3.56793 9.93463 3.4335
93 3 -0.812249 -0.91466 10.6536 4.29893
94 3 -0.826042 -0.263526 12.2141 6.57606
115 2 -0.0205655 -4.13621 11.1057 5.81295
147 2 0.201697 1.89188 7.39446 6.57072
151 2 0.194462 -0.141995 9.17713 1.82998
152 2 0.170853 -1.91518 8.445 1.27934
153 2 0.181306 -1.26672 7.95433 2.95836
251 1 -0.66234 -5.42075 8.92893 1.24941
155 2 0.285041 0.259154 8.52951 5.90591
156 2 0.280568 -0.968924 9.44867 6.99299
46 1 -0.681635 2.41727 7.86336 7.41555
148 2 0.170301 3.54906 7.62546 7.6034
272 2 0.17342 0.699129 10.0713 0.526387
19 4 1.35334 -1.18368 12.7824 7.74203
1 4 1.26058 -6.6418 12.7353 2.05056
28 4 1.23031 4.07048 6.64183 4.85755
91 3 -0.820798 -2.5867 9.51708 7.67241
149 2 0.161977 2.16254 8.95408 7.57492
47 1 -0.651845 1.67413 9.93179 1.2254
122 2 -0.00133078 3.46417 8.08834 5.73322
159 2 0.205894 1.45753 9.81473 11.0993
18 4 1.19168 -2.27796 8.40691 12.8261
22 4 1.29267 -0.66063 13.0041 12.0636
32 4 0.937105 -2.52968 10.437 8.9536
35 4 1.19038 -1.36833 10.7352 14.4225
15 4 1.02218 -4.18215 10.7797 16.028
160 2 0.17401 1.05023 10.2987 14.7787
50 1 -0.661899 2.15183 10.6483 11.3593
51 1 -0.645209 0.243927 10.7587 15.4272
162 2 0.200228 0.341664 11.8669 15.5647
72 3 -0.794616 -1.87379 8.02457 11.2481
83 3 -0.754663 0.000772791 7.29704 9.28019
88 3 -0.788833 3.18184 7.74064 15.749
92 3 -0.818315 -1.45198 11.5405 9.20907
95 3 -0.794543 3.67508 8.24454 11.8244
96 3 -0.768331 -1.09043 9.24724 13.5788
97 3 -0.824975 -1.22309 12.1854 13.1977
98 3 -0.801786 -2.71331 10.7437 15.3346
116 2 -0.0531796 -3.6409 9.44925 12.6017
120 2 0.0970231 -0.954537 12.1463 10.5933
126 2 0.0619462 -2.31778 9.4407 10.2962
127 2 -0.04668 -4.03198 11.1014 9.22848
128 2 0.0230242 2.24903 10.0965 13.2726
139 2 0.142084 -4.61929 10.5554 13.6291
71 3 -0.838405 -2.67628 7.06558 13.5362
158 2 0.242106 1.63647 11.6234 11.7091
140 2 0.153291 -5.86935 11.6419 14.609
29 4 0.939598 3.76627 6.7698 11.1284
86 3 -0.795297 2.80887 6.83066 9.89637
187 3 -0.813191 0.897262 13.1255 12.2742
235 2 0.162305 11.5707 1.50688 3.09056
37 4 1.23096 13.0125 1.87151 5.79771
225 2 0.127047 9.13659 0.305443 3.08673
39 4 1.38461 11.2092 3.82617 7.39292
45 1 -0.659284 6.93838 5.21097 7.43016
54 1 -0.625225 10.7037 5.32965 6.25443
101 3 -0.836608 14.024 2.88748 5.02834
102 3 -0.821957 13.8222 0.869233 6.88424
250 2 0.182919 11.559 4.60106 0.151995
4 4 1.47076 15.0551 2.70103 3.88577
106 3 -0.812786 11.772 2.67806 6.37064
232 3 -0.792722 14.4035 1.56826 2.79665
129 2 0.00456673 12.2728 0.865649 4.57956
130 2 0.063539 7.8616 5.84078 3.48594
234 2 0.177126 11.5018 0.305133 1.694
169 2 0.220885 11.6478 5.51815 5.68998
146 2 0.2005 7.69938 4.48114 6.98476
103 3 -0.807876 5.90122 5.83359 1.46404
145 2 0.16701 7.1062 6.24095 7.10138
170 2 0.197622 10.5603 6.29327 6.9494
171 2 0.173234 9.74029 5.08613 5.65614
231 1 -0.664041 11.7513 0.427595 2.75247
224 2 0.167218 9.05239 0.923204 1.26892
267 2 0.163839 12.3215 6.40426 0.17244
230 4 1.12356 13.7263 0.153585 2.49166
105 3 -0.799951 9.74843 3.3254 7.88217
134 2 0.239546 16.9794 0.183489 5.98643
11 4 1.42503 13.011 5.98955 8.92926
36 4 1.31073 9.04738 2.27509 9.00377
52 1 -0.665228 10.5409 1.49234 9.90941
177 2 0.174319 13.8918 0.813051 13.8277
100 3 -0.805997 8.35911 3.11969 10.2788
107 3 -0.834782 12.1873 4.29678 8.45903
110 2 0.011649 14.657 2.95272 10.0832
188 3 -0.816044 8.87492 1.97395 14.7243
202 2 0.172429 13.9608 3.82491 11.6085
163 2 0.196 11.3582 2.20163 10.2323
249 1 -0.637791 13.5816 5.74101 15.881
165 2 0.248223 10.0966 0.884322 10.8934
172 4 1.01172 16.2675 2.76772 14.1276
173 1 -0.631483 14.4871 1.76947 13.5703
174 2 0.0911881 14.5225 2.6343 14.7362
175 2 0.0541929 15.9632 1.23316 12.9791
176 2 0.162158 13.9296 2.33937 12.6155
164 2 0.151517 10.8437 0.740679 9.09292
178 4 1.1261 13.6948 5.67136 14.1657
180 4 1.26354 9.97817 1.40357 13.8252
181 4 1.31246 11.7681 3.91252 12.4939
205 2 0.192342 9.25066 5.42273 9.23729
185 1 -0.683199 12.9518 3.29586 11.0822
6 4 1.31402 16.0078 2.26724 9.37003
189 3 -0.769313 10.9909 2.52656 13.1809
190 3 -0.83869 12.854 4.55765 13.509
192 3 -0.784871 10.7661 4.98018 11.8066
263 3 -0.836424 15.5863 0.832632 8.90091
199 2 0.179213 12.0137 0.593333 14.6954
200 2 0.257312 12.6832 3.65114 9.98759
201 2 0.124209 12.8352 2.10651 11.3104
182 4 1.02366 10.6345 6.28509 10.7668
144 2 0.189257 6.86979 5.2152 8.56606
204 2 0.14923 8.05958 6.49611 10.4255
186 1 -0.662908 8.979 6.52159 9.77577
121 2 -0.0140666 6.89161 4.12559 12.308
123 2 -0.0488038 5.32982 6.37975 10.7197
233 2 0.17127 2.87273 12.464 3.41801
255 2 0.144795 1.9143 12.261 4.99435
167 2 0.1682 9.14349 7.56935 2.76479
53 1 -0.631236 8.09628 7.5603 3.22543
104 3 -0.832576 5.25917 7.16601 3.89435
237 1 -0.664481 7.6207 10.282 0.249878
125 2 -0.0142766 4.03859 8.14162 1.41704
150 2 0.134733 2.7154 10.3884 0.750336
166 2 0.0453545 7.17295 8.32184 2.07154
168 2 0.180959 8.0695 8.16375 4.15637
206 4 1.16066 9.19802 10.6002 3.8898
215 2 0.148641 5.29412 9.08197 7.24275
208 4 1.08259 7.4943 10.16 6.72392
209 1 -0.661957 6.09087 8.83975 6.44756
261 2 0.20315 5.98482 12.2786 4.90293
211 3 -0.756394 8.22612 10.5171 5.27338
212 3 -0.787005 6.84073 11.5071 7.40651
213 2 -0.0193363 8.54053 9.46825 2.86785
254 1 -0.671666 1.83338 11.1317 4.68343
216 2 0.169849 6.59222 7.87129 6.62787
217 2 0.18133 5.68704 8.97662 5.37275
219 2 0.201275 9.65692 9.58436 7.29426
252 2 0.149139 10.3298 8.96525 1.55482
257 2 0.140264 2.61678 10.4083 5.19353
238 3 -0.785477 5.74029 12.1985 1.03158
240 2 0.157032 7.9765 10.5232 1.33332
38 4 1.00235 6.30548 6.76303 2.75849
67 3 -0.855232 13.0193 6.80786 7.52663
258 1 -0.664784 5.586 11.7977 3.90562
259 2 0.170885 6.45984 11.097 3.51167
260 2 0.144319 4.6265 11.1611 4.09076
274 2 0.152894 8.70828 8.00769 7.59878
239 2 0.12091 6.77228 9.34788 0.186639
207 4 1.22999 6.19971 12.8471 8.02362
210 1 -0.655165 8.79016 9.12926 7.80659
2 3 -0.786603 9.10891 12.0769 3.21963
221 1 -0.657851 0.452079 12.8618 1.96398
270 2 0.186777 0.960756 11.8781 1.63717
253 2 0.158719 11.6666 7.95083 0.769094
256 2 0.160955 1.61864 10.9223 3.57928
198 2 0.162118 2.25171 12.1133 14.3896
40 4 0.899521 6.16957 11.5415 13.0087
108 3 -0.819424 4.88162 10.6744 12.6363
109 3 -0.824247 6.64828 11.7343 14.4993
214 2 -0.0439909 5.0178 12.3273 9.01953
132 2 -0.0441599 7.42146 11.0167 12.0735
264 2 0.0508183 9.14215 12.4291 15.4285
203 2 0.16799 8.92069 7.41109 8.98484
269 2 0.143476 10.3914 10.2507 13.4932
193 2 0.0644699 11.2921 9.40678 15.2715
273 2 0.180976 2.24771 13.2185 16.0741
194 2 -0.00217849 9.6264 7.65567 11.2224
191 3 -0.817788 11.9338 6.7668 9.98412
34 4 1.0243 3.63743 9.77753 12.2918
241 2 0.167757 9.66049 10.6387 15.4974
218 2 0.146969 8.60158 9.4232 8.92148
236 4 1.06518 7.47525 11.9536 15.8115
157 2 0.134723 2.87876 10.8917 10.4057
131 2 -0.0183058 6.11593 13.0817 12.2917
184 1 -0.655922 2.59046 13.0903 14.9184
43 1 -0.65699 11.2148 10.5772 14.1881
ITEM: TIMESTEP
100
ITEM: NUMBER OF ATOMS
274
ITEM: BOX BOUNDS xy xz yz pp pp pp
-8.3797999999999995e+00 1.8013900000000000e+01 -8.3797999999999995e+00
0.0000000000000000e+00 1.3273200000000001e+01 1.1950000000000001e+00
0.0000000000000000e+00 1.6077286166666667e+01 4.3120000000000003e-01
ITEM: ATOMS id type q x y z
119 2 -0.0142718 7.42294 1.07265 5.20355
12 4 1.30504 -0.931234 6.21918 5.36486
7 4 1.13233 0.895074 2.1836 5.18841
9 4 1.20529 -0.535454 4.65186 1.99132
10 4 1.60904 0.44624 4.39517 7.28945
242 1 -0.685397 3.31615 0.704237 2.95058
21 4 0.778235 5.76758 1.43178 5.5151
26 4 1.30144 5.35959 4.39587 6.81569
41 1 -0.655032 0.764975 0.628135 6.29278
44 1 -0.680345 3.90769 3.88732 1.62549
55 3 -0.803106 0.928541 1.04441 1.25557
56 3 -0.822779 -0.460471 2.20599 4.4007
58 3 -0.807736 -1.90676 4.39771 2.85938
59 3 -0.83396 -0.0804978 3.50311 0.939177
243 2 0.156292 3.46964 1.86426 2.83739
61 3 -0.81601 1.14646 3.47205 6.07892
62 3 -0.850847 -0.660883 5.30787 6.63195
74 3 -0.810127 5.59206 0.494734 7.26732
78 3 -0.856139 0.767552 4.96045 2.88485
81 3 -0.768673 5.52129 3.02365 5.70678
84 3 -0.813747 3.02883 5.87829 4.0604
85 3 -0.819429 4.75664 5.67267 6.02623
113 2 0.0956585 -1.57903 5.28633 4.07151
111 2 0.0103524 2.19698 1.93042 4.07833
112 2 -0.0302258 -0.944137 5.943 0.951332
5 4 1.37036 0.46753 2.16762 0.237522
118 2 -0.022557 4.57507 0.772929 4.44221
24 4 1.29512 5.10017 4.80127 0.45327
222 3 -0.786526 6.64088 1.1915 1.0098
223 2 -0.101083 6.31336 0.885231 3.80734
141 2 0.161838 4.12867 2.77219 1.5971
142 2 0.18573 2.80093 4.12049 1.40292
143 2 0.216302 4.19553 4.35335 2.61638
220 4 0.973513 6.97109 0.261523 2.20683
244 2 0.138162 2.92555 0.319033 3.99681
135 2 0.227209 0.526479 1.2012 7.30784
25 4 1.42127 1.47114 6.22695 3.52383
248 2 0.161466 2.7717 3.2011 0.0562622
265 2 0.168373 4.1381 0.073362 2.4132
28 4 1.24254 4.16789 6.5481 4.91509
82 3 -0.828982 1.43607 5.37297 8.03249
138 2 0.160532 1.31485 1.01385 12.6131
8 4 1.22491 1.89618 2.70811 11.1209
13 4 1.31005 0.473373 5.13867 12.3542
172 4 0.943797 -0.440098 2.71546 13.9805
20 4 1.30861 4.51279 2.82822 9.24109
23 4 1.22777 7.01472 2.96051 11.1568
99 3 -0.781476 8.0332 1.15981 8.37429
226 4 0.896468 3.85328 6.41937 15.0613
42 1 -0.671856 2.33466 1.5961 12.5452
57 3 -0.830579 0.428129 2.14846 10.6329
63 3 -0.874943 -0.18031 4.15549 13.3026
64 3 -0.823796 1.85408 4.49877 11.8671
65 3 -0.850918 -2.27539 5.97736 9.44961
66 3 -0.883492 -0.563477 5.68688 11.3236
73 3 -0.796263 3.09132 2.53762 9.8766
75 3 -0.8635 5.66859 3.09286 10.2336
76 3 -0.828305 7.09567 1.64762 12.1363
80 3 -0.802142 4.54269 3.92384 8.13166
228 2 -0.00940107 2.74618 5.12766 15.389
137 2 0.160098 3.13083 0.897029 12.135
114 2 -0.0360362 0.914442 6.30128 13.5175
229 2 -0.0232803 3.73041 6.46642 13.3527
124 2 0.0405565 3.33677 5.39034 12.0158
136 2 0.190539 2.60118 2.18985 13.5634
179 4 1.24917 7.55946 2.38552 15.5841
183 1 -0.674476 5.99719 1.56365 14.8672
77 3 -0.758896 7.03508 4.09795 15.7854
262 3 -0.795902 0.707981 2.00627 15.1917
196 2 0.190492 5.61979 2.43546 14.2559
117 2 0.0987348 4.88902 1.34918 8.46596
227 3 -0.798447 5.29248 5.91015 15.4796
195 2 0.278901 6.38667 0.705435 14.2323
245 1 -0.6702 3.1979 3.19433 15.2599
246 2 0.1487 3.19436 3.82208 14.3634
247 2 0.166485 3.61136 2.13614 15.0815
60 3 -0.808516 -0.282557 3.32506 8.47483
197 2 0.188505 5.42409 1.30701 15.7299
14 4 1.55767 -1.08347 6.65406 10.2287
133 2 0.165275 -6.65333 12.8677 6.26414
3 3 -0.803224 -5.98053 11.5476 0.767931
268 2 0.256052 -4.81196 9.28299 2.17473
16 4 1.47156 -3.25959 8.00947 6.57084
17 4 1.22208 -4.53325 10.0379 4.86135
154 2 0.173326 0.971682 9.56439 7.36068
161 2 0.179628 -1.15588 9.7093 0.537627
31 4 1.30489 -2.12067 10.3089 3.0829
33 4 1.14621 0.0611609 10.9082 5.46637
48 1 -0.637985 -1.21769 8.76825 2.40585
49 1 -0.654812 0.132491 9.35978 6.57948
69 3 -0.801927 -6.06214 10.3097 4.37444
68 3 -0.826371 -2.05271 7.41392 5.60691
271 2 0.154174 1.4324 10.126 2.30122
70 3 -0.796325 -4.51305 8.75837 5.89431
79 3 -0.855297 0.395055 6.90141 4.92914
87 3 -0.837663 1.56004 7.33721 2.39507
30 4 1.00195 2.31996 8.10348 1.1848
89 3 -0.781054 -2.06427 11.4528 1.99282
90 3 -0.847521 -3.52085 9.79672 3.63839
93 3 -0.809908 -1.03475 10.6708 4.33835
94 3 -0.783443 -0.328182 12.0975 6.4783
115 2 -0.0369437 -3.95197 11.4332 5.65031
147 2 0.197451 1.88098 7.67002 6.51646
151 2 0.182641 -0.176016 9.14895 1.89104
152 2 0.155365 -2.00047 8.42876 1.63015
153 2 0.210286 -0.892922 7.96854 3.1566
251 1 -0.654891 -5.40046 8.9486 1.26858
155 2 0.267148 0.313671 8.41124 5.90533
156 2 0.28812 -0.878333 9.30081 7.06694
46 1 -0.660091 2.3835 7.9966 7.47712
148 2 0.175082 3.43724 7.67765 7.67141
272 2 0.174631 0.560032 10.0381 0.548742
19 4 1.32425 -1.32991 12.7524 7.76654
1 4 1.30592 -6.55833 12.6963 1.96403
2 3 -0.829287 -7.34518 11.9108 3.07685
91 3 -0.820506 -2.58108 9.40525 7.68588
149 2 0.14543 2.1593 9.11489 7.85321
47 1 -0.663475 1.59018 9.88425 1.19443
122 2 0.00381983 3.52224 7.8908 5.9006
253 2 0.155501 -4.77899 8.16073 0.676153
159 2 0.20374 1.59218 9.83096 10.8737
18 4 1.23028 -2.33706 8.34277 12.6454
22 4 1.21169 -0.581583 13.0359 12.0842
32 4 0.965778 -2.51712 10.3888 8.86765
35 4 1.21882 -1.42152 10.6785 14.3733
15 4 1.10772 -4.28454 10.7982 16.0167
160 2 0.152075 0.883331 10.6036 14.7952
50 1 -0.674276 2.30817 10.5204 11.347
51 1 -0.634107 0.0161072 10.8122 15.5644
162 2 0.214088 -0.0290278 11.9572 15.8031
72 3 -0.811579 -1.77501 8.15467 11.2055
83 3 -0.837284 0.0676772 7.31521 9.28394
88 3 -0.778608 3.36059 7.82904 15.7269
92 3 -0.822849 -1.42009 11.4677 9.01704
95 3 -0.820271 3.77072 8.02153 12.0121
96 3 -0.79382 -1.35936 9.30403 13.5183
97 3 -0.784842 -1.2966 12.1531 13.1778
98 3 -0.779216 -2.86929 10.7491 15.243
116 2 -0.0347573 -3.87157 9.05597 12.5138
120 2 0.0592716 -0.912875 12.4075 10.5281
126 2 0.0886806 -2.24892 9.35609 10.1353
127 2 -0.0602006 -3.99281 11.0061 9.2219
128 2 0.0195239 2.23498 10.0857 13.2786
139 2 0.160798 -4.55308 10.8324 13.5511
71 3 -0.811705 -2.67501 6.99087 13.5061
158 2 0.244741 1.82458 11.4632 11.7864
140 2 0.162902 -5.8906 11.7217 14.4066
29 4 0.977453 3.65753 6.74381 11.1047
86 3 -0.826096 2.61057 6.89991 10.0186
43 1 -0.65329 -5.55269 10.701 14.0479
27 4 1.39868 1.51286 6.78399 8.81443
187 3 -0.795801 1.04929 13.0111 12.3214
235 2 0.1578 11.4387 1.655 3.24853
37 4 1.24928 13.051 1.83276 5.85567
225 2 0.0922517 8.88545 0.338373 3.34985
39 4 1.28145 11.264 3.94954 7.26764
45 1 -0.664536 7.14161 5.06521 7.25245
54 1 -0.659186 10.8947 5.46893 6.18076
101 3 -0.809616 13.9922 2.94799 5.07901
102 3 -0.844785 13.8272 0.916669 6.92247
250 2 0.188411 11.3729 4.94766 0.331893
4 4 1.44953 14.9253 2.67886 3.80685
106 3 -0.80937 11.8626 2.67417 6.49435
232 3 -0.825635 14.3722 1.48487 2.89846
129 2 -0.000685399 12.2649 0.813807 4.68813
130 2 0.047396 7.78422 5.83276 3.85765
234 2 0.173498 11.2767 0.485208 1.76656
169 2 0.191794 11.6897 5.33371 5.39143
146 2 0.208456 7.73777 4.19974 6.83389
103 3 -0.773698 6.05182 5.89447 1.58853
145 2 0.166433 7.26987 6.04671 6.70644
170 2 0.232 10.8425 6.44705 6.75385
171 2 0.163992 9.91487 5.26315 5.67086
231 1 -0.639848 11.5924 0.587939 2.86449
224 2 0.165916 9.21642 1.1101 1.436
221 1 -0.625589 8.80235 0.165815 1.99444
230 4 1.1049 13.681 0.0943031 2.56185
105 3 -0.757185 9.59387 3.45593 7.88433
273 2 0.186466 9.43133 0.176912 0.0431909
266 2 0.0665135 13.6109 4.7813 0.00451642
11 4 1.51222 13.0454 6.07676 8.87452
36 4 1.29101 9.06003 2.37173 9.04956
52 1 -0.676419 10.4902 1.51567 9.87147
177 2 0.168812 14.0476 0.776408 13.8368
100 3 -0.830238 8.26511 3.15353 10.1979
107 3 -0.798192 12.3016 4.40452 8.43077
110 2 0.0186424 14.8308 2.89819 10.3921
188 3 -0.765343 8.78846 2.11102 14.5422
202 2 0.176033 13.9125 3.79444 11.6065
163 2 0.18424 11.3958 2.20479 10.1088
249 1 -0.646964 13.4127 5.98225 15.9993
165 2 0.237955 10.1006 0.949858 10.863
123 2 -0.0307627 5.15116 6.62114 10.3368
173 1 -0.63989 14.6177 1.70535 13.4299
174 2 0.0602347 14.618 2.7467 14.7116
175 2 0.0549007 16.1003 1.3768 12.8266
176 2 0.165159 14.024 2.31264 12.5953
164 2 0.160505 10.7 0.736079 9.02272
178 4 1.11337 13.7352 5.7294 14.3578
180 4 1.21157 10.1113 1.46158 13.72
181 4 1.35812 11.7481 3.93938 12.5604
205 2 0.186755 9.23858 5.38872 9.22861
185 1 -0.6891 12.9956 3.27142 11.1342
6 4 1.3302 16.1258 2.23997 9.51889
189 3 -0.819123 11.1461 2.58159 13.0528
190 3 -0.784478 12.6926 4.74495 13.6531
192 3 -0.78795 10.851 5.10185 11.9575
263 3 -0.847345 15.6059 0.926173 8.91515
199 2 0.167067 12.1189 1.05723 14.8639
200 2 0.242651 12.6658 3.70349 10.0548
201 2 0.139105 12.9314 2.10033 11.2751
182 4 1.04768 10.6956 6.22934 10.7371
144 2 0.199753 7.22958 5.11034 8.3827
204 2 0.16122 8.21957 6.30143 10.6403
186 1 -0.6705 8.98386 6.47034 9.87827
184 1 -0.639627 11.0403 0.540595 14.9954
121 2 -0.00585732 7.12413 4.31723 12.1333
233 2 0.171711 2.69642 12.5903 3.46277
255 2 0.146349 1.57857 12.3678 4.70077
167 2 0.178438 9.36754 7.13525 2.83309
53 1 -0.63783 8.40902 7.35086 3.26024
104 3 -0.817618 5.32841 7.21511 3.85265
237 1 -0.666913 7.60467 10.2951 0.168414
125 2 -0.0110178 3.95149 8.29301 1.52128
150 2 0.159586 2.49955 10.3992 0.750205
166 2 0.0448064 7.46769 8.24247 2.21081
168 2 0.157788 8.54283 8.00933 4.20058
206 4 1.23331 9.28927 10.6135 3.94552
215 2 0.16523 5.25305 9.23428 6.57835
208 4 1.0372 7.5892 10.1202 6.66631
209 1 -0.667227 6.18508 8.95502 6.124
261 2 0.205442 6.20847 12.3422 4.84298
211 3 -0.792787 8.43268 10.542 5.36551
212 3 -0.754725 6.68675 11.5632 7.5878
213 2 -0.01347 8.7337 9.26805 3.03653
254 1 -0.686103 1.74677 11.1783 4.65773
216 2 0.143898 6.67186 7.96201 6.62422
217 2 0.200442 6.10834 8.84438 5.01315
219 2 0.198771 9.6645 9.20227 7.39014
252 2 0.15388 10.3952 8.57041 1.54966
257 2 0.150403 2.52389 10.843 5.34728
238 3 -0.770943 5.46979 12.1204 1.05494
240 2 0.163028 7.93212 10.5152 1.18798
38 4 1.0068 6.4728 6.71153 2.86267
67 3 -0.852927 12.948 6.93062 7.60021
258 1 -0.686208 5.67205 11.8571 3.98233
259 2 0.147229 6.28377 10.9828 3.49961
260 2 0.144595 4.66376 11.4907 4.31449
274 2 0.144372 8.26921 8.00506 8.02324
239 2 0.139448 6.83543 9.32693 0.107928
267 2 0.171174 12.2602 6.56566 0.367811
210 1 -0.666424 8.67118 9.097 7.93314
270 2 0.18537 0.874499 12.0404 1.64526
256 2 0.154342 1.83682 10.7145 3.6386
134 2 0.238029 8.28082 12.9298 5.84207
198 2 0.146075 2.54072 12.2478 14.4487
40 4 0.92826 6.05804 11.5012 13.0016
108 3 -0.825263 4.87776 10.5319 12.6959
109 3 -0.810225 6.65997 11.6235 14.4325
214 2 -0.0356019 4.86877 12.5921 9.10641
132 2 -0.0342144 7.31653 11.1771 11.9462
264 2 0.0756016 9.05733 12.581 15.6342
203 2 0.161959 8.77774 7.47507 9.18358
269 2 0.144406 10.6234 10.3644 13.1864
193 2 0.0587462 11.1163 9.60652 15.3592
131 2 -0.0219629 5.85636 13.0074 12.2595
194 2 0.0115158 9.70138 7.56917 11.3261
191 3 -0.83666 12.0065 6.69892 10.0128
34 4 1.03797 3.66174 9.60128 12.391
241 2 0.162579 9.71563 10.6838 15.3454
218 2 0.162584 8.68212 9.65594 8.8782
236 4 1.02296 7.41557 11.9256 15.8135
157 2 0.139453 3.09708 10.8235 10.5154
207 4 1.25726 6.14093 12.9204 8.05241
ITEM: TIMESTEP
200
ITEM: NUMBER OF ATOMS
274
ITEM: BOX BOUNDS xy xz yz pp pp pp
-8.3797999999999995e+00 1.8013900000000000e+01 -8.3797999999999995e+00
0.0000000000000000e+00 1.3273200000000001e+01 1.1950000000000001e+00
0.0000000000000000e+00 1.6079072333333336e+01 4.3120000000000003e-01
ITEM: ATOMS id type q x y z
119 2 -0.0262958 7.43718 1.2875 5.08635
12 4 1.31752 -0.890891 6.24363 5.30164
7 4 1.08618 0.868597 2.05761 5.21065
9 4 1.24468 -0.450028 4.55327 1.91415
10 4 1.60117 0.368127 4.39344 7.33451
242 1 -0.686871 3.24229 0.512882 3.03035
21 4 0.768137 5.80859 1.41202 5.51606
26 4 1.22875 5.43378 4.40238 6.68459
41 1 -0.651674 0.567962 0.475619 6.15329
44 1 -0.681233 3.97126 3.86663 1.70332
55 3 -0.810688 1.06236 0.995811 1.08147
56 3 -0.794326 -0.465643 2.29913 4.30835
58 3 -0.81306 -1.73457 4.28406 2.86489
59 3 -0.860863 -0.172846 3.39594 0.860661
243 2 0.150229 3.40303 1.61533 3.3274
61 3 -0.762361 1.10651 3.1669 6.35294
62 3 -0.870762 -0.67391 5.22393 6.48257
74 3 -0.784099 5.64891 0.437313 7.25615
78 3 -0.848222 0.83418 5.01895 2.74455
81 3 -0.786583 5.4826 3.0344 5.7594
84 3 -0.787325 3.05247 5.94799 3.9375
85 3 -0.779943 4.73722 5.71675 5.95993
113 2 0.0930514 -1.67426 5.31608 4.13792
111 2 -0.00629028 2.27674 1.79587 4.16011
112 2 -0.0268815 -0.887082 5.98541 1.08982
5 4 1.35221 0.380038 2.09567 0.179092
118 2 -0.026571 4.6266 0.737226 4.48426
24 4 1.26127 5.14413 4.83621 0.543122
222 3 -0.78276 6.36184 1.16216 1.04392
223 2 -0.0907852 6.38311 0.79553 3.81549
141 2 0.167287 4.17187 2.78514 1.40667
142 2 0.192219 2.93421 4.21131 1.47278
143 2 0.214993 4.31431 4.06066 2.78454
220 4 1.0509 6.90682 0.238133 2.16493
265 2 0.188952 3.98444 0.11243 2.13865
135 2 0.230842 0.81384 0.71576 7.2678
25 4 1.41292 1.51792 6.33736 3.45109
248 2 0.157398 2.78738 3.18884 0.184621
82 3 -0.786071 1.54084 5.44562 7.98827
138 2 0.178208 1.7912 1.03484 12.7698
8 4 1.25094 1.93566 2.71552 11.0725
13 4 1.27551 0.463416 5.11043 12.3273
123 2 -0.0155859 5.09668 6.11211 10.7371
20 4 1.29326 4.55062 2.73969 9.27286
23 4 1.29303 6.91096 2.98863 11.1816
99 3 -0.823031 8.12859 1.27956 8.30375
226 4 0.894468 3.84426 6.36171 15.2025
42 1 -0.668098 2.64442 1.7155 12.5206
57 3 -0.810213 0.412887 2.09692 10.6305
63 3 -0.841435 -0.146308 4.02549 13.336
64 3 -0.810035 1.82886 4.49733 11.8805
65 3 -0.866057 -2.30738 5.99718 9.45602
66 3 -0.886005 -0.440875 5.61432 11.1552
73 3 -0.789024 3.09958 2.54651 9.93738
75 3 -0.850334 5.53368 2.91302 10.4886
76 3 -0.853157 7.16593 1.57404 11.8444
80 3 -0.732463 4.68253 4.00143 8.41842
228 2 -0.0174559 2.83526 5.05737 15.6035
137 2 0.180211 3.554 1.24396 11.9712
114 2 -0.0455903 0.871686 6.54551 13.0713
229 2 -0.0405644 3.701 6.45511 13.4894
124 2 0.0510717 3.34055 5.20694 12.089
136 2 0.180121 2.91742 2.26309 13.5107
179 4 1.24802 7.48372 2.35432 15.5418
183 1 -0.687177 6.04603 1.53801 14.6638
29 4 0.956177 3.55928 6.68919 11.2598
262 3 -0.778313 0.464609 1.89775 15.0803
196 2 0.166729 5.62855 2.42093 14.1484
117 2 0.0991779 5.04529 1.3163 8.38984
227 3 -0.780307 5.34612 6.06095 15.5373
195 2 0.280146 6.45962 0.726623 13.9148
245 1 -0.64345 3.22578 3.13515 15.4213
246 2 0.123474 3.00272 3.79822 14.444
247 2 0.169917 3.66422 2.07884 15.1675
60 3 -0.852638 -0.217225 3.45066 8.47054
197 2 0.189428 5.38373 1.17539 15.4761
121 2 -0.0191518 6.76765 4.15311 12.3946
14 4 1.49663 -1.08835 6.68097 10.2191
6 4 1.34316 -0.670718 2.42023 9.47158
133 2 0.18276 -7.06692 12.6037 5.67131
3 3 -0.793451 -5.95185 11.5602 0.885092
268 2 0.267235 -4.62689 9.37851 2.13261
16 4 1.47012 -3.16269 8.08921 6.63192
17 4 1.18939 -4.45662 10.1189 5.02179
154 2 0.15647 0.97078 9.43714 7.32243
161 2 0.178883 -1.11902 9.42148 0.342409
31 4 1.25349 -2.17309 10.1091 3.0949
33 4 1.15412 -0.0227751 10.9323 5.49208
48 1 -0.658327 -1.25839 8.64916 2.23323
49 1 -0.661243 0.100696 9.36992 6.52052
69 3 -0.800077 -6.02716 10.4472 4.52147
68 3 -0.831642 -1.95738 7.40186 5.71364
271 2 0.15406 1.26486 10.3048 2.26827
70 3 -0.819353 -4.3179 8.72757 5.80434
79 3 -0.86481 0.436973 6.88045 4.80818
87 3 -0.823902 1.64014 7.58088 2.38297
30 4 1.06558 2.32434 8.21229 1.12852
89 3 -0.729034 -1.87048 11.5812 2.00428
90 3 -0.841028 -3.64261 10.0571 3.52044
93 3 -0.780496 -1.11661 10.555 4.31583
94 3 -0.846542 -0.489701 12.1006 6.4326
115 2 -0.0177245 -3.90153 11.3751 5.9503
147 2 0.191237 1.99451 7.50747 6.56026
151 2 0.213057 -0.192099 9.06348 1.83481
152 2 0.14576 -2.12521 8.4266 1.52224
153 2 0.177798 -1.20377 7.80089 3.04257
251 1 -0.666999 -5.21501 8.95847 1.20319
155 2 0.263979 0.269602 8.3767 5.88762
156 2 0.281631 -0.940506 9.40995 6.99097
46 1 -0.670827 2.53717 7.92859 7.44759
148 2 0.186133 3.60194 7.62614 7.52686
272 2 0.183748 0.541839 9.98836 0.424332
19 4 1.33502 -1.17568 12.802 7.73643
1 4 1.27827 -6.66511 12.6548 1.99869
244 2 0.154135 -5.17083 12.6429 3.90183
91 3 -0.842938 -2.54238 9.59565 7.62637
149 2 0.143082 2.31491 9.01847 7.59519
47 1 -0.655384 1.4634 9.909 1.09368
122 2 -0.0160734 3.39658 8.03898 5.6205
253 2 0.159946 -4.64471 8.08947 0.766913
267 2 0.160002 -4.10288 6.83606 0.267613
28 4 1.21424 4.15731 6.73338 4.8685
270 2 0.190652 0.682395 11.7547 1.55712
159 2 0.179867 1.47343 9.65026 11.1574
18 4 1.2245 -2.29731 8.31356 12.7695
22 4 1.27709 -0.559906 12.9714 12.0081
32 4 0.967706 -2.3603 10.4309 8.95937
35 4 1.24168 -1.47033 10.716 14.3127
15 4 1.10471 -4.20615 10.8333 16.0716
160 2 0.180769 0.7353 9.94107 14.6328
50 1 -0.658686 2.25695 10.46 11.5264
51 1 -0.636997 0.0877244 10.4573 15.3611
162 2 0.180457 0.370072 11.578 15.4924
72 3 -0.82609 -1.94544 8.04031 11.2811
83 3 -0.830745 -0.00762979 7.44166 9.17275
88 3 -0.801424 3.35351 7.76692 15.8865
92 3 -0.840321 -1.39889 11.6063 9.19223
95 3 -0.816246 3.82613 8.08206 12.0084
96 3 -0.817193 -1.29462 9.36003 13.5166
97 3 -0.82339 -1.27008 12.1397 13.069
98 3 -0.80139 -2.84817 10.8298 15.2379
116 2 -0.0337831 -3.60723 9.23533 12.5315
120 2 0.0972366 -0.789865 12.1686 10.5772
126 2 0.0742318 -2.04408 9.3204 10.1389
127 2 -0.0474339 -3.86011 10.791 9.54075
128 2 0.0124065 2.27111 9.98274 13.4352
139 2 0.155435 -4.63983 10.867 13.5859
71 3 -0.848965 -2.66046 6.97976 13.6233
158 2 0.237845 1.6573 11.4152 11.9836
140 2 0.172058 -5.87833 11.948 14.5116
27 4 1.35523 1.5139 6.83313 8.77121
86 3 -0.787442 2.56992 6.76219 10.0317
43 1 -0.650691 -5.63507 10.8819 14.163
187 3 -0.833422 0.980946 13.0175 12.2464
235 2 0.171936 11.3792 1.62473 3.24019
37 4 1.29416 13.0073 1.79681 5.959
225 2 0.126107 8.99131 0.162997 3.12387
39 4 1.34784 11.2927 3.90918 7.38633
45 1 -0.672646 7.21114 4.68225 7.11763
54 1 -0.649749 11.0015 5.22242 6.0263
101 3 -0.833275 13.8892 2.68186 4.92199
102 3 -0.871285 13.7458 1.06091 7.09216
250 2 0.141537 11.1573 5.3374 0.178162
4 4 1.47769 14.8259 2.5934 3.67197
106 3 -0.82231 11.8553 2.71767 6.52872
232 3 -0.829794 14.3167 1.41333 2.7448
129 2 -0.00475363 12.2079 0.668437 4.86377
130 2 0.0482285 7.89908 5.63201 3.58055
234 2 0.170539 11.3978 0.35642 1.90865
169 2 0.208652 12.0133 5.23341 5.45771
146 2 0.188167 7.79393 4.02112 6.45634
103 3 -0.774722 5.95669 5.86874 1.50516
145 2 0.155793 7.4026 5.7998 6.92066
170 2 0.225374 10.9038 6.18279 6.49513
171 2 0.160187 10.0487 4.94535 5.42798
231 1 -0.65178 11.6817 0.575623 3.01515
224 2 0.167587 9.05887 0.865667 1.34336
266 2 0.0929379 13.4492 4.78142 0.0792956
134 2 0.237213 16.295 0.29161 5.91916
11 4 1.51475 13.082 6.18253 8.88089
36 4 1.30994 9.0192 2.40275 9.12346
52 1 -0.672207 10.4835 1.65806 9.9803
177 2 0.179167 14.1468 0.768066 13.7594
100 3 -0.827589 8.08886 3.30078 10.1938
107 3 -0.790946 12.3263 4.56563 8.52768
110 2 0.0263898 14.7565 3.16199 10.2659
188 3 -0.789199 8.78173 2.06347 14.6234
202 2 0.180639 13.8787 3.76052 11.7324
163 2 0.195748 11.3947 2.28372 10.3698
249 1 -0.624292 13.5802 6.17371 16.0586
165 2 0.24128 10.0338 1.0408 10.8994
77 3 -0.728298 7.2784 4.07507 15.7813
173 1 -0.684915 14.6938 1.57807 13.2532
174 2 0.0368281 14.4598 2.82433 14.6869
175 2 0.112501 15.8262 1.21391 12.4573