LAMMPS (2 Aug 2023 - Update 2)
OMP_NUM_THREADS environment is not set. Defaulting to 1 thread. (src/comm.cpp:98)
  using 1 OpenMP thread(s) per MPI task
Reading data file ...
  triclinic box = (0 0 0) to (16.8189 12.842 16.0755) with tilt (-8.3798 1.195 0.4312)
WARNING: Triclinic box skew is large. LAMMPS will run inefficiently. (src/domain.cpp:220)
  2 by 2 by 2 MPI processor grid
  reading atoms ...
  274 atoms
Finding 1-2 1-3 1-4 neighbors ...
  special bond factors lj:    0        0        0       
  special bond factors coul:  0        0        0       
     0 = max # of 1-2 neighbors
     0 = max # of 1-3 neighbors
     0 = max # of 1-4 neighbors
     1 = max # of special neighbors
  special bonds CPU = 0.001 seconds
  read_data CPU = 0.012 seconds
*****Minimization starts.*****
Setting up cg style minimization ...
  Unit style    : real
  Current step  : 0
WARNING: No pairwise cutoff or binsize set. Atom sorting therefore disabled. (src/atom.cpp:2366)
WARNING: Communication cutoff is 0.0. No ghost atoms will be generated. Atoms may get lost. (src/comm_brick.cpp:210)
Per MPI rank memory allocation (min/avg/max) = 6.364 | 6.364 | 6.364 Mbytes
   Step          Temp          E_pair         E_mol          TotEng         Press     
         0   0              0              0              0              0            
         1   0              0              0              0              0            
Loop time of 0.000279845 on 8 procs for 1 steps with 274 atoms

86.7% CPU use with 8 MPI tasks x 1 OpenMP threads

Minimization stats:
  Stopping criterion = search direction is not downhill
  Energy initial, next-to-last, final = 
                     0                  0                  0
  Force two-norm initial, final = 0 0
  Force max component initial, final = 0 0
  Final line search alpha, max atom move = 0 0
  Iterations, force evaluations = 1 0

MPI task timing breakdown:
Section |  min time  |  avg time  |  max time  |%varavg| %total
---------------------------------------------------------------
Pair    | 0          | 0          | 0          |   0.0 |  0.00
Bond    | 1.607e-06  | 2.5055e-06 | 3.143e-06  |   0.0 |  0.90
Neigh   | 0          | 0          | 0          |   0.0 |  0.00
Comm    | 4.26e-06   | 5.0678e-05 | 0.00015121 |   0.0 | 18.11
Output  | 0          | 0          | 0          |   0.0 |  0.00
Modify  | 0          | 0          | 0          |   0.0 |  0.00
Other   |            | 0.0002267  |            |       | 81.00

Nlocal:          34.25 ave          40 max          23 min
Histogram: 1 0 0 0 0 0 2 3 1 1
Nghost:              0 ave           0 max           0 min
Histogram: 8 0 0 0 0 0 0 0 0 0
Neighs:              0 ave           0 max           0 min
Histogram: 8 0 0 0 0 0 0 0 0 0

Total # of neighbors = 0
Ave neighs/atom = 0
Ave special neighs/atom = 0
Neighbor list builds = 0
Dangerous builds = 0
System init for write_data ...
WARNING: Communication cutoff is 0.0. No ghost atoms will be generated. Atoms may get lost. (src/comm_brick.cpp:210)

CITE-CITE-CITE-CITE-CITE-CITE-CITE-CITE-CITE-CITE-CITE-CITE-CITE

Your simulation uses code contributions which should be cited:
- pair reaxff command: doi:10.1016/j.parco.2011.08.005
- fix qeq/reaxff command: doi:10.1016/j.parco.2011.08.005
The log file lists these citations in BibTeX format.

CITE-CITE-CITE-CITE-CITE-CITE-CITE-CITE-CITE-CITE-CITE-CITE-CITE

WARNING: Fix qeq/reaxff group is not charge neutral, net charge = -8.2 (src/REAXFF/fix_qeq_reaxff.cpp:392)
Neighbor list info ...
  update: every = 10 steps, delay = 0 steps, check = no
  max neighbors/atom: 2000, page size: 100000
  master list distance cutoff = 12
  ghost atom cutoff = 12
  binsize = 6, bins = 5 3 3
  2 neighbor lists, perpetual/occasional/extra = 2 0 0
  (1) pair reaxff, perpetual
      attributes: half, newton off, ghost
      pair build: half/bin/newtoff/ghost
      stencil: full/ghost/bin/3d
      bin: standard
  (2) fix qeq/reaxff, perpetual, copy from (1)
      attributes: half, newton off
      pair build: copy
      stencil: none
      bin: none
Setting up Verlet run ...
  Unit style    : real
  Current step  : 0
  Time step     : 0.5
Per MPI rank memory allocation (min/avg/max) = 109.8 | 110.8 | 111.6 Mbytes
   Step          Temp          PotEng         Press         Density         Volume    
         0   300           -29524.072      53373.102      1.4594291      3472.1201    
       100   940.83325     -30895.433     -22221.566      1.4594291      3472.1201    
       200   655.32859     -31410.555     -8415.0945      1.4594291      3472.1201    
       300   492.44705     -31703.584     -1794.1004      1.4594291      3472.1201    
       400   382.80684     -31863.571     -399.08344      1.4594291      3472.1201    
       500   340.51122     -31988.881     -4396.9622      1.4594291      3472.1201    
       600   278.76054     -32030.093     -12030.124      1.4594291      3472.1201    
       700   252.54387     -32039.073     -16008.085      1.4594291      3472.1201    
       800   303.17696     -32059.227     -7196.0812      1.4594291      3472.1201    
       900   316.31868     -32035.623      1880.9547      1.4594291      3472.1201    
      1000   302.25251     -32011.681      399.58501      1.4594291      3472.1201    
      1100   315.72134     -32030.621     -1937.705       1.4594291      3472.1201    
      1200   304.92451     -32062.996     -4858.2292      1.4594291      3472.1201    
      1300   271.27974     -32068.968     -12188.651      1.4594291      3472.1201    
      1400   282.30555     -32083.975     -5263.1535      1.4594291      3472.1201    
      1500   284.15138     -32063.957     -2027.0405      1.4594291      3472.1201    
      1600   304.84901     -32054.903     -8468.5027      1.4594291      3472.1201    
      1700   320.05144     -32056.724     -12833.076      1.4594291      3472.1201    
      1800   304.8515      -32060.022     -6647.9777      1.4594291      3472.1201    
      1900   292.71773     -32083.757     -1193.4113      1.4594291      3472.1201    
      2000   272.13786     -32083.142      6047.8677      1.4594291      3472.1201    
      2100   289.96718     -32084.631      9390.5456      1.4594291      3472.1201    
      2200   287.75492     -32058.426     -9151.3398      1.4594291      3472.1201    
      2300   335.25197     -32079.165     -16200.698      1.4594291      3472.1201    
      2400   310.32653     -32067.983      2160.6232      1.4594291      3472.1201    
      2500   290.62987     -32076.478     -2874.5909      1.4594291      3472.1201    
      2600   291.63604     -32096.204      1291.0485      1.4594291      3472.1201    
      2700   278.45821     -32085.212      2152.4342      1.4594291      3472.1201    
      2800   295.16014     -32075.293      11384.18       1.4594291      3472.1201    
      2900   321.3704      -32074.659      4968.7777      1.4594291      3472.1201    
      3000   317.98161     -32069.827      4987.1493      1.4594291      3472.1201    
      3100   315.69129     -32093.196     -2919.9481      1.4594291      3472.1201    
      3200   272.69984     -32080.299     -10479.085      1.4594291      3472.1201    
      3300   295.4357      -32094.378     -2307.7923      1.4594291      3472.1201    
      3400   306.68136     -32082.661      166.83382      1.4594291      3472.1201    
      3500   303.62197     -32071.67      -7119.6858      1.4594291      3472.1201    
      3600   295.73041     -32073.133     -3795.8248      1.4594291      3472.1201    
      3700   277.22679     -32074.502     -11588.427      1.4594291      3472.1201    
      3800   297.79238     -32096.778     -7570.1459      1.4594291      3472.1201    
      3900   281.6086      -32077.626     -6662.3657      1.4594291      3472.1201    
      4000   300.60001     -32070.467      2359.5495      1.4594291      3472.1201    
      4100   294.06074     -32057.62       5645.1046      1.4594291      3472.1201    
      4200   301.27329     -32073.305     -18150.364      1.4594291      3472.1201    
      4300   303.9283      -32079.447      7855.4458      1.4594291      3472.1201    
      4400   305.65864     -32079.704      2286.7804      1.4594291      3472.1201    
      4500   322.922       -32092.465     -3549.397       1.4594291      3472.1201    
      4600   285.80906     -32064.212     -12844.728      1.4594291      3472.1201    
      4700   314.3524      -32094.977     -4345.0284      1.4594291      3472.1201    
      4800   296.7886      -32095.23      -3105.819       1.4594291      3472.1201    
      4900   274.49523     -32085.05       4288.4756      1.4594291      3472.1201    
      5000   303.35124     -32096.072      7339.555       1.4594291      3472.1201    
      5100   312.81138     -32085.288     -9208.7156      1.4594291      3472.1201    
      5200   315.87031     -32080.161      1911.4367      1.4594291      3472.1201    
      5300   294.51043     -32063.337     -7181.957       1.4594291      3472.1201    
      5400   302.37637     -32077.028     -5387.4033      1.4594291      3472.1201    
      5500   300.55289     -32083.698     -11712.412      1.4594291      3472.1201    
      5600   286.81598     -32082.197     -4124.5423      1.4594291      3472.1201    
      5700   287.94838     -32087.873     -17730.521      1.4594291      3472.1201    
      5800   288.56291     -32084.062     -6294.3873      1.4594291      3472.1201    
      5900   309.02052     -32089.82       5873.2398      1.4594291      3472.1201    
      6000   332.32223     -32090.501     -1939.7511      1.4594291      3472.1201    
      6100   282.03925     -32054.438     -17108.767      1.4594291      3472.1201    
      6200   302.85272     -32086.968     -10100.378      1.4594291      3472.1201    
      6300   285.77809     -32089.215     -4845.2139      1.4594291      3472.1201    
      6400   290.19453     -32093.381     -3191.1067      1.4594291      3472.1201    
      6500   301.88465     -32095.543     -25381.646      1.4594291      3472.1201    
      6600   286.51305     -32075.469     -2743.8843      1.4594291      3472.1201    
      6700   302.9048      -32069.597      933.3274       1.4594291      3472.1201    
      6800   319.28075     -32082.065     -6514.6725      1.4594291      3472.1201    
      6900   284.22641     -32076.56      -12313.662      1.4594291      3472.1201    
      7000   290.24417     -32099.671      5197.8377      1.4594291      3472.1201    
      7100   262.06924     -32083.029     -12354.398      1.4594291      3472.1201    
      7200   304.12919     -32097.111     -1664.7958      1.4594291      3472.1201    
      7300   299.75064     -32074.363     -8014.1875      1.4594291      3472.1201    
      7400   302.48509     -32076.98       916.15273      1.4594291      3472.1201    
      7500   299.55931     -32085.021     -8080.8124      1.4594291      3472.1201    
      7600   287.39311     -32080.02      -301.89487      1.4594291      3472.1201    
      7700   293.95066     -32087.398     -17628.339      1.4594291      3472.1201    
      7800   297.88062     -32085.589     -4914.549       1.4594291      3472.1201    
      7900   312.00991     -32065.687     -1879.2879      1.4594291      3472.1201    
      8000   308.54031     -32058.36      -6545.7789      1.4594291      3472.1201    
      8100   303.60743     -32078.142     -2793.3424      1.4594291      3472.1201    
      8200   297.24117     -32091.882     -4310.2981      1.4594291      3472.1201    
      8300   297.60251     -32097.206     -11502.793      1.4594291      3472.1201    
      8400   283.18832     -32079.615     -11008.477      1.4594291      3472.1201    
      8500   319.54341     -32083.069     -1273.5291      1.4594291      3472.1201    
      8600   313.29503     -32063.068     -10558.978      1.4594291      3472.1201    
      8700   325.25713     -32092.961     -3603.4905      1.4594291      3472.1201    
      8800   297.36705     -32089.731      1033.1065      1.4594291      3472.1201    
      8900   310.37532     -32107.895     -10987.398      1.4594291      3472.1201    
      9000   294.98347     -32101.624     -10939.95       1.4594291      3472.1201    
      9100   307.90065     -32109.047     -3593.9177      1.4594291      3472.1201    
      9200   316.03158     -32088.563      6789.8278      1.4594291      3472.1201    
      9300   307.21413     -32079.334      5094.2275      1.4594291      3472.1201    
      9400   287.11168     -32078.325     -17694.33       1.4594291      3472.1201    
      9500   286.06529     -32105.017     -14305.07       1.4594291      3472.1201    
      9600   286.7237      -32109.345     -5672.5174      1.4594291      3472.1201    
      9700   296.78671     -32108.639     -13035.292      1.4594291      3472.1201    
      9800   294.73384     -32097.869      3458.2365      1.4594291      3472.1201    
      9900   314.152       -32100.21      -701.13836      1.4594291      3472.1201    
     10000   312.04252     -32089.043     -954.4584       1.4594291      3472.1201    
Loop time of 385.462 on 8 procs for 10000 steps with 274 atoms

Performance: 1.121 ns/day, 21.415 hours/ns, 25.943 timesteps/s, 7.108 katom-step/s
98.7% CPU use with 8 MPI tasks x 1 OpenMP threads

MPI task timing breakdown:
Section |  min time  |  avg time  |  max time  |%varavg| %total
---------------------------------------------------------------
Pair    | 260.36     | 302.2      | 324.48     | 142.7 | 78.40
Bond    | 0.027605   | 0.02984    | 0.033009   |   1.2 |  0.01
Neigh   | 17.891     | 21.321     | 22.625     |  35.2 |  5.53
Comm    | 5.4213     | 27.77      | 69.536     | 470.9 |  7.20
Output  | 0.0047361  | 0.0051931  | 0.0080972  |   1.5 |  0.00
Modify  | 32.681     | 33.929     | 37.442     |  28.1 |  8.80
Other   |            | 0.2074     |            |       |  0.05

Nlocal:          34.25 ave          44 max          20 min
Histogram: 1 1 0 0 0 1 0 3 1 1
Nghost:        2842.75 ave        2878 max        2806 min
Histogram: 1 0 0 3 1 0 1 0 1 1
Neighs:          18913 ave       24038 max       11266 min
Histogram: 1 1 0 0 1 0 0 3 1 1

Total # of neighbors = 151304
Ave neighs/atom = 552.20438
Ave special neighs/atom = 0
Neighbor list builds = 1000
Dangerous builds not checked
System init for write_data ...
System init for write_restart ...
OMP_NUM_THREADS environment is not set. Defaulting to 1 thread. (src/comm.cpp:98)
  using 1 OpenMP thread(s) per MPI task
Reading restart file ...
  restart file = 2 Aug 2023, LAMMPS = 2 Aug 2023
  restoring atom style full from restart
  triclinic box = (0 0 0) to (16.8189 12.842 16.0755) with tilt (-8.3798 1.195 0.4312)
WARNING: Triclinic box skew is large. LAMMPS will run inefficiently. (src/domain.cpp:220)
  2 by 2 by 2 MPI processor grid
  pair style reaxff stores no restart info
  274 atoms
Finding 1-2 1-3 1-4 neighbors ...
  special bond factors lj:    0        0        0       
  special bond factors coul:  0        0        0       
     0 = max # of 1-2 neighbors
     0 = max # of 1-3 neighbors
     0 = max # of 1-4 neighbors
     1 = max # of special neighbors
  special bonds CPU = 0.000 seconds
  read_restart CPU = 0.003 seconds
*****debug*****
xy = -8.3797999999999994714, deltaxy = 0.083798
xz = 1.1950000000000000622, deltaxz = -0.01195
yz = 0.43120000000000002771, deltayz = -0.004312
*****
*****Negative-deform 1 starts.*****
Resetting global fix info from restart file:
  fix style: nvt, fix ID: fnvt
All restart file global fix info was re-assigned
Neighbor list info ...
  update: every = 10 steps, delay = 0 steps, check = no
  max neighbors/atom: 2000, page size: 100000
  master list distance cutoff = 12
  ghost atom cutoff = 12
  binsize = 6, bins = 5 3 3
  2 neighbor lists, perpetual/occasional/extra = 2 0 0
  (1) pair reaxff, perpetual
      attributes: half, newton off, ghost
      pair build: half/bin/newtoff/ghost
      stencil: full/ghost/bin/3d
      bin: standard
  (2) fix qeq/reaxff, perpetual, copy from (1)
      attributes: half, newton off
      pair build: copy
      stencil: none
      bin: none
Setting up Verlet run ...
  Unit style    : real
  Current step  : 0
  Time step     : 0.5
Per MPI rank memory allocation (min/avg/max) = 109.7 | 110.8 | 112.3 Mbytes
   Step          Temp          PotEng         Press         Density         Volume    
         0   312.04252     -32089.043     -954.45699      1.4594291      3472.1201    
       100   307.29251     -32082.914      6250.157       1.4595751      3471.7729    
       200   287.42441     -32086.869      4307.6192      1.459721       3471.4257    
       300   277.55443     -32097.506     -2108.6844      1.4598671      3471.0785    
       400   294.1043      -32102.982     -9468.0876      1.4600131      3470.7313    
       500   304.92231     -32085.681     -9174.3867      1.4601592      3470.3841    
       600   333.33712     -32102.834     -6525.4285      1.4603053      3470.0369    
       700   296.67032     -32079.013     -804.88356      1.4604514      3469.6897    
       800   288.87968     -32088.215      6812.789       1.4605976      3469.3424    
       900   271.50881     -32090.983     -13823.835      1.4607438      3468.9952    
      1000   290.66922     -32094.796     -3608.1878      1.46089        3468.648     
      1100   292.82344     -32093.261     -205.42487      1.4610362      3468.3008    
      1200   316.78197     -32108.79      -3700.3434      1.4611825      3467.9536    
      1300   308.35676     -32097.974     -2345.6871      1.4613288      3467.6064    
      1400   284.10143     -32087.634     -5035.6712      1.4614752      3467.2592    
      1500   311.21818     -32124.181     -6051.4271      1.4616215      3466.912     
      1600   271.84098     -32105.116     -10640.696      1.4617679      3466.5647    
      1700   302.45569     -32108.77      -4106.5147      1.4619144      3466.2175    
      1800   310.90972     -32091.976     -4007.4987      1.4620608      3465.8703    
      1900   317.30043     -32100.623      743.36954      1.4622073      3465.5231    
      2000   305.73998     -32093.13      -4337.4468      1.4623538      3465.1759    
      2100   339.28192     -32109.113      582.26016      1.4625003      3464.8287    
      2200   317.42679     -32072.165     -14898.714      1.4626469      3464.4815    
      2300   300.58503     -32065.894     -14708.545      1.4627935      3464.1343    
      2400   295.79176     -32098.271     -2339.0827      1.4629402      3463.7871    
      2500   309.27881     -32118.015     -2787.444       1.4630868      3463.4398    
      2600   301.48161     -32107.816     -3453.3589      1.4632335      3463.0926    
      2700   325.91001     -32110.779     -10153.511      1.4633802      3462.7454    
      2800   347.45595     -32115.142     -6428.9165      1.463527       3462.3982    
      2900   300.89982     -32091.408      519.40992      1.4636738      3462.051     
      3000   291.15159     -32109.424     -3306.42        1.4638206      3461.7038    
      3100   271.50422     -32095.231      8390.7447      1.4639674      3461.3566    
      3200   290.65286     -32091.534     -15710.715      1.4641143      3461.0094    
      3300   304.90791     -32095.062     -1207.6405      1.4642612      3460.6621    
      3400   321.36212     -32111.305     -12672.729      1.4644081      3460.3149    
      3500   307.59969     -32105.98      -9071.7058      1.464555       3459.9677    
      3600   307.05072     -32106.214     -5498.6128      1.464702       3459.6205    
      3700   298.84347     -32102.645     -12281.521      1.464849       3459.2733    
      3800   275.15004     -32088.562      1319.7301      1.4649961      3458.9261    
      3900   302.96936     -32096.912     -1589.3866      1.4651432      3458.5789    
      4000   316.17163     -32094.974     -10520.552      1.4652903      3458.2317    
      4100   310.09076     -32093.568     -3553.2409      1.4654374      3457.8844    
      4200   291.43222     -32109.271     -6848.3184      1.4655846      3457.5372    
      4300   295.56545     -32115.316     -6458.7487      1.4657317      3457.19      
      4400   316.41941     -32116.754     -6882.0475      1.465879       3456.8428    
      4500   316.09914     -32106.333     -4745.4409      1.4660262      3456.4956    
      4600   319.8831      -32112.965     -8052.0126      1.4661735      3456.1484    
      4700   301.2585      -32102.89      -13447.368      1.4663208      3455.8012    
      4800   308.23537     -32112.307     -8387.5818      1.4664681      3455.454     
      4900   273.88532     -32090.426     -10572.165      1.4666155      3455.1067    
      5000   299.48949     -32106.162     -12750.738      1.4667629      3454.7595    
      5100   341.74639     -32138.161     -1246.6833      1.4669103      3454.4123    
      5200   291.84414     -32110.269     -3941.8352      1.4670578      3454.0651    
      5300   290.71239     -32129.889     -3521.1618      1.4672053      3453.7179    
      5400   265.92817     -32123.09       1541.6704      1.4673528      3453.3707    
      5500   289.97666     -32125.096     -6650.944       1.4675003      3453.0235    
      5600   297.62153     -32103.807      5320.1301      1.4676479      3452.6763    
      5700   309.86452     -32109.055     -13035.493      1.4677955      3452.3291    
      5800   308.20961     -32117.305     -2814.2813      1.4679432      3451.9818    
      5900   317.57329     -32142.811     -5272.2675      1.4680908      3451.6346    
      6000   300.2476      -32148.288     -12768.084      1.4682385      3451.2874    
      6100   279.62229     -32126.353     -13070.364      1.4683863      3450.9402    
      6200   298.11401     -32125.069     -193.90756      1.468534       3450.593     
      6300   294.88566     -32113.91      -10143.928      1.4686818      3450.2458    
      6400   315.18083     -32120.223      3728.4708      1.4688296      3449.8986    
      6500   311.01634     -32116.824     -14938.833      1.4689775      3449.5514    
      6600   270.79056     -32110.762     -12751.259      1.4691253      3449.2041    
      6700   274.98705     -32126.834     -1270.7092      1.4692732      3448.8569    
      6800   297.26709     -32129.996     -8935.7358      1.4694212      3448.5097    
      6900   320.96537     -32139.185      4671.5301      1.4695691      3448.1625    
      7000   285.5997      -32111.848     -13485.103      1.4697171      3447.8153    
      7100   316.1902      -32128.609     -13193.968      1.4698651      3447.4681    
      7200   321.22524     -32128.634      2102.708       1.4700132      3447.1209    
      7300   285.12573     -32114.746     -5576.9408      1.4701613      3446.7737    
      7400   275.0214      -32120.483      1344.818       1.4703094      3446.4264    
      7500   306.77613     -32133.611     -3261.4656      1.4704575      3446.0792    
      7600   323.51632     -32128.14       1185.5184      1.4706057      3445.732     
      7700   333.9704      -32125.829     -870.03379      1.4707539      3445.3848    
      7800   305.66867     -32132.887     -18817.388      1.4709021      3445.0376    
      7900   282.86709     -32134.097     -11695.039      1.4710504      3444.6904    
      8000   287.0453      -32134.912      382.41869      1.4711987      3444.3432    
      8100   320.57407     -32136.726     -2059.0168      1.471347       3443.996     
      8200   314.57798     -32125.998     -2439.57        1.4714954      3443.6488    
      8300   301.00523     -32126.992     -7020.4759      1.4716437      3443.3015    
      8400   284.03325     -32129.35      -19040.648      1.4717922      3442.9543    
      8500   303.92331     -32147.93       701.38777      1.4719406      3442.6071    
      8600   326.31554     -32162.063      210.66592      1.4720891      3442.2599    
      8700   275.78513     -32125.133     -4354.2476      1.4722376      3441.9127    
      8800   273.47742     -32114.097     -2652.5611      1.4723861      3441.5655    
      8900   303.83325     -32117.981      199.85189      1.4725347      3441.2183    
      9000   308.78447     -32126.773     -8058.1065      1.4726832      3440.8711    
      9100   295.62175     -32150.392     -20224.91       1.4728319      3440.5238    
      9200   287.38324     -32152.176     -6718.532       1.4729805      3440.1766    
      9300   284.88314     -32148.617     -4651.1258      1.4731292      3439.8294    
      9400   297.7399      -32146.502     -916.34121      1.4732779      3439.4822    
      9500   292.91111     -32115.274     -8281.234       1.4734267      3439.135     
      9600   300.24543     -32122.053     -3148.3607      1.4735754      3438.7878    
      9700   269.69626     -32130.584     -17106.634      1.4737242      3438.4406    
      9800   297.8044      -32160.382     -3936.2041      1.4738731      3438.0934    
      9900   289.27095     -32142.645     -8450.7286      1.4740219      3437.7461    
     10000   299.88821     -32135.973     -12688.798      1.4741708      3437.3989    
Loop time of 383.705 on 8 procs for 10000 steps with 274 atoms

Performance: 1.126 ns/day, 21.317 hours/ns, 26.062 timesteps/s, 7.141 katom-step/s
98.8% CPU use with 8 MPI tasks x 1 OpenMP threads

MPI task timing breakdown:
Section |  min time  |  avg time  |  max time  |%varavg| %total
---------------------------------------------------------------
Pair    | 228.82     | 298.64     | 323.49     | 173.1 | 77.83
Bond    | 0.028473   | 0.03064    | 0.033066   |   1.0 |  0.01
Neigh   | 16.031     | 21.169     | 22.711     |  45.4 |  5.52
Comm    | 5.08       | 29.969     | 99.73      | 546.2 |  7.81
Output  | 0.027313   | 0.031663   | 0.035666   |   1.6 |  0.01
Modify  | 32.046     | 33.639     | 38.861     |  36.5 |  8.77
Other   |            | 0.2246     |            |       |  0.06

Nlocal:          34.25 ave          40 max          26 min
Histogram: 2 0 1 0 0 0 0 2 0 3
Nghost:        2812.62 ave        2854 max        2780 min
Histogram: 1 1 1 1 1 1 0 1 0 1
Neighs:        19129.4 ave       22156 max       14708 min
Histogram: 2 0 1 0 0 0 0 2 0 3

Total # of neighbors = 153035
Ave neighs/atom = 558.5219
Ave special neighs/atom = 0
Neighbor list builds = 1000
Dangerous builds not checked
OMP_NUM_THREADS environment is not set. Defaulting to 1 thread. (src/comm.cpp:98)
  using 1 OpenMP thread(s) per MPI task
Reading restart file ...
  restart file = 2 Aug 2023, LAMMPS = 2 Aug 2023
  restoring atom style full from restart
  triclinic box = (0 0 0) to (16.8189 12.842 16.0755) with tilt (-8.3798 1.195 0.4312)
WARNING: Triclinic box skew is large. LAMMPS will run inefficiently. (src/domain.cpp:220)
  2 by 2 by 2 MPI processor grid
  pair style reaxff stores no restart info
  274 atoms
Finding 1-2 1-3 1-4 neighbors ...
  special bond factors lj:    0        0        0       
  special bond factors coul:  0        0        0       
     0 = max # of 1-2 neighbors
     0 = max # of 1-3 neighbors
     0 = max # of 1-4 neighbors
     1 = max # of special neighbors
  special bonds CPU = 0.000 seconds
  read_restart CPU = 0.003 seconds
*****Positive-deform 1 starts.*****
Resetting global fix info from restart file:
  fix style: nvt, fix ID: fnvt
All restart file global fix info was re-assigned
Neighbor list info ...
  update: every = 10 steps, delay = 0 steps, check = no
  max neighbors/atom: 2000, page size: 100000
  master list distance cutoff = 12
  ghost atom cutoff = 12
  binsize = 6, bins = 5 3 3
  2 neighbor lists, perpetual/occasional/extra = 2 0 0
  (1) pair reaxff, perpetual
      attributes: half, newton off, ghost
      pair build: half/bin/newtoff/ghost
      stencil: full/ghost/bin/3d
      bin: standard
  (2) fix qeq/reaxff, perpetual, copy from (1)
      attributes: half, newton off
      pair build: copy
      stencil: none
      bin: none
Setting up Verlet run ...
  Unit style    : real
  Current step  : 0
  Time step     : 0.5
Per MPI rank memory allocation (min/avg/max) = 109.7 | 110.8 | 112.3 Mbytes
   Step          Temp          PotEng         Press         Density         Volume    
         0   312.04252     -32089.043     -954.45699      1.4594291      3472.1201    
       100   307.28368     -32082.909      6247.8389      1.4592832      3472.4674    
       200   287.48656     -32086.807      4532.9191      1.4591373      3472.8146    
       300   277.06576     -32097.64      -2412.6263      1.4589914      3473.1618    
       400   291.30365     -32099.764     -9496.0881      1.4588456      3473.509     
       500   295.41337     -32077.168     -11862.874      1.4586997      3473.8562    
       600   319.23661     -32091.955      5321.9349      1.458554       3474.2034    
       700   304.99222     -32086.54      -362.00303      1.4584082      3474.5506    
       800   291.52052     -32085.962     -186.06695      1.4582625      3474.8978    
       900   288.0373      -32104.548     -8852.5963      1.4581168      3475.245     
      1000   293.38712     -32119.538     -1376.947       1.4579711      3475.5923    
      1100   260.78022     -32078.833     -6465.3017      1.4578255      3475.9395    
      1200   321.76841     -32101.55       3189.9681      1.4576799      3476.2867    
      1300   304.5361      -32085.982     -8751.5926      1.4575343      3476.6339    
      1400   297.96088     -32094.624     -7557.0307      1.4573888      3476.9811    
      1500   302.88028     -32121.126     -4797.5946      1.4572432      3477.3283    
      1600   284.67163     -32111.467     -5942.2242      1.4570977      3477.6755    
      1700   284.72766     -32088.661     -6390.3959      1.4569523      3478.0227    
      1800   334.59721     -32110.023     -14969.663      1.4568068      3478.37      
      1900   305.92202     -32091.673     -9442.751       1.4566614      3478.7172    
      2000   298.18682     -32097.014     -7758.166       1.4565161      3479.0644    
      2100   295.46782     -32111.195     -1243.9808      1.4563707      3479.4116    
      2200   268.35676     -32093.823     -1378.0931      1.4562254      3479.7588    
      2300   318.73748     -32109.839     -1367.3469      1.4560801      3480.106     
      2400   317.27054     -32096.481     -8170.1514      1.4559349      3480.4532    
      2500   302.10821     -32092.823     -21603.653      1.4557896      3480.8004    
      2600   299.2278      -32101.622      5996.3342      1.4556444      3481.1477    
      2700   300.74392     -32111.177     -3260.1004      1.4554992      3481.4949    
      2800   295.71856     -32108.98      -6705.9135      1.4553541      3481.8421    
      2900   319.4468      -32120.011     -815.77061      1.455209       3482.1893    
      3000   312.72562     -32111.201     -11081.249      1.4550639      3482.5365    
      3100   315.80462     -32111.831     -3529.5252      1.4549188      3482.8837    
      3200   308.36462     -32114.379     -3927.8316      1.4547738      3483.2309    
      3300   282.47904     -32106.743     -14471.119      1.4546288      3483.5781    
      3400   293.26075     -32129.368     -9671.6346      1.4544839      3483.9253    
      3500   244.87985     -32107.691     -6901.7478      1.4543389      3484.2726    
      3600   298.24024     -32128.797     -8620.0485      1.454194       3484.6198    
      3700   286.4442      -32098.188      3936.4789      1.4540491      3484.967     
      3800   289.78271     -32090.07       11198.292      1.4539043      3485.3142    
      3900   309.94979     -32097.005     -23691.093      1.4537594      3485.6614    
      4000   298.68027     -32070.899     -8813.7015      1.4536146      3486.0086    
      4100   336.65688     -32096.729     -1590.5542      1.4534699      3486.3558    
      4200   315.33177     -32116.409      4391.38        1.4533251      3486.703     
      4300   300.10019     -32119.076     -12501.949      1.4531804      3487.0503    
      4400   288.37147     -32110.429     -4645.8382      1.4530357      3487.3975    
      4500   314.7422      -32111.669     -8489.6349      1.4528911      3487.7447    
      4600   310.41522     -32094.276     -12035.569      1.4527465      3488.0919    
      4700   314.92691     -32111.988     -8543.7621      1.4526019      3488.4391    
      4800   309.93483     -32120.901     -14829.163      1.4524573      3488.7863    
      4900   295.4428      -32113.674     -17756.434      1.4523128      3489.1335    
      5000   307.08202     -32121.768     -4797.3195      1.4521683      3489.4807    
      5100   305.82777     -32108.577     -13088.052      1.4520238      3489.828     
      5200   306.88408     -32080.146     -5265.4607      1.4518793      3490.1752    
      5300   315.10153     -32087.501     -3163.9255      1.4517349      3490.5224    
      5400   300.85421     -32100.082     -9356.8596      1.4515905      3490.8696    
      5500   324.73116     -32130.497     -3053.5568      1.4514461      3491.2168    
      5600   302.27473     -32127.871      287.64883      1.4513018      3491.564     
      5700   295.35512     -32131.616     -6334.0893      1.4511575      3491.9112    
      5800   282.37005     -32102.409      3386.3935      1.4510132      3492.2584    
      5900   329.97116     -32119.579      3155.7573      1.450869       3492.6056    
      6000   312.54669     -32116.84      -10064.511      1.4507247      3492.9529    
      6100   307.79542     -32123.349     -7009.1176      1.4505806      3493.3001    
      6200   288.99421     -32115.016     -6836.7583      1.4504364      3493.6473    
      6300   296.19829     -32132.807     -1083.4146      1.4502923      3493.9945    
      6400   276.91917     -32134.331     -10190.995      1.4501481      3494.3417    
      6500   293.49061     -32133.102      2633.0096      1.4500041      3494.6889    
      6600   308.16655     -32118.799     -11411.207      1.44986        3495.0361    
      6700   293.74023     -32105.768     -13241.7        1.449716       3495.3833    
      6800   308.91346     -32123.613     -7178.9518      1.449572       3495.7306    
      6900   287.74715     -32124.898      2919.8859      1.449428       3496.0778    
      7000   272.0819      -32136.652     -2457.2522      1.4492841      3496.425     
      7100   289.99656     -32143.142     -1637.9786      1.4491402      3496.7722    
      7200   285.20623     -32121.854     -14400.327      1.4489963      3497.1194    
      7300   297.06079     -32119.862     -10560.742      1.4488525      3497.4666    
      7400   316.66454     -32123.914     -13636.668      1.4487087      3497.8138    
      7500   294.13491     -32107.034     -862.11657      1.4485649      3498.161     
      7600   295.01853     -32124.894      8028.4663      1.4484211      3498.5083    
      7700   284.70543     -32136.25      -8365.8526      1.4482774      3498.8555    
      7800   301.69119     -32143.971     -4499.3658      1.4481337      3499.2027    
      7900   306.90842     -32123.123     -16040.873      1.44799        3499.5499    
      8000   336.70888     -32130.905     -2980.4807      1.4478463      3499.8971    
      8100   314.98985     -32117.485     -35.475607      1.4477027      3500.2443    
      8200   292.21114     -32110.218     -12405.086      1.4475591      3500.5915    
      8300   302.35079     -32123.806     -6905.1971      1.4474155      3500.9387    
      8400   290.00929     -32103.707     -6776.2628      1.447272       3501.2859    
      8500   328.33241     -32109.224      10245.472      1.4471285      3501.6332    
      8600   292.77592     -32086.774      2663.8565      1.446985       3501.9804    
      8700   293.55344     -32114.681     -1327.8131      1.4468416      3502.3276    
      8800   305.11        -32133.471     -4559.8284      1.4466982      3502.6748    
      8900   288.6195      -32121.079     -3653.6867      1.4465548      3503.022     
      9000   298.94209     -32113.788     -6227.506       1.4464114      3503.3692    
      9100   312.67906     -32099.967      1480.3224      1.4462681      3503.7164    
      9200   319.47984     -32103.233     -2951.7389      1.4461247      3504.0636    
      9300   315.17955     -32113.592     -11612.817      1.4459815      3504.4109    
      9400   299.81459     -32119.474     -18783.263      1.4458382      3504.7581    
      9500   285.52027     -32121.099     -15478.492      1.445695       3505.1053    
      9600   314.18769     -32144.731      5751.6816      1.4455518      3505.4525    
      9700   293.93941     -32136.801     -10982.688      1.4454086      3505.7997    
      9800   276.10836     -32146.458     -6891.8478      1.4452655      3506.1469    
      9900   286.03275     -32151.109     -6989.4246      1.4451224      3506.4941    
     10000   299.73357     -32133.216     -10025.118      1.4449793      3506.8413    
Loop time of 375.45 on 8 procs for 10000 steps with 274 atoms

Performance: 1.151 ns/day, 20.858 hours/ns, 26.635 timesteps/s, 7.298 katom-step/s
98.7% CPU use with 8 MPI tasks x 1 OpenMP threads

MPI task timing breakdown:
Section |  min time  |  avg time  |  max time  |%varavg| %total
---------------------------------------------------------------
Pair    | 222.07     | 281.15     | 316.36     | 210.6 | 74.88
Bond    | 0.027349   | 0.029506   | 0.031708   |   0.8 |  0.01
Neigh   | 16.029     | 20.021     | 22.427     |  59.4 |  5.33
Comm    | 5.043      | 40.332     | 99.311     | 555.4 | 10.74
Output  | 0.030329   | 0.034303   | 0.037617   |   1.4 |  0.01
Modify  | 31.149     | 33.66      | 37.771     |  46.8 |  8.97
Other   |            | 0.2258     |            |       |  0.06

Nlocal:          34.25 ave          42 max          23 min
Histogram: 2 0 0 1 0 0 1 0 2 2
Nghost:        2787.38 ave        2819 max        2766 min
Histogram: 3 0 1 1 0 1 0 0 0 2
Neighs:        18752.8 ave       22882 max       12829 min
Histogram: 2 0 0 1 0 0 1 0 1 3

Total # of neighbors = 150022
Ave neighs/atom = 547.52555
Ave special neighs/atom = 0
Neighbor list builds = 1000
Dangerous builds not checked
OMP_NUM_THREADS environment is not set. Defaulting to 1 thread. (src/comm.cpp:98)
  using 1 OpenMP thread(s) per MPI task
Reading restart file ...
  restart file = 2 Aug 2023, LAMMPS = 2 Aug 2023
  restoring atom style full from restart
  triclinic box = (0 0 0) to (16.8189 12.842 16.0755) with tilt (-8.3798 1.195 0.4312)
WARNING: Triclinic box skew is large. LAMMPS will run inefficiently. (src/domain.cpp:220)
  2 by 2 by 2 MPI processor grid
  pair style reaxff stores no restart info
  274 atoms
Finding 1-2 1-3 1-4 neighbors ...
  special bond factors lj:    0        0        0       
  special bond factors coul:  0        0        0       
     0 = max # of 1-2 neighbors
     0 = max # of 1-3 neighbors
     0 = max # of 1-4 neighbors
     1 = max # of special neighbors
  special bonds CPU = 0.000 seconds
  read_restart CPU = 0.003 seconds
*****debug*****
xy = -8.3797999999999994714, deltaxy = 0.083798
xz = 1.1950000000000000622, deltaxz = -0.01195
yz = 0.43120000000000002771, deltayz = -0.004312
*****
*****Negative-deform 2 starts.*****
Resetting global fix info from restart file:
  fix style: nvt, fix ID: fnvt
All restart file global fix info was re-assigned
Neighbor list info ...
  update: every = 10 steps, delay = 0 steps, check = no
  max neighbors/atom: 2000, page size: 100000
  master list distance cutoff = 12
  ghost atom cutoff = 12
  binsize = 6, bins = 5 3 3
  2 neighbor lists, perpetual/occasional/extra = 2 0 0
  (1) pair reaxff, perpetual
      attributes: half, newton off, ghost
      pair build: half/bin/newtoff/ghost
      stencil: full/ghost/bin/3d
      bin: standard
  (2) fix qeq/reaxff, perpetual, copy from (1)
      attributes: half, newton off
      pair build: copy
      stencil: none
      bin: none
Setting up Verlet run ...
  Unit style    : real
  Current step  : 0
  Time step     : 0.5
Per MPI rank memory allocation (min/avg/max) = 109.7 | 110.8 | 112.3 Mbytes
   Step          Temp          PotEng         Press         Density         Volume    
         0   312.04252     -32089.043     -954.45699      1.4594291      3472.1201    
       100   307.30257     -32082.913      6253.5848      1.4595751      3471.7729    
       200   287.50387     -32086.854      4517.9594      1.459721       3471.4257    
       300   277.94011     -32098.393     -1941.1047      1.4598671      3471.0785    
       400   292.92802     -32101.538     -8240.9687      1.4600131      3470.7313    
       500   311.64241     -32090.828     -11656.375      1.4601592      3470.3841    
       600   341.75719     -32110.203     -5696.6215      1.4603053      3470.0369    
       700   309.03204     -32090.419      9158.4201      1.4604514      3469.6897    
       800   307.84705     -32104.034      4092.0208      1.4605976      3469.3424    
       900   296.0662      -32110.809     -5497.6885      1.4607438      3468.9952    
      1000   313.63047     -32108.358      2389.265       1.46089        3468.648     
      1100   305.21375     -32075.064     -11802.04       1.4610362      3468.3008    
      1200   316.22287     -32089.147     -6250.5343      1.4611825      3467.9536    
      1300   318.03579     -32102.707     -3577.0102      1.4613288      3467.6064    
      1400   293.48531     -32093.066     -12191.481      1.4614752      3467.2592    
      1500   296.09757     -32104.439     -681.67641      1.4616215      3466.912     
      1600   274.48674     -32109.324     -11921.16       1.4617679      3466.5647    
      1700   298.494       -32121.953     -12022.543      1.4619144      3466.2175    
      1800   294.71657     -32093.49       1103.9083      1.4620608      3465.8703    
      1900   309.48021     -32101.462     -3119.4667      1.4622073      3465.5231    
      2000   299.28821     -32093.586     -7451.3011      1.4623538      3465.1759    
      2100   289.82811     -32095.538     -6806.9894      1.4625003      3464.8287    
      2200   296.70785     -32109.844     -5533.9769      1.4626469      3464.4815    
      2300   278.83962     -32126.359     -4215.2032      1.4627935      3464.1343    
      2400   269.42162     -32121.594     -1532.8942      1.4629402      3463.7871    
      2500   303.27321     -32124.639      967.63307      1.4630868      3463.4398    
      2600   298.46722     -32108.095     -7934.2092      1.4632335      3463.0926    
      2700   300.38089     -32102.681      6562.1641      1.4633802      3462.7454    
      2800   291.7682      -32085.725     -6273.0867      1.463527       3462.3982    
      2900   308.30059     -32079.203     -11463.764      1.4636738      3462.051     
      3000   324.60031     -32086.503     -447.81046      1.4638206      3461.7038    
      3100   296.85695     -32097.118     -6666.3379      1.4639674      3461.3566    
      3200   302.36852     -32114.266     -4160.1114      1.4641143      3461.0094    
      3300   288.64158     -32109.753     -12303.911      1.4642612      3460.6621    
      3400   313.70535     -32116.412     -3067.3171      1.4644081      3460.3149    
      3500   326.8037      -32107.467     -3880.0911      1.464555       3459.9677    
      3600   316.21538     -32108.493     -3918.0113      1.464702       3459.6205    
      3700   307.23238     -32132.975     -10973.549      1.464849       3459.2733    
      3800   273.12968     -32108.704     -6736.0809      1.4649961      3458.9261    
      3900   280.25228     -32093.85      -2834.4737      1.4651432      3458.5789    
      4000   298.20845     -32094.776     -16325.843      1.4652903      3458.2317    
      4100   312.42717     -32106.89      -7010.5361      1.4654374      3457.8844    
      4200   286.78464     -32096.326     -13416.753      1.4655846      3457.5372    
      4300   277.40057     -32099.105     -13279.145      1.4657317      3457.19      
      4400   274.80648     -32106.08      -8481.4775      1.465879       3456.8428    
      4500   303.13797     -32108.582     -6175.5122      1.4660262      3456.4956    
      4600   305.18184     -32094.374     -2306.2602      1.4661735      3456.1484    
      4700   296.98165     -32082.499      2792.8512      1.4663208      3455.8012    
      4800   322.95937     -32098.913     -16700.816      1.4664681      3455.454     
      4900   314.54965     -32109.871      1370.1085      1.4666155      3455.1067    
      5000   295.06724     -32113.27      -6941.8562      1.4667629      3454.7595    
      5100   298.29132     -32116.098      2920.2485      1.4669103      3454.4123    
      5200   305.19944     -32101.198     -11893.088      1.4670578      3454.0651    
      5300   320.83555     -32087.738     -4830.2559      1.4672053      3453.7179    
      5400   324.40259     -32094.875     -907.01437      1.4673528      3453.3707    
      5500   308.6446      -32095.711     -5387.1862      1.4675003      3453.0235    
      5600   302.7097      -32102.229     -10249.41       1.4676479      3452.6763    
      5700   322.01938     -32121.873     -9788.0156      1.4677955      3452.3291    
      5800   286.37605     -32099.121     -4512.4605      1.4679432      3451.9818    
      5900   282.70174     -32111.343      2493.5851      1.4680908      3451.6346    
      6000   256.07744     -32110.531     -3404.2661      1.4682385      3451.2874    
      6100   281.25869     -32111.208      1368.9759      1.4683863      3450.9402    
      6200   309.73313     -32117.185      394.28023      1.468534       3450.593     
      6300   297.93406     -32102.301     -7361.8603      1.4686818      3450.2458    
      6400   306.00001     -32104.935      1618.3384      1.4688296      3449.8986    
      6500   284.61469     -32098.031     -7469.488       1.4689775      3449.5514    
      6600   292.53129     -32129.83      -3564.4784      1.4691253      3449.2041    
      6700   285.35013     -32132.925     -291.35362      1.4692732      3448.8569    
      6800   295.64583     -32121.91      -5769.2465      1.4694212      3448.5097    
      6900   300.41678     -32113.298     -10263.332      1.4695691      3448.1625    
      7000   289.13717     -32104.425     -14400.276      1.4697171      3447.8153    
      7100   301.01233     -32109.633     -15078.423      1.4698651      3447.4681    
      7200   313.98988     -32130.318      6095.1636      1.4700132      3447.1209    
      7300   292.89833     -32140.694     -90.639086      1.4701613      3446.7737    
      7400   285.84305     -32129.586     -11316.583      1.4703094      3446.4264    
      7500   303.90025     -32123.481      1439.2464      1.4704575      3446.0792    
      7600   317.28498     -32120.042     -10496.312      1.4706057      3445.732     
      7700   318.38777     -32127.007     -2083.0494      1.4707539      3445.3848    
      7800   294.6619      -32138.968     -8638.8319      1.4709021      3445.0376    
      7900   285.35759     -32141.787      959.6697       1.4710504      3444.6904    
      8000   289.53787     -32134.875     -6056.0467      1.4711987      3444.3432    
      8100   293.02741     -32122.285      2837.7375      1.471347       3443.996     
      8200   293.66084     -32111.303     -12508.968      1.4714954      3443.6488    
      8300   290.15253     -32118.062     -9696.2321      1.4716437      3443.3015    
      8400   301.81762     -32141.071     -5234.6462      1.4717922      3442.9543    
      8500   269.95912     -32148.872     -3272.6545      1.4719406      3442.6071    
      8600   278.88932     -32164.906     -2823.3536      1.4720891      3442.2599    
      8700   293.69178     -32153.251     -5461.5206      1.4722376      3441.9127    
      8800   296.70876     -32135.405     -5441.0172      1.4723861      3441.5655    
      8900   306.91034     -32127.284     -9232.2204      1.4725347      3441.2183    
      9000   313.15369     -32132.002     -11076.761      1.4726832      3440.8711    
      9100   287.40805     -32133.618     -8592.7751      1.4728319      3440.5238    
      9200   272.28663     -32138.365     -4414.7631      1.4729805      3440.1766    
      9300   273.70764     -32130.571     -3819.9767      1.4731292      3439.8294    
      9400   294.99906     -32136.766     -7681.2529      1.4732779      3439.4822    
      9500   324.61304     -32151.422      2381.3966      1.4734267      3439.135     
      9600   310.70829     -32129.932     -168.59758      1.4735754      3438.7878    
      9700   304.53085     -32120.067      3859.7558      1.4737242      3438.4406    
      9800   292.59538     -32130.939     -7531.2773      1.4738731      3438.0934    
      9900   277.04185     -32137.939     -10289.045      1.4740219      3437.7461    
     10000   288.2954      -32148.182     -6367.7479      1.4741708      3437.3989    
Loop time of 388.679 on 8 procs for 10000 steps with 274 atoms

Performance: 1.111 ns/day, 21.593 hours/ns, 25.728 timesteps/s, 7.050 katom-step/s
98.8% CPU use with 8 MPI tasks x 1 OpenMP threads

MPI task timing breakdown:
Section |  min time  |  avg time  |  max time  |%varavg| %total
---------------------------------------------------------------
Pair    | 256.42     | 310.23     | 327.85     | 122.8 | 79.82
Bond    | 0.028218   | 0.030313   | 0.032004   |   0.8 |  0.01
Neigh   | 17.603     | 21.758     | 22.562     |  33.8 |  5.60
Comm    | 4.8119     | 22.456     | 76.236     | 456.5 |  5.78
Output  | 0.029231   | 0.033839   | 0.037636   |   1.6 |  0.01
Modify  | 33.099     | 33.938     | 38.134     |  27.3 |  8.73
Other   |            | 0.2292     |            |       |  0.06

Nlocal:          34.25 ave          40 max          24 min
Histogram: 2 0 0 0 1 0 0 0 2 3
Nghost:        2844.88 ave        2881 max        2812 min
Histogram: 1 1 1 0 1 1 1 1 0 1
Neighs:        19155.2 ave       22320 max       13610 min
Histogram: 2 0 0 0 1 0 0 0 2 3

Total # of neighbors = 153242
Ave neighs/atom = 559.27737
Ave special neighs/atom = 0
Neighbor list builds = 1000
Dangerous builds not checked
OMP_NUM_THREADS environment is not set. Defaulting to 1 thread. (src/comm.cpp:98)
  using 1 OpenMP thread(s) per MPI task
Reading restart file ...
  restart file = 2 Aug 2023, LAMMPS = 2 Aug 2023
  restoring atom style full from restart
  triclinic box = (0 0 0) to (16.8189 12.842 16.0755) with tilt (-8.3798 1.195 0.4312)
WARNING: Triclinic box skew is large. LAMMPS will run inefficiently. (src/domain.cpp:220)
  2 by 2 by 2 MPI processor grid
  pair style reaxff stores no restart info
  274 atoms
Finding 1-2 1-3 1-4 neighbors ...
  special bond factors lj:    0        0        0       
  special bond factors coul:  0        0        0       
     0 = max # of 1-2 neighbors
     0 = max # of 1-3 neighbors
     0 = max # of 1-4 neighbors
     1 = max # of special neighbors
  special bonds CPU = 0.000 seconds
  read_restart CPU = 0.003 seconds
*****Positive-deform 2 starts.*****
Resetting global fix info from restart file:
  fix style: nvt, fix ID: fnvt
All restart file global fix info was re-assigned
Neighbor list info ...
  update: every = 10 steps, delay = 0 steps, check = no
  max neighbors/atom: 2000, page size: 100000
  master list distance cutoff = 12
  ghost atom cutoff = 12
  binsize = 6, bins = 5 3 3
  2 neighbor lists, perpetual/occasional/extra = 2 0 0
  (1) pair reaxff, perpetual
      attributes: half, newton off, ghost
      pair build: half/bin/newtoff/ghost
      stencil: full/ghost/bin/3d
      bin: standard
  (2) fix qeq/reaxff, perpetual, copy from (1)
      attributes: half, newton off
      pair build: copy
      stencil: none
      bin: none
Setting up Verlet run ...
  Unit style    : real
  Current step  : 0
  Time step     : 0.5
Per MPI rank memory allocation (min/avg/max) = 109.7 | 110.8 | 112.3 Mbytes
   Step          Temp          PotEng         Press         Density         Volume    
         0   312.04252     -32089.043     -954.45699      1.4594291      3472.1201    
       100   307.24035     -32082.886      6264.9377      1.4592832      3472.4674    
       200   287.27968     -32086.679      4177.7099      1.4591373      3472.8146    
       300   275.22113     -32095.871     -2553.8584      1.4589914      3473.1618    
       400   291.30846     -32099.761     -8485.9785      1.4588456      3473.509     
       500   296.2029      -32077.798     -10704.673      1.4586997      3473.8562    
       600   336.44735     -32106.52      -2370.279       1.458554       3474.2034    
       700   310.50325     -32091.266     -2911.9726      1.4584082      3474.5506    
       800   296.77786     -32092.12       2207.0776      1.4582625      3474.8978    
       900   266.52393     -32086.696     -6514.2071      1.4581168      3475.245     
      1000   297.09363     -32100.35      -11549.756      1.4579711      3475.5923    
      1100   321.77263     -32084.634     -11611.624      1.4578255      3475.9395    
      1200   315.37319     -32085.016     -541.46123      1.4576799      3476.2867    
      1300   292.18396     -32085.801      5552.399       1.4575343      3476.6339    
      1400   302.04816     -32107.532     -2126.635       1.4573888      3476.9811    
      1500   278.17797     -32090.169     -13265.929      1.4572432      3477.3283    
      1600   321.96841     -32101.395     -2648.7126      1.4570977      3477.6755    
      1700   304.62142     -32066.676     -1977.4653      1.4569523      3478.0227    
      1800   311.49107     -32077.207     -6166.0948      1.4568068      3478.37      
      1900   294.03129     -32084.739     -10037.32       1.4566614      3478.7172    
      2000   296.46655     -32092.01      -2485.9561      1.4565161      3479.0644    
      2100   288.71518     -32083.304     -16180.426      1.4563707      3479.4116    
      2200   295.68404     -32084.561     -7331.4316      1.4562254      3479.7588    
      2300   309.44141     -32092.223     -5426.0132      1.4560801      3480.106     
      2400   296.45543     -32084.076     -10438.341      1.4559349      3480.4532    
      2500   302.86917     -32093.105     -2460.5608      1.4557896      3480.8004    
      2600   289.65184     -32077.649     -6377.1649      1.4556444      3481.1477    
      2700   305.61814     -32074.622     -8577.4944      1.4554992      3481.4949    
      2800   326.76388     -32089.902      7744.3151      1.4553541      3481.8421    
      2900   300.58408     -32096.053      5253.0584      1.455209       3482.1893    
      3000   282.6013      -32097.209     -11293.913      1.4550639      3482.5365    
      3100   290.65294     -32095.553     -11364.295      1.4549188      3482.8837    
      3200   301.61098     -32080.773      10805.085      1.4547738      3483.2309    
      3300   315.25094     -32083.936      1238.6938      1.4546288      3483.5781    
      3400   312.48093     -32086.861     -2250.4919      1.4544839      3483.9253    
      3500   323.43211     -32103.946     -12221.182      1.4543389      3484.2726    
      3600   291.31088     -32086.983     -16825.12       1.454194       3484.6198    
      3700   309.48065     -32106.441      2273.8108      1.4540491      3484.967     
      3800   314.37583     -32108.848     -10557.903      1.4539043      3485.3142    
      3900   311.33367     -32081.605     -7165.6161      1.4537594      3485.6614    
      4000   333.07695     -32090.48      -6107.0251      1.4536146      3486.0086    
      4100   301.7541      -32096.063      2735.2337      1.4534699      3486.3558    
      4200   289.88898     -32104.103     -3059.3405      1.4533251      3486.703     
      4300   284.64693     -32108.611      4997.06        1.4531804      3487.0503    
      4400   294.73903     -32114.266     -10720.349      1.4530357      3487.3975    
      4500   307.76326     -32099.736     -13499.762      1.4528911      3487.7447    
      4600   301.75798     -32080.125      3961.7286      1.4527465      3488.0919    
      4700   319.82891     -32100.859     -371.68346      1.4526019      3488.4391    
      4800   302.62022     -32112.831     -11578.01       1.4524573      3488.7863    
      4900   292.04337     -32104.885     -202.66527      1.4523128      3489.1335    
      5000   295.2757      -32101.46      -2865.4521      1.4521683      3489.4807    
      5100   282.13263     -32081.897     -14933.879      1.4520238      3489.828     
      5200   310.2541      -32102.194     -10679.769      1.4518793      3490.1752    
      5300   284.89988     -32097.543     -4260.1297      1.4517349      3490.5224    
      5400   280.41983     -32107.548     -13526.179      1.4515905      3490.8696    
      5500   300.89017     -32116.01      -5539.0415      1.4514461      3491.2168    
      5600   309.1525      -32097.083      11209.008      1.4513018      3491.564     
      5700   325.17739     -32107.445     -822.02469      1.4511575      3491.9112    
      5800   296.21501     -32102.502     -2366.9341      1.4510132      3492.2584    
      5900   324.92558     -32129.797     -2347.3636      1.450869       3492.6056    
      6000   289.53989     -32102.577     -3069.3741      1.4507247      3492.9529    
      6100   276.88512     -32092.188     -5810.5748      1.4505806      3493.3001    
      6200   304.99157     -32103.653     -3722.2061      1.4504364      3493.6473    
      6300   299.82968     -32088.388     -18031.968      1.4502923      3493.9945    
      6400   330.47219     -32100.895     -16293.84       1.4501481      3494.3417    
      6500   300.43696     -32095.821      2658.6891      1.4500041      3494.6889    
      6600   287.73337     -32109.692     -4995.9869      1.44986        3495.0361    
      6700   293.89444     -32115.863     -1221.955       1.449716       3495.3833    
      6800   301.23773     -32112.951     -5225.4569      1.449572       3495.7306    
      6900   307.58665     -32098.197     -2655.9309      1.449428       3496.0778    
      7000   329.77428     -32083.435     -15796.112      1.4492841      3496.425     
      7100   323.81459     -32092.544     -3086.2798      1.4491402      3496.7722    
      7200   308.56776     -32097.491      8098.0741      1.4489963      3497.1194    
      7300   298.50221     -32111.175     -5790.9192      1.4488525      3497.4666    
      7400   285.14581     -32118.548     -8390.128       1.4487087      3497.8138    
      7500   289.04223     -32122.857      5062.0983      1.4485649      3498.161     
      7600   300.96932     -32115.346      6873.1819      1.4484211      3498.5083    
      7700   340.92634     -32120.077      5467.7571      1.4482774      3498.8555    
      7800   300.26592     -32085.499      4012.3487      1.4481337      3499.2027    
      7900   322.95416     -32114.307     -7441.2998      1.44799        3499.5499    
      8000   312.51703     -32115.92      -1282.4156      1.4478463      3499.8971    
      8100   303.68338     -32120.48       5220.4043      1.4477027      3500.2443    
      8200   286.92789     -32115.257      173.36072      1.4475591      3500.5915    
      8300   325.34425     -32136.202     -5792.9131      1.4474155      3500.9387    
      8400   324.05468     -32106.464     -5912.1922      1.447272       3501.2859    
      8500   326.60006     -32103.498     -2584.6623      1.4471285      3501.6332    
      8600   317.88233     -32115.62       2970.4049      1.446985       3501.9804    
      8700   300.47816     -32120.389      4742.5442      1.4468416      3502.3276    
      8800   291.16069     -32113.617     -14260.748      1.4466982      3502.6748    
      8900   309.50518     -32116.306     -1719.0402      1.4465548      3503.022     
      9000   306.52917     -32099.919      2682.3771      1.4464114      3503.3692    
      9100   298.27005     -32101.448     -15196.841      1.4462681      3503.7164    
      9200   288.22286     -32123.706     -4124.0707      1.4461247      3504.0636    
      9300   279.41322     -32123.292      2452.4973      1.4459815      3504.4109    
      9400   284.4799      -32113.317     -67.992325      1.4458382      3504.7581    
      9500   313.31989     -32114.584      3696.188       1.445695       3505.1053    
      9600   306.00862     -32106.122     -10677.303      1.4455518      3505.4525    
      9700   300.40044     -32108.366      6834.6171      1.4454086      3505.7997    
      9800   300.65331     -32124.61      -40.448021      1.4452655      3506.1469    
      9900   293.69215     -32134.676      1275.4353      1.4451224      3506.4941    
     10000   283.07344     -32141.693     -4464.1974      1.4449793      3506.8413    
Loop time of 383.192 on 8 procs for 10000 steps with 274 atoms

Performance: 1.127 ns/day, 21.288 hours/ns, 26.097 timesteps/s, 7.150 katom-step/s
98.7% CPU use with 8 MPI tasks x 1 OpenMP threads

MPI task timing breakdown:
Section |  min time  |  avg time  |  max time  |%varavg| %total
---------------------------------------------------------------
Pair    | 261.33     | 304.29     | 320.77     | 110.9 | 79.41
Bond    | 0.028616   | 0.030777   | 0.033795   |   1.0 |  0.01
Neigh   | 17.821     | 21.343     | 22.295     |  30.4 |  5.57
Comm    | 6.6884     | 23.213     | 66.135     | 401.7 |  6.06
Output  | 0.029079   | 0.033817   | 0.037844   |   1.6 |  0.01
Modify  | 33.04      | 34.045     | 37.627     |  24.4 |  8.88
Other   |            | 0.2347     |            |       |  0.06

Nlocal:          34.25 ave          40 max          22 min
Histogram: 1 0 0 0 1 1 0 2 1 2
Nghost:           2774 ave        2817 max        2738 min
Histogram: 2 0 2 0 0 0 2 1 0 1
Neighs:        18773.8 ave       21846 max       12299 min
Histogram: 1 0 0 0 1 1 0 2 1 2

Total # of neighbors = 150190
Ave neighs/atom = 548.13869
Ave special neighs/atom = 0
Neighbor list builds = 1000
Dangerous builds not checked
OMP_NUM_THREADS environment is not set. Defaulting to 1 thread. (src/comm.cpp:98)
  using 1 OpenMP thread(s) per MPI task
Reading restart file ...
  restart file = 2 Aug 2023, LAMMPS = 2 Aug 2023
  restoring atom style full from restart
  triclinic box = (0 0 0) to (16.8189 12.842 16.0755) with tilt (-8.3798 1.195 0.4312)
WARNING: Triclinic box skew is large. LAMMPS will run inefficiently. (src/domain.cpp:220)
  2 by 2 by 2 MPI processor grid
  pair style reaxff stores no restart info
  274 atoms
Finding 1-2 1-3 1-4 neighbors ...
  special bond factors lj:    0        0        0       
  special bond factors coul:  0        0        0       
     0 = max # of 1-2 neighbors
     0 = max # of 1-3 neighbors
     0 = max # of 1-4 neighbors
     1 = max # of special neighbors
  special bonds CPU = 0.000 seconds
  read_restart CPU = 0.003 seconds
*****debug*****
xy = -8.3797999999999994714, deltaxy = 0.083798
xz = 1.1950000000000000622, deltaxz = -0.01195
yz = 0.43120000000000002771, deltayz = -0.004312
*****
*****Negative-deform 3 starts.*****
Resetting global fix info from restart file:
  fix style: nvt, fix ID: fnvt
All restart file global fix info was re-assigned
Neighbor list info ...
  update: every = 10 steps, delay = 0 steps, check = no
  max neighbors/atom: 2000, page size: 100000
  master list distance cutoff = 12
  ghost atom cutoff = 12
  binsize = 6, bins = 5 3 3
  2 neighbor lists, perpetual/occasional/extra = 2 0 0
  (1) pair reaxff, perpetual
      attributes: half, newton off, ghost
      pair build: half/bin/newtoff/ghost
      stencil: full/ghost/bin/3d
      bin: standard
  (2) fix qeq/reaxff, perpetual, copy from (1)
      attributes: half, newton off
      pair build: copy
      stencil: none
      bin: none
Setting up Verlet run ...
  Unit style    : real
  Current step  : 0
  Time step     : 0.5
Per MPI rank memory allocation (min/avg/max) = 109.7 | 110.8 | 112.3 Mbytes
   Step          Temp          PotEng         Press         Density         Volume    
         0   312.04252     -32089.043     -954.45699      1.4594291      3472.1201    
       100   307.29306     -32082.91       6249.7283      1.4595751      3471.7729    
       200   287.54621     -32086.859      4341.1807      1.459721       3471.4257    
       300   276.67855     -32097.213     -2188.0803      1.4598671      3471.0785    
       400   291.32053     -32100.262     -8806.2358      1.4600131      3470.7313    
       500   304.11142     -32085.118     -11310.677      1.4601592      3470.3841    
       600   327.61504     -32098.792     -6349.7581      1.4603053      3470.0369    
       700   310.89942     -32090.185      1085.9914      1.4604514      3469.6897    
       800   304.33701     -32098.099      654.1318       1.4605976      3469.3424    
       900   291.14308     -32106.101     -10656.79       1.4607438      3468.9952    
      1000   285.37111     -32105.753      1773.1623      1.46089        3468.648     
      1100   283.55928     -32079.09      -13323.928      1.4610362      3468.3008    
      1200   301.73799     -32074.038      329.32621      1.4611825      3467.9536    
      1300   307.62316     -32079.328     -2011.8562      1.4613288      3467.6064    
      1400   300.43006     -32100.548     -5955.7688      1.4614752      3467.2592    
      1500   305.36872     -32116.551     -261.41194      1.4616215      3466.912     
      1600   275.68319     -32090.091     -7833.9471      1.4617679      3466.5647    
      1700   291.31942     -32086.56      -2043.9669      1.4619144      3466.2175    
      1800   317.25452     -32099.399      4009.0116      1.4620608      3465.8703    
      1900   306.92788     -32113.363     -9075.7461      1.4622073      3465.5231    
      2000   288.57747     -32127.137     -12403.419      1.4623538      3465.1759    
      2100   295.60791     -32123.411     -9784.1788      1.4625003      3464.8287    
      2200   288.17868     -32099.16      -7206.3006      1.4626469      3464.4815    
      2300   309.04511     -32100.178     -7071.9885      1.4627935      3464.1343    
      2400   292.83731     -32081.595     -1214.3041      1.4629402      3463.7871    
      2500   311.63201     -32073.233     -5644.4998      1.4630868      3463.4398    
      2600   326.0209      -32086.488     -2819.8323      1.4632335      3463.0926    
      2700   304.96927     -32102.416     -5635.3238      1.4633802      3462.7454    
      2800   295.74252     -32105.276     -10241.888      1.463527       3462.3982    
      2900   286.49735     -32101.639     -5111.551       1.4636738      3462.051     
      3000   297.72883     -32108.714     -5205.9789      1.4638206      3461.7038    
      3100   306.24147     -32096.945     -7219.1129      1.4639674      3461.3566    
      3200   308.92464     -32080.866     -8001.9761      1.4641143      3461.0094    
      3300   309.25708     -32085.909     -12777.135      1.4642612      3460.6621    
      3400   289.71163     -32102.061      2572.3695      1.4644081      3460.3149    
      3500   290.48112     -32112.2       -12598.101      1.464555       3459.9677    
      3600   295.93799     -32107.493     -8676.829       1.464702       3459.6205    
      3700   299.23741     -32098.319     -25442.066      1.464849       3459.2733    
      3800   310.39161     -32082.793      3734.6509      1.4649961      3458.9261    
      3900   317.39076     -32070.511     -2115.4285      1.4651432      3458.5789    
      4000   318.50413     -32080.59      -9801.6514      1.4652903      3458.2317    
      4100   308.02048     -32097.346     -15233.954      1.4654374      3457.8844    
      4200   315.84896     -32121.745      852.71405      1.4655846      3457.5372    
      4300   272.90665     -32095.966     -11807.324      1.4657317      3457.19      
      4400   311.71402     -32116.2       -6588.2624      1.465879       3456.8428    
      4500   316.53912     -32087.647     -8977.5302      1.4660262      3456.4956    
      4600   332.51132     -32100.397     -7391.8074      1.4661735      3456.1484    
      4700   300.49588     -32094.553     -4381.8914      1.4663208      3455.8012    
      4800   303.16872     -32104.958      5902.6065      1.4664681      3455.454     
      4900   294.83192     -32094.948     -17610.704      1.4666155      3455.1067    
      5000   331.31952     -32090.214     -15693.079      1.4667629      3454.7595    
      5100   316.98372     -32079.623     -4828.9451      1.4669103      3454.4123    
      5200   292.84198     -32086.81      -7022.8945      1.4670578      3454.0651    
      5300   305.35932     -32108.089     -10451.306      1.4672053      3453.7179    
      5400   301.66789     -32103.551      4831.7588      1.4673528      3453.3707    
      5500   289.82785     -32097.881     -5491.9034      1.4675003      3453.0235    
      5600   290.0909      -32113.385     -10673.844      1.4676479      3452.6763    
      5700   273.05328     -32115.375     -12658.533      1.4677955      3452.3291    
      5800   284.02973     -32111.954     -12495.982      1.4679432      3451.9818    
      5900   325.99768     -32118.133      5910.0943      1.4680908      3451.6346    
      6000   304.34144     -32099.103     -7694.7748      1.4682385      3451.2874    
      6100   282.60799     -32091.945     -10558.554      1.4683863      3450.9402    
      6200   287.38903     -32106.404     -11979.159      1.468534       3450.593     
      6300   275.47042     -32120.566     -8954.3416      1.4686818      3450.2458    
      6400   278.73741     -32125.637      5556.4325      1.4688296      3449.8986    
      6500   314.79676     -32121.65      -2257.9583      1.4689775      3449.5514    
      6600   283.9595      -32092.022     -3921.46        1.4691253      3449.2041    
      6700   299.67914     -32101.364     -6871.2511      1.4692732      3448.8569    
      6800   326.61087     -32104.957     -4273.5844      1.4694212      3448.5097    
      6900   304.76539     -32083.483     -5850.7112      1.4695691      3448.1625    
      7000   297.03062     -32107.127      7448.9142      1.4697171      3447.8153    
      7100   287.92492     -32110.91      -2760.0011      1.4698651      3447.4681    
      7200   303.98321     -32111.894     -4223.664       1.4700132      3447.1209    
      7300   302.05374     -32095.22       8649.7316      1.4701613      3446.7737    
      7400   310.13788     -32089.213     -7756.3529      1.4703094      3446.4264    
      7500   305.43524     -32091.603     -3181.3013      1.4704575      3446.0792    
      7600   288.55071     -32095.914      520.54027      1.4706057      3445.732     
      7700   296.92342     -32107.085      3340.0485      1.4707539      3445.3848    
      7800   289.88714     -32096.695     -6109.5106      1.4709021      3445.0376    
      7900   310.62382     -32091.878      2139.1975      1.4710504      3444.6904    
      8000   324.44802     -32089.377      2592.4729      1.4711987      3444.3432    
      8100   289.92871     -32078.145      4888.3916      1.471347       3443.996     
      8200   302.78365     -32119.641     -3007.2384      1.4714954      3443.6488    
      8300   300.55885     -32122.822     -7656.7532      1.4716437      3443.3015    
      8400   297.03229     -32113.137     -4985.7397      1.4717922      3442.9543    
      8500   309.89695     -32108.351      5185.8996      1.4719406      3442.6071    
      8600   302.20253     -32087.477     -7495.0475      1.4720891      3442.2599    
      8700   295.37864     -32081.31      -4736.4059      1.4722376      3441.9127    
      8800   288.82665     -32107.277      6238.0488      1.4723861      3441.5655    
      8900   293.8993      -32119.553      19.470328      1.4725347      3441.2183    
      9000   284.27675     -32105.195     -10159.352      1.4726832      3440.8711    
      9100   324.91884     -32114.891      4710.5042      1.4728319      3440.5238    
      9200   302.79746     -32073.264      2047.3303      1.4729805      3440.1766    
      9300   297.05623     -32073.173      3097.6563      1.4731292      3439.8294    
      9400   278.31334     -32075.154     -3682.344       1.4732779      3439.4822    
      9500   313.86037     -32108.104      5250.2853      1.4734267      3439.135     
      9600   317.83656     -32126.197     -904.10442      1.4735754      3438.7878    
      9700   286.00993     -32123.235     -1989.0738      1.4737242      3438.4406    
      9800   273.0579      -32112.271     -4785.0035      1.4738731      3438.0934    
      9900   312.05424     -32121.541     -1096.4586      1.4740219      3437.7461    
     10000   325.49896     -32121.749      4289.5768      1.4741708      3437.3989    
Loop time of 367.107 on 8 procs for 10000 steps with 274 atoms

Performance: 1.177 ns/day, 20.395 hours/ns, 27.240 timesteps/s, 7.464 katom-step/s
98.8% CPU use with 8 MPI tasks x 1 OpenMP threads

MPI task timing breakdown:
Section |  min time  |  avg time  |  max time  |%varavg| %total
---------------------------------------------------------------
Pair    | 226.65     | 275.1      | 307.15     | 194.8 | 74.94
Bond    | 0.025984   | 0.02735    | 0.028793   |   0.6 |  0.01
Neigh   | 17.588     | 20.57      | 22.46      |  48.3 |  5.60
Comm    | 4.1549     | 36.211     | 84.658     | 536.9 |  9.86
Output  | 0.024897   | 0.028475   | 0.031613   |   1.4 |  0.01
Modify  | 33.012     | 34.949     | 37.954     |  37.3 |  9.52
Other   |            | 0.2162     |            |       |  0.06

Nlocal:          34.25 ave          44 max          23 min
Histogram: 1 2 0 0 0 0 3 0 0 2
Nghost:        2838.38 ave        2859 max        2822 min
Histogram: 1 0 1 2 1 1 1 0 0 1
Neighs:        19132.9 ave       24270 max       13078 min
Histogram: 1 2 0 0 0 0 3 0 0 2

Total # of neighbors = 153063
Ave neighs/atom = 558.62409
Ave special neighs/atom = 0
Neighbor list builds = 1000
Dangerous builds not checked
OMP_NUM_THREADS environment is not set. Defaulting to 1 thread. (src/comm.cpp:98)
  using 1 OpenMP thread(s) per MPI task
Reading restart file ...
  restart file = 2 Aug 2023, LAMMPS = 2 Aug 2023
  restoring atom style full from restart
  triclinic box = (0 0 0) to (16.8189 12.842 16.0755) with tilt (-8.3798 1.195 0.4312)
WARNING: Triclinic box skew is large. LAMMPS will run inefficiently. (src/domain.cpp:220)
  2 by 2 by 2 MPI processor grid
  pair style reaxff stores no restart info
  274 atoms
Finding 1-2 1-3 1-4 neighbors ...
  special bond factors lj:    0        0        0       
  special bond factors coul:  0        0        0       
     0 = max # of 1-2 neighbors
     0 = max # of 1-3 neighbors
     0 = max # of 1-4 neighbors
     1 = max # of special neighbors
  special bonds CPU = 0.000 seconds
  read_restart CPU = 0.002 seconds
*****Positive-deform 3 starts.*****
Resetting global fix info from restart file:
  fix style: nvt, fix ID: fnvt
All restart file global fix info was re-assigned
Neighbor list info ...
  update: every = 10 steps, delay = 0 steps, check = no
  max neighbors/atom: 2000, page size: 100000
  master list distance cutoff = 12
  ghost atom cutoff = 12
  binsize = 6, bins = 5 3 3
  2 neighbor lists, perpetual/occasional/extra = 2 0 0
  (1) pair reaxff, perpetual
      attributes: half, newton off, ghost
      pair build: half/bin/newtoff/ghost
      stencil: full/ghost/bin/3d
      bin: standard
  (2) fix qeq/reaxff, perpetual, copy from (1)
      attributes: half, newton off
      pair build: copy
      stencil: none
      bin: none
Setting up Verlet run ...
  Unit style    : real
  Current step  : 0
  Time step     : 0.5
Per MPI rank memory allocation (min/avg/max) = 109.7 | 110.8 | 112.3 Mbytes
   Step          Temp          PotEng         Press         Density         Volume    
         0   312.04252     -32089.043     -954.45699      1.4594291      3472.1201    
       100   307.28321     -32082.913      6248.1757      1.4592832      3472.4674    
       200   287.35006     -32086.892      4442.2324      1.4591373      3472.8146    
       300   277.9345      -32098.52      -1746.0626      1.4589914      3473.1618    
       400   294.16348     -32102.208     -9746.9748      1.4588456      3473.509     
       500   306.20639     -32086.411     -13361.717      1.4586997      3473.8562    
       600   322.73479     -32094.576      2927.5632      1.458554       3474.2034    
       700   296.33394     -32077.964     -3176.8783      1.4584082      3474.5506    
       800   291.12518     -32087.752      6106.4746      1.4582625      3474.8978    
       900   270.9226      -32090.489     -2151.9633      1.4581168      3475.245     
      1000   307.98071     -32105.355      662.8391       1.4579711      3475.5923    
      1100   313.0748      -32080.345     -13275.979      1.4578255      3475.9395    
      1200   304.06671     -32079.554     -2654.4447      1.4576799      3476.2867    
      1300   300.4923      -32084.345     -705.0991       1.4575343      3476.6339    
      1400   282.71544     -32092.328     -14748.511      1.4573888      3476.9811    
      1500   272.15524     -32096.162     -14706.176      1.4572432      3477.3283    
      1600   306.82382     -32093.654     -4146.6559      1.4570977      3477.6755    
      1700   324.9844      -32088.201     -3232.2034      1.4569523      3478.0227    
      1800   293.96195     -32074.169     -4183.6828      1.4568068      3478.37      
      1900   306.15988     -32102.824     -7172.9552      1.4566614      3478.7172    
      2000   295.0829      -32104         -12442.323      1.4565161      3479.0644    
      2100   296.9115      -32095.201     -13297.283      1.4563707      3479.4116    
      2200   314.79585     -32076.712     -3954.2956      1.4562254      3479.7588    
      2300   305.83937     -32071.255     -5384.2074      1.4560801      3480.106     
      2400   320.9954      -32101.439      8580.3197      1.4559349      3480.4532    
      2500   319.85643     -32111.298     -12772.24       1.4557896      3480.8004    
      2600   286.93261     -32089.428     -3855.8132      1.4556444      3481.1477    
      2700   304.98767     -32104.731      7124.9751      1.4554992      3481.4949    
      2800   304.96594     -32089.964      5143.4449      1.4553541      3481.8421    
      2900   323.77861     -32077.416      192.57075      1.455209       3482.1893    
      3000   307.17546     -32068.66      -10208.704      1.4550639      3482.5365    
      3100   311.79689     -32089.68      -1843.9099      1.4549188      3482.8837    
      3200   290.93049     -32090.722     -9473.7726      1.4547738      3483.2309    
      3300   272.12546     -32085.724     -3249.3449      1.4546288      3483.5781    
      3400   283.23458     -32085.625     -6822.8131      1.4544839      3483.9253    
      3500   327.69358     -32110.172     -1763.5704      1.4543389      3484.2726    
      3600   300.30182     -32096.554      854.74571      1.454194       3484.6198    
      3700   288.91722     -32102.739     -1442.4         1.4540491      3484.967     
      3800   286.50687     -32109.908     -12044.461      1.4539043      3485.3142    
      3900   302.795       -32120.288     -11862.26       1.4537594      3485.6614    
      4000   289.95398     -32082.268     -13596.076      1.4536146      3486.0086    
      4100   336.8637      -32107.509     -6267.5651      1.4534699      3486.3558    
      4200   281.46375     -32071.643     -5967.0855      1.4533251      3486.703     
      4300   302.94174     -32100.215     -9479.5025      1.4531804      3487.0503    
      4400   287.81603     -32114.54      -689.11096      1.4530357      3487.3975    
      4500   276.39473     -32108.741     -5242.3333      1.4528911      3487.7447    
      4600   293.13025     -32098.14      -12577.843      1.4527465      3488.0919    
[...]
      2200   285.73824     -32084.702     -4218.1361      1.4594291      3472.1201    
      2300   309.60438     -32099.491      4237.1393      1.4594291      3472.1201    
      2400   301.64371     -32092.857     -1402.493       1.4594291      3472.1201    
      2500   305.55825     -32094.722     -5998.1835      1.4594291      3472.1201    
      2600   323.18877     -32094.59      -6896.7306      1.4594291      3472.1201    
      2700   312.83452     -32062.665     -1097.3645      1.4594291      3472.1201    
      2800   315.72868     -32071.275     -6825.4039      1.4594291      3472.1201    
      2900   299.24663     -32091.201     -1710.8791      1.4594291      3472.1201    
      3000   289.4801      -32091.789      2140.8647      1.4594291      3472.1201    
      3100   285.45348     -32078.438     -4313.0388      1.4594291      3472.1201    
      3200   322.80519     -32088.38      -1391.5129      1.4594291      3472.1201    
      3300   301.55321     -32070.266     -18.432393      1.4594291      3472.1201    
      3400   284.76029     -32080.562     -87.747437      1.4594291      3472.1201    
      3500   279.38493     -32099.013     -6726.5705      1.4594291      3472.1201    
      3600   297.19564     -32107.909     -4478.9437      1.4594291      3472.1201    
      3700   296.39831     -32092.076     -7699.4482      1.4594291      3472.1201    
      3800   297.04978     -32079.897      30.40128       1.4594291      3472.1201    
      3900   294.60804     -32069.407     -8168.5987      1.4594291      3472.1201    
      4000   302.26437     -32049.268      1612.9291      1.4594291      3472.1201    
      4100   328.73749     -32074.784     -7576.9348      1.4594291      3472.1201    
      4200   306.45734     -32085.732     -6027.6526      1.4594291      3472.1201    
      4300   291.2201      -32083.085     -3804.1895      1.4594291      3472.1201    
      4400   305.93126     -32091.277     -7450.1586      1.4594291      3472.1201    
      4500   307.03596     -32074.489     -8980.5532      1.4594291      3472.1201    
      4600   319.07608     -32061.289     -8056.5885      1.4594291      3472.1201    
      4700   319.02299     -32078.273     -6798.1684      1.4594291      3472.1201    
      4800   303.10384     -32084.413     -4668.7219      1.4594291      3472.1201    
      4900   306.70258     -32093.656     -7960.6246      1.4594291      3472.1201    
      5000   294.47914     -32081.659     -6972.9811      1.4594291      3472.1201    
      5100   308.65106     -32077.481     -10783.806      1.4594291      3472.1201    
      5200   341.04834     -32086.895     -3348.7041      1.4594291      3472.1201    
      5300   299.9707      -32078.847     -2356.7116      1.4594291      3472.1201    
      5400   289.75668     -32086.967     -5984.4811      1.4594291      3472.1201    
      5500   282.26053     -32081.193      748.02557      1.4594291      3472.1201    
      5600   291.63872     -32073.621     -16138.677      1.4594291      3472.1201    
      5700   301.72434     -32060.597     -4565.0871      1.4594291      3472.1201    
      5800   311.72127     -32068.677      1079.8322      1.4594291      3472.1201    
      5900   266.78744     -32073.26      -7543.3652      1.4594291      3472.1201    
      6000   282.33194     -32086.191     -16307.666      1.4594291      3472.1201    
      6100   321.04272     -32098.273     -10187.685      1.4594291      3472.1201    
      6200   298.66067     -32071.908     -5029.712       1.4594291      3472.1201    
      6300   315.10517     -32088.095     -1865.3441      1.4594291      3472.1201    
      6400   286.03681     -32084.784      980.66401      1.4594291      3472.1201    
      6500   281.45132     -32101.745     -11073.217      1.4594291      3472.1201    
      6600   283.79059     -32098.511      8185.2729      1.4594291      3472.1201    
      6700   313.7361      -32101.026      944.62024      1.4594291      3472.1201    
      6800   290.96487     -32065.198      2034.6214      1.4594291      3472.1201    
      6900   317.7514      -32082.6        6768.7635      1.4594291      3472.1201    
      7000   300.04234     -32075.773     -10843.258      1.4594291      3472.1201    
      7100   292.23855     -32081.661     -1677.3355      1.4594291      3472.1201    
      7200   280.63495     -32087.199     -10800.458      1.4594291      3472.1201    
      7300   294.15446     -32100.464      12288.456      1.4594291      3472.1201    
      7400   312.02065     -32091.866     -4192.9008      1.4594291      3472.1201    
      7500   303.05817     -32067.61       6490.6051      1.4594291      3472.1201    
      7600   295.86769     -32074.639     -7088.1126      1.4594291      3472.1201    
      7700   286.21873     -32087.852     -7255.3453      1.4594291      3472.1201    
      7800   305.33511     -32114.036      3619.2206      1.4594291      3472.1201    
      7900   260.51402     -32080.024     -1502.0054      1.4594291      3472.1201    
      8000   314.37882     -32112.836     -12226.439      1.4594291      3472.1201    
      8100   332.09182     -32126.167      110.0152       1.4594291      3472.1201    
      8200   267.3313      -32092.288     -4111.2144      1.4594291      3472.1201    
      8300   302.22737     -32147.254      2125.5927      1.4594291      3472.1201    
      8400   267.67575     -32120.719     -4206.8762      1.4594291      3472.1201    
      8500   286.41828     -32103.823      4616.2629      1.4594291      3472.1201    
      8600   289.37338     -32098.834     -14182.989      1.4594291      3472.1201    
      8700   297.18787     -32093.503     -1089.6853      1.4594291      3472.1201    
      8800   321.55181     -32107.733     -9854.4187      1.4594291      3472.1201    
      8900   302.9446      -32106.116     -1753.5999      1.4594291      3472.1201    
      9000   267.40304     -32099.216     -12938.04       1.4594291      3472.1201    
      9100   285.24619     -32117.625     -2159.7767      1.4594291      3472.1201    
      9200   301.14895     -32095.669     -4664.109       1.4594291      3472.1201    
      9300   296.73173     -32076.659     -5121.825       1.4594291      3472.1201    
      9400   290.3019      -32082.763     -14090.072      1.4594291      3472.1201    
      9500   301.15266     -32107.367     -308.82118      1.4594291      3472.1201    
      9600   257.61341     -32079.042     -4762.3925      1.4594291      3472.1201    
      9700   314.87016     -32096.977      4787.5839      1.4594291      3472.1201    
      9800   314.87729     -32084.063     -5719.9141      1.4594291      3472.1201    
      9900   290.14461     -32070.382     -7977.056       1.4594291      3472.1201    
     10000   305.38129     -32104.066     -18369.567      1.4594291      3472.1201    
Loop time of 203.485 on 8 procs for 10000 steps with 274 atoms

Performance: 2.123 ns/day, 11.305 hours/ns, 49.144 timesteps/s, 13.465 katom-step/s
98.5% CPU use with 8 MPI tasks x 1 OpenMP threads

MPI task timing breakdown:
Section |  min time  |  avg time  |  max time  |%varavg| %total
---------------------------------------------------------------
Pair    | 145.27     | 154.77     | 162.51     |  49.7 | 76.06
Bond    | 0.020057   | 0.020949   | 0.021716   |   0.4 |  0.01
Neigh   | 15.65      | 15.781     | 15.926     |   2.3 |  7.76
Comm    | 2.0511     | 9.7997     | 19.314     | 198.1 |  4.82
Output  | 0.016859   | 0.01959    | 0.021845   |   1.2 |  0.01
Modify  | 22.778     | 22.905     | 23.023     |   1.9 | 11.26
Other   |            | 0.1932     |            |       |  0.09

Nlocal:          34.25 ave          43 max          23 min
Histogram: 1 1 1 0 0 1 0 1 1 2
Nghost:        2806.62 ave        2837 max        2792 min
Histogram: 4 0 1 1 0 0 0 0 0 2
Neighs:        18927.2 ave       23592 max       12966 min
Histogram: 1 1 1 0 0 1 0 1 1 2

Total # of neighbors = 151418
Ave neighs/atom = 552.62044
Ave special neighs/atom = 0
Neighbor list builds = 1000
Dangerous builds not checked
OMP_NUM_THREADS environment is not set. Defaulting to 1 thread. (src/comm.cpp:98)
  using 1 OpenMP thread(s) per MPI task
Reading restart file ...
  restart file = 2 Aug 2023, LAMMPS = 2 Aug 2023
  restoring atom style full from restart
  triclinic box = (0 0 0) to (16.8189 12.842 16.0755) with tilt (-8.3798 1.195 0.4312)
WARNING: Triclinic box skew is large. LAMMPS will run inefficiently. (src/domain.cpp:220)
  2 by 2 by 2 MPI processor grid
  pair style reaxff stores no restart info
  274 atoms
Finding 1-2 1-3 1-4 neighbors ...
  special bond factors lj:    0        0        0       
  special bond factors coul:  0        0        0       
     0 = max # of 1-2 neighbors
     0 = max # of 1-3 neighbors
     0 = max # of 1-4 neighbors
     1 = max # of special neighbors
  special bonds CPU = 0.000 seconds
  read_restart CPU = 0.002 seconds
*****Positive-deform 6 starts.*****
Resetting global fix info from restart file:
  fix style: nvt, fix ID: fnvt
All restart file global fix info was re-assigned
Neighbor list info ...
  update: every = 10 steps, delay = 0 steps, check = no
  max neighbors/atom: 2000, page size: 100000
  master list distance cutoff = 12
  ghost atom cutoff = 12
  binsize = 6, bins = 5 3 3
  2 neighbor lists, perpetual/occasional/extra = 2 0 0
  (1) pair reaxff, perpetual
      attributes: half, newton off, ghost
      pair build: half/bin/newtoff/ghost
      stencil: full/ghost/bin/3d
      bin: standard
  (2) fix qeq/reaxff, perpetual, copy from (1)
      attributes: half, newton off
      pair build: copy
      stencil: none
      bin: none
Setting up Verlet run ...
  Unit style    : real
  Current step  : 0
  Time step     : 0.5
Per MPI rank memory allocation (min/avg/max) = 109.7 | 110.8 | 112.3 Mbytes
   Step          Temp          PotEng         Press         Density         Volume    
         0   312.04252     -32089.043     -954.45699      1.4594291      3472.1201    
       100   307.29237     -32082.919      6250.4907      1.4594291      3472.1201    
       200   287.39801     -32086.724      4466.9182      1.4594291      3472.1201    
       300   277.92364     -32098.208     -2278.352       1.4594291      3472.1201    
       400   292.49129     -32100.784     -8209.0083      1.4594291      3472.1201    
       500   302.32449     -32083.255     -15113.849      1.4594291      3472.1201    
       600   330.4432      -32100.261     -3513.2669      1.4594291      3472.1201    
       700   304.61032     -32081.826     -2099.6502      1.4594291      3472.1201    
       800   296.84615     -32088.666      5868.6769      1.4594291      3472.1201    
       900   274.85695     -32090.738     -6433.1867      1.4594291      3472.1201    
      1000   287.43972     -32092.59       530.1185       1.4594291      3472.1201    
      1100   314.72867     -32074.78      -4133.6958      1.4594291      3472.1201    
      1200   319.11665     -32072.817     -1783.2793      1.4594291      3472.1201    
      1300   311.64604     -32087.448     -155.81074      1.4594291      3472.1201    
      1400   308.88416     -32100.216     -8761.6719      1.4594291      3472.1201    
      1500   316.39545     -32111.495     -721.56541      1.4594291      3472.1201    
      1600   282.06676     -32094.342      1834.766       1.4594291      3472.1201    
      1700   282.93254     -32115.397     -15205.196      1.4594291      3472.1201    
      1800   278.70779     -32111.449     -2515.5776      1.4594291      3472.1201    
      1900   303.03454     -32098.429     -11991.34       1.4594291      3472.1201    
      2000   299.67573     -32090.763     -1376.4362      1.4594291      3472.1201    
      2100   297.24671     -32092.656     -13862.741      1.4594291      3472.1201    
      2200   283.6564      -32087.054     -5304.3294      1.4594291      3472.1201    
      2300   300.65629     -32110.686      2271.6687      1.4594291      3472.1201    
      2400   288.50632     -32108.782      3000.6868      1.4594291      3472.1201    
      2500   312.14994     -32104.995     -4704.6695      1.4594291      3472.1201    
      2600   302.0801      -32079.74      -6944.3512      1.4594291      3472.1201    
      2700   304.64869     -32076.856     -8783.4691      1.4594291      3472.1201    
      2800   310.6408      -32088.201     -14063.988      1.4594291      3472.1201    
      2900   273.34502     -32093.324      10654.882      1.4594291      3472.1201    
      3000   282.18163     -32103.658      1076.95        1.4594291      3472.1201    
      3100   287.13649     -32088.536      1351.9327      1.4594291      3472.1201    
      3200   330.55655     -32108.959     -6316.4188      1.4594291      3472.1201    
      3300   278.31335     -32069.055     -9912.0603      1.4594291      3472.1201    
      3400   311.61869     -32094.476     -3755.0243      1.4594291      3472.1201    
      3500   279.24983     -32091.928     -9152.4103      1.4594291      3472.1201    
      3600   290.76644     -32119.69      -9168.3458      1.4594291      3472.1201    
      3700   300.5095      -32116.442      1437.4837      1.4594291      3472.1201    
      3800   299.56748     -32094.621      31.958949      1.4594291      3472.1201    
      3900   332.82397     -32116.174     -3404.8189      1.4594291      3472.1201    
      4000   289.54996     -32090.347     -8189.6204      1.4594291      3472.1201    
      4100   288.60041     -32090.85      -8933.1583      1.4594291      3472.1201    
      4200   303.66782     -32081.253     -16411.36       1.4594291      3472.1201    
      4300   351.57533     -32092.586     -1037.4016      1.4594291      3472.1201    
      4400   338.89505     -32099.301     -7110.7217      1.4594291      3472.1201    
      4500   291.80302     -32076.166     -7375.4333      1.4594291      3472.1201    
      4600   297.07905     -32086.772     -15052.022      1.4594291      3472.1201    
      4700   296.72559     -32101.204     -8005.4779      1.4594291      3472.1201    
      4800   275.47072     -32094.929     -4132.2665      1.4594291      3472.1201    
      4900   302.56052     -32094.12       9312.6801      1.4594291      3472.1201    
      5000   324.20666     -32089.007      3360.7574      1.4594291      3472.1201    
      5100   308.30277     -32090.183     -8646.9038      1.4594291      3472.1201    
      5200   296.89055     -32099.419     -5012.755       1.4594291      3472.1201    
      5300   298.9195      -32107.63      -12280.189      1.4594291      3472.1201    
      5400   291.62689     -32103.418      2781.7695      1.4594291      3472.1201    
      5500   308.99416     -32094.552     -16301.713      1.4594291      3472.1201    
      5600   290.18643     -32053.472      193.42821      1.4594291      3472.1201    
      5700   302.14286     -32069.647     -11645.386      1.4594291      3472.1201    
      5800   313.38836     -32102.203     -5691.2637      1.4594291      3472.1201    
      5900   280.53242     -32090.768      6089.4486      1.4594291      3472.1201    
      6000   289.84137     -32096.461      690.65763      1.4594291      3472.1201    
      6100   275.71575     -32079.003      7443.9829      1.4594291      3472.1201    
      6200   306.40623     -32071.804      5845.1919      1.4594291      3472.1201    
      6300   330.15989     -32083.35      -8377.449       1.4594291      3472.1201    
      6400   303.83376     -32082.757     -5738.1339      1.4594291      3472.1201    
      6500   313.01554     -32098.51      -6748.4244      1.4594291      3472.1201    
      6600   303.473       -32097.757     -14788.605      1.4594291      3472.1201    
      6700   319.28612     -32119.682     -10148.416      1.4594291      3472.1201    
      6800   279.31007     -32108.525     -9853.599       1.4594291      3472.1201    
      6900   280.46163     -32125.819      1558.6624      1.4594291      3472.1201    
      7000   286.89968     -32108.3        1516.9692      1.4594291      3472.1201    
      7100   298.7661      -32096.531      2073.915       1.4594291      3472.1201    
      7200   313.1842      -32102.772      1932.98        1.4594291      3472.1201    
      7300   297.69677     -32098.524      1860.3391      1.4594291      3472.1201    
      7400   297.07781     -32108.706      2915.4636      1.4594291      3472.1201    
      7500   292.46484     -32124.017     -16400.607      1.4594291      3472.1201    
      7600   287.99014     -32126.973      4477.1785      1.4594291      3472.1201    
      7700   319.27434     -32122.493      10623.189      1.4594291      3472.1201    
      7800   320.27074     -32110.705     -6963.8635      1.4594291      3472.1201    
      7900   319.99693     -32109.79      -17756.224      1.4594291      3472.1201    
      8000   310.06976     -32095.633     -4626.5124      1.4594291      3472.1201    
      8100   343.16535     -32108.349     -8125.9315      1.4594291      3472.1201    
      8200   307.43009     -32105.842     -6078.5687      1.4594291      3472.1201    
      8300   298.23734     -32116.057     -3271.4043      1.4594291      3472.1201    
      8400   279.93769     -32103.446     -14984.283      1.4594291      3472.1201    
      8500   317.93508     -32116.696     -1352.0445      1.4594291      3472.1201    
      8600   299.78209     -32077.068     -6173.5125      1.4594291      3472.1201    
      8700   328.3749      -32101.974     -3283.9242      1.4594291      3472.1201    
      8800   299.14339     -32087.848      3214.9911      1.4594291      3472.1201    
      8900   312.90056     -32109.808     -1686.0255      1.4594291      3472.1201    
      9000   295.91278     -32112.821     -4077.4078      1.4594291      3472.1201    
      9100   288.87233     -32112.946      1632.449       1.4594291      3472.1201    
      9200   268.05975     -32087.458     -15516.47       1.4594291      3472.1201    
      9300   331.99222     -32099.589     -17435.225      1.4594291      3472.1201    
      9400   307.77553     -32088.275     -5719.2945      1.4594291      3472.1201    
      9500   300.29544     -32099.593      1095.7119      1.4594291      3472.1201    
      9600   275.83285     -32098.83       8476.7876      1.4594291      3472.1201    
      9700   284.06881     -32115.748      170.82486      1.4594291      3472.1201    
      9800   289.15469     -32120.618     -519.25392      1.4594291      3472.1201    
      9900   286.95468     -32097.74      -5906.4817      1.4594291      3472.1201    
     10000   301.72083     -32088.282     -2888.3815      1.4594291      3472.1201    
Loop time of 182.796 on 8 procs for 10000 steps with 274 atoms

Performance: 2.363 ns/day, 10.155 hours/ns, 54.706 timesteps/s, 14.989 katom-step/s
98.4% CPU use with 8 MPI tasks x 1 OpenMP threads

MPI task timing breakdown:
Section |  min time  |  avg time  |  max time  |%varavg| %total
---------------------------------------------------------------
Pair    | 128.32     | 135.76     | 142.06     |  38.2 | 74.27
Bond    | 0.016568   | 0.017538   | 0.018124   |   0.3 |  0.01
Neigh   | 15.133     | 15.431     | 15.712     |   5.2 |  8.44
Comm    | 1.8386     | 8.1351     | 15.573     | 156.2 |  4.45
Output  | 0.019261   | 0.021828   | 0.024004   |   1.1 |  0.01
Modify  | 22.964     | 23.247     | 23.54      |   4.1 | 12.72
Other   |            | 0.1874     |            |       |  0.10

Nlocal:          34.25 ave          43 max          20 min
Histogram: 1 1 0 1 0 0 0 2 0 3
Nghost:        2809.62 ave        2846 max        2782 min
Histogram: 2 0 1 1 1 1 1 0 0 1
Neighs:        18927.4 ave       23707 max       11312 min
Histogram: 1 1 0 1 0 0 0 2 0 3

Total # of neighbors = 151419
Ave neighs/atom = 552.62409
Ave special neighs/atom = 0
Neighbor list builds = 1000
Dangerous builds not checked
Total wall time: 1:09:39
