LAMMPS data file via write_data, version 2 Aug 2023, timestep = 17, units = real

350 atoms
4 atom types

0 15.6782 xlo xhi
0 14.2194 ylo yhi
0 17.6383 zlo zhi
-7.0409 -1.0144 0.675 xy xz yz

Masses

1 12.0107
2 1.00794
3 15.9994
4 28.0855

Atoms # full

15 2 4 1.354373024893214 -1.2163057228872864 7.053662205908549 6.518642634451429 0 0 0
97 2 2 0.01134131718884761 -2.250114797012523 6.367435907625904 5.335888634130787 0 0 0
207 2 3 -0.8229401224736439 -1.0093701548503502 2.479701701299994 4.823177237614314 0 0 0
213 2 3 -0.8675683077507478 -0.852636370719134 5.797992866964079 7.3665645794403325 0 0 0
304 4 3 -0.789960860321722 -0.5217690029782335 1.883431040956948 2.167774185065422 0 0 0
309 5 2 -0.02819917380767289 -0.6206420114860979 6.9247200434307485 2.8634918277979087 0 0 0
314 5 3 -0.8037678801705843 -3.243163156949816 6.665057720116041 3.2765353489322573 0 0 0
340 18 2 0.1784595471025741 -2.1895097322995234 4.37513448568484 2.8869689738750397 0 0 0
7 2 4 1.480767941556718 -5.676601302721324 14.272958725114346 7.499963708460024 0 -1 0
9 2 4 1.534759336070878 0.4152227957706056 2.3240030725542162 5.678548508865596 0 0 0
13 2 4 1.493382956881089 0.11985936918135515 4.642538472530883 7.941942149741877 0 0 0
23 2 4 1.363126460225458 3.108511999170597 2.234870815312117 3.921915810829557 0 0 0
26 2 4 1.47749217397607 5.719405418879693 1.4089791451700102 5.165510726672676 0 0 0
30 2 4 1.30133330612352 4.703931565336524 4.414607618658844 2.4017704850511685 0 0 0
31 2 4 1.382418982004167 1.532990825056608 7.353339950257466 5.162290292590356 0 0 0
32 2 4 1.327740069728204 3.402150588084516 6.769303061340337 0.7776436576473488 0 0 0
33 2 4 1.366044940671168 5.354181760390353 3.6580717072681423 7.285250384395887 0 0 0
35 2 4 1.387771998886242 4.2861036206835115 6.530252883802888 6.386592067022633 0 0 0
50 2 4 1.37267787838305 6.29290630048991 6.463925263954273 3.9985051973579013 0 0 0
70 2 1 -0.6704537247834145 3.009423393598883 1.385193110064765 2.1605648849505785 0 0 0
74 2 1 -0.6860827137005684 1.3489076908221087 5.648928647243833 4.270756052848623 0 0 0
82 2 1 -0.6908793034223305 6.9280230190459475 4.450732643779033 8.101797861237426 0 0 0
108 2 2 -0.01462458089763667 5.2210995060562615 3.2931620008907845 1.1893703787293264 0 0 0
118 2 2 -0.03852749335783365 6.481747922450471 8.067654824433045 17.5667057834951 0 0 -1
139 2 2 0.1624403173736179 3.9365510744684586 0.7410946628956737 2.0912466340691944 0 0 0
140 2 2 0.166259254822417 2.999442650627432 2.218521853046169 1.4025030511029235 0 0 0
141 2 2 0.2052164289680147 2.0561394386340917 0.7900393980428393 2.1624988394723834 0 0 0
150 2 2 0.244726289155753 1.7433090793811539 4.8654517942664715 4.983391677495822 0 0 0
151 2 2 0.2268895628431609 1.9760219059791966 5.746960010341043 3.331108840226302 0 0 0
152 2 2 0.1447748256134469 0.24484206206850476 5.5363131820515115 4.05941276947015 0 0 0
157 2 2 0.1681746946539401 6.355282302902417 7.181303283922021 7.5520207315537355 0 0 0
158 2 2 0.1879676625074471 4.861708295957218 7.322341475562011 8.69644274148876 0 0 0
163 2 2 0.16103814035487 7.243372697973469 0.4691626296089479 1.1157826624378397 0 0 0
173 2 2 0.1988410151621522 7.4592809552385955 4.990492766394955 7.258316395609802 0 0 0
174 2 2 0.1450692812706753 7.5102404361888375 3.567579999669108 8.491015948865497 0 0 0
208 2 3 -0.8182253719732209 0.3775585000691988 0.8639478590158838 6.454850219365827 0 0 0
212 2 3 -0.8391875128918254 0.5703629596994789 3.602527464928146 6.715037307845183 0 0 0
224 2 3 -0.8343977464146647 1.6486345576847254 2.356566820906289 4.598100138673956 0 0 0
225 2 3 -0.8275152813902722 2.6612072538757046 0.9756917990221685 7.80904591970203 0 0 0
226 2 3 -0.7907366972421407 4.087331837311142 1.2374284643059819 4.76796560123413 0 0 0
227 2 3 -0.8367760143907413 -0.8261513225248018 14.294976924356678 5.96533343008692 0 -1 0
230 2 3 -0.8253557185193481 3.78843645354297 3.6571397594958674 3.4685337468398476 0 0 0
232 2 3 -0.8555364573402344 3.845672163616226 5.5096633144719025 1.6731228719036533 0 0 0
233 2 3 -0.8401259778882231 4.629634627539981 2.693714611440375 8.390973314381945 0 0 0
234 2 3 -0.8133426246440758 5.978257155906666 2.7920666564727306 6.070312300959351 0 0 0
235 2 3 -0.7740056289756362 1.4982271329778167 5.371484097218874 8.77486078354179 0 0 0
237 2 3 -0.8004629762158868 2.7827936928296246 7.11528334172195 6.268501501505335 0 0 0
238 2 3 -0.8016910351687015 4.435829571585463 4.978426576790091 6.888400870064992 0 0 0
242 2 3 -0.8437789516113783 1.0696638108622667 7.172549619678997 17.55469997283757 0 0 -1
257 2 3 -0.7946893252860945 6.5428692564083955 1.5734254980527425 3.6773453083568706 0 0 0
262 2 3 -0.7811772878141309 5.98141338345046 5.172822645799183 3.00297673754376 0 0 0
263 2 3 -0.8162732220088248 5.075985346973168 6.7934355848142145 5.001291522715359 0 0 0
268 2 3 -0.7944031764462822 7.657267879709612 6.389077522854627 4.956475494038136 0 0 0
299 4 4 1.267460724099036 0.06323393647407491 2.5922721775019633 0.8522357515592837 0 0 0
300 4 1 -0.681354129988578 1.0503583255686946 4.064072695236757 1.5322104386616824 0 0 0
301 4 2 0.2040182664038963 1.8497096989836557 4.299644539348739 0.7731985787987696 0 0 0
302 4 2 0.2158781839897236 1.4666029561953255 3.691465246325302 2.5112039751622217 0 0 0
303 4 2 0.2029464813964399 0.33643926980937755 4.927938735690975 1.6932817616893596 0 0 0
336 14 2 -0.03192161481472688 7.73897011639646 0.7122426014566332 8.031555579665621 0 0 0
346 24 2 0.1522867370051939 5.226628708691871 1.5656981070823108 0.4065170920767326 0 0 0
347 25 2 0.1562464987921773 5.78602261918847 6.95273540926163 0.1971852871857344 0 0 0
1 1 4 1.262153841192755 14.080260949982383 1.9786697440402135 3.393231493728462 0 0 0
2 1 1 -0.6804794235097755 12.946972748513648 3.3878706157612823 2.7652905101437995 0 0 0
3 1 2 0.1802561761221946 12.668099701353613 3.187329172400284 1.688920881996095 0 0 0
4 1 2 0.1623348382774685 12.065144272748634 3.282525559531789 3.47210254466357 0 0 0
5 1 3 -0.7876756531909272 13.151624734830703 0.41995479354104104 3.4079986833028935 0 0 0
11 2 4 1.35015292092733 11.135417013801984 5.910270179653836 4.025981777008052 0 0 0
46 2 4 1.068527713805858 7.99828237496148 1.6701904853415102 3.08133228474668 0 0 0
49 2 4 1.266255838454249 9.462560839377508 4.1981825811788545 1.9761775982738599 0 0 0
51 2 4 1.000936747605364 9.022738059344672 6.678639010354557 0.21232154778413426 0 0 0
52 2 4 0.9837605601181362 9.911112191718615 5.871602534636843 8.271990294482446 0 0 0
54 2 4 1.324268137137502 8.891005235230088 7.183693379075673 5.682666937303808 0 0 0
67 2 1 -0.6886823273289497 12.033332737782603 4.953770483530773 5.4667190132124315 0 0 0
78 2 1 -0.6640290975508292 8.092598311267723 0.22625136798400255 1.8295133771462 0 0 0
95 2 2 -0.03253734710099782 13.03828461606915 2.797410839785103 7.475877759250078 0 0 0
115 2 2 -0.02743165592130873 9.1137496579147 1.3005033287638088 4.318862912488881 0 0 0
117 2 2 -0.04747087559349532 10.617647536816001 3.4336811687237345 1.0417708905704763 0 0 0
120 2 2 -0.04447381829409214 10.22961029741587 4.339565458499181 7.667675447954679 0 0 0
131 2 2 0.1401477191432164 11.277769997505759 4.107051256398817 5.584686788667791 0 0 0
132 2 2 0.187419207802597 12.074932642638748 5.619427940246448 6.38750297646374 0 0 0
162 2 2 0.136568509461365 9.110251813408613 0.34363322479922165 1.3532747842916555 0 0 0
260 2 3 -0.8144558629007804 8.47622150574787 3.0155123563177244 2.3765475080305296 0 0 0
261 2 3 -0.8241372027723076 10.263129839006368 4.824493400496887 3.195295560650261 0 0 0
264 2 3 -0.8072594710387968 8.83386960782053 5.336216836230644 1.0491322093151758 0 0 0
265 2 3 -0.8177713929939971 11.234784151710537 6.47515539025887 8.804149896629065 0 0 0
267 2 3 -0.7825761207591156 10.265012370242724 7.017189916953453 4.8249582779366715 0 0 0
269 2 3 -0.8593145887034136 9.089335061525588 6.748527472371296 7.2638975882676595 0 0 0
323 8 1 -0.6735965962414817 12.311797083129544 5.446099809724164 0.06491331486490458 0 0 0
324 8 2 0.231215436999177 12.383195771310616 5.595254718837907 1.1832831472606973 0 0 0
337 15 2 -0.04203975191377279 11.073220232560475 0.7410749174856595 1.926938824062921 0 0 0
342 20 2 0.1808019005769012 13.045995890502281 4.570717325524524 5.1329714771856745 -1 0 0
350 28 2 0.1723234594062834 5.29276811171024 14.21814986841224 6.344323014853475 0 -1 0
18 2 4 1.006923895437546 -4.750436972708213 11.376680936291454 3.25997216577016 0 0 0
19 2 4 1.532387668832414 -2.767492455283104 9.483635674310147 7.989698424973739 0 0 0
20 2 4 1.282249529435346 -4.222306268608298 11.600947709324961 6.261923653034787 0 0 0
24 2 4 1.246651428995455 -0.20699609219654236 13.710211623011684 7.30844821254108 0 0 0
86 2 1 -0.6732055836373119 9.409352918991553 12.435002420448287 2.7636894934544154 -1 0 0
99 2 2 -0.05233212612362438 -3.347138113944903 12.238200229605484 2.801754237528873 0 0 0
100 2 2 0.01497599814527538 -2.7519184989161696 12.366893292603512 6.016182045851487 0 0 0
185 2 2 0.1406279698670112 -6.153189133377504 12.741076490987126 1.6832486979343673 0 0 0
186 2 2 0.1990818856606595 -6.2391799817575375 13.311446040536214 3.477083394268171 0 0 0
218 2 3 -0.8386349319380531 -2.0172866909062304 8.234226470660728 7.1977069165437895 0 0 0
219 2 3 -0.8034486435226091 -4.7846808012279345 11.191719612877167 4.8303236916672 0 0 0
220 2 3 -0.8332188316502388 -3.9311072326409575 10.274681800647599 7.091647386085009 0 0 0
221 2 3 -0.8170054880826862 -5.170926875922065 12.69339364587178 6.903456421410547 0 0 0
249 2 3 -0.8324284096533965 -1.6220223198184998 10.605412465791765 8.429214372860066 0 0 0
250 2 3 -0.8292931630754458 -1.267928764686399 13.22779470342673 8.430692246333809 0 0 0
276 2 3 -0.7816772782718895 -4.906927563227812 10.068184350800589 2.314079922387981 0 0 0
306 5 4 1.048195740058564 -2.127753332379551 7.716060561532259 2.786347953254009 0 0 0
307 5 4 0.6119014517329581 -2.262429118041843 9.707623222626365 0.42958653114072937 0 0 0
308 5 1 -0.6765776105973271 -2.16671862757528 9.174855435555887 3.991273026323389 0 0 0
310 5 2 -0.06199549217213623 -2.179521311937044 11.135441690671245 1.2889735469740127 0 0 0
311 5 2 0.1589085793109263 -2.1990356676174314 10.130295442532022 3.38744716710752 0 0 0
312 5 2 0.1681254780608335 -1.1583266565633785 8.992621318079642 4.496626060405758 0 0 0
313 5 2 0.2354193993078225 -3.057210656406941 9.03716557652609 4.67888483106093 0 0 0
315 5 3 -0.7547848957016605 -2.253480779459988 8.469428474978303 1.362563776593261 0 0 0
39 2 4 1.364045872935479 2.5661579339556577 9.18670045653042 2.676549953175911 0 0 0
40 2 4 1.306685526282074 2.088736240777239 9.399473645468317 8.528703942316557 0 0 0
42 2 4 1.322766297496681 1.1936559653238636 11.201371041431262 6.1821849310324835 0 0 0
45 2 4 1.241740522885765 4.995030668025301 13.79391950011818 2.648151578816899 0 0 0
58 2 4 1.503244758781356 3.5942131717819246 11.58497224768 4.289368210570054 0 0 0
59 2 4 0.9567125860674114 6.275716820947431 11.582427290900954 1.001644265137606 0 0 0
62 2 4 1.155800032986027 5.889968385077519 11.708833321404589 6.3984098373173826 0 0 0
75 2 1 -0.6765838004425939 0.9991085177089903 10.012523098613043 1.916288847460631 0 0 0
76 2 1 -0.6967014694773624 5.285577230278147 7.577477144538854 7.6851467395160435 0 0 0
83 2 1 -0.6835934316638982 6.485614278950437 8.070590844641993 2.9232148161545894 0 0 0
87 2 1 -0.6587356540453941 7.425196275782039 11.988084691798754 5.269524881021275 0 0 0
88 2 1 -0.677304000671531 5.2617159679627274 13.44014552384041 7.163872134737739 0 0 0
110 2 2 0.00284008206823177 3.732590003592488 8.892729750444929 8.533337184471847 0 0 0
111 2 2 -0.008428818258591717 -0.2174099644457409 10.549833928561492 5.535049887448986 0 0 0
123 2 2 -0.05306805735849803 7.801040273516567 12.05488574122729 0.5172907868286276 0 0 0
125 2 2 -0.02292648350980838 6.644631887588038 10.583909656372445 2.2911524020502476 0 0 0
126 2 2 -0.01414635051743057 2.2674474363692063 13.170551471258474 8.515938805099687 0 0 0
153 2 2 0.1589933011392235 0.5147105303869148 10.602533867785308 2.751499355311963 0 0 0
154 2 2 0.1542072532282629 0.35522993446275114 9.158412330332505 1.5528238360390147 0 0 0
155 2 2 0.1545627239512191 1.3859215786251071 10.666501023149936 1.0811822962001962 0 0 0
156 2 2 0.2207317625581374 5.203692667193589 8.657696092077531 7.394168922377532 0 0 0
176 2 2 0.2050227587888804 5.651637147009644 8.022509175122886 2.1643934764611017 0 0 0
177 2 2 0.1527530798306686 7.512229507452183 8.002720787272354 2.4609099558732037 0 0 0
178 2 2 0.1852475197283152 6.371876287688618 8.945448990352583 3.6285438199627413 0 0 0
181 2 2 0.1952920734874759 7.414484628473369 9.178748667500335 6.039534369891803 0 0 0
187 2 2 0.1628139618471968 7.345417932741171 11.193048357024141 4.462817037090415 0 0 0
189 2 2 0.2177525587578702 7.289455192396222 13.040639252646445 4.867764386674962 0 0 0
190 2 2 0.1825216332934352 5.978117407291234 13.65419933746396 8.002680252820937 0 0 0
191 2 2 0.1457749597255432 4.217781941080391 13.227769678469633 7.527786229908774 0 0 0
231 2 3 -0.8678705274888158 0.08178935926327108 7.601700899975153 5.783900715864022 0 0 0
246 2 3 -0.8291590768068179 1.9459788624498022 8.32391135108179 3.9225762803236437 0 0 0
247 2 3 -0.8114501430508227 3.233253777915338 8.218891690118518 1.5538623278145962 0 0 0
252 2 3 -0.8390916312902105 1.837860372054947 10.09680512856733 7.128104218558343 0 0 0
253 2 3 -0.8578074127830883 0.8201030492719183 12.540642920928777 6.958823648063404 0 0 0
277 2 3 -0.7851408547367987 3.5852045456032537 10.397062094791384 3.110561282452395 0 0 0
278 2 3 -0.8240590723990611 4.026407039489545 13.033944311379857 3.6568743791554614 0 0 0
279 2 3 -0.8369593043092934 2.0823380011993042 11.607073686362439 4.932610508603877 0 0 0
280 2 3 -0.8236820432748675 5.506752854635137 12.851109824647095 1.465102671883945 0 0 0
285 2 3 -0.7957903610049536 4.7236920649910035 11.182556800083008 5.46897733075132 0 0 0
286 2 3 -0.8047811817346198 6.377765346986129 10.632283068291427 7.543120307467716 0 0 0
348 26 2 0.1683983551532682 0.9152941229245596 13.460822588541378 2.380745210058862 0 0 0
57 2 4 0.9157722358045947 9.896126534960375 9.370789126786951 1.2126959412243288 0 0 0
84 2 1 -0.6729342293976659 8.400564438020073 9.053534095572438 5.508453482971302 0 0 0
85 2 1 -0.7138741159711818 8.937668535531571 9.585093213285955 8.589930738018884 0 0 0
124 2 2 -0.06813702642935801 8.305094282155634 9.698651433821672 1.5934328596407483 0 0 0
179 2 2 0.1751651497246364 8.327475961156315 9.265441608200641 4.399252061311063 0 0 0
180 2 2 0.2232459938127159 9.243850982518415 9.621069297610488 5.995890038765613 0 0 0
182 2 2 0.2107752660853372 9.487067913450225 10.313861473252427 7.928126218067727 0 0 0
183 2 2 0.2190287966930412 8.82283941319739 8.578810929652454 8.085868940474121 0 0 0
188 2 2 0.224231875430666 8.360003754118166 11.876017764217236 5.900519020996691 0 0 0
275 2 3 -0.7702748584098412 10.010767823028402 7.843139907497563 0.8377683956727543 0 0 0
349 27 2 0.1516020808254306 8.516392434597892 11.762615576845873 2.940565135332872 0 0 0
10 2 4 1.005869575154989 -1.1506826025857388 3.0162328567431964 14.28172964882306 0 0 0
12 2 4 1.036165367171568 -2.6797251813861083 5.5543013689520295 17.088021958398873 0 0 0
16 2 4 1.245099522581837 -0.19262700218849482 5.969480066334488 14.16653155864267 0 0 0
17 2 4 1.394527362597585 -1.2052750152595442 7.029189909135895 11.512161733682305 0 0 0
66 2 1 -0.669502104765432 -1.0386143909944536 3.0082663700108774 12.361762894273737 0 0 0
96 2 2 -0.01556384025150075 -2.860713836801975 5.494039370359926 15.395192990092731 0 0 0
129 2 2 0.2098617858315309 -1.901787915752092 3.6527034143121373 12.001721894170176 0 0 0
130 2 2 0.1732094670286214 -1.1308437882746256 1.9163523790004333 12.080236756872088 0 0 0
209 2 3 -0.7672559065374469 -0.3174460858147796 1.6380171937731338 14.911328520519817 0 0 0
210 2 3 -0.7849751937861986 -2.33331907797236 4.103500954572171 17.626074628246993 0 0 0
211 2 3 -0.7966466940794564 -0.7084111982728634 3.7011947434486507 9.066279720105054 0 0 0
214 2 3 -0.8299259873225632 -0.5830011487964736 4.464453248841714 14.597862516649966 0 0 0
215 2 3 -0.8044992490658226 -2.6391955748517093 6.8480928885739 10.804805148397104 0 0 0
216 2 3 -0.8323310270578185 -1.215948576837706 6.5166928383323 13.05877637514053 0 0 0
241 2 3 -0.8475028742037705 -0.17208753274291655 7.037221655934335 15.323012535047857 0 0 0
243 2 3 -0.8150692963037005 -1.598995199667902 6.696482933225361 17.502370139323162 0 0 0
305 4 3 -0.8004228328973496 -0.05739928619127066 2.222030122188068 17.585315640273112 0 0 -1
6 2 4 1.246480317093421 0.6461308274957912 1.4606430219076902 16.32026947008562 0 0 0
25 2 4 1.042343921376319 3.3093622587799447 1.9697685766821282 8.804785971694102 0 0 0
28 2 4 1.039309093984231 3.0340129158550146 3.5321267078232297 16.23609893602603 0 0 0
29 2 4 1.118618516453387 6.517487608822451 2.912203460599615 12.510716703149022 0 0 0
34 2 4 1.548963734282273 1.419724610273331 6.69648243672097 9.76722512771197 0 0 0
36 2 4 1.245551941490295 4.531875913103457 4.935457921217152 13.890552664737667 0 0 0
38 2 4 1.53311959759512 3.954323141614288 7.1337973636936045 11.793816018024344 0 0 0
71 2 1 -0.6753495191332832 4.569690498586548 2.8996144661405143 17.187836341658446 0 0 0
72 2 1 -0.6641462973233357 6.041947136335687 1.6234140676349245 11.154733680115243 0 0 0
73 2 1 -0.6745116171546768 7.428935285977139 4.433753571230999 11.67456996881666 0 0 0
98 2 2 0.02301641879696667 1.3592202101534243 5.901453624573944 13.514221209858114 0 0 0
104 2 2 0.00646573451006145 3.589002094905849 1.1857667591648082 10.255687889971055 0 0 0
105 2 2 -0.03207669753021444 0.004416982069456177 14.750891542619652 15.630756208426256 0 -1 0
106 2 2 -0.02393640119558769 2.4428944476267143 4.571917212127191 17.43946820620928 0 0 0
107 2 2 0.02745734596991101 2.187851367932793 3.108783411745545 9.302255503778635 0 0 0
109 2 2 -0.03595913909295498 5.774882776524239 5.758921072057661 14.659862008880749 0 0 0
121 2 2 -0.03127702057220445 7.310391273183062 6.940822917412429 9.37353505048116 0 0 0
128 2 2 0.1954551982592296 -0.01961500463129473 3.4572691198239616 12.127408798430203 0 0 0
142 2 2 0.1616913762809131 5.305859618083138 3.706892546460197 17.49104651523033 0 0 0
143 2 2 0.1603769818135544 4.975454648432562 2.2615578802964933 16.282011438276175 0 0 0
144 2 2 0.1776934796836645 6.994856709804198 1.018962923437578 10.99656196981209 0 0 0
145 2 2 0.1957295312037719 5.700255149360164 2.1568536995326224 10.219238234958036 0 0 0
146 2 2 0.1800602077060236 5.223625692347013 1.0089308314540093 11.640782593687257 0 0 0
147 2 2 0.171067119158379 6.691381587970272 4.887931543745406 10.945396621971103 0 0 0
149 2 2 0.2294682448015989 7.667491874870076 5.139973632494971 12.519666060635263 0 0 0
165 2 2 0.1496897761147715 7.7252967644186255 2.841825947073678 17.150586856497686 0 0 0
166 2 2 0.1778494914481888 7.323713915817573 3.6982177642425995 15.515265502742135 0 0 0
175 2 2 0.1469098101309349 6.585187692563167 5.148142890030131 8.915471083888121 0 0 0
228 2 3 -0.7889732140112116 2.0997753495393385 2.229051243339957 16.048916049391774 0 0 0
229 2 3 -0.7933026293980576 7.423123961371653 1.9378983657425306 13.457847750874453 0 0 0
236 2 3 -0.8275908690796419 0.12557855022798714 6.519816620562335 10.76902418834485 0 0 0
239 2 3 -0.8373619998579812 3.5597620149361235 4.405428556661863 15.036696936922155 0 0 0
240 2 3 -0.8056420330805147 5.213033151339916 3.6488535354619684 13.152750842615191 0 0 0
244 2 3 -0.8343133511318322 2.7698462734824925 6.878386459303399 10.686420151242483 0 0 0
245 2 3 -0.8376047292088226 3.862397372221737 5.966366079698729 12.914191661466853 0 0 0
266 2 3 -0.8577189285439 5.3945795155181795 7.144695718001116 11.054024919319021 0 0 0
291 3 4 0.8440163718424318 2.6992704037107544 0.5712499637206666 13.044545405051373 0 0 0
292 3 1 -0.6725562302087245 2.4072786491524605 2.386868745307832 12.259367399772454 0 0 0
293 3 1 -0.6678749538288443 -2.8944239777935863 14.714068938632819 14.269381473514963 0 -1 0
295 3 2 0.1581586819640521 1.6070244859334677 2.224187645907363 11.483746786935852 0 0 0
296 3 2 0.1908785612971068 3.393425128510752 2.7187471340202674 11.834590646544733 0 0 0
297 3 2 0.2002813294192968 2.0649449145073144 3.0527698869984445 13.107621061972404 0 0 0
298 3 2 0.2017909472715889 4.376791826202618 1.6349036380847577 14.2904510694845 0 0 0
328 9 2 0.1574095649890897 3.7925318176707177 6.74254778084897 16.494973400949153 0 0 0
330 10 2 0.1600447289433008 7.685937550229762 6.946932683558616 15.463343173576137 0 0 0
8 2 4 0.9870266695259038 13.630066216202046 2.9128221143082507 9.035230801816784 0 0 0
27 2 4 1.210178888995429 8.133707303066396 0.8151650071002443 14.390248497043213 0 0 0
47 2 4 0.9747048274477925 9.647514384788323 3.108963935127566 15.62990912370626 0 0 0
48 2 4 1.122515638168451 11.173183062330343 2.970570197335913 10.934541347237545 0 0 0
55 2 4 1.269965226869846 10.548602679688285 5.019655057531896 13.249376905937984 0 0 0
79 2 1 -0.7007464814193693 8.01080182371452 3.6613228946555463 16.420995761590007 0 0 0
80 2 1 -0.6725721795937445 9.722310176685276 2.3296641466219885 9.736938014721224 0 0 0
81 2 1 -0.6576490874079548 11.721777801981757 1.3924896671184626 12.01609322606211 0 0 0
94 2 2 4.884122010603668e-05 13.968585027948768 1.3017560503554872 9.307693515024273 0 0 0
116 2 2 -0.03962889302083576 10.795162886941167 3.1164618139996296 16.888450266517136 0 0 0
119 2 2 -0.03271075169032533 8.877910417019528 5.473225167961203 9.52439232170895 0 0 0
148 2 2 0.1904630942084821 8.350506934892373 4.035611493794367 11.168966408309467 0 0 0
164 2 2 0.1759766739329216 8.108840238402234 4.661911657181383 16.922291815274242 0 0 0
167 2 2 0.1622900366975868 8.998377153143311 1.7849067718145253 10.4079614975398 0 0 0
168 2 2 0.1358326242586314 10.210887444036192 1.6556605630214856 8.974264608172556 0 0 0
169 2 2 0.1264598974843607 9.296516075358825 3.26936818559258 9.289471279689122 0 0 0
170 2 2 0.1509606356643791 12.505848150727745 0.8400352708009466 11.423972768153355 0 0 0
171 2 2 0.1940889751358011 10.769887105980576 0.8034818081346577 12.159043533459453 0 0 0
172 2 2 0.1608787387715875 12.115242042062697 1.8342406655457049 12.974294641394659 0 0 0
258 2 3 -0.7644151860422598 9.42387543278019 1.468144513338967 15.098875826804925 0 0 0
259 2 3 -0.8037825292231403 12.459558734177158 3.288255867737162 10.002957472669838 0 0 0
270 2 3 -0.821159413227542 10.14611764571095 4.115381429815647 14.50476803652925 0 0 0
271 2 3 -0.8140390323848209 10.639124326544843 4.087102485714596 11.946737831870482 0 0 0
274 2 3 -0.8325629272628171 9.599695956069686 6.249219363732918 13.0580360802559 0 0 0
325 8 2 0.1255898078586441 10.586987268917717 5.292096149747852 17.415092948557046 0 0 -1
329 10 1 -0.6710550171022172 8.63792096237904 6.977912462203875 16.074609310195605 0 0 0
331 10 2 0.1821728102457731 9.16719145094569 5.986798471423105 16.103943065134462 0 0 0
333 11 2 -0.03363540014340612 12.863935594128511 2.9626340627208374 14.635282108640489 0 0 0
338 16 2 0.004500914584178105 12.099148267507985 5.588471445313134 13.527224708138908 -1 0 0
343 21 2 0.1882752274984428 11.08485557015848 7.090017833364428 17.15579345390473 0 0 0
14 2 4 1.533488691619229 -3.951569165935459 7.509210826115708 10.009619139167418 0 0 0
21 2 4 0.6826939740351986 -2.3934065875307593 10.857346912072963 14.353276186395552 0 0 0
22 2 4 1.209504044310549 -3.4740385440625183 11.992962162369121 11.71419188193158 0 0 0
37 2 4 1.238989540907793 -0.31444906686523855 7.43775683961219 16.842894436853513 0 0 0
41 2 4 1.283987550847588 -1.5343920574007792 11.915604732324052 9.353905389512887 0 0 0
68 2 1 -0.7003742777255618 -2.8583702004824607 9.065860129752762 14.520734692343558 0 0 0
69 2 1 -0.6836779756057825 -0.9291019438284911 8.965276762000569 11.538922246282318 0 0 0
101 2 2 -0.06402609958510544 -0.8419475841665158 11.135402487770726 15.005364392841168 0 0 0
102 2 2 -0.07464886337427515 -3.377119544756031 11.722858838000894 15.446938327464766 0 0 0
103 2 2 0.01148092834742183 -4.718932517628341 10.873348056635411 11.613831848012142 0 0 0
112 2 2 -0.0392679846130096 -0.614482276769087 9.09553987499716 16.901529594376463 0 0 0
113 2 2 0.009539186605753914 -0.20922969651351975 11.683831324147972 10.37851861022914 0 0 0
133 2 2 0.2014177445371377 -1.9026714600464047 8.536537480943899 14.192676017111912 0 0 0
134 2 2 0.2012871093282148 -3.724350380998995 8.919479275179572 13.79778624885551 0 0 0
135 2 2 0.128864284301567 -3.1343601398646626 8.854515498721296 15.602235243015192 0 0 0
136 2 2 0.2305486946062853 -0.5973088876768992 9.23514536283156 10.492246675728428 0 0 0
137 2 2 0.149743878757243 -0.14056926012220006 9.175600832140942 12.312438729812772 0 0 0
138 2 2 0.2005306600517796 -1.935181926848324 9.396640536195052 11.803578981130205 0 0 0
217 2 3 -0.8210064338089682 -3.4838007012309187 8.935860922658728 9.376333559175064 0 0 0
222 2 3 -0.8247075069061341 -2.524143632850021 11.44493212264415 12.883133157323362 0 0 0
223 2 3 -0.7797608086276994 -4.072919293882798 13.508371657406382 12.08403740255649 0 0 0
251 2 3 -0.8390136045721607 -2.7874437308810753 12.044027242579055 10.307423237524747 0 0 0
294 3 2 0.03478482307404719 1.2046567051362445 0.5314314086321754 13.857476788994916 0 0 0
317 6 2 -0.01740725632675327 -5.656586514785223 11.73115310559452 10.101888295390742 0 0 0
318 6 3 -0.8342877594488752 -6.457835609089968 13.983094523439027 8.928784595718769 0 0 0
320 7 1 -0.6906514348519086 -6.137248376268585 13.81491816924441 16.60726797215214 0 0 0
321 7 2 0.1327703178343594 -5.65538398482059 13.377082659560143 15.67891917330428 0 0 0
322 7 2 0.1349916345498467 -7.159214952331159 13.37061802417181 16.814113752696237 0 0 0
334 12 2 -0.05351195798930566 -4.64057151883204 10.512866555177876 17.110307354569592 0 0 0
335 13 2 -0.07639875688358998 -1.9582837481679602 10.444337665195578 17.049954769961634 0 0 0
339 17 2 -0.0622811748029134 -5.35952695637571 10.501000904159595 15.436689457890605 0 0 0
341 19 2 0.1317933660908462 -5.451911512033892 13.786869972121032 17.51088480964903 0 0 -1
344 22 2 0.1767807126421715 -2.1209633770919396 14.06493787703797 13.745958348952472 0 0 0
345 23 2 0.1460918661209746 -3.289057432434086 14.277267373038995 15.232175175063178 0 0 0
43 2 4 1.269134193823909 3.0906530509525765 9.71945946641795 13.568586393681862 0 0 0
44 2 4 1.230452610705429 1.4994943978795165 12.349924534954003 12.665716689086853 0 0 0
53 2 4 1.271317876429122 6.7435569591699505 7.866496144262819 10.653851759136218 0 0 0
60 2 4 1.264718720309904 7.226116605000941 10.388939041111998 8.952002056309182 0 0 0
61 2 4 1.028798735282354 2.4553575015617417 12.110166620147583 9.849987487375051 0 0 0
64 2 4 1.134895788813649 3.970117941961841 11.429274383578987 16.02785023825581 0 0 0
77 2 1 -0.6676943187254275 1.655824260223059 8.826265259504439 14.415948805366213 0 0 0
89 2 1 -0.6644340509621668 7.496372056446023 9.884238396748923 15.0514432289585 0 0 0
90 2 1 -0.6543003617550193 4.716267097168274 13.093646445477871 15.268705990341171 0 0 0
91 2 1 -0.6592965279381433 2.0667911933646 11.63424987372851 16.49333990944778 0 0 0
92 2 1 -0.6758484225559503 4.327947090842813 11.745903440122994 9.997584730111942 0 0 0
93 2 1 -0.6640534147463004 6.223221438970466 11.632290011530287 12.567181520742427 0 0 0
114 2 2 -0.0150666385405769 0.033609258461326674 11.538075061058297 12.616722568070184 0 0 0
127 2 2 -0.0007304573338716494 7.586182111769741 13.766420685016158 14.05471883940574 0 0 0
159 2 2 0.1931662687774686 2.0920454832442927 7.976309720523199 15.027260480360367 0 0 0
160 2 2 0.1624110317511959 1.0037960525458316 8.448291540708137 13.568398620497316 0 0 0
161 2 2 0.145727008376541 1.1255136607975889 9.59232171279688 15.063956101247934 0 0 0
192 2 2 0.1274509136890576 7.741457800896728 9.261641522735854 15.95741473204211 0 0 0
193 2 2 0.211003364961418 6.840684055179366 9.340481351149212 14.301618997040086 0 0 0
194 2 2 0.1484389098760189 7.095922010421313 10.909864313955028 15.324430936501823 0 0 0
195 2 2 0.205102866114783 4.222402588216513 13.250905822031529 14.270127398585494 0 0 0
196 2 2 0.1369604651925685 5.826682410975922 12.912761839396756 15.183001639285399 0 0 0
197 2 2 0.1801026362952131 4.470449893479943 13.915483759516656 16.001831088181817 0 0 0
198 2 2 0.1739718621766364 1.82097600835147 10.6830049668192 17.055319435545556 0 0 0
199 2 2 0.1627577370710785 1.4744724035236598 11.758026857191235 15.548004480775102 0 0 0
200 2 2 0.1703923839186391 2.028315682862603 12.548665137696442 17.159279444915118 0 0 0
201 2 2 0.1910742640583004 4.623317962390651 11.270250892259426 9.013133963664982 0 0 0
202 2 2 0.2258298035009059 4.428679617529181 11.021541176858324 10.86370582284812 0 0 0
203 2 2 0.1662414583138058 4.859492165813902 12.721909244998436 10.178665644086426 0 0 0
204 2 2 0.2028747444707419 5.930796976537012 11.167142328807158 13.559651053692516 0 0 0
205 2 2 0.2453142742541891 6.411496320512688 10.855147732217612 11.75752183066601 0 0 0
206 2 2 0.1658929295448556 5.508597605543582 12.452216185690071 12.2387889782796 0 0 0
248 2 3 -0.8152146925500926 1.2159087997904616 8.135735719523375 8.939509760300416 0 0 0
254 2 3 -0.8081823266285858 3.6939897703140043 8.626853561426303 12.541349115727087 0 0 0
255 2 3 -0.8317722954729065 2.4665679003564973 11.147277951140063 13.065654900833023 0 0 0
256 2 3 -0.8203296868087638 1.3293345502109144 13.629478087745412 13.629968039419108 0 0 0
281 2 3 -0.8235222953144448 6.526520945631699 9.369824168200168 10.076676744424047 0 0 0
282 2 3 -0.8156969028443707 7.570836865639726 11.91975021518584 9.444482002668233 0 0 0
283 2 3 -0.8176543813358998 1.8534194973819405 10.6390623968746 9.570446575718531 0 0 0
284 2 3 -0.8138832349776856 1.8519703333546333 12.830022280621225 11.163087629045087 0 0 0
288 2 3 -0.7582839560218619 4.162929327098141 10.207669453731148 14.974302620434944 0 0 0