LAMMPS (2 Aug 2023 - Update 2)
  using 1 OpenMP thread(s) per MPI task
Reading data file ...
  triclinic box = (0 0 0) to (17.3186 12.8149 18.6403) with tilt (-8.851 0.4589 0.2054)
WARNING: Triclinic box skew is large. LAMMPS will run inefficiently. (src/domain.cpp:220)
  2 by 2 by 2 MPI processor grid
  reading atoms ...
  371 atoms
Finding 1-2 1-3 1-4 neighbors ...
  special bond factors lj:    0        0        0       
  special bond factors coul:  0        0        0       
     0 = max # of 1-2 neighbors
     0 = max # of 1-3 neighbors
     0 = max # of 1-4 neighbors
     1 = max # of special neighbors
  special bonds CPU = 0.001 seconds
  read_data CPU = 0.006 seconds
WARNING: Van der Waals parameters for element SI indicate inner wall+shielding, but earlier atoms indicate a different van der Waals method. This may cause division-by-zero errors. Keeping van der Waals setting for earlier atoms. (src/REAXFF/reaxff_ffield.cpp:251)
System init for write_restart ...
WARNING: Fix qeq/reaxff group is not charge neutral, net charge = -4.92 (src/REAXFF/fix_qeq_reaxff.cpp:392)
Neighbor list info ...
  update: every = 1 steps, delay = 0 steps, check = yes
  max neighbors/atom: 2000, page size: 100000
  master list distance cutoff = 12
  ghost atom cutoff = 12
  binsize = 6, bins = 5 3 4
  2 neighbor lists, perpetual/occasional/extra = 2 0 0
  (1) pair reaxff, perpetual
      attributes: half, newton off, ghost
      pair build: half/bin/newtoff/ghost
      stencil: full/ghost/bin/3d
      bin: standard
  (2) fix qeq/reaxff, perpetual, copy from (1)
      attributes: half, newton off
      pair build: copy
      stencil: none
      bin: none
  using 1 OpenMP thread(s) per MPI task
Reading restart file ...
  restart file = 2 Aug 2023, LAMMPS = 2 Aug 2023
  restoring atom style full from restart
  triclinic box = (0 0 0) to (17.3186 12.8149 18.6403) with tilt (-8.851 0.4589 0.2054)
WARNING: Triclinic box skew is large. LAMMPS will run inefficiently. (src/domain.cpp:220)
  2 by 2 by 2 MPI processor grid
  pair style reaxff stores no restart info
  371 atoms
Finding 1-2 1-3 1-4 neighbors ...
  special bond factors lj:    0        0        0       
  special bond factors coul:  0        0        0       
     0 = max # of 1-2 neighbors
     0 = max # of 1-3 neighbors
     0 = max # of 1-4 neighbors
     1 = max # of special neighbors
  special bonds CPU = 0.001 seconds
  read_restart CPU = 0.004 seconds
*****Positive-deform 3 starts.*****
WARNING: Van der Waals parameters for element SI indicate inner wall+shielding, but earlier atoms indicate a different van der Waals method. This may cause division-by-zero errors. Keeping van der Waals setting for earlier atoms. (src/REAXFF/reaxff_ffield.cpp:251)

CITE-CITE-CITE-CITE-CITE-CITE-CITE-CITE-CITE-CITE-CITE-CITE-CITE

Your simulation uses code contributions which should be cited:
- pair reaxff command: doi:10.1016/j.parco.2011.08.005
- fix qeq/reaxff command: doi:10.1016/j.parco.2011.08.005
The log file lists these citations in BibTeX format.

CITE-CITE-CITE-CITE-CITE-CITE-CITE-CITE-CITE-CITE-CITE-CITE-CITE

WARNING: Compute rdf cutoff less than neighbor cutoff - forcing a needless neighbor list build (src/compute_rdf.cpp:179)
WARNING: Fix qeq/reaxff group is not charge neutral, net charge = -4.92 (src/REAXFF/fix_qeq_reaxff.cpp:392)
Neighbor list info ...
  update: every = 10 steps, delay = 0 steps, check = no
  max neighbors/atom: 2000, page size: 100000
  master list distance cutoff = 12
  ghost atom cutoff = 12
  binsize = 6, bins = 5 3 4
  3 neighbor lists, perpetual/occasional/extra = 2 1 0
  (1) pair reaxff, perpetual
      attributes: half, newton off, ghost
      pair build: half/bin/newtoff/ghost
      stencil: full/ghost/bin/3d
      bin: standard
  (2) compute rdf, occasional
      attributes: half, newton on, cut 7
      pair build: half/bin/newton/tri
      stencil: half/bin/3d/tri
      bin: standard
  (3) fix qeq/reaxff, perpetual, copy from (1)
      attributes: half, newton off
      pair build: copy
      stencil: none
      bin: none
Setting up Verlet run ...
  Unit style    : real
  Current step  : 0
  Time step     : 0.5
Per MPI rank memory allocation (min/avg/max) = 137.2 | 138.3 | 139.8 Mbytes
   Step          Temp          Press          Volume           Lz          Density    
         0   300            151455.16      4136.956       18.6403        1.6093426    
       100   1280.2089      23919.816      4139.0245      18.64962       1.6085384    
       200   740.92303      2398.6461      4141.0929      18.65894       1.6077349    
       300   527.63239     -4305.3781      4143.1614      18.66826       1.6069322    
       400   346.27245     -51.189237      4145.2299      18.677581      1.6061304    
       500   325.89194     -1259.304       4147.2984      18.686901      1.6053293    
       600   294.11197     -2028.8873      4149.3669      18.696221      1.6045291    
       700   278.37544      11173.138      4151.4353      18.705541      1.6037296    
       800   280.03777     -4518.79        4153.5038      18.714861      1.6029309    
       900   280.7813      -2328.8971      4155.5723      18.724181      1.602133     
      1000   318.92835      5667.1406      4157.6408      18.733501      1.601336     
      1100   314.96043     -7826.8912      4159.7092      18.742822      1.6005397    
      1200   292.15115     -1816.9933      4161.7777      18.752142      1.5997442    
      1300   293.52409     -5312.4934      4163.8462      18.761462      1.5989495    
      1400   301.89394     -1801.6717      4165.9147      18.770782      1.5981556    
      1500   296.72774      3053.8475      4167.9832      18.780102      1.5973624    
      1600   312.40682      8299.4489      4170.0516      18.789422      1.5965701    
      1700   283.07337     -1837.4191      4172.1201      18.798743      1.5957785    
      1800   284.06975      15999.162      4174.1886      18.808063      1.5949878    
      1900   311.15909      14390.244      4176.2571      18.817383      1.5941978    
      2000   298.91533     -4009.8833      4178.3256      18.826703      1.5934086    
      2100   320.31744      15002.648      4180.394       18.836023      1.5926201    
      2200   302.84911      9129.0225      4182.4625      18.845343      1.5918325    
      2300   293.53255     -1911.367       4184.531       18.854663      1.5910456    
      2400   282.16951     -194.99235      4186.5995      18.863984      1.5902595    
      2500   286.88989     -7601.2226      4188.6679      18.873304      1.5894742    
      2600   327.24597     -6977.9134      4190.7364      18.882624      1.5886897    
      2700   303.01524      19103.054      4192.8049      18.891944      1.5879059    
      2800   284.71953      9708.2916      4194.8734      18.901264      1.5871229    
      2900   296.86368      7981.9624      4196.9419      18.910584      1.5863407    
      3000   298.86877      12009.122      4199.0103      18.919905      1.5855593    
      3100   290.12         21178.463      4201.0788      18.929225      1.5847786    
      3200   315.45464      13625.272      4203.1473      18.938545      1.5839987    
      3300   312.9772       11152.212      4205.2158      18.947865      1.5832195    
      3400   271.71104     -4515.5792      4207.2842      18.957185      1.5824411    
      3500   301.54501      10254.107      4209.3527      18.966505      1.5816635    
      3600   315.8394       22342.459      4211.4212      18.975825      1.5808867    
      3700   310.32718      13738.189      4213.4897      18.985146      1.5801106    
      3800   292.36444     -13008.386      4215.5582      18.994466      1.5793353    
      3900   296.4749       6116.3273      4217.6266      19.003786      1.5785607    
      4000   295.72036      10277.572      4219.6951      19.013106      1.5777869    
      4100   297.36719      314.041        4221.7636      19.022426      1.5770139    
      4200   314.6208      -14040.435      4223.8321      19.031746      1.5762416    
      4300   319.15771      9412.2742      4225.9005      19.041066      1.57547      
      4400   300.39515      1412.1053      4227.969       19.050387      1.5746993    
      4500   300.66167      9434.8017      4230.0375      19.059707      1.5739292    
      4600   290.40824      12685.248      4232.106       19.069027      1.57316      
      4700   311.88013     -1838.0839      4234.1745      19.078347      1.5723914    
      4800   305.42792      4740.5211      4236.2429      19.087667      1.5716237    
      4900   302.37371      651.27992      4238.3114      19.096987      1.5708567    
      5000   310.53515      3232.6887      4240.3799      19.106307      1.5700904    
      5100   304.87865     -1900.6718      4242.4484      19.115628      1.5693249    
      5200   304.29482      647.44639      4244.5168      19.124948      1.5685601    
      5300   313.17949     -1405.632       4246.5853      19.134268      1.567796     
      5400   298.67277      7905.3236      4248.6538      19.143588      1.5670328    
      5500   287.67804      410.87446      4250.7223      19.152908      1.5662702    
      5600   297.71535      6744.9304      4252.7908      19.162228      1.5655084    
      5700   313.49165      4112.9271      4254.8592      19.171549      1.5647473    
      5800   309.87019      3310.6114      4256.9277      19.180869      1.563987     
      5900   304.41355     -3312.2582      4258.9962      19.190189      1.5632274    
      6000   278.6635      -6268.5364      4261.0647      19.199509      1.5624686    
      6100   284.18502     -1262.7061      4263.1331      19.208829      1.5617105    
      6200   304.53326     -808.96245      4265.2016      19.218149      1.5609531    
      6300   304.58312     -3031.3838      4267.2701      19.227469      1.5601965    
      6400   320.57437     -10839.333      4269.3386      19.23679       1.5594405    
      6500   309.79326      8052.1352      4271.4071      19.24611       1.5586854    
      6600   310.5338      -6676.3439      4273.4755      19.25543       1.5579309    
      6700   294.89986     -11041.44       4275.544       19.26475       1.5571772    
      6800   273.37251     -4175.3895      4277.6125      19.27407       1.5564242    
      6900   312.56092     -1889.4537      4279.681       19.28339       1.555672     
      7000   303.67134      4292.8232      4281.7495      19.29271       1.5549204    
      7100   310.42082      9701.9657      4283.8179      19.302031      1.5541696    
      7200   293.41049      5752.2319      4285.8864      19.311351      1.5534195    
      7300   282.51018      1572.4499      4287.9549      19.320671      1.5526702    
      7400   306.70446      5940.5704      4290.0234      19.329991      1.5519215    
      7500   318.01232     -2959.1995      4292.0918      19.339311      1.5511736    
      7600   287.86572     -1526.8711      4294.1603      19.348631      1.5504264    
      7700   294.24028      1029.1519      4296.2288      19.357952      1.54968      
      7800   312.22746      503.28834      4298.2973      19.367272      1.5489342    
      7900   291.42259     -5182.9674      4300.3658      19.376592      1.5481892    
      8000   313.38847     -1863.4993      4302.4342      19.385912      1.5474449    
      8100   291.00414      827.26866      4304.5027      19.395232      1.5467012    
      8200   310.58889      13708.827      4306.5712      19.404552      1.5459584    
      8300   307.92473     -780.33959      4308.6397      19.413872      1.5452162    
      8400   294.51731     -635.72959      4310.7081      19.423193      1.5444747    
      8500   299.62582      5543.8199      4312.7766      19.432513      1.543734     
      8600   301.70529     -1382.4262      4314.8451      19.441833      1.5429939    
      8700   290.592        4303.4217      4316.9136      19.451153      1.5422546    
      8800   304.34593     -2485.4005      4318.9821      19.460473      1.5415159    
      8900   303.22158     -8179.5874      4321.0505      19.469793      1.540778     
      9000   293.83078     -2165.1385      4323.119       19.479114      1.5400408    
      9100   304.03453      678.86394      4325.1875      19.488434      1.5393043    
      9200   285.95617     -4030.2583      4327.256       19.497754      1.5385685    
      9300   288.12742     -7079.8944      4329.3244      19.507074      1.5378334    
      9400   300.01546     -10392.729      4331.3929      19.516394      1.537099     
      9500   284.75792      5412.9249      4333.4614      19.525714      1.5363653    
      9600   314.65082     -8991.8922      4335.5299      19.535034      1.5356323    
      9700   322.12061     -4975.1952      4337.5984      19.544355      1.5349       
      9800   293.95909     -15709.072      4339.6668      19.553675      1.5341684    
      9900   313.64596      8513.4272      4341.7353      19.562995      1.5334375    
     10000   279.46745     -3204.4727      4343.8038      19.572315      1.5327073    
     10100   298.90873     -8239.481       4345.8723      19.581635      1.5319778    
     10200   291.25486     -4892.876       4347.9407      19.590955      1.5312489    
     10300   296.27217     -3355.0126      4350.0092      19.600275      1.5305208    
     10400   304.0935      -9477.7501      4352.0777      19.609596      1.5297934    
     10500   287.7768      -5854.3668      4354.1462      19.618916      1.5290666    
     10600   275.44649     -9475.0523      4356.2147      19.628236      1.5283406    
     10700   296.22867     -20590.287      4358.2831      19.637556      1.5276152    
     10800   302.48251     -12472.828      4360.3516      19.646876      1.5268906    
     10900   302.92749     -19215.656      4362.4201      19.656196      1.5261666    
     11000   302.12221     -6272.9644      4364.4886      19.665516      1.5254433    
     11100   296.4788      -12905.154      4366.557       19.674837      1.5247206    
     11200   301.11893     -4309.6076      4368.6255      19.684157      1.5239987    
     11300   301.14607      1466.5108      4370.694       19.693477      1.5232775    
     11400   276.39722     -7008.4225      4372.7625      19.702797      1.5225569    
     11500   303.51219     -2621.2497      4374.831       19.712117      1.521837     
     11600   299.31127     -6913.53        4376.8994      19.721437      1.5211178    
     11700   292.02541     -9355.0599      4378.9679      19.730758      1.5203993    
     11800   313.48451     -10201.167      4381.0364      19.740078      1.5196814    
     11900   304.88262     -13299.557      4383.1049      19.749398      1.5189643    
     12000   291.4673       3375.8608      4385.1734      19.758718      1.5182478    
     12100   295.32949     -6843.6958      4387.2418      19.768038      1.517532     
     12200   302.37972     -6242.3681      4389.3103      19.777358      1.5168168    
     12300   301.82006     -10643.165      4391.3788      19.786678      1.5161024    
     12400   305.04887     -9848.4889      4393.4473      19.795999      1.5153886    
     12500   300.52455     -14823.735      4395.5157      19.805319      1.5146754    
     12600   291.89798     -7252.137       4397.5842      19.814639      1.513963     
     12700   307.46018      2825.0566      4399.6527      19.823959      1.5132512    
     12800   296.15637     -4001.7603      4401.7212      19.833279      1.5125401    
     12900   279.9198      -10620.44       4403.7897      19.842599      1.5118296    
     13000   324.21964     -10657.771      4405.8581      19.85192       1.5111199    
     13100   286.7036       3002.2451      4407.9266      19.86124       1.5104107    
     13200   293.86737     -11114.687      4409.9951      19.87056       1.5097023    
     13300   297.78511     -9685.141       4412.0636      19.87988       1.5089945    
     13400   271.42265     -15552.203      4414.132       19.8892        1.5082874    
     13500   314.32651     -1846.3456      4416.2005      19.89852       1.5075809    
     13600   303.90633     -10282.728      4418.269       19.90784       1.5068751    
     13700   309.4747      -2952.2694      4420.3375      19.917161      1.50617      
     13800   291.28604     -20408.548      4422.406       19.926481      1.5054655    
     13900   308.36646     -15541.18       4424.4744      19.935801      1.5047617    
     14000   293.87288     -3874.9395      4426.5429      19.945121      1.5040585    
     14100   286.89012     -8452.6893      4428.6114      19.954441      1.503356     
     14200   281.13828     -511.16773      4430.6799      19.963761      1.5026542    
     14300   302.35221     -10802.692      4432.7483      19.973081      1.501953     
     14400   298.32603      4844.8935      4434.8168      19.982402      1.5012525    
     14500   302.00582     -2511.9056      4436.8853      19.991722      1.5005526    
     14600   290.68156     -13663.807      4438.9538      20.001042      1.4998534    
     14700   276.42875     -21979.387      4441.0223      20.010362      1.4991548    
     14800   292.60071     -15588.287      4443.0907      20.019682      1.4984568    
     14900   299.83412     -15801.672      4445.1592      20.029002      1.4977596    
     15000   294.16273     -1322.1605      4447.2277      20.038322      1.4970629    
     15100   316.00555     -1714.0215      4449.2962      20.047643      1.4963669    
     15200   291.43754     -10304.247      4451.3646      20.056963      1.4956716    
     15300   296.38039      3631.9454      4453.4331      20.066283      1.4949769    
     15400   288.65995     -9881.7636      4455.5016      20.075603      1.4942829    
     15500   288.38477     -9602.2373      4457.5701      20.084923      1.4935895    
     15600   306.86767     -17105.882      4459.6386      20.094243      1.4928967    
     15700   285.84728     -29327.618      4461.707       20.103564      1.4922046    
     15800   300.36535     -11016.058      4463.7755      20.112884      1.4915131    
     15900   305.11182     -19630.065      4465.844       20.122204      1.4908223    
     16000   283.62397     -8876.3955      4467.9125      20.131524      1.4901321    
     16100   281.51457     -10505.485      4469.9809      20.140844      1.4894425    
     16200   286.22803     -661.29728      4472.0494      20.150164      1.4887536    
     16300   293.32834     -15992.635      4474.1179      20.159484      1.4880653    
     16400   310.63985     -3657.8138      4476.1864      20.168805      1.4873777    
     16500   303.15741     -17930.47       4478.2549      20.178125      1.4866907    
     16600   312.23521     -23308.085      4480.3233      20.187445      1.4860043    
     16700   302.00156     -255.70228      4482.3918      20.196765      1.4853185    
     16800   302.55962     -11274.087      4484.4603      20.206085      1.4846334    
     16900   313.71408     -6846.6456      4486.5288      20.215405      1.483949     
     17000   314.36643     -23430.794      4488.5972      20.224725      1.4832651    
     17100   303.5463      -1173.2236      4490.6657      20.234046      1.4825819    
     17200   336.04109     -14428.577      4492.7342      20.243366      1.4818993    
     17300   282.27534      363.80391      4494.8027      20.252686      1.4812173    
     17400   295.67975     -17834.098      4496.8712      20.262006      1.480536     
     17500   293.07444     -12104.145      4498.9396      20.271326      1.4798553    
     17600   318.10583     -11863.299      4501.0081      20.280646      1.4791752    
     17700   295.09482     -9815.2503      4503.0766      20.289967      1.4784958    
     17800   315.51419     -14002.846      4505.1451      20.299287      1.4778169    
     17900   294.94861     -11394.284      4507.2136      20.308607      1.4771387    
     18000   304.56929     -22976.921      4509.282       20.317927      1.4764611    
     18100   313.28318     -5962.5239      4511.3505      20.327247      1.4757842    
     18200   315.72864     -7617.9022      4513.419       20.336567      1.4751078    
     18300   305.26666     -14092.357      4515.4875      20.345887      1.4744321    
     18400   296.62858     -3302.1249      4517.5559      20.355208      1.473757     
     18500   297.44956     -13286.261      4519.6244      20.364528      1.4730825    
     18600   289.44186     -14086.45       4521.6929      20.373848      1.4724086    
     18700   293.64992     -16743.745      4523.7614      20.383168      1.4717354    
     18800   304.80561     -15330.479      4525.8299      20.392488      1.4710627    
     18900   302.73793     -16058.621      4527.8983      20.401808      1.4703907    
     19000   299.56069     -13111.611      4529.9668      20.411129      1.4697193    
     19100   282.65198     -12253.138      4532.0353      20.420449      1.4690485    
     19200   288.59713     -15335.356      4534.1038      20.429769      1.4683783    
     19300   313.20357     -9068.8127      4536.1722      20.439089      1.4677088    
     19400   320.46369     -7648.4858      4538.2407      20.448409      1.4670398    
     19500   316.0424      -21716.885      4540.3092      20.457729      1.4663714    
     19600   305.3112      -5589.593       4542.3777      20.467049      1.4657037    
     19700   285.87027     -20243.531      4544.4462      20.47637       1.4650365    
     19800   282.00942     -14583.472      4546.5146      20.48569       1.46437      
     19900   296.94883     -10721.72       4548.5831      20.49501       1.4637041    
     20000   293.57542     -3528.4848      4550.6516      20.50433       1.4630388    
     20100   284.43985     -10157.9        4552.7201      20.51365       1.4623741    
     20200   294.83523     -12589.442      4554.7885      20.52297       1.4617099    
     20300   304.74444     -24823.061      4556.857       20.53229       1.4610464    
     20400   291.32629     -9716.1145      4558.9255      20.541611      1.4603835    
     20500   310.7381      -6600.6105      4560.994       20.550931      1.4597212    
     20600   285.9188      -19912.673      4563.0625      20.560251      1.4590595    
     20700   280.62674     -18199.898      4565.1309      20.569571      1.4583984    
     20800   298.21414     -18116.02       4567.1994      20.578891      1.4577379    
     20900   304.74357     -25524.481      4569.2679      20.588211      1.457078     
     21000   320.95574     -13528.457      4571.3364      20.597531      1.4564187    
     21100   282.31217     -18801.23       4573.4048      20.606852      1.45576      
     21200   277.61445     -15184.023      4575.4733      20.616172      1.4551018    
     21300   299.97932     -22251.338      4577.5418      20.625492      1.4544443    
     21400   311.94379     -4673.7768      4579.6103      20.634812      1.4537874    
     21500   303.27804      863.44429      4581.6788      20.644132      1.4531311    
     21600   296.35359     -12687.375      4583.7472      20.653452      1.4524753    
     21700   294.50929     -15112.337      4585.8157      20.662773      1.4518202    
     21800   312.77912     -19500.316      4587.8842      20.672093      1.4511656    
     21900   313.30594     -23414.26       4589.9527      20.681413      1.4505116    
     22000   298.09387     -16269.657      4592.0211      20.690733      1.4498582    
     22100   296.01755     -9342.9553      4594.0896      20.700053      1.4492054    
     22200   292.92083     -12355.994      4596.1581      20.709373      1.4485532    
     22300   304.71829     -22047.233      4598.2266      20.718693      1.4479016    
     22400   324.97772     -13599.216      4600.2951      20.728014      1.4472506    
     22500   303.14982     -23126.708      4602.3635      20.737334      1.4466001    
     22600   288.46785     -7567.4955      4604.432       20.746654      1.4459503    
     22700   290.00752     -12219.585      4606.5005      20.755974      1.445301     
     22800   302.22643     -17172.68       4608.569       20.765294      1.4446523    
     22900   312.01252     -18910.511      4610.6375      20.774614      1.4440042    
     23000   312.26508     -20531.088      4612.7059      20.783935      1.4433566    
     23100   291.50357     -16554.95       4614.7744      20.793255      1.4427097    
     23200   292.72929     -12421.369      4616.8429      20.802575      1.4420633    
     23300   306.14507     -8439.9845      4618.9114      20.811895      1.4414175    
     23400   302.81284     -14145.735      4620.9798      20.821215      1.4407723    
     23500   294.32038     -17911.559      4623.0483      20.830535      1.4401276    
     23600   297.88778     -7253.1337      4625.1168      20.839855      1.4394836    
     23700   274.39123     -13821.963      4627.1853      20.849176      1.4388401    
     23800   281.60581     -17309.348      4629.2538      20.858496      1.4381972    
     23900   301.69221     -2888.7158      4631.3222      20.867816      1.4375548    
     24000   301.09315     -21678.246      4633.3907      20.877136      1.4369131    
     24100   294.99306     -18014.246      4635.4592      20.886456      1.4362719    
     24200   297.61911     -15272.401      4637.5277      20.895776      1.4356313    
     24300   317.89443     -10946.595      4639.5961      20.905096      1.4349912    
     24400   344.82608     -16478.344      4641.6646      20.914417      1.4343517    
     24500   316.34607     -12794.689      4643.7331      20.923737      1.4337128    
     24600   314.94731     -30224.831      4645.8016      20.933057      1.4330745    
     24700   296.71597     -21559.884      4647.8701      20.942377      1.4324367    
     24800   273.00221     -13578.004      4649.9385      20.951697      1.4317995    
     24900   303.46285     -17790.784      4652.007       20.961017      1.4311629    
     25000   340.84667     -10474.665      4654.0755      20.970337      1.4305268    
     25100   293.9889      -12215.987      4656.144       20.979658      1.4298913    
     25200   294.3774      -13628.506      4658.2124      20.988978      1.4292563    
     25300   301.71053     -23024.429      4660.2809      20.998298      1.428622     
     25400   303.72591     -19704.532      4662.3494      21.007618      1.4279881    
     25500   293.35782     -13228.078      4664.4179      21.016938      1.4273549    
     25600   307.42201     -21702.647      4666.4864      21.026258      1.4267222    
     25700   311.55059     -11002.342      4668.5548      21.035579      1.4260901    
     25800   310.29223     -21729.997      4670.6233      21.044899      1.4254585    
     25900   307.76283     -14348.702      4672.6918      21.054219      1.4248275    
     26000   288.67103     -14275.747      4674.7603      21.063539      1.424197     
     26100   301.50907     -9183.9379      4676.8287      21.072859      1.4235671    
     26200   312.92556     -19002.602      4678.8972      21.082179      1.4229378    
     26300   306.46211     -9338.2463      4680.9657      21.091499      1.422309     
     26400   282.93381     -10514.019      4683.0342      21.10082       1.4216808    
     26500   282.71735     -15666.37       4685.1027      21.11014       1.4210531    
     26600   300.64291     -23765.11       4687.1711      21.11946       1.420426     
     26700   299.32972     -11347.512      4689.2396      21.12878       1.4197994    
     26800   311.42722     -20833.057      4691.3081      21.1381        1.4191734    
     26900   290.60816     -17254.216      4693.3766      21.14742       1.4185479    
     27000   291.35949     -16315.782      4695.445       21.156741      1.417923     
     27100   275.97903     -17216.664      4697.5135      21.166061      1.4172987    
     27200   281.52353     -10393.217      4699.582       21.175381      1.4166749    
     27300   291.98062     -19104.939      4701.6505      21.184701      1.4160516    
     27400   297.92444     -23482.239      4703.719       21.194021      1.4154289    
     27500   289.51876     -27531.101      4705.7874      21.203341      1.4148067    
     27600   298.79575     -28861.658      4707.8559      21.212661      1.4141851    
     27700   307.29318     -15043.333      4709.9244      21.221982      1.413564     
     27800   291.43527     -14928.625      4711.9929      21.231302      1.4129435    
     27900   286.56769     -25286.49       4714.0614      21.240622      1.4123235    
     28000   307.58408     -18589.724      4716.1298      21.249942      1.4117041    
     28100   302.68748     -18425.61       4718.1983      21.259262      1.4110852    
     28200   310.9107      -26312.945      4720.2668      21.268582      1.4104668    
     28300   310.27337     -27981.781      4722.3353      21.277902      1.409849     
     28400   285.34868     -19028.328      4724.4037      21.287223      1.4092317    
     28500   311.99335     -31411.391      4726.4722      21.296543      1.408615     
     28600   294.02784     -30219.825      4728.5407      21.305863      1.4079988    
     28700   306.88115     -17353.459      4730.6092      21.315183      1.4073832    
     28800   337.51512     -35849.63       4732.6777      21.324503      1.406768     
     28900   310.69247     -23645.752      4734.7461      21.333823      1.4061535    
     29000   303.6147      -29559.11       4736.8146      21.343144      1.4055394    
     29100   294.08751     -31012.832      4738.8831      21.352464      1.4049259    
     29200   297.20171     -27592.401      4740.9516      21.361784      1.404313     
     29300   295.61401     -25933.133      4743.02        21.371104      1.4037005    
     29400   306.19205     -26619.057      4745.0885      21.380424      1.4030886    
     29500   308.23402     -21824.689      4747.157       21.389744      1.4024773    
     29600   299.4868      -21075.164      4749.2255      21.399064      1.4018664    
     29700   296.18691     -23529.084      4751.294       21.408385      1.4012561    
     29800   283.19842     -30307.671      4753.3624      21.417705      1.4006463    
     29900   290.06421     -24821.193      4755.4309      21.427025      1.4000371    
     30000   323.15409     -30256.447      4757.4994      21.436345      1.3994284    
     30100   307.79112     -20032.354      4759.5679      21.445665      1.3988202    
     30200   290.22322     -20348.022      4761.6363      21.454985      1.3982125    
     30300   283.40157     -25956.679      4763.7048      21.464305      1.3976054    
     30400   304.37847     -24609.72       4765.7733      21.473626      1.3969988    
     30500   274.84851     -23597.152      4767.8418      21.482946      1.3963928    
     30600   306.16176     -28433.994      4769.9103      21.492266      1.3957872    
     30700   303.23917     -20204.161      4771.9787      21.501586      1.3951822    
     30800   310.28868     -17632.147      4774.0472      21.510906      1.3945777    
     30900   305.18679     -23821.755      4776.1157      21.520226      1.3939737    
     31000   301.48447     -24180.409      4778.1842      21.529547      1.3933703    
     31100   273.74222     -24066.202      4780.2526      21.538867      1.3927673    
     31200   307.45677     -30449.286      4782.3211      21.548187      1.3921649    
     31300   312.47182     -17645.337      4784.3896      21.557507      1.391563     
     31400   298.54442     -10061.563      4786.4581      21.566827      1.3909617    
     31500   296.96774     -18508.723      4788.5266      21.576147      1.3903608    
     31600   290.06956     -29207.779      4790.595       21.585467      1.3897605    
     31700   276.09833     -20589.359      4792.6635      21.594788      1.3891607    
     31800   271.82914     -15798.246      4794.732       21.604108      1.3885614    
     31900   283.39426     -22551.066      4796.8005      21.613428      1.3879626    
     32000   316.99899     -20416.398      4798.8689      21.622748      1.3873643    
     32100   312.7997      -13363.163      4800.9374      21.632068      1.3867666    
     32200   281.5962      -13569.027      4803.0059      21.641388      1.3861694    
     32300   297.02348     -19315.668      4805.0744      21.650708      1.3855727    
     32400   312.11627     -16899.213      4807.1429      21.660029      1.3849765    
     32500   298.43247     -19471.583      4809.2113      21.669349      1.3843808    
     32600   303.16393     -10950.602      4811.2798      21.678669      1.3837856    
     32700   294.79668     -4327.359       4813.3483      21.687989      1.3831909    
     32800   306.80039     -22709.497      4815.4168      21.697309      1.3825968    
     32900   283.1407      -15093.707      4817.4853      21.706629      1.3820031    
     33000   289.82306     -23673.019      4819.5537      21.71595       1.38141      
     33100   322.69581     -23125.663      4821.6222      21.72527       1.3808174    
     33200   313.49754     -16757.837      4823.6907      21.73459       1.3802253    
     33300   304.04725     -20182.541      4825.7592      21.74391       1.3796336    
     33400   305.81957     -16661.106      4827.8276      21.75323       1.3790425    
     33500   310.42291     -21319.894      4829.8961      21.76255       1.3784519    
     33600   302.57855     -28370.151      4831.9646      21.77187       1.3778619    
     33700   302.07518     -27853.405      4834.0331      21.781191      1.3772723    
     33800   294.70549     -19074.308      4836.1016      21.790511      1.3766832    
     33900   297.81087     -22914.277      4838.17        21.799831      1.3760946    
     34000   313.33379     -21355.395      4840.2385      21.809151      1.3755065    
     34100   298.96952     -18062.519      4842.307       21.818471      1.374919     
     34200   297.7652      -23736.477      4844.3755      21.827791      1.3743319    
     34300   291.52687     -26137.273      4846.4439      21.837111      1.3737453    
     34400   289.83354     -21030.342      4848.5124      21.846432      1.3731593    
     34500   287.50648     -15798.269      4850.5809      21.855752      1.3725737    
     34600   311.15202     -24190.692      4852.6494      21.865072      1.3719886    
     34700   322.80447     -20652.312      4854.7179      21.874392      1.371404     
     34800   301.8151      -29090.83       4856.7863      21.883712      1.37082      
     34900   301.71256     -29475.859      4858.8548      21.893032      1.3702364    
     35000   308.82568     -27209.813      4860.9233      21.902352      1.3696533    
     35100   289.96829     -26782.547      4862.9918      21.911673      1.3690707    
     35200   328.65469     -23106.761      4865.0602      21.920993      1.3684886    
     35300   329.46258     -20182.472      4867.1287      21.930313      1.3679071    
     35400   302.37924     -25674.837      4869.1972      21.939633      1.367326     
     35500   299.26947     -18682.458      4871.2657      21.948953      1.3667453    
     35600   297.53278     -13867.219      4873.3342      21.958273      1.3661652    
     35700   304.3672      -25643.054      4875.4026      21.967594      1.3655856    
     35800   324.60138     -19753.506      4877.4711      21.976914      1.3650065    
     35900   318.18431     -16253.223      4879.5396      21.986234      1.3644278    
     36000   311.62622     -22036.763      4881.6081      21.995554      1.3638497    
     36100   294.55867     -32497.15       4883.6765      22.004874      1.363272     
     36200   300.34971     -24359.566      4885.745       22.014194      1.3626949    
     36300   277.28033     -22098.036      4887.8135      22.023514      1.3621182    
     36400   308.42015     -19412.997      4889.882       22.032835      1.361542     
     36500   295.07725     -13914.351      4891.9505      22.042155      1.3609663    
     36600   293.96598     -28877.897      4894.0189      22.051475      1.3603911    
     36700   276.79808     -26742.12       4896.0874      22.060795      1.3598163    
     36800   306.2856      -20386.169      4898.1559      22.070115      1.3592421    
     36900   313.56594     -20218.3        4900.2244      22.079435      1.3586683    
     37000   302.67375     -21095.031      4902.2928      22.088756      1.3580951    
     37100   298.6658      -33390.964      4904.3613      22.098076      1.3575223    
     37200   326.56529     -28512.401      4906.4298      22.107396      1.35695      
     37300   270.98163     -26115.883      4908.4983      22.116716      1.3563781    
     37400   295.59364     -23968.229      4910.5668      22.126036      1.3558068    
     37500   290.88139     -19048.534      4912.6352      22.135356      1.3552359    
     37600   315.79177     -24111.429      4914.7037      22.144676      1.3546655    
     37700   325.99959     -24494.65       4916.7722      22.153997      1.3540956    
     37800   303.58574     -18680.91       4918.8407      22.163317      1.3535262    
     37900   298.13912     -25052.594      4920.9092      22.172637      1.3529572    
     38000   286.25557     -29073.023      4922.9776      22.181957      1.3523888    
     38100   292.68542     -15034.789      4925.0461      22.191277      1.3518208    
     38200   319.3778      -23979.281      4927.1146      22.200597      1.3512533    
     38300   295.83538     -24933.776      4929.1831      22.209917      1.3506862    
     38400   300.20305     -29346.112      4931.2515      22.219238      1.3501197    
     38500   273.84429     -31421.106      4933.32        22.228558      1.3495536    
     38600   280.82344     -22510.399      4935.3885      22.237878      1.348988     
     38700   282.89708     -20429.094      4937.457       22.247198      1.3484228    
     38800   298.66592     -25186.664      4939.5255      22.256518      1.3478582    
     38900   319.52231     -28703.523      4941.5939      22.265838      1.347294     
     39000   308.64144     -19533.272      4943.6624      22.275158      1.3467302    
     39100   279.66185     -12853.84       4945.7309      22.284479      1.346167     
     39200   282.51545     -17191.715      4947.7994      22.293799      1.3456042    
     39300   289.30193     -36149.907      4949.8678      22.303119      1.3450419    
     39400   304.66251     -26774.638      4951.9363      22.312439      1.3444801    
     39500   322.49302     -24482.618      4954.0048      22.321759      1.3439187    
     39600   312.79359     -33519.967      4956.0733      22.331079      1.3433578    
     39700   306.0111      -15022.733      4958.1418      22.3404        1.3427974    
     39800   303.06916     -20176.648      4960.2102      22.34972       1.3422374    
     39900   299.25379     -27912.156      4962.2787      22.35904       1.3416779    
     40000   280.19125     -22412.477      4964.3472      22.36836       1.3411189    
     40100   291.79199     -28283.379      4966.4157      22.37768       1.3405603    
     40200   293.85428     -22487.027      4968.4841      22.387         1.3400022    
     40300   308.55885     -19010.623      4970.5526      22.39632       1.3394446    
     40400   332.23723     -30480.108      4972.6211      22.405641      1.3388874    
     40500   313.16979     -26667.621      4974.6896      22.414961      1.3383307    
     40600   294.36111     -24252.765      4976.7581      22.424281      1.3377744    
     40700   277.32957     -21889.77       4978.8265      22.433601      1.3372186    
     40800   296.46926     -21042.426      4980.895       22.442921      1.3366633    
     40900   330.72828     -19369.774      4982.9635      22.452241      1.3361085    
     41000   296.06551     -20489.421      4985.032       22.461562      1.3355541    
     41100   305.56202     -33824.988      4987.1004      22.470882      1.3350001    
     41200   314.12036     -20711.223      4989.1689      22.480202      1.3344466    
     41300   295.35515     -16943.1        4991.2374      22.489522      1.3338936    
     41400   302.16988     -25511.721      4993.3059      22.498842      1.333341     
     41500   330.24472     -20909.872      4995.3744      22.508162      1.3327889    
     41600   305.92993     -26621.116      4997.4428      22.517482      1.3322373    
     41700   280.21911     -20435.727      4999.5113      22.526803      1.3316861    
     41800   301.04048     -19667.625      5001.5798      22.536123      1.3311354    
     41900   323.55019     -22899.086      5003.6483      22.545443      1.3305851    
     42000   305.51627     -26829.935      5005.7167      22.554763      1.3300352    
     42100   282.82382     -37877.72       5007.7852      22.564083      1.3294859    
     42200   289.58408     -29088.589      5009.8537      22.573403      1.3289369    
     42300   306.63227     -23185.186      5011.9222      22.582723      1.3283885    
     42400   284.0831      -23732.728      5013.9907      22.592044      1.3278405    
     42500   271.07863     -26755.98       5016.0591      22.601364      1.3272929    
     42600   289.29533     -17819.953      5018.1276      22.610684      1.3267458    
     42700   319.35633     -28247.666      5020.1961      22.620004      1.3261991    
     42800   285.65978     -34398.84       5022.2646      22.629324      1.3256529    
     42900   293.8587      -13550.847      5024.3331      22.638644      1.3251072    
     43000   296.33395     -10347.809      5026.4015      22.647965      1.3245618    
     43100   306.5052      -27828.731      5028.47        22.657285      1.324017     
     43200   314.05065     -17334.514      5030.5385      22.666605      1.3234726    
     43300   294.03772     -27331.091      5032.607       22.675925      1.3229286    
     43400   312.59866     -25060.341      5034.6754      22.685245      1.3223851    
     43500   307.57501     -29354.461      5036.7439      22.694565      1.321842     
     43600   289.24893     -26111.064      5038.8124      22.703885      1.3212994    
     43700   307.93833     -22873.211      5040.8809      22.713206      1.3207572    
     43800   314.20184     -24892.097      5042.9494      22.722526      1.3202155    
     43900   295.00126     -26469.42       5045.0178      22.731846      1.3196742    
     44000   276.55726     -23195.388      5047.0863      22.741166      1.3191333    
     44100   277.80837     -23620.569      5049.1548      22.750486      1.3185929    
     44200   305.2229      -25067.912      5051.2233      22.759806      1.3180529    
     44300   302.96189     -28021.249      5053.2917      22.769126      1.3175134    
     44400   310.35161     -37187.716      5055.3602      22.778447      1.3169743    
     44500   298.76236     -16044.196      5057.4287      22.787767      1.3164357    
     44600   273.61978     -20289.564      5059.4972      22.797087      1.3158975    
     44700   286.95897     -20468.457      5061.5657      22.806407      1.3153597    
     44800   306.8856      -26377.248      5063.6341      22.815727      1.3148224    
     44900   295.98728     -22521.754      5065.7026      22.825047      1.3142855    
     45000   307.94604     -31224.747      5067.7711      22.834367      1.3137491    
     45100   293.31753     -35501.098      5069.8396      22.843688      1.3132131    
     45200   282.45375     -25291.366      5071.908       22.853008      1.3126775    
     45300   300.0848      -20955.804      5073.9765      22.862328      1.3121424    
     45400   280.18221     -25331.901      5076.045       22.871648      1.3116077    
     45500   303.96386     -29964.366      5078.1135      22.880968      1.3110734    
     45600   304.1919      -33514.86       5080.182       22.890288      1.3105396    
     45700   305.0804      -20848.342      5082.2504      22.899609      1.3100062    
     45800   280.7833      -17323.275      5084.3189      22.908929      1.3094733    
     45900   286.65883     -30527.693      5086.3874      22.918249      1.3089407    
     46000   301.10225     -28256.338      5088.4559      22.927569      1.3084087    
     46100   308.8475      -24502.514      5090.5243      22.936889      1.307877     
     46200   311.56494     -21260.309      5092.5928      22.946209      1.3073458    
     46300   314.28972     -22074.877      5094.6613      22.955529      1.306815     
     46400   305.39343     -24693.92       5096.7298      22.96485       1.3062846    
     46500   290.00071     -20256.434      5098.7983      22.97417       1.3057547    
     46600   290.35209     -15170.959      5100.8667      22.98349       1.3052252    
     46700   295.59933     -25392.631      5102.9352      22.99281       1.3046961    
     46800   334.53392     -31188.372      5105.0037      23.00213       1.3041675    
     46900   311.86118     -29918.399      5107.0722      23.01145       1.3036392    
     47000   297.03018     -24238.796      5109.1406      23.020771      1.3031115    
     47100   294.69011     -21032.76       5111.2091      23.030091      1.3025841    
     47200   291.51432     -21269.912      5113.2776      23.039411      1.3020572    
     47300   315.96019     -23174.885      5115.3461      23.048731      1.3015306    
     47400   330.01889     -18897.947      5117.4146      23.058051      1.3010046    
     47500   296.64387     -30627.743      5119.483       23.067371      1.3004789    
     47600   285.15793     -25345.61       5121.5515      23.076691      1.2999537    
     47700   299.47922     -26682.721      5123.62        23.086012      1.2994289    
     47800   295.23816     -25550.526      5125.6885      23.095332      1.2989045    
     47900   288.53535     -15073.614      5127.757       23.104652      1.2983805    
     48000   278.82811     -23982.953      5129.8254      23.113972      1.297857     
     48100   290.0835      -22304.114      5131.8939      23.123292      1.2973339    
     48200   299.09875     -20830.623      5133.9624      23.132612      1.2968112    
     48300   301.74983     -22344.734      5136.0309      23.141932      1.2962889    
     48400   322.14272     -25723.229      5138.0993      23.151253      1.295767     
     48500   298.57997     -26607.492      5140.1678      23.160573      1.2952456    
     48600   273.79276     -10756.691      5142.2363      23.169893      1.2947246    
     48700   290.9006      -10175.746      5144.3048      23.179213      1.294204     
     48800   289.76488     -21277.654      5146.3733      23.188533      1.2936838    
     48900   279.32152     -6587.5865      5148.4417      23.197853      1.293164     
     49000   311.0641      -16438.514      5150.5102      23.207173      1.2926447    
     49100   319.38847     -12227.821      5152.5787      23.216494      1.2921258    
     49200   304.51611     -23447.392      5154.6472      23.225814      1.2916073    
     49300   303.05376     -18195.206      5156.7156      23.235134      1.2910892    
     49400   296.99696     -15990.625      5158.7841      23.244454      1.2905715    
     49500   275.88171     -17070.045      5160.8526      23.253774      1.2900542    
     49600   298.12772     -15997.982      5162.9211      23.263094      1.2895374    
     49700   306.55436     -22398.218      5164.9896      23.272415      1.2890209    
     49800   317.16943     -19007.454      5167.058       23.281735      1.2885049    
     49900   301.58468     -16139.759      5169.1265      23.291055      1.2879893    
     50000   290.01947     -29538.131      5171.195       23.300375      1.2874741    
     50100   278.45244     -25035.851      5173.2635      23.309695      1.2869593    
     50200   300.17953     -21044.121      5175.3319      23.319015      1.286445     
     50300   301.37511     -23806.763      5177.4004      23.328335      1.285931     
     50400   319.62771     -12633.577      5179.4689      23.337656      1.2854174    
     50500   288.93088     -20331.424      5181.5374      23.346976      1.2849043    
     50600   292.56874     -20533.849      5183.6059      23.356296      1.2843916    
     50700   308.46676     -25425.624      5185.6743      23.365616      1.2838793    
     50800   267.20971     -22262.661      5187.7428      23.374936      1.2833673    
     50900   286.90477     -30230.981      5189.8113      23.384256      1.2828558    
     51000   288.16335     -24783.339      5191.8798      23.393577      1.2823447    
     51100   308.86307     -25096.616      5193.9482      23.402897      1.281834     
     51200   298.67975     -20692.26       5196.0167      23.412217      1.2813238    
     51300   281.17522     -16329.173      5198.0852      23.421537      1.2808139    
     51400   300.29915     -9931.0265      5200.1537      23.430857      1.2803044    
     51500   315.47241     -27100.589      5202.2222      23.440177      1.2797953    
     51600   300.76962     -26354.728      5204.2906      23.449497      1.2792867    
     51700   313.43492     -21941.031      5206.3591      23.458818      1.2787784    
     51800   281.02762     -21454.923      5208.4276      23.468138      1.2782706    
     51900   295.66598     -20408.809      5210.4961      23.477458      1.2777631    
     52000   304.28095     -11206.135      5212.5645      23.486778      1.2772561    
     52100   331.53881     -26556.617      5214.633       23.496098      1.2767494    
     52200   310.69408     -17880.937      5216.7015      23.505418      1.2762432    
     52300   302.59069     -37154.152      5218.77        23.514738      1.2757373    
     52400   306.08868     -23778.566      5220.8385      23.524059      1.2752319    
     52500   305.62751     -16393.797      5222.9069      23.533379      1.2747268    
     52600   299.6559      -29462.986      5224.9754      23.542699      1.2742222    
     52700   308.41894     -14105.323      5227.0439      23.552019      1.273718     
     52800   302.20645     -29322.293      5229.1124      23.561339      1.2732141    
     52900   289.92323     -24274.067      5231.1809      23.570659      1.2727107    
     53000   290.0347      -22385.482      5233.2493      23.57998       1.2722076    
     53100   303.49459     -22561.725      5235.3178      23.5893        1.271705     
     53200   312.8167      -18346.843      5237.3863      23.59862       1.2712027    
     53300   311.33237     -25651.391      5239.4548      23.60794       1.2707009    
     53400   301.76772     -18430.429      5241.5232      23.61726       1.2701994    
     53500   299.38754     -21085.083      5243.5917      23.62658       1.2696983    
     53600   284.63247     -23434.875      5245.6602      23.6359        1.2691977    
     53700   304.97579     -21075.777      5247.7287      23.645221      1.2686974    
     53800   304.62534     -24877.637      5249.7972      23.654541      1.2681975    
     53900   286.80751     -31205.196      5251.8656      23.663861      1.267698     
     54000   306.78418     -18700.663      5253.9341      23.673181      1.2671989    
     54100   274.77993     -23503.055      5256.0026      23.682501      1.2667002    
     54200   299.50446     -21257.7        5258.0711      23.691821      1.2662019    
     54300   323.32635     -22976.021      5260.1395      23.701141      1.265704     
     54400   325.76296     -23831.338      5262.208       23.710462      1.2652065    
     54500   302.68691     -7375.1653      5264.2765      23.719782      1.2647093    
     54600   309.26116     -14323.131      5266.345       23.729102      1.2642126    
     54700   298.63388     -20388.893      5268.4135      23.738422      1.2637163    
     54800   287.00436     -21075.432      5270.4819      23.747742      1.2632203    
     54900   317.76655     -18923.277      5272.5504      23.757062      1.2627247    
     55000   309.17893     -27866.514      5274.6189      23.766382      1.2622295    
     55100   311.99155     -16815.146      5276.6874      23.775703      1.2617347    
     55200   309.30002     -16180.109      5278.7558      23.785023      1.2612403    
     55300   294.82993     -11702.168      5280.8243      23.794343      1.2607463    
     55400   279.91251     -16752.351      5282.8928      23.803663      1.2602527    
     55500   313.97264     -17409.367      5284.9613      23.812983      1.2597594    
     55600   319.93233     -19205.851      5287.0298      23.822303      1.2592665    
     55700   299.97715     -29498.81       5289.0982      23.831624      1.2587741    
     55800   298.42615     -26466.62       5291.1667      23.840944      1.258282     
     55900   310.92017     -14280.892      5293.2352      23.850264      1.2577903    
     56000   295.79416     -20157.37       5295.3037      23.859584      1.2572989    
     56100   301.19467     -32161.541      5297.3721      23.868904      1.256808     
     56200   296.89389     -23358.678      5299.4406      23.878224      1.2563174    
     56300   292.61545     -20990.196      5301.5091      23.887544      1.2558273    
     56400   321.07909     -26114.454      5303.5776      23.896865      1.2553375    
     56500   331.04054     -19655.482      5305.6461      23.906185      1.2548481    
     56600   316.81682     -14405.831      5307.7145      23.915505      1.254359     
     56700   282.63911     -8751.9004      5309.783       23.924825      1.2538704    
     56800   289.50942     -18230.693      5311.8515      23.934145      1.2533821    
     56900   296.17505     -21392.568      5313.92        23.943465      1.2528942    
     57000   328.7811      -18848.926      5315.9884      23.952786      1.2524067    
     57100   308.49547     -23228.821      5318.0569      23.962106      1.2519196    
     57200   323.79544     -21987.637      5320.1254      23.971426      1.2514328    
     57300   298.22284     -13250.153      5322.1939      23.980746      1.2509465    
     57400   288.14964     -17351.666      5324.2624      23.990066      1.2504605    
     57500   293.43789     -22473.997      5326.3308      23.999386      1.2499749    
     57600   316.636       -11557.055      5328.3993      24.008706      1.2494896    
     57700   320.87148     -20546.277      5330.4678      24.018027      1.2490048    
     57800   307.95982     -20225.497      5332.5363      24.027347      1.2485203    
     57900   296.41402     -18683.391      5334.6048      24.036667      1.2480362    
     58000   306.70731     -25514.316      5336.6732      24.045987      1.2475524    
     58100   300.24271     -23377.216      5338.7417      24.055307      1.2470691    
     58200   278.22233     -19732.457      5340.8102      24.064627      1.2465861    
     58300   291.69803     -25540.441      5342.8787      24.073947      1.2461035    
     58400   297.03853     -29027.468      5344.9471      24.083268      1.2456212    
     58500   323.03991     -30691.065      5347.0156      24.092588      1.2451394    
     58600   310.87642     -17993.6        5349.0841      24.101908      1.2446579    
     58700   293.64058     -16339.437      5351.1526      24.111228      1.2441768    
     58800   308.49233     -17847.891      5353.2211      24.120548      1.243696     
     58900   303.35753     -19445.126      5355.2895      24.129868      1.2432156    
     59000   285.0411      -20369.325      5357.358       24.139188      1.2427356    
     59100   311.37968     -31179.107      5359.4265      24.148509      1.242256     
     59200   290.24068     -14880.891      5361.495       24.157829      1.2417767    
     59300   306.07412     -17534.406      5363.5634      24.167149      1.2412978    
     59400   308.57123     -20200.059      5365.6319      24.176469      1.2408193    
     59500   309.95368     -16865.706      5367.7004      24.185789      1.2403412    
     59600   296.7954      -17693.172      5369.7689      24.195109      1.2398634    
     59700   293.36895     -23814.309      5371.8374      24.20443       1.2393859    
     59800   308.14508     -18415.822      5373.9058      24.21375       1.2389089    
     59900   303.49222     -15585.348      5375.9743      24.22307       1.2384322    
     60000   301.98923     -23259.468      5378.0428      24.23239       1.2379559    
     60100   320.03824     -16995.776      5380.1113      24.24171       1.2374799    
     60200   297.55725     -25169.03       5382.1797      24.25103       1.2370043    
     60300   298.62854     -26305.56       5384.2482      24.26035       1.2365291    
     60400   286.47143     -27318.117      5386.3167      24.269671      1.2360543    
     60500   288.8606      -22346.24       5388.3852      24.278991      1.2355798    
     60600   289.01065     -11879.162      5390.4537      24.288311      1.2351056    
     60700   289.45786     -16338.129      5392.5221      24.297631      1.2346319    
     60800   283.64388     -20971.758      5394.5906      24.306951      1.2341585    
     60900   291.08874     -32716.268      5396.6591      24.316271      1.2336854    
     61000   306.41051     -16059.403      5398.7276      24.325592      1.2332128    
     61100   309.46354     -27029.242      5400.796       24.334912      1.2327404    
     61200   296.60453     -14677.522      5402.8645      24.344232      1.2322685    
     61300   296.46832     -25237.98       5404.933       24.353552      1.2317969    
     61400   278.69044     -22148.018      5407.0015      24.362872      1.2313257    
     61500   310.73058     -27159.398      5409.07        24.372192      1.2308548    
     61600   300.93226     -31235.74       5411.1384      24.381512      1.2303843    
     61700   289.31063     -30543.256      5413.2069      24.390833      1.2299141    
     61800   308.94812     -24779.775      5415.2754      24.400153      1.2294443    
     61900   290.71929     -22294.21       5417.3439      24.409473      1.2289749    
     62000   305.40379     -29077.385      5419.4123      24.418793      1.2285058    
     62100   316.30391     -23619.124      5421.4808      24.428113      1.2280371    
     62200   291.05022     -21919.643      5423.5493      24.437433      1.2275688    
     62300   295.94629     -15450.536      5425.6178      24.446753      1.2271008    
     62400   307.74236     -19637.265      5427.6863      24.456074      1.2266331    
     62500   295.60614     -19215.738      5429.7547      24.465394      1.2261658    
     62600   287.88881     -23232.045      5431.8232      24.474714      1.2256989    
     62700   315.33332     -29112.429      5433.8917      24.484034      1.2252323    
     62800   307.80085     -19251.795      5435.9602      24.493354      1.2247661    
     62900   322.11388     -29324.696      5438.0286      24.502674      1.2243002    
     63000   289.11044     -17479.897      5440.0971      24.511995      1.2238347    
     63100   285.73696     -21646.752      5442.1656      24.521315      1.2233696    
     63200   284.8155      -28827.889      5444.2341      24.530635      1.2229047    
     63300   298.04546     -21421.355      5446.3026      24.539955      1.2224403    
     63400   319.25369     -17315.367      5448.371       24.549275      1.2219762    
     63500   317.8447      -12276.579      5450.4395      24.558595      1.2215124    
     63600   280.46798     -14455.711      5452.508       24.567915      1.221049     
     63700   290.85136     -18949.996      5454.5765      24.577236      1.220586     
     63800   302.54494     -22735.921      5456.645       24.586556      1.2201233    
     63900   284.81069     -29657.554      5458.7134      24.595876      1.219661     
     64000   292.32463     -7720.5315      5460.7819      24.605196      1.219199     
     64100   317.62151     -22019.672      5462.8504      24.614516      1.2187373    
     64200   307.59819     -24137.068      5464.9189      24.623836      1.218276     
     64300   299.2319      -26808.298      5466.9873      24.633156      1.2178151    
     64400   309.46286     -25378.941      5469.0558      24.642477      1.2173545    
     64500   311.52131     -29884.77       5471.1243      24.651797      1.2168942    
     64600   290.38893     -24788.325      5473.1928      24.661117      1.2164343    
     64700   306.02109     -17212.023      5475.2613      24.670437      1.2159748    
     64800   303.94695     -38138.037      5477.3297      24.679757      1.2155156    
     64900   327.14396     -25012.008      5479.3982      24.689077      1.2150567    
     65000   285.13663     -25459.485      5481.4667      24.698397      1.2145982    
     65100   285.66814     -26510.166      5483.5352      24.707718      1.2141401    
     65200   296.71792     -26629.675      5485.6036      24.717038      1.2136822    
     65300   300.40076     -29896.534      5487.6721      24.726358      1.2132248    
     65400   291.62795     -26226.132      5489.7406      24.735678      1.2127676    
     65500   293.40863     -27127.051      5491.8091      24.744998      1.2123108    
     65600   293.78366     -31061.292      5493.8776      24.754318      1.2118544    
     65700   302.30459     -28093.839      5495.946       24.763639      1.2113983    
     65800   314.51832     -11082.989      5498.0145      24.772959      1.2109425    
     65900   297.9505      -23308.897      5500.083       24.782279      1.2104871    
     66000   282.40541     -26914.295      5502.1515      24.791599      1.2100321    
     66100   287.72498     -27954.695      5504.2199      24.800919      1.2095773    
     66200   322.02833     -26711.704      5506.2884      24.810239      1.2091229    
     66300   316.1397      -30503.041      5508.3569      24.819559      1.2086689    
     66400   295.02642     -17064.41       5510.4254      24.82888       1.2082152    
     66500   269.167       -15814.386      5512.4939      24.8382        1.2077618    
     66600   300.55116     -28150.228      5514.5623      24.84752       1.2073088    
     66700   294.42266     -30377.883      5516.6308      24.85684       1.2068561    
     66800   295.05854     -29546.08       5518.6993      24.86616       1.2064038    
     66900   295.82579     -32528.499      5520.7678      24.87548       1.2059518    
     67000   293.49883     -17686.747      5522.8362      24.884801      1.2055001    
     67100   300.14746     -22592.963      5524.9047      24.894121      1.2050488    
     67200   307.05145     -25257.657      5526.9732      24.903441      1.2045978    
     67300   294.31981     -26125.765      5529.0417      24.912761      1.2041471    
     67400   306.49941     -28465.432      5531.1102      24.922081      1.2036968    
     67500   305.62227     -27439.073      5533.1786      24.931401      1.2032468    
     67600   327.06866     -34594.121      5535.2471      24.940721      1.2027972    
     67700   303.1216      -27355.228      5537.3156      24.950042      1.2023479    
     67800   294.59228     -35080.577      5539.3841      24.959362      1.2018989    
     67900   302.32315     -23414.789      5541.4525      24.968682      1.2014503    
     68000   306.00072     -29836.524      5543.521       24.978002      1.201002     
     68100   301.87655     -16214.919      5545.5895      24.987322      1.200554     
     68200   319.62967     -26419.687      5547.658       24.996642      1.2001064    
     68300   295.10724     -27924.607      5549.7265      25.005962      1.1996591    
     68400   291.04916     -27043.573      5551.7949      25.015283      1.1992121    
     68500   302.66334     -19734.709      5553.8634      25.024603      1.1987655    
     68600   306.90284     -21805.959      5555.9319      25.033923      1.1983192    
     68700   291.76446     -33510.503      5558.0004      25.043243      1.1978732    
     68800   279.1195      -31544.429      5560.0689      25.052563      1.1974276    
     68900   306.64041     -27675.276      5562.1373      25.061883      1.1969823    
     69000   309.06754     -25928.524      5564.2058      25.071203      1.1965373    
     69100   310.3915      -27323.027      5566.2743      25.080524      1.1960926    
     69200   319.51865     -18095.927      5568.3428      25.089844      1.1956483    
     69300   302.50233     -18960.846      5570.4112      25.099164      1.1952043    
     69400   304.60249     -29820.817      5572.4797      25.108484      1.1947607    
     69500   282.16968     -18379.794      5574.5482      25.117804      1.1943174    
     69600   313.80563     -18574.451      5576.6167      25.127124      1.1938744    
     69700   317.07919     -23219.419      5578.6852      25.136445      1.1934317    
     69800   299.5634      -21551.246      5580.7536      25.145765      1.1929894    
     69900   290.84757     -12145.214      5582.8221      25.155085      1.1925473    
     70000   296.59925     -11805.701      5584.8906      25.164405      1.1921057    
     70100   282.43363     -11257.239      5586.9591      25.173725      1.1916643    
     70200   303.82948     -17509.568      5589.0275      25.183045      1.1912233    
     70300   310.62954     -13307.305      5591.096       25.192365      1.1907826    
     70400   298.21017     -32664.354      5593.1645      25.201686      1.1903422    
     70500   296.06132     -21383.1        5595.233       25.211006      1.1899021    
     70600   293.17096     -17990.319      5597.3015      25.220326      1.1894624    
     70700   294.13625     -14152.395      5599.3699      25.229646      1.189023     
     70800   304.51441     -22911.421      5601.4384      25.238966      1.1885839    
     70900   304.02353     -27983.218      5603.5069      25.248286      1.1881452    
     71000   316.37076     -17454.909      5605.5754      25.257607      1.1877067    
     71100   293.57819     -15951.74       5607.6438      25.266927      1.1872686    
     71200   299.83935     -17099.74       5609.7123      25.276247      1.1868309    
     71300   276.06598     -25806.892      5611.7808      25.285567      1.1863934    
     71400   308.93998     -17374.6        5613.8493      25.294887      1.1859563    
     71500   316.8792      -15805.525      5615.9178      25.304207      1.1855194    
     71600   302.91225     -22490.662      5617.9862      25.313527      1.1850829    
     71700   296.93617     -25950.835      5620.0547      25.322848      1.1846468    
     71800   289.40099     -21239.585      5622.1232      25.332168      1.1842109    
     71900   327.62452     -14401.363      5624.1917      25.341488      1.1837754    
     72000   325.6655      -23178.651      5626.2601      25.350808      1.1833402    
     72100   307.03567     -10468.887      5628.3286      25.360128      1.1829053    
     72200   314.17392     -10451.991      5630.3971      25.369448      1.1824707    
     72300   278.49429     -15323.497      5632.4656      25.378768      1.1820365    
     72400   282.73341     -25284.051      5634.5341      25.388089      1.1816025    
     72500   312.03328     -20804.542      5636.6025      25.397409      1.1811689    
     72600   315.28452     -20096.49       5638.671       25.406729      1.1807356    
     72700   300.85752     -27459.324      5640.7395      25.416049      1.1803026    
     72800   309.20159     -22010.02       5642.808       25.425369      1.17987      
     72900   309.25159     -22753.797      5644.8764      25.434689      1.1794376    
     73000   287.06901     -26853.754      5646.9449      25.444009      1.1790056    
     73100   286.16266     -18302.375      5649.0134      25.45333       1.1785739    
     73200   276.30893     -25405.431      5651.0819      25.46265       1.1781425    
     73300   292.55402     -24675.497      5653.1504      25.47197       1.1777114    
     73400   289.46618     -22418.193      5655.2188      25.48129       1.1772806    
     73500   313.51764     -20851.152      5657.2873      25.49061       1.1768502    
     73600   297.81974     -17404.841      5659.3558      25.49993       1.1764201    
     73700   269.79524     -21671.674      5661.4243      25.509251      1.1759902    
     73800   281.33955     -23614.855      5663.4928      25.518571      1.1755607    
     73900   309.27186     -27077.398      5665.5612      25.527891      1.1751315    
     74000   308.26662     -20654.13       5667.6297      25.537211      1.1747027    
     74100   294.52542     -25042.78       5669.6982      25.546531      1.1742741    
     74200   295.28671     -17843.165      5671.7667      25.555851      1.1738458    
     74300   289.30919     -8181.16        5673.8351      25.565171      1.1734179    
     74400   319.70012     -22731.231      5675.9036      25.574492      1.1729903    
     74500   324.10709     -25768.673      5677.9721      25.583812      1.1725629    
     74600   306.74628     -23024.053      5680.0406      25.593132      1.1721359    
     74700   303.03227     -25096.343      5682.1091      25.602452      1.1717092    
     74800   293.59747     -20962.006      5684.1775      25.611772      1.1712829    
     74900   299.49104     -27243.558      5686.246       25.621092      1.1708568    
     75000   313.1806      -20700.437      5688.3145      25.630412      1.170431     
     75100   325.44314     -27260.64       5690.383       25.639733      1.1700056    
     75200   302.01205     -17099.252      5692.4514      25.649053      1.1695804    
     75300   293.09471     -23393.209      5694.5199      25.658373      1.1691556    
     75400   316.33311     -20389.877      5696.5884      25.667693      1.168731     
     75500   286.11673     -14539.915      5698.6569      25.677013      1.1683068    
     75600   299.58953     -20515.195      5700.7254      25.686333      1.1678829    
     75700   303.36644     -25368.578      5702.7938      25.695654      1.1674593    
     75800   299.5428      -33525.465      5704.8623      25.704974      1.167036     
     75900   298.87996     -16625.387      5706.9308      25.714294      1.166613     
     76000   281.63486     -15762.704      5708.9993      25.723614      1.1661903    
     76100   313.24448     -22167.064      5711.0677      25.732934      1.1657679    
     76200   297.53414     -31907.958      5713.1362      25.742254      1.1653459    
     76300   323.69555     -30589.469      5715.2047      25.751574      1.1649241    
     76400   320.45132     -23843.948      5717.2732      25.760895      1.1645026    
     76500   299.30824     -24756.39       5719.3417      25.770215      1.1640815    
     76600   293.87796     -27668.263      5721.4101      25.779535      1.1636606    
     76700   307.57705     -26764.605      5723.4786      25.788855      1.1632401    
     76800   320.45726     -20637.293      5725.5471      25.798175      1.1628198    
     76900   302.91746     -23640.113      5727.6156      25.807495      1.1623999    
     77000   295.5936      -24001.174      5729.684       25.816816      1.1619802    
     77100   276.65707     -32874.08       5731.7525      25.826136      1.1615609    
     77200   304.67417     -25069.858      5733.821       25.835456      1.1611419    
     77300   319.77513     -23031.098      5735.8895      25.844776      1.1607231    
     77400   306.14653     -18027.998      5737.958       25.854096      1.1603047    
     77500   288.28269     -23600.877      5740.0264      25.863416      1.1598866    
     77600   308.51849     -17624.751      5742.0949      25.872736      1.1594688    
     77700   287.67444     -12653.128      5744.1634      25.882057      1.1590512    
     77800   302.99751     -33668.126      5746.2319      25.891377      1.158634     
     77900   305.84516     -28561.014      5748.3003      25.900697      1.1582171    
     78000   293.35032     -27400.606      5750.3688      25.910017      1.1578005    
     78100   308.77176     -14930.988      5752.4373      25.919337      1.1573841    
     78200   292.79005     -30958.066      5754.5058      25.928657      1.1569681    
     78300   293.57003     -31740.255      5756.5743      25.937977      1.1565524    
     78400   279.59629     -22785.74       5758.6427      25.947298      1.156137     
     78500   297.61361     -23834.77       5760.7112      25.956618      1.1557218    
     78600   330.04443     -21443.312      5762.7797      25.965938      1.155307     
     78700   276.64091     -19806.713      5764.8482      25.975258      1.1548925    
     78800   322.16117     -19778.702      5766.9167      25.984578      1.1544782    
     78900   310.75772     -25234.381      5768.9851      25.993898      1.1540643    
     79000   307.39616     -19405.668      5771.0536      26.003219      1.1536506    
     79100   294.43165     -21837.91       5773.1221      26.012539      1.1532373    
     79200   300.76461     -24881.751      5775.1906      26.021859      1.1528242    
     79300   284.48632     -27934.934      5777.259       26.031179      1.1524115    
     79400   298.02348     -21651.388      5779.3275      26.040499      1.151999     
     79500   326.15932     -26334.924      5781.396       26.049819      1.1515869    
     79600   289.19985     -20586.594      5783.4645      26.059139      1.151175     
     79700   303.9424      -26964.725      5785.533       26.06846       1.1507634    
     79800   289.3156      -24944.292      5787.6014      26.07778       1.1503521    
     79900   291.61305     -28654.173      5789.6699      26.0871        1.1499412    
     80000   295.31864     -27430.496      5791.7384      26.09642       1.1495305    
     80100   282.40286     -18010.406      5793.8069      26.10574       1.1491201    
     80200   300.45601     -21261.124      5795.8753      26.11506       1.14871      
     80300   299.99886     -28005.424      5797.9438      26.12438       1.1483001    
     80400   305.16391     -33655.665      5800.0123      26.133701      1.1478906    
     80500   333.61744     -28481.665      5802.0808      26.143021      1.1474814    
     80600   323.72573     -26419.906      5804.1493      26.152341      1.1470724    
     80700   291.19377     -32444.538      5806.2177      26.161661      1.1466638    
     80800   291.63806     -26032.66       5808.2862      26.170981      1.1462554    
     80900   294.81157     -27411.41       5810.3547      26.180301      1.1458474    
     81000   305.14259     -22906.244      5812.4232      26.189622      1.1454396    
     81100   310.5848      -23452.612      5814.4916      26.198942      1.1450321    
     81200   291.83293     -23188.978      5816.5601      26.208262      1.1446249    
     81300   290.61314     -15578.278      5818.6286      26.217582      1.144218     
     81400   313.72402     -28431.786      5820.6971      26.226902      1.1438114    
     81500   295.46993     -19230.27       5822.7656      26.236222      1.1434051    
     81600   293.69339     -28787.171      5824.834       26.245542      1.142999     
     81700   296.44912     -24126.093      5826.9025      26.254863      1.1425933    
     81800   278.14749     -31162.8        5828.971       26.264183      1.1421878    
     81900   288.25953     -34876.72       5831.0395      26.273503      1.1417826    
     82000   307.6043      -26077.389      5833.1079      26.282823      1.1413778    
     82100   327.64528     -25240.191      5835.1764      26.292143      1.1409732    
     82200   321.96436     -21919.323      5837.2449      26.301463      1.1405688    
     82300   337.40269     -23609.454      5839.3134      26.310783      1.1401648    
     82400   323.567       -18903.495      5841.3819      26.320104      1.1397611    
     82500   304.97582     -10772.838      5843.4503      26.329424      1.1393576    
     82600   292.36021     -15305.482      5845.5188      26.338744      1.1389545    
     82700   296.71188     -17197.927      5847.5873      26.348064      1.1385516    
     82800   297.28326     -14560.652      5849.6558      26.357384      1.138149     
     82900   308.33256     -19380.24       5851.7242      26.366704      1.1377467    
     83000   299.68647     -23768.683      5853.7927      26.376024      1.1373446    
     83100   306.54787     -14060.565      5855.8612      26.385345      1.1369429    
     83200   301.07292     -16845.204      5857.9297      26.394665      1.1365414    
     83300   299.61278     -19854.551      5859.9982      26.403985      1.1361402    
     83400   300.76698     -21262.503      5862.0666      26.413305      1.1357393    
     83500   312.79528     -19051.625      5864.1351      26.422625      1.1353387    
     83600   300.67377     -11601.294      5866.2036      26.431945      1.1349384    
     83700   305.97763     -6550.9372      5868.2721      26.441266      1.1345383    
     83800   300.08365     -22099.011      5870.3406      26.450586      1.1341386    
     83900   304.38099     -10480.37       5872.409       26.459906      1.1337391    
     84000   291.0344      -9222.8637      5874.4775      26.469226      1.1333399    
     84100   303.46894     -19595.354      5876.546       26.478546      1.132941     
     84200   307.9318      -23288.436      5878.6145      26.487866      1.1325423    
     84300   294.41471     -18012.003      5880.6829      26.497186      1.132144     
     84400   277.80167     -14016.898      5882.7514      26.506507      1.1317459    
     84500   336.55562     -15823.796      5884.8199      26.515827      1.1313481    
     84600   319.49253     -19574.038      5886.8884      26.525147      1.1309506    
     84700   309.39017     -20144.657      5888.9569      26.534467      1.1305533    
     84800   299.74366     -10938.92       5891.0253      26.543787      1.1301564    
     84900   282.61436     -16663.435      5893.0938      26.553107      1.1297597    
     85000   310.70453     -15589.259      5895.1623      26.562428      1.1293633    
     85100   308.80324     -20003.437      5897.2308      26.571748      1.1289671    
     85200   315.19581     -14787.433      5899.2992      26.581068      1.1285713    
     85300   319.08925     -20153.499      5901.3677      26.590388      1.1281757    
     85400   311.27918     -27870.637      5903.4362      26.599708      1.1277804    
     85500   310.96612     -7663.4524      5905.5047      26.609028      1.1273854    
     85600   292.78484     -13534.934      5907.5732      26.618348      1.1269906    
     85700   285.0996      -19951.379      5909.6416      26.627669      1.1265962    
     85800   297.28907     -8063.585       5911.7101      26.636989      1.126202     
     85900   321.86312     -16357.259      5913.7786      26.646309      1.1258081    
     86000   312.11238     -16113.569      5915.8471      26.655629      1.1254144    
     86100   279.11651     -25576.859      5917.9155      26.664949      1.1250211    
     86200   297.15632     -26715.381      5919.984       26.674269      1.124628     
     86300   309.95981     -9763.2125      5922.0525      26.683589      1.1242352    
     86400   292.26296     -11871.246      5924.121       26.69291       1.1238426    
     86500   285.03411     -15068.962      5926.1895      26.70223       1.1234504    
     86600   284.89336     -16695.66       5928.2579      26.71155       1.1230584    
     86700   309.41557     -20386.828      5930.3264      26.72087       1.1226667    
     86800   325.74656     -28758.574      5932.3949      26.73019       1.1222752    
[...]
     98600   305.81121     -23295.659      6176.4753      27.829968      1.0779254    
     98700   308.18383     -20698.211      6178.5438      27.839288      1.0775645    
     98800   319.75739     -24523.501      6180.6123      27.848608      1.0772039    
     98900   308.33962     -13438.453      6182.6807      27.857928      1.0768435    
     99000   286.79036     -18770.259      6184.7492      27.867249      1.0764834    
     99100   305.85035     -17744.917      6186.8177      27.876569      1.0761235    
     99200   292.24802     -20378.442      6188.8862      27.885889      1.0757638    
     99300   277.76651     -24889.161      6190.9546      27.895209      1.0754044    
     99400   285.63715     -26688.291      6193.0231      27.904529      1.0750452    
     99500   317.88875     -22591.513      6195.0916      27.913849      1.0746862    
     99600   311.76683     -14356.414      6197.1601      27.923169      1.0743275    
     99700   289.90124     -16770.472      6199.2286      27.93249       1.0739691    
     99800   287.16279     -22632.925      6201.297       27.94181       1.0736108    
     99900   290.57801     -18134.69       6203.3655      27.95113       1.0732528    
    100000   310.99462     -19960.903      6205.434       27.96045       1.0728951    
    100100   305.82627     -19576.293      6207.5025      27.96977       1.0725376    
    100200   305.10816     -28400.909      6209.5709      27.97909       1.0721803    
    100300   315.40254     -19806.614      6211.6394      27.98841       1.0718233    
    100400   313.76763     -22006.404      6213.7079      27.997731      1.0714665    
    100500   291.47401     -16245.258      6215.7764      28.007051      1.0711099    
    100600   287.56482     -22314.066      6217.8449      28.016371      1.0707536    
    100700   299.67144     -22277.75       6219.9133      28.025691      1.0703975    
    100800   326.04101     -32310.04       6221.9818      28.035011      1.0700417    
    100900   316.83368     -13666.101      6224.0503      28.044331      1.069686     
    101000   295.74795     -25404.216      6226.1188      28.053652      1.0693307    
    101100   290.64279     -22877.515      6228.1872      28.062972      1.0689755    
    101200   298.36743     -21917.257      6230.2557      28.072292      1.0686206    
    101300   308.36057     -21426.125      6232.3242      28.081612      1.0682659    
    101400   297.89236     -21650.216      6234.3927      28.090932      1.0679115    
    101500   319.02831     -21090.807      6236.4612      28.100252      1.0675573    
    101600   320.61918     -27228.147      6238.5296      28.109572      1.0672033    
    101700   310.60818     -21862.448      6240.5981      28.118893      1.0668496    
    101800   299.8588      -20691.364      6242.6666      28.128213      1.0664961    
    101900   289.10953     -21850.975      6244.7351      28.137533      1.0661429    
    102000   315.6482      -23950.47       6246.8035      28.146853      1.0657898    
    102100   318.22695     -18087.901      6248.872       28.156173      1.065437     
    102200   320.10502     -31113.654      6250.9405      28.165493      1.0650845    
    102300   316.77315     -28065.081      6253.009       28.174813      1.0647321    
    102400   280.49531     -22669.307      6255.0775      28.184134      1.0643801    
    102500   295.84487     -24548.068      6257.1459      28.193454      1.0640282    
    102600   304.5757      -19895.567      6259.2144      28.202774      1.0636766    
    102700   296.0821      -16620.855      6261.2829      28.212094      1.0633252    
    102800   286.0918      -25742.991      6263.3514      28.221414      1.062974     
    102900   294.8592      -30829.486      6265.4198      28.230734      1.0626231    
    103000   292.28358     -18356.045      6267.4883      28.240054      1.0622724    
    103100   313.08369     -17340.346      6269.5568      28.249375      1.0619219    
    103200   316.07208     -20290.176      6271.6253      28.258695      1.0615717    
    103300   280.45553     -29314.519      6273.6938      28.268015      1.0612217    
    103400   300.68118     -15773.861      6275.7622      28.277335      1.0608719    
    103500   297.97558     -12200.114      6277.8307      28.286655      1.0605223    
    103600   301.06967     -25646.314      6279.8992      28.295975      1.060173     
    103700   323.70448     -32912.411      6281.9677      28.305296      1.0598239    
    103800   327.10095     -11310.809      6284.0361      28.314616      1.0594751    
    103900   315.67919     -13715.328      6286.1046      28.323936      1.0591265    
    104000   302.8476      -27231.845      6288.1731      28.333256      1.0587781    
    104100   289.81156     -26264.562      6290.2416      28.342576      1.0584299    
    104200   298.05108     -19388.731      6292.3101      28.351896      1.0580819    
    104300   309.45818     -27439.787      6294.3785      28.361216      1.0577342    
    104400   324.95349     -24141.381      6296.447       28.370537      1.0573868    
    104500   331.16013     -19367.277      6298.5155      28.379857      1.0570395    
    104600   317.34502     -24470.344      6300.584       28.389177      1.0566925    
    104700   303.53075     -24334.225      6302.6525      28.398497      1.0563457    
    104800   310.53829     -21513.507      6304.7209      28.407817      1.0559991    
    104900   297.5314      -23620.945      6306.7894      28.417137      1.0556528    
    105000   277.75717     -22592.269      6308.8579      28.426458      1.0553067    
    105100   306.94381     -23338.068      6310.9264      28.435778      1.0549608    
    105200   290.98869     -17880.797      6312.9948      28.445098      1.0546151    
    105300   319.03082     -28817.836      6315.0633      28.454418      1.0542697    
    105400   297.66281     -30359.302      6317.1318      28.463738      1.0539245    
    105500   308.62723     -30550.974      6319.2003      28.473058      1.0535795    
    105600   283.10524     -22315.929      6321.2688      28.482378      1.0532347    
    105700   288.28139     -19331.763      6323.3372      28.491699      1.0528902    
    105800   315.17864     -21913.02       6325.4057      28.501019      1.0525459    
    105900   299.52797     -22153.125      6327.4742      28.510339      1.0522018    
    106000   299.39463     -18340.019      6329.5427      28.519659      1.0518579    
    106100   290.28463     -25052.175      6331.6111      28.528979      1.0515143    
    106200   280.4692      -28124.105      6333.6796      28.538299      1.0511709    
    106300   320.64418     -22542.996      6335.7481      28.547619      1.0508277    
    106400   300.28652     -22447.444      6337.8166      28.55694       1.0504848    
    106500   309.43334     -23694.132      6339.8851      28.56626       1.050142     
    106600   298.9335      -22401.323      6341.9535      28.57558       1.0497995    
    106700   301.72113     -25109.797      6344.022       28.5849        1.0494572    
    106800   286.65385     -23318.608      6346.0905      28.59422       1.0491152    
    106900   290.00368     -19867.208      6348.159       28.60354       1.0487733    
    107000   290.70463     -28197.51       6350.2274      28.612861      1.0484317    
    107100   298.20173     -12265.723      6352.2959      28.622181      1.0480903    
    107200   293.65863     -18999.421      6354.3644      28.631501      1.0477491    
    107300   303.83261     -22587.052      6356.4329      28.640821      1.0474082    
    107400   294.29124     -25778.234      6358.5014      28.650141      1.0470674    
    107500   305.64708     -18062.068      6360.5698      28.659461      1.0467269    
    107600   317.83408     -17291.698      6362.6383      28.668781      1.0463866    
    107700   275.20847     -25288.14       6364.7068      28.678102      1.0460466    
    107800   293.40881     -22211.047      6366.7753      28.687422      1.0457067    
    107900   298.13088     -12462.243      6368.8437      28.696742      1.0453671    
    108000   311.29403     -18089.79       6370.9122      28.706062      1.0450277    
    108100   297.52647     -22231.196      6372.9807      28.715382      1.0446885    
    108200   290.07296     -17536.792      6375.0492      28.724702      1.0443495    
    108300   296.92749     -26125.365      6377.1177      28.734022      1.0440108    
    108400   296.08806     -25157.614      6379.1861      28.743343      1.0436723    
    108500   296.81652     -28480.293      6381.2546      28.752663      1.043334     
    108600   310.65769     -32278.045      6383.3231      28.761983      1.0429959    
    108700   309.10774     -25018.178      6385.3916      28.771303      1.042658     
    108800   298.95622     -26695.18       6387.46        28.780623      1.0423204    
    108900   313.7558      -26573.456      6389.5285      28.789943      1.0419829    
    109000   300.44664     -20626.779      6391.597       28.799264      1.0416457    
    109100   309.61956     -28083.845      6393.6655      28.808584      1.0413087    
    109200   294.22042     -26564.536      6395.734       28.817904      1.040972     
    109300   302.51898     -27749.832      6397.8024      28.827224      1.0406354    
    109400   312.79819     -33210.45       6399.8709      28.836544      1.0402991    
    109500   293.49724     -27501.103      6401.9394      28.845864      1.0399629    
    109600   297.35096     -24116.824      6404.0079      28.855184      1.039627     
    109700   303.61229     -29387.762      6406.0764      28.864505      1.0392913    
    109800   288.06585     -24681.699      6408.1448      28.873825      1.0389559    
    109900   302.03643     -19834.573      6410.2133      28.883145      1.0386206    
    110000   316.61595     -17150.071      6412.2818      28.892465      1.0382856    
    110100   326.26064     -28866.188      6414.3503      28.901785      1.0379508    
    110200   300.84814     -29426.307      6416.4187      28.911105      1.0376161    
    110300   293.84117     -13046.352      6418.4872      28.920425      1.0372818    
    110400   309.16723     -30153.072      6420.5557      28.929746      1.0369476    
    110500   294.27425     -30658.321      6422.6242      28.939066      1.0366136    
    110600   284.43916     -26837.134      6424.6927      28.948386      1.0362799    
    110700   287.24531     -22058.326      6426.7611      28.957706      1.0359463    
    110800   304.82857     -26505.104      6428.8296      28.967026      1.035613     
    110900   309.25165     -19868.005      6430.8981      28.976346      1.0352799    
    111000   293.46344     -21433.294      6432.9666      28.985667      1.034947     
    111100   262.30444     -19935.777      6435.035       28.994987      1.0346144    
    111200   302.57681     -28917.331      6437.1035      29.004307      1.0342819    
    111300   321.63657     -22481.539      6439.172       29.013627      1.0339497    
    111400   316.12478     -19223.127      6441.2405      29.022947      1.0336176    
    111500   316.44835     -26008.126      6443.309       29.032267      1.0332858    
    111600   304.76461     -27684.536      6445.3774      29.041587      1.0329542    
    111700   277.06615     -24577.254      6447.4459      29.050908      1.0326228    
    111800   295.41071     -27505.407      6449.5144      29.060228      1.0322916    
    111900   297.68336     -34349.497      6451.5829      29.069548      1.0319607    
    112000   303.68671     -30543.318      6453.6513      29.078868      1.0316299    
    112100   298.25895     -28534.176      6455.7198      29.088188      1.0312994    
    112200   284.43864     -24821.064      6457.7883      29.097508      1.030969     
    112300   277.72836     -20250.492      6459.8568      29.106828      1.0306389    
    112400   282.65536     -25176.253      6461.9253      29.116149      1.030309     
    112500   303.3313      -34260.884      6463.9937      29.125469      1.0299793    
    112600   320.68449     -34623.804      6466.0622      29.134789      1.0296498    
    112700   295.45875     -28211.643      6468.1307      29.144109      1.0293205    
    112800   301.78199     -19479.174      6470.1992      29.153429      1.0289915    
    112900   271.50756     -24797.441      6472.2676      29.162749      1.0286626    
    113000   270.62893     -27350.103      6474.3361      29.172069      1.028334     
    113100   306.44971     -36157.414      6476.4046      29.18139       1.0280055    
    113200   285.24677     -21626.241      6478.4731      29.19071       1.0276773    
    113300   296.19007     -26656.579      6480.5416      29.20003       1.0273493    
    113400   291.74486     -22869.462      6482.61        29.20935       1.0270215    
    113500   293.34466     -28331.736      6484.6785      29.21867       1.0266939    
    113600   303.93182     -27396.636      6486.747       29.22799       1.0263665    
    113700   307.13328     -24629.022      6488.8155      29.237311      1.0260393    
    113800   304.33017     -26021.445      6490.8839      29.246631      1.0257123    
    113900   288.19831     -28339.489      6492.9524      29.255951      1.0253856    
    114000   299.55862     -21581.009      6495.0209      29.265271      1.025059     
    114100   294.66823     -15157.349      6497.0894      29.274591      1.0247327    
    114200   308.91022     -20954.92       6499.1579      29.283911      1.0244065    
    114300   301.65875     -22834.535      6501.2263      29.293231      1.0240806    
    114400   294.58518     -29808.714      6503.2948      29.302552      1.0237549    
    114500   313.13746     -24056.025      6505.3633      29.311872      1.0234293    
    114600   290.02059     -23635.98       6507.4318      29.321192      1.023104     
    114700   310.08743     -25448.001      6509.5003      29.330512      1.0227789    
    114800   327.55971     -33832.919      6511.5687      29.339832      1.022454     
    114900   306.07009     -24831.828      6513.6372      29.349152      1.0221293    
    115000   292.74714     -16804.342      6515.7057      29.358473      1.0218049    
    115100   284.87354     -26041.184      6517.7742      29.367793      1.0214806    
    115200   299.89537     -29039.339      6519.8426      29.377113      1.0211565    
    115300   299.90021     -30871.062      6521.9111      29.386433      1.0208326    
    115400   315.77923     -24409.714      6523.9796      29.395753      1.020509     
    115500   290.44694     -19452.579      6526.0481      29.405073      1.0201855    
    115600   300.44421     -27933.309      6528.1166      29.414393      1.0198623    
    115700   301.58058     -25791.933      6530.185       29.423714      1.0195392    
    115800   310.25406     -25243.435      6532.2535      29.433034      1.0192164    
    115900   332.32322     -28821.162      6534.322       29.442354      1.0188937    
    116000   314.13328     -31660.763      6536.3905      29.451674      1.0185713    
    116100   293.82076     -30794.552      6538.4589      29.460994      1.0182491    
    116200   303.47779     -24704.048      6540.5274      29.470314      1.017927     
    116300   299.01892     -24440.971      6542.5959      29.479634      1.0176052    
    116400   291.4023      -24434.564      6544.6644      29.488955      1.0172836    
    116500   289.90635     -28350.562      6546.7329      29.498275      1.0169622    
    116600   322.4523      -29112.083      6548.8013      29.507595      1.016641     
    116700   300.48895     -18867.036      6550.8698      29.516915      1.01632      
    116800   291.397       -22722.647      6552.9383      29.526235      1.0159991    
    116900   294.09144     -26536.7        6555.0068      29.535555      1.0156785    
    117000   299.34997     -26470.594      6557.0752      29.544876      1.0153581    
    117100   300.32637     -30431.241      6559.1437      29.554196      1.0150379    
    117200   290.84156     -22515.886      6561.2122      29.563516      1.0147179    
    117300   287.61567     -33321.759      6563.2807      29.572836      1.0143981    
    117400   287.48926     -22706.342      6565.3492      29.582156      1.0140785    
    117500   295.84582     -27401.302      6567.4176      29.591476      1.0137591    
    117600   291.52242     -26183.581      6569.4861      29.600796      1.01344      
    117700   321.57887     -26787.443      6571.5546      29.610117      1.013121     
    117800   291.2507      -25817.042      6573.6231      29.619437      1.0128022    
    117900   285.99843     -28055.874      6575.6915      29.628757      1.0124836    
    118000   269.76632     -27126.65       6577.76        29.638077      1.0121652    
    118100   294.76086     -29292.364      6579.8285      29.647397      1.011847     
    118200   324.63895     -24554.887      6581.897       29.656717      1.011529     
    118300   300.43557     -32298.617      6583.9655      29.666037      1.0112112    
    118400   281.45413     -31215.036      6586.0339      29.675358      1.0108936    
    118500   290.27972     -23806.809      6588.1024      29.684678      1.0105762    
    118600   328.20128     -22438.969      6590.1709      29.693998      1.010259     
    118700   345.41488     -25132.266      6592.2394      29.703318      1.009942     
    118800   317.85146     -34049.297      6594.3078      29.712638      1.0096252    
    118900   289.5631      -28726.68       6596.3763      29.721958      1.0093087    
    119000   287.57045     -30408.145      6598.4448      29.731279      1.0089923    
    119100   296.02308     -25767.224      6600.5133      29.740599      1.0086761    
    119200   327.02878     -22366.288      6602.5818      29.749919      1.0083601    
    119300   313.70436     -23163.526      6604.6502      29.759239      1.0080442    
    119400   307.8018      -29991.181      6606.7187      29.768559      1.0077286    
    119500   300.37993     -30857.753      6608.7872      29.777879      1.0074132    
    119600   308.33591     -26490.478      6610.8557      29.787199      1.007098     
    119700   304.91832     -29902.041      6612.9242      29.79652       1.006783     
    119800   321.14401     -28611.673      6614.9926      29.80584       1.0064682    
    119900   322.19459     -28808.577      6617.0611      29.81516       1.0061536    
    120000   307.11139     -25001.607      6619.1296      29.82448       1.0058392    
Loop time of 4487.38 on 8 procs for 120000 steps with 371 atoms

Performance: 1.155 ns/day, 20.775 hours/ns, 26.742 timesteps/s, 9.921 katom-step/s
98.7% CPU use with 8 MPI tasks x 1 OpenMP threads

MPI task timing breakdown:
Section |  min time  |  avg time  |  max time  |%varavg| %total
---------------------------------------------------------------
Pair    | 3009.4     | 3437.2     | 3711.5     | 438.2 | 76.60
Bond    | 0.31742    | 0.35618    | 0.39758    |   5.1 |  0.01
Neigh   | 223.66     | 238.01     | 247.44     |  49.9 |  5.30
Comm    | 126.61     | 400.4      | 827.97     |1282.0 |  8.92
Output  | 0.62634    | 0.69217    | 0.75712    |   4.7 |  0.02
Modify  | 397.71     | 407.74     | 422.54     |  39.8 |  9.09
Other   |            | 3.009      |            |       |  0.07

Nlocal:         46.375 ave          61 max          31 min
Histogram: 2 0 0 0 1 1 2 0 0 2
Nghost:        2477.12 ave        2617 max        2326 min
Histogram: 1 1 1 1 0 0 0 2 1 1
Neighs:        18126.2 ave       23957 max       11706 min
Histogram: 2 0 0 0 1 2 1 0 0 2

Total # of neighbors = 145010
Ave neighs/atom = 390.86253
Ave special neighs/atom = 0
Neighbor list builds = 12000
Dangerous builds not checked
Total wall time: 1:14:47
