LAMMPS (2 Aug 2023 - Update 2)
OMP_NUM_THREADS environment is not set. Defaulting to 1 thread. (src/comm.cpp:98)
  using 1 OpenMP thread(s) per MPI task
Reading data file ...
  triclinic box = (0 0 0) to (15.4114 12.7411 17.5034) with tilt (-7.2027 -1.8261 0.3384)
WARNING: Triclinic box skew is large. LAMMPS will run inefficiently. (src/domain.cpp:220)
  1 by 1 by 1 MPI processor grid
  reading atoms ...
  310 atoms
Finding 1-2 1-3 1-4 neighbors ...
  special bond factors lj:    0        0        0       
  special bond factors coul:  0        0        0       
     0 = max # of 1-2 neighbors
     0 = max # of 1-3 neighbors
     0 = max # of 1-4 neighbors
     1 = max # of special neighbors
  special bonds CPU = 0.000 seconds
  read_data CPU = 0.013 seconds
*****Minimization starts.*****

CITE-CITE-CITE-CITE-CITE-CITE-CITE-CITE-CITE-CITE-CITE-CITE-CITE

Your simulation uses code contributions which should be cited:
- pair reaxff command: doi:10.1016/j.parco.2011.08.005
- fix qeq/reaxff command: doi:10.1016/j.parco.2011.08.005
The log file lists these citations in BibTeX format.

CITE-CITE-CITE-CITE-CITE-CITE-CITE-CITE-CITE-CITE-CITE-CITE-CITE

Switching to 'neigh_modify every 1 delay 0 check yes' setting during minimization
WARNING: Fix qeq/reaxff group is not charge neutral, net charge = 22.14 (src/REAXFF/fix_qeq_reaxff.cpp:392)
Neighbor list info ...
  update: every = 1 steps, delay = 0 steps, check = yes
  max neighbors/atom: 2000, page size: 100000
  master list distance cutoff = 12
  ghost atom cutoff = 12
  binsize = 6, bins = 5 3 3
  2 neighbor lists, perpetual/occasional/extra = 2 0 0
  (1) pair reaxff, perpetual
      attributes: half, newton off, ghost
      pair build: half/bin/newtoff/ghost
      stencil: full/ghost/bin/3d
      bin: standard
  (2) fix qeq/reaxff, perpetual, copy from (1)
      attributes: half, newton off
      pair build: copy
      stencil: none
      bin: none
Setting up cg style minimization ...
  Unit style    : real
  Current step  : 0
Per MPI rank memory allocation (min/avg/max) = 235.8 | 235.8 | 235.8 Mbytes
   Step          Temp          Press         Density         PotEng         TotEng    
         0   0              116060.1       1.4204665     -32388.564     -32388.564    
        25   0             -109.66113      1.4204665     -33927.68      -33927.68     
Loop time of 27.9984 on 1 procs for 25 steps with 310 atoms

22.0% CPU use with 1 MPI tasks x 1 OpenMP threads

Minimization stats:
  Stopping criterion = energy tolerance
  Energy initial, next-to-last, final = 
       -32388.56430767  -33927.6562774549   -33927.680395363
  Force two-norm initial, final = 2091.6772 144.25906
  Force max component initial, final = 278.81621 49.43244
  Final line search alpha, max atom move = 0.0021989668 0.1087003
  Iterations, force evaluations = 25 63

MPI task timing breakdown:
Section |  min time  |  avg time  |  max time  |%varavg| %total
---------------------------------------------------------------
Pair    | 23.043     | 23.043     | 23.043     |   0.0 | 82.30
Bond    | 3.352e-05  | 3.352e-05  | 3.352e-05  |   0.0 |  0.00
Neigh   | 0          | 0          | 0          |   0.0 |  0.00
Comm    | 0.035823   | 0.035823   | 0.035823   |   0.0 |  0.13
Output  | 0          | 0          | 0          |   0.0 |  0.00
Modify  | 4.9174     | 4.9174     | 4.9174     |   0.0 | 17.56
Other   |            | 0.002187   |            |       |  0.01

Nlocal:            310 ave         310 max         310 min
Histogram: 1 0 0 0 0 0 0 0 0 0
Nghost:           5704 ave        5704 max        5704 min
Histogram: 1 0 0 0 0 0 0 0 0 0
Neighs:         171196 ave      171196 max      171196 min
Histogram: 1 0 0 0 0 0 0 0 0 0

Total # of neighbors = 171196
Ave neighs/atom = 552.24516
Ave special neighs/atom = 0
Neighbor list builds = 0
Dangerous builds not checked
System init for write_data ...
*****Equilibration starts.*****
Setting up Verlet run ...
  Unit style    : real
  Current step  : 0
  Time step     : 0.5
Per MPI rank memory allocation (min/avg/max) = 234.2 | 234.2 | 234.2 Mbytes
   Step          Temp          Press         Density         PotEng         TotEng    
         0   300            3565.1846      1.4204665     -33927.681     -33651.359    
       100   269.15537     -2129.4205      1.417659      -33865.748     -33617.837    
       200   376.58379     -6937.5329      1.4204593     -33954.015     -33607.155    
       300   367.36532     -3888.7526      1.4342053     -34020.743     -33682.374    
       400   350.19069     -4674.0638      1.3968494     -34078.229     -33755.678    
       500   324.00345     -4649.863       1.3843415     -34126.516     -33828.086    
       600   311.7495      -5611.0857      1.3820003     -34173.723     -33886.58     
       700   300.19652      16148.75       1.3827717     -34199.713     -33923.211    
       800   285.81344      1626.7997      1.3885679     -34208.303     -33945.048    
       900   289.60331     -7053.332       1.3869742     -34231.2       -33964.455    
      1000   287.29868     -2531.5478      1.375084      -34245.376     -33980.753    
      1100   277.31933     -5197.2327      1.3743694     -34239.464     -33984.033    
      1200   312.66612      2784.4003      1.3817678     -34256.914     -33968.926    
      1300   310.72953     -3993.5994      1.3797582     -34256.521     -33970.317    
      1400   302.84014     -4768.6371      1.3867241     -34268.329     -33989.392    
      1500   285.77417     -8466.4547      1.4018875     -34265.083     -34001.865    
      1600   290.53656     -2188.3603      1.4076216     -34269.38      -34001.776    
      1700   337.39734     -7753.9714      1.4084976     -34285.344     -33974.578    
      1800   317.31086      1127.6429      1.4205562     -34266.198     -33973.932    
      1900   298.57179     -7928.7693      1.4145961     -34286.492     -34011.487    
      2000   293.27767      249.56994      1.4316614     -34289.695     -34019.565    
      2100   285.02895     -720.87782      1.437777      -34280.59      -34018.058    
      2200   304.48853      571.27746      1.421137      -34285.188     -34004.733    
      2300   313.26956      8005.0886      1.4179009     -34277.518     -33988.974    
      2400   322.67667      4768.2514      1.4014579     -34286.48      -33989.272    
      2500   307.07027     -6988.8822      1.4018903     -34309.337     -34026.503    
      2600   299.11379      9487.0437      1.418572      -34313.161     -34037.656    
      2700   309.93423     -226.82605      1.4210774     -34339.104     -34053.633    
      2800   291.89141      3164.7029      1.421753      -34335.232     -34066.38     
      2900   294.44076     -15489.756      1.4273119     -34345.54      -34074.339    
