LAMMPS data file via write_data, version 2 Aug 2023, timestep = 185000, units = real

371 atoms
4 atom types

0.46861024193557377 16.849989758064417 xlo xhi
0.0923736994422173 12.722526300557739 ylo yhi
-0.033735343839367715 18.67403534383947 zlo zhi
-8.91476896832571 0.17255052613077998 0.5735503962208747 xy xz yz

Masses

1 12.0107
2 1.00794
3 15.9994
4 28.0855

Atoms # full

283 2 3 -0.7711572900308046 -2.5864049646823086 5.655490177806178 8.178438698617573 1 0 0
247 2 3 -0.8241471104726102 -1.0061740504868684 4.884334046983174 5.4067622580859025 0 0 0
7 2 4 1.048756402425356 0.8854963728260544 1.0905677560506215 5.681585934920594 0 0 0
11 2 4 1.484727425427186 -0.9896394059128748 4.517143057483922 3.908313657522051 0 0 0
250 2 3 -0.7604469888088971 1.7304479950288325 2.077118243296248 6.630025113589058 0 0 0
227 2 3 -0.7807778961461499 0.009650795573489135 4.557883002286924 7.591366137311553 0 0 0
244 2 3 -0.797511729743546 0.49530538240210614 4.544244100401896 3.2568786866347064 0 0 0
249 2 3 -0.7876611605307793 3.0531310156422538 4.381761272189355 3.577235648337936 0 0 0
31 2 4 1.290873587462102 1.794484237541266 5.390292088393612 3.918953628247664 0 0 0
262 2 3 -0.8181112673658492 1.6886369452016774 5.9760595174203806 5.8866299425403135 0 0 0
103 2 2 0.2950467351256765 0.7797363608325809 2.656046309816109 6.80257035810029 0 0 0
130 2 2 0.03007609674386862 3.1195389705889642 3.058556458986316 1.5439233013555593 0 0 0
1 1 4 0.7359953990673453 2.8623611828798925 1.973969722197403 2.7727794933831906 0 0 0
351 21 1 -0.6291845099809772 2.2400495140304635 0.8413782050038834 4.214507093878124 1 0 0
363 27 2 0.2087693735056265 3.0982743663697367 0.9740787878226104 4.969472320408397 -1 0 1
138 2 2 0.1561658108545382 4.065186061884694 4.539054400847233 1.3072973521318934 1 1 0
14 2 4 1.171195859010866 0.8125661493666216 5.825684148849027 7.1535269887653685 0 0 0
260 2 3 -0.4633108257338896 -0.6996029836534321 3.2573185668957576 0.8548717788595698 0 0 0
81 2 2 0.1145579619575861 3.4431138132208154 2.4412638538275755 4.32332099291396 0 0 0
226 2 3 -0.7490035187629771 -1.7226442133287954 5.771573371504789 3.2075248204926106 0 0 0
194 2 1 0.2833189037959747 -0.07703833053360087 2.2971880477764812 0.47734993821551797 0 0 0
131 2 2 0.1003929831066327 1.1343003680918842 2.117207012940772 3.217661259062924 0 0 0
202 2 1 -0.6498818679155617 3.2367791641192816 4.812636227295438 0.5866964804772024 0 0 0
121 2 2 0.2174145542645702 1.1883372520454425 3.3833400621989327 8.730759539631405 0 0 0
57 2 4 1.227878144134579 -1.9578627866250202 4.429021958100112 6.89798511865357 1 0 0
33 2 4 0.8245016992408476 3.4407024567083715 4.6296556135335685 8.880365695455072 0 0 0
4 1 3 -0.6359460249054578 3.3071356573985313 0.25979132930696214 2.19023983472654 0 0 0
181 2 2 0.1152579222595796 -1.126782167057599 6.288641854787503 8.539126499958048 0 0 0
104 2 2 0.2267649649960731 1.6568644061540492 1.1299797003960297 8.120926374651997 0 0 0
255 2 3 -0.4617271324548687 0.4095381248242071 1.154054991190543 0.23017683924832505 0 0 0
166 2 2 0.1439739526224341 1.8166925205726756 5.536397590139059 1.363743545694553 0 0 0
78 2 2 0.006753832488383337 3.8651007863343727 3.074720823111287 -0.016858145115858845 0 0 1
97 2 2 0.0002739984052253491 4.719623236549637 5.832462998369686 -0.03211692472286359 0 0 1
114 2 2 0.3186995853138088 7.255310591378866 1.791220530066468 6.6085372153687025 -1 0 0
69 2 2 0.04381717979744698 7.523584361114248 4.591585280150276 0.20462349822250034 -1 -1 0
35 2 4 0.6282736299433354 4.6123746646404875 5.325170791071879 4.121560968004771 0 0 0
79 2 2 0.1444311337794432 7.317848955453074 4.770546449734045 7.273039164318503 0 0 0
246 2 3 -0.4222095069669333 5.050046740958856 2.805926737716984 5.978796152942271 0 0 0
199 2 1 -0.1557993176505345 5.785951467913411 3.637455094500704 6.28950967747749 0 0 0
3 1 2 -0.05919923606576413 5.837883828141835 4.033147725872347 3.8547178505419986 0 0 0
269 2 3 -0.7257272269573224 8.581770465943022 2.8063313626894195 4.4999529749933105 0 0 0
23 2 4 0.8913561980100648 7.061078825483786 2.8319081849216703 3.330209782531376 0 1 0
169 2 2 0.05322215673938355 4.845053062951882 5.236905682530486 5.879751778911114 0 0 0
159 2 2 0.2288905552683051 9.607338158019918 2.5436475176455335 6.891962586421028 0 0 0
313 3 1 -0.6364961275205431 8.267447769874774 3.0879570198926602 1.3750000903386497 0 1 0
106 2 2 -0.0233147642001923 9.050090712606034 5.251319009670815 5.808387496045134 -1 0 0
170 2 2 0.142514730380059 8.16046719058982 5.564410551444739 8.722681207115816 0 0 0
47 2 4 1.02357283291949 9.611454653227364 3.538895320712386 5.226993848669151 0 0 0
288 2 3 -0.7280002096072956 8.038133339868882 1.1903991150552782 6.700243255362884 0 0 0
310 3 2 0.06775554990885481 7.2177789551842455 3.852607679640129 1.729682999109231 0 1 0
135 2 2 0.1109432806186506 8.19884487617659 1.6081385804285235 1.2737752576787469 0 0 0
211 2 1 -0.7024580842103043 8.361548996933141 5.158736980048142 7.659812827474041 0 0 0
88 2 2 0.1895527324884801 9.256488390041945 4.709722584657811 7.36976380114682 0 1 0
110 2 2 0.08090563420128287 9.668981089112274 6.378902117493557 8.692680259614493 -1 -1 0
134 2 2 -0.00577947678377437 6.35726048087607 3.4209890341506757 8.159789528732713 0 0 0
214 2 1 -0.1696631302801952 10.173468007781137 4.852028915395944 3.5169167024237367 0 0 0
360 25 2 0.136710168990887 9.458885807173631 3.47799229452166 1.6580365973338749 -1 0 0
280 2 3 -0.4258926081720955 9.398085206708815 5.528182935658834 2.9000710989193954 0 0 0
43 2 4 0.9933822324880671 7.23644124291807 0.360376158381094 8.045869801687989 0 1 0
161 2 2 0.04046845070475953 4.374141694582056 4.449729023450371 7.466238738857537 1 0 0
68 2 2 0.3181106184132565 5.4405027007749505 1.636820709073761 2.400564945818136 0 0 0
259 2 3 -0.78850560324971 6.143149919669994 1.5539724092343732 2.9851642368736413 0 1 0
93 2 2 0.3200971228410651 4.818513608688093 0.904529080530806 8.966704313486247 1 1 0
150 2 2 0.1641431661854815 9.92667185133102 1.386983077390663 9.12078921700298 -1 0 -1
335 16 2 0.08821460855781532 5.385949991775642 5.945806655894689 2.0610845506394666 -1 -1 0
132 2 2 0.1988415892620211 9.918330122968369 0.25863787415184303 2.8536112001828 0 0 0
179 2 2 0.2753160611399943 10.12674980008171 0.5718975490251865 4.490668857571591 0 1 0
221 2 1 -0.1603273058002991 7.865407443447618 6.19354145093017 0.436540699628702 0 0 0
333 15 2 0.01237170347989875 6.235886050565589 5.868334318637808 0.11840540455463766 -1 0 0
358 24 2 0.2665258448970098 12.767222547447075 3.668133681735983 1.5584510093507877 0 0 0
223 2 3 -0.8483872196293991 15.868771715313471 1.4862666878790007 5.178745635916691 -1 0 0
225 2 3 -0.7446908940997575 14.195203425609378 3.084541520039371 3.497541793735246 -1 0 0
55 2 4 0.831893331480408 10.699993080229362 4.2894096811181255 0.6242733497040898 0 0 0
281 2 3 -0.6954432463946677 11.420026247784843 5.6203451402639635 1.098019951798532 0 0 0
356 24 2 0.1315040895122482 11.048351591576187 3.9725466434929797 3.5228888964670677 0 0 0
273 2 3 -0.7569590880953828 10.775483596896217 2.8252045956654777 5.980036956808927 0 0 0
180 2 2 -0.03016594693805325 10.599780504501899 1.054246067232128 0.5923173519446172 0 1 0
5 2 4 1.411060546175348 14.376701570763595 1.6982011123442935 4.326412571097981 -1 0 0
2 1 2 0.3435727305920607 14.911018219084307 0.9763120061966228 2.013068140646666 -1 0 0
51 2 4 1.356283456978936 12.703922866856969 2.018427472567847 6.34572017157943 0 0 0
272 2 3 -0.8450734872321298 12.960924406357444 1.413125011204978 4.923862050875527 0 0 0
284 2 3 -0.8985455081583744 13.96662880280235 2.8457818313607897 6.747422998653174 0 0 0
274 2 3 -0.7403067734176142 12.201414251605987 0.9542995142147139 7.891645878865485 0 0 0
371 33 3 -0.7724255520369092 12.934040889384608 0.26425185909538607 1.0543354517196657 0 0 0
359 24 1 -0.641995160017422 12.32460733879833 3.4251807651067954 0.6039887301011512 0 0 0
354 22 1 -0.6757968070520495 14.98231156160567 0.5532199972388201 9.093796618856654 0 0 0
353 22 2 0.08274186993027777 15.694200357769892 1.2901077505833118 8.012211333517142 0 0 0
370 32 3 -0.7449149453235149 14.579736884163204 0.2561686377378388 2.7698373952563107 -1 1 0
48 2 4 1.016277483576611 12.33821036370627 1.423656444188847 0.18441390680913008 0 0 1
271 2 3 -0.7681892230294411 10.999009113247586 4.148093543708442 9.105791553991748 0 0 0
71 2 2 -0.0549142114965137 -3.3031113916225694 7.3257503673466555 2.1998844418492354 0 0 0
119 2 2 0.08370791377982167 -7.6247526871515525 11.892280485001834 6.5808195429638054 0 0 0
347 20 2 0.04430726623921483 -3.061521074436056 12.121479247655085 7.940520139212505 0 -1 0
315 4 3 -0.7298124552438188 -4.911951628099488 10.523987861330387 0.018767965792110444 0 0 1
112 2 2 -0.01750485774666443 -4.640835863632801 10.081467645813362 2.966189433216371 0 -1 0
208 2 1 -0.5995005329867759 -6.555269692135604 11.031313810570008 5.615145389292178 0 0 0
75 2 2 0.1697500689955369 -2.431478122751235 10.364791397228803 3.3771291388860405 0 0 1
142 2 2 0.1491401561157534 -4.305379657828685 9.305119975770548 6.928368231418673 0 -1 0
309 3 4 0.8351421344219525 -4.568435561117139 11.279352290860558 1.7538457741240339 0 0 0
287 2 3 -0.4523346343367545 -3.9270099440877155 7.652908138318919 5.174289390130324 1 0 0
234 2 3 -0.7301397407846965 -4.604619437369855 12.7665898521158 8.72209379402822 0 0 0
83 2 2 0.240309624632254 -4.696240368156494 11.07416857153763 7.80884392977394 0 0 0
220 2 1 -0.6258195969041432 -3.097270657483473 11.166127941073462 2.8105912471069248 1 0 0
334 15 1 -0.2583566022126583 -2.825442693316031 7.750634459269121 5.7504342701306745 0 0 0
40 2 4 0.5961904317824863 -2.7186634284903115 9.612206726987203 6.446199986424757 0 0 0
349 21 2 0.1027157602728627 -6.0366606015774185 11.224915435527173 4.381496413998676 1 -1 0
350 21 2 0.1443852803684152 -3.9234682656337263 9.687980008495927 8.81701132399152 1 -1 0
215 2 1 -0.6764735737447748 -4.252393442522801 10.047593769093638 7.784422079288008 1 0 0
105 2 2 0.04789500676644635 -3.412842775345134 10.97099820224124 5.454306871325656 0 0 0
185 2 2 0.2177314533216399 -6.888375075989221 12.492676742501146 3.734011787597653 1 0 0
365 29 2 0.2224958638795596 -3.21645549384613 12.092324839683648 3.423802601914433 1 0 1
145 2 2 0.04265965969789622 -2.2920924630747295 8.341496900113299 4.437887577297591 0 0 0
311 3 2 0.1789864353144799 -2.524498255743201 11.759523046720542 1.4249325806787616 0 0 0
184 2 2 0.1807945656702578 -5.694570635932202 10.696733856499534 6.2947951504723445 1 0 0
141 2 2 0.20252759515348 -6.788714734662662 11.785065834792608 8.75691397782983 0 -1 0
198 2 1 -0.6523185437500965 -7.328888600523974 12.818712017275445 9.036503145628124 0 -1 0
367 31 2 0.2088076876732347 1.531437132321331 10.703961602848043 8.171483212067207 0 -1 0
300 2 3 -0.6513541265796484 -0.44297352905120224 11.219978057540612 8.930954348916824 0 0 0
136 2 2 0.05381556150910823 3.755342043022582 7.440986269713846 4.241556829898356 0 0 0
87 2 2 0.06016539941629089 3.0681725905666846 11.753692652162702 3.748157138949942 0 0 0
148 2 2 0.112877135231886 -1.8891474738332028 7.525247408867755 6.462027833786611 0 0 0
108 2 2 0.07072855833106058 -0.6847764309998925 8.020147023789304 1.3570643670932425 0 0 0
312 3 2 0.1886833030096373 -1.5073727928367586 11.851466169225802 5.036783104033451 0 0 0
42 2 4 0.9515195138777287 3.1878172417784065 7.603088309693177 5.956952067553288 0 0 0
332 15 2 0.1740806844191704 1.1755882150748915 11.765174996063276 7.205336166009023 0 0 0
346 19 1 -0.702215640692635 -1.5779750552533618 10.8804611245987 5.610439888629201 0 0 0
102 2 2 0.1227474895130827 1.6726191421388783 11.457677736494407 4.203809380682291 0 -1 0
13 2 4 0.714674383244153 -1.7890399871573561 7.383596076491282 2.993976295590933 0 0 0
172 2 2 0.1442188180063201 3.0266569534788594 9.047427747107502 7.6632461260793265 0 0 0
84 2 2 0.1961119309381389 -0.9512559882845293 11.069633169333393 6.495549014835375 0 0 0
147 2 2 0.1050510490401935 2.305156636814356 9.561905488126648 5.869750851201054 0 0 0
73 2 2 0.005434847656349651 0.506951557942117 9.520320542152191 4.860912574422172 -1 -1 0
229 2 3 -0.8818891943316308 1.9449729588118525 7.084483995401004 3.452603405610683 0 0 0
201 2 1 -0.4106078185221194 -0.37605777935602913 8.813482918279654 2.5823995795804486 0 0 0
261 2 3 -0.490728364529094 -0.6365523915028564 10.180796652534823 2.1987450251492033 0 0 0
233 2 3 -0.3596350648946027 0.8176081246277114 8.59340557494534 7.475147457362033 0 0 0
16 2 4 0.7121455091866036 -0.2804556922424536 10.606579611922463 3.930155806824512 0 0 0
207 2 1 -0.4553175683342845 0.8099363639941248 7.209794338424553 7.8763531012853205 0 0 0
219 2 1 -0.613349559421948 1.1480395876592766 12.586819440578456 3.8386941042396168 0 0 0
39 2 4 1.265824807728905 1.5307542551150146 8.301821963436343 2.596687558987739 0 0 0
257 2 3 -0.7165646368083005 1.9212702596712916 7.666472348265087 0.8711045755999275 0 0 0
216 2 1 -0.3326978893161924 2.03064810797606 8.918407309682287 6.8938618530344735 0 0 0
293 2 3 -0.8216463955807383 2.193115908570568 9.654382165601135 3.0049706077112144 0 0 0
62 2 4 1.162314868752665 3.7778028760323696 10.19643697693662 3.449684717383919 0 0 0
341 18 2 0.2339824081922328 1.316041156225713 12.358925246654515 8.847731011775954 0 0 0
129 2 2 0.1872270068083892 4.109428391615852 7.570666045535938 2.8455393419018495 0 1 0
369 31 1 -0.3514611689213518 0.9136536034516054 11.593889349434274 8.273658177549995 0 -1 0
299 2 3 -0.7764080518273787 3.522374099808209 11.524535771740673 8.934217791552065 0 0 0
74 2 2 0.2017389874803109 5.833659119912281 7.231840677978732 3.4898990193912827 -1 0 0
203 2 1 -0.6993856492607297 5.0575688017862515 6.782580849535157 2.9887765417895165 0 0 0
59 2 4 0.535124872903878 8.935200854428782 6.749411788331766 7.089152711463698 0 0 0
133 2 2 0.3454429399564946 8.164060397710422 7.2822907591459165 3.335759418611514 0 0 0
165 2 2 0.0706086343533058 7.486266485252718 10.129138134899836 8.937410781186374 0 0 0
30 2 4 0.6294734863095851 6.478086232103806 7.82437277885118 0.7593502097037768 0 0 0
124 2 2 0.1319035266413469 4.874251657824871 8.355190707337567 0.45272649209801635 0 0 0
301 2 3 -0.8415075627449434 7.181068908481005 10.550356676619657 5.318696045006287 0 0 0
123 2 2 0.0799007925515214 10.223867075727375 7.8145224483953735 6.117710517727763 0 0 0
168 2 2 0.2841262310075927 7.5886825523590336 10.250118722292562 2.388918575935549 0 0 0
298 2 3 -0.8690661369477107 4.372520855201887 7.089380559795581 6.753735670202138 0 0 0
331 15 2 -0.03804530324946245 8.576869448378794 8.38739692012728 5.410555640078265 -1 0 0
46 2 4 1.31668788599635 5.176793577168126 11.529722333527598 1.2728722773471168 0 0 0
66 2 4 1.411200374737269 5.758419400287918 10.255133028622183 5.935415870782063 0 0 0
282 2 3 -0.8047847726510408 8.29524186683658 9.983690064760093 1.7099235434411046 0 0 0
91 2 2 0.2324539773486166 7.631751382809571 9.305365481864758 1.1810110721845788 1 0 0
303 2 3 -0.860111066540492 5.992706948611319 9.390220318815604 7.231694880113797 0 0 0
19 2 4 0.7871896551197672 8.52850888433683 10.03985276750992 4.80158497319544 0 0 0
294 2 3 -0.804015977936846 4.560620374099803 10.191892095871037 2.0181515122072056 0 0 0
49 2 4 1.34410071234432 4.4016859880075945 12.562667720664653 8.165531586030843 0 0 0
167 2 2 0.2595497089759501 6.936273758315176 7.509567563077857 4.082378124715848 0 0 0
337 17 2 0.1488003509107569 8.413185497364339 9.286393690657597 3.209800412886788 -1 0 1
302 2 3 -0.8639676697306219 4.5257662698684715 9.58709588212082 4.872694390350944 0 0 0
98 2 2 -0.02848505912112725 6.4347149942320625 6.84552190207158 7.432753405272475 0 0 0
64 2 4 1.194734051002038 5.313344887572328 8.018282390880945 7.8607574665214806 0 0 0
245 2 3 -0.8698107210123349 7.521461557835351 7.951410375060747 3.421374167985729 0 0 0
304 2 3 -0.7571434309488292 4.955174845266502 11.699366070286032 6.8290411413809835 0 0 0
243 2 3 -0.4270086697552719 8.956023575985322 6.5831018682324185 0.17383032820093944 0 0 0
174 2 2 0.124173307746726 8.788390927196048 10.334641075353876 0.3421931382717076 0 0 1
297 2 3 -0.8379236378318234 4.709529544733854 8.06081696583431 9.238151837197563 0 0 0
56 2 4 0.5545524801799887 11.423209611201196 8.021617648849418 9.082077424380568 0 0 0
192 2 1 -0.5920494840739073 10.659637167994264 7.161265224539668 7.626590492483757 -1 -1 0
12 2 4 0.6990706769863803 11.64689153126789 7.092354002604242 1.5294282653600342 -1 0 0
183 2 2 0.06925838196979138 10.72747789551562 7.024064873084352 2.83243395162021 0 0 0
182 2 2 0.03305607699995583 10.966022255679679 8.136772846001922 0.2914968418347766 0 0 0
158 2 2 0.1901934043942934 11.883860253083315 6.7157018099372845 7.4364169539945095 0 0 0
15 2 4 0.8423049315469772 -2.0717198710780926 6.054943423313586 11.939993480707006 1 0 0
163 2 2 0.03257777803203804 -2.015064469723994 4.2602187645407374 12.199601939234714 1 0 0
162 2 2 0.1460329666793891 -0.49883709284101974 4.105522984844794 13.321568102390511 1 0 0
10 2 4 0.7219012886214806 2.425076253206975 2.0313779235606417 13.864372512888714 0 0 0
224 2 3 -0.7492540662309547 2.9222039130861317 0.8046186183230415 14.755172011403742 0 0 0
146 2 2 0.03150147891508606 3.439148082523567 5.4403022122236155 12.77135561176186 0 0 0
85 2 2 0.03595232439871706 0.6555707515638031 2.2492135898088783 13.44168507766713 0 0 0
190 2 2 0.02617070962020229 2.9482526196002894 2.026120633032243 12.10090261903527 1 1 0
37 2 4 0.8658127320772712 1.589252668644159 4.504403365883745 16.98229466193642 0 0 0
151 2 2 0.03280922717679515 2.5039179312670674 4.254260775556544 15.252788209517728 0 0 0
253 2 3 -0.7774234914630389 0.5268665648601192 3.3018274901747198 16.71471704152826 0 0 0
232 2 3 -0.7423649958320038 -0.9096109301555757 6.523755517080535 11.003069899711726 0 0 0
140 2 2 0.03391587772454543 2.3549415013583106 4.305740031562478 18.506888534034246 0 0 0
17 2 4 0.8067764362706668 -0.5904772351357739 2.400692286758535 16.194943809214 0 0 0
209 2 1 -0.6054310603192616 1.3689851896787228 1.147416856183817 12.524937376137425 0 0 0
72 2 2 0.1857973468488807 1.6021190142958976 5.604868888804853 14.332679772293186 0 0 0
205 2 1 -0.4654796251591759 1.6088265120289749 4.556198111166107 13.705975464489343 0 0 0
254 2 3 -0.7748776669630325 0.7808131263738908 5.897664676715234 16.75796297371396 0 0 0
152 2 2 0.3049384116488486 0.01527094573877913 5.491174634658189 17.311173748688027 0 0 0
77 2 2 0.04979625382731531 3.211400403967332 3.676527981338258 13.771347782715855 0 0 0
155 2 2 0.1540210137236971 -1.7257645072317453 5.758657436214524 17.09160877088609 0 0 0
366 30 2 0.1374883574037042 0.6809231471704333 3.9767832235938885 13.97690209614896 0 -1 -1
239 2 3 -0.8275426739426043 4.255240824629407 1.517931668528892 17.213256444471863 0 0 0
143 2 2 0.1793000132249753 1.431231974732498 4.4913418437882715 10.19811792591959 0 0 0
285 2 3 -0.7908737246157115 3.860767008971557 5.797356252893713 9.619515272287831 0 0 0
116 2 2 0.1300940148389663 0.909278778879236 1.2071913312309746 11.445771086773462 1 1 0
317 5 2 0.1894405340500871 1.422296614565606 6.101819402170915 12.168119473194325 0 0 0
206 2 1 -0.387558922409134 1.6129400853888445 4.939558301242795 12.32604817158658 0 0 0
94 2 2 0.1415030699973034 2.531292472114304 4.360910668368898 12.029578852812731 1 0 0
99 2 2 0.1754391924814634 1.9628139815986305 0.48935108273222194 10.029378855994056 0 1 0
324 10 2 -0.02015606870120245 0.12866930314798186 3.040876189027902 10.370667155901224 0 0 0
122 2 2 0.1942174401660605 -0.8569426766315007 4.956659205357522 14.932868114604313 1 0 -1
196 2 1 -0.6231296448710149 -1.333577104693406 4.749933053697495 13.892595981263787 0 0 0
160 2 2 0.1233618870474925 -0.8408029478386176 6.430041609714826 13.475141989085474 1 0 0
154 2 2 0.01995096565580037 2.721415587277366 6.808692214677036 16.84398727926844 0 0 0
193 2 1 -0.1068163666658912 -1.9408338512294105 6.80016883907045 16.964391059459864 0 0 -1
32 2 4 0.652512379002878 3.01666892339501 6.798208189936952 18.540208337977507 0 0 -1
321 9 2 0.1322621889621078 2.55940084258605 2.8270419351346896 10.156403223594934 1 1 0
115 2 2 0.1052343673870146 4.185678213276898 3.4482112346959997 10.030534345530638 0 0 0
197 2 1 -0.6731217374647894 1.9018556216607656 3.725369019090983 9.492683337945017 1 1 0
368 31 2 0.04244011203365695 1.492854665779253 6.720783635697387 9.389557944406409 0 0 1
24 2 4 0.9640987985049146 7.849332729244453 3.4754600920599943 18.332001316106208 0 0 0
264 2 3 -0.7805900034207386 7.445083971726368 1.1533924459091556 9.345446425431248 0 1 0
164 2 2 0.1228623239841953 4.878724072576468 0.4907117446147742 11.971154276726375 1 0 0
28 2 4 1.269153328157344 4.855679980134482 2.8899939936126637 17.224805399396626 0 0 0
256 2 3 -0.7618600771052148 5.131461632839612 6.211753547042582 14.277569515207261 0 0 0
251 2 3 -0.9554261499171208 4.734148332990563 3.91744096398174 16.087857859628443 0 0 0
36 2 4 1.376629253697589 5.594697940390683 4.352075817596647 14.936919826022418 0 0 0
29 2 4 1.168706390258901 6.115720189744775 2.7468145400760804 12.412098768497092 0 0 0
241 2 3 -0.8582693843102813 5.490280623512504 2.6240049049944907 10.597792093783353 0 0 0
252 2 3 -0.8940632282520055 5.3464980785633935 3.4994778892751564 13.505881255077002 0 0 0
289 2 3 -0.7554495006545628 7.361295889808515 4.399051313290613 15.186507082034595 0 0 0
186 2 2 0.1261374872529467 7.715018272024575 3.5608378982772084 12.21875857423069 0 0 0
60 2 4 1.057347967404539 8.7430478869507 5.121426758579395 14.4596757318313 0 0 0
278 2 3 -0.7928149794507925 9.17128438435527 3.276883035481465 17.208513986747093 0 0 0
25 2 4 1.024774537392622 10.000014531963956 3.29943332512342 10.090232697361424 0 0 0
53 2 4 1.176611192822913 9.463872581686957 1.8524943126213753 16.278977889368917 0 0 0
342 18 2 0.1956738062586741 7.9052895985781495 5.202171838430445 11.890096747237699 0 0 0
362 26 1 -0.6253835219255419 9.441829390650843 6.385530783193073 15.679689909035016 0 0 0
242 2 3 -0.8587881030528132 7.340286988228247 1.8435892549983268 12.780988417941629 0 0 0
237 2 3 -0.7985012785041676 8.420151885643904 3.487045110471888 10.37171050030688 0 0 0
276 2 3 -0.8023596005713944 8.127951286592847 1.147681888957245 15.431123146426431 0 0 0
26 2 4 1.085872226532512 6.827031271713022 2.679507727359922 9.795404830573762 0 0 0
107 2 2 0.1618560208887194 10.456686442380226 5.80593486587512 16.06272940374046 -1 0 -1
290 2 3 -0.7611782550702544 10.169431236420634 4.371518947521722 13.860889799792355 0 0 0
27 2 4 1.207805961609497 8.183351086174525 0.8632464455831219 13.897170297217798 0 0 0
240 2 3 -0.8171632666281329 6.3762466025801485 2.794554441067911 17.9249420029903 0 0 0
213 2 1 -0.6050195230324635 10.502371621402075 1.4488915966104412 10.451762994431627 0 0 0
344 19 2 0.2289144181339522 9.738270825386705 0.7396090450547229 10.927742149310298 0 1 0
277 2 3 -0.9428130219641992 10.105364448976792 0.6286428066933262 16.966972576049272 0 0 0
80 2 2 0.3341249640685534 6.965262955449951 0.7568720758798885 18.004454818449414 0 1 -1
188 2 2 0.2248207629802159 6.739967447277465 6.32638829225396 13.089529351029126 0 0 0
96 2 2 0.2220514842166335 8.744717050569601 6.601430416303168 16.48849491276645 0 0 0
343 18 1 -0.6542759105752746 7.885920712377002 5.874885088908923 12.70648844132803 0 0 0
92 2 2 0.1365209453853555 14.087491616994138 4.128024905585297 14.036939309133253 0 0 0
329 13 2 0.02102962794688033 14.788769848190029 3.6862770166396235 15.61215670157152 -1 0 -1
101 2 2 0.09161921405290314 10.770214586978144 2.9153202865953602 11.590193674403796 -1 0 0
95 2 2 0.3053378272979158 11.492963175833687 1.021025718606283 10.414903233458904 0 0 0
187 2 2 0.00105213928245775 11.828497713910108 4.917093322510629 15.787651432098016 0 0 -1
212 2 1 -0.6508483706409919 12.765673876855086 5.544742355710383 10.936126133917623 0 0 0
361 26 2 0.08372305179642008 10.843770527975108 2.3986013487945685 15.320396087379347 0 0 0
126 2 2 0.03705649388985186 12.118825669852194 5.356811098235968 12.620145527986308 -1 0 0
50 2 4 1.12505902359218 12.726033256247582 4.625074090177631 9.409895322602548 0 0 0
9 2 4 0.8964396256345362 11.721745178094034 4.381006095531602 14.253188424468851 0 0 0
275 2 3 -0.7162455980770354 11.8926596390647 2.7766603704861303 14.171030853381037 0 0 0
295 2 3 -0.7610306112165376 12.521493275499775 0.6876625261269111 11.924115576372829 0 1 0
52 2 4 0.9835229078362192 12.033867972460898 0.7682706456951816 13.729290710756798 0 0 0
279 2 3 -0.7399779205290681 13.720596261224397 3.195998150930936 9.550915710464217 0 0 0
118 2 2 0.1466119006820075 12.065992110085023 6.378976950214851 11.475794969374915 0 1 0
54 2 4 0.7387877462283901 15.140746663327878 2.3216276874740114 9.655391427204803 0 0 0
355 23 2 0.04181572999953115 14.710035394942238 1.2141630907938112 10.944908315940085 0 1 0
326 11 2 0.05896870623529145 15.819181168952248 1.5517744912336895 14.499517034942148 -1 0 0
328 12 2 0.1408457048664557 15.14063604148325 0.8594513137388728 16.994100051070355 0 0 0
357 24 2 0.2809673072757446 12.218208643393702 1.8520061501709721 16.932054926869903 0 0 -1
270 2 3 -0.7895528711721433 12.74902466232625 2.5742368961438453 17.405816876122202 0 0 0
336 17 2 0.05684576404553054 11.263929338111014 4.366174103579027 17.791493881140664 0 1 0
137 2 2 0.2426493456630323 13.200171080189879 4.475874417257951 18.531766495934853 0 0 -1
8 2 4 1.389676024727534 -4.92672520867409 12.915515563679659 16.043086642550932 0 -1 0
153 2 2 0.1738033924285527 -7.735876413600586 12.67761461625265 13.038021050462984 0 -1 0
316 4 3 -0.746723183555525 -6.082423899201393 12.150254393095494 16.837089193443223 0 0 0
171 2 2 0.03908073648450529 -3.794088205692633 7.3136975704788 10.302775252044672 1 0 0
210 2 1 0.1875152722161084 -3.3633831614857685 7.571074590263793 13.82546928063678 0 0 0
291 2 3 -0.4453461264485726 -2.8397331736510214 7.172394392757093 14.887738005435528 1 0 0
128 2 2 0.341972266914496 -2.760161991745565 12.562451889428225 17.110429390888477 0 0 -1
222 2 1 -0.6833409502510306 -4.88766099300404 12.096182398379373 12.158507614839595 1 0 0
236 2 3 -0.792932859237383 -3.945660068620178 11.743757195250154 15.187327826545571 0 0 0
230 2 3 -0.3905686365321097 -2.836957371792912 7.611802528785083 17.22869182038147 0 0 0
120 2 2 0.1967413500221727 -4.64765887862911 11.49057476818141 13.06586869555749 0 0 0
117 2 2 0.08509224601337075 -2.5936722195059945 11.394964936777356 12.738332563327816 1 0 0
22 2 4 0.7752259818441799 -2.784078935493978 10.980331147382955 14.361327410232139 0 0 0
319 7 2 0.2017082807561449 -5.848005863289452 12.451269035104044 12.355458416660882 0 0 0
235 2 3 -0.7289255115433925 -2.570138102672543 11.049694955573791 10.51195616794835 0 0 0
314 4 4 1.025283086252997 -6.005955724379817 10.964572223491249 17.862924146892194 0 0 0
90 2 2 0.07559948167191261 -3.122160193357309 9.371598338750061 14.68851933699662 1 -1 0
111 2 2 0.1995733871460935 -5.67807219285154 9.744912367991521 15.775456827834638 0 -1 0
178 2 2 0.2497971661627785 -4.608334532914514 9.1051126986967 17.10467821232637 1 0 0
323 10 2 0.1944087232644434 -6.615089695418069 11.547639459391394 13.441517411358722 0 -1 0
157 2 2 0.06687785611247989 -5.176769671733604 10.579517688033235 11.06610680664977 1 0 0
21 2 4 0.8298095244433816 -4.190064372372965 11.701962739552364 10.347120863245472 0 0 0
231 2 3 -0.5174134526836811 -4.12933082663431 8.115076663238849 13.003153694965174 0 0 0
228 2 3 -0.7340332991602986 -2.1495187063974823 12.377661817854662 17.878616301350387 0 0 -1
38 2 4 1.198403791716729 4.052572047148358 7.088817478095251 13.310405133093164 0 0 0
20 2 4 0.9208596721502103 -0.3163562824947961 7.362912777623315 9.589598163851559 0 0 0
89 2 2 0.06733126462477158 2.489273381149539 12.045685348906563 14.270840569534101 -1 -1 -1
139 2 2 0.3189523562085221 4.21791776604889 12.706487549979713 12.052272096090665 -1 -1 0
338 17 2 0.03936580848330255 -1.2074496323262287 10.909201837972816 15.3714368464775 0 0 0
263 2 3 -0.7373482839033734 -1.2571881850549218 8.882800899032556 9.988371757935225 0 0 0
76 2 2 0.02045411578840663 2.943353186832881 11.255136920977126 11.71615619420856 0 -1 0
330 14 2 0.0406867232589098 -0.7432756971508154 7.521472956383589 18.000841100604156 0 0 0
127 2 2 0.1233478418752697 0.4701051786201511 11.233602791664854 16.415312663100398 0 0 0
200 2 1 -0.7252704518273313 -1.1867978667714314 11.727718111088258 13.712837265749657 0 0 0
6 2 4 1.466132336781163 -0.9280286657052996 10.37003448312695 10.187496605683261 0 0 0
266 2 3 -0.8227629294940201 -0.12903198734140475 10.430267357042752 11.51855566999615 0 0 0
268 2 3 -0.7702512655248162 1.1811572052226347 12.875753711610969 13.448840657110859 0 0 0
248 2 3 -0.7169635918796816 1.468224807970108 9.058814805993123 16.234982878184283 0 0 0
18 2 4 0.7188651359869855 -0.026658930373598788 9.026551453774754 17.141559117397097 0 0 0
308 2 3 -0.7950193583445462 3.2686389974831562 11.572540016813534 17.597522281684327 0 0 0
44 2 4 1.37853004027364 2.3960837853497523 9.148774523554454 14.697437747001006 0 0 0
45 2 4 1.162331723951028 0.20010784053418335 10.960062966515594 13.039395794056677 0 0 0
267 2 3 -0.7253004227464435 1.0632044333884885 9.665363942304587 13.747962307134129 0 0 0
305 2 3 -0.7632831992045753 3.539252603876755 10.30995392031226 14.725563049229342 0 0 0
339 17 1 -0.5797530787263638 0.5335103478192322 10.569608197404438 17.901194497287186 0 0 0
41 2 4 1.077818419091259 1.6841894240167743 12.070543922812305 17.76681797745839 0 0 -1
265 2 3 -0.78231042165147 2.733462256798691 7.843240125932442 13.740892699806304 0 0 0
65 2 4 0.6966155078694327 3.1134002857734586 10.445467885161477 10.188769564403453 0 0 0
320 8 2 0.1095028690240363 -0.9581538284890683 7.968985971068989 15.918242465907877 0 1 0
67 2 4 1.223278692804775 4.054917815121403 11.578577512818669 16.02563308423545 0 0 0
156 2 2 0.1965113129177807 -0.4967146663756914 10.580271647620538 18.59518515110042 0 0 0