LAMMPS (2 Aug 2023 - Update 2)
  using 6 OpenMP thread(s) per MPI task

# variable T index 300 400 500  #
# label T_loop

# Initialization
units           real
dimension       3
boundary        p p p
atom_style      full
timestep        0.5   # fs

variable       Tl equal 300.0   # low temperature
variable       Th equal 2100.0  # high temperature
variable       Td equal 50.0  # damping time
variable       P equal 1.0  # pressure
variable       Ph equal 1.0  # pressure
variable       Pd equal 10*${Td}  # pressure
variable       Pd equal 10*50  

variable       nevery equal 10
variable       nrepeat equal 10
variable       nthermo equal ${nevery}*${nrepeat}
variable       nthermo equal 10*${nrepeat}
variable       nthermo equal 10*10
variable       nrun equal ${nthermo}  # number of steps
variable       nrun equal 100  

variable       nequil equal 50*${nrun}  # 50
variable       nequil equal 50*100  
variable       nheat equal (${Th}-${Tl})*${nrun}   # 1800
variable       nheat equal (2100-${Tl})*${nrun}   
variable       nheat equal (2100-300)*${nrun}   
variable       nheat equal (2100-300)*100   
# variable       nheat equal 1000   # 1800


# Read the initial sctructure
# box tilt large
variable structure string 333U-50C-14
read_data       ${structure}.data
read_data       333U-50C-14.data
Reading data file ...
  triclinic box = (0 0 0) to (17.3186 12.8149 18.6403) with tilt (-8.851 0.4589 0.2054)
WARNING: Triclinic box skew is large. LAMMPS will run inefficiently. (src/domain.cpp:220)
  1 by 1 by 2 MPI processor grid
  reading atoms ...
  371 atoms
Finding 1-2 1-3 1-4 neighbors ...
  special bond factors lj:    0        0        0       
  special bond factors coul:  0        0        0       
     0 = max # of 1-2 neighbors
     0 = max # of 1-3 neighbors
     0 = max # of 1-4 neighbors
     1 = max # of special neighbors
  special bonds CPU = 0.000 seconds
  read_data CPU = 0.009 seconds

# Assign the force field
pair_style reaxff NULL safezone 3.0 mincap 150
# pair_coeff * * CHONSSi.ff O Si
# pair_coeff * * CHOSiNa.ff O Si
# pair_coeff * * SiOCHN_2018.ff C H O Si
# pair_coeff * * PDMSDecomp.ff Si O
pair_coeff * * CHONSi.ff C H O Si
# pair_coeff * * CHOFe.ff O Si

fix myqeq all qeq/reaxff 1 0.0 10.0 1.0e-6 reaxff maxiter 400

neighbor        2 bin
neigh_modify    every 10 delay 0 check no

# Energy minimization
print "##### Minimization starts.##### "
##### Minimization starts.##### 
# fix min1 all nve
minimize 1.0e-6 1.0e-6 100 1000

CITE-CITE-CITE-CITE-CITE-CITE-CITE-CITE-CITE-CITE-CITE-CITE-CITE

Your simulation uses code contributions which should be cited:

- pair reaxff command: doi:10.1016/j.parco.2011.08.005

@Article{Aktulga12,
 author = {H. M. Aktulga and J. C. Fogarty and S. A. Pandit and A. Y. Grama},
 title = {Parallel Reactive Molecular Dynamics: {N}umerical Methods and Algorithmic Techniques},
 journal = {Parallel Computing},
 year =    2012,
 volume =  38,
 number =  {4--5},
 pages =   {245--259}
}

- fix qeq/reaxff command: doi:10.1016/j.parco.2011.08.005

@Article{Aktulga12,
 author = {H. M. Aktulga and J. C. Fogarty and S. A. Pandit and A. Y. Grama},
 title = {Parallel Reactive Molecular Dynamics: {N}umerical Methods and Algorithmic Techniques},
 journal = {Parallel Computing},
 year =    2012,
 volume =  38,
 pages =   {245--259}
}

CITE-CITE-CITE-CITE-CITE-CITE-CITE-CITE-CITE-CITE-CITE-CITE-CITE

Switching to 'neigh_modify every 1 delay 0 check yes' setting during minimization
WARNING: Fix qeq/reaxff group is not charge neutral, net charge = -4.92 (src/REAXFF/fix_qeq_reaxff.cpp:392)
Neighbor list info ...
  update: every = 1 steps, delay = 0 steps, check = yes
  max neighbors/atom: 2000, page size: 100000
  master list distance cutoff = 12
  ghost atom cutoff = 12
  binsize = 6, bins = 5 3 4
  2 neighbor lists, perpetual/occasional/extra = 2 0 0
  (1) pair reaxff, perpetual
      attributes: half, newton off, ghost
      pair build: half/bin/newtoff/ghost
      stencil: full/ghost/bin/3d
      bin: standard
  (2) fix qeq/reaxff, perpetual, copy from (1)
      attributes: half, newton off
      pair build: copy
      stencil: none
      bin: none
Per MPI rank memory allocation (min/avg/max) = 202.5 | 203.8 | 205 Mbytes
   Step          Temp          E_pair         E_mol          TotEng         Press     
         0   0             -41361.517      0             -41361.517      73123.45     
        51   0             -43052.738      0             -43052.738      3756.0038    
Loop time of 5.78775 on 12 procs for 51 steps with 371 atoms

98.7% CPU use with 2 MPI tasks x 6 OpenMP threads

Minimization stats:
  Stopping criterion = energy tolerance
  Energy initial, next-to-last, final = 
      -41361.517274357   -43052.729709572  -43052.7381689014
  Force two-norm initial, final = 2062.1069 266.4279
  Force max component initial, final = 454.74681 141.18517
  Final line search alpha, max atom move = 0.00022884887 0.032310065
  Iterations, force evaluations = 51 138

MPI task timing breakdown:
Section |  min time  |  avg time  |  max time  |%varavg| %total
---------------------------------------------------------------
Pair    | 4.281      | 4.3672     | 4.4534     |   4.1 | 75.46
Bond    | 2.9456e-05 | 3.3798e-05 | 3.814e-05  |   0.0 |  0.00
Neigh   | 0          | 0          | 0          |   0.0 |  0.00
Comm    | 0.017419   | 0.10362    | 0.18982    |  26.8 |  1.79
Output  | 0          | 0          | 0          |   0.0 |  0.00
Modify  | 1.3133     | 1.3133     | 1.3133     |   0.0 | 22.69
Other   |            | 0.003586   |            |       |  0.06

Nlocal:          185.5 ave         193 max         178 min
Histogram: 1 0 0 0 0 0 0 0 0 1
Nghost:         4960.5 ave        5008 max        4913 min
Histogram: 1 0 0 0 0 0 0 0 0 1
Neighs:         107167 ave      111530 max      102804 min
Histogram: 1 0 0 0 0 0 0 0 0 1

Total # of neighbors = 214334
Ave neighs/atom = 577.71968
Ave special neighs/atom = 0
Neighbor list builds = 0
Dangerous builds not checked
# unfix min1
# Save the optimized structure
write_data ${structure}_opt.data
write_data 333U-50C-14_opt.data
System init for write_data ...

# Print system info
thermo          ${nthermo}
thermo          100
thermo_style    custom step temp press density vol pe etotal

reset_timestep 0
# Save trajectory
#dump dump1 all custom 500 dump_opt.lammpstrj id type x y z q
dump dump1 all custom ${nthermo} dump/dump_all.lammpstrj   id   type   x   y   z   q
dump dump1 all custom 100 dump/dump_all.lammpstrj   id   type   x   y   z   q

# equilibration at low T
print "##### Equilibration starts.##### "
##### Equilibration starts.##### 
velocity        all create ${Tl} 12345
velocity        all create 300 12345
fix             equil1 all npt temp ${Tl} ${Tl} ${Td} tri ${Ph} ${Ph} ${Pd}
fix             equil1 all npt temp 300 ${Tl} ${Td} tri ${Ph} ${Ph} ${Pd}
fix             equil1 all npt temp 300 300 ${Td} tri ${Ph} ${Ph} ${Pd}
fix             equil1 all npt temp 300 300 50 tri ${Ph} ${Ph} ${Pd}
fix             equil1 all npt temp 300 300 50 tri 1 ${Ph} ${Pd}
fix             equil1 all npt temp 300 300 50 tri 1 1 ${Pd}
fix             equil1 all npt temp 300 300 50 tri 1 1 500
# 1 ps = 1e3 fs / 0.5 fs = 2e3 steps = 20 nruns
run             ${nequil}
run             5000
Per MPI rank memory allocation (min/avg/max) = 200.9 | 202.1 | 203.4 Mbytes
   Step          Temp          Press         Density         Volume         PotEng         TotEng    
         0   300            7411.5021      1.6093426      4136.956      -43052.738     -42721.869    
       100   241.323        33.3545        1.6046567      4149.0367     -42951.878     -42685.723    
       200   275.70932     -6822.6468      1.5928984      4179.6638     -42932.152     -42628.073    
       300   314.05937      2799.5905      1.598721       4164.4413     -42926.732     -42580.356    
       400   329.76103      9936.6122      1.6069926      4143.0059     -42950.75      -42587.056    
       500   315.58559     -4440.4446      1.5944501      4175.5961     -42991.132     -42643.073    
       600   290.28002     -5566.9269      1.5993041      4162.9228     -43013.192     -42693.042    
       700   293.78273      16498.199      1.6160255      4119.8483     -43041.358     -42717.346    
       800   295.22728      6300.8994      1.6208366      4107.6193     -43060.795     -42735.189    
       900   277.3846       3324.2021      1.6263624      4093.6631     -43050.512     -42744.585    
      1000   320.59006     -2357.1625      1.6348534      4072.4017     -43091.302     -42737.723    
      1100   302.89579      10326.46       1.6452465      4046.676      -43094.155     -42760.092    
      1200   298.06566      713.33237      1.6492039      4036.9658     -43116.988     -42788.251    
      1300   307.44537     -589.44465      1.6570978      4017.7349     -43131.283     -42792.202    
      1400   294.16921     -5196.5903      1.6503479      4034.1675     -43124.999     -42800.56     
      1500   292.47061     -1548.244       1.672929       3979.7144     -43143.861     -42821.295    
      1600   290.55406      2330.4354      1.6842319      3953.0064     -43174.317     -42853.865    
      1700   295.33843     -5414.9461      1.7044108      3906.2061     -43188.4       -42862.671    
      1800   286.45987     -5814.1552      1.6969759      3923.3201     -43188.285     -42872.348    
      1900   282.03536     -3137.6343      1.7022428      3911.181      -43181.938     -42870.881    
      2000   301.29535      1626.3234      1.7037135      3907.8048     -43170.363     -42838.064    
      2100   306.39885      1306.8565      1.708038       3897.9108     -43161.255     -42823.328    
      2200   300.21285     -8529.4615      1.7130289      3886.5541     -43171.516     -42840.412    
      2300   301.15644      8284.2148      1.7120747      3888.7203     -43205.143     -42872.998    
      2400   293.38555     -4860.4899      1.7106942      3891.8584     -43203.933     -42880.358    
      2500   297.75356      13987.604      1.6955687      3926.5762     -43203.054     -42874.662    
      2600   298.55343     -2709.196       1.7014873      3912.9177     -43191.697     -42862.422    
      2700   321.21427     -5211.7783      1.7103405      3892.6633     -43190.069     -42835.802    
      2800   327.12469      15407.259      1.7198309      3871.1827     -43214.394     -42853.608    
      2900   276.49298      1486.6391      1.7045558      3905.8738     -43194.061     -42889.117    
      3000   296.06743     -8916.4618      1.7097883      3893.9205     -43221.244     -42894.712    
      3100   306.21527      4658.3909      1.716202       3879.3684     -43224.897     -42887.172    
      3200   306.87761     -9330.53        1.7137405      3884.9404     -43213.153     -42874.698    
      3300   314.57949     -8393.2809      1.7163511      3879.0314     -43207.726     -42860.776    
      3400   303.92374     -6942.9883      1.7008693      3914.3395     -43202.656     -42867.459    
      3500   272.33146     -7149.974       1.7066505      3901.0797     -43204.173     -42903.819    
      3600   288.27989      3729.87        1.720456       3869.7761     -43232.819     -42914.875    
      3700   280.57342      9643.3988      1.7382065      3830.2582     -43222.778     -42913.334    
      3800   290.7084       3097.2937      1.7203163      3870.0905     -43200.427     -42879.804    
      3900   322.54865      6156.4599      1.7268681      3855.4072     -43217.08      -42861.342    
      4000   301.58684     -4707.4008      1.7278477      3853.2215     -43208.886     -42876.266    
      4100   304.50354      6157.5224      1.7399941      3826.323      -43234.903     -42899.066    
      4200   305.60019     -22036.286      1.7120509      3888.7745     -43240.731     -42903.685    
      4300   298.65432     -10706.287      1.7126698      3887.3692     -43210.259     -42880.873    
      4400   309.84468      432.21237      1.7087324      3896.3267     -43193.608     -42851.88     
      4500   305.78312      2871.1173      1.7248183      3859.989      -43196.646     -42859.398    
      4600   299.07746      9623.9141      1.7255953      3858.2509     -43205.885     -42876.033    
      4700   294.30919     -13893.649      1.7254226      3858.6371     -43223.588     -42898.994    
      4800   282.87904     -3290.2269      1.7128019      3887.0694     -43223.158     -42911.17     
      4900   296.87476      7378.4189      1.7185284      3874.1168     -43240.713     -42913.29     
      5000   290.17044     -11038.944      1.7200787      3870.6251     -43227.67      -42907.641    
Loop time of 229.71 on 12 procs for 5000 steps with 371 atoms

Performance: 0.940 ns/day, 25.523 hours/ns, 21.767 timesteps/s, 8.075 katom-step/s
99.2% CPU use with 2 MPI tasks x 6 OpenMP threads

MPI task timing breakdown:
Section |  min time  |  avg time  |  max time  |%varavg| %total
---------------------------------------------------------------
Pair    | 180.51     | 182.6      | 184.69     |  15.5 | 79.49
Bond    | 0.0010181  | 0.0011592  | 0.0013002  |   0.4 |  0.00
Neigh   | 15.261     | 15.472     | 15.684     |   5.4 |  6.74
Comm    | 0.74091    | 2.838      | 4.9351     | 124.5 |  1.24
Output  | 0.023927   | 0.024449   | 0.024971   |   0.3 |  0.01
Modify  | 28.459     | 28.676     | 28.893     |   4.1 | 12.48
Other   |            | 0.09426    |            |       |  0.04

Nlocal:          185.5 ave         191 max         180 min
Histogram: 1 0 0 0 0 0 0 0 0 1
Nghost:           5212 ave        5255 max        5169 min
Histogram: 1 0 0 0 0 0 0 0 0 1
Neighs:         115388 ave      119016 max      111760 min
Histogram: 1 0 0 0 0 0 0 0 0 1

Total # of neighbors = 230776
Ave neighs/atom = 622.03774
Ave special neighs/atom = 0
Neighbor list builds = 500
Dangerous builds not checked

# Heat to high T
print "##### Heat starts.##### "
##### Heat starts.##### 
# out put bonds and species information
fix bondinfo all reaxff/bonds ${nthermo} bonds/bonds.reaxff
fix bondinfo all reaxff/bonds 100 bonds/bonds.reaxff
fix speciesinfo all reaxff/species ${nevery} ${nrepeat} ${nthermo} bonds/species.out
fix speciesinfo all reaxff/species 10 ${nrepeat} ${nthermo} bonds/species.out
fix speciesinfo all reaxff/species 10 10 ${nthermo} bonds/species.out
fix speciesinfo all reaxff/species 10 10 100 bonds/species.out
WARNING: Resetting reneighboring criteria to 'delay 0 every 100 check no' due to fix reaxff/species averaging of bond data (src/REAXFF/fix_reaxff_species.cpp:123)

# compute MSD and RDF
compute msd1 all msd
fix myMSD all ave/time ${nevery} ${nrepeat} ${nthermo} c_msd1[1] c_msd1[2] c_msd1[3] c_msd1[4] c_thermo_temp file msd.out
fix myMSD all ave/time 10 ${nrepeat} ${nthermo} c_msd1[1] c_msd1[2] c_msd1[3] c_msd1[4] c_thermo_temp file msd.out
fix myMSD all ave/time 10 10 ${nthermo} c_msd1[1] c_msd1[2] c_msd1[3] c_msd1[4] c_thermo_temp file msd.out
fix myMSD all ave/time 10 10 100 c_msd1[1] c_msd1[2] c_msd1[3] c_msd1[4] c_thermo_temp file msd.out
# compute rdf1 all rdf 100 cutoff 10.0
# fix myRDF all ave/time ${nevery} ${nrepeat} ${nthermo} c_rdf1[*] file rdf.out mode vector

unfix           equil1
fix             heat1 all nvt temp ${Tl} ${Th} ${Td}
fix             heat1 all nvt temp 300 ${Th} ${Td}
fix             heat1 all nvt temp 300 2100 ${Td}
fix             heat1 all nvt temp 300 2100 50
thermo_style    custom step temp press pe etotal
run             ${nheat}
run             180000
Per MPI rank memory allocation (min/avg/max) = 214.4 | 216 | 217.6 Mbytes
   Step          Temp          Press          PotEng         TotEng    
      5000   290.17044     -11038.832     -43227.67      -42907.641    
      5100   292.87219     -5197.0904     -43215.867     -42892.858    
      5200   317.31558      3985.6992     -43216.796     -42866.829    
      5300   317.75618      10744.409     -43222.458     -42872.004    
      5400   300.00641     -5617.5912     -43213.252     -42882.375    
      5500   322.6526      -3886.649      -43242.818     -42886.964    
      5600   298.10473      5237.4586     -43218.783     -42890.003    
      5700   309.28854      12815.757     -43237.704     -42896.589    
      5800   304.14921      3505.9997     -43239.682     -42904.236    
      5900   328.22563      7850.3366     -43243.676     -42881.676    
      6000   319.23755     -4393.6779     -43209.654     -42857.567    
      6100   312.44984     -4926.6751     -43199.198     -42854.597    
      6200   310.69903     -6213.5433     -43206.651     -42863.981    
      6300   290.09945     -2905.8817     -43221.39      -42901.44     
      6400   303.40923     -10441.206     -43239.748     -42905.118    
      6500   306.97875      1298.3394     -43220.139     -42881.572    
      6600   319.37568     -754.62544     -43213.046     -42860.807    
      6700   330.70363      6488.1353     -43220.853     -42856.12     
      6800   301.74982     -2652.994      -43185.336     -42852.536    
      6900   291.35925      1930.5632     -43179.734     -42858.394    
      7000   311.06014      1270.0922     -43220.067     -42876.999    
      7100   308.38077      2167.85       -43222.42      -42882.307    
      7200   319.10931      1404.5888     -43201.591     -42849.645    
      7300   326.58479      2648.0235     -43189.568     -42829.377    
      7400   313.26874     -6284.3136     -43170.314     -42824.81     
      7500   332.85845     -7549.3101     -43204.598     -42837.488    
      7600   306.74836      7787.3864     -43214.514     -42876.201    
      7700   305.26539     -1016.6156     -43211.677     -42875        
      7800   329.7061       18088.353     -43220.298     -42856.666    
      7900   320.1664      -13074.191     -43197.747     -42844.635    
      8000   325.96024      158.11762     -43187.221     -42827.719    
      8100   329.25444      2022.5124     -43172.639     -42809.504    
      8200   339.71593     -5620.0006     -43185.27      -42810.598    
      8300   343.829        2249.2424     -43236.338     -42857.129    
      8400   330.6349       1935.9955     -43229.86      -42865.203    
      8500   331.43211      4196.731      -43200.922     -42835.386    
      8600   346.02074     -1579.4421     -43189.694     -42808.068    
      8700   343.18251     -843.12339     -43170.863     -42792.368    
      8800   332.52353      8078.2068     -43161.609     -42794.869    
      8900   326.16785     -4115.889      -43192.587     -42832.856    
      9000   302.69718     -716.53808     -43182.184     -42848.339    
      9100   327.63651     -10517.475     -43189.129     -42827.779    
      9200   327.71754     -6995.5101     -43172.295     -42810.855    
      9300   347.28552      2359.1426     -43179.7       -42796.679    
      9400   365.17729     -4400.6902     -43188.322     -42785.568    
      9500   318.59643      4076.0263     -43134.545     -42783.165    
      9600   361.566        1689.1429     -43178.609     -42779.838    
      9700   340.18874      5378.228      -43167.895     -42792.701    
      9800   340.1721       4769.4853     -43188.094     -42812.918    
      9900   315.52857      2170.6777     -43156.129     -42808.133    
     10000   347.91464     -5400.0454     -43154.839     -42771.124    
     10100   366.03216      5689.7092     -43157.792     -42754.096    
     10200   383.40036     -2983.0858     -43183.425     -42760.573    
     10300   369.48903     -4286.9353     -43176.883     -42769.374    
     10400   344.98381     -3531.0906     -43153.824     -42773.341    
     10500   362.35501     -8625.2724     -43174.38      -42774.739    
     10600   337.91519     -5006.5215     -43142.748     -42770.061    
     10700   377.01282     -3516.9574     -43180.745     -42764.938    
     10800   359.9118      -2022.0463     -43158.062     -42761.115    
     10900   374.49347      9701.9953     -43144.824     -42731.795    
     11000   378.09413     -9074.9719     -43128.431     -42711.431    
     11100   378.31481     -11519.124     -43153.939     -42736.696    
     11200   368.63402     -2102.6703     -43173.398     -42766.832    
     11300   343.50604     -15787.143     -43144.873     -42766.02     
     11400   366.1218       17299.102     -43147.505     -42743.709    
     11500   363.16464     -4411.3016     -43126.313     -42725.779    
     11600   341.28475     -8063.0405     -43113.376     -42736.973    
     11700   351.62923     -7449.8075     -43166.738     -42778.926    
     11800   344.59468      4836.3184     -43166.559     -42786.506    
     11900   356.94306      718.7144      -43152.296     -42758.624    
     12000   367.31674      3443.957      -43138.655     -42733.541    
     12100   363.19697      8550.6177     -43125.807     -42725.237    
     12200   358.96794      13032.182     -43117.584     -42721.679    
     12300   377.89136     -3409.3205     -43150.011     -42733.235    
     12400   336.66611      2423.1783     -43161.045     -42789.736    
     12500   359.82632      8383.9711     -43186.851     -42789.998    
     12600   379.72909      9384.0703     -43169.987     -42751.184    
     12700   373.10592     -980.63953     -43136.177     -42724.679    
     12800   396.04893      10194.257     -43136.857     -42700.055    
     12900   403.26687      17558.42      -43135.469     -42690.706    
     13000   381.78308     -2389.8906     -43134.32      -42713.252    
     13100   374.51328      8003.191      -43171.303     -42758.253    
     13200   362.97102      4946.3065     -43152.258     -42751.938    
     13300   363.08921      18175.357     -43127.369     -42726.918    
     13400   389.69155     -1327.0497     -43135.634     -42705.843    
     13500   395.38335     -6264.0525     -43136.263     -42700.195    
     13600   353.3799       1506.0484     -43082.217     -42692.475    
     13700   411.64351      9510.7079     -43115.628     -42661.626    
     13800   400.13144     -4214.4552     -43061.248     -42619.943    
     13900   379.54946      6483.6111     -43063.693     -42645.088    
     14000   367.98431     -9209.8803     -43072.827     -42666.977    
     14100   377.59006      3748.0593     -43086.09      -42669.646    
     14200   405.25679      9276.3631     -43110.156     -42663.198    
     14300   387.19171      3988.823      -43102.258     -42675.225    
     14400   356.89441      7884.8194     -43115.017     -42721.399    
     14500   392.92843     -13681.525     -43149.961     -42716.6      
     14600   408.75405     -8233.3756     -43134.1       -42683.285    
     14700   400.52158     -6587.4831     -43108.636     -42666.901    
     14800   395.61883      3216.4446     -43100.229     -42663.901    
     14900   393.51404      9060.1682     -43096.32      -42662.314    
     15000   407.34289     -1182.4965     -43102.427     -42653.169    
     15100   397.73781      879.34251     -43070.926     -42632.261    
     15200   386.01158     -1532.7135     -43064.737     -42639.005    
     15300   396.8282       2428.9837     -43111.487     -42673.825    
     15400   409.76745      6267.0055     -43135.217     -42683.284    
     15500   393.50683     -4147.0563     -43090.214     -42656.216    
     15600   401.30462     -2603.5353     -43079.085     -42636.486    
     15700   417.9352      -1938.3003     -43092.975     -42632.034    
     15800   408.29231      10483.486     -43079.218     -42628.913    
     15900   416.08323     -3883.616      -43107.808     -42648.91     
     16000   380.60123      2552.4497     -43106.828     -42687.063    
     16100   391.56966     -5364.0361     -43103.017     -42671.155    
     16200   407.71381      6773.248      -43090.483     -42640.816    
     16300   429.66975      814.88586     -43101.729     -42627.847    
     16400   418.82168      2509.7546     -43063.09      -42601.171    
     16500   431.86009      7767.1996     -43066.641     -42590.342    
     16600   392.01045      9769.5299     -43069.153     -42636.805    
     16700   411.55242      4511.2123     -43107.776     -42653.875    
     16800   407.87142      14341.844     -43086.024     -42636.183    
     16900   411.14758      16270.777     -43059.41      -42605.955    
     17000   411.0023       12890.167     -43047.512     -42594.218    
     17100   410.70947     -4048.0432     -43052.331     -42599.36     
     17200   414.0313       8169.3811     -43067.618     -42610.983    
     17300   386.65324      10182.428     -43085.011     -42658.571    
     17400   382.21114      5953.9164     -43102.54      -42680.999    
     17500   411.9049      -8731.5018     -43095.572     -42641.282    
     17600   433.35957      10997.78      -43085.342     -42607.39     
     17700   436.77719      19984.268     -43059.218     -42577.496    
     17800   448.21698      5931.0218     -43047.696     -42553.357    
     17900   451.99485     -971.38584     -43060.813     -42562.308    
     18000   432.31371     -9736.9468     -43090.927     -42614.128    
     18100   403.71355     -7549.506      -43067.825     -42622.569    
     18200   397.33767      8915.5786     -43039.671     -42601.448    
     18300   443.45363      3738.6696     -43060.622     -42571.537    
     18400   431.06963      7065.4016     -43028.348     -42552.921    
     18500   448.60364      9976.6345     -43041.131     -42546.366    
     18600   433.23275      856.83136     -43041.502     -42563.69     
     18700   391.0928       16380.774     -43045.443     -42614.107    
     18800   424.41808     -4888.5652     -43069.682     -42601.591    
     18900   433.80461     -335.28296     -43039.68      -42561.237    
     19000   436.46047      9888.9225     -43026.476     -42545.104    
     19100   456.2189       5145.205      -43044.495     -42541.331    
     19200   417.8491       2603.833      -43014.417     -42553.571    
     19300   412.79087     -12763.999     -43051.738     -42596.471    
     19400   411.76943      384.03764     -43078.9       -42624.759    
     19500   407.07111      6805.8407     -43032.395     -42583.436    
     19600   429.32577      22221.964     -43028.613     -42555.11     
     19700   429.13313     -5817.1322     -43006.126     -42532.835    
     19800   440.77818      2209.9154     -42997.377     -42511.242    
     19900   465.43505      2289.4048     -43025.791     -42512.463    
     20000   438.51937      6358.7463     -43044.312     -42560.669    
     20100   439.02544      18171.287     -43060.98      -42576.779    
     20200   433.80281      4175.3916     -43040.519     -42562.078    
     20300   500.96014     -15260.248     -43057.474     -42504.966    
     20400   486.24037     -2465.6409     -43025.672     -42489.398    
     20500   475.01692      777.03999     -43025.296     -42501.4      
     20600   441.4632       2548.5356     -43016.57      -42529.68     
     20700   403.84218      10750.439     -42987.88      -42542.482    
     20800   454.75081      11420.839     -42996.327     -42494.783    
     20900   488.77968     -7489.8863     -42996.066     -42456.991    
     21000   470.01074     -4404.0236     -42994.501     -42476.126    
     21100   464.86446      10224.578     -43023.265     -42510.566    
     21200   429.87243     -6072.1902     -43003.236     -42529.13     
     21300   454.38208      9680.1859     -43029.938     -42528.8      
     21400   456.61897     -755.02595     -43029.262     -42525.657    
     21500   455.56603      6746.607      -43024.825     -42522.381    
     21600   446.19386      879.87074     -43006.362     -42514.255    
     21700   478.20806      4511.7998     -43008.023     -42480.607    
     21800   493.01184      7082.1023     -43002.318     -42458.575    
     21900   462.68329     -7163.865      -42988.606     -42478.313    
     22000   451.08616     -6360.2374     -43021.723     -42524.22     
     22100   428.53197      12219.822     -43000.366     -42527.738    
     22200   475.98634      296.3998      -43029.135     -42504.17     
     22300   462.89461      14161.069     -43001.754     -42491.228    
     22400   472.86619     -1846.1651     -43003.27      -42481.746    
     22500   490.88888     -7993.7655     -43005.168     -42463.767    
     22600   484.23398     -1382.4458     -42982.196     -42448.134    
     22700   513.51645      9702.7205     -42961.763     -42395.406    
     22800   492.34775      9287.5514     -42934.42      -42391.41     
     22900   497.9038       10408.955     -42994.969     -42445.831    
     23000   475.03769      2151.688      -42996.543     -42472.624    
     23100   471.80609      6832.4078     -42980.863     -42460.508    
     23200   489.84598      5266.2663     -42973.91      -42433.659    
     23300   500.50491      3240.5665     -42950.613     -42398.606    
     23400   499.87807      5337.1419     -42900.833     -42349.517    
     23500   510.83229     -5205.4766     -42920.895     -42357.498    
     23600   509.69275      12253.748     -42990.494     -42428.354    
     23700   477.85889      23265.233     -42978.223     -42451.192    
     23800   478.31083     -7264.8848     -42987.73      -42460.201    
     23900   455.71115     -1024.3571     -42952.404     -42449.8      
     24000   495.47253      5860.1777     -42945.751     -42399.294    
     24100   490.18129      10113.76      -42917.159     -42376.538    
     24200   494.62517      4326.7318     -42944.937     -42399.416    
     24300   491.90445      14557.499     -42960.324     -42417.802    
     24400   477.3382       1617.4288     -42949.599     -42423.143    
     24500   487.21723      4243.8079     -42963.527     -42426.175    
     24600   469.62944     -2632.4512     -42955.789     -42437.835    
     24700   496.63236      7606.1886     -42969.287     -42421.551    
     24800   533.6106       15439.096     -42956.05      -42367.531    
     24900   499.81514      11960.012     -42928.832     -42377.586    
     25000   498.21342      1531.7677     -42968.051     -42418.571    
     25100   465.17091     -1363.5632     -42953.113     -42440.076    
     25200   487.39442      7196.2013     -42964.619     -42427.071    
     25300   472.66602     -2354.1757     -42932.197     -42410.894    
     25400   493.89648      2567.8569     -42924.388     -42379.67     
     25500   523.45888     -10093.986     -42937.205     -42359.883    
     25600   522.42778      4652.2256     -42976.192     -42400.006    
     25700   469.32848     -7328.9005     -42972.789     -42455.166    
     25800   464.46518      7747.1075     -42953.654     -42441.395    
     25900   489.34882      3283.631      -42943.76      -42404.057    
     26000   543.67818     -14565.735     -42972.415     -42372.792    
     26100   523.74459      8354.7649     -42946.969     -42369.331    
     26200   501.78797      15331.68      -42917.784     -42364.362    
     26300   521.18908     -11113.18      -42923.709     -42348.89     
     26400   549.9473      -4989.9587     -42879.376     -42272.839    
     26500   557.72453      5488.2157     -42895.743     -42280.628    
     26600   520.76903      998.40425     -42908.971     -42334.615    
     26700   497.13057     -6519.0264     -42915.647     -42367.362    
     26800   509.52092     -1691.0416     -42945.739     -42383.789    
     26900   498.1794      -1299.9076     -42928.89      -42379.448    
     27000   533.54981      11240.276     -42908.401     -42319.949    
     27100   540.82508     -9823.0384     -42904.437     -42307.961    
     27200   516.01885      8675.5393     -42918.386     -42349.269    
     27300   519.03743     -2833.6635     -42935.139     -42362.692    
     27400   546.86589      13359.35      -42965.337     -42362.199    
     27500   485.12893      3064.4831     -42899.153     -42364.104    
     27600   508.38144      28664.614     -42881.611     -42320.918    
     27700   563.33719      10926.216     -42901.328     -42280.023    
     27800   521.15171     -726.45405     -42880.412     -42305.634    
     27900   532.25659      16662.634     -42933.834     -42346.808    
     28000   530.41164      5123.6772     -42945.254     -42360.263    
     28100   540.6785       4779.2838     -42951.34      -42355.026    
     28200   500.76875     -108.97305     -42891.336     -42339.038    
     28300   522.7719      -1464.1072     -42891.219     -42314.654    
     28400   552.44126     -3328.3468     -42907.238     -42297.951    
     28500   539.13196     -3453.3972     -42894.59      -42299.982    
     28600   533.69744      17935.253     -42905.026     -42316.412    
     28700   519.57518      11202.029     -42904.252     -42331.213    
     28800   555.95483      18514.203     -42938.774     -42325.612    
     28900   539.45691      2739.1353     -42873.968     -42279.002    
     29000   533.66564     -4443.3084     -42835.606     -42247.026    
     29100   507.49776      36017.03      -42846.975     -42287.255    
     29200   527.01214     -1032.2837     -42910.161     -42328.92     
     29300   553.51752     -1260.9628     -42928.907     -42318.433    
     29400   554.54097      6573.2474     -42921.909     -42310.306    
     29500   526.13413      14185.539     -42893.538     -42313.265    
     29600   547.70312     -2992.7337     -42910.061     -42306        
     29700   565.76196      6092.1445     -42907.014     -42283.035    
     29800   551.09077      4291.6356     -42874.053     -42266.255    
     29900   578.86319      621.18816     -42891.328     -42252.9      
     30000   557.83697      1007.4985     -42846.84      -42231.602    
     30100   555.18621      14615.942     -42845.195     -42232.88     
     30200   560.09121      20034.411     -42905.093     -42287.369    
     30300   534.97166      5895.1311     -42899.281     -42309.261    
     30400   566.91573      5460.8941     -42911.179     -42285.927    
     30500   590.72663     -8853.2723     -42890.363     -42238.851    
     30600   590.63373      6950.1698     -42849.032     -42197.622    
     30700   546.43361      17347.833     -42868.841     -42266.179    
     30800   536.04026     -5836.5406     -42904.253     -42313.054    
     30900   548.39637      5846.3773     -42912.698     -42307.871    
     31000   527.05029      3341.1751     -42836.868     -42255.584    
     31100   582.51217      17194.197     -42851.339     -42208.887    
     31200   569.38352      416.57062     -42839.782     -42211.809    
     31300   558.39858      1460.5424     -42862.052     -42246.194    
     31400   562.13517      3412.2824     -42893.449     -42273.47     
     31500   532.01129     -1763.0952     -42930.282     -42343.527    
     31600   549.17533     -2793.9354     -42931.628     -42325.943    
     31700   536.0748      -7157.3206     -42864.555     -42273.318    
     31800   541.86408     -3781.2721     -42834.685     -42237.063    
     31900   554.295        1012.325      -42811.864     -42200.532    
     32000   595.30144      21740.136     -42832.394     -42175.836    
     32100   596.60108      6302.7895     -42856.952     -42198.961    
     32200   512.10185     -16609.485     -42843.059     -42278.262    
     32300   572.82066      18069.158     -42901.911     -42270.147    
     32400   577.13597      26974.834     -42864.488     -42227.965    
     32500   577.75054      2672.6004     -42828.285     -42191.084    
     32600   604.37701      11068.653     -42849.432     -42182.865    
     32700   574.2573      -1232.6459     -42851.143     -42217.795    
     32800   556.12106      5803.9071     -42852.401     -42239.056    
     32900   566.90823      2402.8035     -42852.696     -42227.453    
     33000   572.84356      1077.7329     -42856.65      -42224.861    
     33100   571.0183       15331.92      -42848.136     -42218.36     
     33200   602.82734      24584.947     -42853.244     -42188.386    
     33300   617.77433      911.56262     -42827.076     -42145.733    
     33400   575.39599     -4742.644      -42787.69      -42153.086    
     33500   565.80976     -8508.874      -42847.494     -42223.463    
     33600   557.29725     -12155.919     -42846.015     -42231.372    
     33700   568.81351     -6441.4863     -42842.783     -42215.439    
     33800   587.72216     -10968.548     -42823.06      -42174.861    
     33900   630.5432       10971.391     -42811.16      -42115.734    
     34000   624.004       -4602.5036     -42821.24      -42133.026    
     34100   598.74349     -483.40205     -42810.108     -42149.754    
     34200   615.53549      5398.2119     -42858.413     -42179.539    
     34300   590.08111      8294.6417     -42874.097     -42223.296    
     34400   576.32265     -7552.4885     -42871.363     -42235.737    
     34500   612.67032      3648.7452     -42860.873     -42185.159    
     34600   617.07978      3586.1912     -42802.385     -42121.808    
     34700   599.82883      11617.643     -42793.402     -42131.851    
     34800   610.0675       7156.9194     -42842.884     -42170.041    
     34900   593.76724      5710.2499     -42857.685     -42202.819    
     35000   555.2874       13048.604     -42823.178     -42210.752    
     35100   638.32559      17852.674     -42836.282     -42132.273    
     35200   637.74364      10167.102     -42805.667     -42102.3      
     35300   630.40685      3606.9895     -42823.024     -42127.749    
     35400   584.85406     -7536.7631     -42825.282     -42180.246    
     35500   588.80077      14882.264     -42843.639     -42194.251    
     35600   612.12285      5897.1426     -42860.77      -42185.66     
     35700   619.33656      2539.1597     -42851.915     -42168.849    
     35800   575.79454      12861.382     -42796.34      -42161.296    
     35900   594.32953      2359.3924     -42807.997     -42152.511    
     36000   576.66264      1124.5425     -42786.548     -42150.547    
     36100   603.20257      2432.7374     -42795.758     -42130.486    
     36200   644.36374      2549.7581     -42801.054     -42090.386    
     36300   634.01174     -3155.3593     -42767.416     -42068.164    
     36400   605.63252     -1885.511      -42783.888     -42115.936    
     36500   601.35106      1305.0945     -42812.101     -42148.871    
     36600   618.57638      16308.789     -42835.529     -42153.301    
     36700   593.02306      7471.6287     -42792.392     -42138.347    
     36800   587.34872      5372.6662     -42758.717     -42110.931    
     36900   639.49158      9658.9547     -42777.797     -42072.502    
     37000   664.91967      13043.689     -42790.506     -42057.166    
     37100   594.53277     -9235.1661     -42781.774     -42126.064    
     37200   626.59768     -1991.4804     -42844.198     -42153.123    
     37300   625.81677      15933.248     -42838.387     -42148.174    
     37400   600.61574     -5093.9111     -42781.905     -42119.487    
     37500   638.93266      1709.5486     -42771.385     -42066.706    
     37600   639.43848      13407.543     -42763.577     -42058.34     
     37700   620.26288     -5472.7777     -42761.539     -42077.452    
     37800   625.96622      13254.422     -42798.51      -42108.132    
     37900   650.85217      10380.414     -42843.101     -42125.276    
     38000   636.84317      12669.148     -42823.189     -42120.815    
     38100   652.87069      7723.3282     -42791.048     -42070.997    
     38200   633.00966      6632.6597     -42733.711     -42035.565    
     38300   646.96155     -2516.6013     -42737.638     -42024.105    
     38400   580.48404      7193.9346     -42724.267     -42084.051    
     38500   631.82581     -6027.4243     -42821.95      -42125.109    
     38600   649.42911      5682.4602     -42826.485     -42110.23     
     38700   620.63082      14928.296     -42746.503     -42062.009    
     38800   687.61958      16517.713     -42766.762     -42008.387    
     38900   613.32476      9768.3978     -42709.921     -42033.486    
     39000   660.5649       22951.053     -42788.139     -42059.602    
     39100   631.96008      8923.5837     -42788.119     -42091.13     
     39200   609.01589      16176.303     -42781.769     -42110.085    
     39300   624.63045     -3704.6        -42801.546     -42112.641    
     39400   648.1683      -1863.479      -42782.184     -42067.319    
     39500   641.12144     -5829.0076     -42726.007     -42018.915    
     39600   634.38583      9589.9552     -42704.111     -42004.448    
     39700   631.33739     -18397.147     -42728.701     -42032.4      
     39800   608.21236     -6543.6789     -42784.138     -42113.341    
     39900   623.36243     -610.00896     -42802.008     -42114.502    
     40000   645.84341      10103.969     -42774.298     -42061.998    
     40100   640.11622      10759.05      -42739.178     -42033.194    
     40200   610.07357     -8907.5382     -42706.234     -42033.384    
     40300   698.63015      13113.701     -42790.8       -42020.281    
     40400   678.77613      15792.718     -42765.725     -42017.103    
     40500   627.75497     -8423.2259     -42792.767     -42100.416    
     40600   649.48162     -1232.226      -42831.686     -42115.373    
     40700   626.36714     -5275.381      -42773.815     -42082.995    
     40800   642.52482     -2787.3454     -42732.596     -42023.955    
     40900   690.01778     -8967.4407     -42756.541     -41995.521    
     41000   642.09019     -2005.1788     -42718.417     -42010.256    
     41100   708.00032      1542.2985     -42781.923     -42001.07     
     41200   633.94191     -1886.4645     -42713.352     -42014.178    
     41300   662.75406      28287.196     -42760.596     -42029.645    
     41400   655.2059      -5065.7247     -42837.174     -42114.548    
     41500   687.06326      8642.8462     -42863.694     -42105.932    
     41600   704.0393       25488.101     -42820.442     -42043.957    
     41700   671.0766       11624         -42752.175     -42012.045    
     41800   670.74309      7645.8749     -42746.04      -42006.278    
     41900   653.3768       14563.882     -42726.658     -42006.049    
     42000   698.25994      4767.4678     -42772.963     -42002.853    
     42100   691.70809      9729.3339     -42784.156     -42021.272    
     42200   693.41633      10648.474     -42817.327     -42052.559    
     42300   637.94129      18986.779     -42775.511     -42071.926    
     42400   683.14559      810.08189     -42767.335     -42013.894    
     42500   675.28194     -5109.9464     -42709.685     -41964.917    
     42600   685.97318     -11127.991     -42729.732     -41973.172    
     42700   633.74683      12749.539     -42697.016     -41998.056    
     42800   676.68648      15379.251     -42775.751     -42029.434    
     42900   687.06739      19114.033     -42821.591     -42063.825    
     43000   654.85176      6251.2194     -42775.59      -42053.354    
     43100   682.75897      2431.5827     -42734.456     -41981.441    
     43200   749.06021     -11326.191     -42781.856     -41955.718    
     43300   667.1013       4893.5107     -42727.336     -41991.59     
     43400   663.14313      9338.3824     -42758.789     -42027.409    
     43500   671.52893     -2535.0238     -42770.866     -42030.237    
     43600   700.62986      3657.538      -42689.895     -41917.17     
     43700   745.00854      10843.702     -42727.34      -41905.67     
     43800   677.99245     -14676.329     -42704.545     -41956.788    
     43900   673.70131      10278.853     -42744.857     -42001.832    
     44000   670.47609      16449.215     -42749.432     -42009.964    
     44100   710.09638      9068.8171     -42721.25      -41938.085    
     44200   717.98969      6127.9059     -42686.873     -41895.003    
     44300   712.26982      7501.6188     -42706.486     -41920.924    
     44400   613.82395      5843.0978     -42636.589     -41959.603    
     44500   695.04929      18210.818     -42737.554     -41970.984    
     44600   673.67077      844.16217     -42761.163     -42018.171    
     44700   681.65282      11728.727     -42833.382     -42081.588    
     44800   696.88941      13355.56      -42816.828     -42048.229    
     44900   717.27331      10387.536     -42778.061     -41986.98     
     45000   700.42475      3128.3119     -42733.477     -41960.979    
     45100   690.57342      5066.5701     -42688.241     -41926.608    
     45200   736.76518     -5708.0645     -42719.935     -41907.357    
     45300   711.37147     -1196.9575     -42737.066     -41952.494    
     45400   667.60765      9347.6918     -42768.003     -42031.699    
     45500   659.53317      13766.182     -42754.677     -42027.278    
     45600   671.77615      9552.8126     -42715.963     -41975.061    
     45700   675.17813      14957.638     -42691.738     -41947.084    
     45800   709.12977      12205.725     -42721.673     -41939.574    
     45900   725.3313       7786.2239     -42702.454     -41902.486    
     46000   764.2184       14343.511     -42677.003     -41834.147    
     46100   748.9231       9704.2225     -42662.204     -41836.217    
     46200   726.99864     -6153.1698     -42730.408     -41928.601    
     46300   660.15938      19985.23      -42693.458     -41965.368    
     46400   640.59241      21069.877     -42653.146     -41946.637    
     46500   727.4691       26831.983     -42702.234     -41899.908    
     46600   727.28213      7066.738      -42671.103     -41868.984    
     46700   713.77309     -1831.3979     -42571.606     -41784.386    
     46800   767.68246      12198.964     -42611.739     -41765.062    
     46900   726.85926      17267.621     -42636.05      -41834.397    
     47000   696.81314      11661.385     -42635.967     -41867.452    
     47100   744.39488      26368.194     -42704.011     -41883.018    
     47200   716.47219      7132.1758     -42692.998     -41902.801    
     47300   651.69455      21718.352     -42664.778     -41946.025    
     47400   715.453        10284.898     -42741.791     -41952.718    
     47500   717.89247      13554.051     -42703.114     -41911.35     
     47600   762.53225      15522.785     -42680.221     -41839.224    
     47700   718.97427      19248.889     -42632.92      -41839.964    
     47800   758.10818      9316.7603     -42713.45      -41877.333    
     47900   672.37686      2768.7359     -42704.833     -41963.269    
     48000   689.26202     -4502.6903     -42700.638     -41940.451    
     48100   709.27985      27672.912     -42675.389     -41893.124    
     48200   769.95398      1422.0555     -42713.212     -41864.03     
     48300   755.70908      16617.208     -42674.822     -41841.35     
     48400   781.282        4783.7766     -42644.683     -41783.007    
     48500   770.84933     -48.661817     -42586.424     -41736.254    
     48600   740.63382      14722.938     -42636.829     -41819.984    
     48700   700.71403      2314.8263     -42633.403     -41860.586    
     48800   751.5903       14854.92      -42669.309     -41840.381    
     48900   742.69755      5806.1444     -42618.461     -41799.34     
     49000   770.49547      21993.139     -42616.541     -41766.762    
     49100   768.56171      5427.1466     -42648.192     -41800.545    
     49200   729.71753      19228.969     -42693.272     -41888.467    
     49300   722.91222     -3142.1025     -42715.455     -41918.155    
     49400   731.74455      16375.332     -42728.756     -41921.715    
     49500   755.8001       28370.78      -42688.725     -41855.153    
     49600   756.30673      9102.5747     -42625.949     -41791.818    
     49700   769.87805      4439.6137     -42652.25      -41803.152    
     49800   740.72528      9237.3644     -42676.165     -41859.219    
     49900   751.93766      10419.256     -42728.577     -41899.265    
     50000   709.3306       2342.195      -42670.605     -41888.285    
     50100   783.02855     -10418.379     -42731.367     -41867.765    
     50200   757.13577      25966.637     -42696.805     -41861.76     
     50300   779.07897      1974.561      -42681.86      -41822.614    
     50400   763.16159     -7632.4394     -42589.734     -41748.044    
     50500   781.5218       21111.201     -42583.23      -41721.289    
     50600   756.74581      17246.615     -42671.437     -41836.823    
     50700   770.64958      4805.9958     -42718.098     -41868.149    
     50800   775.67014      10116.846     -42726.94      -41871.453    
     50900   775.11067      18760.852     -42682.305     -41827.436    
     51000   762.8997       22898.536     -42595.279     -41753.877    
     51100   788.71283      16296.609     -42600.949     -41731.078    
     51200   699.74619      897.66292     -42526.024     -41754.274    
     51300   746.80672      3722.3526     -42585.026     -41761.373    
     51400   774.61443      6574.2555     -42617.478     -41763.156    
     51500   741.20463      5223.3966     -42669.652     -41852.178    
     51600   685.00628      1023.7544     -42642.088     -41886.595    
     51700   734.10166      18001.315     -42629.52      -41819.88     
     51800   752.62995      2394.1083     -42587.208     -41757.133    
     51900   756.3454       19432.032     -42549.768     -41715.594    
     52000   772.66763      7935.7305     -42541.809     -41689.634    
     52100   772.53104      5340.6046     -42569.666     -41717.642    
     52200   749.83365      20536.338     -42642.03      -41815.039    
     52300   777.68186      11692.048     -42701.385     -41843.68     
     52400   697.2095       15000.147     -42581.755     -41812.803    
     52500   725.27527      284.44197     -42555.268     -41755.362    
     52600   775.95957      4761.3713     -42583.366     -41727.56     
     52700   838.12333      9674.8518     -42633.362     -41708.996    
     52800   774.31584      12128.161     -42598.564     -41744.571    
     52900   716.72258      6074.623      -42619.193     -41828.72     
     53000   700.2897       22101.344     -42611.501     -41839.151    
     53100   784.72475      19805.363     -42645.842     -41780.37     
     53200   775.55591     -10258.29      -42613.792     -41758.431    
     53300   763.30818      21895.676     -42566.526     -41724.673    
     53400   805.99264      12633.999     -42579.523     -41690.594    
     53500   809.45439      13683.797     -42599.486     -41706.739    
     53600   814.34696      15596.245     -42690.875     -41792.732    
     53700   744.92283      7422.9714     -42653.875     -41832.3      
     53800   784.13985      17260.525     -42644.677     -41779.85     
     53900   817.60642     -2590.9591     -42631.658     -41729.92     
     54000   791.78006      7821.0308     -42581.147     -41707.893    
     54100   835.02879      20637.283     -42623.61      -41702.657    
     54200   745.94804     -3011.4238     -42555.201     -41732.495    
     54300   744.26797      13508.062     -42573.057     -41752.204    
     54400   764.22669     -132.16467     -42600.207     -41757.342    
     54500   810.37733      12390.55      -42601.012     -41707.247    
     54600   834.98458     -766.41925     -42591.048     -41670.144    
     54700   783.88438      4250.7749     -42562.273     -41697.728    
     54800   729.16803      17011.997     -42564.388     -41760.189    
     54900   759.00423      1896.5954     -42637.164     -41800.058    
     55000   794.85625      17967.439     -42640.221     -41763.575    
     55100   818.5838      -2219.1116     -42563.696     -41660.88     
     55200   810.0823       26972.721     -42520.648     -41627.209    
     55300   877.873        18067.173     -42602.314     -41634.108    
     55400   786.09926      3129.6562     -42571.913     -41704.924    
     55500   760.5654       30682.233     -42545.284     -41706.456    
     55600   784.03875      7545.2567     -42525.315     -41660.599    
     55700   854.09744      30893.071     -42574.382     -41632.398    
     55800   806.38059      10570.152     -42546.505     -41657.148    
     55900   823.52263     -17480.551     -42589.484     -41681.221    
     56000   780.32088     -3342.8584     -42544.059     -41683.443    
     56100   817.7382       5266.005      -42533.399     -41631.515    
     56200   865.83785      10312.213     -42537.435     -41582.503    
     56300   801.68344      18317.475     -42492.891     -41608.714    
     56400   844.32802      23915.362     -42632.646     -41701.437    
     56500   761.78458      8491.3193     -42585.168     -41744.996    
     56600   812.55012      9804.0029     -42604.187     -41708.026    
     56700   843.08048      10010.866     -42586.091     -41656.258    
     56800   836.94417     -1960.0794     -42576.337     -41653.272    
     56900   848.51035      9306.4849     -42590.197     -41654.375    
     57000   796.34647      16573.507     -42533.789     -41655.498    
     57100   816.72598     -6363.1632     -42526.797     -41626.031    
     57200   871.67882      3565.8298     -42516.087     -41554.712    
     57300   887.22442      12202.111     -42565.796     -41587.277    
     57400   827.44455      13485.234     -42584.679     -41672.09     
     57500   820.38748     -11796.897     -42568.331     -41663.526    
     57600   812.20396      8288.5772     -42516.446     -41620.667    
     57700   890.40761      19259.548     -42541.043     -41559.012    
     57800   870.93377      6978.3573     -42515.161     -41554.608    
     57900   812.91831     -44.443785     -42574.608     -41678.041    
     58000   751.95249     -9135.0913     -42539.677     -41710.349    
     58100   796.2324      -4021.6401     -42540.821     -41662.657    
     58200   814.03724      2233.4071     -42499.029     -41601.227    
     58300   833.16835      17092.716     -42495.483     -41576.582    
     58400   854.23739     -3111.2066     -42511.264     -41569.126    
     58500   806.07223      26510.177     -42529.533     -41640.516    
     58600   804.78976     -2528.8758     -42604.562     -41716.96     
     58700   784.58933     -19355.276     -42541.671     -41676.348    
     58800   799.07917     -2165.0164     -42483.413     -41602.109    
     58900   836.39095      3535.3879     -42505.297     -41582.842    
     59000   767.7292       3050.9826     -42443.385     -41596.656    
     59100   877.95171     -578.02408     -42523.449     -41555.156    
     59200   909.63713      8082.442      -42454.656     -41451.418    
     59300   908.15486      7280.5679     -42474.233     -41472.629    
     59400   830.19163      11634.901     -42482.519     -41566.901    
     59500   854.75153      19506.58      -42518.195     -41575.49     
     59600   871.30669     -11187.064     -42556.097     -41595.133    
     59700   887.86223      27221.647     -42610.42      -41631.197    
     59800   750.16062      7555.4136     -42520.168     -41692.816    
     59900   787.43438      4528.9981     -42576.987     -41708.526    
     60000   870.55619     -164.72072     -42556.996     -41596.859    
     60100   863.40007      4647.5296     -42506.53      -41554.286    
     60200   822.69803      10891.315     -42489.827     -41582.473    
     60300   850.67402      453.34019     -42591.642     -41653.434    
     60400   824.51765      21757.804     -42589.7       -41680.339    
     60500   847.14345      2441.1532     -42567.699     -41633.385    
     60600   889.57125      5633.979      -42521.556     -41540.448    
     60700   851.24016      7417.157      -42505.876     -41567.044    
     60800   828.62388      11479.692     -42518.368     -41604.479    
     60900   845.93152      1754.1219     -42533.788     -41600.81     
     61000   902.28722      17013.271     -42546.909     -41551.777    
     61100   838.7421       8452.4775     -42401.144     -41476.095    
     61200   901.84766      5968.5207     -42452.097     -41457.449    
     61300   920.41668      20019.864     -42593.347     -41578.22     
     61400   861.03381      13880.533     -42569.752     -41620.118    
     61500   865.33328      29477.294     -42546.596     -41592.22     
     61600   881.27607      16160.102     -42507.874     -41535.915    
     61700   886.42061      9532.5319     -42486.955     -41509.322    
     61800   924.69227      26475.491     -42606.7       -41586.857    
     61900   788.33549      12654.96      -42538.26      -41668.805    
     62000   867.66537     -5557.9827     -42585.022     -41628.075    
     62100   896.2477       4964.12       -42540.378     -41551.907    
     62200   907.06689      1771.3083     -42532.437     -41532.033    
     62300   819.07688      17241.452     -42438.722     -41535.362    
     62400   866.88669      18892.445     -42492.376     -41536.287    
     62500   921.27873      3944.5148     -42544.741     -41528.663    
     62600   935.40599      35901.884     -42535.322     -41503.663    
     62700   927.56852      17853.486     -42507.281     -41484.266    
     62800   824.96233      22137.216     -42464.215     -41554.364    
     62900   846.74328      6046.1007     -42530.776     -41596.903    
     63000   862.93523      11489.914     -42522.621     -41570.89     
     63100   898.06173      5892.4788     -42436.958     -41446.485    
     63200   934.2753      -161.78886     -42467.937     -41437.525    
     63300   858.51756      21673.036     -42446.47      -41499.611    
     63400   915.27253      1799.3855     -42563.896     -41554.442    
     63500   923.67022      1252.9948     -42604.058     -41585.342    
     63600   869.64266      753.74049     -42533.706     -41574.577    
     63700   843.32306      2580.8573     -42477.744     -41547.644    
     63800   869.40828      14563.424     -42475.769     -41516.899    
     63900   882.79459     -1343.9148     -42442.502     -41468.868    
     64000   914.65485     -11470.014     -42421.388     -41412.615    
     64100   868.12279      10739.059     -42393.644     -41436.192    
     64200   841.30176      19160.607     -42468.881     -41541.009    
     64300   870.22013      1914.735      -42526.981     -41567.216    
     64400   826.96185     -4910.7681     -42495.23      -41583.174    
     64500   915.41461      15940.442     -42521.031     -41511.42     
     64600   917.53413      17316.242     -42453.664     -41441.715    
     64700   918.06624     -6750.1741     -42442.98      -41430.445    
     64800   941.62656      8002.2978     -42528.839     -41490.32     
     64900   867.38798      8356.1526     -42512.77      -41556.128    
     65000   891.49101      20640.08      -42532.609     -41549.384    
     65100   853.76803      22217.3       -42434.171     -41492.55     
     65200   933.69377      5284.8142     -42473.804     -41444.033    
     65300   944.8338       6635.7915     -42471.275     -41429.218    
     65400   903.11759      28406.932     -42487.178     -41491.13     
     65500   864.64006      34940.71      -42527.463     -41573.852    
     65600   850.43408      273.11408     -42478.275     -41540.331    
     65700   945.34897     -35.274697     -42494.052     -41451.427    
     65800   891.73236      5802.6009     -42434.914     -41451.423    
     65900   914.74493     -4178.4806     -42481.762     -41472.891    
     66000   911.20033      18665.528     -42517.284     -41512.321    
     66100   827.73305      27222.005     -42506.79      -41593.884    
     66200   922.02283      10570.426     -42566.333     -41549.434    
     66300   881.82359     -5476.3027     -42421.412     -41448.849    
     66400   888.07166      4599.889      -42405.712     -41426.258    
     66500   955.4076       5380.7113     -42484.035     -41430.316    
     66600   962.8377       13110.103     -42519.761     -41457.848    
     66700   875.00627     -12662.728     -42515.603     -41550.559    
     66800   913.45224      10771.274     -42551.929     -41544.483    
     66900   853.92825      6601.8354     -42406.941     -41465.144    
     67000   899.74329      18193.212     -42429.505     -41437.178    
     67100   933.90045      13566.419     -42453.145     -41423.147    
     67200   1004.462      -13304.438     -42507.16      -41399.339    
     67300   845.37072      15150.696     -42375.078     -41442.718    
     67400   892.84927     -17422.518     -42488.98      -41504.257    
     67500   960.62153      188.09377     -42549.543     -41490.074    
     67600   950.96802      22096.843     -42435.343     -41386.521    
     67700   980.00631     -9871.6955     -42412.403     -41331.554    
     67800   907.23118      3231.1        -42368.573     -41367.988    
     67900   914.41377      18332.216     -42404.725     -41396.218    
     68000   922.18889     -12383.224     -42425.277     -41408.195    
     68100   928.06442      2348.5363     -42438.45      -41414.888    
     68200   900.39975     -2870.6426     -42410.005     -41416.954    
     68300   959.87025      14515.941     -42442.285     -41383.644    
     68400   921.5847       7944.028      -42409.138     -41392.723    
     68500   876.61821      11082.923     -42446.845     -41480.023    
     68600   959.45629      12508.444     -42528.084     -41469.9      
     68700   904.8192       10105.406     -42403.389     -41405.464    
     68800   942.15128     -6382.6462     -42362.669     -41323.571    
     68900   973.7336       9785.3381     -42381.545     -41307.615    
     69000   1004.6749     -5952.6969     -42455.754     -41347.698    
     69100   898.79186     -6626.6115     -42364.743     -41373.466    
     69200   972.21962     -5723.7473     -42470.175     -41397.914    
     69300   935.63554      4509.4166     -42500.156     -41468.244    
     69400   916.62161      4987.0733     -42528.965     -41518.023    
     69500   859.78923      14692.521     -42407.161     -41458.9      
     69600   982.10003      22794.197     -42429.978     -41346.82     
     69700   983.58127      4921.3978     -42426.521     -41341.729    
     69800   938.84639      24649.623     -42442.446     -41406.993    
     69900   940.89891      7116.4717     -42501.392     -41463.675    
     70000   943.32711     -6751.3858     -42493.004     -41452.609    
     70100   1013.4205      38088.54      -42456.773     -41339.072    
     70200   1009.1252     -12238.821     -42426.655     -41313.691    
     70300   932.9165       26516.203     -42387.107     -41358.193    
     70400   961.23847      16559.335     -42441.855     -41381.705    
     70500   970.45207      11741.367     -42459.005     -41388.694    
     70600   946.08623     -15321.81      -42431.035     -41387.597    
     70700   958.09673      28600.636     -42378.33      -41321.645    
     70800   1068.5632      22248.729     -42419.62      -41241.102    
     70900   1017.7019     -885.37788     -42414.823     -41292.4      
     71000   960.49573      6296.2443     -42420.601     -41361.27     
     71100   960.83411      12058.786     -42412.037     -41352.333    
     71200   990.58909      4038.8156     -42410.467     -41317.947    
     71300   1004.9634      844.91004     -42398.866     -41290.493    
     71400   986.14416      30490.344     -42364.754     -41277.136    
     71500   942.79766      9227.5483     -42341.622     -41301.81     
     71600   905.61938      17699.032     -42326.417     -41327.609    
     71700   993.69618      7949.5403     -42442.498     -41346.55     
     71800   893.38008      17774.41      -42384.075     -41398.766    
     71900   905.91313     -4496.6524     -42412.358     -41413.227    
     72000   996.12053      6612.5608     -42422.021     -41323.4      
     72100   1025.6676      7778.9495     -42379.151     -41247.943    
     72200   997.03499     -241.99152     -42364.597     -41264.968    
     72300   922.95286      19500.425     -42374.939     -41357.015    
     72400   933.15088      17154.178     -42416.087     -41386.915    
     72500   1002.129       32180.452     -42470.12      -41364.872    
     72600   1034.9037      27425.95      -42471.645     -41330.25     
     72700   991.39143      10902.137     -42388.049     -41294.644    
     72800   984.54037      16966.157     -42351.958     -41266.109    
     72900   961.48335      11171.94      -42323.89      -41263.47     
     73000   1047.0349      18371.376     -42409.728     -41254.954    
     73100   961.6665       22594.394     -42320.654     -41260.032    
     73200   972.34523      5093.1674     -42319.739     -41247.34     
     73300   934.76221      10353.214     -42328.53      -41297.581    
     73400   878.91541      19679.962     -42373.997     -41404.641    
     73500   1001.536       937.5917      -42493.631     -41389.037    
     73600   1021.514       9023.1231     -42442.437     -41315.81     
     73700   977.69066      9510.5361     -42350.112     -41271.818    
     73800   966.92301      10687.779     -42320.03      -41253.611    
     73900   1018.0122      18495.693     -42367.776     -41245.011    
     74000   984.32634      785.59814     -42362.518     -41276.904    
     74100   999.86333      15361.089     -42445.708     -41342.959    
     74200   900.91475     -1165.098      -42379.972     -41386.353    
     74300   966.22351      16935.993     -42373.951     -41308.303    
     74400   1022.1757      1172.0958     -42359.126     -41231.769    
     74500   998.98589      6808.6014     -42336.447     -41234.665    
     74600   978.54467      19638.123     -42343.606     -41264.37     
     74700   937.38075      15386.589     -42369.935     -41336.098    
     74800   961.92012      5337.1515     -42471.173     -41410.272    
     74900   918.40119      16661.301     -42406.455     -41393.55     
     75000   1003.4089      7520.8924     -42359.979     -41253.32     
     75100   1006.2063      19911.989     -42350.827     -41241.082    
     75200   1000.6151     -2830.0927     -42344.283     -41240.705    
     75300   1017.8856      11342.837     -42287.094     -41164.469    
     75400   1084.7426      27122.115     -42334.423     -41138.06     
     75500   1056.3747      7549.9443     -42397.468     -41232.393    
     75600   931.5453       28915.842     -42362.64      -41335.239    
     75700   986.0648      -10895.275     -42407.74      -41320.21     
     75800   1024.516       34426.265     -42423.663     -41293.724    
     75900   1040.5042     -10638.758     -42351.282     -41203.711    
     76000   1068.7338      8401.6607     -42306.701     -41127.994    
     76100   1004.5778      7358.1946     -42270.984     -41163.035    
     76200   971.05878     -10267.546     -42270.425     -41199.444    
     76300   966.30715      33035.937     -42281.362     -41215.622    
     76400   1032.6985      16277.122     -42380.303     -41241.34     
     76500   961.2761       5473.7704     -42406.423     -41346.232    
     76600   944.86366      3930.8848     -42442.403     -41400.313    
     76700   952.70668      24206.973     -42376.621     -41325.881    
     76800   1016.1874     -12606.494     -42369.48      -41248.727    
     76900   977.63637     -5716.41       -42318.669     -41240.434    
     77000   1024.2244      3827.5297     -42346.347     -41216.731    
     77100   1027.602       16122.402     -42292.017     -41158.676    
     77200   1116.373       3736.0076     -42291.467     -41060.22     
     77300   1108.916       12552.871     -42345.497     -41122.474    
     77400   1011.1993      12579.14      -42336.041     -41220.789    
     77500   991.68132      3765.133      -42320.459     -41226.734    
     77600   1054.3714      11046.903     -42374.388     -41211.522    
     77700   1055.9892      15653.215     -42313.165     -41148.515    
     77800   1087.8098      4797.4269     -42276.591     -41076.846    
     77900   1077.3942      8424.8397     -42320.618     -41132.361    
     78000   966.0388       13829.65      -42320.812     -41255.368    
     78100   1051.1621      8723.0613     -42411.035     -41251.708    
     78200   1052.2544      9719.1954     -42368.885     -41208.354    
     78300   1111.4619      22649.602     -42340.859     -41115.028    
     78400   1053.8321      17216.148     -42276.097     -41113.826    
     78500   982.07034      1486.6707     -42341.018     -41257.893    
     78600   987.32138      26934.434     -42401.702     -41312.785    
     78700   1004.447       10673.742     -42369.002     -41261.198    
     78800   1057.3336      8511.7856     -42343.895     -41177.762    
     78900   1058.7526      1054.4604     -42325.058     -41157.36     
     79000   1043.8524      989.27906     -42323.534     -41172.27     
     79100   961.98093      22799.967     -42308.461     -41247.492    
     79200   1034.7638      7011.3574     -42459.546     -41318.305    
     79300   980.44283      18299.265     -42410.88      -41329.55     
     79400   1022.1876      4276.8633     -42323.928     -41196.558    
     79500   1093.7635      293.8218      -42345.715     -41139.403    
     79600   1082.0362      8694.5306     -42336.135     -41142.757    
     79700   995.07101      36720.338     -42310.548     -41213.084    
     79800   1004.8891      24419.009     -42325.956     -41217.664    
     79900   1110.295       5240.2223     -42320.567     -41096.023    
     80000   1108.8194     -2590.8849     -42284.012     -41061.095    
     80100   1080.0968      31601.02      -42287.988     -41096.75     
     80200   1033.4359      6106.2397     -42264.667     -41124.891    
     80300   1031.5031      2920.4945     -42274.815     -41137.171    
     80400   1018.6031      13144.142     -42268.896     -41145.479    
     80500   1092.2691      3437.9438     -42291.117     -41086.453    
     80600   1095.1011      3708.6507     -42178.839     -40971.053    
     80700   1130.4212      25914.576     -42240.918     -40994.176    
     80800   1051.7496      4244.0286     -42263.335     -41103.361    
     80900   1096.8493      6685.1223     -42329.4       -41119.685    
     81000   1040.9954      21559.96      -42270.096     -41121.982    
     81100   1041.0955     -3318.2256     -42281.079     -41132.855    
     81200   1003.2161      12520.434     -42257.469     -41151.022    
     81300   1097.6084     -1933.1739     -42313.257     -41102.705    
     81400   1049.4078      24906.631     -42211.396     -41054.005    
     81500   1082.985       33103.325     -42203.831     -41009.407    
     81600   1101.1867      13144.248     -42214.113     -40999.615    
     81700   1130.1524      5686.6274     -42353.449     -41107.004    
     81800   1047.8452      6804.8951     -42344.912     -41189.244    
     81900   1040.1752      1790.8859     -42308.093     -41160.884    
     82000   1050.966       14124.405     -42251.833     -41092.723    
     82100   1059.3561     -4560.3293     -42199.631     -41031.268    
     82200   1131.2798      16443.096     -42255.99      -41008.302    
     82300   1100.7563      12874.472     -42237.843     -41023.819    
     82400   1135.4339      14950.391     -42292.165     -41039.896    
     82500   1085.7719      11389.725     -42285.67      -41088.173    
     82600   1069.0597      5559.7973     -42292.873     -41113.807    
     82700   1072.159      -8323.9465     -42308.319     -41125.835    
     82800   1074.9176      15384.887     -42248.512     -41062.986    
     82900   1118.6098      11411.648     -42199.973     -40966.258    
     83000   1115.7802      31513.086     -42218.794     -40988.2      
     83100   1096.1418      13888.37      -42292.506     -41083.572    
     83200   1086.9193      4392.7094     -42295.212     -41096.449    
     83300   1070.0014     -6672.4899     -42248.583     -41068.478    
     83400   1145.0364      163.50543     -42298.348     -41035.487    
     83500   1077.5629      19614.773     -42206.604     -41018.161    
     83600   1139.5104      20933.277     -42226.782     -40970.016    
     83700   1069.73        9743.7398     -42167.871     -40988.066    
     83800   1077.1772      23466.608     -42251.991     -41063.973    
     83900   1037.4648      12085.463     -42302.429     -41158.21     
     84000   1058.098       11601.87      -42327.449     -41160.473    
     84100   1102.3912      9774.6969     -42314.247     -41098.42     
     84200   1003.0438     -8308.7264     -42176.174     -41069.918    
     84300   1103.4745      16901.819     -42254.244     -41037.222    
     84400   1097.0275      23361.992     -42238.566     -41028.655    
     84500   1100.9348      1394.4506     -42297.886     -41083.665    
     84600   1037.0027      3378.1942     -42337.783     -41194.073    
     84700   1089.8697      16313.316     -42373.562     -41171.545    
     84800   1082.2049      12455.854     -42278.699     -41085.135    
     84900   1137.2571     -6595.9232     -42291.089     -41036.809    
     85000   1098.1658     -10647.997     -42249.948     -41038.781    
     85100   1062.1556      1846.6877     -42214.207     -41042.755    
     85200   1118.9583      9897.2462     -42192.317     -40958.219    
     85300   1165.6528      15553.185     -42143.05      -40857.452    
     85400   1181.9282      24095.76      -42181.612     -40878.064    
     85500   1143.126       35248.997     -42257.138     -40996.385    
     85600   1067.367       6670.9198     -42209.896     -41032.697    
     85700   1101.9778      16032.269     -42229.587     -41014.216    
     85800   1135.6812      26849.777     -42233.854     -40981.312    
     85900   1165.0247      23952.246     -42271.972     -40987.066    
     86000   1101.7526      26028.376     -42300.969     -41085.847    
     86100   1028.8871      11041.725     -42290.676     -41155.917    
     86200   1042.7783      19989.925     -42239.236     -41089.156    
     86300   1136.3198      32601.064     -42271.977     -41018.73     
     86400   1127.5925      5624.7513     -42266.64      -41023.019    
     86500   1133.4316     -16165.811     -42309.258     -41059.197    
     86600   1092.57        1288.3848     -42304.826     -41099.831    
     86700   1029.734       9593.4522     -42314.93      -41179.237    
     86800   1114.9156      13010.525     -42401.709     -41172.069    
     86900   1068.6142      20400.646     -42219.041     -41040.467    
     87000   1120.243       11504.188     -42201.525     -40966.01     
     87100   1164.2533     -5667.957      -42238.021     -40953.967    
     87200   1118.4794      14735.201     -42262.625     -41029.055    
     87300   1052.2555      25612.43      -42276.204     -41115.672    
     87400   1025.0471      20037.082     -42212.166     -41081.642    
     87500   1062.4728      14723.122     -42195.055     -41023.254    
     87600   1109.9451      8986.7621     -42213.421     -40989.263    
     87700   1178.488       15184.747     -42281.086     -40981.332    
     87800   1116.7276      23592.956     -42265.631     -41033.992    
     87900   1072.3037     -7623.3027     -42296.005     -41113.362    
     88000   1095.0212     -3390.1828     -42322.773     -41115.075    
     88100   1138.9609      13999.206     -42238.98      -40982.82     
     88200   1148.7212      27694.495     -42211.3       -40944.376    
     88300   1217.425       33955.504     -42308.997     -40966.3      
     88400   1062.0544      15742.058     -42193.167     -41021.828    
     88500   1042.1925      1648.0154     -42229.738     -41080.305    
     88600   1053.0586      30248.916     -42278.56      -41117.142    
     88700   1138.6944      18776.268     -42251.537     -40995.671    
     88800   1166.7598      9949.8772     -42193.837     -40907.018    
     88900   1162.297       4474.5466     -42162.312     -40880.415    
     89000   1083.034      -2124.5685     -42166.088     -40971.61     
     89100   1102.012       36740.77      -42241.385     -41025.976    
     89200   1114.684       5092.9999     -42242.476     -41013.091    
     89300   1193.0559      23823.486     -42150.939     -40835.118    
     89400   1165.7803      11393.6       -42090.893     -40805.154    
     89500   1176.8521      24198.578     -42192.248     -40894.298    
     89600   1095.9618      26460.259     -42199.392     -40990.656    
     89700   1106.175       24148.783     -42203.47      -40983.47     
     89800   1166.2072      27495.94      -42211.259     -40925.049    
     89900   1275.9417      7678.5489     -42247.085     -40839.849    
     90000   1262.246       7072.5174     -42170.696     -40778.565    
     90100   1200.1623      7185.7989     -42169.609     -40845.95     
     90200   1155.0203      2851.7011     -42237.057     -40963.185    
     90300   1110.3287      18854.546     -42206.87      -40982.289    
     90400   1054.2693      50126.471     -42104.682     -40941.929    
     90500   1221.3923      6744.8536     -42172.581     -40825.508    
     90600   1101.9543      6707.3074     -41985.644     -40770.299    
     90700   1203.2118      25408.387     -42142.713     -40815.691    
     90800   1168.8224      19357.594     -42170.81      -40881.716    
     90900   1192.5002      6227.5875     -42266.349     -40951.141    
     91000   1148.3536      15779.184     -42258.485     -40991.966    
     91100   1138.6151      16624.965     -42259.133     -41003.355    
     91200   1151.7947      10673.585     -42194.803     -40924.489    
     91300   1190.9681     -2481.7078     -42133.067     -40819.549    
     91400   1160.9297      23321.184     -42092.335     -40811.946    
     91500   1184.1892      37253.246     -42181.785     -40875.743    
     91600   1125.6651      19658.466     -42241.564     -41000.069    
     91700   1182.5388     -3165.0192     -42287.137     -40982.916    
     91800   1160.1425      15110.822     -42200.185     -40920.664    
     91900   1123.9639     -11989.905     -42123.044     -40883.424    
     92000   1246.4949      5493.5094     -42213.05      -40838.291    
     92100   1155.5459     -19365.764     -42123.096     -40848.645    
     92200   1131.3473      11214.868     -42195.017     -40947.254    
     92300   1092.5125      9965.9489     -42238.918     -41033.986    
     92400   1135.8579      9394.8072     -42205.887     -40953.15     
     92500   1146.0658      4342.0623     -42157.224     -40893.229    
     92600   1241.3187     -1049.2536     -42212.895     -40843.845    
     92700   1199.2141      24303.549     -42135.476     -40812.863    
     92800   1200.0638      18937.436     -42080.102     -40756.552    
     92900   1192.472       23683.7       -42038.377     -40723.2      
     93000   1162.7917      24358.839     -42045.526     -40763.083    
     93100   1195.585       38238.402     -42184.081     -40865.471    
     93200   1159.5683     -1037.8456     -42229.271     -40950.383    
     93300   1222.4008      4739.903      -42300.749     -40952.563    
     93400   1226.098       15116.072     -42243.677     -40891.414    
     93500   1249.1557      24026.943     -42105.12      -40727.426    
     93600   1258.2762      6344.4349     -42128.068     -40740.316    
     93700   1195.7482      22139.378     -42138.63      -40819.84     
     93800   1157.134       22308.709     -42162.12      -40885.918    
     93900   1197.5704      22313.035     -42206.615     -40885.815    
     94000   1252.7441      18749.518     -42207.803     -40826.152    
     94100   1274.0616      3522.1449     -42103.981     -40698.819    
     94200   1270.6106      99.435582     -42119.195     -40717.839    
     94300   1221.446       35335.917     -42207.187     -40860.055    
[...]
    159800   1761.5167      31925.146     -41361.082     -39418.305    
    159900   1794.9829      17694.614     -41458.295     -39478.609    
    160000   1715.344       20602.976     -41525.51      -39633.657    
    160100   1660.6942      37975.528     -41601.583     -39770.004    
    160200   1714.1443      34970.115     -41486.989     -39596.46     
    160300   1868.1135      12129.721     -41448.677     -39388.335    
    160400   1980.3028     -438.66379     -41458.399     -39274.324    
    160500   1964.9419      33993.377     -41473.969     -39306.835    
    160600   1836.0727     -3705.7071     -41532.432     -39507.428    
    160700   1828.2941      29470.616     -41548.273     -39531.848    
    160800   1830.3831      22197.336     -41455.68      -39436.951    
    160900   2016.9368      47022.928     -41504.089     -39279.609    
    161000   1894.8975      42942.448     -41366.104     -39276.222    
    161100   1880.6401      33696.587     -41401.297     -39327.139    
    161200   1814.0108      29428.929     -41360.899     -39360.227    
    161300   1901.8646      8366.1844     -41472.675     -39375.109    
    161400   1875.9678      37032.64      -41461.573     -39392.569    
    161500   1904.2311      33860.271     -41519.26      -39419.084    
    161600   1943.7521      16092.323     -41575.669     -39431.906    
    161700   1878.4062      29590.671     -41473.361     -39401.668    
    161800   1930.8135      17916.038     -41393.883     -39264.389    
    161900   1945.4051      61384.888     -41291.548     -39145.961    
    162000   1877.7962      14849.261     -41342.652     -39271.631    
    162100   1899.5288     -712.51662     -41498.674     -39403.684    
    162200   1850.394       43691.481     -41470.757     -39429.958    
    162300   1974.6387      26254.729     -41546.287     -39368.458    
    162400   2022.8002      16105.696     -41460.535     -39229.589    
    162500   1947.666       12481.428     -41376.383     -39228.303    
    162600   1850.6191      9449.7095     -41527.094     -39486.047    
    162700   1871.7196      54627.357     -41626.228     -39561.909    
    162800   1910.2177      51969.368     -41584.758     -39477.979    
    162900   1968.7603      28931.849     -41527.59      -39356.245    
    163000   1876.9042      20954.236     -41484.362     -39414.325    
    163100   1949.6153      46233.494     -41830.607     -39680.377    
    163200   1763.7189      53648.846     -41642.095     -39696.89     
    163300   1881.3163      28878.538     -41636.566     -39561.663    
    163400   1834.7722      20179.942     -41504.675     -39481.106    
    163500   1855.1869      43795.688     -41464.527     -39418.441    
    163600   1906.3066      19421.688     -41566.843     -39464.378    
    163700   1878.2196      10483.972     -41676.829     -39605.341    
    163800   1886.1878      51784.07      -41634.792     -39554.516    
    163900   1980.8662      51364.808     -41530.475     -39345.778    
    164000   1999.3957      30772.322     -41516.943     -39311.81     
    164100   2015.8628      7783.6587     -41571.253     -39347.959    
    164200   1904.9039      38927.17      -41628.271     -39527.353    
    164300   1827.4188      42169.2       -41594.055     -39578.596    
    164400   1876.9383      44309.427     -41602.092     -39532.017    
    164500   1869.4752      33867.647     -41535.051     -39473.207    
    164600   1968.006       17769.427     -41587.689     -39417.176    
    164700   1880.9087      23090.283     -41485.176     -39410.723    
    164800   1862.5862      17429.548     -41414.029     -39359.783    
    164900   1884.3241      29624.195     -41363.331     -39285.111    
    165000   2015.4589      9670.6945     -41490.6       -39267.751    
    165100   1911.0661      29840.868     -41568.073     -39460.359    
    165200   1944.2427      63548.82      -41744.087     -39599.782    
    165300   1891.2085      38524.824     -41738.866     -39653.053    
    165400   1680.228       40982.17      -41450.907     -39597.784    
    165500   1958.4908      32022.404     -41535.033     -39375.014    
    165600   1888.4711      35978.522     -41458.432     -39375.638    
    165700   1874.4489      38329.147     -41456.784     -39389.455    
    165800   1813.288       19602.373     -41485.366     -39485.492    
    165900   1753.5414      52277.397     -41523.488     -39589.508    
    166000   1895.8099      23988.729     -41651.326     -39560.438    
    166100   2008.0379      22620.091     -41524.614     -39309.95     
    166200   1938.7667      34733.589     -41409.869     -39271.604    
    166300   1971.717       18732.87      -41531.851     -39357.245    
    166400   1965.4076      21147.369     -41668.761     -39501.113    
    166500   1743.259       29039.116     -41590.043     -39667.403    
    166600   1879.9059      14633.459     -41604.61      -39531.262    
    166700   1870.3012      37257.895     -41334.089     -39271.334    
    166800   2016.9017      55905.966     -41495.26      -39270.82     
    166900   1975.4491      13715.406     -41592.313     -39413.591    
    167000   1828.3203      31879.297     -41535.688     -39519.234    
    167100   1859.8298      44651.925     -41476.838     -39425.633    
    167200   1996.5185      44037.12      -41407.259     -39205.3      
    167300   1905.1213      44274.568     -41293.635     -39192.477    
    167400   1870.5066      19630.057     -41306.691     -39243.709    
    167500   1859.0528      24318.05      -41376.37      -39326.021    
    167600   1923.5065      3642.1119     -41517.374     -39395.939    
    167700   1687.8782      32405.761     -41404.494     -39542.933    
    167800   1729.0467      35743.218     -41465.957     -39558.992    
    167900   1841.9344      43739.469     -41353.315     -39321.846    
    168000   1892.2828      14185.517     -41307.114     -39220.116    
    168100   2054.972       40587.273     -41491.189     -39224.761    
    168200   1856.0773     -87.821795     -41336.213     -39289.146    
    168300   1943.7842      19429.477     -41554.913     -39411.114    
    168400   1858.5081      38817.879     -41586.793     -39537.045    
    168500   1918.1931      51197.188     -41555.138     -39439.563    
    168600   1930.0092      40865.202     -41344.578     -39215.971    
    168700   1912.0388      23543.108     -41272.068     -39163.281    
    168800   1927.6765     -23813.331     -41325.961     -39199.927    
    168900   1880.5607      30982.07      -41348.136     -39274.066    
    169000   1835.2019      44310.693     -41310.969     -39286.925    
    169100   2059.2546      24834.306     -41333.75      -39062.599    
    169200   1928.4248     -187.79709     -41152.328     -39025.468    
    169300   1949.6425      32082.784     -41224.612     -39074.352    
    169400   1812.2161      33641.827     -41235.15      -39236.457    
    169500   1954.113       13415.722     -41554.057     -39398.866    
    169600   1799.5889      32720.694     -41384.176     -39399.41     
    169700   1819.0662      20019.526     -41313.847     -39307.6      
    169800   1913.9641      20355.106     -41314.907     -39203.996    
    169900   1952.4652      30956.355     -41329.352     -39175.979    
    170000   1957.8219      11221.732     -41305.418     -39146.136    
    170100   1940.6764      26391.15      -41347.439     -39207.068    
    170200   1931.9013      31091.287     -41411.242     -39280.549    
    170300   1795.4512      15883.963     -41311.179     -39330.977    
    170400   1877.9832      17271.835     -41322.606     -39251.379    
    170500   1956.2227      57391.198     -41190.055     -39032.538    
    170600   2026.4025      21420.514     -41226.279     -38991.36     
    170700   1939.6225      40061.88      -41181.27      -39042.061    
    170800   1995.3463      30192.385     -41377.751     -39177.085    
    170900   1913.0539      10083.274     -41287.871     -39177.965    
    171000   1934.1457      32029.988     -41300.797     -39167.629    
    171100   1927.4545     -992.56951     -41286.695     -39160.906    
    171200   1921.8963     -4122.4926     -41246.202     -39126.544    
    171300   1972.9916      26902.281     -41206.975     -39030.963    
    171400   1937.8415      16990.277     -41113.861     -38976.616    
    171500   2024.518       21886.647     -41228.022     -38995.181    
    171600   2061.7712      45895.229     -41334.13      -39060.203    
    171700   1935.5432      37761.385     -41393         -39258.29     
    171800   1961.0054      23275.066     -41482.699     -39319.906    
    171900   1830.9903      22706.867     -41253.817     -39234.419    
    172000   2037.9244      293.29389     -41284.685     -39037.059    
    172100   2081.593       24678.349     -41369.069     -39073.28     
    172200   1855.7321      43511.742     -41187.364     -39140.678    
    172300   2001.3884      27085.229     -41334.879     -39127.548    
    172400   1897.9805      21918.775     -41078.962     -38985.68     
    172500   2022.5058      22569.892     -41008.91      -38778.289    
    172600   2120.9834      70571.892     -41164.874     -38825.642    
    172700   2061.3849      34993.714     -41279.233     -39005.733    
    172800   2020.8869      23019.583     -41287.807     -39058.972    
    172900   2017.5009      16996.211     -41279.461     -39054.36     
    173000   1913.687       13117.512     -41260.872     -39150.268    
    173100   1738.1433      39890.162     -41219.817     -39302.819    
    173200   1811.2506      20940.27      -41327.478     -39329.85     
    173300   2021.8127      23071.908     -41314.007     -39084.151    
    173400   2064.4503      38328.53      -41244.994     -38968.112    
    173500   2059.8979      29439.948     -41317.465     -39045.604    
    173600   1950.9078      28262.644     -41296.323     -39144.668    
    173700   1934.4459      4436.1475     -41276.099     -39142.599    
    173800   1992.8033      27470.845     -41092.72      -38894.858    
    173900   2166.4491     -1767.1984     -41228.852     -38839.476    
    174000   1922.0929      32210.567     -41122.238     -39002.363    
    174100   2058.7939      7056.0024     -41332.571     -39061.928    
    174200   1927.4829      25463.286     -41198.081     -39072.26     
    174300   2022.7416      66670.89      -41193.608     -38962.726    
    174400   2109.5096      23443.49      -41061.361     -38734.784    
    174500   2103.7482      28813.326     -41065.333     -38745.11     
    174600   2056.2377      28637.602     -41234.752     -38966.928    
    174700   2075.8167      12928.219     -41359.515     -39070.097    
    174800   2031.0366      62563.279     -41402.12      -39162.091    
    174900   1988.2797      8292.1221     -41369.965     -39177.092    
    175000   2047.8422      70125.189     -41221.031     -38962.466    
    175100   2253.9918      49897.557     -41266.414     -38780.487    
    175200   2076.9957      22406.878     -41132.728     -38842.01     
    175300   2067.2657      31018.038     -41217.882     -38937.895    
    175400   2130.0718      29023.636     -41388.67      -39039.415    
    175500   1914.271       37972.248     -41198.446     -39087.197    
    175600   2034.1098      25256.767     -41228.682     -38985.262    
    175700   2063.4193      83522.232     -41255.848     -38980.103    
    175800   2066.4521     -3990.8434     -41320.257     -39041.167    
    175900   2010.4039      30395.976     -41317.388     -39100.115    
    176000   1938.9334     -6984.0162     -41293.05      -39154.601    
    176100   1943.7731      35308.202     -41349.978     -39206.192    
    176200   2062.5609      48434.762     -41430.262     -39155.464    
    176300   2079.6325      21007.9       -41286.319     -38992.693    
    176400   2109.2078      54330.029     -41191.143     -38864.898    
    176500   1952.1428      30102.278     -40983.977     -38830.96     
    176600   1952.0242      57149.885     -41142.459     -38989.572    
    176700   1972.2712      35794.809     -41345.186     -39169.969    
    176800   1942.517       36632.734     -41333.393     -39190.991    
    176900   2005.028       51161.804     -41258.395     -39047.05     
    177000   2043.4969      42493.004     -41153.726     -38899.953    
    177100   1973.719       42079.076     -41029.826     -38853.011    
    177200   2081.4458     -27679.679     -41148.336     -38852.71     
    177300   2009.9053      42031.064     -41099.559     -38882.835    
    177400   1920.1295      57195.737     -41109.461     -38991.751    
    177500   1953.1854      46714.232     -41277.424     -39123.257    
    177600   1795.35        29800.774     -41235.877     -39255.786    
    177700   1954.2607      16943.52      -41365.355     -39210.002    
    177800   1994.6658      21370.175     -41201.454     -39001.537    
    177900   2090.8978      45239.442     -41147.199     -38841.149    
    178000   2017.8324      15176.946     -41056.585     -38831.118    
    178100   2038.4724      47062.53      -41217.434     -38969.204    
    178200   1933.1147      18030.811     -41307.649     -39175.617    
    178300   1890.7734      48693.328     -41233.397     -39148.064    
    178400   2083.9146      46466.573     -41335.555     -39037.206    
    178500   2089.2984      42876.514     -41298.093     -38993.806    
    178600   1931.8347      21463.984     -41135.671     -39005.051    
    178700   2056.7454      17232.733     -41149.252     -38880.868    
    178800   2092.9396      9809.4014     -40983.365     -38675.063    
    178900   2203.4373      70413.93      -40958.742     -38528.572    
    179000   2062.0402      21649.329     -41029.397     -38755.173    
    179100   2147.9595      30383.629     -41210.889     -38841.905    
    179200   2007.7887      48228.61      -41213.637     -38999.248    
    179300   2004.7329      50126.492     -41292.758     -39081.739    
    179400   2080.3091      46711.173     -41429.105     -39134.732    
    179500   1939.9098      4292.3991     -41331.73      -39192.204    
    179600   2071.8913      23455.43      -41449.646     -39164.558    
    179700   2109.9444      45006.867     -41366.343     -39039.286    
    179800   2046.7258      40752.667     -41091.953     -38834.619    
    179900   2100.3348      10835.461     -41090.285     -38773.826    
    180000   2163.933       47399.049     -41269.784     -38883.183    
    180100   2046.2219      10505.715     -41312.261     -39055.484    
    180200   2056.7677      51387.226     -41394.327     -39125.918    
    180300   2040.93        39052.513     -41371.427     -39120.486    
    180400   2136.2689      16451.684     -41366.41      -39010.32     
    180500   2029.4029      37591.825     -41153.402     -38915.174    
    180600   2040.7343      22210.751     -41070.079     -38819.354    
    180700   2310.8426      15887.983     -41216.104     -38667.476    
    180800   2126.0717      48784.059     -41122.276     -38777.432    
    180900   2016.6384      43957.474     -41206.742     -38982.592    
    181000   2195.812       55217.505     -41417.814     -38996.053    
    181100   2043.0872      61496.747     -41286.273     -39032.953    
    181200   1901.0725      50537.685     -41290.573     -39193.881    
    181300   2004.4545      28908.842     -41377.088     -39166.376    
    181400   2183.8702      34473.446     -41269.844     -38861.254    
    181500   2070.0464      34661.295     -41114.525     -38831.471    
    181600   2184.8239      75491.661     -41319.283     -38909.641    
    181700   2030.685       56538.38      -41257.489     -39017.847    
    181800   2049.8535      57404.077     -41388.55      -39127.767    
    181900   1918.5609      56989.496     -41470.657     -39354.677    
    182000   1957.1965      39253.053     -41442.073     -39283.482    
    182100   2012.994       21485.684     -41339.485     -39119.354    
    182200   2053.649       2180.4726     -41296.507     -39031.538    
    182300   2195.5915      59442.515     -41365.601     -38944.083    
    182400   2024.485       54683.795     -41057.454     -38824.65     
    182500   2289.6725     -9817.2516     -41154.706     -38629.427    
    182600   2204.4734      56738.846     -41103.547     -38672.234    
    182700   2016.1551      34892.15      -41164.939     -38941.323    
    182800   1987.7972      50790.119     -41143.051     -38950.71     
    182900   2007.8579      62959.154     -41158.477     -38944.011    
    183000   2151.7749      62822.379     -41337.89      -38964.698    
    183100   2011.9914      49636.398     -41398.833     -39179.809    
    183200   2066.677       12000.127     -41521.419     -39242.082    
    183300   2092.3313      75313.861     -41456.687     -39149.055    
    183400   2128.7912      56626.784     -41258.397     -38910.554    
    183500   2247.6622      43711.706     -41346.517     -38867.571    
    183600   2178.4386      11222.179     -41372.239     -38969.64     
    183700   2082.3993      40522.121     -41383.859     -39087.182    
    183800   2053.6494      6265.3185     -41420.037     -39155.068    
    183900   2120.984       27634.294     -41369.114     -39029.882    
    184000   2151.9595      44178.096     -41132.683     -38759.288    
    184100   2066.0276      53141.238     -40998.572     -38719.951    
    184200   2004.6062      34487.825     -40972.132     -38761.253    
    184300   2108.5448      46473.958     -41213.479     -38887.966    
    184400   1958.6074      61223.488     -41275.84      -39115.692    
    184500   1967.7367      8607.5476     -41256.612     -39086.396    
    184600   2123.2723      45388.21      -41260.777     -38919.021    
    184700   2138.5011      57828.109     -41244.604     -38886.052    
    184800   2200.4013      47744.318     -41317.316     -38890.494    
    184900   1972.533       69830.635     -41179.823     -39004.317    
    185000   1998.5656      20183.313     -41400.36      -39196.143    
Loop time of 8329.03 on 12 procs for 180000 steps with 371 atoms

Performance: 0.934 ns/day, 25.707 hours/ns, 21.611 timesteps/s, 8.018 katom-step/s
99.2% CPU use with 2 MPI tasks x 6 OpenMP threads

MPI task timing breakdown:
Section |  min time  |  avg time  |  max time  |%varavg| %total
---------------------------------------------------------------
Pair    | 7019.1     | 7051.1     | 7083.1     |  38.1 | 84.66
Bond    | 0.041964   | 0.044295   | 0.046626   |   1.1 |  0.00
Neigh   | 57.505     | 58.127     | 58.748     |   8.2 |  0.70
Comm    | 44.699     | 76.859     | 109.02     | 366.8 |  0.92
Output  | 0.81973    | 0.82166    | 0.82358    |   0.2 |  0.01
Modify  | 1139.3     | 1140.1     | 1140.9     |   2.4 | 13.69
Other   |            | 1.998      |            |       |  0.02

Nlocal:          185.5 ave         187 max         184 min
Histogram: 1 0 0 0 0 0 0 0 0 1
Nghost:           5138 ave        5140 max        5136 min
Histogram: 1 0 0 0 0 0 0 0 0 1
Neighs:         115090 ave      116059 max      114120 min
Histogram: 1 0 0 0 0 0 0 0 0 1

Total # of neighbors = 230179
Ave neighs/atom = 620.42857
Ave special neighs/atom = 0
Neighbor list builds = 1800
Dangerous builds not checked

# # final equilibration at low T
# print "##### final equilibration starts.##### "
# unfix             heat1
# fix             equil3 all npt temp ${Tl} ${Tl} ${Td} tri ${Ph} ${Ph} ${Pd}
# # 1 ps = 1e3 fs / 0.5 fs = 2e3 steps = 20 nruns
# run             ${nequil}

write_data  ${structure}-an.data
write_data  333U-50C-14-an.data
System init for write_data ...
print "##### ${structure} Final Density: $(density) #####"
##### 333U-50C-14 Final Density: 1.7200786788770645597 #####

# next temperature
# clear
# next T
# jump SELF T_loop
Total wall time: 2:22:44
