LAMMPS (2 Aug 2023 - Update 2)
  using 2 OpenMP thread(s) per MPI task
Reading data file ...
  triclinic box = (0 0 0) to (15.7087 13.0868 17.5248) with tilt (-8.2042 -0.1458 -2.0056)
WARNING: Triclinic box skew is large. LAMMPS will run inefficiently. (src/domain.cpp:220)
  2 by 2 by 2 MPI processor grid
  reading atoms ...
  331 atoms
  reading velocities ...
  331 velocities
Finding 1-2 1-3 1-4 neighbors ...
  special bond factors lj:    0        0        0       
  special bond factors coul:  0        0        0       
     0 = max # of 1-2 neighbors
     0 = max # of 1-3 neighbors
     0 = max # of 1-4 neighbors
     1 = max # of special neighbors
  special bonds CPU = 0.001 seconds
  read_data CPU = 0.010 seconds
WARNING: Van der Waals parameters for element SI indicate inner wall+shielding, but earlier atoms indicate a different van der Waals method. This may cause division-by-zero errors. Keeping van der Waals setting for earlier atoms. (src/REAXFF/reaxff_ffield.cpp:251)
System init for write_restart ...
Neighbor list info ...
  update: every = 1 steps, delay = 0 steps, check = yes
  max neighbors/atom: 2000, page size: 100000
  master list distance cutoff = 12
  ghost atom cutoff = 12
  binsize = 6, bins = 5 3 3
  2 neighbor lists, perpetual/occasional/extra = 2 0 0
  (1) pair reaxff, perpetual
      attributes: half, newton off, ghost
      pair build: half/bin/newtoff/ghost
      stencil: full/ghost/bin/3d
      bin: standard
  (2) fix qeq/reaxff, perpetual, copy from (1)
      attributes: half, newton off
      pair build: copy
      stencil: none
      bin: none
  using 2 OpenMP thread(s) per MPI task
Reading restart file ...
  restart file = 2 Aug 2023, LAMMPS = 2 Aug 2023
  restoring atom style full from restart
  triclinic box = (0 0 0) to (15.7087 13.0868 17.5248) with tilt (-8.2042 -0.1458 -2.0056)
WARNING: Triclinic box skew is large. LAMMPS will run inefficiently. (src/domain.cpp:220)
  2 by 2 by 2 MPI processor grid
  pair style reaxff stores no restart info
  331 atoms
Finding 1-2 1-3 1-4 neighbors ...
  special bond factors lj:    0        0        0       
  special bond factors coul:  0        0        0       
     0 = max # of 1-2 neighbors
     0 = max # of 1-3 neighbors
     0 = max # of 1-4 neighbors
     1 = max # of special neighbors
  special bonds CPU = 0.000 seconds
  read_restart CPU = 0.003 seconds
*****debug*****
xy = -8.2042000000000001592, deltaxy = 0.082042
xz = -0.14580000000000001292, deltaxz = 0.001458
yz = -2.0055999999999998273, deltayz = 0.020056
*****
*****Negative-deform 1 starts.*****
WARNING: Van der Waals parameters for element SI indicate inner wall+shielding, but earlier atoms indicate a different van der Waals method. This may cause division-by-zero errors. Keeping van der Waals setting for earlier atoms. (src/REAXFF/reaxff_ffield.cpp:251)

CITE-CITE-CITE-CITE-CITE-CITE-CITE-CITE-CITE-CITE-CITE-CITE-CITE

Your simulation uses code contributions which should be cited:
- pair reaxff command: doi:10.1016/j.parco.2011.08.005
- fix qeq/reaxff command: doi:10.1016/j.parco.2011.08.005
The log file lists these citations in BibTeX format.

CITE-CITE-CITE-CITE-CITE-CITE-CITE-CITE-CITE-CITE-CITE-CITE-CITE

Neighbor list info ...
  update: every = 10 steps, delay = 0 steps, check = yes
  max neighbors/atom: 2000, page size: 100000
  master list distance cutoff = 12
  ghost atom cutoff = 12
  binsize = 6, bins = 5 3 3
  2 neighbor lists, perpetual/occasional/extra = 2 0 0
  (1) pair reaxff, perpetual
      attributes: half, newton off, ghost
      pair build: half/bin/newtoff/ghost
      stencil: full/ghost/bin/3d
      bin: standard
  (2) fix qeq/reaxff, perpetual, copy from (1)
      attributes: half, newton off
      pair build: copy
      stencil: none
      bin: none
Setting up Verlet run ...
  Unit style    : real
  Current step  : 0
  Time step     : 0.5
Per MPI rank memory allocation (min/avg/max) = 127.9 | 130.6 | 133.6 Mbytes
   Step          Temp          PotEng         Press          Volume    
         0   286.86183     -30999.808      1168.1744      3602.6891    
       100   311.20127     -31014.308      5469.868       3601.9685    
       200   315.11231     -30992.551      8378.2906      3601.248     
       300   316.75064     -30969.32       3310.9338      3600.5275    
       400   322.35788     -30969.597      10908.673      3599.8069    
       500   290.35259     -30977.994      2992.1032      3599.0864    
       600   281.69286     -30990.419      5714.0311      3598.3658    
       700   307.23686     -31018.254      6304.6095      3597.6453    
       800   290.3498      -30987.861      17955.543      3596.9248    
       900   319.82958     -30998.324     -1291.1766      3596.2042    
      1000   313.21851     -30995.483     -90.435379      3595.4837    
      1100   276.33867     -30993.756     -3878.0314      3594.7631    
      1200   287.64408     -31004.664      3333.007       3594.0426    
      1300   306.70325     -31007.48      -1516.2724      3593.3221    
      1400   317.85114     -30997.798      6000.0385      3592.6015    
      1500   313.26683     -30966.881      3705.0072      3591.881     
      1600   313.71983     -30968.637      6612.6619      3591.1605    
      1700   301.96428     -30997.889      4212.7202      3590.4399    
      1800   302.95334     -31014.494      3098.9322      3589.7194    
      1900   321.46006     -31029.825      3945.2306      3588.9988    
      2000   296.43299     -31004.539     -7126.4973      3588.2783    
      2100   291.74407     -30984.688      105.32991      3587.5578    
      2200   305.12026     -30973.255      897.5261       3586.8372    
      2300   306.71274     -30980.873     -20471.339      3586.1167    
      2400   292.96525     -31001.1       -2107.8329      3585.3962    
      2500   293.90503     -31016.394      6647.4328      3584.6756    
      2600   285.1723      -30997.912     -5012.6057      3583.9551    
      2700   305.09239     -30999.37      -8485.9936      3583.2345    
      2800   317.48825     -31003.239      1950.2117      3582.514     
      2900   312.71769     -30985.735      7718.6418      3581.7935    
      3000   319.17926     -30975.813      5788.0728      3581.0729    
      3100   320.57409     -30990.568     -268.00834      3580.3524    
      3200   287.88751     -30987.184      773.62659      3579.6319    
      3300   275.63262     -30986.391      1430.2576      3578.9113    
      3400   305.04726     -31013.297      2142.4401      3578.1908    
      3500   309.65811     -30995.086     -1830.9855      3577.4702    
      3600   307.64594     -30963.951      13922.12       3576.7497    
      3700   336.84163     -31001.643      4068.968       3576.0292    
      3800   308.92626     -30994.438      1159.4257      3575.3086    
      3900   291.15528     -30988.699     -2007.6769      3574.5881    
      4000   306.48852     -31007.588      11672.79       3573.8676    
      4100   285.99339     -30995.908      9115.0114      3573.147     
      4200   300.65713     -31009.954      3391.4919      3572.4265    
      4300   284.97384     -30966.362      6857.9846      3571.7059    
      4400   322.29843     -30988.24       4467.6395      3570.9854    
      4500   308.92645     -30992.975      8392.5701      3570.2649    
      4600   275.23866     -30983.933      7802.5198      3569.5443    
      4700   293.3559      -31003.676     -5751.2724      3568.8238    
      4800   299.72702     -31000.722      11493.485      3568.1033    
      4900   309.71204     -30988.771      18824.357      3567.3827    
      5000   346.09972     -30997.45       10805.146      3566.6622    
Loop time of 201.086 on 16 procs for 5000 steps with 331 atoms

Performance: 1.074 ns/day, 22.343 hours/ns, 24.865 timesteps/s, 8.230 katom-step/s
98.9% CPU use with 8 MPI tasks x 2 OpenMP threads

MPI task timing breakdown:
Section |  min time  |  avg time  |  max time  |%varavg| %total
---------------------------------------------------------------
Pair    | 117.25     | 154.94     | 178        | 179.0 | 77.05
Bond    | 0.013008   | 0.01385    | 0.014367   |   0.3 |  0.01
Neigh   | 1.9879     | 2.641      | 2.9619     |  22.7 |  1.31
Comm    | 1.5982     | 24.695     | 62.377     | 448.4 | 12.28
Output  | 0.016002   | 0.042459   | 0.093054   |  13.6 |  0.02
Modify  | 18.292     | 18.628     | 19.327     |   9.1 |  9.26
Other   |            | 0.1294     |            |       |  0.06

Nlocal:         41.375 ave          45 max          37 min
Histogram: 2 0 1 0 0 1 1 0 0 3
Nghost:        3324.38 ave        3400 max        3266 min
Histogram: 2 1 1 0 1 1 0 0 0 2
Neighs:        26914.2 ave       29296 max       24086 min
Histogram: 2 0 1 0 1 0 1 0 0 3

Total # of neighbors = 215314
Ave neighs/atom = 650.49547
Ave special neighs/atom = 0
Neighbor list builds = 81
Dangerous builds = 0
  using 2 OpenMP thread(s) per MPI task
Reading restart file ...
  restart file = 2 Aug 2023, LAMMPS = 2 Aug 2023
  restoring atom style full from restart
  triclinic box = (0 0 0) to (15.7087 13.0868 17.5248) with tilt (-8.2042 -0.1458 -2.0056)
WARNING: Triclinic box skew is large. LAMMPS will run inefficiently. (src/domain.cpp:220)
  2 by 2 by 2 MPI processor grid
  pair style reaxff stores no restart info
  331 atoms
Finding 1-2 1-3 1-4 neighbors ...
  special bond factors lj:    0        0        0       
  special bond factors coul:  0        0        0       
     0 = max # of 1-2 neighbors
     0 = max # of 1-3 neighbors
     0 = max # of 1-4 neighbors
     1 = max # of special neighbors
  special bonds CPU = 0.000 seconds
  read_restart CPU = 0.004 seconds
*****Positive-deform 1 starts.*****
WARNING: Van der Waals parameters for element SI indicate inner wall+shielding, but earlier atoms indicate a different van der Waals method. This may cause division-by-zero errors. Keeping van der Waals setting for earlier atoms. (src/REAXFF/reaxff_ffield.cpp:251)
Neighbor list info ...
  update: every = 10 steps, delay = 0 steps, check = yes
  max neighbors/atom: 2000, page size: 100000
  master list distance cutoff = 12
  ghost atom cutoff = 12
  binsize = 6, bins = 5 3 3
  2 neighbor lists, perpetual/occasional/extra = 2 0 0
  (1) pair reaxff, perpetual
      attributes: half, newton off, ghost
      pair build: half/bin/newtoff/ghost
      stencil: full/ghost/bin/3d
      bin: standard
  (2) fix qeq/reaxff, perpetual, copy from (1)
      attributes: half, newton off
      pair build: copy
      stencil: none
      bin: none
Setting up Verlet run ...
  Unit style    : real
  Current step  : 0
  Time step     : 0.5
Per MPI rank memory allocation (min/avg/max) = 127.9 | 130.6 | 133.6 Mbytes
   Step          Temp          PotEng         Press          Volume    
         0   286.86183     -30999.808      1168.1744      3602.6891    
       100   311.1903      -31014.339      5469.4536      3603.4096    
       200   314.99584     -30992.461      7824.4251      3604.1301    
       300   317.11874     -30969.725      3168.2161      3604.8507    
       400   320.86754     -30969.705      10787.815      3605.5712    
       500   289.4025      -30978.946      4782.515       3606.2918    
       600   281.60325     -30990.567      4401.5402      3607.0123    
       700   297.90499     -31006.992      9792.2175      3607.7328    
       800   296.9232      -30987.302      13005.822      3608.4534    
       900   321.45663     -30991.049      24.652597      3609.1739    
      1000   301.53772     -30986.94       8990.6531      3609.8944    
      1100   293.94588     -31016.423     -9125.8772      3610.615     
      1200   278.90018     -30993.714      572.48277      3611.3355    
      1300   302.52251     -30997.347      5566.1121      3612.0561    
      1400   310.43296     -30989.056     -4129.1274      3612.7766    
      1500   285.52782     -30955.992      3128.015       3613.4971    
      1600   325.33423     -30999.515     -3154.5356      3614.2177    
      1700   291.99472     -30994.996     -4240.3019      3614.9382    
      1800   283.85757     -31003.666     -3667.0867      3615.6587    
      1900   307.64062     -31021.541      7523.8147      3616.3793    
      2000   292.2545      -30977.185     -3693.9236      3617.0998    
      2100   294.80528     -30974.108     -5559.1281      3617.8204    
      2200   304.72799     -30991.165      3774.6661      3618.5409    
      2300   277.79431     -30973.384     -4819.0849      3619.2614    
      2400   303.34665     -31001.363     -1244.3813      3619.982     
      2500   295.50809     -30998.26       1946.5768      3620.7025    
      2600   279.81908     -30980.876      11530.513      3621.423     
      2700   312.67156     -30985.45      -347.86354      3622.1436    
      2800   309.8751      -30977.09       7923.4817      3622.8641    
      2900   277.95501     -30967.741      1939.7626      3623.5847    
      3000   294.89847     -30994.149     -3925.5434      3624.3052    
      3100   281.77876     -30970.887     -726.32786      3625.0257    
      3200   306.0611      -30960.921      17525.038      3625.7463    
      3300   329.57476     -30996.535      1806.3251      3626.4668    
      3400   286.81511     -30976.692     -17188.906      3627.1874    
      3500   307.47526     -31009.856     -690.75079      3627.9079    
      3600   314.40608     -31021.446     -2678.5982      3628.6284    
      3700   284.61526     -30978.286     -4994.5114      3629.349     
      3800   321.02978     -30979.993      19129.756      3630.0695    
      3900   335.77479     -31007.74       6472.1018      3630.79      
      4000   289.04496     -30982.226     -3254.8566      3631.5106    
      4100   307.94655     -31004.775      3626.8218      3632.2311    
      4200   287.6166      -30990.535      1963.7779      3632.9517    
      4300   293.43772     -30989.189      4636.1625      3633.6722    
      4400   315.43639     -30982.938      10787.038      3634.3927    
      4500   318.01904     -30980.357      2769.1124      3635.1133    
      4600   292.08724     -30976.002      9494.7665      3635.8338    
      4700   291.51079     -30999.025     -9016.4146      3636.5543    
      4800   297.17626     -31003.592      2187.7088      3637.2749    
      4900   293.57734     -30992.986      1327.9261      3637.9954    
      5000   290.74691     -30988.473      1391.3741      3638.716     
Loop time of 193.046 on 16 procs for 5000 steps with 331 atoms

Performance: 1.119 ns/day, 21.450 hours/ns, 25.901 timesteps/s, 8.573 katom-step/s
99.0% CPU use with 8 MPI tasks x 2 OpenMP threads

MPI task timing breakdown:
Section |  min time  |  avg time  |  max time  |%varavg| %total
---------------------------------------------------------------
Pair    | 108.66     | 144.73     | 170.78     | 208.2 | 74.97
Bond    | 0.013088   | 0.013842   | 0.015046   |   0.5 |  0.01
Neigh   | 1.8911     | 2.4468     | 2.8114     |  26.0 |  1.27
Comm    | 1.3323     | 27.426     | 63.542     | 478.4 | 14.21
Output  | 0.01699    | 0.043754   | 0.095042   |  13.5 |  0.02
Modify  | 17.799     | 18.206     | 18.775     |   9.8 |  9.43
Other   |            | 0.1797     |            |       |  0.09

Nlocal:         41.375 ave          49 max          33 min
Histogram: 1 0 0 1 1 3 0 0 1 1
Nghost:        3215.75 ave        3267 max        3166 min
Histogram: 1 0 0 3 1 1 0 0 1 1
Neighs:        26381.5 ave       31222 max       21189 min
Histogram: 1 0 0 1 3 1 0 1 0 1

Total # of neighbors = 211052
Ave neighs/atom = 637.61934
Ave special neighs/atom = 0
Neighbor list builds = 78
Dangerous builds = 0
  using 2 OpenMP thread(s) per MPI task
Reading restart file ...
  restart file = 2 Aug 2023, LAMMPS = 2 Aug 2023
  restoring atom style full from restart
  triclinic box = (0 0 0) to (15.7087 13.0868 17.5248) with tilt (-8.2042 -0.1458 -2.0056)
WARNING: Triclinic box skew is large. LAMMPS will run inefficiently. (src/domain.cpp:220)
  2 by 2 by 2 MPI processor grid
  pair style reaxff stores no restart info
  331 atoms
Finding 1-2 1-3 1-4 neighbors ...
  special bond factors lj:    0        0        0       
  special bond factors coul:  0        0        0       
     0 = max # of 1-2 neighbors
     0 = max # of 1-3 neighbors
     0 = max # of 1-4 neighbors
     1 = max # of special neighbors
  special bonds CPU = 0.000 seconds
  read_restart CPU = 0.004 seconds
*****debug*****
xy = -8.2042000000000001592, deltaxy = 0.082042
xz = -0.14580000000000001292, deltaxz = 0.001458
yz = -2.0055999999999998273, deltayz = 0.020056
*****
*****Negative-deform 2 starts.*****
WARNING: Van der Waals parameters for element SI indicate inner wall+shielding, but earlier atoms indicate a different van der Waals method. This may cause division-by-zero errors. Keeping van der Waals setting for earlier atoms. (src/REAXFF/reaxff_ffield.cpp:251)
Neighbor list info ...
  update: every = 10 steps, delay = 0 steps, check = yes
  max neighbors/atom: 2000, page size: 100000
  master list distance cutoff = 12
  ghost atom cutoff = 12
  binsize = 6, bins = 5 3 3
  2 neighbor lists, perpetual/occasional/extra = 2 0 0
  (1) pair reaxff, perpetual
      attributes: half, newton off, ghost
      pair build: half/bin/newtoff/ghost
      stencil: full/ghost/bin/3d
      bin: standard
  (2) fix qeq/reaxff, perpetual, copy from (1)
      attributes: half, newton off
      pair build: copy
      stencil: none
      bin: none
Setting up Verlet run ...
  Unit style    : real
  Current step  : 0
  Time step     : 0.5
Per MPI rank memory allocation (min/avg/max) = 127.9 | 130.6 | 133.6 Mbytes
   Step          Temp          PotEng         Press          Volume    
         0   286.86183     -30999.808      1168.1744      3602.6891    
       100   311.19603     -31014.326      5470.695       3601.9685    
       200   315.01761     -30992.475      8192.1072      3601.248     
       300   317.1538      -30969.774      3105.3538      3600.5275    
       400   322.41715     -30970.221      10837.635      3599.8069    
       500   289.4631      -30977.284      4026.2706      3599.0864    
       600   282.62951     -30991.421      5629.0853      3598.3658    
       700   297.05951     -31007.688      8630.2051      3597.6453    
       800   303.42369     -30999.675      17385.63       3596.9248    
       900   313.59931     -30989.916     -1937.2331      3596.2042    
      1000   315.98463     -30991.016      1377.0623      3595.4837    
      1100   285.5771      -30995.86      -9247.7375      3594.7631    
      1200   281.59442     -31000.366      94.233386      3594.0426    
      1300   307.37689     -31015.488      10992.237      3593.3221    
      1400   306.33038     -30983.332     -1934.9967      3592.6015    
      1500   299.9429      -30969.355      3096.9435      3591.881     
      1600   307.77411     -30985.104     -934.13606      3591.1605    
      1700   293.9935      -30981.594      4345.8843      3590.4399    
      1800   289.46179     -30992.379     -4977.2135      3589.7194    
      1900   305.02664     -31011.116      4738.2974      3588.9988    
      2000   306.7318      -30987.037      694.45107      3588.2783    
      2100   291.40908     -30958.469     -10425.023      3587.5578    
      2200   301.30984     -30984.233     -526.34777      3586.8372    
      2300   285.07861     -30990.271      7793.7675      3586.1167    
      2400   298.9176      -31009.691      1989.452       3585.3962    
      2500   302.27629     -31006.979      3604.0501      3584.6756    
      2600   292.4545      -30956.663     -9996.7407      3583.9551    
      2700   302.3041      -30972.964      4248.5607      3583.2345    
      2800   308.71337     -30999.736      6811.4871      3582.514     
      2900   288.05964     -30995.555      9158.294       3581.7935    
      3000   281.41287     -30987.202      8847.6589      3581.0729    
      3100   311.54032     -30996.469      5410.2125      3580.3524    
      3200   296.10475     -30939.023      6306.8193      3579.6319    
      3300   311.23413     -30969.942     -4133.1018      3578.9113    
      3400   310.65555     -31000.799      14517.844      3578.1908    
      3500   298.5996      -31000.492      10079.585      3577.4702    
      3600   283.64615     -30994.91      -199.90622      3576.7497    
      3700   289.69525     -31002.413      7194.4757      3576.0292    
      3800   293.59744     -30978.537      19706.818      3575.3086    
      3900   307.0716      -30976.096      2980.1432      3574.5881    
      4000   321.20015     -31005.226      4296.272       3573.8676    
      4100   291.28584     -30999.788     -3486.6433      3573.147     
      4200   297.66747     -31010.668      7215.8155      3572.4265    
      4300   304.84235     -31010.624      2993.2164      3571.7059    
      4400   276.92159     -30969.493     -950.23863      3570.9854    
      4500   306.01846     -30993.753      7733.2908      3570.2649    
      4600   300.14373     -31005.316      3307.2356      3569.5443    
      4700   266.68538     -30988.928     -1219.3189      3568.8238    
      4800   295.84578     -30999.338      12194.982      3568.1033    
      4900   332.52384     -31013.65       17139.64       3567.3827    
      5000   291.32739     -30978.325      1143.8094      3566.6622    
Loop time of 199.063 on 16 procs for 5000 steps with 331 atoms

Performance: 1.085 ns/day, 22.118 hours/ns, 25.118 timesteps/s, 8.314 katom-step/s
98.9% CPU use with 8 MPI tasks x 2 OpenMP threads

MPI task timing breakdown:
Section |  min time  |  avg time  |  max time  |%varavg| %total
---------------------------------------------------------------
Pair    | 111.73     | 148.89     | 176.67     | 213.2 | 74.79
Bond    | 0.012808   | 0.01381    | 0.01507    |   0.5 |  0.01
Neigh   | 1.6864     | 2.1995     | 2.543      |  25.4 |  1.10
Comm    | 1.4559     | 29.269     | 66.499     | 481.3 | 14.70
Output  | 0.017622   | 0.043766   | 0.093699   |  13.2 |  0.02
Modify  | 18.157     | 18.519     | 19.041     |   8.7 |  9.30
Other   |            | 0.1287     |            |       |  0.06

Nlocal:         41.375 ave          48 max          35 min
Histogram: 1 1 0 2 1 0 1 0 0 2
Nghost:        3345.12 ave        3415 max        3292 min
Histogram: 2 0 0 3 1 0 0 0 0 2
Neighs:        26903.8 ave       31142 max       22897 min
Histogram: 1 1 0 2 1 1 0 0 1 1

Total # of neighbors = 215230
Ave neighs/atom = 650.24169
Ave special neighs/atom = 0
Neighbor list builds = 78
Dangerous builds = 0
  using 2 OpenMP thread(s) per MPI task
Reading restart file ...
  restart file = 2 Aug 2023, LAMMPS = 2 Aug 2023
  restoring atom style full from restart
  triclinic box = (0 0 0) to (15.7087 13.0868 17.5248) with tilt (-8.2042 -0.1458 -2.0056)
WARNING: Triclinic box skew is large. LAMMPS will run inefficiently. (src/domain.cpp:220)
  2 by 2 by 2 MPI processor grid
  pair style reaxff stores no restart info
  331 atoms
Finding 1-2 1-3 1-4 neighbors ...
  special bond factors lj:    0        0        0       
  special bond factors coul:  0        0        0       
     0 = max # of 1-2 neighbors
     0 = max # of 1-3 neighbors
     0 = max # of 1-4 neighbors
     1 = max # of special neighbors
  special bonds CPU = 0.000 seconds
  read_restart CPU = 0.003 seconds
*****Positive-deform 2 starts.*****
WARNING: Van der Waals parameters for element SI indicate inner wall+shielding, but earlier atoms indicate a different van der Waals method. This may cause division-by-zero errors. Keeping van der Waals setting for earlier atoms. (src/REAXFF/reaxff_ffield.cpp:251)
Neighbor list info ...
  update: every = 10 steps, delay = 0 steps, check = yes
  max neighbors/atom: 2000, page size: 100000
  master list distance cutoff = 12
  ghost atom cutoff = 12
  binsize = 6, bins = 5 3 3
  2 neighbor lists, perpetual/occasional/extra = 2 0 0
  (1) pair reaxff, perpetual
      attributes: half, newton off, ghost
      pair build: half/bin/newtoff/ghost
      stencil: full/ghost/bin/3d
      bin: standard
  (2) fix qeq/reaxff, perpetual, copy from (1)
      attributes: half, newton off
      pair build: copy
      stencil: none
      bin: none
Setting up Verlet run ...
  Unit style    : real
  Current step  : 0
  Time step     : 0.5
Per MPI rank memory allocation (min/avg/max) = 127.9 | 130.6 | 133.6 Mbytes
   Step          Temp          PotEng         Press          Volume    
         0   286.86183     -30999.808      1168.1744      3602.6891    
       100   311.19224     -31014.334      5466.328       3603.4096    
       200   315.02036     -30992.461      8009.0461      3604.1301    
       300   317.12754     -30969.723      3317.2654      3604.8507    
       400   320.79125     -30969.088      10701.648      3605.5712    
       500   288.52724     -30978.354      4593.5156      3606.2918    
       600   282.01031     -30990.809      4367.9734      3607.0123    
       700   294.28476     -31002.643      7825.0351      3607.7328    
       800   294.97332     -30985.172      13237.311      3608.4534    
       900   319.52792     -30989.083      1152.0494      3609.1739    
      1000   296.09036     -30977.298      7174.3773      3609.8944    
      1100   290.32254     -31010.048     -7105.8528      3610.615     
      1200   284.56789     -31000.769      4821.8398      3611.3355    
      1300   317.36531     -31010.9        8414.2151      3612.0561    
      1400   293.81551     -30976.358     -1174.5493      3612.7766    
      1500   285.4608      -30972.27       8935.3178      3613.4971    
      1600   284.8851      -31011.612      5101.4469      3614.2177    
      1700   284.60714     -31016.806     -222.70937      3614.9382    
      1800   287.52785     -30999.734      1675.1391      3615.6587    
      1900   286.42631     -30978.865      3333.1814      3616.3793    
      2000   310.09149     -30997.695      512.1301       3617.0998    
      2100   305.65425     -30995.591     -11985.118      3617.8204    
      2200   286.60346     -31006.207      2589.8817      3618.5409    
      2300   277.92987     -31016.295     -3519.37        3619.2614    
      2400   284.53151     -31000.571     -1527.3985      3619.982     
      2500   328.82977     -31029.319      2184.5081      3620.7025    
      2600   296.86455     -30997.643      9908.206       3621.423     
      2700   299.07348     -31010.347      4017.9996      3622.1436    
      2800   290.56682     -31028.9        3238.9464      3622.8641    
      2900   257.86439     -31000.46      -8103.717       3623.5847    
      3000   299.06223     -31008.439      16738.13       3624.3052    
      3100   318.93374     -31013.217     -561.08693      3625.0257    
      3200   294.53249     -30982.534      8839.4904      3625.7463    
      3300   312.57991     -31001.145     -6287.2525      3626.4668    
      3400   297.65183     -30986.189     -5601.5606      3627.1874    
      3500   282.61759     -30990.817      2097.0928      3627.9079    
      3600   297.63972     -31022.481      11006.362      3628.6284    
      3700   278.42608     -31002.954      5584.0492      3629.349     
      3800   315.36992     -31008.103      6933.0548      3630.0695    
      3900   302.85948     -30980.661      6401.7126      3630.79      
      4000   304.3608      -30994.452     -3124.9929      3631.5106    
      4100   300.04379     -31001.224      6340.4281      3632.2311    
      4200   281.76924     -31009.046     -1155.5702      3632.9517    
      4300   271.0379      -31023.078     -3973.2516      3633.6722    
      4400   289.55328     -31021.637     -13666.901      3634.3927    
      4500   298.50982     -31010.887     -5120.8079      3635.1133    
      4600   304.38344     -30995.808      2447.8971      3635.8338    
      4700   311.82529     -30998.642      7016.7553      3636.5543    
      4800   288.55484     -30981.218      15125.553      3637.2749    
      4900   288.68506     -31000.088      16572.244      3637.9954    
      5000   299.84439     -31022.488      4100.745       3638.716     
Loop time of 188.429 on 16 procs for 5000 steps with 331 atoms

Performance: 1.146 ns/day, 20.937 hours/ns, 26.535 timesteps/s, 8.783 katom-step/s
99.0% CPU use with 8 MPI tasks x 2 OpenMP threads

MPI task timing breakdown:
Section |  min time  |  avg time  |  max time  |%varavg| %total
---------------------------------------------------------------
Pair    | 110.01     | 138.77     | 166.72     | 195.6 | 73.65
Bond    | 0.01208    | 0.013457   | 0.015032   |   0.7 |  0.01
Neigh   | 2.165      | 2.6441     | 3.1678     |  28.7 |  1.40
Comm    | 1.2962     | 29.272     | 58.063     | 425.6 | 15.53
Output  | 0.016952   | 0.043381   | 0.093998   |  13.4 |  0.02
Modify  | 16.919     | 17.502     | 18.02      |  11.8 |  9.29
Other   |            | 0.1807     |            |       |  0.10

Nlocal:         41.375 ave          47 max          35 min
Histogram: 2 0 1 0 1 0 0 1 1 2
Nghost:        3224.25 ave        3297 max        3178 min
Histogram: 1 2 1 1 1 0 0 1 0 1
Neighs:        26363.4 ave       29914 max       22393 min
Histogram: 2 0 1 0 1 0 0 1 1 2

Total # of neighbors = 210907
Ave neighs/atom = 637.18127
Ave special neighs/atom = 0
Neighbor list builds = 88
Dangerous builds = 0
  using 2 OpenMP thread(s) per MPI task
Reading restart file ...
  restart file = 2 Aug 2023, LAMMPS = 2 Aug 2023
  restoring atom style full from restart
  triclinic box = (0 0 0) to (15.7087 13.0868 17.5248) with tilt (-8.2042 -0.1458 -2.0056)
WARNING: Triclinic box skew is large. LAMMPS will run inefficiently. (src/domain.cpp:220)
  2 by 2 by 2 MPI processor grid
  pair style reaxff stores no restart info
  331 atoms
Finding 1-2 1-3 1-4 neighbors ...
  special bond factors lj:    0        0        0       
  special bond factors coul:  0        0        0       
     0 = max # of 1-2 neighbors
     0 = max # of 1-3 neighbors
     0 = max # of 1-4 neighbors
     1 = max # of special neighbors
  special bonds CPU = 0.000 seconds
  read_restart CPU = 0.003 seconds
*****debug*****
xy = -8.2042000000000001592, deltaxy = 0.082042
xz = -0.14580000000000001292, deltaxz = 0.001458
yz = -2.0055999999999998273, deltayz = 0.020056
*****
*****Negative-deform 3 starts.*****
WARNING: Van der Waals parameters for element SI indicate inner wall+shielding, but earlier atoms indicate a different van der Waals method. This may cause division-by-zero errors. Keeping van der Waals setting for earlier atoms. (src/REAXFF/reaxff_ffield.cpp:251)
Neighbor list info ...
  update: every = 10 steps, delay = 0 steps, check = yes
  max neighbors/atom: 2000, page size: 100000
  master list distance cutoff = 12
  ghost atom cutoff = 12
  binsize = 6, bins = 5 3 3
  2 neighbor lists, perpetual/occasional/extra = 2 0 0
  (1) pair reaxff, perpetual
      attributes: half, newton off, ghost
      pair build: half/bin/newtoff/ghost
      stencil: full/ghost/bin/3d
      bin: standard
  (2) fix qeq/reaxff, perpetual, copy from (1)
      attributes: half, newton off
      pair build: copy
      stencil: none
      bin: none
Setting up Verlet run ...
  Unit style    : real
  Current step  : 0
  Time step     : 0.5
Per MPI rank memory allocation (min/avg/max) = 127.9 | 130.6 | 133.6 Mbytes
   Step          Temp          PotEng         Press          Volume    
         0   286.86183     -30999.808      1168.1744      3602.6891    
       100   311.19518     -31014.326      5470.4445      3601.9685    
       200   314.88001     -30992.173      8105.9066      3601.248     
       300   317.15424     -30969.334      3380.6863      3600.5275    
       400   321.5481      -30968.947      10905.15       3599.8069    
       500   290.54445     -30978.542      4878.6553      3599.0864    
       600   280.82185     -30989.421      4420.5011      3598.3658    
       700   297.57297     -31007.933      7990.3317      3597.6453    
       800   297.90356     -30993.167      13969.942      3596.9248    
       900   325.50501     -30997.709      640.37985      3596.2042    
      1000   303.7284      -30981.562      7581.8778      3595.4837    
      1100   281.06422     -30998.904     -8984.8287      3594.7631    
      1200   290.01778     -31005.101      5659.1899      3594.0426    
      1300   297.06148     -30989.864      9182.7406      3593.3221    
      1400   299.38174     -30977.117     -3161.8187      3592.6015    
      1500   305.41142     -30975.803      8051.1768      3591.881     
      1600   301.42124     -30980.753     -2552.9744      3591.1605    
      1700   291.64267     -30990.097      640.20165      3590.4399    
      1800   278.81519     -31023.343      1422.5278      3589.7194    
      1900   265.54768     -30992.48       13886.589      3588.9988    
      2000   298.42986     -30993.579      2113.2411      3588.2783    
      2100   316.20494     -30992.271      7992.921       3587.5578    
      2200   314.7318      -30994.968      14587.349      3586.8372    
      2300   293.92663     -30995.815      86.36214       3586.1167    
      2400   276.94312     -30993.363     -9630.9384      3585.3962    
      2500   273.63894     -30984.715     -4435.9721      3584.6756    
      2600   292.26129     -30965.169      4442.0059      3583.9551    
      2700   297.39991     -30966.658     -132.8397       3583.2345    
      2800   311.60954     -30997.498     -12644.544      3582.514     
      2900   280.67629     -30990.665     -1524.8357      3581.7935    
      3000   288.93598     -30998.505      7856.8513      3581.0729    
      3100   293.74482     -30990.446      6665.0867      3580.3524    
      3200   306.81315     -30995.057      12028.667      3579.6319    
      3300   296.79412     -30990.366      343.31514      3578.9113    
      3400   307.04557     -31008.693      8956.5712      3578.1908    
      3500   281.79984     -30996.811     -1685.7174      3577.4702    
      3600   308.35353     -31029.489      455.98471      3576.7497    
      3700   284.14294     -30987.21       941.84258      3576.0292    
      3800   305.02186     -30981.641     -6245.6633      3575.3086    
      3900   325.85102     -30998.817     -1380.5857      3574.5881    
      4000   283.7477      -30979.859      9012.7535      3573.8676    
      4100   309.87027     -31016.506      6858.6142      3573.147     
      4200   283.02471     -30985.125     -1641.2828      3572.4265    
      4300   296.10977     -30981.827      8485.9318      3571.7059    
      4400   321.21421     -30996.792     -3850.1028      3570.9854    
      4500   298.64823     -31002.652      4546.9371      3570.2649    
      4600   280.44661     -31005.732      6956.4474      3569.5443    
      4700   298.20381     -31007.945      2755.2819      3568.8238    
      4800   304.27949     -30995.127      285.52265      3568.1033    
      4900   291.01659     -30979.216      9683.7422      3567.3827    
      5000   302.66781     -30995.241      16934.295      3566.6622    
Loop time of 193.293 on 16 procs for 5000 steps with 331 atoms

Performance: 1.117 ns/day, 21.477 hours/ns, 25.868 timesteps/s, 8.562 katom-step/s
99.0% CPU use with 8 MPI tasks x 2 OpenMP threads

MPI task timing breakdown:
Section |  min time  |  avg time  |  max time  |%varavg| %total
---------------------------------------------------------------
Pair    | 112.62     | 142.44     | 169.28     | 178.4 | 73.69
Bond    | 0.012088   | 0.013378   | 0.014224   |   0.5 |  0.01
Neigh   | 1.7854     | 2.1824     | 2.6232     |  24.4 |  1.13
Comm    | 3.8742     | 30.671     | 60.528     | 384.3 | 15.87
Output  | 0.015354   | 0.039641   | 0.086051   |  12.9 |  0.02
Modify  | 17.335     | 17.819     | 18.264     |   9.2 |  9.22
Other   |            | 0.1294     |            |       |  0.07

Nlocal:         41.375 ave          47 max          34 min
Histogram: 1 0 1 1 1 1 0 0 0 3
Nghost:         3346.5 ave        3399 max        3304 min
Histogram: 2 0 1 1 1 1 0 0 0 2
Neighs:        26936.2 ave       30554 max       22338 min
Histogram: 1 0 1 1 1 1 0 0 0 3

Total # of neighbors = 215490
Ave neighs/atom = 651.02719
Ave special neighs/atom = 0
Neighbor list builds = 81
Dangerous builds = 0
  using 2 OpenMP thread(s) per MPI task
Reading restart file ...
  restart file = 2 Aug 2023, LAMMPS = 2 Aug 2023
  restoring atom style full from restart
  triclinic box = (0 0 0) to (15.7087 13.0868 17.5248) with tilt (-8.2042 -0.1458 -2.0056)
WARNING: Triclinic box skew is large. LAMMPS will run inefficiently. (src/domain.cpp:220)
  2 by 2 by 2 MPI processor grid
  pair style reaxff stores no restart info
  331 atoms
Finding 1-2 1-3 1-4 neighbors ...
  special bond factors lj:    0        0        0       
  special bond factors coul:  0        0        0       
     0 = max # of 1-2 neighbors
     0 = max # of 1-3 neighbors
     0 = max # of 1-4 neighbors
     1 = max # of special neighbors
  special bonds CPU = 0.000 seconds
  read_restart CPU = 0.005 seconds
*****Positive-deform 3 starts.*****
WARNING: Van der Waals parameters for element SI indicate inner wall+shielding, but earlier atoms indicate a different van der Waals method. This may cause division-by-zero errors. Keeping van der Waals setting for earlier atoms. (src/REAXFF/reaxff_ffield.cpp:251)
Neighbor list info ...
  update: every = 10 steps, delay = 0 steps, check = yes
  max neighbors/atom: 2000, page size: 100000
  master list distance cutoff = 12
  ghost atom cutoff = 12
  binsize = 6, bins = 5 3 3
  2 neighbor lists, perpetual/occasional/extra = 2 0 0
  (1) pair reaxff, perpetual
      attributes: half, newton off, ghost
      pair build: half/bin/newtoff/ghost
      stencil: full/ghost/bin/3d
      bin: standard
  (2) fix qeq/reaxff, perpetual, copy from (1)
      attributes: half, newton off
      pair build: copy
      stencil: none
      bin: none
Setting up Verlet run ...
  Unit style    : real
  Current step  : 0
  Time step     : 0.5
Per MPI rank memory allocation (min/avg/max) = 127.9 | 130.6 | 133.6 Mbytes
   Step          Temp          PotEng         Press          Volume    
         0   286.86183     -30999.808      1168.1744      3602.6891    
       100   311.19687     -31014.332      5467.7703      3603.4096    
       200   315.14527     -30992.786      8093.696       3604.1301    
       300   316.70132     -30969.808      3075.1686      3604.8507    
       400   321.4618      -30970.427      10856.395      3605.5712    
       500   287.82996     -30977.702      4637.8456      3606.2918    
       600   281.41693     -30990.551      3961.3894      3607.0123    
       700   292.85856     -31002.359      7636.3892      3607.7328    
       800   296.6143      -30988.738      13035.885      3608.4534    
       900   322.89916     -30993.206      1355.9151      3609.1739    
      1000   310.93781     -30984.178      6759.9984      3609.8944    
      1100   281.98905     -30997.854     -14045.974      3610.615     
      1200   285.25176     -31001.584      3705.749       3611.3355    
      1300   309.34821     -31009.192      1355.0755      3612.0561    
      1400   308.46415     -30991.802     -3121.2796      3612.7766    
      1500   296.02728     -30971.712      2263.2048      3613.4971    
      1600   297.76486     -30980.238      289.6339       3614.2177    
      1700   293.53493     -30993.79      -1765.1747      3614.9382    
      1800   295.22057     -31012.929     -3423.5756      3615.6587    
      1900   285.04587     -31008.006      3934.3181      3616.3793    
      2000   314.57576     -31006.04      -6429.4073      3617.0998    
      2100   290.25369     -30964.013     -9514.0544      3617.8204    
      2200   311.04919     -30998.51       5190.2352      3618.5409    
      2300   289.28723     -30997.395      8408.0855      3619.2614    
      2400   282.65625     -30988.037      4379.958       3619.982     
      2500   301.31483     -30988.017     -5194.5776      3620.7025    
      2600   333.81833     -30983.398      9393.0146      3621.423     
      2700   320.11157     -30980.148      4550.0124      3622.1436    
      2800   309.61313     -30994.601     -3383.5742      3622.8641    
      2900   313.72458     -31012.917      9.9639274      3623.5847    
      3000   289.31671     -30996.988      9201.931       3624.3052    
      3100   282.33168     -31001.102      1545.7725      3625.0257    
      3200   288.22369     -30998.479      391.52352      3625.7463    
      3300   313.04901     -30990.89      -5964.6076      3626.4668    
      3400   321.54586     -30999.097     -4047.2385      3627.1874    
      3500   298.37842     -30998.126     -8767.3602      3627.9079    
      3600   268.40285     -30974.652      7826.781       3628.6284    
      3700   295.52632     -30994.505      76.777323      3629.349     
      3800   298.39157     -30994.703      7581.0084      3630.0695    
      3900   305.80347     -30988.752     -2396.62        3630.79      
      4000   311.54627     -30982.073      119.49464      3631.5106    
      4100   305.18592     -30988.012     -12834.439      3632.2311    
      4200   307.19079     -31016.323     -194.51772      3632.9517    
      4300   304.22156     -31023.351     -694.33684      3633.6722    
      4400   280.74956     -30988.533     -8176.4633      3634.3927    
      4500   294.04008     -30969.108      1472.39        3635.1133    
      4600   319.12419     -30992.238      3802.4629      3635.8338    
      4700   301.01034     -30984.95      -418.1729       3636.5543    
      4800   282.71947     -30989.915      729.64778      3637.2749    
      4900   299.57926     -31017.96       1480.5339      3637.9954    
      5000   285.72305     -30985.775     -161.78391      3638.716     
Loop time of 194.166 on 16 procs for 5000 steps with 331 atoms

Performance: 1.112 ns/day, 21.574 hours/ns, 25.751 timesteps/s, 8.524 katom-step/s
98.9% CPU use with 8 MPI tasks x 2 OpenMP threads

MPI task timing breakdown:
Section |  min time  |  avg time  |  max time  |%varavg| %total
---------------------------------------------------------------
Pair    | 111.57     | 146.32     | 169.22     | 184.3 | 75.36
Bond    | 0.012357   | 0.013447   | 0.01492    |   0.6 |  0.01
Neigh   | 1.7648     | 2.2534     | 2.6055     |  24.9 |  1.16
Comm    | 4.3623     | 27.25      | 62.027     | 427.0 | 14.03
Output  | 0.015667   | 0.038576   | 0.082561   |  12.4 |  0.02
Modify  | 17.774     | 18.146     | 18.671     |   9.1 |  9.35
Other   |            | 0.1434     |            |       |  0.07

Nlocal:         41.375 ave          50 max          30 min
Histogram: 1 0 1 0 1 0 1 2 1 1
Nghost:        3308.88 ave        3355 max        3258 min
Histogram: 2 0 0 1 0 2 0 1 0 2
Neighs:        26382.4 ave       31430 max       19353 min
Histogram: 1 1 0 0 1 0 1 2 1 1

Total # of neighbors = 211059
Ave neighs/atom = 637.64048
Ave special neighs/atom = 0
Neighbor list builds = 81
Dangerous builds = 0
  using 2 OpenMP thread(s) per MPI task
Reading restart file ...
  restart file = 2 Aug 2023, LAMMPS = 2 Aug 2023
  restoring atom style full from restart
  triclinic box = (0 0 0) to (15.7087 13.0868 17.5248) with tilt (-8.2042 -0.1458 -2.0056)
WARNING: Triclinic box skew is large. LAMMPS will run inefficiently. (src/domain.cpp:220)
  2 by 2 by 2 MPI processor grid
  pair style reaxff stores no restart info
  331 atoms
Finding 1-2 1-3 1-4 neighbors ...
  special bond factors lj:    0        0        0       
  special bond factors coul:  0        0        0       
     0 = max # of 1-2 neighbors
     0 = max # of 1-3 neighbors
     0 = max # of 1-4 neighbors
     1 = max # of special neighbors
  special bonds CPU = 0.000 seconds
  read_restart CPU = 0.003 seconds
*****debug*****
xy = -8.2042000000000001592, deltaxy = 0.082042
xz = -0.14580000000000001292, deltaxz = 0.001458
yz = -2.0055999999999998273, deltayz = 0.020056
*****
*****Negative-deform 4 starts.*****
WARNING: Van der Waals parameters for element SI indicate inner wall+shielding, but earlier atoms indicate a different van der Waals method. This may cause division-by-zero errors. Keeping van der Waals setting for earlier atoms. (src/REAXFF/reaxff_ffield.cpp:251)
Neighbor list info ...
  update: every = 10 steps, delay = 0 steps, check = yes
  max neighbors/atom: 2000, page size: 100000
  master list distance cutoff = 12
  ghost atom cutoff = 12
  binsize = 6, bins = 5 3 3
  2 neighbor lists, perpetual/occasional/extra = 2 0 0
  (1) pair reaxff, perpetual
      attributes: half, newton off, ghost
      pair build: half/bin/newtoff/ghost
      stencil: full/ghost/bin/3d
      bin: standard
  (2) fix qeq/reaxff, perpetual, copy from (1)
      attributes: half, newton off
      pair build: copy
      stencil: none
      bin: none
Setting up Verlet run ...
  Unit style    : real
  Current step  : 0
  Time step     : 0.5
Per MPI rank memory allocation (min/avg/max) = 127.9 | 130.6 | 133.6 Mbytes
   Step          Temp          PotEng         Press          Volume    
         0   286.86183     -30999.808      1168.1744      3602.6891    
       100   311.196       -31014.329      5469.5119      3602.6891    
       200   315.13615     -30992.566      8114.6045      3602.6891    
       300   316.79002     -30969.268      3271.2208      3602.6891    
       400   322.04959     -30969.995      10834.698      3602.6891    
       500   288.82452     -30977.456      4645.9541      3602.6891    
       600   282.99218     -30991.431      4317.0123      3602.6891    
       700   296.02662     -31005.948      7400.6625      3602.6891    
       800   296.95451     -30990.117      12176.126      3602.6891    
       900   329.57123     -31001.466      1083.66        3602.6891    
      1000   303.21427     -30987.015      6186.6501      3602.6891    
      1100   278.66712     -31001.173     -9739.4519      3602.6891    
      1200   289.9796      -31007.565      3239.3181      3602.6891    
      1300   291.26891     -30985.262      5276.2635      3602.6891    
      1400   293.29874     -30972.452     -5304.2503      3602.6891    
      1500   305.66913     -30984.663      2771.8216      3602.6891    
      1600   308.51211     -31001.494     -433.18139      3602.6891    
      1700   265.27529     -30997.908     -11167.127      3602.6891    
      1800   286.32374     -31010.066      15368.655      3602.6891    
      1900   284.34655     -30980.846      4562.276       3602.6891    
      2000   296.45965     -30979.186     -5623.1794      3602.6891    
      2100   304.03317     -30988.207      805.404        3602.6891    
      2200   285.84449     -30984.225      7522.8645      3602.6891    
      2300   270.86231     -30997.106     -1332.4369      3602.6891    
      2400   309.62857     -31032.519      162.14379      3602.6891    
      2500   306.76484     -30996.716      428.39501      3602.6891    
      2600   297.35877     -30979.878      5619.3974      3602.6891    
      2700   294.16756     -30979.671      2827.3504      3602.6891    
      2800   303.31393     -31002.905      4362.2911      3602.6891    
      2900   291.00206     -31003.266     -15464.892      3602.6891    
      3000   286.3668      -31004.865      5215.9754      3602.6891    
      3100   276.34022     -30975.752      3672.8748      3602.6891    
      3200   319.28786     -30994.227      7074.2618      3602.6891    
      3300   305.25314     -30979.071      11917.58       3602.6891    
      3400   282.29089     -30973.986      10208.175      3602.6891    
      3500   302.53465     -31023.69      -5355.6813      3602.6891    
      3600   281.46908     -31002.18      -5331.594       3602.6891    
      3700   299.68223     -31009.349      215.96663      3602.6891    
      3800   320.25487     -31018.714     -1941.14        3602.6891    
      3900   291.13615     -30983.195     -45.537322      3602.6891    
      4000   299.88955     -30983.803      9640.9481      3602.6891    
      4100   318.54625     -30995.822     -1014.8397      3602.6891    
      4200   304.77795     -30979.26       3956.0015      3602.6891    
      4300   286.23252     -30981.043      6944.5766      3602.6891    
      4400   299.73736     -31010.663      2630.074       3602.6891    
      4500   297.94203     -31013.471     -2006.4071      3602.6891    
      4600   282.99235     -30994.488     -4271.3832      3602.6891    
      4700   308.9392      -30989.209     -4179.1875      3602.6891    
      4800   311.18532     -30979.46      -2998.1313      3602.6891    
      4900   290.6691      -30969.097      9664.1485      3602.6891    
      5000   313.22403     -31021.352      1999.9882      3602.6891    
Loop time of 196.253 on 16 procs for 5000 steps with 331 atoms

Performance: 1.101 ns/day, 21.806 hours/ns, 25.477 timesteps/s, 8.433 katom-step/s
99.0% CPU use with 8 MPI tasks x 2 OpenMP threads

MPI task timing breakdown:
Section |  min time  |  avg time  |  max time  |%varavg| %total
---------------------------------------------------------------
Pair    | 112.1      | 149.2      | 174.36     | 196.4 | 76.02
Bond    | 0.012342   | 0.013435   | 0.015424   |   0.7 |  0.01
Neigh   | 1.7146     | 2.2322     | 2.5898     |  26.4 |  1.14
Comm    | 1.3209     | 26.547     | 63.659     | 465.8 | 13.53
Output  | 0.015895   | 0.039688   | 0.085606   |  12.7 |  0.02
Modify  | 17.703     | 18.071     | 18.626     |   9.7 |  9.21
Other   |            | 0.1499     |            |       |  0.08

Nlocal:         41.375 ave          46 max          35 min
Histogram: 2 0 0 0 2 0 1 0 0 3
Nghost:         3295.5 ave        3335 max        3275 min
Histogram: 2 1 2 1 0 0 1 0 0 1
Neighs:        26633.1 ave       29536 max       22765 min
Histogram: 2 0 0 0 2 0 1 0 0 3

Total # of neighbors = 213065
Ave neighs/atom = 643.70091
Ave special neighs/atom = 0
Neighbor list builds = 78
Dangerous builds = 0
  using 2 OpenMP thread(s) per MPI task
Reading restart file ...
  restart file = 2 Aug 2023, LAMMPS = 2 Aug 2023
  restoring atom style full from restart
  triclinic box = (0 0 0) to (15.7087 13.0868 17.5248) with tilt (-8.2042 -0.1458 -2.0056)
WARNING: Triclinic box skew is large. LAMMPS will run inefficiently. (src/domain.cpp:220)
  2 by 2 by 2 MPI processor grid
  pair style reaxff stores no restart info
  331 atoms
Finding 1-2 1-3 1-4 neighbors ...
  special bond factors lj:    0        0        0       
  special bond factors coul:  0        0        0       
     0 = max # of 1-2 neighbors
     0 = max # of 1-3 neighbors
     0 = max # of 1-4 neighbors
     1 = max # of special neighbors
  special bonds CPU = 0.000 seconds
  read_restart CPU = 0.003 seconds
*****Positive-deform 4 starts.*****
WARNING: Van der Waals parameters for element SI indicate inner wall+shielding, but earlier atoms indicate a different van der Waals method. This may cause division-by-zero errors. Keeping van der Waals setting for earlier atoms. (src/REAXFF/reaxff_ffield.cpp:251)
Neighbor list info ...
  update: every = 10 steps, delay = 0 steps, check = yes
  max neighbors/atom: 2000, page size: 100000
  master list distance cutoff = 12
  ghost atom cutoff = 12
  binsize = 6, bins = 5 3 3
  2 neighbor lists, perpetual/occasional/extra = 2 0 0
  (1) pair reaxff, perpetual
      attributes: half, newton off, ghost
      pair build: half/bin/newtoff/ghost
      stencil: full/ghost/bin/3d
      bin: standard
  (2) fix qeq/reaxff, perpetual, copy from (1)
      attributes: half, newton off
      pair build: copy
      stencil: none
      bin: none
Setting up Verlet run ...
  Unit style    : real
  Current step  : 0
  Time step     : 0.5
Per MPI rank memory allocation (min/avg/max) = 127.9 | 130.6 | 133.6 Mbytes
   Step          Temp          PotEng         Press          Volume    
         0   286.86183     -30999.808      1168.1744      3602.6891    
       100   311.19606     -31014.328      5468.7401      3602.6891    
       200   314.84729     -30992.457      8080.125       3602.6891    
       300   317.03443     -30969.928      3189.0857      3602.6891    
       400   321.09366     -30969.85       10809.171      3602.6891    
       500   289.04816     -30978.575      4680.46        3602.6891    
       600   282.11953     -30991.688      4038.9148      3602.6891    
       700   293.01432     -31003.538      8893.5008      3602.6891    
       800   301.7273      -30992.494      13644.681      3602.6891    
       900   319.82488     -30992.517      1592.5128      3602.6891    
      1000   307.52179     -30991.75       6269.5961      3602.6891    
      1100   284.14813     -31008.256     -11887.407      3602.6891    
      1200   282.19597     -30999.841      3845.5566      3602.6891    
      1300   305.72755     -30998.917      4401.596       3602.6891    
      1400   284.92133     -30965.804     -1010.3674      3602.6891    
      1500   312.71602     -30990.148      2602.7281      3602.6891    
      1600   302.33654     -30996.325     -1732.5998      3602.6891    
      1700   280.75982     -31009.115      7272.6882      3602.6891    
      1800   289.05118     -31016.602      162.89132      3602.6891    
      1900   282.83798     -30980.416     -809.1567       3602.6891    
      2000   295.71334     -30981.2       -6804.1349      3602.6891    
      2100   303.75816     -30993.25       4389.4672      3602.6891    
      2200   289.02421     -30996.426      13447.545      3602.6891    
      2300   282.27807     -31015.793      2020.7607      3602.6891    
      2400   284.69616     -31033.494     -8896.8621      3602.6891    
      2500   292.2568      -31003.101     -3316.487       3602.6891    
      2600   322.1731      -31012.129      6768.4436      3602.6891    
      2700   295.79296     -30981.875     -8081.4496      3602.6891    
      2800   296.66219     -30992.223      4293.3301      3602.6891    
      2900   280.02031     -30987.431      3898.9122      3602.6891    
      3000   292.23786     -31007.734      5475.0443      3602.6891    
      3100   293.87653     -31013.817      7484.0625      3602.6891    
      3200   286.19636     -30983.731      8926.1185      3602.6891    
      3300   304.11443     -30982.297      203.24143      3602.6891    
      3400   315.94409     -30995.463      290.84795      3602.6891    
      3500   282.05104     -30995.82       2850.6774      3602.6891    
      3600   287.07089     -31008.723      5394.8257      3602.6891    
      3700   286.71893     -30993.373     -6372.5527      3602.6891    
      3800   307.059       -30996.147      3852.9585      3602.6891    
      3900   296.29412     -30982.307      2572.2995      3602.6891    
      4000   307.12146     -31005.852      12584.6        3602.6891    
      4100   280.99029     -31016.283     -1483.5957      3602.6891    
      4200   292.60855     -31019.181      1291.4048      3602.6891    
      4300   301.26156     -31004.35       8931.4306      3602.6891    
      4400   299.89242     -30992.117      15994.254      3602.6891    
      4500   315.70518     -31002.864     -1746.7304      3602.6891    
      4600   299.98103     -30991.003      9832.4725      3602.6891    
      4700   294.08044     -31009.726      5065.1831      3602.6891    
      4800   290.62163     -31013.959      4802.4691      3602.6891    
      4900   283.43875     -30988.357      2692.1006      3602.6891    
      5000   322.1375      -31004.095      15772.009      3602.6891    
Loop time of 192.282 on 16 procs for 5000 steps with 331 atoms

Performance: 1.123 ns/day, 21.365 hours/ns, 26.003 timesteps/s, 8.607 katom-step/s
98.9% CPU use with 8 MPI tasks x 2 OpenMP threads

MPI task timing breakdown:
Section |  min time  |  avg time  |  max time  |%varavg| %total
---------------------------------------------------------------
Pair    | 110.13     | 146.69     | 170.01     | 194.2 | 76.29
Bond    | 0.01253    | 0.013695   | 0.015328   |   0.7 |  0.01
Neigh   | 2.0983     | 2.7075     | 3.1019     |  28.1 |  1.41
Comm    | 1.3739     | 24.719     | 61.301     | 473.1 | 12.86
Output  | 0.01688    | 0.041439   | 0.08875    |  12.8 |  0.02
Modify  | 17.499     | 17.923     | 18.573     |  11.2 |  9.32
Other   |            | 0.1904     |            |       |  0.10

Nlocal:         41.375 ave          46 max          37 min
Histogram: 1 1 1 1 0 1 0 1 1 1
Nghost:        3240.12 ave        3299 max        3188 min
Histogram: 1 0 1 2 1 1 0 0 1 1
Neighs:        26656.2 ave       29467 max       23867 min
Histogram: 1 1 1 1 0 1 0 1 0 2

Total # of neighbors = 213250
Ave neighs/atom = 644.25982
Ave special neighs/atom = 0
Neighbor list builds = 85
Dangerous builds = 0
  using 2 OpenMP thread(s) per MPI task
Reading restart file ...
  restart file = 2 Aug 2023, LAMMPS = 2 Aug 2023
  restoring atom style full from restart
  triclinic box = (0 0 0) to (15.7087 13.0868 17.5248) with tilt (-8.2042 -0.1458 -2.0056)
WARNING: Triclinic box skew is large. LAMMPS will run inefficiently. (src/domain.cpp:220)
  2 by 2 by 2 MPI processor grid
  pair style reaxff stores no restart info
  331 atoms
Finding 1-2 1-3 1-4 neighbors ...
  special bond factors lj:    0        0        0       
  special bond factors coul:  0        0        0       
     0 = max # of 1-2 neighbors
     0 = max # of 1-3 neighbors
     0 = max # of 1-4 neighbors
     1 = max # of special neighbors
  special bonds CPU = 0.000 seconds
  read_restart CPU = 0.003 seconds
*****debug*****
xy = -8.2042000000000001592, deltaxy = 0.082042
xz = -0.14580000000000001292, deltaxz = 0.001458
yz = -2.0055999999999998273, deltayz = 0.020056
*****
*****Negative-deform 5 starts.*****
WARNING: Van der Waals parameters for element SI indicate inner wall+shielding, but earlier atoms indicate a different van der Waals method. This may cause division-by-zero errors. Keeping van der Waals setting for earlier atoms. (src/REAXFF/reaxff_ffield.cpp:251)
Neighbor list info ...
  update: every = 10 steps, delay = 0 steps, check = yes
  max neighbors/atom: 2000, page size: 100000
  master list distance cutoff = 12
  ghost atom cutoff = 12
  binsize = 6, bins = 5 3 3
  2 neighbor lists, perpetual/occasional/extra = 2 0 0
  (1) pair reaxff, perpetual
      attributes: half, newton off, ghost
      pair build: half/bin/newtoff/ghost
      stencil: full/ghost/bin/3d
      bin: standard
  (2) fix qeq/reaxff, perpetual, copy from (1)
      attributes: half, newton off
      pair build: copy
      stencil: none
      bin: none
Setting up Verlet run ...
  Unit style    : real
  Current step  : 0
  Time step     : 0.5
Per MPI rank memory allocation (min/avg/max) = 127.9 | 130.6 | 133.6 Mbytes
   Step          Temp          PotEng         Press          Volume    
         0   286.86183     -30999.808      1168.1744      3602.6891    
       100   311.19712     -31014.332      5468.768       3602.6891    
       200   315.0415      -30992.431      8137.8236      3602.6891    
       300   317.10794     -30969.571      3263.3231      3602.6891    
       400   321.90026     -30969.518      10902.736      3602.6891    
       500   289.91525     -30978.354      4609.7264      3602.6891    
       600   281.84895     -30990.621      4291.3945      3602.6891    
       700   294.54051     -31004.612      7913.8985      3602.6891    
       800   298.06975     -30990.437      13212.683      3602.6891    
       900   324.05809     -30995.09       1012.2657      3602.6891    
      1000   305.28657     -30987.519      7798.4744      3602.6891    
      1100   282.357       -31003.917     -8881.6709      3602.6891    
      1200   282.09474     -30998.513      3062.7863      3602.6891    
      1300   312.40821     -31004.692      3165.2601      3602.6891    
      1400   286.1732      -30966.585      3448.3852      3602.6891    
      1500   314.88629     -30988.077      11233          3602.6891    
      1600   296.1278      -30987.952      1096.9235      3602.6891    
      1700   286.13411     -31006.072      2036.7523      3602.6891    
      1800   292.58656     -31012.713      5012.6351      3602.6891    
      1900   301.94686     -30995.304      14806.317      3602.6891    
      2000   321.52212     -31003.634      5629.1112      3602.6891    
      2100   303.91965     -30989.524      1233.5789      3602.6891    
      2200   303.18775     -30998.291      6366.1519      3602.6891    
      2300   289.11434     -30995.276      530.21319      3602.6891    
      2400   287.79115     -30987.892     -5449.9232      3602.6891    
      2500   302.97194     -30997.535      3202.8663      3602.6891    
      2600   304.43375     -31000.981     -2736.2726      3602.6891    
      2700   294.93436     -30994.744      6368.7576      3602.6891    
      2800   296.47156     -30997.94      -7202.8193      3602.6891    
      2900   288.00267     -30991.52      -3111.7157      3602.6891    
      3000   294.23935     -30987.081      4519.5448      3602.6891    
      3100   293.88926     -30974.586      5111.2736      3602.6891    
      3200   301.98099     -30987.176      5251.0775      3602.6891    
      3300   284.04468     -30990.054      5412.3612      3602.6891    
      3400   301.28966     -31016.398      1979.9231      3602.6891    
      3500   306.30695     -31008.161     -2712.816       3602.6891    
      3600   307.6938      -30982.397      4252.5891      3602.6891    
      3700   289.54383     -30957.928     -76.180769      3602.6891    
      3800   281.08265     -30976.087      4127.4002      3602.6891    
      3900   273.51132     -30993.275     -547.63628      3602.6891    
      4000   302.50444     -31014.731     -25.238958      3602.6891    
      4100   294.01725     -30988.048      939.93559      3602.6891    
      4200   313.9499      -30991.462      2353.3279      3602.6891    
      4300   314.51796     -31004.664     -4177.1213      3602.6891    
      4400   295.49184     -30996.366      7504.573       3602.6891    
      4500   307.35003     -31007.501      4157.1617      3602.6891    
      4600   294.17854     -31001.691      4556.8275      3602.6891    
      4700   299.08579     -31006.382      3417.6958      3602.6891    
      4800   268.83234     -30967.495     -2245.6188      3602.6891    
      4900   320.9861      -30994.399     -2865.2105      3602.6891    
      5000   323.348       -30984.85      -1116.6808      3602.6891    
Loop time of 196.072 on 16 procs for 5000 steps with 331 atoms

Performance: 1.102 ns/day, 21.786 hours/ns, 25.501 timesteps/s, 8.441 katom-step/s
98.9% CPU use with 8 MPI tasks x 2 OpenMP threads

MPI task timing breakdown:
Section |  min time  |  avg time  |  max time  |%varavg| %total
---------------------------------------------------------------
Pair    | 112.47     | 149.16     | 174.17     | 195.8 | 76.07
Bond    | 0.012354   | 0.013671   | 0.014978   |   0.7 |  0.01
Neigh   | 1.7381     | 2.2465     | 2.5726     |  25.8 |  1.15
Comm    | 1.3457     | 26.435     | 63.138     | 465.2 | 13.48
Output  | 0.015931   | 0.039806   | 0.085715   |  12.7 |  0.02
Modify  | 17.681     | 18.029     | 18.578     |   9.5 |  9.19
Other   |            | 0.1469     |            |       |  0.07

Nlocal:         41.375 ave          48 max          33 min
Histogram: 1 1 0 0 1 0 2 1 0 2
Nghost:        3316.12 ave        3381 max        3265 min
Histogram: 1 1 1 1 2 0 0 0 1 1
Neighs:        26628.4 ave       30688 max       21416 min
Histogram: 1 1 0 1 0 0 2 1 0 2

Total # of neighbors = 213027
Ave neighs/atom = 643.5861
Ave special neighs/atom = 0
Neighbor list builds = 79
Dangerous builds = 0
  using 2 OpenMP thread(s) per MPI task
Reading restart file ...
  restart file = 2 Aug 2023, LAMMPS = 2 Aug 2023
  restoring atom style full from restart
  triclinic box = (0 0 0) to (15.7087 13.0868 17.5248) with tilt (-8.2042 -0.1458 -2.0056)
WARNING: Triclinic box skew is large. LAMMPS will run inefficiently. (src/domain.cpp:220)
  2 by 2 by 2 MPI processor grid
  pair style reaxff stores no restart info
  331 atoms
Finding 1-2 1-3 1-4 neighbors ...
  special bond factors lj:    0        0        0       
  special bond factors coul:  0        0        0       
     0 = max # of 1-2 neighbors
     0 = max # of 1-3 neighbors
     0 = max # of 1-4 neighbors
     1 = max # of special neighbors
  special bonds CPU = 0.000 seconds
  read_restart CPU = 0.003 seconds
*****Positive-deform 5 starts.*****
WARNING: Van der Waals parameters for element SI indicate inner wall+shielding, but earlier atoms indicate a different van der Waals method. This may cause division-by-zero errors. Keeping van der Waals setting for earlier atoms. (src/REAXFF/reaxff_ffield.cpp:251)
Neighbor list info ...
  update: every = 10 steps, delay = 0 steps, check = yes
  max neighbors/atom: 2000, page size: 100000
  master list distance cutoff = 12
  ghost atom cutoff = 12
  binsize = 6, bins = 5 3 3
  2 neighbor lists, perpetual/occasional/extra = 2 0 0
  (1) pair reaxff, perpetual
      attributes: half, newton off, ghost
      pair build: half/bin/newtoff/ghost
      stencil: full/ghost/bin/3d
      bin: standard
  (2) fix qeq/reaxff, perpetual, copy from (1)
      attributes: half, newton off
      pair build: copy
      stencil: none
      bin: none
Setting up Verlet run ...
  Unit style    : real
  Current step  : 0
  Time step     : 0.5
Per MPI rank memory allocation (min/avg/max) = 127.9 | 130.6 | 133.6 Mbytes
   Step          Temp          PotEng         Press          Volume    
         0   286.86183     -30999.808      1168.1744      3602.6891    
       100   311.19494     -31014.326      5469.5023      3602.6891    
       200   314.92924     -30992.576      8065.9494      3602.6891    
       300   316.82424     -30969.713      3202.7619      3602.6891    
       400   321.21484     -30970.078      10785.697      3602.6891    
       500   288.40384     -30977.919      4760.2521      3602.6891    
       600   281.96645     -30991.099      3819.9618      3602.6891    
       700   294.46869     -31004.659      7826.3369      3602.6891    
       800   299.00699     -30990.819      12721.869      3602.6891    
       900   324.22904     -30995.524      2032.8009      3602.6891    
      1000   304.46671     -30987.388      6224.2296      3602.6891    
      1100   282.4092      -31003.774     -8545.1782      3602.6891    
      1200   287.51026     -31002.059     -1067.6229      3602.6891    
      1300   311.15328     -31002.592      7050.6544      3602.6891    
      1400   304.60967     -30985.729     -4956.6349      3602.6891    
      1500   300.19652     -30976.377      20.569316      3602.6891    
      1600   303.18243     -30994.589      2850.2941      3602.6891    
      1700   299.63325     -31017.374     -4860.7518      3602.6891    
      1800   298.08662     -31021.39       9114.07        3602.6891    
      1900   294.02482     -30999.163      5024.8397      3602.6891    
      2000   311.8441      -30989.484     -2404.8055      3602.6891    
      2100   303.86098     -30978.457      2184.3202      3602.6891    
      2200   290.80991     -30975.634     -257.60505      3602.6891    
      2300   285.24075     -30987.499     -5369.7842      3602.6891    
      2400   308.84505     -31019.222     -3580.8052      3602.6891    
      2500   293.78111     -31004.561      13383.364      3602.6891    
      2600   301.03026     -31003.146      5449.9762      3602.6891    
      2700   311.58855     -31002.333      11697.224      3602.6891    
      2800   310.93541     -30996.831      6969.2842      3602.6891    
      2900   285.5908      -30964.282     -9378.614       3602.6891    
      3000   316.09679     -30986.538      4467.1236      3602.6891    
      3100   306.20728     -30979.371      1348.9703      3602.6891    
      3200   299.70589     -31000.693     -1536.771       3602.6891    
      3300   281.99253     -30989.395      8386.821       3602.6891    
      3400   311.85808     -31009.558     -1626.1029      3602.6891    
      3500   333.89194     -30992.846      901.17645      3602.6891    
      3600   304.71193     -30962.562     -4963.9053      3602.6891    
      3700   308.20422     -30992.053     -6113.0305      3602.6891    
      3800   312.51777     -31009.763      12434.019      3602.6891    
      3900   293.94972     -30994.545      7153.1191      3602.6891    
      4000   286.16774     -30979.628      6817.7573      3602.6891    
      4100   315.23893     -30993.729      2743.0793      3602.6891    
      4200   312.66442     -30983.779     -659.39091      3602.6891    
      4300   285.24868     -30977.436      10440.171      3602.6891    
      4400   309.96385     -31026.869      1305.8048      3602.6891    
      4500   280.80579     -30995.873      3504.5512      3602.6891    
      4600   309.06383     -31006.898      1549.015       3602.6891    
      4700   296.19684     -30992.45      -2860.5558      3602.6891    
      4800   299.41055     -30997.674     -1340.2384      3602.6891    
      4900   291.19379     -30990.859      1705.8955      3602.6891    
      5000   294.56607     -30990.217      10033.246      3602.6891    
Loop time of 191.351 on 16 procs for 5000 steps with 331 atoms

Performance: 1.129 ns/day, 21.261 hours/ns, 26.130 timesteps/s, 8.649 katom-step/s
99.0% CPU use with 8 MPI tasks x 2 OpenMP threads

MPI task timing breakdown:
Section |  min time  |  avg time  |  max time  |%varavg| %total
---------------------------------------------------------------
Pair    | 109.76     | 145.94     | 169.18     | 192.0 | 76.27
Bond    | 0.012517   | 0.013775   | 0.015656   |   0.8 |  0.01
Neigh   | 2.0211     | 2.6058     | 3.0028     |  27.5 |  1.36
Comm    | 1.3531     | 24.608     | 60.802     | 467.5 | 12.86
Output  | 0.016903   | 0.041449   | 0.088837   |  12.8 |  0.02
Modify  | 17.527     | 17.953     | 18.578     |  10.8 |  9.38
Other   |            | 0.188      |            |       |  0.10

Nlocal:         41.375 ave          49 max          32 min
Histogram: 1 0 1 0 1 1 0 3 0 1
Nghost:           3246 ave        3306 max        3200 min
Histogram: 1 1 1 3 0 0 0 0 1 1
Neighs:        26624.4 ave       31421 max       20771 min
Histogram: 1 0 1 0 1 1 1 2 0 1

Total # of neighbors = 212995
Ave neighs/atom = 643.48943
Ave special neighs/atom = 0
Neighbor list builds = 82
Dangerous builds = 0
  using 2 OpenMP thread(s) per MPI task
Reading restart file ...
  restart file = 2 Aug 2023, LAMMPS = 2 Aug 2023
  restoring atom style full from restart
  triclinic box = (0 0 0) to (15.7087 13.0868 17.5248) with tilt (-8.2042 -0.1458 -2.0056)
WARNING: Triclinic box skew is large. LAMMPS will run inefficiently. (src/domain.cpp:220)
  2 by 2 by 2 MPI processor grid
  pair style reaxff stores no restart info
  331 atoms
Finding 1-2 1-3 1-4 neighbors ...
  special bond factors lj:    0        0        0       
  special bond factors coul:  0        0        0       
     0 = max # of 1-2 neighbors
     0 = max # of 1-3 neighbors
     0 = max # of 1-4 neighbors
     1 = max # of special neighbors
  special bonds CPU = 0.000 seconds
  read_restart CPU = 0.003 seconds
*****debug*****
xy = -8.2042000000000001592, deltaxy = 0.082042
xz = -0.14580000000000001292, deltaxz = 0.001458
yz = -2.0055999999999998273, deltayz = 0.020056
*****
*****Negative-deform 6 starts.*****
WARNING: Van der Waals parameters for element SI indicate inner wall+shielding, but earlier atoms indicate a different van der Waals method. This may cause division-by-zero errors. Keeping van der Waals setting for earlier atoms. (src/REAXFF/reaxff_ffield.cpp:251)
Neighbor list info ...
  update: every = 10 steps, delay = 0 steps, check = yes
  max neighbors/atom: 2000, page size: 100000
  master list distance cutoff = 12
  ghost atom cutoff = 12
  binsize = 6, bins = 5 3 3
  2 neighbor lists, perpetual/occasional/extra = 2 0 0
  (1) pair reaxff, perpetual
      attributes: half, newton off, ghost
      pair build: half/bin/newtoff/ghost
      stencil: full/ghost/bin/3d
      bin: standard
  (2) fix qeq/reaxff, perpetual, copy from (1)
      attributes: half, newton off
      pair build: copy
      stencil: none
      bin: none
Setting up Verlet run ...
  Unit style    : real
  Current step  : 0
  Time step     : 0.5
Per MPI rank memory allocation (min/avg/max) = 127.9 | 130.6 | 133.6 Mbytes
   Step          Temp          PotEng         Press          Volume    
         0   286.86183     -30999.808      1168.1744      3602.6891    
       100   311.1927      -31014.335      5466.3864      3602.6891    
       200   315.02347     -30992.399      8165.351       3602.6891    
       300   317.03628     -30969.54       3198.7384      3602.6891    
       400   321.12711     -30969.328      11085.981      3602.6891    
       500   290.36335     -30979.112      3666.3689      3602.6891    
       600   280.52833     -30989.545      5013.949       3602.6891    
       700   292.65394     -31001.892      7251.0097      3602.6891    
       800   297.81081     -30990.032      13362.478      3602.6891    
       900   317.99433     -30987.866      2727.5091      3602.6891    
      1000   306.06851     -30976.267      4189.3529      3602.6891    
      1100   278.03444     -30990.231     -11911.748      3602.6891    
      1200   291.00542     -31006.428      1232.1624      3602.6891    
      1300   310.17304     -31009.688      2598.1475      3602.6891    
      1400   288.28414     -30972.572     -10431.956      3602.6891    
      1500   308.96762     -30969.518     -1403.4488      3602.6891    
      1600   332.00508     -30972.77       7908.9761      3602.6891    
      1700   292.8035      -30971.912     -5454.9074      3602.6891    
      1800   315.69488     -31017.374      8.7794684      3602.6891    
      1900   285.92182     -31001.209      1426.6404      3602.6891    
      2000   303.37296     -31012.783     -5417.6522      3602.6891    
      2100   299.07952     -30985.366      6723.8922      3602.6891    
      2200   326.632       -30998.702     -6854.5717      3602.6891    
      2300   288.77837     -30983.081     -5820.2684      3602.6891    
      2400   286.13811     -31003.041     -8578.8262      3602.6891    
      2500   299.9096      -31017.567      5376.4769      3602.6891    
      2600   284.04353     -30991.376     -9808.342       3602.6891    
      2700   316.76081     -31005.643      4925.3215      3602.6891    
      2800   330.36591     -31005.792      4267.7564      3602.6891    
      2900   294.6398      -30975          4864.1953      3602.6891    
      3000   297.18082     -31006.736      4962.7436      3602.6891    
      3100   300.14183     -31025.289     -14176.499      3602.6891    
      3200   291.95655     -31002.692      10637.677      3602.6891    
      3300   293.94445     -30980.51      -4374.2333      3602.6891    
      3400   327.80125     -31013.812      1455.0265      3602.6891    
      3500   284.63765     -30982.269     -1496.7154      3602.6891    
      3600   291.10384     -31006.882      3940.8019      3602.6891    
      3700   278.87996     -31016.401      1603.9977      3602.6891    
      3800   270.01378     -31015.55      -3583.434       3602.6891    
      3900   295.31308     -31009.102     -4090.9447      3602.6891    
      4000   313.11734     -31003.565      2620.4898      3602.6891    
      4100   315.63483     -31003.907      9104.0819      3602.6891    
      4200   296.3823      -30996.92      -1629.959       3602.6891    
      4300   298.75832     -31009.292     -1260.6749      3602.6891    
      4400   307.38866     -31024.836      4720.5435      3602.6891    
      4500   279.11032     -30993.584     -3329.9972      3602.6891    
      4600   299.65631     -30992.974     -4181.3692      3602.6891    
      4700   303.63084     -30975.878     -3749.4644      3602.6891    
      4800   312.06081     -30988.995      961.94478      3602.6891    
      4900   304.84209     -31012.902     -7008.03        3602.6891    
      5000   282.73275     -31007.68      -10583.494      3602.6891    
Loop time of 198.163 on 16 procs for 5000 steps with 331 atoms

Performance: 1.090 ns/day, 22.018 hours/ns, 25.232 timesteps/s, 8.352 katom-step/s
98.9% CPU use with 8 MPI tasks x 2 OpenMP threads

MPI task timing breakdown:
Section |  min time  |  avg time  |  max time  |%varavg| %total
---------------------------------------------------------------
Pair    | 112.6      | 149.71     | 175.85     | 197.5 | 75.55
Bond    | 0.01226    | 0.013708   | 0.014983   |   0.7 |  0.01
Neigh   | 1.9034     | 2.478      | 2.882      |  28.0 |  1.25
Comm    | 1.3152     | 27.531     | 64.664     | 460.8 | 13.89
Output  | 0.016046   | 0.03994    | 0.085933   |  12.7 |  0.02
Modify  | 17.82      | 18.239     | 18.83      |  10.5 |  9.20
Other   |            | 0.147      |            |       |  0.07

Nlocal:         41.375 ave          47 max          37 min
Histogram: 2 1 0 1 1 0 0 0 1 2
Nghost:        3327.62 ave        3381 max        3276 min
Histogram: 1 0 1 1 1 1 1 0 1 1
Neighs:        26627.6 ave       30158 max       23898 min
Histogram: 3 0 0 1 1 0 0 1 1 1

Total # of neighbors = 213021
Ave neighs/atom = 643.56798
Ave special neighs/atom = 0
Neighbor list builds = 87
Dangerous builds = 0
  using 2 OpenMP thread(s) per MPI task
Reading restart file ...
  restart file = 2 Aug 2023, LAMMPS = 2 Aug 2023
  restoring atom style full from restart
  triclinic box = (0 0 0) to (15.7087 13.0868 17.5248) with tilt (-8.2042 -0.1458 -2.0056)
WARNING: Triclinic box skew is large. LAMMPS will run inefficiently. (src/domain.cpp:220)
  2 by 2 by 2 MPI processor grid
  pair style reaxff stores no restart info
  331 atoms
Finding 1-2 1-3 1-4 neighbors ...
  special bond factors lj:    0        0        0       
  special bond factors coul:  0        0        0       
     0 = max # of 1-2 neighbors
     0 = max # of 1-3 neighbors
     0 = max # of 1-4 neighbors
     1 = max # of special neighbors
  special bonds CPU = 0.000 seconds
  read_restart CPU = 0.004 seconds
*****Positive-deform 6 starts.*****
WARNING: Van der Waals parameters for element SI indicate inner wall+shielding, but earlier atoms indicate a different van der Waals method. This may cause division-by-zero errors. Keeping van der Waals setting for earlier atoms. (src/REAXFF/reaxff_ffield.cpp:251)
Neighbor list info ...
  update: every = 10 steps, delay = 0 steps, check = yes
  max neighbors/atom: 2000, page size: 100000
  master list distance cutoff = 12
  ghost atom cutoff = 12
  binsize = 6, bins = 5 3 3
  2 neighbor lists, perpetual/occasional/extra = 2 0 0
  (1) pair reaxff, perpetual
      attributes: half, newton off, ghost
      pair build: half/bin/newtoff/ghost
      stencil: full/ghost/bin/3d
      bin: standard
  (2) fix qeq/reaxff, perpetual, copy from (1)
      attributes: half, newton off
      pair build: copy
      stencil: none
      bin: none
Setting up Verlet run ...
  Unit style    : real
  Current step  : 0
  Time step     : 0.5
Per MPI rank memory allocation (min/avg/max) = 127.9 | 130.6 | 133.6 Mbytes
   Step          Temp          PotEng         Press          Volume    
         0   286.86183     -30999.808      1168.1744      3602.6891    
       100   311.19559     -31014.325      5470.6155      3602.6891    
       200   315.04254     -30992.572      8036.0182      3602.6891    
       300   316.97205     -30969.744      3278.4016      3602.6891    
       400   322.02514     -30970.099      10634.315      3602.6891    
       500   287.00379     -30976.002      5631.4814      3602.6891    
       600   282.8014      -30991.847      5408.5169      3602.6891    
       700   297.73978     -31008.596      8795.6974      3602.6891    
       800   292.87762     -30987.175      10030.073      3602.6891    
       900   306.85944     -30980.553      1435.5017      3602.6891    
      1000   308.26848     -30988.437      6718.6366      3602.6891    
      1100   279.1114      -30999.217     -7574.7145      3602.6891    
      1200   296.20897     -31012.206      4380.518       3602.6891    
      1300   296.65722     -30997.242      11584.745      3602.6891    
      1400   311.7371      -30991.716      57.455419      3602.6891    
      1500   312.61313     -30976.453      3058.482       3602.6891    
      1600   324.41694     -30972.819     -1112.689       3602.6891    
      1700   295.67459     -30967.556      1806.8856      3602.6891    
      1800   303.22279     -31007.045      1134.5799      3602.6891    
      1900   292.0464      -31007.826      8398.3844      3602.6891    
      2000   295.61662     -30998.799      3888.2757      3602.6891    
      2100   294.71565     -30974.042      9981.1956      3602.6891    
      2200   313.90693     -30992.089      6643.6677      3602.6891    
      2300   304.49016     -31005.432      645.69163      3602.6891    
      2400   300.43379     -31008.324     -1121.2182      3602.6891    
      2500   292.64429     -30997.593     -2144.4768      3602.6891    
      2600   290.30395     -30989.001     -2169.0718      3602.6891    
      2700   299.56824     -30973.792     -1410.1465      3602.6891    
      2800   332.47877     -31001.402      8999.1007      3602.6891    
      2900   301.94646     -31000.921     -12993.805      3602.6891    
      3000   287.03552     -31006.417      5496.7202      3602.6891    
      3100   306.34374     -31013.849     -1994.8423      3602.6891    
      3200   285.24304     -30975.394     -4238.0954      3602.6891    
      3300   308.93509     -30993.022     -53.048002      3602.6891    
      3400   297.25246     -31001.043      8073.6028      3602.6891    
      3500   281.49859     -31010.739     -239.64644      3602.6891    
      3600   300.71187     -31014.073      3367.0693      3602.6891    
      3700   300.87897     -30993.752     -6813.1091      3602.6891    
      3800   308.51498     -30995.386     -3459.8021      3602.6891    
      3900   294.01168     -30982.919      1759.0738      3602.6891    
      4000   286.33415     -30983.321      7598.7347      3602.6891    
      4100   298.21695     -31022.442      7256.5278      3602.6891    
      4200   276.60721     -31009.623      3824.4578      3602.6891    
      4300   296.972       -31003.554      10035.71       3602.6891    
      4400   313.0724      -31001.444      274.90058      3602.6891    
      4500   284.85809     -30974.088     -825.49506      3602.6891    
      4600   299.23153     -30994.862      12705.65       3602.6891    
      4700   289.39793     -30998.002      666.34973      3602.6891    
      4800   276.41677     -31008.748     -387.28501      3602.6891    
      4900   281.41264     -31011.645     -3546.5439      3602.6891    
      5000   316.99782     -31013.617     -4268.2916      3602.6891    
Loop time of 187.288 on 16 procs for 5000 steps with 331 atoms

Performance: 1.153 ns/day, 20.810 hours/ns, 26.697 timesteps/s, 8.837 katom-step/s
99.0% CPU use with 8 MPI tasks x 2 OpenMP threads

MPI task timing breakdown:
Section |  min time  |  avg time  |  max time  |%varavg| %total
---------------------------------------------------------------
Pair    | 106.77     | 133.14     | 165.36     | 193.8 | 71.09
Bond    | 0.011901   | 0.013043   | 0.014969   |   0.8 |  0.01
Neigh   | 2.0095     | 2.4043     | 2.9789     |  27.4 |  1.28
Comm    | 1.338      | 33.562     | 59.927     | 386.0 | 17.92
Output  | 0.015973   | 0.040192   | 0.086951   |  12.9 |  0.02
Modify  | 17.323     | 17.951     | 18.361     |  10.3 |  9.58
Other   |            | 0.1748     |            |       |  0.09

Nlocal:         41.375 ave          47 max          34 min
Histogram: 1 0 0 0 2 2 1 0 0 2
Nghost:           3273 ave        3343 max        3203 min
Histogram: 1 0 1 1 2 1 0 0 0 2
Neighs:        26675.1 ave       30095 max       22067 min
Histogram: 1 0 0 0 2 2 1 0 0 2

Total # of neighbors = 213401
Ave neighs/atom = 644.71601
Ave special neighs/atom = 0
Neighbor list builds = 81
Dangerous builds = 0
Total wall time: 0:38:52
