ITEM: TIMESTEP
0
ITEM: NUMBER OF ATOMS
274
ITEM: BOX BOUNDS xy xz yz pp pp pp
-8.3797999999999995e+00 1.8013900000000000e+01 -8.3797999999999995e+00
0.0000000000000000e+00 1.3273200000000001e+01 1.1950000000000001e+00
0.0000000000000000e+00 1.6075500000000002e+01 4.3120000000000003e-01
ITEM: ATOMS id type q x y z
119 2 -0.017029 7.45936 1.4425 5.26906
12 4 1.30703 -0.823901 6.37281 5.40194
7 4 1.11419 0.87114 2.14089 5.12893
9 4 1.25473 -0.611388 4.66178 1.7635
10 4 1.61247 0.259573 4.29395 7.41616
242 1 -0.686653 3.28007 0.428832 3.17692
21 4 0.789988 5.79929 1.40385 5.63299
26 4 1.25943 5.36609 4.45866 6.77474
41 1 -0.666683 0.696455 0.514262 6.09217
44 1 -0.689365 3.75411 3.77234 1.74507
55 3 -0.755616 1.11169 0.980967 1.06674
56 3 -0.824943 -0.489595 2.42903 4.38355
58 3 -0.810113 -1.8403 4.39055 2.8196
59 3 -0.854896 -0.112574 3.49903 0.904113
243 2 0.151327 3.38032 1.55911 3.20471
61 3 -0.756466 1.15378 3.3135 6.16529
62 3 -0.866443 -0.492576 5.41097 6.59611
74 3 -0.787118 5.67686 0.418391 7.36475
78 3 -0.86161 0.635447 5.36893 2.49257
81 3 -0.783264 5.44039 2.92156 5.8484
84 3 -0.789721 2.81698 5.64662 4.1961
85 3 -0.816999 4.74232 5.68621 5.985
113 2 0.0898737 -1.49164 5.3789 4.12081
111 2 0.00136532 2.27397 1.81409 4.05903
112 2 -0.027043 -1.3528 5.74033 0.65964
5 4 1.29962 0.20743 2.13501 0.0885205
118 2 -0.0276093 4.65484 0.775407 4.56549
24 4 1.26432 4.75689 4.86827 0.578926
222 3 -0.777536 6.39896 1.40383 1.05023
223 2 -0.0984656 6.41616 0.881428 3.88456
141 2 0.182123 4.4513 2.83077 1.71011
142 2 0.201776 2.69956 3.62763 1.44673
143 2 0.225707 3.76062 4.33163 2.74036
220 4 0.989 6.98519 0.399653 2.21935
25 4 1.40346 1.4386 6.41506 3.38794
135 2 0.221886 0.781658 0.721513 7.19116
28 4 1.25432 3.95024 6.52268 4.88442
138 2 0.157795 1.59448 0.695363 11.9697
8 4 1.27665 1.97502 2.77831 10.9374
13 4 1.2651 0.384514 4.92849 12.4367
197 2 0.19342 5.12544 1.49373 15.8702
20 4 1.23149 4.73066 2.95392 9.34118
23 4 1.27222 7.00022 2.82031 11.4374
99 3 -0.844255 8.04582 1.33435 8.37206
226 4 0.898045 3.45982 6.40123 15.0464
42 1 -0.672189 2.45083 1.44369 12.1685
57 3 -0.831912 0.571864 2.32838 10.319
63 3 -0.858604 -0.443701 3.87919 13.2785
64 3 -0.825284 1.88383 4.34313 12.2609
65 3 -0.849494 -2.16634 6.18015 9.36293
66 3 -0.88933 -0.328363 5.45845 11.1571
73 3 -0.788335 3.20905 2.83518 9.95399
75 3 -0.844999 5.68069 3.01825 10.6467
76 3 -0.872199 7.06794 1.35322 12.0186
80 3 -0.764393 4.88613 4.29886 8.42519
82 3 -0.79018 1.4304 5.02919 8.23846
137 2 0.171457 3.49669 1.07555 11.8162
114 2 -0.0208846 0.530669 6.35558 13.22
27 4 1.3683 1.62885 6.58972 8.82706
124 2 0.0602139 3.35395 5.24257 11.9727
136 2 0.178358 2.4539 1.91167 13.2106
179 4 1.2821 7.41158 2.56288 15.6638
183 1 -0.65387 5.9276 1.55235 15.0453
77 3 -0.769876 6.88307 4.1167 15.8338
60 3 -0.843025 -0.695383 3.50241 8.38998
196 2 0.178706 5.58022 2.06806 14.1298
117 2 0.0842239 5.09721 1.57714 8.38777
227 3 -0.805596 4.85828 5.97193 15.6661
195 2 0.214047 6.50726 0.579688 14.8227
245 1 -0.682153 2.67765 3.23361 14.8411
246 2 0.231863 2.39211 3.70852 13.8391
247 2 0.156314 3.21712 2.20551 14.7339
262 3 -0.812391 0.120873 2.05308 15.2542
228 2 -0.0134109 2.19914 5.21943 15.1438
29 4 0.968189 3.86743 6.64213 11.1204
248 2 0.162877 3.32079 3.83975 15.5655
229 2 -0.0413696 3.52416 6.54074 13.2926
14 4 1.52269 -0.963837 6.59796 10.2326
121 2 -0.0109651 6.8673 3.91216 12.7563
251 1 -0.667174 -5.1976 8.80977 1.27474
3 3 -0.796416 -5.75458 11.5315 1.08778
253 2 0.200399 -4.17177 8.52183 1.14212
16 4 1.52188 -3.04634 8.02258 6.59248
17 4 1.24716 -4.52718 10.0338 4.70259
154 2 0.178865 1.0353 9.52309 7.38032
161 2 0.203422 -1.13347 9.87123 0.521639
31 4 1.27373 -1.95213 10.4524 3.13247
33 4 1.11967 0.0651343 11.0627 5.61933
48 1 -0.646009 -0.946454 8.95811 2.41495
49 1 -0.668078 0.225474 9.45764 6.62933
149 2 0.153008 2.09991 8.77682 7.78523
68 3 -0.880356 -1.89013 7.43866 5.73522
69 3 -0.862975 -6.0479 10.2552 4.18133
70 3 -0.823087 -4.14331 8.86783 5.6523
79 3 -0.843537 0.556753 7.17479 4.83395
87 3 -0.841128 1.83746 7.61542 2.44098
30 4 1.05908 2.22564 8.1403 1.00009
89 3 -0.768879 -1.7338 11.6457 1.96904
90 3 -0.814961 -3.47997 10.0596 3.42536
93 3 -0.824258 -0.996107 10.8218 4.46793
94 3 -0.80794 -0.134874 12.3545 6.69172
115 2 -0.0311849 -4.16755 11.4746 5.51755
147 2 0.233875 1.58479 7.48038 6.34777
151 2 0.194604 0.0394201 9.34884 1.82112
152 2 0.150841 -1.75466 8.49722 1.71353
153 2 0.216915 -0.77291 8.31637 3.34252
122 2 0.00599322 3.08457 7.9375 5.59943
155 2 0.267057 0.430321 8.57083 5.91972
156 2 0.286967 -0.884478 9.38332 7.12423
46 1 -0.671092 2.24236 7.68929 7.29934
148 2 0.176291 3.30048 7.37189 7.26776
272 2 0.184111 0.667629 10.1878 0.460797
19 4 1.36829 -1.10085 12.8832 7.8433
1 4 1.30811 -6.52005 12.587 2.00435
133 2 0.16453 -6.84732 12.7181 5.69535
91 3 -0.81319 -2.42616 9.39972 7.76407
67 3 -0.870216 -3.78439 6.9185 7.4201
47 1 -0.678051 1.70793 10.0098 0.924475
265 2 0.189972 -4.2492 12.8029 2.55252
15 4 1.0684 -5.36221 10.2384 0.116865
267 2 0.172533 -4.16338 6.59041 0.278825
268 2 0.236982 -5.37692 9.21932 2.33334
244 2 0.134019 -5.14375 12.7564 4.21031
257 2 0.134867 2.04055 10.338 4.85434
159 2 0.194111 1.33481 9.6197 12.5
18 4 1.15282 -2.01319 8.2784 12.8067
22 4 1.27455 -0.570271 12.8372 12.1521
32 4 0.943667 -2.25864 10.4051 9.01776
35 4 1.19837 -1.29388 10.635 14.3288
187 3 -0.803184 0.960002 13.0927 12.4817
160 2 0.171707 0.952767 10.5003 14.8492
50 1 -0.654966 2.12457 10.432 12.2515
51 1 -0.631028 0.0859083 10.8445 15.5611
162 2 0.211819 0.073459 11.9764 15.6851
72 3 -0.792016 -1.58246 8.07868 11.212
83 3 -0.797841 0.277181 7.31699 9.29006
88 3 -0.814594 2.9861 7.79362 15.7212
92 3 -0.82156 -1.15903 11.5145 9.14162
95 3 -0.829645 3.82709 8.05982 11.85
96 3 -0.764798 -0.869381 9.05891 13.6821
97 3 -0.849983 -1.10111 11.7622 13.1841
98 3 -0.764275 -2.81783 10.6372 15.3806
116 2 -0.0498124 -3.44947 9.19453 12.7097
120 2 0.0901112 -0.686723 12.0705 10.6053
126 2 0.0719183 -2.14146 9.45912 10.4029
127 2 -0.0476588 -3.70718 11.1516 9.44528
128 2 0.0401085 2.50329 9.37762 13.8373
139 2 0.157373 -4.63033 10.6379 13.6159
71 3 -0.834816 -2.38359 6.86342 13.5924
158 2 0.257367 1.80269 11.5143 12.4382
157 2 0.13878 2.49735 10.2731 10.9918
140 2 0.155778 -5.67824 11.819 14.5741
43 1 -0.642749 -5.60619 10.7506 14.1224
86 3 -0.788518 2.86504 6.68913 9.9642
235 2 0.162182 11.8948 1.7364 3.1341
37 4 1.27349 13.0665 1.94079 5.85606
221 1 -0.651052 8.82816 0.516241 2.03583
39 4 1.35372 11.1975 4.02109 7.47153
45 1 -0.651946 7.22367 4.82826 7.0291
54 1 -0.661186 10.7214 5.44143 6.282
101 3 -0.825178 14.0008 2.79247 4.869
102 3 -0.850538 13.8319 1.02976 6.85158
250 2 0.164092 11.1769 5.24537 0.0400343
4 4 1.49389 14.9632 2.70212 3.65385
106 3 -0.796851 11.9485 2.95255 6.53887
232 3 -0.783956 14.5779 1.43248 2.68938
129 2 -0.00682676 12.1822 0.935713 4.72437
130 2 0.0578869 7.51056 5.86161 3.54768
169 2 0.230918 11.0264 6.32138 6.84658
234 2 0.159011 11.5885 0.516417 1.65171
146 2 0.184502 7.99621 4.07181 6.51846
103 3 -0.795487 5.66227 6.07669 1.43978
145 2 0.158062 7.3041 5.83542 6.54468
170 2 0.166503 9.61743 5.32613 6.08338
171 2 0.187605 11.3016 5.34875 5.27349
231 1 -0.662827 11.846 0.627085 2.8118
224 2 0.171302 9.31219 1.30271 1.41941
273 2 0.17928 9.35197 0.326521 0.119759
225 2 0.126781 9.04305 0.681834 3.21314
11 4 1.50718 13.0898 6.215 8.81133
36 4 1.31242 8.94374 2.41903 9.15128
52 1 -0.673536 10.2876 1.28339 9.88013
6 4 1.30039 15.9994 2.39669 9.48954
100 3 -0.818045 8.23539 3.16567 10.4515
107 3 -0.804817 12.2603 4.50258 8.54249
110 2 -8.52844e-05 14.7131 2.83312 10.4932
188 3 -0.802669 8.73048 2.2078 14.6612
202 2 0.161832 13.8944 3.67073 11.8484
163 2 0.1681 11.2857 1.91582 9.91322
186 1 -0.69626 9.04597 6.4215 9.71518
165 2 0.249846 9.99569 0.938066 10.9201
172 4 0.990153 16.0156 2.42995 13.9738
173 1 -0.660971 14.2269 1.58033 13.5029
174 2 0.109593 14.2034 2.40147 14.5802
175 2 0.00434881 15.7858 1.09702 12.7172
176 2 0.164922 13.7839 2.25115 12.6198
266 2 0.0633081 14.6805 4.87498 16.0048
178 4 1.0828 13.8702 5.66821 14.3317
180 4 1.24759 9.93593 1.575 13.8139
181 4 1.30876 11.7072 3.94828 12.498
205 2 0.215705 9.18646 5.428 9.14351
185 1 -0.664086 12.8918 3.30167 11.1517
177 2 0.174811 13.7302 0.569768 13.7299
189 3 -0.803208 10.9359 2.62186 12.9685
190 3 -0.7948 12.8007 4.63737 13.5392
192 3 -0.792091 10.8882 5.16882 11.6354
263 3 -0.834587 15.5816 1.00271 8.82369
199 2 0.16977 12.0171 1.09169 14.9198
200 2 0.266671 12.6249 3.87288 10.0791
201 2 0.15151 12.5562 2.17984 11.2333
182 4 1.0692 10.7032 6.33536 10.6115
184 1 -0.656566 10.9609 0.628851 15.0409
105 3 -0.8008 9.71963 3.53449 8.0988
204 2 0.163234 8.19709 6.35499 10.4006
144 2 0.203999 7.32541 4.81905 8.17091
249 1 -0.626912 13.5123 5.99651 16.0005
164 2 0.175732 10.3283 0.371743 9.22139
123 2 -0.0270223 5.41402 6.25421 10.6446
271 2 0.160046 1.85401 10.3722 1.96151
255 2 0.159221 2.07141 12.2424 5.38282
167 2 0.168147 8.88891 7.17381 2.42375
53 1 -0.65656 8.04411 7.33086 3.06377
104 3 -0.833462 4.97009 7.10744 3.77444
230 4 1.11066 5.28853 12.8682 2.49868
125 2 -0.00131976 3.93235 8.29264 1.07684
2 3 -0.803409 9.18233 11.8499 2.95222
166 2 0.0381593 7.07859 8.50399 2.4211
168 2 0.160728 8.40418 7.74517 4.00886
206 4 1.2432 9.31845 10.4821 3.83553
215 2 0.152411 5.17512 9.03877 6.8264
208 4 1.01858 7.46405 10.0601 6.52502
209 1 -0.6621 5.96096 8.96938 6.01527
207 4 1.23191 6.19875 12.9911 7.931
211 3 -0.781312 8.35995 10.3779 5.13207
212 3 -0.750929 6.79226 11.6097 7.32608
213 2 -0.000741235 9.03834 9.07202 2.95443
254 1 -0.675391 1.67278 11.4404 4.66195
216 2 0.169521 6.47218 7.94385 5.99282
217 2 0.177812 5.58851 9.34424 5.03454
256 2 0.171674 1.61443 11.6069 3.58548
252 2 0.134415 10.9518 7.91652 0.915436
239 2 0.110563 7.13962 9.36895 0.505954
238 3 -0.799705 5.56848 12.049 1.10805
240 2 0.202095 8.04166 10.8474 1.45788
38 4 1.03497 6.10794 6.81566 2.73458
219 2 0.179027 9.29556 8.41394 7.11287
258 1 -0.676881 5.78721 11.6954 3.95782
259 2 0.168667 6.22336 10.7814 3.54215
260 2 0.145088 4.82837 11.404 4.41546
261 2 0.216357 6.46766 12.2447 4.67622
270 2 0.167842 0.866678 12.2972 1.68963
237 1 -0.665645 7.76345 10.4411 0.404345
150 2 0.151586 2.59892 10.4441 0.327325
210 1 -0.665808 8.44741 8.89456 7.6951
134 2 0.240492 8.14025 12.9533 5.76428
233 2 0.161178 2.80634 12.7627 3.50053
198 2 0.172331 2.60608 12.392 14.692
40 4 0.897583 6.22388 11.3721 12.9675
108 3 -0.807294 4.9871 10.4075 12.8056
109 3 -0.812831 6.71504 11.5155 14.4411
214 2 -0.0371288 4.99822 12.5206 9.00468
132 2 -0.0531897 7.42569 11.0086 11.8418
264 2 0.0833141 8.79867 12.5793 15.5199
203 2 0.171989 8.84861 7.25641 8.94246
269 2 0.141207 10.3188 10.5617 13.4113
193 2 0.0576347 11.1226 9.6414 15.2175
218 2 0.158778 8.84143 9.52557 8.53755
194 2 -0.00178519 9.63773 7.59288 11.1629
236 4 1.02947 7.32851 11.714 15.94
191 3 -0.838309 12.041 6.87423 9.81479
241 2 0.163111 9.83944 10.8162 15.6096
131 2 -0.0227636 5.90383 12.9146 12.2142
34 4 1.03533 3.76315 9.42839 12.5757
274 2 0.14422 7.64891 8.19663 8.09305
ITEM: TIMESTEP
100
ITEM: NUMBER OF ATOMS
274
ITEM: BOX BOUNDS xy xz yz pp pp pp
-8.3797999999999995e+00 1.8013900000000000e+01 -8.3797999999999995e+00
0.0000000000000000e+00 1.3271303828571430e+01 1.1950000000000001e+00
0.0000000000000000e+00 1.6075500000000002e+01 4.3113840000000003e-01
ITEM: ATOMS id type q x y z
119 2 -0.00894042 7.48375 1.48991 5.27215
12 4 1.28806 -0.888088 6.49886 5.3089
7 4 1.11397 0.890436 2.18019 5.12708
9 4 1.25613 -0.657879 4.63126 1.75434
10 4 1.60477 0.281755 4.3689 7.23637
242 1 -0.670976 3.17024 0.576286 3.12292
21 4 0.821793 5.8333 1.44264 5.53749
26 4 1.25827 5.53471 4.39099 6.81094
41 1 -0.64574 0.763447 0.623232 6.17607
44 1 -0.676265 3.81806 3.85204 1.72221
55 3 -0.828717 1.00159 0.916538 1.12266
56 3 -0.828329 -0.416856 2.35809 4.31045
58 3 -0.802612 -1.85283 4.42556 2.80949
59 3 -0.83781 -0.146777 3.41497 0.942312
243 2 0.174625 2.97154 1.51325 2.44749
61 3 -0.783952 1.07854 3.35848 6.26927
62 3 -0.859618 -0.656213 5.43557 6.41461
74 3 -0.786537 5.75159 0.478202 7.3069
78 3 -0.842222 0.521183 5.30048 2.60103
81 3 -0.779638 5.47025 2.91242 5.81055
84 3 -0.782181 2.94604 5.55483 3.96869
85 3 -0.761302 4.77548 5.68376 6.0495
113 2 0.100471 -1.58705 5.53519 4.02302
111 2 0.0146195 2.30866 2.04742 4.12087
112 2 -0.0260338 -1.17144 5.81676 0.66796
5 4 1.34129 0.294806 1.98517 0.179764
118 2 0.0025125 4.58419 0.823912 4.40827
24 4 1.24477 4.79293 4.8197 0.406935
222 3 -0.769463 6.49343 1.54148 1.18452
223 2 -0.0903725 6.5304 0.880883 3.93601
141 2 0.185803 4.56884 2.97136 1.96249
142 2 0.168162 2.88627 3.44797 1.23868
143 2 0.271066 3.59282 4.57685 2.60643
220 4 0.992869 7.13457 0.410039 2.23043
25 4 1.35061 1.44356 6.3974 3.39442
135 2 0.236982 0.97536 0.860725 7.30075
28 4 1.17286 3.96027 6.53219 4.84713
244 2 0.135026 2.50685 0.287408 4.03626
138 2 0.172132 1.27921 0.865207 12.0722
8 4 1.2748 1.91942 2.72338 10.7793
13 4 1.31189 0.461252 4.85444 12.3786
121 2 0.00478208 6.87576 3.68778 12.7397
20 4 1.23843 4.68068 2.86812 9.28268
23 4 1.22918 6.86133 2.63848 11.4344
99 3 -0.8266 7.98947 1.31385 8.55297
226 4 0.888678 3.40253 6.37363 15.0533
42 1 -0.656028 2.18247 1.50479 12.2076
57 3 -0.822901 0.461127 2.31461 10.2277
63 3 -0.8636 -0.28793 3.84869 13.2743
64 3 -0.811162 1.93635 4.33421 11.9955
65 3 -0.871653 -2.34622 6.11707 9.6214
66 3 -0.883184 -0.309233 5.60466 11.2871
73 3 -0.793599 3.11699 2.55942 9.70896
75 3 -0.869145 5.59713 2.93782 10.5615
76 3 -0.887175 7.00402 1.19672 12.0425
80 3 -0.777598 4.92803 4.20695 8.28522
82 3 -0.77808 1.55958 5.16229 8.12373
137 2 0.156107 3.11955 0.92759 11.8389
114 2 -0.0182071 0.752634 5.98794 13.5928
27 4 1.38544 1.74385 6.60565 8.77791
124 2 0.0592356 3.41076 5.18232 12.0154
136 2 0.185195 2.41957 2.00255 13.2909
179 4 1.25919 7.45499 2.4023 15.6755
183 1 -0.688241 6.02869 1.29817 15.0724
77 3 -0.73791 6.9171 4.0983 15.684
60 3 -0.844849 -0.622991 3.49394 8.18967
196 2 0.175337 5.25712 2.05779 14.9453
117 2 0.108268 5.14942 1.53394 8.32687
227 3 -0.810959 4.84833 5.91068 15.4764
195 2 0.251132 6.44425 0.9017 14.131
245 1 -0.682004 2.85191 3.03419 14.973
246 2 0.190665 2.64689 3.53946 14.0465
247 2 0.162419 3.34667 2.02674 14.8425
86 3 -0.81019 2.78869 6.58044 9.94283
228 2 -0.0177007 2.27073 5.04427 15.1127
29 4 0.963346 3.80237 6.53066 11.1157
248 2 0.150417 3.42035 3.71595 15.7468
229 2 -0.0171455 3.49024 6.55249 13.3367
14 4 1.56062 -1.00234 6.62301 10.2957
123 2 -0.0213498 5.31534 6.09122 10.6036
262 3 -0.812659 0.254052 1.95934 15.3437
197 2 0.217436 5.82282 0.436058 15.843
251 1 -0.681918 -5.18631 8.7019 1.21314
3 3 -0.790796 -5.91962 11.426 0.9534
253 2 0.18786 -4.12031 8.43849 1.07383
16 4 1.43633 -3.08884 8.11174 6.5641
17 4 1.22893 -4.50284 10.0583 4.71773
154 2 0.167328 1.02118 9.56262 7.47164
161 2 0.191647 -1.11278 9.79292 0.43056
31 4 1.25765 -1.89936 10.3461 3.06315
33 4 1.12142 0.0942443 11.0213 5.56468
48 1 -0.670538 -1.15149 8.78935 2.25232
49 1 -0.644995 0.17044 9.45241 6.66982
149 2 0.160739 2.23893 8.92741 7.61922
68 3 -0.852044 -1.79209 7.73366 5.6221
69 3 -0.851929 -6.06774 10.1331 4.28875
70 3 -0.795656 -4.24444 8.75633 5.56334
79 3 -0.836293 0.68847 7.02467 4.84952
87 3 -0.7965 1.79827 7.7292 2.39719
30 4 0.959441 2.42401 8.22678 1.0579
89 3 -0.758913 -1.67215 11.7462 1.88837
90 3 -0.812998 -3.42356 10.175 3.41872
93 3 -0.803764 -1.01406 10.7228 4.40167
94 3 -0.810847 -0.387258 12.3035 6.48455
115 2 -0.0183296 -4.27828 11.3574 5.79692
147 2 0.215495 1.74292 7.48562 6.46416
151 2 0.196971 -0.146172 9.18948 1.75323
152 2 0.161834 -1.81258 8.28018 1.471
153 2 0.196688 -0.947932 8.11292 3.12557
122 2 0.0116345 3.124 7.82114 5.51796
155 2 0.259422 0.342003 8.482 6.05584
156 2 0.268095 -0.919823 9.48597 7.17245
46 1 -0.677799 2.36839 7.86044 7.35007
148 2 0.168189 3.52 7.50108 7.31222
272 2 0.176939 0.762801 10.1284 0.447922
19 4 1.36433 -1.14806 12.8233 7.81861
1 4 1.25784 -6.74423 12.5293 2.00868
133 2 0.159407 -6.83538 12.7918 5.67321
91 3 -0.816379 -2.62753 9.57121 7.81601
67 3 -0.846495 -3.63094 6.84634 7.37096
47 1 -0.637911 1.64282 9.94003 1.19229
265 2 0.181495 -4.41798 12.6501 2.78949
15 4 1.03216 -5.23303 10.2329 0.0618834
271 2 0.18106 1.26707 10.1827 2.25829
268 2 0.219455 -5.38161 9.33283 2.1246
159 2 0.197081 1.32565 9.59596 12.7568
18 4 1.2417 -2.08308 8.14856 12.6815
22 4 1.2356 -0.442097 12.8227 12.0757
32 4 0.931242 -2.25239 10.4012 9.05525
35 4 1.23775 -1.29599 10.6574 14.2595
43 1 -0.647818 -5.41068 10.7894 14.2852
160 2 0.171581 1.05692 10.4561 14.8036
50 1 -0.667485 2.08962 10.2508 12.3133
51 1 -0.629096 0.192389 10.7931 15.4237
162 2 0.208501 0.186964 11.9298 15.603
72 3 -0.832708 -1.38472 7.9667 11.2575
83 3 -0.783165 0.234624 7.22095 9.2772
88 3 -0.759595 2.8374 7.73662 15.7022
92 3 -0.815089 -1.02888 11.4446 9.02654
95 3 -0.804652 3.90289 7.94317 11.9291
96 3 -0.737607 -1.00585 8.9257 13.6044
97 3 -0.837811 -1.0855 11.8025 13.1305
98 3 -0.793439 -2.59504 10.7039 15.1961
116 2 -0.0506592 -3.44217 9.14064 12.6153
120 2 0.0759062 -0.80244 12.0629 10.5495
126 2 0.0670358 -1.85156 9.27502 10.2319
127 2 -0.0518788 -3.6304 11.1073 9.63848
128 2 0.0378596 2.64202 9.5322 14.0105
139 2 0.165906 -4.38556 10.9775 13.7803
71 3 -0.839251 -2.52518 6.87583 13.4181
158 2 0.24242 1.69955 11.3775 12.4608
157 2 0.161879 2.14978 10.0121 11.0849
140 2 0.169077 -5.86832 11.7257 14.7414
235 2 0.171869 11.7275 1.71523 3.04106
37 4 1.21956 12.9979 1.94399 5.80357
221 1 -0.658803 8.97189 0.685506 2.10646
39 4 1.26677 11.3373 4.09487 7.50214
45 1 -0.677296 7.44506 4.67616 6.89419
54 1 -0.663106 10.7374 5.52035 6.49742
101 3 -0.80701 13.8553 3.02391 4.90852
102 3 -0.848865 13.8622 1.03034 6.82329
250 2 0.186815 11.2102 5.042 0.239761
4 4 1.46248 14.9138 2.77641 3.74915
106 3 -0.789642 11.8808 2.84791 6.62562
232 3 -0.799134 14.4027 1.49026 2.88855
129 2 -0.0188512 12.0758 0.979322 4.68885
130 2 0.0677517 7.53707 5.81454 3.32696
169 2 0.195634 10.6118 6.37254 7.20404
234 2 0.182955 11.4925 0.408149 1.66396
146 2 0.193115 8.10167 3.82788 6.46044
103 3 -0.793612 5.59912 6.04221 1.37991
145 2 0.161128 7.51258 5.63456 6.38414
170 2 0.176721 9.73241 5.20646 6.13244
171 2 0.20861 11.5148 5.7025 5.64536
231 1 -0.649741 11.7793 0.613671 2.77287
224 2 0.172121 9.09762 1.65822 1.37719
273 2 0.182339 9.4944 0.45406 0.15377
225 2 0.134572 9.24705 0.955904 3.23412
134 2 0.240123 16.4722 0.324635 5.97217
144 2 0.202218 7.57667 4.79587 7.98968
11 4 1.48113 13.0586 6.24851 8.86302
36 4 1.33631 8.95026 2.46515 9.23104
52 1 -0.659496 10.4859 1.62959 9.95341
6 4 1.29539 15.9978 2.38585 9.26421
100 3 -0.799775 8.26597 3.12656 10.5058
107 3 -0.821179 12.348 4.67727 8.6955
110 2 -0.00260707 14.6286 2.89556 10.2073
188 3 -0.780024 8.74867 2.04016 14.7384
202 2 0.173189 13.8876 3.92528 11.7254
163 2 0.188258 11.2432 2.46273 10.0676
186 1 -0.670258 8.99773 6.55493 9.64886
165 2 0.243202 10.1215 1.05473 10.9784
172 4 0.956947 15.9522 2.55526 14.1781
173 1 -0.648934 14.3752 1.51123 13.5337
174 2 0.033873 14.2909 2.73876 14.9098
175 2 0.0575881 15.7534 0.894388 13.046
176 2 0.159072 13.8056 2.12862 12.6678
266 2 0.0691271 14.6345 5.02445 16.0544
178 4 1.07912 13.6365 5.61286 14.2684
180 4 1.22624 10.0589 1.56008 13.8159
181 4 1.3567 11.6707 4.07306 12.5515
205 2 0.193477 9.20794 5.55578 9.05455
185 1 -0.707828 12.9919 3.35549 11.2661
177 2 0.178059 13.7353 0.632341 13.8893
189 3 -0.785237 10.8559 2.85508 13.1884
190 3 -0.82381 12.5474 4.64193 13.7086
192 3 -0.804092 10.9059 5.32901 11.7236
263 3 -0.81769 15.7274 0.916511 8.64254
199 2 0.173303 12.1284 1.33677 14.9314
200 2 0.252668 12.7567 3.76459 10.2021
201 2 0.144305 12.9853 2.27128 11.3079
182 4 1.0589 10.6481 6.4245 10.6361
184 1 -0.652376 11.1097 0.760343 15.0654
105 3 -0.764691 9.69494 3.44133 8.18904
204 2 0.153018 8.16342 6.4096 10.4561
164 2 0.159946 10.922 0.924128 9.16967
249 1 -0.639226 13.3846 5.92094 15.9388
233 2 0.154044 2.84913 12.7603 3.50164
255 2 0.156618 2.23576 12.2843 5.35707
167 2 0.149119 9.0026 7.52607 3.05773
53 1 -0.62787 7.85209 7.43964 3.28797
104 3 -0.816351 5.03633 7.31523 3.8629
230 4 1.06233 5.28366 12.8561 2.69461
125 2 -0.00303606 4.05936 7.87403 1.11943
2 3 -0.811514 9.17513 11.7936 3.14839
166 2 0.0500656 7.09395 8.38701 2.1461
168 2 0.171493 7.70276 7.78411 4.37123
206 4 1.24765 9.31644 10.356 3.92962
215 2 0.157733 5.14947 9.46528 7.19562
208 4 1.08404 7.47574 10.2412 6.60192
209 1 -0.653466 5.82029 9.16356 6.32308
207 4 1.24044 6.19834 12.998 7.88188
211 3 -0.788449 8.28312 10.3221 5.1845
212 3 -0.785722 6.82231 11.6404 7.27863
213 2 -0.00547002 8.55384 9.22868 2.9062
254 1 -0.678616 1.84619 11.3948 4.84956
216 2 0.17224 6.20853 8.10094 6.34556
217 2 0.190757 5.39436 9.40581 5.31486
256 2 0.155709 1.95312 11.5528 3.7061
252 2 0.157834 10.8684 7.90832 1.15614
267 2 0.177679 12.3181 6.56968 0.153664
238 3 -0.762616 5.40952 11.9321 1.119
240 2 0.159451 7.89612 10.2898 1.32385
38 4 1.004 6.03227 6.85815 2.67926
219 2 0.185205 9.42526 8.54918 7.44682
258 1 -0.678745 5.63815 11.6556 4.07054
259 2 0.173437 5.73535 10.6014 3.76087
260 2 0.132964 4.62155 11.9122 4.63519
261 2 0.223651 6.53272 11.906 4.76178
270 2 0.171607 1.01257 12.5298 1.79254
237 1 -0.662264 7.63282 10.2424 0.249103
150 2 0.135504 2.68941 10.4587 0.80173
210 1 -0.650402 8.56644 9.18745 7.81079
257 2 0.139113 2.25622 10.378 5.3038
198 2 0.1642 2.76925 12.5293 14.6586
40 4 0.877252 6.23254 11.3793 13.0977
108 3 -0.809739 4.9211 10.5092 12.7779
109 3 -0.812337 6.77805 11.615 14.6025
214 2 -0.0487502 5.0613 12.5393 8.96887
132 2 -0.0427149 7.42594 10.748 12.0425
264 2 0.0613173 9.11316 12.5058 15.8091
203 2 0.167759 8.82653 7.54351 8.97874
269 2 0.142926 10.7358 10.4975 13.4377
193 2 0.0644211 11.3249 9.55541 15.3414
218 2 0.161381 8.87646 9.92407 8.63034
194 2 0.00600298 9.46121 7.61332 11.2364
236 4 1.0738 7.45189 11.9618 15.9539
191 3 -0.805915 11.8874 7.14339 9.84407
241 2 0.167819 9.79854 10.6408 15.5799
131 2 -0.0220203 6.12479 12.8101 12.2278
34 4 1.01603 3.77327 9.44114 12.6376
187 3 -0.811028 1.16374 13.0881 12.4032
274 2 0.130703 7.68933 8.45432 8.12072
239 2 0.131134 7.97358 9.74305 16.0624
ITEM: TIMESTEP
200
ITEM: NUMBER OF ATOMS
274
ITEM: BOX BOUNDS xy xz yz pp pp pp
-8.3797999999999995e+00 1.8013900000000000e+01 -8.3797999999999995e+00
0.0000000000000000e+00 1.3269407657142857e+01 1.1950000000000001e+00
0.0000000000000000e+00 1.6075500000000002e+01 4.3107679999999959e-01
ITEM: ATOMS id type q x y z
119 2 -0.00494478 7.39207 1.26678 5.37261
12 4 1.26749 -0.970602 6.38784 5.2643
7 4 1.10421 0.882458 2.15053 5.0706
9 4 1.23135 -0.596762 4.60122 1.90054
10 4 1.58661 0.288166 4.42849 7.17085
242 1 -0.676156 3.30268 0.501213 2.98425
21 4 0.805988 5.72877 1.41553 5.6702
26 4 1.28645 5.48417 4.43621 6.72342
41 1 -0.678757 0.877183 0.552136 6.05201
44 1 -0.681916 3.99258 3.74418 1.71745
55 3 -0.784827 1.04565 0.848796 1.13371
56 3 -0.84589 -0.403887 2.4344 4.31096
58 3 -0.781909 -1.9647 4.44728 2.76184
59 3 -0.839074 -0.0832332 3.22111 1.2151
243 2 0.165912 3.48984 1.63309 2.77017
61 3 -0.741417 1.30939 3.45618 6.05478
62 3 -0.88236 -0.639105 5.35741 6.38638
74 3 -0.793857 5.58448 0.274061 7.28443
78 3 -0.866873 0.465228 5.43967 2.76542
81 3 -0.807165 5.49945 2.91989 5.91177
84 3 -0.767344 3.04067 5.60394 4.0339
85 3 -0.816491 4.93558 5.62959 5.93442
113 2 0.110957 -1.66621 5.42989 3.9738
111 2 0.0190788 2.11109 1.84894 3.85554
112 2 -0.022227 -0.864068 5.7247 0.696474
5 4 1.34633 0.333224 2.00089 0.297508
118 2 -0.0175852 4.5879 0.800748 4.4503
24 4 1.28445 4.85599 4.76842 0.421748
222 3 -0.782364 6.55778 1.472 1.12408
223 2 -0.0961382 6.37476 0.981052 3.91782
141 2 0.172907 4.75838 2.98209 2.06391
142 2 0.164842 3.12322 3.28162 1.05586
143 2 0.25789 3.62935 4.37836 2.52285
220 4 1.00735 7.10297 0.43766 2.32009
25 4 1.40441 1.49946 6.38411 3.55102
135 2 0.223086 0.588464 0.837321 7.14435
82 3 -0.804967 1.43695 5.33851 7.92304
244 2 0.129128 2.9768 0.146376 4.00657
138 2 0.158666 1.33617 0.828739 12.4081
8 4 1.28992 1.84155 2.62165 10.8381
13 4 1.25382 0.530374 4.91383 12.3832
121 2 -0.00365154 6.54735 3.67845 12.6167
20 4 1.28004 4.60042 2.68079 9.23346
23 4 1.28874 6.83555 2.6648 11.2934
99 3 -0.780037 8.11049 1.20847 8.48742
226 4 0.871559 3.42026 6.28111 15.0429
42 1 -0.688689 2.22724 1.45555 12.2949
57 3 -0.842495 0.363768 2.38142 10.245
63 3 -0.868261 -0.116717 3.93864 13.3954
64 3 -0.802853 1.91462 4.3045 11.7518
65 3 -0.870316 -2.38972 6.08107 9.74262
66 3 -0.888264 -0.469367 5.49384 11.2886
73 3 -0.791531 3.04373 2.49399 9.76171
75 3 -0.859252 5.50099 2.74504 10.4377
76 3 -0.891004 7.14307 1.25295 11.8543
80 3 -0.746434 4.95164 4.03587 8.40127
262 3 -0.799293 0.314044 1.92112 15.2806
137 2 0.161785 3.15701 0.910514 11.9222
114 2 -0.0465134 1.03901 6.38376 13.1674
14 4 1.57508 -0.996337 6.54766 10.3305
124 2 0.0686135 3.34166 5.19453 11.8785
136 2 0.181479 2.45132 1.97653 13.2977
179 4 1.32377 7.4574 2.4331 15.6937
183 1 -0.667841 5.97802 1.31301 15.1979
77 3 -0.750361 7.03978 4.06719 15.62
60 3 -0.839412 -0.683487 3.55936 8.20047
196 2 0.161319 5.17515 1.90446 15.7225
117 2 0.100025 5.03038 1.35645 8.26143
227 3 -0.8258 4.76787 5.68305 15.7201
195 2 0.184725 5.81688 1.29115 14.073
245 1 -0.68648 2.73019 3.09895 14.9991
246 2 0.173515 2.13048 3.53229 14.0676
247 2 0.162475 3.26975 2.15812 14.7816
123 2 -0.0171501 5.27959 6.10968 10.5019
228 2 -0.0297174 2.33013 5.05161 15.1378
29 4 0.955732 3.79856 6.66143 11.0857
248 2 0.16067 3.40977 3.8389 15.5542
229 2 -0.0380863 3.57627 6.44129 13.3437
86 3 -0.805358 2.72673 6.67775 9.95002
251 1 -0.649859 -5.08993 8.71789 1.05039
3 3 -0.805913 -5.88121 11.3641 1.01157
253 2 0.176023 -4.05306 8.31067 0.871247
16 4 1.4892 -3.07113 8.11033 6.55136
17 4 1.22454 -4.5294 10.0236 4.78869
154 2 0.163917 0.976246 9.64991 7.36551
161 2 0.174599 -0.933243 10.0431 0.251962
31 4 1.30204 -1.90383 10.4238 2.95312
33 4 1.16611 0.0728741 11.0363 5.49004
48 1 -0.647813 -1.21562 8.95524 1.94951
49 1 -0.663452 0.171895 9.49525 6.58278
149 2 0.142654 2.18675 9.01943 7.64818
68 3 -0.861279 -1.88917 7.62806 5.57482
69 3 -0.802842 -6.04874 10.1202 4.3218
70 3 -0.791893 -4.32027 8.69146 5.58631
79 3 -0.810215 0.634109 7.18512 4.79552
87 3 -0.809429 2.08112 7.46642 2.38284
30 4 1.04118 2.37241 8.008 0.98261
89 3 -0.79708 -1.67657 11.7666 2.08454
90 3 -0.808398 -3.42292 10.1886 3.49828
93 3 -0.787971 -0.740267 10.6092 4.16008
94 3 -0.838806 -0.30969 12.2703 6.33679
115 2 -0.0235314 -4.33917 11.3204 5.79122
147 2 0.216822 1.75558 7.65582 6.50058
151 2 0.190948 -0.0835365 9.24437 1.59275
152 2 0.160252 -1.90388 8.81484 1.01887
153 2 0.188456 -1.26946 8.10901 2.72955
122 2 0.0013252 3.30303 7.69612 5.69065
155 2 0.281101 0.34745 8.60305 5.87557
156 2 0.271074 -0.960576 9.40791 7.04238
46 1 -0.669801 2.33052 7.89287 7.43196
148 2 0.169552 3.42486 7.57243 7.41634
272 2 0.187815 0.831281 10.1328 0.384651
19 4 1.29623 -1.15852 12.7628 7.74581
1 4 1.26334 -6.61384 12.4417 2.0272
133 2 0.157947 -6.5398 12.7755 5.99835
91 3 -0.82421 -2.54231 9.61129 7.63651
67 3 -0.859738 -3.53453 7.08673 7.56353
47 1 -0.666946 1.7324 9.82819 1.02768
265 2 0.193241 -4.32062 12.6109 2.41741
15 4 1.07836 -5.21701 10.2737 0.0225305
271 2 0.17771 1.62765 9.92074 2.1632
268 2 0.221375 -5.26463 8.95643 2.1943
28 4 1.17248 4.15802 6.55169 4.80945
159 2 0.189847 1.24578 9.43133 12.4443
18 4 1.22278 -2.14247 8.22019 12.788
22 4 1.2715 -0.449148 12.7671 12.0446
32 4 0.962534 -2.25495 10.4285 8.95145
35 4 1.25445 -1.10285 10.6436 14.2845
43 1 -0.654253 -5.67585 10.7154 14.1365
160 2 0.174248 1.29379 10.8012 14.6151
50 1 -0.675125 2.09463 10.1894 12.2563
51 1 -0.651444 0.419054 11.1125 15.268
162 2 0.218284 0.363653 12.2217 15.487
72 3 -0.803052 -1.50869 8.13788 11.3341
83 3 -0.82757 -0.0337897 7.12891 9.26656
88 3 -0.800462 2.92309 7.69591 15.6819
92 3 -0.832901 -1.14421 11.5146 9.0646
95 3 -0.838081 3.93664 7.96229 11.9834
96 3 -0.795383 -1.1419 9.14076 13.783
97 3 -0.825688 -0.994641 11.6202 13.0263
98 3 -0.769547 -2.65923 10.9425 15.4045
116 2 -0.0340074 -3.5045 9.00442 12.3176
120 2 0.101781 -0.389623 12.1468 10.413
126 2 0.0868584 -2.03826 9.2587 10.2064
127 2 -0.04132 -3.73941 10.9851 9.43788
128 2 0.0436653 2.43989 9.39299 13.9496
139 2 0.141186 -4.76484 10.7945 13.4803
71 3 -0.854651 -2.65679 6.97595 13.5528
158 2 0.252642 1.73448 11.3118 12.46
157 2 0.145614 2.42322 10.1025 11.0879
140 2 0.160613 -5.8294 11.7305 14.6161
197 2 0.241902 -2.36978 13.0874 15.6077
27 4 1.35692 1.58051 6.67116 8.75606
187 3 -0.813244 1.06881 12.9295 12.5155
235 2 0.170319 11.323 1.54879 3.02613
37 4 1.26948 12.9555 2.06629 5.85607
221 1 -0.650486 8.9645 0.564496 2.03806
39 4 1.34439 11.1961 4.02542 7.64752
45 1 -0.662546 7.28726 5.03475 6.8923
54 1 -0.644818 10.8248 5.46485 6.41098
101 3 -0.816614 13.9423 3.07314 5.02738
102 3 -0.866951 13.7118 1.06443 6.76679
250 2 0.186819 11.3841 4.90213 0.480628
4 4 1.44821 14.9061 2.73536 3.78349
106 3 -0.811668 11.8166 2.89069 6.67135
232 3 -0.813512 14.294 1.47954 2.95415
129 2 -0.00698984 12.0994 1.18048 4.6542
130 2 0.0730557 7.7932 5.75234 3.30085
169 2 0.206457 10.8 6.46594 6.96343
234 2 0.158034 11.4457 0.131018 1.72613
146 2 0.179532 8.03804 4.24611 6.53171
103 3 -0.776555 5.75127 5.93876 1.24056
145 2 0.182048 7.32165 5.95241 6.29623
170 2 0.165051 9.90478 5.11195 5.86597
171 2 0.20321 11.7391 5.42545 5.70166
231 1 -0.649158 11.6254 0.504245 2.85069
224 2 0.17808 9.19899 1.40184 1.37957
273 2 0.178718 9.51734 0.547313 0.110327
225 2 0.131585 9.14742 0.794607 3.15935
230 4 1.13039 13.5865 0.0917202 2.66253
207 4 1.24519 14.5757 0.210625 7.74827
144 2 0.202698 7.3419 5.12398 8.01186
11 4 1.5089 13.1181 6.24796 8.95345
36 4 1.26421 9.13835 2.40624 9.30225
52 1 -0.67133 10.4979 1.47037 10.1543
6 4 1.34095 15.9619 2.44959 9.2552
100 3 -0.759628 8.11611 3.21376 10.4785
107 3 -0.819637 12.3375 4.58485 8.60562
110 2 0.0190247 14.6189 2.84555 10.2275
188 3 -0.801763 8.65102 2.01378 14.7436
202 2 0.176157 13.8721 3.77059 11.7914
163 2 0.17582 11.4827 2.20237 10.5001
249 1 -0.619802 13.4075 5.93429 16.0523
165 2 0.239759 10.1089 0.837251 11.074