ITEM: TIMESTEP
0
ITEM: NUMBER OF ATOMS
274
ITEM: BOX BOUNDS xy xz yz pp pp pp
-8.3797999999999995e+00 1.8013900000000000e+01 -8.3797999999999995e+00
0.0000000000000000e+00 1.3273200000000001e+01 1.1950000000000001e+00
0.0000000000000000e+00 1.6075500000000002e+01 4.3120000000000003e-01
ITEM: ATOMS id type q x y z
119 2 -0.017029 7.45936 1.4425 5.26906
12 4 1.30703 -0.823901 6.37281 5.40194
7 4 1.11419 0.87114 2.14089 5.12893
9 4 1.25473 -0.611388 4.66178 1.7635
10 4 1.61247 0.259573 4.29395 7.41616
242 1 -0.686653 3.28007 0.428832 3.17692
21 4 0.789988 5.79929 1.40385 5.63299
26 4 1.25943 5.36609 4.45866 6.77474
41 1 -0.666683 0.696455 0.514262 6.09217
44 1 -0.689365 3.75411 3.77234 1.74507
55 3 -0.755616 1.11169 0.980967 1.06674
56 3 -0.824943 -0.489595 2.42903 4.38355
58 3 -0.810113 -1.8403 4.39055 2.8196
59 3 -0.854896 -0.112574 3.49903 0.904113
243 2 0.151327 3.38032 1.55911 3.20471
61 3 -0.756466 1.15378 3.3135 6.16529
62 3 -0.866443 -0.492576 5.41097 6.59611
74 3 -0.787118 5.67686 0.418391 7.36475
78 3 -0.86161 0.635447 5.36893 2.49257
81 3 -0.783264 5.44039 2.92156 5.8484
84 3 -0.789721 2.81698 5.64662 4.1961
85 3 -0.816999 4.74232 5.68621 5.985
113 2 0.0898737 -1.49164 5.3789 4.12081
111 2 0.00136532 2.27397 1.81409 4.05903
112 2 -0.027043 -1.3528 5.74033 0.65964
5 4 1.29962 0.20743 2.13501 0.0885205
118 2 -0.0276093 4.65484 0.775407 4.56549
24 4 1.26432 4.75689 4.86827 0.578926
222 3 -0.777536 6.39896 1.40383 1.05023
223 2 -0.0984656 6.41616 0.881428 3.88456
141 2 0.182123 4.4513 2.83077 1.71011
142 2 0.201776 2.69956 3.62763 1.44673
143 2 0.225707 3.76062 4.33163 2.74036
220 4 0.989 6.98519 0.399653 2.21935
25 4 1.40346 1.4386 6.41506 3.38794
135 2 0.221886 0.781658 0.721513 7.19116
28 4 1.25432 3.95024 6.52268 4.88442
138 2 0.157795 1.59448 0.695363 11.9697
8 4 1.27665 1.97502 2.77831 10.9374
13 4 1.2651 0.384514 4.92849 12.4367
197 2 0.19342 5.12544 1.49373 15.8702
20 4 1.23149 4.73066 2.95392 9.34118
23 4 1.27222 7.00022 2.82031 11.4374
99 3 -0.844255 8.04582 1.33435 8.37206
226 4 0.898045 3.45982 6.40123 15.0464
42 1 -0.672189 2.45083 1.44369 12.1685
57 3 -0.831912 0.571864 2.32838 10.319
63 3 -0.858604 -0.443701 3.87919 13.2785
64 3 -0.825284 1.88383 4.34313 12.2609
65 3 -0.849494 -2.16634 6.18015 9.36293
66 3 -0.88933 -0.328363 5.45845 11.1571
73 3 -0.788335 3.20905 2.83518 9.95399
75 3 -0.844999 5.68069 3.01825 10.6467
76 3 -0.872199 7.06794 1.35322 12.0186
80 3 -0.764393 4.88613 4.29886 8.42519
82 3 -0.79018 1.4304 5.02919 8.23846
137 2 0.171457 3.49669 1.07555 11.8162
114 2 -0.0208846 0.530669 6.35558 13.22
27 4 1.3683 1.62885 6.58972 8.82706
124 2 0.0602139 3.35395 5.24257 11.9727
136 2 0.178358 2.4539 1.91167 13.2106
179 4 1.2821 7.41158 2.56288 15.6638
183 1 -0.65387 5.9276 1.55235 15.0453
77 3 -0.769876 6.88307 4.1167 15.8338
60 3 -0.843025 -0.695383 3.50241 8.38998
196 2 0.178706 5.58022 2.06806 14.1298
117 2 0.0842239 5.09721 1.57714 8.38777
227 3 -0.805596 4.85828 5.97193 15.6661
195 2 0.214047 6.50726 0.579688 14.8227
245 1 -0.682153 2.67765 3.23361 14.8411
246 2 0.231863 2.39211 3.70852 13.8391
247 2 0.156314 3.21712 2.20551 14.7339
262 3 -0.812391 0.120873 2.05308 15.2542
228 2 -0.0134109 2.19914 5.21943 15.1438
29 4 0.968189 3.86743 6.64213 11.1204
248 2 0.162877 3.32079 3.83975 15.5655
229 2 -0.0413696 3.52416 6.54074 13.2926
14 4 1.52269 -0.963837 6.59796 10.2326
121 2 -0.0109651 6.8673 3.91216 12.7563
251 1 -0.667174 -5.1976 8.80977 1.27474
3 3 -0.796416 -5.75458 11.5315 1.08778
253 2 0.200399 -4.17177 8.52183 1.14212
16 4 1.52188 -3.04634 8.02258 6.59248
17 4 1.24716 -4.52718 10.0338 4.70259
154 2 0.178865 1.0353 9.52309 7.38032
161 2 0.203422 -1.13347 9.87123 0.521639
31 4 1.27373 -1.95213 10.4524 3.13247
33 4 1.11967 0.0651343 11.0627 5.61933
48 1 -0.646009 -0.946454 8.95811 2.41495
49 1 -0.668078 0.225474 9.45764 6.62933
149 2 0.153008 2.09991 8.77682 7.78523
68 3 -0.880356 -1.89013 7.43866 5.73522
69 3 -0.862975 -6.0479 10.2552 4.18133
70 3 -0.823087 -4.14331 8.86783 5.6523
79 3 -0.843537 0.556753 7.17479 4.83395
87 3 -0.841128 1.83746 7.61542 2.44098
30 4 1.05908 2.22564 8.1403 1.00009
89 3 -0.768879 -1.7338 11.6457 1.96904
90 3 -0.814961 -3.47997 10.0596 3.42536
93 3 -0.824258 -0.996107 10.8218 4.46793
94 3 -0.80794 -0.134874 12.3545 6.69172
115 2 -0.0311849 -4.16755 11.4746 5.51755
147 2 0.233875 1.58479 7.48038 6.34777
151 2 0.194604 0.0394201 9.34884 1.82112
152 2 0.150841 -1.75466 8.49722 1.71353
153 2 0.216915 -0.77291 8.31637 3.34252
122 2 0.00599322 3.08457 7.9375 5.59943
155 2 0.267057 0.430321 8.57083 5.91972
156 2 0.286967 -0.884478 9.38332 7.12423
46 1 -0.671092 2.24236 7.68929 7.29934
148 2 0.176291 3.30048 7.37189 7.26776
272 2 0.184111 0.667629 10.1878 0.460797
19 4 1.36829 -1.10085 12.8832 7.8433
1 4 1.30811 -6.52005 12.587 2.00435
133 2 0.16453 -6.84732 12.7181 5.69535
91 3 -0.81319 -2.42616 9.39972 7.76407
67 3 -0.870216 -3.78439 6.9185 7.4201
47 1 -0.678051 1.70793 10.0098 0.924475
265 2 0.189972 -4.2492 12.8029 2.55252
15 4 1.0684 -5.36221 10.2384 0.116865
267 2 0.172533 -4.16338 6.59041 0.278825
268 2 0.236982 -5.37692 9.21932 2.33334
244 2 0.134019 -5.14375 12.7564 4.21031
257 2 0.134867 2.04055 10.338 4.85434
159 2 0.194111 1.33481 9.6197 12.5
18 4 1.15282 -2.01319 8.2784 12.8067
22 4 1.27455 -0.570271 12.8372 12.1521
32 4 0.943667 -2.25864 10.4051 9.01776
35 4 1.19837 -1.29388 10.635 14.3288
187 3 -0.803184 0.960002 13.0927 12.4817
160 2 0.171707 0.952767 10.5003 14.8492
50 1 -0.654966 2.12457 10.432 12.2515
51 1 -0.631028 0.0859083 10.8445 15.5611
162 2 0.211819 0.073459 11.9764 15.6851
72 3 -0.792016 -1.58246 8.07868 11.212
83 3 -0.797841 0.277181 7.31699 9.29006
88 3 -0.814594 2.9861 7.79362 15.7212
92 3 -0.82156 -1.15903 11.5145 9.14162
95 3 -0.829645 3.82709 8.05982 11.85
96 3 -0.764798 -0.869381 9.05891 13.6821
97 3 -0.849983 -1.10111 11.7622 13.1841
98 3 -0.764275 -2.81783 10.6372 15.3806
116 2 -0.0498124 -3.44947 9.19453 12.7097
120 2 0.0901112 -0.686723 12.0705 10.6053
126 2 0.0719183 -2.14146 9.45912 10.4029
127 2 -0.0476588 -3.70718 11.1516 9.44528
128 2 0.0401085 2.50329 9.37762 13.8373
139 2 0.157373 -4.63033 10.6379 13.6159
71 3 -0.834816 -2.38359 6.86342 13.5924
158 2 0.257367 1.80269 11.5143 12.4382
157 2 0.13878 2.49735 10.2731 10.9918
140 2 0.155778 -5.67824 11.819 14.5741
43 1 -0.642749 -5.60619 10.7506 14.1224
86 3 -0.788518 2.86504 6.68913 9.9642
235 2 0.162182 11.8948 1.7364 3.1341
37 4 1.27349 13.0665 1.94079 5.85606
221 1 -0.651052 8.82816 0.516241 2.03583
39 4 1.35372 11.1975 4.02109 7.47153
45 1 -0.651946 7.22367 4.82826 7.0291
54 1 -0.661186 10.7214 5.44143 6.282
101 3 -0.825178 14.0008 2.79247 4.869
102 3 -0.850538 13.8319 1.02976 6.85158
250 2 0.164092 11.1769 5.24537 0.0400343
4 4 1.49389 14.9632 2.70212 3.65385
106 3 -0.796851 11.9485 2.95255 6.53887
232 3 -0.783956 14.5779 1.43248 2.68938
129 2 -0.00682676 12.1822 0.935713 4.72437
130 2 0.0578869 7.51056 5.86161 3.54768
169 2 0.230918 11.0264 6.32138 6.84658
234 2 0.159011 11.5885 0.516417 1.65171
146 2 0.184502 7.99621 4.07181 6.51846
103 3 -0.795487 5.66227 6.07669 1.43978
145 2 0.158062 7.3041 5.83542 6.54468
170 2 0.166503 9.61743 5.32613 6.08338
171 2 0.187605 11.3016 5.34875 5.27349
231 1 -0.662827 11.846 0.627085 2.8118
224 2 0.171302 9.31219 1.30271 1.41941
273 2 0.17928 9.35197 0.326521 0.119759
225 2 0.126781 9.04305 0.681834 3.21314
11 4 1.50718 13.0898 6.215 8.81133
36 4 1.31242 8.94374 2.41903 9.15128
52 1 -0.673536 10.2876 1.28339 9.88013
6 4 1.30039 15.9994 2.39669 9.48954
100 3 -0.818045 8.23539 3.16567 10.4515
107 3 -0.804817 12.2603 4.50258 8.54249
110 2 -8.52844e-05 14.7131 2.83312 10.4932
188 3 -0.802669 8.73048 2.2078 14.6612
202 2 0.161832 13.8944 3.67073 11.8484
163 2 0.1681 11.2857 1.91582 9.91322
186 1 -0.69626 9.04597 6.4215 9.71518
165 2 0.249846 9.99569 0.938066 10.9201
172 4 0.990153 16.0156 2.42995 13.9738
173 1 -0.660971 14.2269 1.58033 13.5029
174 2 0.109593 14.2034 2.40147 14.5802
175 2 0.00434881 15.7858 1.09702 12.7172
176 2 0.164922 13.7839 2.25115 12.6198
266 2 0.0633081 14.6805 4.87498 16.0048
178 4 1.0828 13.8702 5.66821 14.3317
180 4 1.24759 9.93593 1.575 13.8139
181 4 1.30876 11.7072 3.94828 12.498
205 2 0.215705 9.18646 5.428 9.14351
185 1 -0.664086 12.8918 3.30167 11.1517
177 2 0.174811 13.7302 0.569768 13.7299
189 3 -0.803208 10.9359 2.62186 12.9685
190 3 -0.7948 12.8007 4.63737 13.5392
192 3 -0.792091 10.8882 5.16882 11.6354
263 3 -0.834587 15.5816 1.00271 8.82369
199 2 0.16977 12.0171 1.09169 14.9198
200 2 0.266671 12.6249 3.87288 10.0791
201 2 0.15151 12.5562 2.17984 11.2333
182 4 1.0692 10.7032 6.33536 10.6115
184 1 -0.656566 10.9609 0.628851 15.0409
105 3 -0.8008 9.71963 3.53449 8.0988
204 2 0.163234 8.19709 6.35499 10.4006
144 2 0.203999 7.32541 4.81905 8.17091
249 1 -0.626912 13.5123 5.99651 16.0005
164 2 0.175732 10.3283 0.371743 9.22139
123 2 -0.0270223 5.41402 6.25421 10.6446
271 2 0.160046 1.85401 10.3722 1.96151
255 2 0.159221 2.07141 12.2424 5.38282
167 2 0.168147 8.88891 7.17381 2.42375
53 1 -0.65656 8.04411 7.33086 3.06377
104 3 -0.833462 4.97009 7.10744 3.77444
230 4 1.11066 5.28853 12.8682 2.49868
125 2 -0.00131976 3.93235 8.29264 1.07684
2 3 -0.803409 9.18233 11.8499 2.95222
166 2 0.0381593 7.07859 8.50399 2.4211
168 2 0.160728 8.40418 7.74517 4.00886
206 4 1.2432 9.31845 10.4821 3.83553
215 2 0.152411 5.17512 9.03877 6.8264
208 4 1.01858 7.46405 10.0601 6.52502
209 1 -0.6621 5.96096 8.96938 6.01527
207 4 1.23191 6.19875 12.9911 7.931
211 3 -0.781312 8.35995 10.3779 5.13207
212 3 -0.750929 6.79226 11.6097 7.32608
213 2 -0.000741235 9.03834 9.07202 2.95443
254 1 -0.675391 1.67278 11.4404 4.66195
216 2 0.169521 6.47218 7.94385 5.99282
217 2 0.177812 5.58851 9.34424 5.03454
256 2 0.171674 1.61443 11.6069 3.58548
252 2 0.134415 10.9518 7.91652 0.915436
239 2 0.110563 7.13962 9.36895 0.505954
238 3 -0.799705 5.56848 12.049 1.10805
240 2 0.202095 8.04166 10.8474 1.45788
38 4 1.03497 6.10794 6.81566 2.73458
219 2 0.179027 9.29556 8.41394 7.11287
258 1 -0.676881 5.78721 11.6954 3.95782
259 2 0.168667 6.22336 10.7814 3.54215
260 2 0.145088 4.82837 11.404 4.41546
261 2 0.216357 6.46766 12.2447 4.67622
270 2 0.167842 0.866678 12.2972 1.68963
237 1 -0.665645 7.76345 10.4411 0.404345
150 2 0.151586 2.59892 10.4441 0.327325
210 1 -0.665808 8.44741 8.89456 7.6951
134 2 0.240492 8.14025 12.9533 5.76428
233 2 0.161178 2.80634 12.7627 3.50053
198 2 0.172331 2.60608 12.392 14.692
40 4 0.897583 6.22388 11.3721 12.9675
108 3 -0.807294 4.9871 10.4075 12.8056
109 3 -0.812831 6.71504 11.5155 14.4411
214 2 -0.0371288 4.99822 12.5206 9.00468
132 2 -0.0531897 7.42569 11.0086 11.8418
264 2 0.0833141 8.79867 12.5793 15.5199
203 2 0.171989 8.84861 7.25641 8.94246
269 2 0.141207 10.3188 10.5617 13.4113
193 2 0.0576347 11.1226 9.6414 15.2175
218 2 0.158778 8.84143 9.52557 8.53755
194 2 -0.00178519 9.63773 7.59288 11.1629
236 4 1.02947 7.32851 11.714 15.94
191 3 -0.838309 12.041 6.87423 9.81479
241 2 0.163111 9.83944 10.8162 15.6096
131 2 -0.0227636 5.90383 12.9146 12.2142
34 4 1.03533 3.76315 9.42839 12.5757
274 2 0.14422 7.64891 8.19663 8.09305
ITEM: TIMESTEP
100
ITEM: NUMBER OF ATOMS
274
ITEM: BOX BOUNDS xy xz yz pp pp pp
-8.3797999999999995e+00 1.8013900000000000e+01 -8.3797999999999995e+00
0.0000000000000000e+00 1.3273200000000001e+01 1.1950000000000001e+00
0.0000000000000000e+00 1.6073203500000002e+01 4.3120000000000003e-01
ITEM: ATOMS id type q x y z
119 2 -0.00894061 7.48375 1.48991 5.27215
12 4 1.28806 -0.888088 6.49886 5.3089
7 4 1.11397 0.890428 2.18017 5.12708
9 4 1.25613 -0.657878 4.63126 1.75435
10 4 1.60478 0.281756 4.36891 7.23637
242 1 -0.67098 3.17024 0.576268 3.12291
21 4 0.821794 5.8333 1.44265 5.5375
26 4 1.25827 5.53471 4.39099 6.81094
41 1 -0.645729 0.76343 0.623217 6.17611
44 1 -0.676264 3.81806 3.85204 1.72221
55 3 -0.828718 1.00159 0.91654 1.12266
56 3 -0.828331 -0.416868 2.35805 4.31045
58 3 -0.802615 -1.85282 4.42556 2.80949
59 3 -0.83781 -0.146776 3.41497 0.942312
243 2 0.174625 2.97151 1.51327 2.44753
61 3 -0.783945 1.07854 3.35847 6.26928
62 3 -0.859619 -0.656211 5.43557 6.41461
74 3 -0.786537 5.75159 0.478201 7.3069
78 3 -0.842223 0.521184 5.30048 2.60103
81 3 -0.779638 5.47025 2.91242 5.81055
84 3 -0.782181 2.94604 5.55483 3.96869
85 3 -0.761303 4.77548 5.68376 6.0495
113 2 0.10047 -1.58704 5.53519 4.02303
111 2 0.0146167 2.30866 2.04739 4.12087
112 2 -0.0260345 -1.17145 5.81676 0.667967
5 4 1.34129 0.294806 1.98517 0.179764
118 2 0.0025113 4.58419 0.823901 4.40829
24 4 1.24477 4.79293 4.8197 0.406933
222 3 -0.769457 6.49345 1.54149 1.18453
223 2 -0.0903713 6.53041 0.880883 3.936
141 2 0.185803 4.56884 2.97136 1.96249
142 2 0.168162 2.88628 3.44797 1.23868
143 2 0.271066 3.59282 4.57685 2.60643
220 4 0.992873 7.13456 0.410042 2.23042
25 4 1.35061 1.44356 6.3974 3.39442
135 2 0.237003 0.975102 0.860675 7.30084
28 4 1.17286 3.96027 6.53219 4.84713
244 2 0.135027 2.5069 0.287331 4.03625
138 2 0.172132 1.27921 0.865207 12.0722
8 4 1.2748 1.91942 2.72338 10.7793
13 4 1.31189 0.461252 4.85444 12.3786
121 2 0.00477867 6.87576 3.68778 12.7397
20 4 1.23844 4.68068 2.86812 9.28268
23 4 1.22918 6.86133 2.63848 11.4344
99 3 -0.8266 7.98947 1.31385 8.55297
226 4 0.888678 3.40253 6.37363 15.0533
42 1 -0.656028 2.18247 1.50479 12.2076
57 3 -0.822901 0.461126 2.31461 10.2277
63 3 -0.863602 -0.287931 3.84869 13.2743
64 3 -0.811162 1.93635 4.33421 11.9955
65 3 -0.871653 -2.34622 6.11707 9.6214
66 3 -0.883185 -0.309234 5.60466 11.2871
73 3 -0.793597 3.11699 2.55942 9.70896
75 3 -0.869144 5.59713 2.93782 10.5615
76 3 -0.887179 7.00402 1.19672 12.0425
80 3 -0.777598 4.92803 4.20695 8.28522
82 3 -0.778081 1.55958 5.16228 8.12373
137 2 0.156108 3.11955 0.92759 11.8389
114 2 -0.0182075 0.752634 5.98794 13.5928
27 4 1.38544 1.74385 6.60565 8.77791
124 2 0.0592355 3.41076 5.18232 12.0154
136 2 0.185195 2.41957 2.00255 13.2909
179 4 1.25918 7.45499 2.40229 15.6755
183 1 -0.688224 6.02868 1.29815 15.0724
77 3 -0.737911 6.9171 4.0983 15.684
60 3 -0.844849 -0.622989 3.49394 8.18967
196 2 0.175323 5.25721 2.05801 14.9454
117 2 0.108268 5.14942 1.53394 8.32687
227 3 -0.81096 4.84833 5.91068 15.4764
195 2 0.25112 6.44443 0.901847 14.131
245 1 -0.682006 2.85191 3.03419 14.973
246 2 0.190665 2.64689 3.53946 14.0465
247 2 0.162422 3.34666 2.02674 14.8425
86 3 -0.81019 2.78869 6.58044 9.94283
228 2 -0.0177002 2.27073 5.04427 15.1127
29 4 0.963345 3.80237 6.53066 11.1157
248 2 0.150417 3.42035 3.71595 15.7468
229 2 -0.0171458 3.49024 6.55249 13.3367
14 4 1.56062 -1.00234 6.62301 10.2957
123 2 -0.02135 5.31534 6.09122 10.6036
262 3 -0.812659 0.254051 1.95934 15.3437
197 2 0.21745 5.82264 0.435928 15.8428
251 1 -0.681916 -5.18631 8.7019 1.21314
3 3 -0.790799 -5.91962 11.426 0.953398
253 2 0.187858 -4.12032 8.43847 1.07382
16 4 1.43633 -3.08884 8.11174 6.5641
17 4 1.22893 -4.50284 10.0583 4.71773
154 2 0.167328 1.02118 9.56262 7.47164
161 2 0.191647 -1.11279 9.79292 0.430557
31 4 1.25765 -1.89936 10.3461 3.06315
33 4 1.12142 0.094244 11.0213 5.56468
48 1 -0.670538 -1.15149 8.78935 2.25231
49 1 -0.644995 0.17044 9.45241 6.66982
149 2 0.160739 2.23893 8.92741 7.61923
68 3 -0.852044 -1.79209 7.73366 5.6221
69 3 -0.85193 -6.06774 10.1331 4.28875
70 3 -0.795656 -4.24444 8.75633 5.56334
79 3 -0.836293 0.68847 7.02467 4.84952
87 3 -0.7965 1.79827 7.7292 2.39719
30 4 0.959441 2.42401 8.22678 1.0579
89 3 -0.758912 -1.67215 11.7462 1.88837
90 3 -0.812999 -3.42356 10.175 3.41872
93 3 -0.803764 -1.01406 10.7228 4.40167
94 3 -0.810847 -0.387258 12.3035 6.48455
115 2 -0.0183289 -4.27828 11.3574 5.79692
147 2 0.215495 1.74292 7.48562 6.46416
151 2 0.196971 -0.146174 9.18948 1.75323
152 2 0.161833 -1.81258 8.28017 1.471
153 2 0.196687 -0.947931 8.11292 3.12557
122 2 0.0116345 3.124 7.82114 5.51796
155 2 0.259422 0.342003 8.482 6.05584
156 2 0.268095 -0.919823 9.48597 7.17245
46 1 -0.677799 2.36839 7.86044 7.35007
148 2 0.168188 3.52 7.50108 7.31222
272 2 0.176939 0.762802 10.1284 0.447922
19 4 1.36433 -1.14806 12.8233 7.81861
1 4 1.25785 -6.74423 12.5293 2.00867
133 2 0.159386 -6.83521 12.7919 5.67327
91 3 -0.816379 -2.62753 9.57121 7.81601
67 3 -0.846495 -3.63094 6.84634 7.37096
47 1 -0.637911 1.64281 9.94003 1.19229
265 2 0.1815 -4.41799 12.6501 2.78944
15 4 1.03216 -5.23303 10.2329 0.0618826
271 2 0.18106 1.26707 10.1827 2.25829
268 2 0.219453 -5.38159 9.33285 2.1246
159 2 0.19708 1.32565 9.59596 12.7568
18 4 1.24172 -2.08309 8.14855 12.6815
22 4 1.23559 -0.442097 12.8227 12.0757
32 4 0.931241 -2.25239 10.4012 9.05525
35 4 1.23775 -1.296 10.6574 14.2595
43 1 -0.647818 -5.41068 10.7894 14.2852
160 2 0.171581 1.05692 10.4561 14.8036
50 1 -0.667483 2.08962 10.2508 12.3133
51 1 -0.629097 0.192388 10.7931 15.4237
162 2 0.208502 0.186964 11.9298 15.603
72 3 -0.832709 -1.38472 7.9667 11.2575
83 3 -0.783166 0.234623 7.22095 9.27721
88 3 -0.759595 2.8374 7.73662 15.7022
92 3 -0.815089 -1.02888 11.4446 9.02654
95 3 -0.804652 3.90289 7.94317 11.9291
96 3 -0.737609 -1.00586 8.92569 13.6044
97 3 -0.83781 -1.0855 11.8025 13.1305
98 3 -0.793438 -2.59504 10.7039 15.1961
116 2 -0.0506558 -3.44219 9.14061 12.6153
120 2 0.0759063 -0.802441 12.0629 10.5495
126 2 0.0670351 -1.85156 9.27502 10.2319
127 2 -0.0518783 -3.6304 11.1073 9.63848
128 2 0.0378595 2.64202 9.5322 14.0105
139 2 0.165907 -4.38556 10.9775 13.7803
71 3 -0.839246 -2.52517 6.87583 13.418
158 2 0.24242 1.69955 11.3775 12.4608
157 2 0.161879 2.14978 10.0121 11.0849
140 2 0.169077 -5.86831 11.7257 14.7414
235 2 0.171868 11.7275 1.71523 3.04106
37 4 1.21956 12.9979 1.94399 5.80357
221 1 -0.658804 8.97189 0.685507 2.10646
39 4 1.26677 11.3373 4.09487 7.50214
45 1 -0.677296 7.44506 4.67616 6.89419
54 1 -0.663106 10.7374 5.52035 6.49742
101 3 -0.80701 13.8553 3.02392 4.90852
102 3 -0.848865 13.8622 1.03034 6.82329
250 2 0.186816 11.2102 5.04195 0.239697
4 4 1.46248 14.9138 2.77641 3.74915
106 3 -0.789642 11.8808 2.84791 6.62562
232 3 -0.799133 14.4027 1.49027 2.88855
129 2 -0.0188516 12.0758 0.979322 4.68885
130 2 0.0677519 7.53707 5.81454 3.32696
169 2 0.195634 10.6118 6.37254 7.20404
234 2 0.182954 11.4925 0.40815 1.66397
146 2 0.193115 8.10167 3.82788 6.46044
103 3 -0.793611 5.59912 6.04221 1.37992
145 2 0.161128 7.51259 5.63456 6.38414
170 2 0.176721 9.73241 5.20646 6.13244
171 2 0.208609 11.5148 5.7025 5.64536
231 1 -0.649742 11.7793 0.613671 2.77287
224 2 0.172122 9.09763 1.65822 1.37719
273 2 0.182338 9.4944 0.454058 0.153767
225 2 0.134573 9.24707 0.955904 3.23412
134 2 0.240116 16.4723 0.324499 5.97198
144 2 0.202218 7.57667 4.79587 7.98968
11 4 1.48113 13.0586 6.24851 8.86302
36 4 1.33631 8.95026 2.46515 9.23104
52 1 -0.659494 10.4859 1.62959 9.95341
6 4 1.29539 15.9978 2.38585 9.26421
100 3 -0.799776 8.26597 3.12656 10.5058
107 3 -0.821179 12.348 4.67726 8.69551
110 2 -0.0026077 14.6286 2.89556 10.2073
188 3 -0.780034 8.74866 2.04016 14.7384
202 2 0.173187 13.8876 3.92529 11.7254
163 2 0.188257 11.2432 2.46274 10.0676
186 1 -0.670258 8.99773 6.55493 9.64886
165 2 0.243201 10.1215 1.05472 10.9784
172 4 0.956945 15.9522 2.55526 14.1781
173 1 -0.648934 14.3752 1.51123 13.5337
174 2 0.03387 14.2909 2.73876 14.9098
175 2 0.0575879 15.7534 0.894388 13.046
176 2 0.159072 13.8056 2.12863 12.6678
266 2 0.0690874 14.6345 5.0244 16.0542
178 4 1.07912 13.6366 5.61284 14.2684
180 4 1.22624 10.0589 1.56008 13.8159
181 4 1.3567 11.6707 4.07307 12.5515
205 2 0.193477 9.20794 5.55578 9.05455
185 1 -0.70783 12.9919 3.3555 11.2661
177 2 0.178059 13.7353 0.632341 13.8893
189 3 -0.785232 10.8559 2.85508 13.1884
190 3 -0.823799 12.5474 4.64192 13.7086
192 3 -0.804093 10.9059 5.32901 11.7236
263 3 -0.817695 15.7274 0.916511 8.64253
199 2 0.173301 12.1284 1.33676 14.9314
200 2 0.252668 12.7566 3.7646 10.2021
201 2 0.144306 12.9853 2.27129 11.3079
182 4 1.05891 10.6481 6.4245 10.6361
184 1 -0.652372 11.1097 0.76034 15.0654
105 3 -0.764691 9.69494 3.44133 8.18904
204 2 0.153018 8.16342 6.4096 10.4561
164 2 0.159947 10.922 0.92413 9.16967
249 1 -0.639222 13.3845 5.92105 15.9387
233 2 0.154044 2.84913 12.7603 3.50164
255 2 0.156618 2.23576 12.2843 5.35707
167 2 0.149119 9.0026 7.52607 3.05773
53 1 -0.627869 7.85209 7.43965 3.28797
104 3 -0.816351 5.03633 7.31523 3.8629
230 4 1.06233 5.28366 12.8561 2.69461
125 2 -0.00303586 4.05936 7.87403 1.11943
2 3 -0.811514 9.17512 11.7936 3.14839
166 2 0.0500672 7.09395 8.38701 2.1461
168 2 0.171493 7.70276 7.78411 4.37123
206 4 1.24765 9.31644 10.356 3.92962
215 2 0.157733 5.14946 9.46527 7.19561
208 4 1.08403 7.47574 10.2412 6.60192
209 1 -0.653466 5.82029 9.16356 6.32308
207 4 1.24045 6.19835 12.998 7.88186
211 3 -0.78845 8.28312 10.3221 5.18451
212 3 -0.785722 6.8223 11.6404 7.27862
213 2 -0.00546972 8.55384 9.22868 2.90621
254 1 -0.678615 1.84619 11.3948 4.84956
216 2 0.172241 6.20852 8.10093 6.34556
217 2 0.190757 5.39436 9.4058 5.31486
256 2 0.155709 1.95312 11.5528 3.7061
252 2 0.157833 10.8684 7.90833 1.15615
267 2 0.177698 12.318 6.56957 0.15418
238 3 -0.762616 5.40952 11.9321 1.119
240 2 0.15945 7.8961 10.2898 1.32386
38 4 1.004 6.03227 6.85815 2.67926
219 2 0.185205 9.42527 8.54918 7.44682
258 1 -0.678744 5.63815 11.6556 4.07054
259 2 0.173438 5.73535 10.6014 3.76087
260 2 0.132964 4.62154 11.9122 4.63519
261 2 0.22365 6.53271 11.906 4.76178
270 2 0.171608 1.01257 12.5298 1.79254
237 1 -0.662261 7.63282 10.2424 0.249096
150 2 0.135504 2.6894 10.4587 0.801728
210 1 -0.650402 8.56644 9.18744 7.81079
257 2 0.139113 2.25622 10.378 5.3038
198 2 0.164199 2.76927 12.5292 14.6586
40 4 0.877251 6.23254 11.3793 13.0977
108 3 -0.809739 4.9211 10.5092 12.7779
109 3 -0.812339 6.77805 11.615 14.6025
214 2 -0.0487485 5.06131 12.5393 8.96886
132 2 -0.0427157 7.42594 10.748 12.0425
264 2 0.0613169 9.11317 12.5058 15.8091
203 2 0.167759 8.82653 7.5435 8.97874
269 2 0.142927 10.7358 10.4975 13.4377
193 2 0.0644258 11.3249 9.55541 15.3414
218 2 0.161381 8.87646 9.92407 8.63034
194 2 0.0060037 9.46121 7.61331 11.2364
236 4 1.0738 7.45189 11.9618 15.9539
191 3 -0.805915 11.8874 7.14339 9.84407
241 2 0.167819 9.79855 10.6408 15.5799
131 2 -0.0220201 6.12478 12.8101 12.2278
34 4 1.01603 3.77327 9.44114 12.6376
187 3 -0.81103 1.16374 13.0881 12.4032
274 2 0.130703 7.68934 8.45431 8.12072
239 2 0.131132 7.97357 9.74305 16.0622
ITEM: TIMESTEP
200
ITEM: NUMBER OF ATOMS
274
ITEM: BOX BOUNDS xy xz yz pp pp pp
-8.3797999999999995e+00 1.8013900000000000e+01 -8.3797999999999995e+00
0.0000000000000000e+00 1.3273200000000001e+01 1.1950000000000001e+00
0.0000000000000000e+00 1.6070907000000002e+01 4.3120000000000003e-01
ITEM: ATOMS id type q x y z
119 2 -0.00542014 7.38859 1.26648 5.36526
12 4 1.26752 -0.970844 6.38768 5.26446
7 4 1.10375 0.883179 2.14967 5.07067
9 4 1.23084 -0.596942 4.60111 1.90099
10 4 1.58661 0.288007 4.42831 7.17095
242 1 -0.677556 3.30309 0.499812 2.98434
21 4 0.805628 5.7277 1.41473 5.66958
26 4 1.28631 5.48429 4.43594 6.72358
41 1 -0.679077 0.877134 0.552146 6.05266
44 1 -0.682123 3.99199 3.74545 1.71869
55 3 -0.784776 1.04504 0.84719 1.1352
56 3 -0.845561 -0.402789 2.43398 4.30965
58 3 -0.78191 -1.96525 4.4465 2.76243
59 3 -0.838967 -0.0825414 3.2201 1.21614
243 2 0.165995 3.48143 1.6323 2.77973
61 3 -0.741238 1.30915 3.45612 6.05543
62 3 -0.882331 -0.639297 5.35735 6.38654
74 3 -0.793598 5.58404 0.27299 7.2855
78 3 -0.866807 0.465118 5.43996 2.76554
81 3 -0.807037 5.49956 2.91922 5.9124
84 3 -0.767261 3.04121 5.60309 4.03351
85 3 -0.816418 4.93566 5.62935 5.9345
113 2 0.110907 -1.6669 5.42953 3.97446
111 2 0.0185998 2.10735 1.84672 3.8559
112 2 -0.0223111 -0.864803 5.72342 0.696042
5 4 1.34623 0.333556 1.99984 0.298962
118 2 -0.0172954 4.59333 0.808583 4.44094
24 4 1.28469 4.85659 4.76772 0.422684
222 3 -0.782325 6.55758 1.47109 1.12577
223 2 -0.0962154 6.37602 0.981099 3.91963
141 2 0.17306 4.75582 2.98387 2.06597
142 2 0.164804 3.12354 3.28336 1.05695
143 2 0.258139 3.62799 4.38052 2.52408
220 4 1.00695 7.10312 0.437581 2.32153
25 4 1.40424 1.4995 6.38419 3.55133
135 2 0.223372 0.588962 0.835404 7.14508
82 3 -0.80494 1.43688 5.33836 7.9232
244 2 0.128464 2.9564 0.136096 4.00267
138 2 0.158888 1.33691 0.82759 12.4075
8 4 1.29001 1.8414 2.62154 10.8377
13 4 1.25389 0.530224 4.91361 12.3832
121 2 -0.00365565 6.54745 3.67805 12.6172
20 4 1.28025 4.60068 2.68038 9.23363
23 4 1.28867 6.83554 2.66407 11.2936
99 3 -0.779969 8.11099 1.20776 8.48777
226 4 0.871776 3.41989 6.28073 15.0417
42 1 -0.688723 2.22667 1.45511 12.2941
57 3 -0.84251 0.363603 2.38106 10.2446
63 3 -0.868101 -0.117413 3.93864 13.3952
64 3 -0.802952 1.91414 4.30402 11.7518
65 3 -0.870287 -2.38971 6.08102 9.7426
66 3 -0.888248 -0.469238 5.49404 11.2886
73 3 -0.791559 3.04411 2.49401 9.76155
75 3 -0.859268 5.501 2.7436 10.4378
76 3 -0.890804 7.14245 1.25187 11.8538
80 3 -0.746481 4.95201 4.03551 8.40166
262 3 -0.798946 0.314665 1.91993 15.2791
137 2 0.161925 3.15556 0.910014 11.9208
114 2 -0.0465194 1.03932 6.38341 13.1674
14 4 1.57504 -0.996382 6.54777 10.3305
124 2 0.0685268 3.34237 5.19384 11.8769
136 2 0.181755 2.45119 1.97563 13.2974
179 4 1.3225 7.45708 2.43149 15.6924
183 1 -0.667886 5.97833 1.31258 15.1972
77 3 -0.749999 7.03834 4.07024 15.6186
60 3 -0.839291 -0.683933 3.55873 8.20029
196 2 0.161326 5.17566 1.90317 15.7215
117 2 0.100365 5.03087 1.35588 8.26036
227 3 -0.825398 4.76778 5.68342 15.7184
195 2 0.184537 5.81514 1.29032 14.0711
245 1 -0.686145 2.73012 3.0983 14.998
246 2 0.17323 2.1368 3.53656 14.0629
247 2 0.162521 3.27233 2.15887 14.7843
123 2 -0.0172001 5.27992 6.10933 10.5016
228 2 -0.0297507 2.33053 5.05111 15.1359
29 4 0.955675 3.79865 6.66159 11.0851
248 2 0.160384 3.40686 3.83601 15.5589
229 2 -0.0379634 3.57626 6.44129 13.3422
86 3 -0.805445 2.72665 6.6777 9.9497
251 1 -0.651042 -5.08754 8.71788 1.04823
3 3 -0.806061 -5.88129 11.3654 1.01285
253 2 0.177205 -4.0601 8.29199 0.890951
16 4 1.4891 -3.07102 8.11054 6.55148
17 4 1.22456 -4.52922 10.0238 4.7888
154 2 0.163854 0.976427 9.65001 7.36517
161 2 0.17462 -0.933061 10.043 0.254397
31 4 1.30211 -1.90397 10.4242 2.9536
33 4 1.16609 0.0725501 11.0367 5.49012
48 1 -0.647661 -1.21564 8.95546 1.9508
49 1 -0.66359 0.172105 9.49526 6.58257
149 2 0.14262 2.18698 9.01951 7.64846
68 3 -0.86127 -1.88929 7.62803 5.57489
69 3 -0.80303 -6.04872 10.1203 4.32172
70 3 -0.791798 -4.32022 8.69156 5.58637
79 3 -0.810199 0.634006 7.18484 4.79586
87 3 -0.809485 2.08146 7.46688 2.38439
30 4 1.04044 2.37296 8.00871 0.984005
89 3 -0.79656 -1.67641 11.7673 2.08499
90 3 -0.808343 -3.42292 10.1886 3.4986
93 3 -0.787976 -0.740069 10.6094 4.16014
94 3 -0.838738 -0.309946 12.271 6.33677
115 2 -0.0235685 -4.33895 11.3208 5.7912
147 2 0.216844 1.75525 7.65613 6.50064
151 2 0.190663 -0.0813421 9.24479 1.59238
152 2 0.160709 -1.90414 8.81637 1.02135
153 2 0.188568 -1.2679 8.10946 2.7308
122 2 0.00131096 3.30257 7.69585 5.6904
155 2 0.281136 0.347429 8.60308 5.87558
156 2 0.271032 -0.959964 9.40782 7.04231
46 1 -0.669808 2.3304 7.89287 7.43191
148 2 0.169544 3.42461 7.57212 7.41602
272 2 0.187809 0.832922 10.1347 0.385392
19 4 1.29609 -1.15831 12.7638 7.74592
1 4 1.26387 -6.6138 12.4422 2.02838
133 2 0.15805 -6.54167 12.7768 5.9979
91 3 -0.82428 -2.5418 9.61183 7.63651
67 3 -0.859743 -3.53448 7.08689 7.56357
47 1 -0.667061 1.73359 9.82827 1.02817
265 2 0.194346 -4.31569 12.6278 2.43173
15 4 1.07816 -5.21842 10.2741 0.0237752
271 2 0.177616 1.62867 9.91969 2.16447
268 2 0.220985 -5.27366 8.97185 2.18708
28 4 1.1723 4.15814 6.55165 4.80951
159 2 0.189696 1.24739 9.43104 12.4452
18 4 1.22287 -2.14242 8.22033 12.7878
22 4 1.27151 -0.449494 12.7679 12.0436
32 4 0.962759 -2.25468 10.4288 8.95134
35 4 1.25458 -1.1025 10.6445 14.2834
43 1 -0.653991 -5.67586 10.7154 14.1354
160 2 0.174165 1.29324 10.8001 14.6132
50 1 -0.674966 2.0945 10.1906 12.2563
51 1 -0.65121 0.419209 11.1131 15.2671
162 2 0.218325 0.364494 12.2226 15.4863
72 3 -0.803097 -1.50888 8.13812 11.3339
83 3 -0.827629 -0.0338404 7.12886 9.26651
88 3 -0.800067 2.92228 7.69529 15.6796
92 3 -0.833042 -1.14501 11.5158 9.06513
95 3 -0.83793 3.93648 7.96248 11.9829
96 3 -0.795264 -1.14195 9.14166 13.7822
97 3 -0.825699 -0.995674 11.6215 13.0251
98 3 -0.768311 -2.65882 10.9436 15.4037
116 2 -0.0339931 -3.50469 9.00402 12.3174
120 2 0.101973 -0.389368 12.147 10.4119
126 2 0.0868856 -2.03821 9.25887 10.2062
127 2 -0.041236 -3.7394 10.984 9.43838
128 2 0.0437018 2.43914 9.39494 13.9492
139 2 0.141067 -4.76365 10.7855 13.4793
71 3 -0.854497 -2.65657 6.97607 13.5527
158 2 0.252789 1.73213 11.3134 12.4584
157 2 0.145438 2.42414 10.1035 11.0876
140 2 0.160539 -5.82203 11.7326 14.6167
197 2 0.242122 -2.36975 13.0891 15.6063
27 4 1.35696 1.58041 6.67114 8.75602
187 3 -0.813127 1.06873 12.93 12.5147
235 2 0.17041 11.3205 1.54701 3.0249
37 4 1.26934 12.9556 2.06557 5.85585
221 1 -0.65025 8.96504 0.563832 2.04016
39 4 1.34408 11.1964 4.02516 7.64743
45 1 -0.66242 7.28712 5.03477 6.89225
54 1 -0.644985 10.8249 5.46453 6.41104
101 3 -0.816512 13.9433 3.07229 5.02781
102 3 -0.866928 13.7125 1.06379 6.7664
250 2 0.18661 11.3839 4.90145 0.484105
4 4 1.44808 14.9063 2.7348 3.78339
106 3 -0.81164 11.8171 2.89018 6.67185
232 3 -0.813532 14.2936 1.47842 2.9548
129 2 -0.00703034 12.1 1.18079 4.65457
130 2 0.0730915 7.79369 5.7524 3.30101
169 2 0.206519 10.8002 6.4653 6.96325
234 2 0.158084 11.4468 0.12945 1.72709
146 2 0.179549 8.03815 4.24603 6.53168
103 3 -0.776572 5.75169 5.93952 1.24194
145 2 0.182077 7.32161 5.95274 6.29644
170 2 0.165089 9.90495 5.11137 5.86626
171 2 0.203172 11.7392 5.42492 5.7018
231 1 -0.649359 11.6248 0.503144 2.85115
224 2 0.177871 9.19699 1.40233 1.37962
273 2 0.178739 9.51774 0.546176 0.112996
225 2 0.13201 9.14898 0.793121 3.16001
230 4 1.13107 13.587 0.090284 2.6628
207 4 1.24526 14.5757 0.209784 7.74758
144 2 0.202647 7.3415 5.12368 8.01216
11 4 1.50885 13.1181 6.24785 8.9534
36 4 1.26455 9.13849 2.40565 9.30218
52 1 -0.671451 10.4982 1.46985 10.154
6 4 1.34096 15.9617 2.44933 9.25533
100 3 -0.759617 8.11629 3.21291 10.4783
107 3 -0.819631 12.3378 4.5847 8.6063
110 2 0.0189275 14.619 2.84477 10.2276
188 3 -0.801822 8.65068 2.01302 14.7427
202 2 0.176033 13.8716 3.77041 11.7934
163 2 0.175921 11.4828 2.20103 10.5011
249 1 -0.620041 13.4074 5.9341 16.0522
165 2 0.239663 10.109 0.836001 11.0734
172 4 0.996554 16.1961 2.50818 14.0834