ITEM: TIMESTEP
0
ITEM: NUMBER OF ATOMS
274
ITEM: BOX BOUNDS xy xz yz pp pp pp
-8.3797999999999995e+00 1.8013900000000000e+01 -8.3797999999999995e+00
0.0000000000000000e+00 1.3273200000000001e+01 1.1950000000000001e+00
0.0000000000000000e+00 1.6075500000000002e+01 4.3120000000000003e-01
ITEM: ATOMS id type q x y z
119 2 -0.017029 7.45936 1.4425 5.26906
12 4 1.30703 -0.823901 6.37281 5.40194
7 4 1.11419 0.87114 2.14089 5.12893
9 4 1.25473 -0.611388 4.66178 1.7635
10 4 1.61247 0.259573 4.29395 7.41616
242 1 -0.686653 3.28007 0.428832 3.17692
21 4 0.789988 5.79929 1.40385 5.63299
26 4 1.25943 5.36609 4.45866 6.77474
41 1 -0.666683 0.696455 0.514262 6.09217
44 1 -0.689365 3.75411 3.77234 1.74507
55 3 -0.755616 1.11169 0.980967 1.06674
56 3 -0.824943 -0.489595 2.42903 4.38355
58 3 -0.810113 -1.8403 4.39055 2.8196
59 3 -0.854896 -0.112574 3.49903 0.904113
243 2 0.151327 3.38032 1.55911 3.20471
61 3 -0.756466 1.15378 3.3135 6.16529
62 3 -0.866443 -0.492576 5.41097 6.59611
74 3 -0.787118 5.67686 0.418391 7.36475
78 3 -0.86161 0.635447 5.36893 2.49257
81 3 -0.783264 5.44039 2.92156 5.8484
84 3 -0.789721 2.81698 5.64662 4.1961
85 3 -0.816999 4.74232 5.68621 5.985
113 2 0.0898737 -1.49164 5.3789 4.12081
111 2 0.00136532 2.27397 1.81409 4.05903
112 2 -0.027043 -1.3528 5.74033 0.65964
5 4 1.29962 0.20743 2.13501 0.0885205
118 2 -0.0276093 4.65484 0.775407 4.56549
24 4 1.26432 4.75689 4.86827 0.578926
222 3 -0.777536 6.39896 1.40383 1.05023
223 2 -0.0984656 6.41616 0.881428 3.88456
141 2 0.182123 4.4513 2.83077 1.71011
142 2 0.201776 2.69956 3.62763 1.44673
143 2 0.225707 3.76062 4.33163 2.74036
220 4 0.989 6.98519 0.399653 2.21935
25 4 1.40346 1.4386 6.41506 3.38794
135 2 0.221886 0.781658 0.721513 7.19116
28 4 1.25432 3.95024 6.52268 4.88442
138 2 0.157795 1.59448 0.695363 11.9697
8 4 1.27665 1.97502 2.77831 10.9374
13 4 1.2651 0.384514 4.92849 12.4367
197 2 0.19342 5.12544 1.49373 15.8702
20 4 1.23149 4.73066 2.95392 9.34118
23 4 1.27222 7.00022 2.82031 11.4374
99 3 -0.844255 8.04582 1.33435 8.37206
226 4 0.898045 3.45982 6.40123 15.0464
42 1 -0.672189 2.45083 1.44369 12.1685
57 3 -0.831912 0.571864 2.32838 10.319
63 3 -0.858604 -0.443701 3.87919 13.2785
64 3 -0.825284 1.88383 4.34313 12.2609
65 3 -0.849494 -2.16634 6.18015 9.36293
66 3 -0.88933 -0.328363 5.45845 11.1571
73 3 -0.788335 3.20905 2.83518 9.95399
75 3 -0.844999 5.68069 3.01825 10.6467
76 3 -0.872199 7.06794 1.35322 12.0186
80 3 -0.764393 4.88613 4.29886 8.42519
82 3 -0.79018 1.4304 5.02919 8.23846
137 2 0.171457 3.49669 1.07555 11.8162
114 2 -0.0208846 0.530669 6.35558 13.22
27 4 1.3683 1.62885 6.58972 8.82706
124 2 0.0602139 3.35395 5.24257 11.9727
136 2 0.178358 2.4539 1.91167 13.2106
179 4 1.2821 7.41158 2.56288 15.6638
183 1 -0.65387 5.9276 1.55235 15.0453
77 3 -0.769876 6.88307 4.1167 15.8338
60 3 -0.843025 -0.695383 3.50241 8.38998
196 2 0.178706 5.58022 2.06806 14.1298
117 2 0.0842239 5.09721 1.57714 8.38777
227 3 -0.805596 4.85828 5.97193 15.6661
195 2 0.214047 6.50726 0.579688 14.8227
245 1 -0.682153 2.67765 3.23361 14.8411
246 2 0.231863 2.39211 3.70852 13.8391
247 2 0.156314 3.21712 2.20551 14.7339
262 3 -0.812391 0.120873 2.05308 15.2542
228 2 -0.0134109 2.19914 5.21943 15.1438
29 4 0.968189 3.86743 6.64213 11.1204
248 2 0.162877 3.32079 3.83975 15.5655
229 2 -0.0413696 3.52416 6.54074 13.2926
14 4 1.52269 -0.963837 6.59796 10.2326
121 2 -0.0109651 6.8673 3.91216 12.7563
251 1 -0.667174 -5.1976 8.80977 1.27474
3 3 -0.796416 -5.75458 11.5315 1.08778
253 2 0.200399 -4.17177 8.52183 1.14212
16 4 1.52188 -3.04634 8.02258 6.59248
17 4 1.24716 -4.52718 10.0338 4.70259
154 2 0.178865 1.0353 9.52309 7.38032
161 2 0.203422 -1.13347 9.87123 0.521639
31 4 1.27373 -1.95213 10.4524 3.13247
33 4 1.11967 0.0651343 11.0627 5.61933
48 1 -0.646009 -0.946454 8.95811 2.41495
49 1 -0.668078 0.225474 9.45764 6.62933
149 2 0.153008 2.09991 8.77682 7.78523
68 3 -0.880356 -1.89013 7.43866 5.73522
69 3 -0.862975 -6.0479 10.2552 4.18133
70 3 -0.823087 -4.14331 8.86783 5.6523
79 3 -0.843537 0.556753 7.17479 4.83395
87 3 -0.841128 1.83746 7.61542 2.44098
30 4 1.05908 2.22564 8.1403 1.00009
89 3 -0.768879 -1.7338 11.6457 1.96904
90 3 -0.814961 -3.47997 10.0596 3.42536
93 3 -0.824258 -0.996107 10.8218 4.46793
94 3 -0.80794 -0.134874 12.3545 6.69172
115 2 -0.0311849 -4.16755 11.4746 5.51755
147 2 0.233875 1.58479 7.48038 6.34777
151 2 0.194604 0.0394201 9.34884 1.82112
152 2 0.150841 -1.75466 8.49722 1.71353
153 2 0.216915 -0.77291 8.31637 3.34252
122 2 0.00599322 3.08457 7.9375 5.59943
155 2 0.267057 0.430321 8.57083 5.91972
156 2 0.286967 -0.884478 9.38332 7.12423
46 1 -0.671092 2.24236 7.68929 7.29934
148 2 0.176291 3.30048 7.37189 7.26776
272 2 0.184111 0.667629 10.1878 0.460797
19 4 1.36829 -1.10085 12.8832 7.8433
1 4 1.30811 -6.52005 12.587 2.00435
133 2 0.16453 -6.84732 12.7181 5.69535
91 3 -0.81319 -2.42616 9.39972 7.76407
67 3 -0.870216 -3.78439 6.9185 7.4201
47 1 -0.678051 1.70793 10.0098 0.924475
265 2 0.189972 -4.2492 12.8029 2.55252
15 4 1.0684 -5.36221 10.2384 0.116865
267 2 0.172533 -4.16338 6.59041 0.278825
268 2 0.236982 -5.37692 9.21932 2.33334
244 2 0.134019 -5.14375 12.7564 4.21031
257 2 0.134867 2.04055 10.338 4.85434
159 2 0.194111 1.33481 9.6197 12.5
18 4 1.15282 -2.01319 8.2784 12.8067
22 4 1.27455 -0.570271 12.8372 12.1521
32 4 0.943667 -2.25864 10.4051 9.01776
35 4 1.19837 -1.29388 10.635 14.3288
187 3 -0.803184 0.960002 13.0927 12.4817
160 2 0.171707 0.952767 10.5003 14.8492
50 1 -0.654966 2.12457 10.432 12.2515
51 1 -0.631028 0.0859083 10.8445 15.5611
162 2 0.211819 0.073459 11.9764 15.6851
72 3 -0.792016 -1.58246 8.07868 11.212
83 3 -0.797841 0.277181 7.31699 9.29006
88 3 -0.814594 2.9861 7.79362 15.7212
92 3 -0.82156 -1.15903 11.5145 9.14162
95 3 -0.829645 3.82709 8.05982 11.85
96 3 -0.764798 -0.869381 9.05891 13.6821
97 3 -0.849983 -1.10111 11.7622 13.1841
98 3 -0.764275 -2.81783 10.6372 15.3806
116 2 -0.0498124 -3.44947 9.19453 12.7097
120 2 0.0901112 -0.686723 12.0705 10.6053
126 2 0.0719183 -2.14146 9.45912 10.4029
127 2 -0.0476588 -3.70718 11.1516 9.44528
128 2 0.0401085 2.50329 9.37762 13.8373
139 2 0.157373 -4.63033 10.6379 13.6159
71 3 -0.834816 -2.38359 6.86342 13.5924
158 2 0.257367 1.80269 11.5143 12.4382
157 2 0.13878 2.49735 10.2731 10.9918
140 2 0.155778 -5.67824 11.819 14.5741
43 1 -0.642749 -5.60619 10.7506 14.1224
86 3 -0.788518 2.86504 6.68913 9.9642
235 2 0.162182 11.8948 1.7364 3.1341
37 4 1.27349 13.0665 1.94079 5.85606
221 1 -0.651052 8.82816 0.516241 2.03583
39 4 1.35372 11.1975 4.02109 7.47153
45 1 -0.651946 7.22367 4.82826 7.0291
54 1 -0.661186 10.7214 5.44143 6.282
101 3 -0.825178 14.0008 2.79247 4.869
102 3 -0.850538 13.8319 1.02976 6.85158
250 2 0.164092 11.1769 5.24537 0.0400343
4 4 1.49389 14.9632 2.70212 3.65385
106 3 -0.796851 11.9485 2.95255 6.53887
232 3 -0.783956 14.5779 1.43248 2.68938
129 2 -0.00682676 12.1822 0.935713 4.72437
130 2 0.0578869 7.51056 5.86161 3.54768
169 2 0.230918 11.0264 6.32138 6.84658
234 2 0.159011 11.5885 0.516417 1.65171
146 2 0.184502 7.99621 4.07181 6.51846
103 3 -0.795487 5.66227 6.07669 1.43978
145 2 0.158062 7.3041 5.83542 6.54468
170 2 0.166503 9.61743 5.32613 6.08338
171 2 0.187605 11.3016 5.34875 5.27349
231 1 -0.662827 11.846 0.627085 2.8118
224 2 0.171302 9.31219 1.30271 1.41941
273 2 0.17928 9.35197 0.326521 0.119759
225 2 0.126781 9.04305 0.681834 3.21314
11 4 1.50718 13.0898 6.215 8.81133
36 4 1.31242 8.94374 2.41903 9.15128
52 1 -0.673536 10.2876 1.28339 9.88013
6 4 1.30039 15.9994 2.39669 9.48954
100 3 -0.818045 8.23539 3.16567 10.4515
107 3 -0.804817 12.2603 4.50258 8.54249
110 2 -8.52844e-05 14.7131 2.83312 10.4932
188 3 -0.802669 8.73048 2.2078 14.6612
202 2 0.161832 13.8944 3.67073 11.8484
163 2 0.1681 11.2857 1.91582 9.91322
186 1 -0.69626 9.04597 6.4215 9.71518
165 2 0.249846 9.99569 0.938066 10.9201
172 4 0.990153 16.0156 2.42995 13.9738
173 1 -0.660971 14.2269 1.58033 13.5029
174 2 0.109593 14.2034 2.40147 14.5802
175 2 0.00434881 15.7858 1.09702 12.7172
176 2 0.164922 13.7839 2.25115 12.6198
266 2 0.0633081 14.6805 4.87498 16.0048
178 4 1.0828 13.8702 5.66821 14.3317
180 4 1.24759 9.93593 1.575 13.8139
181 4 1.30876 11.7072 3.94828 12.498
205 2 0.215705 9.18646 5.428 9.14351
185 1 -0.664086 12.8918 3.30167 11.1517
177 2 0.174811 13.7302 0.569768 13.7299
189 3 -0.803208 10.9359 2.62186 12.9685
190 3 -0.7948 12.8007 4.63737 13.5392
192 3 -0.792091 10.8882 5.16882 11.6354
263 3 -0.834587 15.5816 1.00271 8.82369
199 2 0.16977 12.0171 1.09169 14.9198
200 2 0.266671 12.6249 3.87288 10.0791
201 2 0.15151 12.5562 2.17984 11.2333
182 4 1.0692 10.7032 6.33536 10.6115
184 1 -0.656566 10.9609 0.628851 15.0409
105 3 -0.8008 9.71963 3.53449 8.0988
204 2 0.163234 8.19709 6.35499 10.4006
144 2 0.203999 7.32541 4.81905 8.17091
249 1 -0.626912 13.5123 5.99651 16.0005
164 2 0.175732 10.3283 0.371743 9.22139
123 2 -0.0270223 5.41402 6.25421 10.6446
271 2 0.160046 1.85401 10.3722 1.96151
255 2 0.159221 2.07141 12.2424 5.38282
167 2 0.168147 8.88891 7.17381 2.42375
53 1 -0.65656 8.04411 7.33086 3.06377
104 3 -0.833462 4.97009 7.10744 3.77444
230 4 1.11066 5.28853 12.8682 2.49868
125 2 -0.00131976 3.93235 8.29264 1.07684
2 3 -0.803409 9.18233 11.8499 2.95222
166 2 0.0381593 7.07859 8.50399 2.4211
168 2 0.160728 8.40418 7.74517 4.00886
206 4 1.2432 9.31845 10.4821 3.83553
215 2 0.152411 5.17512 9.03877 6.8264
208 4 1.01858 7.46405 10.0601 6.52502
209 1 -0.6621 5.96096 8.96938 6.01527
207 4 1.23191 6.19875 12.9911 7.931
211 3 -0.781312 8.35995 10.3779 5.13207
212 3 -0.750929 6.79226 11.6097 7.32608
213 2 -0.000741235 9.03834 9.07202 2.95443
254 1 -0.675391 1.67278 11.4404 4.66195
216 2 0.169521 6.47218 7.94385 5.99282
217 2 0.177812 5.58851 9.34424 5.03454
256 2 0.171674 1.61443 11.6069 3.58548
252 2 0.134415 10.9518 7.91652 0.915436
239 2 0.110563 7.13962 9.36895 0.505954
238 3 -0.799705 5.56848 12.049 1.10805
240 2 0.202095 8.04166 10.8474 1.45788
38 4 1.03497 6.10794 6.81566 2.73458
219 2 0.179027 9.29556 8.41394 7.11287
258 1 -0.676881 5.78721 11.6954 3.95782
259 2 0.168667 6.22336 10.7814 3.54215
260 2 0.145088 4.82837 11.404 4.41546
261 2 0.216357 6.46766 12.2447 4.67622
270 2 0.167842 0.866678 12.2972 1.68963
237 1 -0.665645 7.76345 10.4411 0.404345
150 2 0.151586 2.59892 10.4441 0.327325
210 1 -0.665808 8.44741 8.89456 7.6951
134 2 0.240492 8.14025 12.9533 5.76428
233 2 0.161178 2.80634 12.7627 3.50053
198 2 0.172331 2.60608 12.392 14.692
40 4 0.897583 6.22388 11.3721 12.9675
108 3 -0.807294 4.9871 10.4075 12.8056
109 3 -0.812831 6.71504 11.5155 14.4411
214 2 -0.0371288 4.99822 12.5206 9.00468
132 2 -0.0531897 7.42569 11.0086 11.8418
264 2 0.0833141 8.79867 12.5793 15.5199
203 2 0.171989 8.84861 7.25641 8.94246
269 2 0.141207 10.3188 10.5617 13.4113
193 2 0.0576347 11.1226 9.6414 15.2175
218 2 0.158778 8.84143 9.52557 8.53755
194 2 -0.00178519 9.63773 7.59288 11.1629
236 4 1.02947 7.32851 11.714 15.94
191 3 -0.838309 12.041 6.87423 9.81479
241 2 0.163111 9.83944 10.8162 15.6096
131 2 -0.0227636 5.90383 12.9146 12.2142
34 4 1.03533 3.76315 9.42839 12.5757
274 2 0.14422 7.64891 8.19663 8.09305
ITEM: TIMESTEP
100
ITEM: NUMBER OF ATOMS
274
ITEM: BOX BOUNDS xy xz yz pp pp pp
-8.3786028857142849e+00 1.8011326585714283e+01 -8.3786028857142849e+00
0.0000000000000000e+00 1.3273200000000001e+01 1.1948292857142857e+00
0.0000000000000000e+00 1.6075500000000002e+01 4.3120000000000003e-01
ITEM: ATOMS id type q x y z
119 2 -0.00894151 7.48376 1.48991 5.27214
12 4 1.28806 -0.888087 6.49886 5.3089
7 4 1.11397 0.890422 2.18017 5.12708
9 4 1.25614 -0.657857 4.63125 1.75433
10 4 1.60477 0.281756 4.3689 7.23637
242 1 -0.67097 3.17023 0.576273 3.12294
21 4 0.821796 5.83331 1.44265 5.5375
26 4 1.25827 5.53471 4.39099 6.81094
41 1 -0.645735 0.763387 0.623218 6.17609
44 1 -0.676263 3.81807 3.85204 1.72222
55 3 -0.828735 1.00152 0.916549 1.1226
56 3 -0.828335 -0.416865 2.35806 4.31045
58 3 -0.802615 -1.85281 4.42555 2.80948
59 3 -0.837837 -0.146722 3.41497 0.942322
243 2 0.174612 2.9715 1.51328 2.44748
61 3 -0.783946 1.07854 3.35846 6.26928
62 3 -0.859619 -0.65621 5.43557 6.41461
74 3 -0.786537 5.75159 0.478201 7.3069
78 3 -0.842226 0.521179 5.30049 2.60103
81 3 -0.779639 5.47025 2.91242 5.81055
84 3 -0.782182 2.94604 5.55483 3.96869
85 3 -0.761302 4.77548 5.68376 6.0495
113 2 0.10047 -1.58704 5.53518 4.02302
111 2 0.0146185 2.30866 2.04741 4.12089
112 2 -0.0260359 -1.17144 5.81674 0.667939
5 4 1.34139 0.294674 1.98518 0.179866
118 2 0.00251442 4.5842 0.823882 4.40828
24 4 1.24477 4.79293 4.8197 0.406934
222 3 -0.769462 6.49343 1.54148 1.18452
223 2 -0.0903724 6.5304 0.880885 3.93601
141 2 0.185803 4.56885 2.97137 1.96252
142 2 0.168161 2.8863 3.44797 1.23866
143 2 0.271067 3.59282 4.57685 2.60644
220 4 0.99287 7.13456 0.410039 2.23043
25 4 1.35061 1.44356 6.3974 3.39442
135 2 0.237003 0.975096 0.860663 7.3008
28 4 1.17286 3.96027 6.53219 4.84713
244 2 0.13503 2.50683 0.287334 4.03625
138 2 0.172134 1.27923 0.86512 12.072
8 4 1.27481 1.91942 2.72339 10.7793
13 4 1.31189 0.461266 4.85446 12.3786
121 2 0.00478197 6.87576 3.68778 12.7397
20 4 1.23844 4.68068 2.86812 9.28268
23 4 1.22918 6.86134 2.63848 11.4344
99 3 -0.826601 7.98947 1.31385 8.55297
226 4 0.888678 3.40253 6.37362 15.0533
42 1 -0.656029 2.18245 1.50475 12.2075
57 3 -0.822898 0.461125 2.31461 10.2277
63 3 -0.86357 -0.287887 3.8487 13.2743
64 3 -0.811163 1.93636 4.33421 11.9955
65 3 -0.871656 -2.34622 6.11707 9.6214
66 3 -0.883185 -0.309236 5.60466 11.2871
73 3 -0.793598 3.11699 2.55942 9.70896
75 3 -0.869145 5.59713 2.93782 10.5615
76 3 -0.887175 7.00402 1.19672 12.0425
80 3 -0.777598 4.92803 4.20695 8.28522
82 3 -0.778081 1.55958 5.16228 8.12373
137 2 0.15611 3.11959 0.927628 11.839
114 2 -0.0182084 0.752642 5.98796 13.5928
27 4 1.38544 1.74385 6.60565 8.77791
124 2 0.0592345 3.41077 5.18232 12.0154
136 2 0.185183 2.41945 2.00254 13.2909
179 4 1.25918 7.45499 2.4023 15.6755
183 1 -0.688239 6.02868 1.29817 15.0724
77 3 -0.737911 6.91709 4.0983 15.684
60 3 -0.844849 -0.622988 3.49394 8.18967
196 2 0.175336 5.2571 2.05779 14.9454
117 2 0.108268 5.14942 1.53394 8.32687
227 3 -0.810959 4.84833 5.91068 15.4764
195 2 0.251131 6.44423 0.901723 14.131
245 1 -0.681994 2.85174 3.03416 14.973
246 2 0.19067 2.64662 3.53942 14.0464
247 2 0.162423 3.34638 2.02668 14.8425
86 3 -0.810191 2.78869 6.58044 9.94283
228 2 -0.017702 2.27074 5.04432 15.1127
29 4 0.963346 3.80237 6.53066 11.1157
248 2 0.15042 3.42029 3.71591 15.7467
229 2 -0.0171446 3.49024 6.5525 13.3367
14 4 1.56062 -1.00234 6.62301 10.2957
123 2 -0.02135 5.31534 6.09122 10.6036
262 3 -0.812633 0.253953 1.95936 15.344
197 2 0.217437 5.82283 0.436044 15.843
251 1 -0.681918 -5.18632 8.7019 1.21313
3 3 -0.790799 -5.91962 11.426 0.9534
253 2 0.187861 -4.12032 8.43847 1.07381
16 4 1.43633 -3.08884 8.11174 6.5641
17 4 1.22893 -4.50284 10.0583 4.71773
154 2 0.167327 1.02118 9.56262 7.47164
161 2 0.191647 -1.11278 9.79292 0.43056
31 4 1.25766 -1.89936 10.3461 3.06315
33 4 1.12142 0.0942437 11.0213 5.56468
48 1 -0.670538 -1.15149 8.78935 2.25232
49 1 -0.644995 0.17044 9.45241 6.66982
149 2 0.16074 2.23893 8.92741 7.61923
68 3 -0.852044 -1.79209 7.73365 5.6221
69 3 -0.851928 -6.06774 10.1331 4.28875
70 3 -0.795656 -4.24444 8.75633 5.56334
79 3 -0.836294 0.688471 7.02467 4.84952
87 3 -0.7965 1.79827 7.7292 2.39719
30 4 0.959442 2.42401 8.22678 1.0579
89 3 -0.758913 -1.67215 11.7462 1.88837
90 3 -0.812998 -3.42356 10.175 3.41872
93 3 -0.803764 -1.01406 10.7228 4.40167
94 3 -0.810847 -0.387258 12.3035 6.48455
115 2 -0.0183283 -4.27828 11.3574 5.79691
147 2 0.215495 1.74292 7.48562 6.46416
151 2 0.19697 -0.146172 9.18948 1.75323
152 2 0.161835 -1.81258 8.28018 1.471
153 2 0.196688 -0.947932 8.11292 3.12557
122 2 0.0116351 3.124 7.82114 5.51796
155 2 0.259422 0.342003 8.482 6.05584
156 2 0.268095 -0.919824 9.48597 7.17245
46 1 -0.677799 2.3684 7.86044 7.35007
148 2 0.168188 3.52 7.50109 7.31222
272 2 0.176939 0.762801 10.1284 0.447922
19 4 1.36433 -1.14806 12.8233 7.81861
1 4 1.25783 -6.74425 12.5293 2.00865
133 2 0.159394 -6.83531 12.7919 5.67326
91 3 -0.81638 -2.62753 9.57121 7.81601
67 3 -0.846494 -3.63094 6.84634 7.37096
47 1 -0.63791 1.64282 9.94003 1.19229
265 2 0.181499 -4.41803 12.65 2.78945
15 4 1.03216 -5.23303 10.2329 0.061884
271 2 0.18106 1.26707 10.1827 2.25829
268 2 0.219456 -5.38158 9.33285 2.1246
159 2 0.197081 1.32565 9.59596 12.7568
18 4 1.2417 -2.08308 8.14856 12.6815
22 4 1.2356 -0.442098 12.8227 12.0757
32 4 0.931242 -2.25239 10.4012 9.05525
35 4 1.23775 -1.29599 10.6574 14.2595
43 1 -0.647818 -5.41068 10.7894 14.2852
160 2 0.171581 1.05692 10.4561 14.8036
50 1 -0.667485 2.08962 10.2508 12.3133
51 1 -0.629096 0.19239 10.7931 15.4237
162 2 0.208501 0.186965 11.9298 15.603
72 3 -0.832708 -1.38472 7.9667 11.2575
83 3 -0.783166 0.234625 7.22095 9.2772
88 3 -0.759595 2.83741 7.73662 15.7022
92 3 -0.815089 -1.02888 11.4446 9.02653
95 3 -0.804652 3.90289 7.94317 11.9291
96 3 -0.737607 -1.00585 8.9257 13.6044
97 3 -0.83781 -1.0855 11.8025 13.1305
98 3 -0.793439 -2.59504 10.7039 15.1961
116 2 -0.0506596 -3.44217 9.14065 12.6152
120 2 0.075906 -0.80244 12.0629 10.5495
126 2 0.0670351 -1.85156 9.27502 10.2319
127 2 -0.0518783 -3.6304 11.1073 9.63848
128 2 0.0378596 2.64203 9.53221 14.0105
139 2 0.165906 -4.38556 10.9775 13.7803
71 3 -0.839256 -2.52519 6.87584 13.418
158 2 0.24242 1.69955 11.3775 12.4608
157 2 0.16188 2.14978 10.0121 11.0849
140 2 0.169076 -5.86831 11.7257 14.7414
235 2 0.171869 11.7275 1.71523 3.04106
37 4 1.21956 12.9979 1.94399 5.80357
221 1 -0.658803 8.97189 0.685507 2.10646
39 4 1.26678 11.3373 4.09487 7.50213
45 1 -0.677296 7.44506 4.67616 6.89419
54 1 -0.6631 10.7374 5.52035 6.49742
101 3 -0.807009 13.8553 3.02392 4.90852
102 3 -0.848865 13.8622 1.03034 6.82329
250 2 0.186819 11.2101 5.0419 0.239763
4 4 1.46249 14.9138 2.77641 3.74915
106 3 -0.789644 11.8808 2.84791 6.62562
232 3 -0.799138 14.4027 1.49026 2.88858
129 2 -0.0188508 12.0758 0.979323 4.68885
130 2 0.0677509 7.53707 5.81454 3.32696
169 2 0.195635 10.6118 6.37255 7.20404
234 2 0.182956 11.4925 0.408151 1.66396
146 2 0.193115 8.10167 3.82788 6.46044
103 3 -0.793612 5.59911 6.04221 1.37991
145 2 0.161127 7.51259 5.63456 6.38414
170 2 0.176719 9.7324 5.20647 6.13243
171 2 0.20861 11.5148 5.7025 5.64535
231 1 -0.64974 11.7793 0.613671 2.77287
224 2 0.172121 9.09762 1.65822 1.37719
273 2 0.182339 9.4944 0.454056 0.153771
225 2 0.134572 9.24706 0.955905 3.23412
134 2 0.240117 16.4722 0.324572 5.972
144 2 0.202218 7.57667 4.79587 7.98968
11 4 1.48113 13.0586 6.24852 8.86302
36 4 1.33631 8.95026 2.46515 9.23104
52 1 -0.659497 10.4859 1.62959 9.95341
6 4 1.29539 15.9978 2.38586 9.26421
100 3 -0.799775 8.26598 3.12656 10.5058
107 3 -0.821183 12.348 4.67728 8.69547
110 2 -0.00260826 14.6286 2.89556 10.2073
188 3 -0.780023 8.74867 2.04016 14.7384
202 2 0.173183 13.8876 3.92526 11.7253
163 2 0.188259 11.2432 2.46273 10.0676
186 1 -0.670257 8.99773 6.55493 9.64886
165 2 0.243202 10.1215 1.05473 10.9784
172 4 0.956797 15.952 2.55524 14.178
173 1 -0.648913 14.3749 1.51122 13.5336
174 2 0.033883 14.2905 2.73898 14.9096
175 2 0.0575808 15.753 0.894485 13.046
176 2 0.159076 13.8053 2.12876 12.6678
266 2 0.069134 14.6345 5.02462 16.0545
178 4 1.07911 13.6365 5.61287 14.2684
180 4 1.22624 10.0589 1.56008 13.8159
181 4 1.35669 11.6707 4.07306 12.5515
205 2 0.193477 9.20794 5.55578 9.05455
185 1 -0.707831 12.9918 3.35551 11.266
177 2 0.178048 13.7351 0.632127 13.889
189 3 -0.785233 10.8559 2.85508 13.1884
190 3 -0.823805 12.5475 4.64191 13.7086
192 3 -0.804091 10.9059 5.32901 11.7236
263 3 -0.817694 15.7274 0.916512 8.64253
199 2 0.173313 12.1284 1.33677 14.9314
200 2 0.252676 12.7566 3.76463 10.202
201 2 0.144301 12.9853 2.27128 11.3078
182 4 1.0589 10.6481 6.4245 10.6361
184 1 -0.652375 11.1097 0.76034 15.0654
105 3 -0.764693 9.69494 3.44133 8.18905
204 2 0.153018 8.16342 6.4096 10.4561
164 2 0.159946 10.922 0.924133 9.16967
249 1 -0.639226 13.3845 5.92089 15.9388
233 2 0.154044 2.84913 12.7603 3.50164
255 2 0.156618 2.23576 12.2843 5.35707
167 2 0.14912 9.0026 7.52607 3.05773
53 1 -0.627869 7.85209 7.43965 3.28797
104 3 -0.816351 5.03633 7.31523 3.8629
230 4 1.06233 5.28366 12.8561 2.6946
125 2 -0.00303517 4.05936 7.87403 1.11943
2 3 -0.811516 9.17512 11.7936 3.14839
166 2 0.0500662 7.09395 8.38701 2.1461
168 2 0.171493 7.70276 7.78411 4.37122
206 4 1.24765 9.31644 10.356 3.92962
215 2 0.157733 5.14946 9.46527 7.19561
208 4 1.08403 7.47574 10.2412 6.60193
209 1 -0.653466 5.82029 9.16356 6.32308
207 4 1.24044 6.19834 12.998 7.88187
211 3 -0.788449 8.28312 10.3221 5.18451
212 3 -0.78572 6.8223 11.6404 7.27863
213 2 -0.00546956 8.55384 9.22868 2.9062
254 1 -0.678616 1.84619 11.3948 4.84956
216 2 0.17224 6.20852 8.10093 6.34556
217 2 0.190757 5.39436 9.4058 5.31486
256 2 0.155709 1.95312 11.5528 3.7061
252 2 0.157832 10.8684 7.90834 1.15615
267 2 0.177672 12.3178 6.56967 0.153612
238 3 -0.762614 5.4095 11.9321 1.11902
240 2 0.159451 7.89613 10.2899 1.32385
38 4 1.004 6.03227 6.85815 2.67926
219 2 0.185205 9.42527 8.54918 7.44682
258 1 -0.678743 5.63815 11.6556 4.07054
259 2 0.173439 5.73534 10.6014 3.76087
260 2 0.132963 4.62153 11.9122 4.63518
261 2 0.22365 6.53271 11.906 4.76179
270 2 0.171608 1.01257 12.5298 1.79254
237 1 -0.662263 7.63282 10.2424 0.249099
150 2 0.135506 2.68941 10.4587 0.801731
210 1 -0.650402 8.56644 9.18744 7.81079
257 2 0.139113 2.25622 10.378 5.3038
198 2 0.1642 2.76925 12.5293 14.6586
40 4 0.877244 6.23255 11.3793 13.0977
108 3 -0.809738 4.9211 10.5092 12.7779
109 3 -0.812339 6.77805 11.615 14.6025
214 2 -0.0487493 5.0613 12.5393 8.96887
132 2 -0.0427155 7.42594 10.748 12.0425
264 2 0.0613191 9.11314 12.5059 15.8091
203 2 0.167759 8.82653 7.5435 8.97874
269 2 0.142926 10.7358 10.4975 13.4377
193 2 0.0644206 11.3249 9.55542 15.3414
218 2 0.161381 8.87645 9.92408 8.63034
194 2 0.00600323 9.46121 7.61332 11.2364
236 4 1.0738 7.45188 11.9618 15.9539
191 3 -0.805916 11.8874 7.14339 9.84407
241 2 0.167819 9.79854 10.6408 15.5799
131 2 -0.0220228 6.12484 12.8101 12.2279
34 4 1.01603 3.77327 9.44114 12.6376
187 3 -0.811027 1.16374 13.0881 12.4032
274 2 0.130703 7.68934 8.45431 8.12073
239 2 0.131134 7.97358 9.74306 16.0624
ITEM: TIMESTEP
200
ITEM: NUMBER OF ATOMS
274
ITEM: BOX BOUNDS xy xz yz pp pp pp
-8.3774057714285703e+00 1.8008753171428573e+01 -8.3774057714285703e+00
0.0000000000000000e+00 1.3273200000000001e+01 1.1946585714285716e+00
0.0000000000000000e+00 1.6075500000000002e+01 4.3120000000000003e-01
ITEM: ATOMS id type q x y z
119 2 -0.00535667 7.38682 1.26469 5.36461
12 4 1.26713 -0.97046 6.38739 5.2642
7 4 1.10293 0.885487 2.14967 5.07046
9 4 1.231 -0.59632 4.60157 1.90008
10 4 1.58679 0.288746 4.42823 7.17116
242 1 -0.677889 3.30416 0.49887 2.98248
21 4 0.805269 5.72647 1.41438 5.66836
26 4 1.28638 5.48433 4.43597 6.72342
41 1 -0.679252 0.878695 0.552701 6.05278
44 1 -0.681595 3.99142 3.74502 1.71676
55 3 -0.784115 1.04538 0.846479 1.13476
56 3 -0.84515 -0.400949 2.43448 4.30769
58 3 -0.781667 -1.96483 4.44578 2.76145
59 3 -0.838741 -0.0826057 3.22114 1.21443
243 2 0.166005 3.47637 1.63164 2.78468
61 3 -0.741137 1.30976 3.45647 6.05614
62 3 -0.882205 -0.638952 5.3569 6.38631
74 3 -0.793492 5.58361 0.27293 7.28548
78 3 -0.866817 0.465595 5.44009 2.76495
81 3 -0.806978 5.49986 2.91925 5.91231
84 3 -0.767479 3.04112 5.60377 4.03391
85 3 -0.816541 4.93569 5.62948 5.93453
113 2 0.110735 -1.6659 5.42919 3.97411
111 2 0.0180842 2.11086 1.84603 3.85722
112 2 -0.022277 -0.866047 5.7248 0.696601
5 4 1.34554 0.334052 2.00002 0.297439
118 2 -0.0172736 4.59224 0.813892 4.43998
24 4 1.28439 4.85645 4.76863 0.421412
222 3 -0.78239 6.5572 1.47136 1.12386
223 2 -0.0963981 6.3749 0.9814 3.91897
141 2 0.172967 4.7549 2.98084 2.06379
142 2 0.164897 3.12085 3.28363 1.05532
143 2 0.257806 3.62863 4.37937 2.52263
220 4 1.00661 7.10218 0.438082 2.32079
25 4 1.40449 1.50016 6.38431 3.55058
135 2 0.223498 0.592514 0.833611 7.14577
82 3 -0.805036 1.43732 5.33886 7.9228
244 2 0.127744 2.94486 0.1299 4.00015
138 2 0.158694 1.33591 0.829145 12.4084
8 4 1.28949 1.84273 2.62158 10.8384
13 4 1.25346 0.53116 4.91373 12.384
121 2 -0.00369563 6.54777 3.67811 12.6173
20 4 1.28031 4.6006 2.68079 9.23362
23 4 1.28874 6.83547 2.66402 11.2937
99 3 -0.779868 8.11055 1.20755 8.48768
226 4 0.871554 3.42005 6.28113 15.0428
42 1 -0.688616 2.22776 1.45557 12.2952
57 3 -0.842279 0.363779 2.38089 10.2441
63 3 -0.868205 -0.116479 3.93805 13.3959
64 3 -0.802881 1.91547 4.30468 11.7523
65 3 -0.870603 -2.38782 6.08123 9.74184
66 3 -0.888167 -0.468359 5.49435 11.2892
73 3 -0.791665 3.04441 2.49397 9.76202
75 3 -0.859246 5.50107 2.74432 10.4378
76 3 -0.890886 7.14197 1.25199 11.8542
80 3 -0.746476 4.95198 4.03578 8.40137
262 3 -0.798921 0.314511 1.92043 15.2795
137 2 0.161855 3.15725 0.910075 11.9224
114 2 -0.0465687 1.03986 6.38332 13.1682
14 4 1.57547 -0.995306 6.54783 10.3304
124 2 0.0687425 3.34176 5.19437 11.8782
136 2 0.181586 2.45201 1.97664 13.2981
179 4 1.3242 7.45728 2.4329 15.6936
183 1 -0.667772 5.97787 1.3128 15.1976
77 3 -0.750507 7.04013 4.06638 15.6201
60 3 -0.839284 -0.682823 3.55826 8.20047
196 2 0.161464 5.17529 1.90482 15.7216
117 2 0.10046 5.03128 1.35597 8.26022
227 3 -0.825778 4.76778 5.68321 15.7198
195 2 0.184848 5.81616 1.28988 14.0729
245 1 -0.686279 2.73066 3.09897 14.9999
246 2 0.173453 2.13281 3.53339 14.0672
247 2 0.162322 3.27103 2.15726 14.7831
123 2 -0.0172428 5.27998 6.1103 10.5022
228 2 -0.0296547 2.33022 5.05141 15.138
29 4 0.955662 3.79876 6.66163 11.0859
248 2 0.160688 3.4088 3.83817 15.5567
229 2 -0.0381234 3.57612 6.44128 13.3435
86 3 -0.805356 2.72708 6.67767 9.95001
251 1 -0.649514 -5.09021 8.71961 1.05018
3 3 -0.804532 -5.88078 11.3654 1.01243
253 2 0.175566 -4.04967 8.3144 0.869221
16 4 1.48907 -3.06986 8.11048 6.55175
17 4 1.22445 -4.52557 10.0237 4.78796
154 2 0.16389 0.976618 9.65018 7.36561
161 2 0.17462 -0.932612 10.0434 0.251307
31 4 1.30179 -1.90238 10.4243 2.95312
33 4 1.16615 0.0726944 11.0366 5.4902
48 1 -0.647729 -1.21524 8.95549 1.94906
49 1 -0.663582 0.172486 9.4953 6.58284
149 2 0.142639 2.18736 9.01979 7.64802
68 3 -0.861117 -1.88835 7.62833 5.57462
69 3 -0.801707 -6.04936 10.1222 4.3212
70 3 -0.792109 -4.31818 8.69252 5.58595
79 3 -0.809968 0.635137 7.18508 4.79529
87 3 -0.809542 2.08136 7.46662 2.38276
30 4 1.04111 2.37274 8.00803 0.982392
89 3 -0.796493 -1.6752 11.7674 2.08429
90 3 -0.808624 -3.42235 10.1886 3.49922
93 3 -0.788153 -0.73933 10.6094 4.15955
94 3 -0.838797 -0.309152 12.2707 6.33687
115 2 -0.023473 -4.33943 11.3196 5.79043
147 2 0.216843 1.75566 7.6559 6.50059
151 2 0.190857 -0.0824903 9.24438 1.59148
152 2 0.160257 -1.90361 8.81562 1.01861
153 2 0.188479 -1.26862 8.10905 2.72865
122 2 0.00132015 3.30325 7.69571 5.69038
155 2 0.281051 0.348375 8.60313 5.87566
156 2 0.27108 -0.959626 9.4077 7.04238
46 1 -0.669828 2.33082 7.89311 7.43194
148 2 0.169557 3.42497 7.57244 7.41624
272 2 0.187798 0.832174 10.1334 0.383922
19 4 1.29618 -1.15753 12.7637 7.74587
1 4 1.26379 -6.61263 12.4419 2.02924
133 2 0.158265 -6.54215 12.7725 5.99718
91 3 -0.82381 -2.54136 9.61088 7.63599
67 3 -0.859319 -3.53303 7.0857 7.56363
47 1 -0.666961 1.73313 9.82848 1.02722
265 2 0.194861 -4.3079 12.6366 2.4373
15 4 1.07791 -5.21666 10.2736 0.0222173
271 2 0.177709 1.62809 9.9212 2.16266
268 2 0.221354 -5.26485 8.9514 2.19455
28 4 1.17263 4.15816 6.55158 4.80976
159 2 0.189762 1.24733 9.43095 12.4454
18 4 1.22244 -2.14204 8.221 12.788
22 4 1.27155 -0.448505 12.768 12.044
32 4 0.961783 -2.2543 10.43 8.95272
35 4 1.25439 -1.10274 10.6445 14.2843
43 1 -0.654697 -5.67487 10.7146 14.1359
160 2 0.174247 1.29474 10.8016 14.6145
50 1 -0.674982 2.09452 10.1904 12.2565
51 1 -0.651288 0.419619 11.1129 15.2674
162 2 0.218328 0.364153 12.2222 15.4865
72 3 -0.802929 -1.50869 8.1383 11.3338
83 3 -0.827664 -0.0330602 7.1294 9.26737
88 3 -0.800437 2.92291 7.69593 15.6818
92 3 -0.833002 -1.14451 11.5168 9.06594
95 3 -0.838027 3.93647 7.96267 11.9833
96 3 -0.795546 -1.14179 9.1421 13.7826
97 3 -0.825513 -0.994429 11.6221 13.0261
98 3 -0.769327 -2.65868 10.943 15.4048
116 2 -0.0340941 -3.50458 9.00441 12.318
120 2 0.10196 -0.388231 12.1469 10.4127
126 2 0.0869387 -2.03763 9.26013 10.2079
127 2 -0.0412552 -3.739 10.9861 9.43925
128 2 0.0436488 2.43946 9.39526 13.9495
139 2 0.141155 -4.76286 10.7887 13.4813
71 3 -0.854607 -2.65571 6.97572 13.5527
158 2 0.252853 1.73232 11.3129 12.4588
157 2 0.145481 2.42397 10.1034 11.0878
140 2 0.160673 -5.8256 11.7313 14.6133
197 2 0.242103 -2.36886 13.0901 15.6085
27 4 1.35694 1.58112 6.67133 8.756
187 3 -0.813158 1.0692 12.9297 12.5155
235 2 0.170325 11.3212 1.54732 3.02659
37 4 1.26925 12.9545 2.06505 5.85566
221 1 -0.649893 8.96419 0.563299 2.03818
39 4 1.34396 11.1952 4.02506 7.64746
45 1 -0.662347 7.28726 5.03476 6.89225
54 1 -0.644948 10.8239 5.46384 6.41018
101 3 -0.81648 13.9419 3.07191 5.02728
102 3 -0.86688 13.7114 1.06321 6.76627
250 2 0.186845 11.3841 4.90187 0.481025
4 4 1.44826 14.905 2.73474 3.78271
106 3 -0.81148 11.816 2.8896 6.67171
232 3 -0.813577 14.292 1.47873 2.955
129 2 -0.00697693 12.0968 1.18148 4.65456
130 2 0.0737617 7.78868 5.76505 3.29635
169 2 0.20639 10.7985 6.46511 6.96262
234 2 0.157844 11.445 0.131429 1.72337
146 2 0.179623 8.03823 4.24608 6.53148
103 3 -0.777226 5.75105 5.93829 1.24063
145 2 0.18203 7.32161 5.95284 6.29634
170 2 0.165083 9.90431 5.11075 5.86479
171 2 0.203189 11.7378 5.4248 5.70105
231 1 -0.648999 11.6248 0.503228 2.8505
224 2 0.177816 9.19763 1.40181 1.378
273 2 0.17865 9.51753 0.54611 0.111295
225 2 0.131829 9.14811 0.793024 3.15869
230 4 1.13049 13.5856 0.0905102 2.66286
207 4 1.24494 14.5746 0.209033 7.74782
144 2 0.202673 7.34167 5.12384 8.01221
11 4 1.50872 13.1171 6.24719 8.95449
36 4 1.26473 9.13793 2.40539 9.30247
52 1 -0.671404 10.4972 1.46904 10.1544
6 4 1.34126 15.9603 2.449 9.25553
100 3 -0.759777 8.11625 3.21255 10.4782
107 3 -0.819552 12.3364 4.58454 8.60717
110 2 0.0189082 14.6177 2.84453 10.2275
188 3 -0.801844 8.65026 2.01355 14.7432
202 2 0.175805 13.87 3.77117 11.7965
163 2 0.175892 11.4823 2.19973 10.5017
249 1 -0.6198 13.407 5.93398 16.0527
165 2 0.239598 10.1079 0.835006 11.0736
172 4 0.996756 16.1937 2.50845 14.0841