ITEM: TIMESTEP
0
ITEM: NUMBER OF ATOMS
274
ITEM: BOX BOUNDS xy xz yz pp pp pp
-8.3797999999999995e+00 1.8013900000000000e+01 -8.3797999999999995e+00
0.0000000000000000e+00 1.3273200000000001e+01 1.1950000000000001e+00
0.0000000000000000e+00 1.6075500000000002e+01 4.3120000000000003e-01
ITEM: ATOMS id type q x y z
119 2 -0.017029 7.45936 1.4425 5.26906
12 4 1.30703 -0.823901 6.37281 5.40194
7 4 1.11419 0.87114 2.14089 5.12893
9 4 1.25473 -0.611388 4.66178 1.7635
10 4 1.61247 0.259573 4.29395 7.41616
242 1 -0.686653 3.28007 0.428832 3.17692
21 4 0.789988 5.79929 1.40385 5.63299
26 4 1.25943 5.36609 4.45866 6.77474
41 1 -0.666683 0.696455 0.514262 6.09217
44 1 -0.689365 3.75411 3.77234 1.74507
55 3 -0.755616 1.11169 0.980967 1.06674
56 3 -0.824943 -0.489595 2.42903 4.38355
58 3 -0.810113 -1.8403 4.39055 2.8196
59 3 -0.854896 -0.112574 3.49903 0.904113
243 2 0.151327 3.38032 1.55911 3.20471
61 3 -0.756466 1.15378 3.3135 6.16529
62 3 -0.866443 -0.492576 5.41097 6.59611
74 3 -0.787118 5.67686 0.418391 7.36475
78 3 -0.86161 0.635447 5.36893 2.49257
81 3 -0.783264 5.44039 2.92156 5.8484
84 3 -0.789721 2.81698 5.64662 4.1961
85 3 -0.816999 4.74232 5.68621 5.985
113 2 0.0898737 -1.49164 5.3789 4.12081
111 2 0.00136532 2.27397 1.81409 4.05903
112 2 -0.027043 -1.3528 5.74033 0.65964
5 4 1.29962 0.20743 2.13501 0.0885205
118 2 -0.0276093 4.65484 0.775407 4.56549
24 4 1.26432 4.75689 4.86827 0.578926
222 3 -0.777536 6.39896 1.40383 1.05023
223 2 -0.0984656 6.41616 0.881428 3.88456
141 2 0.182123 4.4513 2.83077 1.71011
142 2 0.201776 2.69956 3.62763 1.44673
143 2 0.225707 3.76062 4.33163 2.74036
220 4 0.989 6.98519 0.399653 2.21935
25 4 1.40346 1.4386 6.41506 3.38794
135 2 0.221886 0.781658 0.721513 7.19116
28 4 1.25432 3.95024 6.52268 4.88442
138 2 0.157795 1.59448 0.695363 11.9697
8 4 1.27665 1.97502 2.77831 10.9374
13 4 1.2651 0.384514 4.92849 12.4367
197 2 0.19342 5.12544 1.49373 15.8702
20 4 1.23149 4.73066 2.95392 9.34118
23 4 1.27222 7.00022 2.82031 11.4374
99 3 -0.844255 8.04582 1.33435 8.37206
226 4 0.898045 3.45982 6.40123 15.0464
42 1 -0.672189 2.45083 1.44369 12.1685
57 3 -0.831912 0.571864 2.32838 10.319
63 3 -0.858604 -0.443701 3.87919 13.2785
64 3 -0.825284 1.88383 4.34313 12.2609
65 3 -0.849494 -2.16634 6.18015 9.36293
66 3 -0.88933 -0.328363 5.45845 11.1571
73 3 -0.788335 3.20905 2.83518 9.95399
75 3 -0.844999 5.68069 3.01825 10.6467
76 3 -0.872199 7.06794 1.35322 12.0186
80 3 -0.764393 4.88613 4.29886 8.42519
82 3 -0.79018 1.4304 5.02919 8.23846
137 2 0.171457 3.49669 1.07555 11.8162
114 2 -0.0208846 0.530669 6.35558 13.22
27 4 1.3683 1.62885 6.58972 8.82706
124 2 0.0602139 3.35395 5.24257 11.9727
136 2 0.178358 2.4539 1.91167 13.2106
179 4 1.2821 7.41158 2.56288 15.6638
183 1 -0.65387 5.9276 1.55235 15.0453
77 3 -0.769876 6.88307 4.1167 15.8338
60 3 -0.843025 -0.695383 3.50241 8.38998
196 2 0.178706 5.58022 2.06806 14.1298
117 2 0.0842239 5.09721 1.57714 8.38777
227 3 -0.805596 4.85828 5.97193 15.6661
195 2 0.214047 6.50726 0.579688 14.8227
245 1 -0.682153 2.67765 3.23361 14.8411
246 2 0.231863 2.39211 3.70852 13.8391
247 2 0.156314 3.21712 2.20551 14.7339
262 3 -0.812391 0.120873 2.05308 15.2542
228 2 -0.0134109 2.19914 5.21943 15.1438
29 4 0.968189 3.86743 6.64213 11.1204
248 2 0.162877 3.32079 3.83975 15.5655
229 2 -0.0413696 3.52416 6.54074 13.2926
14 4 1.52269 -0.963837 6.59796 10.2326
121 2 -0.0109651 6.8673 3.91216 12.7563
251 1 -0.667174 -5.1976 8.80977 1.27474
3 3 -0.796416 -5.75458 11.5315 1.08778
253 2 0.200399 -4.17177 8.52183 1.14212
16 4 1.52188 -3.04634 8.02258 6.59248
17 4 1.24716 -4.52718 10.0338 4.70259
154 2 0.178865 1.0353 9.52309 7.38032
161 2 0.203422 -1.13347 9.87123 0.521639
31 4 1.27373 -1.95213 10.4524 3.13247
33 4 1.11967 0.0651343 11.0627 5.61933
48 1 -0.646009 -0.946454 8.95811 2.41495
49 1 -0.668078 0.225474 9.45764 6.62933
149 2 0.153008 2.09991 8.77682 7.78523
68 3 -0.880356 -1.89013 7.43866 5.73522
69 3 -0.862975 -6.0479 10.2552 4.18133
70 3 -0.823087 -4.14331 8.86783 5.6523
79 3 -0.843537 0.556753 7.17479 4.83395
87 3 -0.841128 1.83746 7.61542 2.44098
30 4 1.05908 2.22564 8.1403 1.00009
89 3 -0.768879 -1.7338 11.6457 1.96904
90 3 -0.814961 -3.47997 10.0596 3.42536
93 3 -0.824258 -0.996107 10.8218 4.46793
94 3 -0.80794 -0.134874 12.3545 6.69172
115 2 -0.0311849 -4.16755 11.4746 5.51755
147 2 0.233875 1.58479 7.48038 6.34777
151 2 0.194604 0.0394201 9.34884 1.82112
152 2 0.150841 -1.75466 8.49722 1.71353
153 2 0.216915 -0.77291 8.31637 3.34252
122 2 0.00599322 3.08457 7.9375 5.59943
155 2 0.267057 0.430321 8.57083 5.91972
156 2 0.286967 -0.884478 9.38332 7.12423
46 1 -0.671092 2.24236 7.68929 7.29934
148 2 0.176291 3.30048 7.37189 7.26776
272 2 0.184111 0.667629 10.1878 0.460797
19 4 1.36829 -1.10085 12.8832 7.8433
1 4 1.30811 -6.52005 12.587 2.00435
133 2 0.16453 -6.84732 12.7181 5.69535
91 3 -0.81319 -2.42616 9.39972 7.76407
67 3 -0.870216 -3.78439 6.9185 7.4201
47 1 -0.678051 1.70793 10.0098 0.924475
265 2 0.189972 -4.2492 12.8029 2.55252
15 4 1.0684 -5.36221 10.2384 0.116865
267 2 0.172533 -4.16338 6.59041 0.278825
268 2 0.236982 -5.37692 9.21932 2.33334
244 2 0.134019 -5.14375 12.7564 4.21031
257 2 0.134867 2.04055 10.338 4.85434
159 2 0.194111 1.33481 9.6197 12.5
18 4 1.15282 -2.01319 8.2784 12.8067
22 4 1.27455 -0.570271 12.8372 12.1521
32 4 0.943667 -2.25864 10.4051 9.01776
35 4 1.19837 -1.29388 10.635 14.3288
187 3 -0.803184 0.960002 13.0927 12.4817
160 2 0.171707 0.952767 10.5003 14.8492
50 1 -0.654966 2.12457 10.432 12.2515
51 1 -0.631028 0.0859083 10.8445 15.5611
162 2 0.211819 0.073459 11.9764 15.6851
72 3 -0.792016 -1.58246 8.07868 11.212
83 3 -0.797841 0.277181 7.31699 9.29006
88 3 -0.814594 2.9861 7.79362 15.7212
92 3 -0.82156 -1.15903 11.5145 9.14162
95 3 -0.829645 3.82709 8.05982 11.85
96 3 -0.764798 -0.869381 9.05891 13.6821
97 3 -0.849983 -1.10111 11.7622 13.1841
98 3 -0.764275 -2.81783 10.6372 15.3806
116 2 -0.0498124 -3.44947 9.19453 12.7097
120 2 0.0901112 -0.686723 12.0705 10.6053
126 2 0.0719183 -2.14146 9.45912 10.4029
127 2 -0.0476588 -3.70718 11.1516 9.44528
128 2 0.0401085 2.50329 9.37762 13.8373
139 2 0.157373 -4.63033 10.6379 13.6159
71 3 -0.834816 -2.38359 6.86342 13.5924
158 2 0.257367 1.80269 11.5143 12.4382
157 2 0.13878 2.49735 10.2731 10.9918
140 2 0.155778 -5.67824 11.819 14.5741
43 1 -0.642749 -5.60619 10.7506 14.1224
86 3 -0.788518 2.86504 6.68913 9.9642
235 2 0.162182 11.8948 1.7364 3.1341
37 4 1.27349 13.0665 1.94079 5.85606
221 1 -0.651052 8.82816 0.516241 2.03583
39 4 1.35372 11.1975 4.02109 7.47153
45 1 -0.651946 7.22367 4.82826 7.0291
54 1 -0.661186 10.7214 5.44143 6.282
101 3 -0.825178 14.0008 2.79247 4.869
102 3 -0.850538 13.8319 1.02976 6.85158
250 2 0.164092 11.1769 5.24537 0.0400343
4 4 1.49389 14.9632 2.70212 3.65385
106 3 -0.796851 11.9485 2.95255 6.53887
232 3 -0.783956 14.5779 1.43248 2.68938
129 2 -0.00682676 12.1822 0.935713 4.72437
130 2 0.0578869 7.51056 5.86161 3.54768
169 2 0.230918 11.0264 6.32138 6.84658
234 2 0.159011 11.5885 0.516417 1.65171
146 2 0.184502 7.99621 4.07181 6.51846
103 3 -0.795487 5.66227 6.07669 1.43978
145 2 0.158062 7.3041 5.83542 6.54468
170 2 0.166503 9.61743 5.32613 6.08338
171 2 0.187605 11.3016 5.34875 5.27349
231 1 -0.662827 11.846 0.627085 2.8118
224 2 0.171302 9.31219 1.30271 1.41941
273 2 0.17928 9.35197 0.326521 0.119759
225 2 0.126781 9.04305 0.681834 3.21314
11 4 1.50718 13.0898 6.215 8.81133
36 4 1.31242 8.94374 2.41903 9.15128
52 1 -0.673536 10.2876 1.28339 9.88013
6 4 1.30039 15.9994 2.39669 9.48954
100 3 -0.818045 8.23539 3.16567 10.4515
107 3 -0.804817 12.2603 4.50258 8.54249
110 2 -8.52844e-05 14.7131 2.83312 10.4932
188 3 -0.802669 8.73048 2.2078 14.6612
202 2 0.161832 13.8944 3.67073 11.8484
163 2 0.1681 11.2857 1.91582 9.91322
186 1 -0.69626 9.04597 6.4215 9.71518
165 2 0.249846 9.99569 0.938066 10.9201
172 4 0.990153 16.0156 2.42995 13.9738
173 1 -0.660971 14.2269 1.58033 13.5029
174 2 0.109593 14.2034 2.40147 14.5802
175 2 0.00434881 15.7858 1.09702 12.7172
176 2 0.164922 13.7839 2.25115 12.6198
266 2 0.0633081 14.6805 4.87498 16.0048
178 4 1.0828 13.8702 5.66821 14.3317
180 4 1.24759 9.93593 1.575 13.8139
181 4 1.30876 11.7072 3.94828 12.498
205 2 0.215705 9.18646 5.428 9.14351
185 1 -0.664086 12.8918 3.30167 11.1517
177 2 0.174811 13.7302 0.569768 13.7299
189 3 -0.803208 10.9359 2.62186 12.9685
190 3 -0.7948 12.8007 4.63737 13.5392
192 3 -0.792091 10.8882 5.16882 11.6354
263 3 -0.834587 15.5816 1.00271 8.82369
199 2 0.16977 12.0171 1.09169 14.9198
200 2 0.266671 12.6249 3.87288 10.0791
201 2 0.15151 12.5562 2.17984 11.2333
182 4 1.0692 10.7032 6.33536 10.6115
184 1 -0.656566 10.9609 0.628851 15.0409
105 3 -0.8008 9.71963 3.53449 8.0988
204 2 0.163234 8.19709 6.35499 10.4006
144 2 0.203999 7.32541 4.81905 8.17091
249 1 -0.626912 13.5123 5.99651 16.0005
164 2 0.175732 10.3283 0.371743 9.22139
123 2 -0.0270223 5.41402 6.25421 10.6446
271 2 0.160046 1.85401 10.3722 1.96151
255 2 0.159221 2.07141 12.2424 5.38282
167 2 0.168147 8.88891 7.17381 2.42375
53 1 -0.65656 8.04411 7.33086 3.06377
104 3 -0.833462 4.97009 7.10744 3.77444
230 4 1.11066 5.28853 12.8682 2.49868
125 2 -0.00131976 3.93235 8.29264 1.07684
2 3 -0.803409 9.18233 11.8499 2.95222
166 2 0.0381593 7.07859 8.50399 2.4211
168 2 0.160728 8.40418 7.74517 4.00886
206 4 1.2432 9.31845 10.4821 3.83553
215 2 0.152411 5.17512 9.03877 6.8264
208 4 1.01858 7.46405 10.0601 6.52502
209 1 -0.6621 5.96096 8.96938 6.01527
207 4 1.23191 6.19875 12.9911 7.931
211 3 -0.781312 8.35995 10.3779 5.13207
212 3 -0.750929 6.79226 11.6097 7.32608
213 2 -0.000741235 9.03834 9.07202 2.95443
254 1 -0.675391 1.67278 11.4404 4.66195
216 2 0.169521 6.47218 7.94385 5.99282
217 2 0.177812 5.58851 9.34424 5.03454
256 2 0.171674 1.61443 11.6069 3.58548
252 2 0.134415 10.9518 7.91652 0.915436
239 2 0.110563 7.13962 9.36895 0.505954
238 3 -0.799705 5.56848 12.049 1.10805
240 2 0.202095 8.04166 10.8474 1.45788
38 4 1.03497 6.10794 6.81566 2.73458
219 2 0.179027 9.29556 8.41394 7.11287
258 1 -0.676881 5.78721 11.6954 3.95782
259 2 0.168667 6.22336 10.7814 3.54215
260 2 0.145088 4.82837 11.404 4.41546
261 2 0.216357 6.46766 12.2447 4.67622
270 2 0.167842 0.866678 12.2972 1.68963
237 1 -0.665645 7.76345 10.4411 0.404345
150 2 0.151586 2.59892 10.4441 0.327325
210 1 -0.665808 8.44741 8.89456 7.6951
134 2 0.240492 8.14025 12.9533 5.76428
233 2 0.161178 2.80634 12.7627 3.50053
198 2 0.172331 2.60608 12.392 14.692
40 4 0.897583 6.22388 11.3721 12.9675
108 3 -0.807294 4.9871 10.4075 12.8056
109 3 -0.812831 6.71504 11.5155 14.4411
214 2 -0.0371288 4.99822 12.5206 9.00468
132 2 -0.0531897 7.42569 11.0086 11.8418
264 2 0.0833141 8.79867 12.5793 15.5199
203 2 0.171989 8.84861 7.25641 8.94246
269 2 0.141207 10.3188 10.5617 13.4113
193 2 0.0576347 11.1226 9.6414 15.2175
218 2 0.158778 8.84143 9.52557 8.53755
194 2 -0.00178519 9.63773 7.59288 11.1629
236 4 1.02947 7.32851 11.714 15.94
191 3 -0.838309 12.041 6.87423 9.81479
241 2 0.163111 9.83944 10.8162 15.6096
131 2 -0.0227636 5.90383 12.9146 12.2142
34 4 1.03533 3.76315 9.42839 12.5757
274 2 0.14422 7.64891 8.19663 8.09305
ITEM: TIMESTEP
100
ITEM: NUMBER OF ATOMS
274
ITEM: BOX BOUNDS xy xz yz pp pp pp
-8.3775034999999995e+00 1.8013900000000000e+01 -8.3775034999999995e+00
0.0000000000000000e+00 1.3273200000000001e+01 1.1950000000000001e+00
0.0000000000000000e+00 1.6075500000000002e+01 4.3120000000000003e-01
ITEM: ATOMS id type q x y z
119 2 -0.00894215 7.48377 1.48992 5.27215
12 4 1.28806 -0.888088 6.49886 5.3089
7 4 1.11396 0.890406 2.18013 5.1271
9 4 1.25613 -0.657879 4.63126 1.75435
10 4 1.60478 0.281757 4.3689 7.23636
242 1 -0.670965 3.17024 0.576277 3.12298
21 4 0.821798 5.83332 1.44265 5.5375
26 4 1.25827 5.53471 4.39099 6.81094
41 1 -0.645723 0.763063 0.623274 6.17621
44 1 -0.676264 3.81806 3.85204 1.72221
55 3 -0.828724 1.00158 0.916546 1.12266
56 3 -0.828328 -0.416859 2.35807 4.31045
58 3 -0.802613 -1.85282 4.42556 2.80949
59 3 -0.837811 -0.146777 3.41497 0.942312
243 2 0.174619 2.97151 1.51325 2.4475
61 3 -0.783941 1.07854 3.35845 6.26928
62 3 -0.85962 -0.656209 5.43557 6.41461
74 3 -0.786538 5.75159 0.478201 7.3069
78 3 -0.842221 0.521183 5.30048 2.60103
81 3 -0.779639 5.47025 2.91242 5.81055
84 3 -0.78218 2.94604 5.55483 3.96869
85 3 -0.761302 4.77548 5.68376 6.0495
113 2 0.100471 -1.58704 5.53519 4.02302
111 2 0.0146191 2.30866 2.0474 4.12095
112 2 -0.0260339 -1.17145 5.81676 0.667963
5 4 1.34129 0.294803 1.98518 0.179762
118 2 0.0025164 4.58423 0.823847 4.40828
24 4 1.24477 4.79293 4.8197 0.406935
222 3 -0.769463 6.49343 1.54148 1.18452
223 2 -0.0903716 6.53041 0.880885 3.93601
141 2 0.185804 4.56884 2.97136 1.96249
142 2 0.168163 2.88627 3.44797 1.23868
143 2 0.271067 3.59282 4.57685 2.60643
220 4 0.99287 7.13457 0.410039 2.23043
25 4 1.35061 1.44356 6.3974 3.39442
135 2 0.237026 0.974697 0.86062 7.30093
28 4 1.17286 3.96027 6.53219 4.84713
244 2 0.135023 2.50676 0.287301 4.03626
138 2 0.172132 1.27921 0.865206 12.0722
8 4 1.2748 1.91942 2.72338 10.7793
13 4 1.31189 0.461252 4.85444 12.3786
121 2 0.00478196 6.87576 3.68778 12.7397
20 4 1.23844 4.68068 2.86812 9.28268
23 4 1.22918 6.86133 2.63848 11.4344
99 3 -0.826601 7.98947 1.31385 8.55297
226 4 0.888678 3.40253 6.37363 15.0533
42 1 -0.656029 2.18247 1.50479 12.2076
57 3 -0.822904 0.461131 2.31461 10.2277
63 3 -0.8636 -0.28793 3.84869 13.2743
64 3 -0.811162 1.93635 4.33421 11.9955
65 3 -0.871654 -2.34622 6.11707 9.6214
66 3 -0.883184 -0.309233 5.60466 11.2871
73 3 -0.793598 3.11699 2.55942 9.70896
75 3 -0.869145 5.59713 2.93782 10.5615
76 3 -0.887175 7.00402 1.19672 12.0425
80 3 -0.777598 4.92803 4.20695 8.28522
82 3 -0.778082 1.55958 5.16228 8.12372
137 2 0.156107 3.11955 0.927589 11.8389
114 2 -0.0182072 0.752634 5.98794 13.5928
27 4 1.38544 1.74385 6.60565 8.77791
124 2 0.0592354 3.41076 5.18232 12.0154
136 2 0.185194 2.41957 2.00255 13.2909
179 4 1.25919 7.45499 2.4023 15.6755
183 1 -0.688241 6.02869 1.29817 15.0724
77 3 -0.73791 6.9171 4.0983 15.684
60 3 -0.844849 -0.622989 3.49395 8.18966
196 2 0.175336 5.25711 2.05779 14.9453
117 2 0.108268 5.14942 1.53394 8.32687
227 3 -0.810959 4.84833 5.91068 15.4764
195 2 0.251132 6.44425 0.901699 14.131
245 1 -0.682006 2.85192 3.03419 14.973
246 2 0.190665 2.64689 3.53947 14.0465
247 2 0.162419 3.34668 2.02675 14.8425
86 3 -0.81019 2.78869 6.58044 9.94283
228 2 -0.0177008 2.27073 5.04427 15.1127
29 4 0.963346 3.80237 6.53066 11.1157
248 2 0.150418 3.42035 3.71595 15.7468
229 2 -0.0171457 3.49024 6.55249 13.3367
14 4 1.56062 -1.00234 6.62301 10.2957
123 2 -0.0213499 5.31534 6.09122 10.6036
262 3 -0.81266 0.254051 1.95934 15.3437
197 2 0.217436 5.82282 0.436058 15.843
251 1 -0.681918 -5.18631 8.7019 1.21314
3 3 -0.790803 -5.91961 11.426 0.953395
253 2 0.18786 -4.12031 8.43849 1.07384
16 4 1.43633 -3.08884 8.11174 6.5641
17 4 1.22893 -4.50284 10.0583 4.71773
154 2 0.167327 1.02118 9.56262 7.47164
161 2 0.191647 -1.11278 9.79292 0.43056
31 4 1.25766 -1.89936 10.3461 3.06315
33 4 1.12142 0.0942442 11.0213 5.56468
48 1 -0.670538 -1.15149 8.78935 2.25232
49 1 -0.644995 0.17044 9.45241 6.66982
149 2 0.16074 2.23893 8.92741 7.61923
68 3 -0.852044 -1.79209 7.73366 5.6221
69 3 -0.851928 -6.06774 10.1331 4.28875
70 3 -0.795656 -4.24444 8.75633 5.56334
79 3 -0.836293 0.68847 7.02467 4.84952
87 3 -0.7965 1.79827 7.7292 2.39719
30 4 0.959441 2.42401 8.22678 1.0579
89 3 -0.758912 -1.67215 11.7462 1.88837
90 3 -0.812997 -3.42356 10.175 3.41872
93 3 -0.803764 -1.01406 10.7228 4.40167
94 3 -0.810848 -0.387258 12.3035 6.48455
115 2 -0.0183268 -4.27828 11.3574 5.79692
147 2 0.215495 1.74292 7.48562 6.46416
151 2 0.196971 -0.146172 9.18948 1.75323
152 2 0.161834 -1.81258 8.28017 1.471
153 2 0.196688 -0.947932 8.11292 3.12557
122 2 0.0116347 3.124 7.82114 5.51796
155 2 0.259422 0.342004 8.482 6.05584
156 2 0.268095 -0.919823 9.48597 7.17245
46 1 -0.677799 2.36839 7.86044 7.35007
148 2 0.168189 3.52 7.50108 7.31222
272 2 0.176938 0.762801 10.1284 0.447922
19 4 1.36433 -1.14806 12.8233 7.81861
1 4 1.25783 -6.74426 12.5293 2.00864
133 2 0.159366 -6.8355 12.7922 5.67323
91 3 -0.816379 -2.62753 9.57121 7.81601
67 3 -0.846495 -3.63094 6.84634 7.37096
47 1 -0.637911 1.64282 9.94003 1.19229
265 2 0.181499 -4.41805 12.65 2.78948
15 4 1.03216 -5.23302 10.2329 0.0618812
271 2 0.18106 1.26707 10.1827 2.25829
268 2 0.219455 -5.38161 9.33283 2.1246
159 2 0.197081 1.32565 9.59596 12.7568
18 4 1.2417 -2.08308 8.14856 12.6815
22 4 1.2356 -0.442097 12.8227 12.0757
32 4 0.931242 -2.25239 10.4012 9.05525
35 4 1.23775 -1.29599 10.6574 14.2595
43 1 -0.647818 -5.41068 10.7894 14.2852
160 2 0.171581 1.05692 10.4561 14.8036
50 1 -0.667484 2.08962 10.2508 12.3133
51 1 -0.629096 0.192389 10.7931 15.4237
162 2 0.208501 0.186965 11.9298 15.603
72 3 -0.832708 -1.38472 7.9667 11.2575
83 3 -0.783165 0.234624 7.22095 9.2772
88 3 -0.759595 2.8374 7.73662 15.7022
92 3 -0.815089 -1.02888 11.4446 9.02654
95 3 -0.804652 3.90289 7.94317 11.9291
96 3 -0.737607 -1.00585 8.9257 13.6044
97 3 -0.837811 -1.0855 11.8025 13.1305
98 3 -0.79344 -2.59504 10.7039 15.1961
116 2 -0.0506591 -3.44217 9.14064 12.6153
120 2 0.0759064 -0.80244 12.0629 10.5495
126 2 0.0670357 -1.85156 9.27502 10.2319
127 2 -0.0518783 -3.6304 11.1073 9.63848
128 2 0.0378595 2.64202 9.5322 14.0105
139 2 0.165906 -4.38556 10.9775 13.7803
71 3 -0.839251 -2.52518 6.87583 13.4181
158 2 0.242421 1.69955 11.3775 12.4608
157 2 0.16188 2.14978 10.0121 11.0849
140 2 0.169077 -5.86831 11.7257 14.7414
235 2 0.171869 11.7275 1.71523 3.04106
37 4 1.21956 12.9979 1.944 5.80357
221 1 -0.658803 8.97189 0.685506 2.10646
39 4 1.26677 11.3373 4.09487 7.50214
45 1 -0.677297 7.44506 4.67616 6.89419
54 1 -0.663105 10.7374 5.52035 6.49742
101 3 -0.807009 13.8553 3.02391 4.90852
102 3 -0.848869 13.8622 1.03035 6.82326
250 2 0.186815 11.2102 5.042 0.239761
4 4 1.46249 14.9138 2.77641 3.74915
106 3 -0.789644 11.8808 2.84791 6.62562
232 3 -0.799133 14.4027 1.49027 2.88855
129 2 -0.0188521 12.0758 0.97932 4.68885
130 2 0.0677516 7.53707 5.81454 3.32696
169 2 0.195635 10.6118 6.37254 7.20404
234 2 0.182955 11.4925 0.408151 1.66397
146 2 0.193114 8.10167 3.82788 6.46044
103 3 -0.793613 5.59912 6.04221 1.37991
145 2 0.161128 7.51259 5.63455 6.38414
170 2 0.176721 9.73241 5.20646 6.13244
171 2 0.20861 11.5148 5.7025 5.64536
231 1 -0.649741 11.7793 0.613672 2.77287
224 2 0.172121 9.09762 1.65822 1.37719
273 2 0.182338 9.4944 0.45406 0.15377
225 2 0.134572 9.24706 0.955905 3.23412
134 2 0.240129 16.472 0.324607 5.97203
144 2 0.202218 7.57667 4.79587 7.98968
11 4 1.48113 13.0586 6.24851 8.86302
36 4 1.33631 8.95026 2.46515 9.23104
52 1 -0.659495 10.4859 1.62959 9.95341
6 4 1.29539 15.9978 2.38586 9.26422
100 3 -0.799775 8.26597 3.12656 10.5058
107 3 -0.821179 12.348 4.67727 8.6955
110 2 -0.00260802 14.6286 2.89556 10.2073
188 3 -0.780025 8.74867 2.04016 14.7384
202 2 0.173189 13.8876 3.92528 11.7254
163 2 0.188258 11.2432 2.46273 10.0676
186 1 -0.670259 8.99773 6.55493 9.64886
165 2 0.243202 10.1215 1.05473 10.9784
172 4 0.956947 15.9522 2.55526 14.1781
173 1 -0.648934 14.3752 1.51123 13.5337
174 2 0.033873 14.2909 2.73876 14.9098
175 2 0.0575881 15.7534 0.894387 13.046
176 2 0.159072 13.8056 2.12862 12.6678
266 2 0.0691274 14.6345 5.02446 16.0544
178 4 1.07912 13.6365 5.61286 14.2684
180 4 1.22624 10.0589 1.56008 13.8159
181 4 1.3567 11.6707 4.07306 12.5515
205 2 0.193477 9.20794 5.55578 9.05455
185 1 -0.707828 12.9919 3.35549 11.2661
177 2 0.178059 13.7353 0.632341 13.8893
189 3 -0.785237 10.8559 2.85508 13.1884
190 3 -0.82381 12.5474 4.64193 13.7086
192 3 -0.804092 10.9059 5.32901 11.7236
263 3 -0.817706 15.7274 0.916525 8.64253
199 2 0.173303 12.1284 1.33677 14.9314
200 2 0.252668 12.7567 3.76459 10.2021
201 2 0.144306 12.9853 2.27128 11.3079
182 4 1.0589 10.6481 6.4245 10.6361
184 1 -0.652376 11.1097 0.760343 15.0654
105 3 -0.764691 9.69494 3.44133 8.18904
204 2 0.153018 8.16342 6.4096 10.4561
164 2 0.159947 10.922 0.924128 9.16967
249 1 -0.639227 13.3846 5.92094 15.9388
233 2 0.154044 2.84913 12.7603 3.50164
255 2 0.156618 2.23576 12.2843 5.35707
167 2 0.14912 9.0026 7.52607 3.05773
53 1 -0.627869 7.85209 7.43964 3.28797
104 3 -0.816351 5.03633 7.31523 3.8629
230 4 1.06233 5.28366 12.8561 2.69461
125 2 -0.00303612 4.05936 7.87403 1.11943
2 3 -0.811518 9.17511 11.7936 3.1484
166 2 0.0500656 7.09395 8.38701 2.1461
168 2 0.171493 7.70276 7.78411 4.37123
206 4 1.24765 9.31644 10.356 3.92962
215 2 0.157733 5.14946 9.46527 7.19561
208 4 1.08405 7.47574 10.2412 6.60192
209 1 -0.653466 5.82028 9.16355 6.32308
207 4 1.24045 6.19842 12.998 7.88182
211 3 -0.788449 8.28312 10.3221 5.18451
212 3 -0.785738 6.82233 11.6403 7.27859
213 2 -0.00547004 8.55384 9.22868 2.9062
254 1 -0.678616 1.84619 11.3948 4.84956
216 2 0.17224 6.20851 8.10092 6.34555
217 2 0.190757 5.39436 9.4058 5.31486
256 2 0.155709 1.95312 11.5528 3.7061
252 2 0.157834 10.8684 7.90832 1.15614
267 2 0.177678 12.3181 6.56968 0.153664
238 3 -0.762616 5.40952 11.9321 1.119
240 2 0.159449 7.89612 10.2898 1.32385
38 4 1.004 6.03227 6.85815 2.67926
219 2 0.185205 9.42527 8.54918 7.44682
258 1 -0.678746 5.63815 11.6556 4.07054
259 2 0.173438 5.73534 10.6014 3.76087
260 2 0.132964 4.62155 11.9122 4.63519
261 2 0.223648 6.53272 11.906 4.76177
270 2 0.171607 1.01257 12.5298 1.79254
237 1 -0.662265 7.63282 10.2424 0.249103
150 2 0.135504 2.68941 10.4587 0.80173
210 1 -0.650403 8.56645 9.18744 7.81079
257 2 0.139113 2.25622 10.378 5.3038
198 2 0.1642 2.76925 12.5293 14.6586
40 4 0.877252 6.23254 11.3793 13.0977
108 3 -0.809739 4.9211 10.5092 12.7779
109 3 -0.812337 6.77805 11.615 14.6025
214 2 -0.0487441 5.06136 12.5393 8.96883
132 2 -0.0427151 7.42594 10.748 12.0425
264 2 0.0613152 9.11316 12.5058 15.8091
203 2 0.167759 8.82653 7.5435 8.97874
269 2 0.142926 10.7358 10.4975 13.4377
193 2 0.0644211 11.3249 9.55541 15.3414
218 2 0.16138 8.87646 9.92407 8.63035
194 2 0.00600301 9.46121 7.61332 11.2364
236 4 1.0738 7.45189 11.9618 15.9539
191 3 -0.805915 11.8874 7.14339 9.84407
241 2 0.167818 9.79854 10.6408 15.5799
131 2 -0.0220201 6.12479 12.8101 12.2278
34 4 1.01603 3.77327 9.44114 12.6376
187 3 -0.811027 1.16374 13.0881 12.4032
274 2 0.130703 7.68934 8.45432 8.12073
239 2 0.131134 7.97358 9.74305 16.0624
ITEM: TIMESTEP
200
ITEM: NUMBER OF ATOMS
274
ITEM: BOX BOUNDS xy xz yz pp pp pp
-8.3752069999999996e+00 1.8013900000000000e+01 -8.3752069999999996e+00
0.0000000000000000e+00 1.3273200000000001e+01 1.1950000000000001e+00
0.0000000000000000e+00 1.6075500000000002e+01 4.3120000000000003e-01
ITEM: ATOMS id type q x y z
119 2 -0.00455423 7.38711 1.26304 5.37452
12 4 1.26759 -0.970718 6.3878 5.26431
7 4 1.10286 0.88384 2.14898 5.07082
9 4 1.23111 -0.597025 4.60095 1.90092
10 4 1.58675 0.287825 4.42835 7.17115
242 1 -0.677619 3.30369 0.497819 2.98204
21 4 0.8046 5.72454 1.41353 5.66695
26 4 1.28632 5.48431 4.43601 6.7233
41 1 -0.678878 0.87571 0.55261 6.05444
44 1 -0.681665 3.9912 3.74604 1.71632
55 3 -0.783879 1.04345 0.845324 1.13499
56 3 -0.84509 -0.401761 2.43401 4.30788
58 3 -0.781857 -1.96505 4.44634 2.76242
59 3 -0.83878 -0.083487 3.22081 1.21436
243 2 0.16585 3.47127 1.63082 2.79654
61 3 -0.741044 1.30862 3.4563 6.05669
62 3 -0.882281 -0.639351 5.35746 6.38645
74 3 -0.793328 5.58324 0.272851 7.28582
78 3 -0.866798 0.46518 5.4397 2.76556
81 3 -0.806738 5.50024 2.91919 5.9124
84 3 -0.767388 3.04062 5.60399 4.0339
85 3 -0.816474 4.93561 5.62947 5.93432
113 2 0.110986 -1.66669 5.42961 3.97427
111 2 0.017768 2.1082 1.84012 3.85667
112 2 -0.0221964 -0.864481 5.72506 0.697787
5 4 1.34545 0.333432 1.99988 0.297469
118 2 -0.0173652 4.59199 0.821617 4.43927
24 4 1.28425 4.85669 4.76875 0.421389
222 3 -0.782508 6.55671 1.47129 1.12374
223 2 -0.096674 6.37205 0.980534 3.91876
141 2 0.173048 4.75357 2.98135 2.06357
142 2 0.165023 3.12106 3.28564 1.05458
143 2 0.257838 3.62866 4.38054 2.52159
220 4 1.0064 7.10108 0.437789 2.32099
25 4 1.40438 1.49941 6.38413 3.55106
135 2 0.223698 0.58914 0.831843 7.14784
82 3 -0.804854 1.43694 5.33847 7.92348
244 2 0.126407 2.92581 0.118367 4.00088
138 2 0.15872 1.3358 0.828704 12.4083
8 4 1.29 1.84131 2.62166 10.8379
13 4 1.25361 0.530257 4.91355 12.3834
121 2 -0.00364892 6.54769 3.67817 12.6172
20 4 1.28028 4.59998 2.68111 9.23378
23 4 1.28882 6.8353 2.66402 11.2935
99 3 -0.779662 8.11026 1.20717 8.48764
226 4 0.871542 3.42002 6.28116 15.0428
42 1 -0.688624 2.22692 1.45549 12.2949
57 3 -0.842526 0.363455 2.38075 10.2445
63 3 -0.86822 -0.117044 3.93791 13.3952
64 3 -0.802871 1.91444 4.30443 11.7518
65 3 -0.870235 -2.38969 6.0811 9.7426
66 3 -0.888235 -0.469489 5.49401 11.2887
73 3 -0.791685 3.04358 2.49451 9.76205
75 3 -0.859236 5.50091 2.74492 10.4377
76 3 -0.890907 7.14161 1.25213 11.8543
80 3 -0.746361 4.95171 4.03579 8.40133
262 3 -0.79879 0.313269 1.92081 15.28
137 2 0.16182 3.15654 0.910432 11.9218
114 2 -0.0465746 1.03902 6.38355 13.168
14 4 1.57505 -0.996427 6.54788 10.3307
124 2 0.068525 3.34181 5.19466 11.8786
136 2 0.181636 2.45128 1.97592 13.2978
179 4 1.32418 7.45745 2.43289 15.6939
183 1 -0.667563 5.97777 1.31274 15.1977
77 3 -0.750474 7.04018 4.06671 15.6202
60 3 -0.839231 -0.684194 3.55845 8.20023
196 2 0.161462 5.17489 1.90527 15.7211
117 2 0.100475 5.03086 1.35598 8.26081
227 3 -0.825611 4.76774 5.6832 15.7198
195 2 0.184864 5.81577 1.28889 14.0728
245 1 -0.686143 2.72957 3.09886 14.9996
246 2 0.173335 2.1315 3.53459 14.0659
247 2 0.162308 3.27009 2.15722 14.7836
123 2 -0.0171907 5.27964 6.10981 10.5023
228 2 -0.0296652 2.32998 5.05178 15.1378
29 4 0.955661 3.79849 6.6616 11.0858
248 2 0.160568 3.40785 3.83799 15.5568
229 2 -0.0380902 3.57606 6.4417 13.3435
86 3 -0.805331 2.72671 6.67771 9.95001
251 1 -0.650018 -5.09001 8.71794 1.05017
3 3 -0.804468 -5.88188 11.3656 1.01199
253 2 0.176025 -4.05289 8.31037 0.871361
16 4 1.48901 -3.07101 8.11062 6.55142
17 4 1.22446 -4.52904 10.0238 4.78847
154 2 0.163883 0.976683 9.65005 7.36489
161 2 0.174681 -0.933473 10.0436 0.251643
31 4 1.30214 -1.90381 10.4245 2.9535
33 4 1.1662 0.0727838 11.0365 5.48981
48 1 -0.647698 -1.21598 8.95623 1.94938
49 1 -0.663572 0.172304 9.49512 6.5825
149 2 0.142606 2.18719 9.01946 7.64828
68 3 -0.861283 -1.8892 7.62796 5.57494
69 3 -0.802998 -6.04877 10.1202 4.32176
70 3 -0.791856 -4.32007 8.69162 5.58611
79 3 -0.810226 0.633961 7.185 4.79552
87 3 -0.809428 2.08106 7.46641 2.38281
30 4 1.04118 2.37237 8.00794 0.982553
89 3 -0.796648 -1.67533 11.7673 2.08498
90 3 -0.808413 -3.42274 10.1892 3.49824
93 3 -0.788141 -0.740021 10.6091 4.15982
94 3 -0.838805 -0.308506 12.2703 6.33692
115 2 -0.0236323 -4.33879 11.3208 5.79079
147 2 0.21682 1.7556 7.65584 6.50064
151 2 0.190924 -0.083373 9.24457 1.59201
152 2 0.160364 -1.90409 8.81538 1.01941
153 2 0.188388 -1.26941 8.10981 2.72963
122 2 0.00131179 3.30318 7.6962 5.69063
155 2 0.281138 0.347273 8.60286 5.87561
156 2 0.271002 -0.959897 9.40784 7.04228
46 1 -0.669838 2.33048 7.89271 7.43204
148 2 0.169585 3.4246 7.572 7.41636
272 2 0.187828 0.831394 10.133 0.38417
19 4 1.29633 -1.15702 12.7634 7.74598
1 4 1.26481 -6.61156 12.4416 2.03009
133 2 0.157854 -6.54237 12.7738 5.99765
91 3 -0.824296 -2.54147 9.61198 7.63648
67 3 -0.859706 -3.5345 7.08698 7.56353
47 1 -0.666951 1.73245 9.82816 1.02732
265 2 0.194945 -4.29612 12.6487 2.44732
15 4 1.07789 -5.21704 10.2738 0.0226051
271 2 0.177686 1.62759 9.92094 2.16276
268 2 0.221452 -5.26449 8.95799 2.19364
28 4 1.1724 4.15816 6.55186 4.80954
159 2 0.18975 1.24739 9.43074 12.4456
18 4 1.22267 -2.14235 8.22039 12.7879
22 4 1.27149 -0.447764 12.7681 12.044
32 4 0.962717 -2.25428 10.4292 8.95122
35 4 1.25432 -1.10279 10.6442 14.284
43 1 -0.654285 -5.67571 10.7152 14.1363
160 2 0.174309 1.29392 10.8007 14.6149
50 1 -0.674964 2.09445 10.1903 12.2564
51 1 -0.651351 0.419319 11.1126 15.2674
162 2 0.218341 0.364198 12.222 15.4856
72 3 -0.803075 -1.50888 8.13827 11.3337
83 3 -0.827611 -0.0338425 7.1288 9.26661
88 3 -0.800428 2.92303 7.69592 15.682
92 3 -0.833036 -1.14472 11.5165 9.06563
95 3 -0.837969 3.93646 7.96268 11.9832
96 3 -0.795437 -1.14192 9.14147 13.7824
97 3 -0.82543 -0.993629 11.6218 13.0259
98 3 -0.769149 -2.65897 10.9429 15.4042
116 2 -0.0339595 -3.50453 9.0044 12.3177
120 2 0.1019 -0.387784 12.1468 10.4127
126 2 0.0868832 -2.03784 9.25933 10.2062
127 2 -0.0412027 -3.7392 10.9841 9.43798
128 2 0.0436388 2.4396 9.39552 13.9495
139 2 0.141221 -4.76454 10.7939 13.4804
71 3 -0.8546 -2.65669 6.97609 13.5526
158 2 0.252886 1.73202 11.3129 12.4586
157 2 0.145472 2.42383 10.1032 11.0878
140 2 0.160716 -5.82823 11.73 14.6171
197 2 0.242092 -2.36778 13.0901 15.6096
27 4 1.35695 1.58046 6.67124 8.75617
187 3 -0.813168 1.06986 12.9296 12.5157
235 2 0.170419 11.319 1.54864 3.02074
37 4 1.26913 12.9552 2.06599 5.85516
221 1 -0.65029 8.96322 0.562617 2.03781
39 4 1.34395 11.1962 4.02532 7.64764
45 1 -0.662405 7.28722 5.0348 6.89223
54 1 -0.644987 10.8248 5.46449 6.41124
101 3 -0.816399 13.9435 3.07264 5.0275
102 3 -0.866695 13.712 1.06401 6.76598
250 2 0.18676 11.384 4.902 0.480419
4 4 1.44791 14.906 2.73445 3.7828
106 3 -0.811487 11.8168 2.89073 6.67152
232 3 -0.813676 14.2927 1.47838 2.95499
129 2 -0.00685621 12.0977 1.18042 4.65533
130 2 0.0730172 7.79282 5.75292 3.30054
169 2 0.206484 10.8001 6.46517 6.96359
234 2 0.157136 11.4435 0.130358 1.71978
146 2 0.179637 8.03816 4.24622 6.53176
103 3 -0.776679 5.75146 5.93885 1.24063
145 2 0.182061 7.32179 5.95275 6.29647
170 2 0.165102 9.90485 5.11137 5.8664
171 2 0.203209 11.7391 5.42488 5.70201
231 1 -0.648676 11.6253 0.504564 2.85086
224 2 0.177917 9.19702 1.40037 1.37849
273 2 0.178725 9.51682 0.545908 0.110607
225 2 0.131618 9.1455 0.791351 3.15874
230 4 1.13081 13.5856 0.0907692 2.66355
207 4 1.24463 14.575 0.209658 7.74754
144 2 0.202689 7.3414 5.12354 8.01201
11 4 1.50882 13.1181 6.24791 8.9534
36 4 1.26467 9.13802 2.4055 9.30268
52 1 -0.671529 10.4975 1.4696 10.1549
6 4 1.34119 15.9615 2.44962 9.25575
100 3 -0.759859 8.11615 3.21226 10.4779
107 3 -0.819631 12.3378 4.58474 8.60658
110 2 0.0189387 14.6192 2.84506 10.2283
188 3 -0.801849 8.65026 2.0137 14.7431
202 2 0.175846 13.8713 3.77066 11.7946
163 2 0.175968 11.4819 2.20071 10.5019
249 1 -0.619797 13.4074 5.93427 16.0522
165 2 0.239569 10.1084 0.835484 11.0744
172 4 0.996741 16.1959 2.50823 14.0838