ITEM: TIMESTEP
0
ITEM: NUMBER OF ATOMS
274
ITEM: BOX BOUNDS xy xz yz pp pp pp
-8.3797999999999995e+00 1.8013900000000000e+01 -8.3797999999999995e+00
0.0000000000000000e+00 1.3273200000000001e+01 1.1950000000000001e+00
0.0000000000000000e+00 1.6075500000000002e+01 4.3120000000000003e-01
ITEM: ATOMS id type q x y z
119 2 -0.017029 7.45936 1.4425 5.26906
12 4 1.30703 -0.823901 6.37281 5.40194
7 4 1.11419 0.87114 2.14089 5.12893
9 4 1.25473 -0.611388 4.66178 1.7635
10 4 1.61247 0.259573 4.29395 7.41616
242 1 -0.686653 3.28007 0.428832 3.17692
21 4 0.789988 5.79929 1.40385 5.63299
26 4 1.25943 5.36609 4.45866 6.77474
41 1 -0.666683 0.696455 0.514262 6.09217
44 1 -0.689365 3.75411 3.77234 1.74507
55 3 -0.755616 1.11169 0.980967 1.06674
56 3 -0.824943 -0.489595 2.42903 4.38355
58 3 -0.810113 -1.8403 4.39055 2.8196
59 3 -0.854896 -0.112574 3.49903 0.904113
243 2 0.151327 3.38032 1.55911 3.20471
61 3 -0.756466 1.15378 3.3135 6.16529
62 3 -0.866443 -0.492576 5.41097 6.59611
74 3 -0.787118 5.67686 0.418391 7.36475
78 3 -0.86161 0.635447 5.36893 2.49257
81 3 -0.783264 5.44039 2.92156 5.8484
84 3 -0.789721 2.81698 5.64662 4.1961
85 3 -0.816999 4.74232 5.68621 5.985
113 2 0.0898737 -1.49164 5.3789 4.12081
111 2 0.00136532 2.27397 1.81409 4.05903
112 2 -0.027043 -1.3528 5.74033 0.65964
5 4 1.29962 0.20743 2.13501 0.0885205
118 2 -0.0276093 4.65484 0.775407 4.56549
24 4 1.26432 4.75689 4.86827 0.578926
222 3 -0.777536 6.39896 1.40383 1.05023
223 2 -0.0984656 6.41616 0.881428 3.88456
141 2 0.182123 4.4513 2.83077 1.71011
142 2 0.201776 2.69956 3.62763 1.44673
143 2 0.225707 3.76062 4.33163 2.74036
220 4 0.989 6.98519 0.399653 2.21935
25 4 1.40346 1.4386 6.41506 3.38794
135 2 0.221886 0.781658 0.721513 7.19116
28 4 1.25432 3.95024 6.52268 4.88442
138 2 0.157795 1.59448 0.695363 11.9697
8 4 1.27665 1.97502 2.77831 10.9374
13 4 1.2651 0.384514 4.92849 12.4367
197 2 0.19342 5.12544 1.49373 15.8702
20 4 1.23149 4.73066 2.95392 9.34118
23 4 1.27222 7.00022 2.82031 11.4374
99 3 -0.844255 8.04582 1.33435 8.37206
226 4 0.898045 3.45982 6.40123 15.0464
42 1 -0.672189 2.45083 1.44369 12.1685
57 3 -0.831912 0.571864 2.32838 10.319
63 3 -0.858604 -0.443701 3.87919 13.2785
64 3 -0.825284 1.88383 4.34313 12.2609
65 3 -0.849494 -2.16634 6.18015 9.36293
66 3 -0.88933 -0.328363 5.45845 11.1571
73 3 -0.788335 3.20905 2.83518 9.95399
75 3 -0.844999 5.68069 3.01825 10.6467
76 3 -0.872199 7.06794 1.35322 12.0186
80 3 -0.764393 4.88613 4.29886 8.42519
82 3 -0.79018 1.4304 5.02919 8.23846
137 2 0.171457 3.49669 1.07555 11.8162
114 2 -0.0208846 0.530669 6.35558 13.22
27 4 1.3683 1.62885 6.58972 8.82706
124 2 0.0602139 3.35395 5.24257 11.9727
136 2 0.178358 2.4539 1.91167 13.2106
179 4 1.2821 7.41158 2.56288 15.6638
183 1 -0.65387 5.9276 1.55235 15.0453
77 3 -0.769876 6.88307 4.1167 15.8338
60 3 -0.843025 -0.695383 3.50241 8.38998
196 2 0.178706 5.58022 2.06806 14.1298
117 2 0.0842239 5.09721 1.57714 8.38777
227 3 -0.805596 4.85828 5.97193 15.6661
195 2 0.214047 6.50726 0.579688 14.8227
245 1 -0.682153 2.67765 3.23361 14.8411
246 2 0.231863 2.39211 3.70852 13.8391
247 2 0.156314 3.21712 2.20551 14.7339
262 3 -0.812391 0.120873 2.05308 15.2542
228 2 -0.0134109 2.19914 5.21943 15.1438
29 4 0.968189 3.86743 6.64213 11.1204
248 2 0.162877 3.32079 3.83975 15.5655
229 2 -0.0413696 3.52416 6.54074 13.2926
14 4 1.52269 -0.963837 6.59796 10.2326
121 2 -0.0109651 6.8673 3.91216 12.7563
251 1 -0.667174 -5.1976 8.80977 1.27474
3 3 -0.796416 -5.75458 11.5315 1.08778
253 2 0.200399 -4.17177 8.52183 1.14212
16 4 1.52188 -3.04634 8.02258 6.59248
17 4 1.24716 -4.52718 10.0338 4.70259
154 2 0.178865 1.0353 9.52309 7.38032
161 2 0.203422 -1.13347 9.87123 0.521639
31 4 1.27373 -1.95213 10.4524 3.13247
33 4 1.11967 0.0651343 11.0627 5.61933
48 1 -0.646009 -0.946454 8.95811 2.41495
49 1 -0.668078 0.225474 9.45764 6.62933
149 2 0.153008 2.09991 8.77682 7.78523
68 3 -0.880356 -1.89013 7.43866 5.73522
69 3 -0.862975 -6.0479 10.2552 4.18133
70 3 -0.823087 -4.14331 8.86783 5.6523
79 3 -0.843537 0.556753 7.17479 4.83395
87 3 -0.841128 1.83746 7.61542 2.44098
30 4 1.05908 2.22564 8.1403 1.00009
89 3 -0.768879 -1.7338 11.6457 1.96904
90 3 -0.814961 -3.47997 10.0596 3.42536
93 3 -0.824258 -0.996107 10.8218 4.46793
94 3 -0.80794 -0.134874 12.3545 6.69172
115 2 -0.0311849 -4.16755 11.4746 5.51755
147 2 0.233875 1.58479 7.48038 6.34777
151 2 0.194604 0.0394201 9.34884 1.82112
152 2 0.150841 -1.75466 8.49722 1.71353
153 2 0.216915 -0.77291 8.31637 3.34252
122 2 0.00599322 3.08457 7.9375 5.59943
155 2 0.267057 0.430321 8.57083 5.91972
156 2 0.286967 -0.884478 9.38332 7.12423
46 1 -0.671092 2.24236 7.68929 7.29934
148 2 0.176291 3.30048 7.37189 7.26776
272 2 0.184111 0.667629 10.1878 0.460797
19 4 1.36829 -1.10085 12.8832 7.8433
1 4 1.30811 -6.52005 12.587 2.00435
133 2 0.16453 -6.84732 12.7181 5.69535
91 3 -0.81319 -2.42616 9.39972 7.76407
67 3 -0.870216 -3.78439 6.9185 7.4201
47 1 -0.678051 1.70793 10.0098 0.924475
265 2 0.189972 -4.2492 12.8029 2.55252
15 4 1.0684 -5.36221 10.2384 0.116865
267 2 0.172533 -4.16338 6.59041 0.278825
268 2 0.236982 -5.37692 9.21932 2.33334
244 2 0.134019 -5.14375 12.7564 4.21031
257 2 0.134867 2.04055 10.338 4.85434
159 2 0.194111 1.33481 9.6197 12.5
18 4 1.15282 -2.01319 8.2784 12.8067
22 4 1.27455 -0.570271 12.8372 12.1521
32 4 0.943667 -2.25864 10.4051 9.01776
35 4 1.19837 -1.29388 10.635 14.3288
187 3 -0.803184 0.960002 13.0927 12.4817
160 2 0.171707 0.952767 10.5003 14.8492
50 1 -0.654966 2.12457 10.432 12.2515
51 1 -0.631028 0.0859083 10.8445 15.5611
162 2 0.211819 0.073459 11.9764 15.6851
72 3 -0.792016 -1.58246 8.07868 11.212
83 3 -0.797841 0.277181 7.31699 9.29006
88 3 -0.814594 2.9861 7.79362 15.7212
92 3 -0.82156 -1.15903 11.5145 9.14162
95 3 -0.829645 3.82709 8.05982 11.85
96 3 -0.764798 -0.869381 9.05891 13.6821
97 3 -0.849983 -1.10111 11.7622 13.1841
98 3 -0.764275 -2.81783 10.6372 15.3806
116 2 -0.0498124 -3.44947 9.19453 12.7097
120 2 0.0901112 -0.686723 12.0705 10.6053
126 2 0.0719183 -2.14146 9.45912 10.4029
127 2 -0.0476588 -3.70718 11.1516 9.44528
128 2 0.0401085 2.50329 9.37762 13.8373
139 2 0.157373 -4.63033 10.6379 13.6159
71 3 -0.834816 -2.38359 6.86342 13.5924
158 2 0.257367 1.80269 11.5143 12.4382
157 2 0.13878 2.49735 10.2731 10.9918
140 2 0.155778 -5.67824 11.819 14.5741
43 1 -0.642749 -5.60619 10.7506 14.1224
86 3 -0.788518 2.86504 6.68913 9.9642
235 2 0.162182 11.8948 1.7364 3.1341
37 4 1.27349 13.0665 1.94079 5.85606
221 1 -0.651052 8.82816 0.516241 2.03583
39 4 1.35372 11.1975 4.02109 7.47153
45 1 -0.651946 7.22367 4.82826 7.0291
54 1 -0.661186 10.7214 5.44143 6.282
101 3 -0.825178 14.0008 2.79247 4.869
102 3 -0.850538 13.8319 1.02976 6.85158
250 2 0.164092 11.1769 5.24537 0.0400343
4 4 1.49389 14.9632 2.70212 3.65385
106 3 -0.796851 11.9485 2.95255 6.53887
232 3 -0.783956 14.5779 1.43248 2.68938
129 2 -0.00682676 12.1822 0.935713 4.72437
130 2 0.0578869 7.51056 5.86161 3.54768
169 2 0.230918 11.0264 6.32138 6.84658
234 2 0.159011 11.5885 0.516417 1.65171
146 2 0.184502 7.99621 4.07181 6.51846
103 3 -0.795487 5.66227 6.07669 1.43978
145 2 0.158062 7.3041 5.83542 6.54468
170 2 0.166503 9.61743 5.32613 6.08338
171 2 0.187605 11.3016 5.34875 5.27349
231 1 -0.662827 11.846 0.627085 2.8118
224 2 0.171302 9.31219 1.30271 1.41941
273 2 0.17928 9.35197 0.326521 0.119759
225 2 0.126781 9.04305 0.681834 3.21314
11 4 1.50718 13.0898 6.215 8.81133
36 4 1.31242 8.94374 2.41903 9.15128
52 1 -0.673536 10.2876 1.28339 9.88013
6 4 1.30039 15.9994 2.39669 9.48954
100 3 -0.818045 8.23539 3.16567 10.4515
107 3 -0.804817 12.2603 4.50258 8.54249
110 2 -8.52844e-05 14.7131 2.83312 10.4932
188 3 -0.802669 8.73048 2.2078 14.6612
202 2 0.161832 13.8944 3.67073 11.8484
163 2 0.1681 11.2857 1.91582 9.91322
186 1 -0.69626 9.04597 6.4215 9.71518
165 2 0.249846 9.99569 0.938066 10.9201
172 4 0.990153 16.0156 2.42995 13.9738
173 1 -0.660971 14.2269 1.58033 13.5029
174 2 0.109593 14.2034 2.40147 14.5802
175 2 0.00434881 15.7858 1.09702 12.7172
176 2 0.164922 13.7839 2.25115 12.6198
266 2 0.0633081 14.6805 4.87498 16.0048
178 4 1.0828 13.8702 5.66821 14.3317
180 4 1.24759 9.93593 1.575 13.8139
181 4 1.30876 11.7072 3.94828 12.498
205 2 0.215705 9.18646 5.428 9.14351
185 1 -0.664086 12.8918 3.30167 11.1517
177 2 0.174811 13.7302 0.569768 13.7299
189 3 -0.803208 10.9359 2.62186 12.9685
190 3 -0.7948 12.8007 4.63737 13.5392
192 3 -0.792091 10.8882 5.16882 11.6354
263 3 -0.834587 15.5816 1.00271 8.82369
199 2 0.16977 12.0171 1.09169 14.9198
200 2 0.266671 12.6249 3.87288 10.0791
201 2 0.15151 12.5562 2.17984 11.2333
182 4 1.0692 10.7032 6.33536 10.6115
184 1 -0.656566 10.9609 0.628851 15.0409
105 3 -0.8008 9.71963 3.53449 8.0988
204 2 0.163234 8.19709 6.35499 10.4006
144 2 0.203999 7.32541 4.81905 8.17091
249 1 -0.626912 13.5123 5.99651 16.0005
164 2 0.175732 10.3283 0.371743 9.22139
123 2 -0.0270223 5.41402 6.25421 10.6446
271 2 0.160046 1.85401 10.3722 1.96151
255 2 0.159221 2.07141 12.2424 5.38282
167 2 0.168147 8.88891 7.17381 2.42375
53 1 -0.65656 8.04411 7.33086 3.06377
104 3 -0.833462 4.97009 7.10744 3.77444
230 4 1.11066 5.28853 12.8682 2.49868
125 2 -0.00131976 3.93235 8.29264 1.07684
2 3 -0.803409 9.18233 11.8499 2.95222
166 2 0.0381593 7.07859 8.50399 2.4211
168 2 0.160728 8.40418 7.74517 4.00886
206 4 1.2432 9.31845 10.4821 3.83553
215 2 0.152411 5.17512 9.03877 6.8264
208 4 1.01858 7.46405 10.0601 6.52502
209 1 -0.6621 5.96096 8.96938 6.01527
207 4 1.23191 6.19875 12.9911 7.931
211 3 -0.781312 8.35995 10.3779 5.13207
212 3 -0.750929 6.79226 11.6097 7.32608
213 2 -0.000741235 9.03834 9.07202 2.95443
254 1 -0.675391 1.67278 11.4404 4.66195
216 2 0.169521 6.47218 7.94385 5.99282
217 2 0.177812 5.58851 9.34424 5.03454
256 2 0.171674 1.61443 11.6069 3.58548
252 2 0.134415 10.9518 7.91652 0.915436
239 2 0.110563 7.13962 9.36895 0.505954
238 3 -0.799705 5.56848 12.049 1.10805
240 2 0.202095 8.04166 10.8474 1.45788
38 4 1.03497 6.10794 6.81566 2.73458
219 2 0.179027 9.29556 8.41394 7.11287
258 1 -0.676881 5.78721 11.6954 3.95782
259 2 0.168667 6.22336 10.7814 3.54215
260 2 0.145088 4.82837 11.404 4.41546
261 2 0.216357 6.46766 12.2447 4.67622
270 2 0.167842 0.866678 12.2972 1.68963
237 1 -0.665645 7.76345 10.4411 0.404345
150 2 0.151586 2.59892 10.4441 0.327325
210 1 -0.665808 8.44741 8.89456 7.6951
134 2 0.240492 8.14025 12.9533 5.76428
233 2 0.161178 2.80634 12.7627 3.50053
198 2 0.172331 2.60608 12.392 14.692
40 4 0.897583 6.22388 11.3721 12.9675
108 3 -0.807294 4.9871 10.4075 12.8056
109 3 -0.812831 6.71504 11.5155 14.4411
214 2 -0.0371288 4.99822 12.5206 9.00468
132 2 -0.0531897 7.42569 11.0086 11.8418
264 2 0.0833141 8.79867 12.5793 15.5199
203 2 0.171989 8.84861 7.25641 8.94246
269 2 0.141207 10.3188 10.5617 13.4113
193 2 0.0576347 11.1226 9.6414 15.2175
218 2 0.158778 8.84143 9.52557 8.53755
194 2 -0.00178519 9.63773 7.59288 11.1629
236 4 1.02947 7.32851 11.714 15.94
191 3 -0.838309 12.041 6.87423 9.81479
241 2 0.163111 9.83944 10.8162 15.6096
131 2 -0.0227636 5.90383 12.9146 12.2142
34 4 1.03533 3.76315 9.42839 12.5757
274 2 0.14422 7.64891 8.19663 8.09305
ITEM: TIMESTEP
100
ITEM: NUMBER OF ATOMS
274
ITEM: BOX BOUNDS xy xz yz pp pp pp
-8.3797999999999995e+00 1.8013900000000000e+01 -8.3797999999999995e+00
0.0000000000000000e+00 1.3273200000000001e+01 1.1950000000000001e+00
0.0000000000000000e+00 1.6077796500000002e+01 4.3120000000000003e-01
ITEM: ATOMS id type q x y z
119 2 -0.00894101 7.48376 1.48991 5.27214
12 4 1.28806 -0.888088 6.49886 5.3089
7 4 1.11397 0.890428 2.18017 5.12708
9 4 1.25613 -0.657879 4.63126 1.75434
10 4 1.60477 0.281756 4.36891 7.23637
242 1 -0.67098 3.17024 0.576268 3.12291
21 4 0.821794 5.8333 1.44265 5.53749
26 4 1.25827 5.53471 4.39099 6.81094
41 1 -0.645728 0.76343 0.623217 6.17611
44 1 -0.676265 3.81807 3.85204 1.72221
55 3 -0.828719 1.00159 0.91654 1.12266
56 3 -0.828332 -0.416868 2.35805 4.31045
58 3 -0.802611 -1.85282 4.42556 2.80949
59 3 -0.837811 -0.146777 3.41497 0.942313
243 2 0.174623 2.97151 1.51327 2.44753
61 3 -0.783945 1.07854 3.35847 6.26928
62 3 -0.85962 -0.656211 5.43557 6.41461
74 3 -0.786537 5.75159 0.478202 7.3069
78 3 -0.842223 0.521182 5.30048 2.60103
81 3 -0.779638 5.47025 2.91242 5.81055
84 3 -0.782181 2.94604 5.55483 3.96869
85 3 -0.761302 4.77548 5.68376 6.0495
113 2 0.100472 -1.58704 5.53519 4.02303
111 2 0.0146162 2.30866 2.04739 4.12087
112 2 -0.0260333 -1.17145 5.81676 0.667964
5 4 1.34129 0.294806 1.98518 0.179764
118 2 0.00251211 4.58419 0.8239 4.40828
24 4 1.24478 4.79293 4.8197 0.406937
222 3 -0.769467 6.49342 1.54148 1.18453
223 2 -0.0903731 6.5304 0.880887 3.93602
141 2 0.185803 4.56884 2.97136 1.96249
142 2 0.168161 2.88627 3.44797 1.23868
143 2 0.271065 3.59282 4.57685 2.60643
220 4 0.992869 7.13457 0.410038 2.23043
25 4 1.35061 1.44356 6.3974 3.39442
135 2 0.237003 0.975102 0.860675 7.30084
28 4 1.17286 3.96027 6.53219 4.84713
244 2 0.135028 2.5069 0.287331 4.03625
138 2 0.172132 1.27921 0.865207 12.0722
8 4 1.2748 1.91942 2.72338 10.7793
13 4 1.31189 0.461251 4.85444 12.3786
121 2 0.0047849 6.87576 3.68778 12.7397
20 4 1.23844 4.68068 2.86812 9.28268
23 4 1.22918 6.86133 2.63847 11.4344
99 3 -0.826601 7.98947 1.31385 8.55297
226 4 0.888678 3.40253 6.37363 15.0533
42 1 -0.656029 2.18247 1.50479 12.2076
57 3 -0.822902 0.461128 2.31461 10.2277
63 3 -0.863598 -0.287929 3.84869 13.2743
64 3 -0.811162 1.93635 4.33421 11.9955
65 3 -0.871654 -2.34622 6.11707 9.62139
66 3 -0.883184 -0.309233 5.60466 11.2871
73 3 -0.793598 3.11699 2.55942 9.70896
75 3 -0.869145 5.59713 2.93782 10.5615
76 3 -0.887171 7.00402 1.19672 12.0425
80 3 -0.777598 4.92803 4.20695 8.28522
82 3 -0.778082 1.55958 5.16228 8.12373
137 2 0.156107 3.11955 0.92759 11.8389
114 2 -0.0182066 0.752633 5.98794 13.5928
27 4 1.38544 1.74385 6.60565 8.77791
124 2 0.0592356 3.41076 5.18232 12.0154
136 2 0.185194 2.41957 2.00255 13.2909
179 4 1.25919 7.45498 2.4023 15.6755
183 1 -0.688244 6.02869 1.29819 15.0724
77 3 -0.737909 6.91709 4.0983 15.684
60 3 -0.844849 -0.622989 3.49394 8.18967
196 2 0.175342 5.25706 2.0577 14.9452
117 2 0.108268 5.14942 1.53394 8.32687
227 3 -0.810958 4.84833 5.91068 15.4764
195 2 0.251139 6.44419 0.901589 14.1311
245 1 -0.682005 2.85191 3.03419 14.973
246 2 0.190665 2.64689 3.53946 14.0465
247 2 0.162417 3.34668 2.02675 14.8425
86 3 -0.81019 2.78869 6.58044 9.94283
228 2 -0.017701 2.27073 5.04427 15.1127
29 4 0.963346 3.80237 6.53066 11.1157
248 2 0.150418 3.42034 3.71595 15.7468
229 2 -0.0171453 3.49024 6.55249 13.3367
14 4 1.56062 -1.00234 6.62301 10.2957
123 2 -0.0213496 5.31534 6.09122 10.6036
262 3 -0.812659 0.254052 1.95934 15.3437
197 2 0.217423 5.82283 0.436119 15.8431
251 1 -0.68192 -5.18631 8.70191 1.21313
3 3 -0.790797 -5.91962 11.426 0.953399
253 2 0.187863 -4.1203 8.43852 1.07384
16 4 1.43633 -3.08884 8.11174 6.5641
17 4 1.22893 -4.50284 10.0583 4.71773
154 2 0.167328 1.02118 9.56262 7.47164
161 2 0.191646 -1.11278 9.79292 0.430563
31 4 1.25766 -1.89936 10.3461 3.06315
33 4 1.12142 0.0942441 11.0213 5.56468
48 1 -0.670537 -1.15149 8.78935 2.25232
49 1 -0.644995 0.17044 9.45241 6.66982
149 2 0.16074 2.23893 8.92741 7.61923
68 3 -0.852044 -1.79209 7.73366 5.6221
69 3 -0.851929 -6.06774 10.1331 4.28875
70 3 -0.795655 -4.24444 8.75633 5.56334
79 3 -0.836294 0.688471 7.02467 4.84952
87 3 -0.7965 1.79827 7.7292 2.39719
30 4 0.959441 2.42401 8.22678 1.0579
89 3 -0.758913 -1.67215 11.7462 1.88837
90 3 -0.812997 -3.42356 10.175 3.41872
93 3 -0.803764 -1.01406 10.7228 4.40167
94 3 -0.810847 -0.387258 12.3035 6.48455
115 2 -0.0183295 -4.27828 11.3574 5.79692
147 2 0.215495 1.74292 7.48562 6.46416
151 2 0.19697 -0.14617 9.18948 1.75323
152 2 0.161836 -1.81258 8.28018 1.471
153 2 0.196689 -0.947933 8.11292 3.12558
122 2 0.0116347 3.124 7.82114 5.51796
155 2 0.259422 0.342004 8.482 6.05584
156 2 0.268095 -0.919823 9.48597 7.17245
46 1 -0.677799 2.36839 7.86044 7.35007
148 2 0.168188 3.52 7.50109 7.31221
272 2 0.176939 0.762801 10.1284 0.447921
19 4 1.36433 -1.14806 12.8233 7.81861
1 4 1.25784 -6.74423 12.5293 2.00867
133 2 0.159387 -6.83521 12.7919 5.67327
91 3 -0.81638 -2.62753 9.57121 7.81601
67 3 -0.846495 -3.63094 6.84634 7.37096
47 1 -0.63791 1.64282 9.94003 1.19229
265 2 0.181499 -4.41799 12.6501 2.78944
15 4 1.03216 -5.23303 10.2329 0.061884
271 2 0.18106 1.26707 10.1827 2.25829
268 2 0.219456 -5.38162 9.33281 2.12459
159 2 0.197081 1.32565 9.59596 12.7568
18 4 1.24169 -2.08308 8.14857 12.6815
22 4 1.2356 -0.442097 12.8227 12.0757
32 4 0.931242 -2.25239 10.4012 9.05525
35 4 1.23775 -1.29599 10.6574 14.2595
43 1 -0.647818 -5.41069 10.7894 14.2852
160 2 0.171582 1.05692 10.4561 14.8036
50 1 -0.667487 2.08962 10.2509 12.3133
51 1 -0.629096 0.19239 10.7931 15.4237
162 2 0.2085 0.186965 11.9298 15.603
72 3 -0.832706 -1.38471 7.96671 11.2575
83 3 -0.783165 0.234625 7.22095 9.2772
88 3 -0.759595 2.8374 7.73662 15.7022
92 3 -0.815089 -1.02888 11.4446 9.02654
95 3 -0.804652 3.90289 7.94317 11.9291
96 3 -0.737604 -1.00584 8.9257 13.6044
97 3 -0.837813 -1.0855 11.8025 13.1305
98 3 -0.793441 -2.59504 10.7039 15.1961
116 2 -0.0506625 -3.44215 9.14066 12.6152
120 2 0.0759064 -0.802439 12.0629 10.5495
126 2 0.0670366 -1.85156 9.27502 10.2319
127 2 -0.0518785 -3.6304 11.1073 9.63848
128 2 0.0378597 2.64202 9.5322 14.0105
139 2 0.165905 -4.38557 10.9775 13.7803
71 3 -0.839257 -2.52519 6.87583 13.4181
158 2 0.242421 1.69955 11.3775 12.4608
157 2 0.161879 2.14978 10.0121 11.0849
140 2 0.169077 -5.86832 11.7257 14.7414
235 2 0.171871 11.7275 1.71523 3.04106
37 4 1.21956 12.9979 1.94399 5.80357
221 1 -0.658801 8.97188 0.685505 2.10646
39 4 1.26677 11.3373 4.09487 7.50214
45 1 -0.677297 7.44506 4.67616 6.89419
54 1 -0.663105 10.7374 5.52035 6.49742
101 3 -0.807009 13.8553 3.02392 4.90852
102 3 -0.848866 13.8622 1.03034 6.82329
250 2 0.186814 11.2102 5.04205 0.239825
4 4 1.46249 14.9138 2.77641 3.74916
106 3 -0.789642 11.8808 2.84791 6.62562
232 3 -0.799132 14.4027 1.49027 2.88855
129 2 -0.0188511 12.0758 0.979322 4.68885
130 2 0.0677516 7.53707 5.81454 3.32696
169 2 0.195634 10.6118 6.37254 7.20405
234 2 0.182956 11.4925 0.408151 1.66397
146 2 0.193115 8.10167 3.82788 6.46044
103 3 -0.793613 5.59912 6.0422 1.37991
145 2 0.161128 7.51259 5.63456 6.38414
170 2 0.176722 9.73241 5.20646 6.13244
171 2 0.208612 11.5148 5.7025 5.64537
231 1 -0.649741 11.7793 0.613671 2.77287
224 2 0.17212 9.09762 1.65823 1.37718
273 2 0.18234 9.4944 0.454065 0.153773
225 2 0.134571 9.24703 0.955901 3.23412
134 2 0.240116 16.4723 0.324499 5.97198
144 2 0.202218 7.57667 4.79587 7.98968
11 4 1.48113 13.0586 6.24851 8.86302
36 4 1.33631 8.95026 2.46515 9.23104
52 1 -0.659499 10.4859 1.62959 9.95341
6 4 1.29539 15.9978 2.38585 9.26421
100 3 -0.799775 8.26597 3.12656 10.5058
107 3 -0.821179 12.348 4.67727 8.6955
110 2 -0.00260744 14.6286 2.89556 10.2073
188 3 -0.780008 8.74867 2.04016 14.7384
202 2 0.173192 13.8876 3.92528 11.7254
163 2 0.188259 11.2432 2.46273 10.0676
186 1 -0.670258 8.99773 6.55493 9.64886
165 2 0.243202 10.1215 1.05474 10.9784
172 4 0.956948 15.9522 2.55527 14.1781
173 1 -0.648934 14.3752 1.51123 13.5337
174 2 0.0338763 14.2909 2.73876 14.9098
175 2 0.0575882 15.7534 0.894387 13.046
176 2 0.159072 13.8056 2.12862 12.6678
266 2 0.0691677 14.6345 5.02452 16.0547
178 4 1.07912 13.6365 5.61288 14.2684
180 4 1.22624 10.0589 1.56007 13.8159
181 4 1.3567 11.6707 4.07305 12.5515
205 2 0.193477 9.20794 5.55578 9.05455
185 1 -0.707827 12.9919 3.35549 11.2661
177 2 0.178059 13.7353 0.632341 13.8893
189 3 -0.785242 10.8559 2.85507 13.1884
190 3 -0.82382 12.5475 4.64194 13.7086
192 3 -0.804091 10.9059 5.32901 11.7236
263 3 -0.817695 15.7274 0.916511 8.64253
199 2 0.173307 12.1283 1.3368 14.9313
200 2 0.252668 12.7567 3.76458 10.2021
201 2 0.144305 12.9854 2.27128 11.3079
182 4 1.0589 10.6481 6.4245 10.6361
184 1 -0.652386 11.1097 0.760349 15.0654
105 3 -0.764691 9.69494 3.44133 8.18904
204 2 0.153019 8.16341 6.4096 10.4561
164 2 0.159946 10.922 0.924127 9.16967
249 1 -0.639231 13.3847 5.92083 15.9389
233 2 0.154044 2.84913 12.7603 3.50164
255 2 0.156618 2.23576 12.2843 5.35707
167 2 0.14912 9.0026 7.52607 3.05773
53 1 -0.62787 7.85209 7.43965 3.28797
104 3 -0.816351 5.03633 7.31523 3.8629
230 4 1.06233 5.28366 12.8561 2.69461
125 2 -0.00303617 4.05936 7.87403 1.11943
2 3 -0.811515 9.17512 11.7936 3.14839
166 2 0.0500643 7.09395 8.38701 2.1461
168 2 0.171493 7.70276 7.78411 4.37123
206 4 1.24765 9.31644 10.356 3.92962
215 2 0.157733 5.14946 9.46527 7.19561
208 4 1.08403 7.47574 10.2412 6.60192
209 1 -0.653466 5.82029 9.16356 6.32308
207 4 1.24045 6.19835 12.998 7.88186
211 3 -0.78845 8.28312 10.3221 5.18451
212 3 -0.785721 6.8223 11.6404 7.27862
213 2 -0.00546917 8.55384 9.22868 2.90621
254 1 -0.678616 1.84619 11.3948 4.84956
216 2 0.17224 6.20852 8.10093 6.34556
217 2 0.190757 5.39436 9.4058 5.31486
256 2 0.155709 1.95312 11.5528 3.7061
252 2 0.157835 10.8684 7.9083 1.15612
267 2 0.177658 12.3181 6.5698 0.153148
238 3 -0.762616 5.40952 11.9321 1.119
240 2 0.159451 7.89615 10.2899 1.32385
38 4 1.004 6.03227 6.85815 2.67926
219 2 0.185205 9.42527 8.54918 7.44682
258 1 -0.678745 5.63815 11.6556 4.07054
259 2 0.173438 5.73535 10.6014 3.76087
260 2 0.132964 4.62154 11.9122 4.63519
261 2 0.223649 6.53271 11.906 4.76178
270 2 0.171607 1.01258 12.5298 1.79254
237 1 -0.662267 7.63282 10.2424 0.24911
150 2 0.135504 2.68941 10.4587 0.801731
210 1 -0.650402 8.56644 9.18744 7.81079
257 2 0.139113 2.25622 10.378 5.3038
198 2 0.164201 2.76923 12.5293 14.6585
40 4 0.877252 6.23254 11.3793 13.0977
108 3 -0.80974 4.9211 10.5092 12.7779
109 3 -0.812336 6.77805 11.615 14.6025
214 2 -0.048749 5.06131 12.5393 8.96886
132 2 -0.0427145 7.42594 10.748 12.0425
264 2 0.061317 9.11316 12.5058 15.8091
203 2 0.167759 8.82653 7.5435 8.97874
269 2 0.142925 10.7358 10.4975 13.4377
193 2 0.0644165 11.3249 9.55541 15.3414
218 2 0.161382 8.87646 9.92407 8.63034
194 2 0.00600228 9.46121 7.61332 11.2364
236 4 1.0738 7.45189 11.9618 15.9539
191 3 -0.805915 11.8874 7.14339 9.84407
241 2 0.167818 9.79853 10.6408 15.5799
131 2 -0.0220209 6.12479 12.8101 12.2278
34 4 1.01603 3.77327 9.44114 12.6376
187 3 -0.811025 1.16374 13.0881 12.4032
274 2 0.130703 7.68934 8.45432 8.12072
239 2 0.131135 7.97359 9.74305 16.0626
ITEM: TIMESTEP
200
ITEM: NUMBER OF ATOMS
274
ITEM: BOX BOUNDS xy xz yz pp pp pp
-8.3797999999999995e+00 1.8013900000000000e+01 -8.3797999999999995e+00
0.0000000000000000e+00 1.3273200000000001e+01 1.1950000000000001e+00
0.0000000000000000e+00 1.6080093000000002e+01 4.3120000000000003e-01
ITEM: ATOMS id type q x y z
119 2 -0.00482369 7.39035 1.26583 5.37388
12 4 1.26753 -0.970513 6.3878 5.26422
7 4 1.10361 0.883212 2.14963 5.07063
9 4 1.23155 -0.596598 4.60026 1.90055
10 4 1.58657 0.288003 4.4284 7.17097
242 1 -0.67748 3.30289 0.498849 2.98389
21 4 0.805316 5.72754 1.4142 5.66829
26 4 1.28627 5.48428 4.43587 6.72351
41 1 -0.67891 0.877119 0.552088 6.05277
44 1 -0.681446 3.99196 3.74409 1.71521
55 3 -0.78422 1.04478 0.846179 1.13359
56 3 -0.845558 -0.402637 2.43393 4.30942
58 3 -0.781818 -1.9646 4.44645 2.76205
59 3 -0.838673 -0.0837494 3.22102 1.21437
243 2 0.165928 3.47762 1.63175 2.78168
61 3 -0.741166 1.30927 3.45616 6.0554
62 3 -0.882335 -0.63909 5.35748 6.38637
74 3 -0.793546 5.5842 0.273298 7.28495
78 3 -0.866817 0.465154 5.43919 2.7655
81 3 -0.80685 5.49986 2.91889 5.91219
84 3 -0.76739 3.03998 5.60504 4.03436
85 3 -0.816398 4.93561 5.62908 5.93417
113 2 0.110979 -1.66611 5.4297 3.97389
111 2 0.0184209 2.10945 1.84467 3.85588
112 2 -0.0221768 -0.864166 5.72479 0.697739
5 4 1.34523 0.333425 1.99964 0.296131
118 2 -0.017357 4.59164 0.810577 4.44399
24 4 1.28398 4.85617 4.7692 0.420579
222 3 -0.782443 6.55727 1.47043 1.12223
223 2 -0.0963983 6.37409 0.980865 3.9174
141 2 0.172947 4.75663 2.97945 2.06149
142 2 0.16498 3.12074 3.28305 1.05348
143 2 0.257547 3.62992 4.37799 2.52041
220 4 1.00673 7.1024 0.437922 2.31985
25 4 1.40457 1.49937 6.38396 3.55078
135 2 0.223345 0.588867 0.835288 7.14562
82 3 -0.804899 1.43686 5.3384 7.92327
244 2 0.128207 2.95215 0.133502 4.00323
138 2 0.158468 1.33443 0.829608 12.4082
8 4 1.2897 1.84144 2.62167 10.8381
13 4 1.25371 0.5301 4.91347 12.3834
121 2 -0.00374171 6.54744 3.67775 12.6171
20 4 1.28034 4.60079 2.68037 9.23364
23 4 1.28866 6.83559 2.6637 11.2937
99 3 -0.779834 8.11086 1.20776 8.48764
226 4 0.87134 3.42052 6.28158 15.0441
42 1 -0.688543 2.22725 1.45596 12.2957
57 3 -0.842501 0.3637 2.38107 10.2447
63 3 -0.868321 -0.116491 3.938 13.3955
64 3 -0.80277 1.91444 4.30444 11.7517
65 3 -0.870151 -2.38965 6.08119 9.74265
66 3 -0.88824 -0.469528 5.49387 11.2889
73 3 -0.791398 3.04428 2.49391 9.76172
75 3 -0.859235 5.50109 2.74344 10.4378
76 3 -0.890773 7.14256 1.25148 11.8542
80 3 -0.746415 4.95198 4.03545 8.40161
262 3 -0.79922 0.312482 1.92164 15.2819
137 2 0.161797 3.15839 0.911534 11.9233
114 2 -0.0465732 1.03864 6.38328 13.1682
14 4 1.57505 -0.99638 6.54783 10.3308
124 2 0.068566 3.34097 5.19496 11.8796
136 2 0.181419 2.45027 1.9779 13.2971
179 4 1.32525 7.45795 2.4338 15.6949
183 1 -0.667676 5.97728 1.31305 15.1979
77 3 -0.750801 7.04165 4.06333 15.622
60 3 -0.839319 -0.683898 3.55877 8.20021
196 2 0.16153 5.17471 1.90611 15.7203
117 2 0.100314 5.03069 1.35623 8.26065
227 3 -0.826004 4.76788 5.68267 15.7215
195 2 0.185152 5.81757 1.28861 14.0745
245 1 -0.686451 2.72951 3.09968 15.0007
246 2 0.173617 2.12397 3.52951 14.0705
247 2 0.162238 3.26762 2.15683 14.7808
123 2 -0.0171964 5.27932 6.10947 10.5034
228 2 -0.0296298 2.32938 5.05209 15.1397
29 4 0.955618 3.79826 6.66162 11.0866
248 2 0.160862 3.40983 3.84173 15.5522
229 2 -0.0382133 3.57631 6.44204 13.3451
86 3 -0.805194 2.72685 6.6778 9.9503
251 1 -0.648814 -5.0926 8.71769 1.05243
3 3 -0.804954 -5.88245 11.3655 1.01113
253 2 0.174618 -4.04543 8.32661 0.85281
16 4 1.48902 -3.07101 8.11055 6.55137
17 4 1.22447 -4.52903 10.0236 4.78833
154 2 0.163861 0.976536 9.65001 7.36496
161 2 0.174648 -0.933998 10.0442 0.249147
31 4 1.30215 -1.90424 10.4246 2.95323
33 4 1.16599 0.0723112 11.0366 5.48993
48 1 -0.647816 -1.21621 8.95692 1.94811
49 1 -0.663565 0.172092 9.49527 6.58253
149 2 0.142625 2.18695 9.01941 7.64825
68 3 -0.861264 -1.88914 7.62788 5.57483
69 3 -0.802758 -6.04883 10.1205 4.32161
70 3 -0.791926 -4.32005 8.69153 5.58609
79 3 -0.810165 0.63402 7.18523 4.79512
87 3 -0.809363 2.0807 7.46586 2.38125
30 4 1.04199 2.37161 8.00712 0.981057
89 3 -0.796743 -1.67704 11.7674 2.08517
90 3 -0.808676 -3.42288 10.189 3.49823
93 3 -0.787921 -0.739755 10.609 4.15954
94 3 -0.838842 -0.310088 12.2709 6.33669
115 2 -0.0235377 -4.33876 11.3205 5.79064
147 2 0.216805 1.75602 7.65564 6.50056
151 2 0.191213 -0.0858816 9.24426 1.592
152 2 0.159898 -1.9037 8.81377 1.01669
153 2 0.188313 -1.27124 8.11051 2.72873
122 2 0.00131807 3.30388 7.69663 5.69096
155 2 0.281146 0.347184 8.60302 5.87544
156 2 0.271007 -0.960088 9.40781 7.04235
46 1 -0.669809 2.33055 7.89268 7.43214
148 2 0.169581 3.42473 7.57225 7.41679
272 2 0.187815 0.829719 10.1311 0.382991
19 4 1.2961 -1.15857 12.7639 7.74556
1 4 1.26416 -6.61302 12.4421 2.02789
133 2 0.157995 -6.54146 12.7765 5.99799
91 3 -0.824284 -2.54167 9.61186 7.63648
67 3 -0.859689 -3.5345 7.08693 7.56353
47 1 -0.666836 1.73127 9.82804 1.0263
265 2 0.194165 -4.31249 12.6297 2.43203
15 4 1.07784 -5.21553 10.2745 0.0219516
271 2 0.177813 1.62691 9.92228 2.16093
268 2 0.221955 -5.25555 8.94672 2.19893
28 4 1.17245 4.15814 6.55204 4.80961
159 2 0.18975 1.24738 9.43142 12.4456
18 4 1.22264 -2.14232 8.22047 12.7881
22 4 1.2715 -0.449036 12.7678 12.0445
32 4 0.962705 -2.25452 10.4289 8.95128
35 4 1.25427 -1.10352 10.6437 14.285
43 1 -0.654378 -5.67579 10.7153 14.1373
160 2 0.174347 1.29467 10.8018 14.6169
50 1 -0.674876 2.09457 10.1909 12.2568
51 1 -0.651545 0.418952 11.1123 15.2679
162 2 0.218263 0.363904 12.2215 15.4853
72 3 -0.803054 -1.50872 8.13819 11.3339
83 3 -0.827548 -0.0338191 7.12883 9.26673
88 3 -0.800902 2.92406 7.69654 15.6842
92 3 -0.83291 -1.14514 11.5162 9.06536
95 3 -0.838066 3.93647 7.96281 11.9836
96 3 -0.795631 -1.14182 9.14123 13.7827
97 3 -0.825391 -0.994159 11.6222 13.0274
98 3 -0.770317 -2.65949 10.9425 15.4047
116 2 -0.0339178 -3.50442 9.00477 12.3178
120 2 0.101863 -0.389042 12.1458 10.4131
126 2 0.0868546 -2.03798 9.25896 10.2061
127 2 -0.0412369 -3.73933 10.9836 9.43848
128 2 0.0435651 2.43972 9.39547 13.9496
139 2 0.141481 -4.76667 10.8022 13.4811
71 3 -0.854696 -2.65669 6.97617 13.5527
158 2 0.252822 1.73249 11.3136 12.4594
157 2 0.145434 2.42412 10.1042 11.088
140 2 0.160833 -5.83364 11.7278 14.6168
197 2 0.241819 -2.37011 13.0908 15.6114
27 4 1.35681 1.58044 6.67115 8.75617
187 3 -0.813093 1.06872 12.9304 12.5157
235 2 0.170329 11.3208 1.54676 3.02565
37 4 1.26913 12.9555 2.06559 5.85558
221 1 -0.650337 8.96406 0.56397 2.03703
39 4 1.34378 11.1965 4.02507 7.64736
45 1 -0.662516 7.28701 5.03469 6.89222
54 1 -0.645125 10.8249 5.46442 6.4112
101 3 -0.81646 13.9435 3.07244 5.02773
102 3 -0.866818 13.7125 1.06389 6.76638
250 2 0.186935 11.3842 4.90261 0.476757
4 4 1.44809 14.9064 2.7347 3.78322
106 3 -0.811661 11.817 2.89009 6.67176
232 3 -0.813678 14.2938 1.47849 2.95463
129 2 -0.00706531 12.0994 1.18103 4.65462
130 2 0.0729323 7.79273 5.75208 3.30059
169 2 0.206541 10.8002 6.46477 6.96337
234 2 0.158085 11.4461 0.130115 1.72681
146 2 0.179553 8.03805 4.24628 6.53162
103 3 -0.776638 5.75099 5.93786 1.23914
145 2 0.18207 7.32144 5.95253 6.2965
170 2 0.165091 9.90505 5.11104 5.86652
171 2 0.203164 11.7393 5.42459 5.70212
231 1 -0.649256 11.6252 0.502861 2.85088
224 2 0.177761 9.19904 1.40231 1.3775
273 2 0.178586 9.51812 0.547284 0.108639
225 2 0.131729 9.14654 0.7943 3.15689
230 4 1.12936 13.587 0.0910516 2.66276
207 4 1.24521 14.5757 0.20978 7.74765
144 2 0.202696 7.34129 5.12366 8.0119
11 4 1.50875 13.118 6.24767 8.95338
36 4 1.26444 9.13854 2.40555 9.30227
52 1 -0.67149 10.4981 1.47005 10.1547
6 4 1.34098 15.9619 2.44934 9.25525
100 3 -0.759599 8.11623 3.2128 10.4783
107 3 -0.819655 12.3381 4.58446 8.60722
110 2 0.0190355 14.6192 2.84504 10.2275
188 3 -0.801914 8.65027 2.01412 14.7437
202 2 0.176075 13.8718 3.76928 11.7933
163 2 0.175914 11.4826 2.20141 10.5019
249 1 -0.61951 13.4076 5.93448 16.0522
165 2 0.239682 10.1086 0.836575 11.0742