ITEM: TIMESTEP
0
ITEM: NUMBER OF ATOMS
274
ITEM: BOX BOUNDS xy xz yz pp pp pp
-6.8378337592739848e+00 1.6194655167295849e+01 -7.2417507619762391e+00
1.4261246741381672e-01 1.4681712468889812e+01 1.1124721699979936e+00
3.6248658245259335e-01 1.6408513417547596e+01 7.5442493630369512e-01
ITEM: ATOMS id type x y z
15 4 -0.456419 4.10491 1.91685
18 4 -1.21841 6.89696 5.77639
86 3 -0.920977 5.26766 6.66561
105 3 0.35988 5.16159 2.82183
70 1 3.7228 7.2302 5.20005
79 3 0.694394 1.66745 4.45165
17 4 0.313497 4.41478 7.3345
83 3 -1.75072 5.02546 0.807426
106 3 0.0677637 7.12027 4.68423
56 1 0.603104 3.10699 0.832473
26 4 7.34238 0.285786 2.87562
172 2 1.7045 3.29422 1.27235
34 4 1.0729 6.32382 3.68405
85 3 1.0226 3.31365 6.53506
13 4 1.6451 2.00148 5.65844
27 4 4.37844 2.88624 4.25693
33 4 4.67626 4.91387 2.13427
65 1 6.92477 0.794552 6.60658
96 3 3.06934 2.42578 5.01627
97 3 6.16896 1.28095 2.25025
100 3 5.58352 2.98445 5.26199
103 3 3.94456 4.19862 3.32876
107 3 3.55811 5.51862 1.07791
148 2 4.7151 1.63973 3.19525
28 4 6.15711 2.4343 0.819354
200 2 2.4761 5.80009 4.65121
177 2 1.36056 6.60616 7.23803
195 2 7.02163 0.943833 7.7298
163 2 4.2677 5.53964 5.26734
80 3 1.83636 0.673171 6.66408
58 1 1.79465 5.73844 7.76191
178 2 2.55022 5.12592 7.11835
180 2 -2.64698 7.20016 3.88232
194 2 5.88402 0.516855 6.17705
171 2 0.476368 1.98611 0.676776
104 3 5.69464 3.85056 1.48704
20 4 -0.308988 5.99618 10.6366
84 3 -0.0321829 3.82548 8.77264
88 3 -0.0574849 4.96532 11.8713
19 4 0.54168 4.09476 13.131
145 2 1.1051 5.8361 9.57277
114 3 0.89394 7.43031 15.2316
16 4 -0.476762 7.36389 16.0587
170 2 1.5957 4.45055 15.8463
152 2 5.05995 4.31834 9.11429
176 2 2.37805 6.17339 8.59159
203 2 2.95752 3.9515 8.98224
108 3 3.6931 4.1768 9.6623
14 4 1.51014 1.56244 11.6131
29 4 3.94061 2.17173 10.023
31 4 4.87398 3.18247 14.8124
32 4 6.9777 2.34718 10.9054
37 4 5.72787 4.70048 12.0752
87 3 1.13668 2.46859 12.993
99 3 3.07288 1.72457 11.2489
101 3 6.25245 2.61245 15.7134
102 3 5.54191 2.06869 10.2495
110 3 5.17214 3.9359 13.4196
197 2 2.4461 2.23265 14.2588
112 3 1.55377 5.2397 14.0267
153 2 4.44442 4.91905 10.9483
149 2 3.54508 3.88039 15.6899
38 4 2.04356 6.7428 14.3186
267 2 3.02823 1.66471 15.9655
66 1 3.37676 2.04777 14.9807
113 3 3.40762 6.8645 15.0202
35 4 4.67418 7.18111 15.8847
150 2 7.23825 1.30282 12.2814
98 3 3.55538 1.53914 8.57469
81 3 0.537363 1.98584 10.4472
93 3 -0.220887 7.51894 11.1223
186 2 -2.45755 7.42443 9.51096
196 2 4.21639 1.11476 14.3969
185 2 -1.68055 5.70584 8.85077
121 3 2.91789 10.0658 6.28338
175 2 -2.16721 7.38724 2.16574
42 4 2.06291 11.0831 5.12365
57 1 -1.50229 7.88611 1.40228
174 2 -0.421484 7.88583 1.76706
11 4 -4.42193 14.0646 7.87784
89 3 -1.45939 8.06634 6.9584
173 2 -1.80279 8.99692 1.31727
21 4 -1.99187 9.21335 7.9439
23 4 -3.39663 11.6246 6.18068
39 4 -0.879189 11.6762 4.48858
91 3 -3.60752 10.1224 6.95583
92 3 -3.22346 12.9057 7.13275
115 3 -0.518193 13.3097 4.27265
116 3 -2.26815 11.6146 5.13744
146 2 -4.9174 11.7656 5.28869
155 2 -1.23452 10.9939 2.93295
156 2 -1.05991 13.0774 7.5337
117 3 0.28523 12.9499 1.60947
120 3 0.455751 11.0727 5.17654
268 2 -0.568524 10.2673 1.50265
245 2 -2.86267 11.111 1.95646
240 1 -2.06535 11.005 1.15057
151 2 2.63772 7.62886 2.63816
208 2 3.51425 7.80958 4.22642
207 2 2.96056 7.48225 5.96626
262 2 3.3932 8.03752 0.514129
199 2 0.847552 8.46851 2.90163
67 1 1.48342 7.5829 2.3769
205 2 1.68255 9.00285 8.12443
238 4 -0.348632 11.9702 0.613032
198 2 1.32715 7.41612 1.29813
193 2 0.546129 13.9904 6.10187
230 2 1.45896 12.5377 7.77691
252 2 2.01061 9.22649 0.890493
261 3 -1.66925 7.74845 15.1033
228 2 1.52708 12.6324 9.77644
239 4 2.12204 12.3395 13.7674
147 2 1.93161 10.5589 13.2756
244 3 1.49201 12.4589 15.2503
188 2 2.44047 8.80837 11.645
154 2 2.03924 7.85679 12.9473
204 2 3.07626 7.82632 8.94502
90 3 -5.15948 13.061 8.93984
24 4 -0.205877 8.9576 11.8356
25 4 -2.24691 11.6848 11.3778
41 4 -0.502515 11.8744 8.7669
64 1 -2.54969 12.68 12.8802
95 3 -1.57682 9.88183 11.947
119 3 -1.12357 12.3424 10.3652
191 2 -2.31172 12.0952 13.8015
192 2 -3.59375 13.0668 12.8077
266 2 -1.71259 13.5413 12.6431
187 2 -2.38581 9.18366 10.373
94 3 -3.70979 11.5741 10.638
62 1 -2.71415 8.61212 9.46044
235 2 -2.61016 9.56435 13.2637
189 2 0.595067 8.92812 13.4422
249 2 0.27083 14.0197 13.5052
63 1 1.60276 9.48511 11.9099
247 2 0.820191 12.7483 11.9434
241 1 1.13118 13.6107 12.8156
69 1 2.62191 8.94249 8.91674
190 2 1.15904 10.3009 10.8357
206 2 2.26912 9.25752 9.98669
78 1 1.33534 12.003 8.86674
157 2 1.82932 10.7716 8.87134
118 3 -0.916724 10.4038 8.47056
269 2 -1.34753 11.4105 16.1887
246 2 -0.998791 13.3523 16.3349
68 1 7.88608 6.16159 8.22079
48 4 5.57517 6.76909 4.45235
223 2 8.29985 6.89799 2.24587
109 3 7.09111 3.66375 7.24359
129 3 5.66093 6.33074 2.89765
131 3 6.87867 6.88806 5.35978
50 4 8.28816 7.04088 6.23851
72 1 10.242 3.31491 8.34677
36 4 6.65581 4.67541 8.33364
202 2 6.15339 6.34516 7.69416
123 3 8.39767 2.79803 5.22474
222 2 8.58999 5.72189 3.73518
273 2 8.71876 0.739997 7.48019
76 1 8.99651 6.6422 3.18856
165 2 8.80154 5.55426 7.30089
122 3 8.7082 1.07921 3.19578
130 3 9.12865 5.31358 0.600067
162 2 10.6262 6.52403 2.69673
47 4 9.87722 4.94827 2.00724
82 3 13.4973 2.96855 2.97648
179 2 11.7285 5.4849 5.02851
59 1 11.8385 6.70053 4.93157
43 4 9.31023 2.38001 4.0105
1 4 13.8402 1.56635 3.752
8 2 11.4153 1.27038 6.69279
128 3 9.57686 3.67771 3.02886
158 2 12.2672 2.13087 5.39645
9 2 10.7967 1.79247 4.62434
161 2 11.5158 4.91991 1.55402
224 2 9.454 6.39522 5.18395
3 1 12.5704 1.01184 5.15128
159 2 10.0415 3.12567 7.14996
5 3 13.5453 0.39699 2.71237
217 2 6.59737 6.96073 1.60152
254 3 13.7082 1.44065 8.21172
30 4 6.9887 2.70982 5.96173
260 2 8.39824 1.79244 0.646617
7 2 11.8466 0.365623 4.46655
166 2 8.0367 5.08815 9.6086
132 3 6.23036 6.16049 12.3728
51 4 6.92566 6.92428 13.7854
124 3 8.19181 2.07661 9.81493
270 2 13.2222 1.40097 16.382
264 2 13.7822 4.78698 14.8766
234 2 11.7872 6.76303 11.6618
133 3 8.15808 6.20043 14.5458
201 2 8.17549 7.26547 8.54623
257 1 8.96007 3.43039 16.1161
111 3 6.99289 3.82627 11.4003
259 2 8.97099 3.2448 14.9943
134 3 5.9014 7.13481 14.9221
61 1 12.6866 5.4695 9.98463
60 1 13.7449 3.77424 14.2463
183 2 11.8127 6.06138 10.4185
184 2 12.623 4.37804 10.1752
256 2 9.54793 4.04228 8.86756
181 2 12.7967 3.75056 13.6754
182 2 13.9867 2.73042 14.8537
12 4 14.1268 2.43584 9.42742
44 4 9.35775 1.71664 8.77412
46 4 11.7143 1.8141 11.4905
73 1 10.6772 3.08158 12.3015
125 3 12.5794 2.61624 10.4006
10 2 15.3398 1.95103 15.9832
214 2 9.67311 2.80895 11.8428
215 2 11.1474 4.11849 11.984
216 2 10.7666 2.75238 13.4577
232 1 11.7715 6.75542 12.827
127 3 12.4122 1.05723 12.652
271 2 14.4208 0.990301 14.6088
237 2 10.9505 6.06474 13.2818
236 2 12.8253 6.3076 13.1051
49 4 9.26569 7.04041 15.6006
4 1 14.6333 1.01558 15.7134
258 2 9.38565 4.42532 16.4023
126 3 10.4197 0.630813 10.139
213 2 11.3461 3.30761 8.68323
53 4 8.93687 10.1923 7.39928
40 4 3.80172 9.31882 7.43762
212 2 8.96994 7.48118 3.9214
74 1 7.15275 7.44912 0.642593
168 2 6.67502 13.7129 5.89291
242 1 2.80685 9.90355 0.46197
210 2 3.44531 13.0884 4.79743
164 2 5.00997 8.48701 4.5585
2 4 5.80144 13.198 1.52493
52 4 3.61203 10.9514 2.0229
71 1 2.65111 12.8222 5.58172
77 1 8.1492 11.5341 6.42088
135 3 4.67717 12.1195 1.69743
136 3 2.79149 10.8656 3.47577
211 2 3.17809 12.4909 6.57319
225 2 7.0774 11.4577 6.97031
251 2 4.35721 9.42611 1.37091
137 3 8.65737 8.69842 6.86404
250 2 2.26943 11.465 0.725009
255 2 1.74359 13.4852 5.67155
140 3 5.25399 12.8644 8.02247
227 2 8.47782 12.6018 6.43176
274 2 7.85573 8.18948 0.996555
226 2 8.11136 11.1373 5.35591
253 4 5.62564 14.1769 7.27265
209 2 4.70014 7.90074 6.69238
263 2 11.091 7.28634 5.54796
139 3 4.90945 10.2027 8.14513
6 2 7.1709 12.651 0.420591
248 2 1.95294 14.3667 12.4812
144 2 8.67637 13.6727 11.6711
218 2 7.50313 8.6093 15.9205
233 3 10.2781 8.13109 14.7418
160 2 5.9002 13.6319 15.0432
220 2 5.92069 9.22447 11.5076
45 4 5.19247 13.4576 13.482
54 4 4.85972 11.583 8.98557
55 4 6.66229 11.6149 11.5766
75 1 6.54123 9.78593 12.2579
141 3 8.50786 12.1073 11.1791
142 3 5.78136 11.6735 10.2297
143 3 6.14698 12.5087 12.7434
169 2 7.76028 9.67383 12.088
221 2 7.52423 8.50207 13.3612
229 2 3.21248 11.7919 9.40958
243 3 3.74269 12.8375 13.5689
219 2 6.20714 9.81906 13.3592
167 2 4.10882 10.4771 15.4423
22 4 9.44025 11.7665 9.86828
138 3 9.0263 10.4647 8.94864
231 4 11.7628 8.09478 14.1076
265 2 10.8077 8.80149 9.19573
272 2 3.8334 14.2239 9.34484
ITEM: TIMESTEP
100
ITEM: NUMBER OF ATOMS
274
ITEM: BOX BOUNDS xy xz yz pp pp pp
-6.8378337592739848e+00 1.6194655167295849e+01 -7.2417507619762391e+00
1.4261246741381672e-01 1.4674442918889074e+01 1.1124721699979936e+00
3.6248658245259335e-01 1.6408513417547596e+01 7.5404772383554253e-01
ITEM: ATOMS id type x y z
15 4 -0.443357 4.09505 2.04967
18 4 -1.13457 6.84657 6.03163
86 3 -0.911794 5.38904 6.59502
105 3 0.435217 5.31455 2.77072
194 2 5.85654 0.556722 6.22094
79 3 0.729171 1.29275 4.52174
17 4 0.215104 4.39257 7.29089
83 3 -1.7185 5.02658 0.765668
106 3 0.0517605 7.12185 4.66826
56 1 0.515373 3.09883 0.823323
171 2 0.0778701 1.96215 0.820813
172 2 1.61897 3.23814 1.34889
34 4 1.03069 6.49317 3.55778
85 3 0.752653 3.25642 6.36769
13 4 1.61747 1.91532 5.6517
27 4 4.22502 2.76601 4.2173
33 4 4.77791 5.03813 2.1691
65 1 6.93345 0.7092 6.68655
96 3 3.07391 2.26434 5.10983
97 3 6.01909 1.36069 2.34732
100 3 5.65606 2.86125 4.95134
103 3 3.99447 4.15266 3.45112
107 3 3.73652 5.50749 0.943416
148 2 4.492 1.55802 3.05395
28 4 6.07645 2.5858 0.971772
200 2 2.57787 6.01189 4.11366
177 2 1.25704 6.72206 7.83575
195 2 6.80779 1.06248 7.79693
163 2 4.1842 5.69443 5.21177
80 3 1.60899 0.751291 6.75825
58 1 1.70889 5.65913 7.56525
178 2 2.12772 5.70635 6.51925
26 4 7.42586 0.341391 2.8446
176 2 2.35876 5.15289 8.37786
70 1 3.70656 7.24107 5.17108
20 4 -0.250945 5.99453 10.6099
84 3 -0.179053 3.87617 8.7873
88 3 0.166744 5.00195 11.7482
19 4 0.576876 4.12517 13.1952
145 2 1.01093 5.95195 9.37967
114 3 0.832768 7.39428 15.3053
16 4 -0.526049 7.19714 16.1001
170 2 1.52836 4.40961 15.8702
152 2 5.22201 4.38352 9.42082
186 2 -2.48887 7.37281 9.55412
203 2 3.4592 3.89571 8.77704
108 3 3.79537 4.16954 9.72403
14 4 1.58056 1.6816 11.6484
29 4 4.00656 2.12319 10.0141
31 4 4.96251 3.30531 14.6637
32 4 6.94827 2.29762 10.8239
37 4 5.77431 4.72208 12.0482
87 3 1.2141 2.67674 12.7914
99 3 3.10834 1.64059 11.2934
101 3 6.19305 3.072 15.8068
102 3 5.51872 1.92618 10.2642
110 3 5.29408 3.92745 13.2837
197 2 2.61659 2.56445 14.1749
112 3 1.68429 5.11758 13.9389
153 2 4.39717 4.82142 11.0193
149 2 3.5116 4.11454 15.3319
38 4 1.91265 6.66411 14.2921
267 2 3.11273 2.04543 15.9271
66 1 3.44157 2.20261 14.8284
113 3 3.26173 6.83445 15.0137
35 4 4.53687 7.16731 15.7928
150 2 7.31932 1.2259 12.1664
98 3 3.57597 1.43893 8.58542
81 3 0.613698 1.72873 10.3927
93 3 -0.360114 7.49471 11.1858
261 3 -1.79126 7.62907 15.1732
196 2 3.98636 1.23094 14.4439
121 3 2.89762 10.1549 6.28618
175 2 -2.07487 7.24433 2.30781
42 4 2.14744 10.9883 5.01987
57 1 -1.47233 7.7209 1.4841
174 2 -0.341651 7.88841 1.80075
11 4 -4.41344 13.9786 7.91503
89 3 -1.4678 8.05116 7.08053
173 2 -1.92229 8.72906 1.12355
21 4 -1.91338 9.26474 7.95168
23 4 -3.47744 11.7266 6.10704
39 4 -0.861188 11.6804 4.37615
91 3 -3.49298 10.4241 7.11329
92 3 -3.27265 13.0375 7.12683
115 3 -0.312115 13.2579 4.13885
116 3 -2.28277 11.5681 5.11013
146 2 -5.06477 11.9062 5.4503
155 2 -0.942291 10.7584 2.91222
156 2 -1.01936 12.8429 7.47385
117 3 0.339416 12.9986 1.5582
120 3 0.313741 10.9528 4.9883
268 2 -0.401711 10.2726 1.4062
245 2 -2.31816 11.3682 2.20822
240 1 -1.94663 11.0157 1.24562
151 2 2.76985 7.76225 2.29427
208 2 3.35071 7.68649 4.18057
207 2 2.99261 7.58794 5.98694
180 2 -2.54331 7.38068 4.01758
199 2 1.12468 8.68088 2.83953
67 1 1.59352 7.79106 2.25413
205 2 1.44146 8.94561 8.10164
238 4 -0.335082 11.979 0.546415
198 2 1.11733 7.63073 1.21855
193 2 0.436461 13.5961 6.41729
230 2 1.60021 12.5406 8.16704
252 2 1.8948 9.25029 0.55699
269 2 -2.5571 10.1384 0.918521
246 2 -1.11822 13.1724 16.4046
228 2 1.67808 12.4147 10.135
239 4 2.16741 12.3026 13.8122
147 2 2.15164 10.5482 13.2047
244 3 1.38376 12.4429 15.1666
188 2 2.30402 8.57819 11.4955
118 3 -0.861653 10.4026 8.50184
204 2 2.68554 7.73579 8.88177
90 3 -5.33268 13.0815 9.01305
24 4 -0.20692 9.0349 11.8387
25 4 -2.40716 11.6683 11.2523
41 4 -0.487469 11.869 8.83139
64 1 -2.52271 12.699 12.7607
95 3 -1.5706 10.0275 11.9551
119 3 -1.05376 12.3556 10.2489
191 2 -2.13259 12.0579 13.6248
192 2 -3.58879 13.1016 12.9701
266 2 -1.75636 13.5997 12.4875
187 2 -2.36423 9.13087 10.3042
94 3 -3.80161 11.5314 10.5658
62 1 -2.68537 8.49759 9.37791
235 2 -2.57794 9.16694 12.837
189 2 0.788279 9.08335 13.4442
249 2 0.333845 13.9745 13.2951
63 1 1.63278 9.39472 11.8785
247 2 0.751352 12.4838 12.0198
241 1 1.15444 13.4057 12.6588
69 1 2.35371 8.81519 8.82436
190 2 1.12891 10.2072 10.7798
206 2 2.08546 9.11934 9.93452
78 1 1.41119 11.8905 9.14037
157 2 1.80278 10.7364 9.05494
154 2 1.883 7.66442 12.8243
262 2 4.36073 8.76866 16.406
68 1 8.0294 5.98892 8.18635
48 4 5.62576 6.89372 4.45653
223 2 8.26369 6.86239 2.2688
109 3 6.87266 3.49101 7.23204
129 3 5.6376 6.42931 2.95172
131 3 6.93632 6.88342 5.40276
50 4 8.35729 7.07388 6.26596
104 3 5.8847 4.14231 1.4461
36 4 6.68927 4.58969 8.34337
202 2 6.31081 6.22504 7.63244
123 3 8.38733 2.63511 5.0602
222 2 8.60939 5.72029 3.81145
273 2 8.78816 0.994239 7.46932
76 1 8.99933 6.63714 3.22885
165 2 8.99801 5.66467 7.28054
122 3 8.95644 0.983937 3.17219
130 3 8.91651 5.06867 0.831687
162 2 10.575 6.44329 2.83719
47 4 9.92748 4.84307 1.97307
82 3 13.5133 3.02185 3.11217
179 2 11.6603 5.81613 4.80379
59 1 11.9749 6.87892 4.98774
43 4 9.36901 2.37072 3.81331
1 4 13.908 1.4863 3.7492
8 2 11.4828 1.38264 6.73868
128 3 9.54432 3.6579 2.92843
158 2 12.3689 2.35301 5.29992
9 2 10.9128 2.01189 4.49359
161 2 11.5275 4.69574 1.34241
224 2 9.55843 6.5454 5.13612
3 1 12.5789 1.18557 5.19342
159 2 10.4419 3.12018 7.39853
5 3 13.5505 0.459285 2.58335
217 2 6.56125 7.05344 1.59014
253 4 12.9718 0.557849 7.34525
30 4 7.01023 2.54359 5.9359
260 2 8.44591 1.54275 0.624644
7 2 11.8581 0.636385 4.52715
258 2 8.30381 3.48574 0.479033
166 2 8.10004 4.98518 9.59033
132 3 6.34719 6.18109 12.4878
51 4 6.97447 6.89379 13.7904
124 3 8.11988 2.05739 9.82098
185 2 12.8142 5.76151 9.01249
264 2 14.0037 4.63598 15.3109
234 2 11.9058 6.84795 11.6825
133 3 8.26981 6.11075 14.4855
201 2 8.26689 7.01874 8.62505
257 1 8.94868 3.19081 16.2648
111 3 7.01579 3.78742 11.3693
259 2 8.62412 3.1031 15.1692
134 3 5.7319 7.30695 14.7611
61 1 12.6869 5.50864 10.1755
60 1 13.8315 3.80658 14.4878
183 2 11.7473 6.01374 10.607
184 2 12.6663 4.34389 10.2826
256 2 9.63571 4.27441 8.7138
181 2 13.0068 4.02383 13.763
182 2 14.017 2.65337 14.8798
12 4 14.1341 2.41503 9.52751
44 4 9.35553 1.7485 8.9194
46 4 11.6784 1.92123 11.499
73 1 10.6533 3.17557 12.313
125 3 12.6807 2.56266 10.5505
10 2 15.3846 1.76546 16.0172
214 2 9.63983 2.90631 11.8517
215 2 10.9712 4.27187 12.0911
216 2 10.7723 2.99301 13.4486
232 1 11.8438 6.53048 12.7892
127 3 12.2862 1.05274 12.6985
126 3 10.4575 0.661213 10.1894
237 2 10.8358 6.05139 12.9746
236 2 12.7351 5.92455 13.1999
49 4 9.28151 7.0654 15.6229
4 1 14.7415 0.879159 15.6482
213 2 11.2607 3.47916 9.03497
72 1 10.3028 3.3654 8.51621
270 2 13.1165 1.42284 16.3259
254 3 13.7027 1.40208 8.42147
272 2 11.1835 0.589905 9.40542
271 2 14.686 0.961727 14.523
53 4 9.13779 10.1075 7.59187
40 4 3.62434 9.41661 7.49245
212 2 8.95785 7.61298 3.91526
74 1 7.14555 7.47198 0.675355
168 2 6.76773 13.9691 5.9331
242 1 2.82532 9.92988 0.431598
210 2 3.01273 13.2773 4.51692
164 2 4.97013 8.56846 4.67517
2 4 5.67217 13.3359 1.44486
52 4 3.58132 11.0313 1.96204
71 1 2.49337 12.7913 5.3696
77 1 8.08048 11.1874 6.48905
135 3 4.78645 12.048 1.68315
136 3 2.8465 10.8447 3.43518
211 2 3.08219 12.6082 6.33589
225 2 7.06681 10.9639 7.02268
251 2 4.24325 9.41404 1.24948
137 3 8.80458 8.61471 6.94211
250 2 2.31963 11.6451 0.7076
255 2 1.53192 13.3681 5.55543
140 3 5.14828 12.9155 7.92829
227 2 8.48183 12.3018 6.69515
274 2 7.91725 8.19495 0.988495
226 2 8.13085 10.7889 5.41538
263 2 11.3 7.45897 5.78224
209 2 4.51557 8.02217 6.79954
139 3 4.7129 10.2957 8.18359
265 2 10.8622 8.65737 9.09551
144 2 8.76987 13.8716 12.1524
218 2 7.55761 8.64184 15.9019
233 3 10.2805 7.98528 14.7007
160 2 5.82624 13.9877 14.9225
220 2 5.91538 9.1944 11.5784
45 4 5.09247 13.4786 13.4343
54 4 4.84637 11.6701 8.92574
55 4 6.67896 11.6294 11.5378
75 1 6.8256 9.74808 12.0143
141 3 8.41498 12.1691 11.2897
142 3 5.79169 11.6115 10.2244
143 3 5.91929 12.3044 12.8204
169 2 7.87688 9.52201 11.6549
221 2 7.69968 8.27707 12.9579
229 2 3.30883 12.0384 9.6371
243 3 3.56709 12.9558 13.9362
219 2 6.72936 9.82051 13.1212
167 2 4.16843 10.876 15.3802
22 4 9.38265 11.8979 10.0525
138 3 8.87936 10.4416 9.07972
231 4 11.7656 7.93891 14.0686
248 2 1.90334 14.0566 12.1369
6 2 8.23912 13.3526 16.2476
ITEM: TIMESTEP
200
ITEM: NUMBER OF ATOMS
274
ITEM: BOX BOUNDS xy xz yz pp pp pp
-6.8378337592739848e+00 1.6194655167295849e+01 -7.2417507619762391e+00
1.4261246741381672e-01 1.4667173368888335e+01 1.1124721699979936e+00
3.6248658245259335e-01 1.6408513417547596e+01 7.5367051136739072e-01
ITEM: ATOMS id type x y z
15 4 -0.511234 4.10431 2.05569
18 4 -1.12501 6.9827 5.92274
86 3 -0.964259 5.22205 6.70675
105 3 0.373114 5.34842 2.68471
194 2 5.86744 0.549726 6.31495
79 3 0.682916 1.20048 4.15586
17 4 0.184876 4.25536 7.18588
70 1 3.72879 7.05099 5.59674
106 3 0.311461 7.13227 4.76781
56 1 0.508222 2.97403 0.981411
171 2 0.0670953 1.93459 1.02717
172 2 1.62306 3.02613 1.37778
34 4 1.25623 6.54757 3.64402
85 3 0.870369 3.14029 6.12855
13 4 1.61421 1.85522 5.50216
27 4 4.2974 2.68836 4.07753
33 4 4.87086 5.05735 2.25274
65 1 6.96286 0.826334 6.73487
96 3 2.97039 2.41632 4.86186
97 3 6.1074 1.48687 2.21169
100 3 5.63647 2.60022 4.88685
103 3 4.10535 4.13945 3.35543
107 3 3.86131 5.60651 1.05997
148 2 4.44278 1.43894 2.97509
28 4 6.1544 2.63109 1.06329
200 2 2.8519 6.0446 4.23745
177 2 1.06053 6.4748 7.61529
195 2 7.06292 1.10323 7.8754
163 2 4.49282 5.48797 5.30763
80 3 1.62452 0.685621 6.69365
58 1 1.5963 5.50351 7.64971
178 2 2.30161 5.25563 6.75333
207 2 3.03564 6.78794 6.43714
180 2 -2.57814 7.07582 4.00223
83 3 -1.91476 4.68094 0.96604
20 4 -0.325461 6.11464 10.7013
84 3 -0.0131102 3.74125 8.7451
88 3 -0.0889759 5.17439 11.9558
19 4 0.711714 4.24245 13.1757
145 2 0.878754 6.03569 9.43921
114 3 0.836345 7.30793 15.268
16 4 -0.566701 7.21808 16.1609
170 2 1.54255 4.17833 15.9225
152 2 5.22235 4.34529 9.12007
185 2 -1.5217 5.63669 8.84678
203 2 3.28894 3.83318 8.90871
108 3 3.87176 4.08857 9.77496
14 4 1.58288 1.61144 11.5861
29 4 4.02838 2.05795 10.043
31 4 4.95435 3.37666 14.7767
32 4 7.01681 2.23336 10.782
37 4 5.89214 4.61196 12.1012
87 3 1.197 2.50909 12.7775
99 3 3.13518 1.60864 11.3253
101 3 5.91546 3.18652 16.0281
102 3 5.642 1.78585 10.2033
110 3 5.3766 3.89703 13.379
197 2 2.67951 2.08594 13.8953
112 3 1.74106 5.27595 13.9421
153 2 4.48599 4.85624 11.0561
149 2 3.33114 3.89594 15.221
38 4 1.97558 6.73791 14.3764
267 2 3.28497 1.58202 15.7037
66 1 3.59745 2.01698 14.7063
113 3 3.365 6.94403 15.082
35 4 4.70464 7.27975 15.8547
150 2 7.29645 1.22719 12.1627
98 3 3.34162 1.47932 8.64485
81 3 0.750269 1.85706 10.2436
176 2 2.17433 5.28369 8.59442
261 3 -1.71474 7.56057 15.0511
196 2 4.48533 1.2831 14.1863
121 3 2.7296 10.2998 6.19912
175 2 -2.17379 7.40491 2.13595
42 4 2.03895 11.0609 4.96758
57 1 -1.51979 7.85574 1.28907
174 2 -0.384764 7.87793 1.7581
11 4 -4.51329 13.9753 7.87759
89 3 -1.21437 8.1474 7.09267
173 2 -1.81761 9.04672 1.23297
21 4 -1.86661 9.31972 8.0569
23 4 -3.3382 11.775 6.21038
39 4 -0.86436 11.6369 4.39375
91 3 -3.45068 10.3472 7.08918
92 3 -3.28114 13.0715 6.97278
115 3 -0.367632 13.1745 4.0259
116 3 -2.28261 11.6467 5.06167
146 2 -4.79534 11.6751 5.38516
155 2 -1.23066 10.8136 2.87565
156 2 -0.953167 12.8913 7.60616
117 3 0.0854763 12.9331 1.53549
120 3 0.381233 10.9314 5.03468
268 2 -0.542467 10.254 1.34878
245 2 -2.69508 11.3301 2.12644
240 1 -2.15822 11.0093 1.1444
151 2 2.7473 7.99798 2.71788
208 2 3.19152 7.69625 4.75109
26 4 0.127495 14.0218 2.70785
269 2 -2.76284 10.2118 0.615067
199 2 0.861163 8.73826 2.75161
67 1 1.56386 7.90629 2.35708
205 2 1.40217 9.0195 8.06441
238 4 -0.492772 11.9569 0.50342
198 2 1.36595 7.27415 1.45625
193 2 0.568502 13.9025 6.40949
230 2 1.56839 12.6695 8.27237
262 2 3.46273 8.02211 0.663349
246 2 -1.28246 13.1425 16.1738
228 2 1.58 12.434 10.2074
239 4 2.09714 12.2721 13.7639
147 2 2.10837 10.493 13.138
244 3 1.3422 12.4275 15.1744
188 2 2.53224 8.6435 11.6332
118 3 -0.767384 10.3519 8.42041
204 2 2.63421 7.6872 8.60512
90 3 -5.15931 12.9031 8.94272
24 4 -0.226563 9.00738 11.8949
25 4 -2.33564 11.7596 11.3899
41 4 -0.4996 11.8211 8.83472
64 1 -2.56892 13.0532 12.6657
95 3 -1.43798 10.0531 12.0945
119 3 -1.27367 12.2473 10.2632
191 2 -1.91065 12.7946 13.5139
192 2 -3.66148 13.175 12.9569
266 2 -2.16974 13.9608 12.0815
187 2 -2.3315 9.28237 10.5037
94 3 -3.81143 11.5106 10.7497
62 1 -2.69922 8.67961 9.57656
235 2 -2.55545 9.15659 12.957
189 2 0.676141 9.01521 13.447
249 2 0.336149 13.7127 13.4295
63 1 1.65004 9.35724 11.8697
247 2 0.463823 12.53 11.8677
241 1 0.984612 13.2525 12.5586
69 1 2.31896 8.7645 8.76294
190 2 1.28034 10.0995 10.8331
206 2 2.12855 8.9321 9.97754
78 1 1.40961 11.9254 9.17838
157 2 1.83018 10.7287 9.04893
154 2 1.85596 7.75812 12.9932
252 2 3.55743 9.89322 15.8964
93 3 -0.440044 7.5789 11.2627
186 2 -2.43749 7.46876 9.69103
68 1 7.99574 6.02378 8.21722
48 4 5.53062 6.96347 4.58959
223 2 8.28856 6.92582 2.31382
109 3 6.96596 3.73913 6.95458
129 3 5.60954 6.61655 3.01532
131 3 7.02681 6.97303 5.56167
50 4 8.39584 7.05403 6.44093
104 3 6.17185 4.10967 1.77056
36 4 6.70108 4.67168 8.18747
202 2 6.2991 6.49871 7.84908
123 3 8.37132 2.44581 5.03989
222 2 8.44347 5.79061 3.86401
273 2 8.80865 0.886287 7.53947
76 1 8.93654 6.6605 3.30139
165 2 9.10965 5.38768 6.9596
122 3 8.73546 1.06286 2.92416
130 3 9.05383 5.21039 0.618559
162 2 10.6975 6.21888 2.94929
47 4 9.71364 4.89622 2.13588
82 3 13.605 3.19035 3.29174
179 2 11.4178 5.93991 5.4648
59 1 11.9183 6.94719 5.09716
43 4 9.30738 2.16015 3.86379
1 4 13.8582 1.53887 3.6953
8 2 11.4996 1.43186 6.61956
128 3 9.5846 3.51585 3.02379
158 2 12.298 2.21548 5.20938
9 2 10.8414 1.61638 4.48152
161 2 11.3968 4.54935 1.69891
224 2 9.50862 6.54892 5.16858
3 1 12.6014 1.02836 5.13196
159 2 9.79971 3.53622 7.37839
5 3 13.3521 0.583798 2.52626
260 2 8.45177 1.67196 0.433788
253 4 12.8774 0.477546 7.37145
30 4 7.00274 2.58012 5.82625
213 2 11.4875 3.12788 8.30653
166 2 8.06446 4.87925 9.538
132 3 6.40522 6.14474 12.4431
51 4 6.88184 6.93703 13.7631
124 3 8.24357 1.9408 9.81915
258 2 9.43459 4.33984 16.2667
264 2 14.1142 4.53299 15.3042
234 2 11.3276 6.78994 11.8227
133 3 8.09946 6.30797 14.757
201 2 8.49278 6.88525 8.76089
257 1 8.92287 3.32975 16.1404
111 3 7.01134 3.75961 11.2102
259 2 8.53434 3.18529 15.0612
134 3 5.85215 7.54917 14.8138
61 1 12.7329 5.55175 9.98879
60 1 14.1265 3.76912 14.4164
183 2 11.7906 6.12934 10.1856
184 2 12.6845 4.45313 10.4073
256 2 10.1581 4.24804 9.09262
181 2 13.1415 3.73618 13.7785
182 2 14.4072 2.5677 14.788
12 4 14.1778 2.39107 9.44708
44 4 9.47551 1.77989 8.81771
46 4 11.6513 1.87185 11.6314
73 1 10.5137 3.21644 12.077
125 3 12.7902 2.56635 10.7193
10 2 15.5772 1.55713 15.6019
214 2 9.53006 3.05816 11.6046
215 2 10.9636 4.24614 11.7541
216 2 10.4366 3.02169 13.2306
232 1 11.5229 6.29939 12.7981
127 3 12.1081 1.02951 12.9473
126 3 10.5023 0.678638 10.3109
237 2 10.7542 5.60537 13.2574
236 2 12.6254 5.91385 12.9022
49 4 9.27301 6.94491 15.6585
270 2 13.2752 1.40337 16.0989
272 2 11.1975 0.598398 9.52825
72 1 10.4018 3.35358 8.41428
254 3 13.3937 1.49618 8.4451
53 4 9.13787 10.0525 7.52765
40 4 3.59304 9.46851 7.58297
212 2 9.03391 7.5737 3.86881
74 1 7.26559 7.52953 0.715921
168 2 6.75432 13.946 5.9959
6 2 7.23399 12.5197 0.492951
210 2 2.86485 13.126 4.18218
164 2 4.69753 8.51741 4.76509
2 4 5.73458 13.3156 1.38375
52 4 3.57123 10.9829 1.89343
71 1 2.49464 12.8862 5.18168
77 1 8.24978 11.1667 6.41373
135 3 4.60734 12.1568 1.65478
136 3 2.75422 10.7538 3.40564
211 2 3.22514 13.1247 5.96086
225 2 7.16396 11.0501 6.85095
251 2 4.30683 9.37402 1.40683
137 3 8.87865 8.53189 7.07691
250 2 2.1008 11.1883 0.67626
255 2 1.39691 13.3807 5.44194
140 3 5.12738 12.8545 7.94466
227 2 8.58706 12.2181 6.46089
274 2 8.14587 8.24037 1.02855
226 2 8.27177 10.7557 5.31453
263 2 11.4035 7.87949 5.51829
209 2 4.65273 8.05582 6.87204
7 2 4.57488 14.0439 4.87414
217 2 6.62455 7.14611 1.61984
265 2 10.9003 8.90961 9.27368
144 2 8.64401 13.786 12.1333
218 2 7.78433 8.75789 15.941
233 3 10.2614 7.87395 14.7464
160 2 5.96174 13.4229 15.0437
220 2 6.82272 9.24335 10.807
45 4 5.10001 13.3401 13.5267
54 4 4.72113 11.7862 9.06894
55 4 6.70617 11.7225 11.4757
75 1 6.92008 9.80911 11.7865
141 3 8.36193 12.321 11.3991
142 3 5.84869 11.761 10.1745
143 3 6.0358 12.3393 12.7665
169 2 7.95603 9.66388 12.193
221 2 7.47511 8.27413 12.8913
229 2 3.23432 12.258 9.81836
243 3 3.53619 12.7451 13.6283
219 2 6.07012 9.70302 12.6427
167 2 4.80138 11.0933 15.4474
22 4 9.39429 11.7043 9.96749
138 3 8.82411 10.3904 9.18491
231 4 11.7159 7.77905 13.9503
248 2 1.87922 13.9076 12.1243
242 1 4.17942 10.698 16.2625
271 2 7.35801 14.1859 14.5074
4 1 7.53951 14.51 15.5533
139 3 4.45822 10.3812 8.45754
ITEM: TIMESTEP
300
ITEM: NUMBER OF ATOMS
274
ITEM: BOX BOUNDS xy xz yz pp pp pp
-6.8378337592739848e+00 1.6194655167295849e+01 -7.2417507619762391e+00
1.4261246741381672e-01 1.4659903818887598e+01 1.1124721699979936e+00
3.6248658245259335e-01 1.6408513417547596e+01 7.5329329889923891e-01
ITEM: ATOMS id type x y z
15 4 -0.452335 4.1799 2.1776
18 4 -1.0674 6.78903 6.04317
86 3 -0.879251 5.32491 6.57991
105 3 0.508274 5.1824 2.81984
194 2 6.03239 0.508183 6.39587
79 3 0.509308 1.34178 4.27593
17 4 0.259038 4.2889 7.28591
70 1 3.72904 6.85449 5.74338
106 3 0.185719 7.09858 4.70673
56 1 0.7182 3.24091 1.054
171 2 0.541139 2.20142 1.47386
172 2 1.8308 3.55037 1.11994
34 4 1.18912 6.46552 3.69349
85 3 0.860901 3.12987 6.25492
13 4 1.5386 1.84079 5.52123
27 4 4.34936 2.77575 4.00352
33 4 4.9872 5.14091 2.27943
65 1 7.05583 0.815316 6.74848
96 3 3.03671 2.2421 4.72576
97 3 6.07411 1.21609 2.17928
100 3 5.59316 2.63711 4.88715
103 3 4.07678 4.36671 3.35168
107 3 4.18257 5.54376 1.00859
148 2 4.60118 1.62327 2.78186
28 4 6.11912 2.772 0.91706
200 2 2.74225 5.8621 4.41562
177 2 1.50586 6.49248 7.61569
195 2 6.98846 1.23171 7.78909
163 2 4.65136 5.36468 5.48802
80 3 1.85645 0.574902 6.4667
58 1 1.75566 5.39116 7.91229
178 2 2.54267 5.01711 7.17559
207 2 3.19141 6.71057 6.70899
180 2 -2.29577 7.17881 3.87824
83 3 -1.72256 4.82751 1.0015
59 1 -2.59119 6.98303 4.93198
175 2 -2.2796 7.07483 1.99445
20 4 -0.458383 6.06801 10.7529
84 3 -0.399242 3.72804 8.74123
88 3 0.0280907 5.0484 12.002
19 4 0.706645 4.23112 13.3244
145 2 0.687068 6.01427 9.45203
114 3 0.926173 7.15084 15.3236
16 4 -0.468523 7.22601 15.8992
170 2 1.40098 4.1663 16.0248
152 2 5.3175 4.30151 9.26748
196 2 4.32152 1.10789 14.333
203 2 3.305 3.96525 9.13611
108 3 3.97056 4.0611 9.88907
14 4 1.67286 1.50925 11.5844
29 4 4.09447 2.01431 9.9341
31 4 4.92736 3.24859 14.8474
32 4 6.98136 2.25489 10.7108
37 4 5.92135 4.57827 12.2905
87 3 1.3256 2.65913 12.6946
99 3 3.20815 1.51465 11.1891
101 3 6.00346 3.2721 16.0949
102 3 5.66261 1.7934 9.98367
110 3 5.30346 3.78193 13.4768
197 2 2.74501 2.22691 13.9777
112 3 1.89562 5.27612 14.0553
153 2 4.58955 4.74519 11.1918
149 2 3.35166 3.84479 15.3426
38 4 2.17145 6.74658 14.4322
267 2 2.97927 1.57066 15.7258
66 1 3.52112 1.92773 14.8129
113 3 3.4636 6.92409 15.2675
35 4 4.78787 7.34848 15.9695
150 2 7.36742 1.01753 11.8868
98 3 3.43716 1.51313 8.51395
81 3 0.62556 1.81523 10.3236
176 2 2.04786 5.28328 8.98129
261 3 -1.68626 7.47459 14.8436
186 2 -2.40034 7.4586 9.77726
121 3 2.7747 10.2055 6.31863
263 2 -3.10916 7.8524 5.5057
42 4 2.02183 11.0563 4.87263
57 1 -1.48896 7.60824 1.33122
174 2 -0.489059 7.78875 1.90646
11 4 -4.40368 13.9736 7.75441
89 3 -1.35023 7.97027 7.17538
173 2 -1.95977 8.53984 0.864926
21 4 -1.75864 9.27957 8.0188
23 4 -3.32848 11.6504 6.22321
39 4 -0.909935 11.694 4.30414
91 3 -3.37321 10.2724 7.11621
92 3 -3.13394 13.0207 7.07834
115 3 -0.656933 13.3929 3.99312
116 3 -2.19989 11.6234 5.17624
146 2 -4.84638 11.6053 5.40413
155 2 -1.44354 10.972 2.80545
156 2 -1.05409 13.0696 7.69305
117 3 0.0201535 12.8773 1.43592
120 3 0.472229 10.8983 4.81716
268 2 -1.0335 10.0859 1.37788
245 2 -2.80313 11.3425 1.96474
240 1 -2.33429 10.9681 1.06807
151 2 2.7239 7.70738 2.59886
208 2 3.10044 7.4004 5.03809
262 2 3.36499 8.0762 0.840377
269 2 -3.01393 10.3746 0.439538
199 2 1.1606 8.93369 2.96931
67 1 1.48108 7.91475 2.51546
205 2 1.23716 9.21992 8.07224
238 4 -0.659093 11.846 0.400578
198 2 1.08975 7.78729 1.42751
193 2 0.642997 13.8175 6.478
26 4 0.0121575 13.9563 2.6822
40 4 3.48251 9.52412 7.57971
118 3 -0.798621 10.3958 8.38323
246 2 -1.20709 13.1107 15.9219
228 2 1.54212 12.4959 10.3246
239 4 1.97503 12.0323 13.705
147 2 1.97057 10.2428 13.457
244 3 1.19377 12.2223 15.1368
188 2 2.28227 8.64689 11.5861
230 2 1.53993 12.8193 8.45119
204 2 2.39941 7.85049 8.7067
90 3 -4.99357 12.9181 8.80335
24 4 -0.288954 9.03436 12.0326
25 4 -2.3577 11.7105 11.3739
41 4 -0.587753 11.9582 8.87411
64 1 -2.45058 13.0737 12.6435
95 3 -1.49597 10.1516 12.3243
119 3 -1.28327 12.3152 10.2583
191 2 -2.04331 12.7917 13.6788
192 2 -3.53062 13.3919 12.6829
266 2 -1.81855 13.8895 12.1291
187 2 -2.23811 9.29651 10.3196
94 3 -3.7768 11.3026 10.7997
62 1 -2.5715 8.57424 9.50225
235 2 -2.63462 9.26752 13.1077
189 2 0.644461 8.94662 13.5711
249 2 0.191046 13.729 13.1605
63 1 1.52191 9.33808 11.9457
247 2 0.536426 12.2074 11.9345
241 1 0.942687 13.134 12.5402
69 1 2.13269 8.93024 8.79743
190 2 1.31412 10.2989 11.1102
206 2 1.95285 9.17721 9.88445
78 1 1.30883 12.0865 9.33734
157 2 1.69511 10.9337 9.13799
154 2 2.04236 7.77387 13.0323
252 2 3.82952 9.92237 15.5944
93 3 -0.471965 7.58287 11.3136