LAMMPS (2 Aug 2023 - Update 2)
OMP_NUM_THREADS environment is not set. Defaulting to 1 thread. (src/comm.cpp:98)
  using 1 OpenMP thread(s) per MPI task
Reading data file ...
  triclinic box = (0 0 0) to (15.1447 13.6088 16.498) with tilt (-7.6974 -0.6366 0.5805)
WARNING: Triclinic box skew is large. LAMMPS will run inefficiently. (src/domain.cpp:220)
  1 by 1 by 1 MPI processor grid
  reading atoms ...
  295 atoms
Finding 1-2 1-3 1-4 neighbors ...
  special bond factors lj:    0        0        0       
  special bond factors coul:  0        0        0       
     0 = max # of 1-2 neighbors
     0 = max # of 1-3 neighbors
     0 = max # of 1-4 neighbors
     1 = max # of special neighbors
  special bonds CPU = 0.000 seconds
  read_data CPU = 0.005 seconds
*****Minimization starts.*****

CITE-CITE-CITE-CITE-CITE-CITE-CITE-CITE-CITE-CITE-CITE-CITE-CITE

Your simulation uses code contributions which should be cited:
- pair reaxff command: doi:10.1016/j.parco.2011.08.005
- fix qeq/reaxff command: doi:10.1016/j.parco.2011.08.005
The log file lists these citations in BibTeX format.

CITE-CITE-CITE-CITE-CITE-CITE-CITE-CITE-CITE-CITE-CITE-CITE-CITE

Switching to 'neigh_modify every 1 delay 0 check yes' setting during minimization
WARNING: Fix qeq/reaxff group is not charge neutral, net charge = -2.46 (src/REAXFF/fix_qeq_reaxff.cpp:392)
Neighbor list info ...
  update: every = 1 steps, delay = 0 steps, check = yes
  max neighbors/atom: 2000, page size: 100000
  master list distance cutoff = 12
  ghost atom cutoff = 12
  binsize = 6, bins = 4 3 3
  2 neighbor lists, perpetual/occasional/extra = 2 0 0
  (1) pair reaxff, perpetual
      attributes: half, newton off, ghost
      pair build: half/bin/newtoff/ghost
      stencil: full/ghost/bin/3d
      bin: standard
  (2) fix qeq/reaxff, perpetual, copy from (1)
      attributes: half, newton off
      pair build: copy
      stencil: none
      bin: none
Setting up cg style minimization ...
  Unit style    : real
  Current step  : 0
Per MPI rank memory allocation (min/avg/max) = 224.5 | 224.5 | 224.5 Mbytes
   Step          Temp          Press         Density         PotEng         TotEng    
         0   0              83490.824      1.5382232     -32892.733     -32892.733    
        49   0              1430.9934      1.5382232     -34158.055     -34158.055    
Loop time of 55.8757 on 1 procs for 49 steps with 295 atoms

22.6% CPU use with 1 MPI tasks x 1 OpenMP threads

Minimization stats:
  Stopping criterion = energy tolerance
  Energy initial, next-to-last, final = 
     -32892.7325831179  -34158.0426005916  -34158.0552020609
  Force two-norm initial, final = 1689.2992 90.972325
  Force max component initial, final = 238.14146 31.495811
  Final line search alpha, max atom move = 0.0017208192 0.054198595
  Iterations, force evaluations = 49 136

MPI task timing breakdown:
Section |  min time  |  avg time  |  max time  |%varavg| %total
---------------------------------------------------------------
Pair    | 46.334     | 46.334     | 46.334     |   0.0 | 82.92
Bond    | 8.5365e-05 | 8.5365e-05 | 8.5365e-05 |   0.0 |  0.00
Neigh   | 0          | 0          | 0          |   0.0 |  0.00
Comm    | 0.056125   | 0.056125   | 0.056125   |   0.0 |  0.10
Output  | 0          | 0          | 0          |   0.0 |  0.00
Modify  | 9.4324     | 9.4324     | 9.4324     |   0.0 | 16.88
Other   |            | 0.05261    |            |       |  0.09

Nlocal:            295 ave         295 max         295 min
Histogram: 1 0 0 0 0 0 0 0 0 0
Nghost:           5428 ave        5428 max        5428 min
Histogram: 1 0 0 0 0 0 0 0 0 0
Neighs:         156291 ave      156291 max      156291 min
Histogram: 1 0 0 0 0 0 0 0 0 0

Total # of neighbors = 156291
Ave neighs/atom = 529.8
Ave special neighs/atom = 0
Neighbor list builds = 0
Dangerous builds not checked
System init for write_data ...
*****Equilibration starts.*****
Setting up Verlet run ...
  Unit style    : real
  Current step  : 0
  Time step     : 0.5
Per MPI rank memory allocation (min/avg/max) = 222.9 | 222.9 | 222.9 Mbytes
   Step          Temp          Press         Density         PotEng         TotEng    
         0   300            4965.1655      1.5382232     -34158.055     -33895.148    
       100   250.55766     -2400.3231      1.5247076     -34087.192     -33867.614    
       200   296.97818      697.46881      1.5256581     -34086.776     -33826.516    
       300   331.38871      1612.5702      1.5456756     -34092.701     -33802.286    
       400   340.07802      3704.4418      1.550139      -34119.934     -33821.903    
       500   321.57892     -1746.3762      1.5498642     -34156.491     -33874.673    
       600   297.50995      5312.7733      1.5712566     -34175.839     -33915.113    
       700   307.88187      102.8404       1.5830265     -34216.754     -33946.939    
       800   310.93019     -5219.5777      1.5916505     -34238.936     -33966.449    
       900   288.55643      2910.163       1.6000037     -34235.15      -33982.271    
      1000   299.03387     -3951.0425      1.5992332     -34258.495     -33996.434    
      1100   303.35167     -5833.9594      1.5993913     -34278.913     -34013.068    
      1200   289.07318     -12963.902      1.6052383     -34277.608     -34024.277    
      1300   294.60809     -3431.966       1.6109447     -34286.172     -34027.99     
      1400   278.37261     -7635.8427      1.5921089     -34246.847     -34002.893    
      1500   316.64252      1687.1981      1.5946958     -34261.011     -33983.519    
      1600   316.30874      4073.6697      1.6072035     -34267.085     -33989.885    
      1700   313.88294      1648.1965      1.6159451     -34289.814     -34014.74     
      1800   298.08588      9475.9827      1.6161961     -34291.5       -34030.27     
      1900   298.66894      6185.3858      1.6114026     -34282.97      -34021.229    
      2000   294.82085      3711.906       1.6005653     -34278.49      -34020.121    
      2100   287.55654     -3448.9132      1.5863907     -34283.131     -34031.128    
      2200   293.751       -10004.555      1.5836422     -34292.856     -34035.425    
      2300   322.44968     -1458.521       1.5931829     -34290.377     -34007.796    
      2400   315.16888     -3978.9849      1.610719      -34269.258     -33993.057    
      2500   295.02516     -1635.0043      1.6000226     -34274.44      -34015.892    
      2600   311.9338      -5430.1147      1.6113425     -34310.176     -34036.81     
      2700   302.28546     -11013.109      1.6008024     -34317.74      -34052.829    
      2800   293.9914       1668.1199      1.6219228     -34317.437     -34059.796    
