LAMMPS (2 Aug 2023 - Update 2)
  using 2 OpenMP thread(s) per MPI task
Reading data file ...
  triclinic box = (0 0 0) to (15.3172 13.8463 18.3222) with tilt (-7.7318 0.2463 -0.1382)
WARNING: Triclinic box skew is large. LAMMPS will run inefficiently. (src/domain.cpp:220)
  2 by 2 by 2 MPI processor grid
  reading atoms ...
  365 atoms
Finding 1-2 1-3 1-4 neighbors ...
  special bond factors lj:    0        0        0       
  special bond factors coul:  0        0        0       
     0 = max # of 1-2 neighbors
     0 = max # of 1-3 neighbors
     0 = max # of 1-4 neighbors
     1 = max # of special neighbors
  special bonds CPU = 0.001 seconds
  read_data CPU = 0.008 seconds
*****Minimization starts.*****
Setting up cg style minimization ...
  Unit style    : real
  Current step  : 0
WARNING: No pairwise cutoff or binsize set. Atom sorting therefore disabled. (src/atom.cpp:2366)
WARNING: Communication cutoff is 0.0. No ghost atoms will be generated. Atoms may get lost. (src/comm_brick.cpp:210)
Per MPI rank memory allocation (min/avg/max) = 6.865 | 6.865 | 6.865 Mbytes
   Step          Temp          E_pair         E_mol          TotEng         Press     
         0   300            0              0              325.50446      3829.1207    
         1   300            0              0              325.50446      3829.1207    
Loop time of 7.02017e-05 on 16 procs for 1 steps with 365 atoms

55.4% CPU use with 8 MPI tasks x 2 OpenMP threads

Minimization stats:
  Stopping criterion = search direction is not downhill
  Energy initial, next-to-last, final = 
                     0                  0                  0
  Force two-norm initial, final = 0 0
  Force max component initial, final = 0 0
  Final line search alpha, max atom move = 0 0
  Iterations, force evaluations = 1 0

MPI task timing breakdown:
Section |  min time  |  avg time  |  max time  |%varavg| %total
---------------------------------------------------------------
Pair    | 0          | 0          | 0          |   0.0 |  0.00
Bond    | 9.7e-08    | 1.9388e-07 | 2.71e-07   |   0.0 |  0.28
Neigh   | 0          | 0          | 0          |   0.0 |  0.00
Comm    | 8e-07      | 1.2314e-06 | 1.644e-06  |   0.0 |  1.75
Output  | 0          | 0          | 0          |   0.0 |  0.00
Modify  | 0          | 0          | 0          |   0.0 |  0.00
Other   |            | 6.878e-05  |            |       | 97.97

Nlocal:         45.625 ave          49 max          40 min
Histogram: 1 0 0 1 0 1 1 2 1 1
Nghost:              0 ave           0 max           0 min
Histogram: 8 0 0 0 0 0 0 0 0 0
Neighs:              0 ave           0 max           0 min
Histogram: 8 0 0 0 0 0 0 0 0 0

Total # of neighbors = 0
Ave neighs/atom = 0
Ave special neighs/atom = 0
Neighbor list builds = 0
Dangerous builds = 0
System init for write_data ...
WARNING: Communication cutoff is 0.0. No ghost atoms will be generated. Atoms may get lost. (src/comm_brick.cpp:210)
WARNING: New thermo_style command, previous thermo_modify settings will be lost (src/output.cpp:903)

CITE-CITE-CITE-CITE-CITE-CITE-CITE-CITE-CITE-CITE-CITE-CITE-CITE

Your simulation uses code contributions which should be cited:
- pair reaxff command: doi:10.1016/j.parco.2011.08.005
- fix qeq/reaxff command: doi:10.1016/j.parco.2011.08.005
The log file lists these citations in BibTeX format.

CITE-CITE-CITE-CITE-CITE-CITE-CITE-CITE-CITE-CITE-CITE-CITE-CITE

WARNING: Fix qeq/reaxff group is not charge neutral, net charge = -6.56 (src/REAXFF/fix_qeq_reaxff.cpp:392)
Neighbor list info ...
  update: every = 10 steps, delay = 0 steps, check = no
  max neighbors/atom: 2000, page size: 100000
  master list distance cutoff = 12
  ghost atom cutoff = 12
  binsize = 6, bins = 4 3 4
  2 neighbor lists, perpetual/occasional/extra = 2 0 0
  (1) pair reaxff, perpetual
      attributes: half, newton off, ghost
      pair build: half/bin/newtoff/ghost
      stencil: full/ghost/bin/3d
      bin: standard
  (2) fix qeq/reaxff, perpetual, copy from (1)
      attributes: half, newton off
      pair build: copy
      stencil: none
      bin: none
Setting up Verlet run ...
  Unit style    : real
  Current step  : 0
  Time step     : 0.5
Per MPI rank memory allocation (min/avg/max) = 128.4 | 129.2 | 130.2 Mbytes
   Step          Temp          PotEng         Press        f_avgp[1]       Density         Volume    
         0   300           -40992.445      106056.12      0              1.701333       3885.8921    
       100   566.13886     -41996.684      8581.6902      2586.3929      1.701333       3885.8921    
       200   406.20836     -42187.469     -4243.3417     -1231.2996      1.701333       3885.8921    
       300   358.18523     -42318.652     -9993.6134      1958.0181      1.701333       3885.8921    
       400   328.47932     -42370.351      5392.9211      386.17477      1.701333       3885.8921    
       500   310.45868     -42381.982      3674.0991      2654.9395      1.701333       3885.8921    
       600   304.3266      -42443.264      3471.0122      6377.1575      1.701333       3885.8921    
       700   310.49789     -42456.308      7291.8825      10334.339      1.701333       3885.8921    
       800   314.90507     -42501.634     -4565.822      -1280.4687      1.701333       3885.8921    
       900   313.20015     -42504.357      2800.9311     -454.52376      1.701333       3885.8921    
      1000   308.58649     -42519.343     -7476.2689     -4848.5196      1.701333       3885.8921    
      1100   280.2065      -42513.357      12852.746     -2268.1663      1.701333       3885.8921    
      1200   304.90357     -42519.763     -8209.6828     -8359.774       1.701333       3885.8921    
      1300   305.41479     -42542.869     -6793.1877     -1763.8354      1.701333       3885.8921    
      1400   302.17737     -42522.163     -5156.1534     -5430.9581      1.701333       3885.8921    
      1500   308.50845     -42517.668     -3556.4596     -281.56859      1.701333       3885.8921    
      1600   308.80303     -42517.886     -16398.99      -3330.6739      1.701333       3885.8921    
      1700   316.13065     -42541.612      489.87539     -379.74127      1.701333       3885.8921    
      1800   319.57747     -42529.76      -3070.4205     -2259.843       1.701333       3885.8921    
      1900   296.10247     -42507.362     -570.69268      2663.7967      1.701333       3885.8921    
      2000   327.14105     -42511.226     -9749.1369     -6213.5939      1.701333       3885.8921    
Loop time of 93.1304 on 16 procs for 2000 steps with 365 atoms

Performance: 0.928 ns/day, 25.870 hours/ns, 21.475 timesteps/s, 7.838 katom-step/s
99.0% CPU use with 8 MPI tasks x 2 OpenMP threads

MPI task timing breakdown:
Section |  min time  |  avg time  |  max time  |%varavg| %total
---------------------------------------------------------------
Pair    | 53.145     | 62.169     | 76.639     | 133.9 | 66.76
Bond    | 0.0006046  | 0.0006964  | 0.00078728 |   0.0 |  0.00
Neigh   | 4.3031     | 5.0483     | 6.1988     |  39.0 |  5.42
Comm    | 0.89599    | 15.374     | 24.413     | 269.4 | 16.51
Output  | 0.00099893 | 0.0010938  | 0.0016445  |   0.6 |  0.00
Modify  | 9.3402     | 10.497     | 11.235     |  27.1 | 11.27
Other   |            | 0.04072    |            |       |  0.04

Nlocal:         45.625 ave          48 max          42 min
Histogram: 1 1 0 0 0 1 1 0 3 1
Nghost:        3294.62 ave        3325 max        3265 min
Histogram: 2 0 1 0 1 0 2 0 0 2
Neighs:        29945.8 ave       31566 max       27790 min
Histogram: 1 1 0 0 1 0 1 3 0 1

Total # of neighbors = 239566
Ave neighs/atom = 656.34521
Ave special neighs/atom = 0
Neighbor list builds = 200
Dangerous builds not checked
System init for write_restart ...
  using 2 OpenMP thread(s) per MPI task
Reading restart file ...
  restart file = 2 Aug 2023, LAMMPS = 2 Aug 2023
  restoring atom style full from restart
  triclinic box = (0 0 0) to (15.3172 13.8463 18.3222) with tilt (-7.7318 0.2463 -0.1382)
WARNING: Triclinic box skew is large. LAMMPS will run inefficiently. (src/domain.cpp:220)
  2 by 2 by 2 MPI processor grid
  pair style reaxff stores no restart info
  365 atoms
Finding 1-2 1-3 1-4 neighbors ...
  special bond factors lj:    0        0        0       
  special bond factors coul:  0        0        0       
     0 = max # of 1-2 neighbors
     0 = max # of 1-3 neighbors
     0 = max # of 1-4 neighbors
     1 = max # of special neighbors
  special bonds CPU = 0.000 seconds
  read_restart CPU = 0.003 seconds
*****Negative-deform 1 starts.*****
Neighbor list info ...
  update: every = 10 steps, delay = 0 steps, check = no
  max neighbors/atom: 2000, page size: 100000
  master list distance cutoff = 12
  ghost atom cutoff = 12
  binsize = 6, bins = 4 3 4
  2 neighbor lists, perpetual/occasional/extra = 2 0 0
  (1) pair reaxff, perpetual
      attributes: half, newton off, ghost
      pair build: half/bin/newtoff/ghost
      stencil: full/ghost/bin/3d
      bin: standard
  (2) fix qeq/reaxff, perpetual, copy from (1)
      attributes: half, newton off
      pair build: copy
      stencil: none
      bin: none
Setting up Verlet run ...
  Unit style    : real
  Current step  : 0
  Time step     : 0.5
Per MPI rank memory allocation (min/avg/max) = 128.6 | 129.8 | 130.7 Mbytes
   Step          Temp          PotEng         Press        f_avgp[1]        Volume    
         0   327.14105     -42511.226     -9749.0728      0              3885.8921    
       100   333.42373     -42530.949     -2142.1736     -5254.8147      3883.9492    
       200   298.56091     -42560.309     -10349.789     -3050.9064      3882.0062    
       300   319.19619     -42555.526      1101.2252     -2599.9505      3880.0633    
       400   306.33902     -42588.335     -6383.4208     -298.72014      3878.1203    
       500   308.03489     -42583.148     -3179.4991     -4982.2089      3876.1774    
       600   304.0906      -42577.934      8830.1894      3776.2629      3874.2344    
       700   297.48927     -42590.923      8941.2053      3466.0668      3872.2915    
       800   296.64269     -42583.033      3682.2276      4786.743       3870.3486    
       900   280.70463     -42590.532     -2122.2886      5133.5576      3868.4056    
      1000   308.52233     -42598.5        592.92988      2168.4091      3866.4627    
      1100   320.43924     -42601.298      5435.3722      770.19961      3864.5197    
      1200   283.07394     -42601.254     -847.44633     -173.10003      3862.5768    
      1300   288.37802     -42575.763     -5816.5378      489.27977      3860.6338    
      1400   288.26308     -42593.148      6431.6349      1120.3706      3858.6909    
      1500   291.12312     -42568.125     -2970.9474      3619.9732      3856.7479    
      1600   273.19459     -42570.363      3611.1296      5621.3707      3854.805     
      1700   292.13284     -42567.026     -1929.4175     -3490.8522      3852.862     
      1800   334.15515     -42620.511      3009.0723      7546.7689      3850.9191    
      1900   297.4113      -42587.586      8162.3095      9264.6477      3848.9761    
      2000   305.04859     -42598.352     -11202.127      2400.5235      3847.0332    
Loop time of 98.1733 on 16 procs for 2000 steps with 365 atoms

Performance: 0.880 ns/day, 27.270 hours/ns, 20.372 timesteps/s, 7.436 katom-step/s
99.1% CPU use with 8 MPI tasks x 2 OpenMP threads

MPI task timing breakdown:
Section |  min time  |  avg time  |  max time  |%varavg| %total
---------------------------------------------------------------
Pair    | 52.307     | 66.497     | 79.559     | 127.7 | 67.73
Bond    | 0.00060295 | 0.00066755 | 0.00078389 |   0.0 |  0.00
Neigh   | 4.3041     | 5.3561     | 6.3727     |  36.5 |  5.46
Comm    | 1.9657     | 15.048     | 29.236     | 268.5 | 15.33
Output  | 0.0045063  | 0.0070806  | 0.008531   |   1.8 |  0.01
Modify  | 10.173     | 11.216     | 12.283     |  25.4 | 11.42
Other   |            | 0.04813    |            |       |  0.05

Nlocal:         45.625 ave          53 max          39 min
Histogram: 1 0 1 0 2 2 1 0 0 1
Nghost:        3308.12 ave        3371 max        3246 min
Histogram: 1 0 1 2 0 1 1 1 0 1
Neighs:        30307.8 ave       34728 max       26186 min
Histogram: 1 0 1 0 2 1 2 0 0 1

Total # of neighbors = 242462
Ave neighs/atom = 664.27945
Ave special neighs/atom = 0
Neighbor list builds = 200
Dangerous builds not checked
  using 2 OpenMP thread(s) per MPI task
Reading restart file ...
  restart file = 2 Aug 2023, LAMMPS = 2 Aug 2023
  restoring atom style full from restart
  triclinic box = (0 0 0) to (15.3172 13.8463 18.3222) with tilt (-7.7318 0.2463 -0.1382)
WARNING: Triclinic box skew is large. LAMMPS will run inefficiently. (src/domain.cpp:220)
  2 by 2 by 2 MPI processor grid
  pair style reaxff stores no restart info
  365 atoms
Finding 1-2 1-3 1-4 neighbors ...
  special bond factors lj:    0        0        0       
  special bond factors coul:  0        0        0       
     0 = max # of 1-2 neighbors
     0 = max # of 1-3 neighbors
     0 = max # of 1-4 neighbors
     1 = max # of special neighbors
  special bonds CPU = 0.000 seconds
  read_restart CPU = 0.003 seconds
*****Positive-deform 1 starts.*****
Neighbor list info ...
  update: every = 10 steps, delay = 0 steps, check = no
  max neighbors/atom: 2000, page size: 100000
  master list distance cutoff = 12
  ghost atom cutoff = 12
  binsize = 6, bins = 4 3 4
  2 neighbor lists, perpetual/occasional/extra = 2 0 0
  (1) pair reaxff, perpetual
      attributes: half, newton off, ghost
      pair build: half/bin/newtoff/ghost
      stencil: full/ghost/bin/3d
      bin: standard
  (2) fix qeq/reaxff, perpetual, copy from (1)
      attributes: half, newton off
      pair build: copy
      stencil: none
      bin: none
Setting up Verlet run ...
  Unit style    : real
  Current step  : 0
  Time step     : 0.5
Per MPI rank memory allocation (min/avg/max) = 128.6 | 129.8 | 130.7 Mbytes
   Step          Temp          PotEng         Press        f_avgp[1]        Volume    
         0   327.14105     -42511.226     -9749.0728      0              3885.8921    
       100   333.42373     -42530.949     -2140.0325     -5254.4483      3887.8351    
       200   304.0368      -42564.645     -15309.13      -4502.3281      3889.778     
       300   304.4317      -42569.299      2906.7719     -1267.1239      3891.721     
       400   307.11355     -42572.24      -11152.383     -3500.2977      3893.6639    
       500   313.72105     -42582.309     -9858.3917     -2055.8723      3895.6069    
       600   277.72449     -42589.309     -6720.9873      1205.1705      3897.5498    
       700   296.12734     -42609.176     -4866.1023     -1101.5649      3899.4927    
       800   284.4533      -42583.868      18846.89      -1908.9729      3901.4357    
       900   296.22211     -42565.43      -14849.718     -7105.4573      3903.3786    
      1000   306.75227     -42571.517     -6826.1931     -1149.507       3905.3216    
      1100   294.98774     -42593.734      4489.6048      37.106098      3907.2645    
      1200   319.58974     -42587.538     -5302.7225      1333.9865      3909.2075    
      1300   315.46912     -42605.11      -9893.2125      590.79682      3911.1504    
      1400   311.92258     -42591.799      13463.285      6215.5493      3913.0934    
      1500   284.49434     -42573.988     -13982.129     -2784.7485      3915.0363    
      1600   288.07332     -42598.269     -13005.689     -5953.2863      3916.9793    
      1700   315.9916      -42596.949     -166.60008     -3361.6053      3918.9222    
      1800   320.18624     -42565.856     -10392.973     -6191.6167      3920.8651    
      1900   305.72043     -42578.347     -7051.9469     -1677.7195      3922.8081    
      2000   290.49156     -42584.364     -8800.9077      3887.6678      3924.751     
Loop time of 98.8838 on 16 procs for 2000 steps with 365 atoms

Performance: 0.874 ns/day, 27.468 hours/ns, 20.226 timesteps/s, 7.382 katom-step/s
99.0% CPU use with 8 MPI tasks x 2 OpenMP threads

MPI task timing breakdown:
Section |  min time  |  avg time  |  max time  |%varavg| %total
---------------------------------------------------------------
Pair    | 52.571     | 67.453     | 80.984     | 132.6 | 68.21
Bond    | 0.00065055 | 0.00070487 | 0.00081669 |   0.0 |  0.00
Neigh   | 4.3182     | 5.4767     | 6.5685     |  36.9 |  5.54
Comm    | 0.66558    | 14.21      | 29.096     | 289.2 | 14.37
Output  | 0.0041936  | 0.006866   | 0.0084775  |   2.0 |  0.01
Modify  | 10.604     | 11.69      | 12.858     |  25.2 | 11.82
Other   |            | 0.04612    |            |       |  0.05

Nlocal:         45.625 ave          54 max          38 min
Histogram: 1 1 1 0 0 3 0 1 0 1
Nghost:        3299.12 ave        3352 max        3240 min
Histogram: 2 0 0 2 0 0 1 1 0 2
Neighs:        29665.4 ave       34688 max       25043 min
Histogram: 1 1 1 0 0 3 0 1 0 1

Total # of neighbors = 237323
Ave neighs/atom = 650.2
Ave special neighs/atom = 0
Neighbor list builds = 200
Dangerous builds not checked
  using 2 OpenMP thread(s) per MPI task
Reading restart file ...
  restart file = 2 Aug 2023, LAMMPS = 2 Aug 2023
  restoring atom style full from restart
  triclinic box = (0 0 0) to (15.3172 13.8463 18.3222) with tilt (-7.7318 0.2463 -0.1382)
WARNING: Triclinic box skew is large. LAMMPS will run inefficiently. (src/domain.cpp:220)
  2 by 2 by 2 MPI processor grid
  pair style reaxff stores no restart info
  365 atoms
Finding 1-2 1-3 1-4 neighbors ...
  special bond factors lj:    0        0        0       
  special bond factors coul:  0        0        0       
     0 = max # of 1-2 neighbors
     0 = max # of 1-3 neighbors
     0 = max # of 1-4 neighbors
     1 = max # of special neighbors
  special bonds CPU = 0.000 seconds
  read_restart CPU = 0.003 seconds
*****Negative-deform 2 starts.*****
Neighbor list info ...
  update: every = 10 steps, delay = 0 steps, check = no
  max neighbors/atom: 2000, page size: 100000
  master list distance cutoff = 12
  ghost atom cutoff = 12
  binsize = 6, bins = 4 3 4
  2 neighbor lists, perpetual/occasional/extra = 2 0 0
  (1) pair reaxff, perpetual
      attributes: half, newton off, ghost
      pair build: half/bin/newtoff/ghost
      stencil: full/ghost/bin/3d
      bin: standard
  (2) fix qeq/reaxff, perpetual, copy from (1)
      attributes: half, newton off
      pair build: copy
      stencil: none
      bin: none
Setting up Verlet run ...
  Unit style    : real
  Current step  : 0
  Time step     : 0.5
Per MPI rank memory allocation (min/avg/max) = 128.6 | 129.8 | 130.7 Mbytes
   Step          Temp          PotEng         Press        f_avgp[1]        Volume    
         0   327.14105     -42511.226     -9749.0728      0              3885.8921    
       100   333.42373     -42530.949     -2142.1736     -5254.8147      3883.9492    
       200   307.91524     -42558.493     -10568.885     -3141.5792      3882.0062    
       300   308.0944      -42560.697     -7990.9671     -2331.3187      3880.0633    
       400   302.10352     -42552.581     -612.553       -1935.0155      3878.1203    
       500   317.04631     -42576.13      -1616.5166      1203.1177      3876.1774    
       600   309.35615     -42577.456     -7279.4698      263.50941      3874.2344    
       700   334.98619     -42586.693     -9169.1696     -1478.8098      3872.2915    
       800   309.15628     -42546.655      1670.968       719.41233      3870.3486    
       900   305.95167     -42569.73      -6583.7721     -931.74336      3868.4056    
      1000   334.23778     -42597.582     -4134.1192      162.02186      3866.4627    
      1100   302.58024     -42593.385     -4422.26       -2756.1597      3864.5197    
      1200   300.58975     -42585.506     -1369.7273      2773.6446      3862.5768    
      1300   287.12172     -42618.675      5098.9331     -16.121533      3860.6338    
      1400   293.92736     -42594.44       13457.482      2074.399       3858.6909    
      1500   313.03774     -42594.854     -6987.8111      7875.0041      3856.7479    
      1600   293.10282     -42579.18      -631.55364     -4023.0199      3854.805     
      1700   292.6426      -42593.764     -2685.1606      6534.1951      3852.862     
      1800   310.44983     -42582.287      7005.1125      3824.2569      3850.9191    
      1900   310.86319     -42596.88       7349.2834     -1003.1348      3848.9761    
      2000   311.45004     -42589.201      13606.934     -3797.0748      3847.0332    
Loop time of 96.7926 on 16 procs for 2000 steps with 365 atoms

Performance: 0.893 ns/day, 26.887 hours/ns, 20.663 timesteps/s, 7.542 katom-step/s
99.2% CPU use with 8 MPI tasks x 2 OpenMP threads

MPI task timing breakdown:
Section |  min time  |  avg time  |  max time  |%varavg| %total
---------------------------------------------------------------
Pair    | 53.827     | 61.296     | 79.67      | 131.3 | 63.33
Bond    | 0.00059921 | 0.00067491 | 0.00075074 |   0.0 |  0.00
Neigh   | 4.3575     | 4.8608     | 6.209      |  34.8 |  5.02
Comm    | 0.746      | 19.142     | 26.62      | 235.2 | 19.78
Output  | 0.0042527  | 0.0070448  | 0.0084838  |   1.9 |  0.01
Modify  | 10.096     | 11.439     | 11.94      |  22.5 | 11.82
Other   |            | 0.04735    |            |       |  0.05

Nlocal:         45.625 ave          53 max          39 min
Histogram: 1 1 1 0 0 3 0 1 0 1
Nghost:         3304.5 ave        3353 max        3257 min
Histogram: 1 0 2 0 1 0 3 0 0 1
Neighs:        30257.6 ave       34771 max       26196 min
Histogram: 1 1 1 0 0 3 0 1 0 1

Total # of neighbors = 242061
Ave neighs/atom = 663.18082
Ave special neighs/atom = 0
Neighbor list builds = 200
Dangerous builds not checked
  using 2 OpenMP thread(s) per MPI task
Reading restart file ...
  restart file = 2 Aug 2023, LAMMPS = 2 Aug 2023
  restoring atom style full from restart
  triclinic box = (0 0 0) to (15.3172 13.8463 18.3222) with tilt (-7.7318 0.2463 -0.1382)
WARNING: Triclinic box skew is large. LAMMPS will run inefficiently. (src/domain.cpp:220)
  2 by 2 by 2 MPI processor grid
  pair style reaxff stores no restart info
  365 atoms
Finding 1-2 1-3 1-4 neighbors ...
  special bond factors lj:    0        0        0       
  special bond factors coul:  0        0        0       
     0 = max # of 1-2 neighbors
     0 = max # of 1-3 neighbors
     0 = max # of 1-4 neighbors
     1 = max # of special neighbors
  special bonds CPU = 0.000 seconds
  read_restart CPU = 0.002 seconds
*****Positive-deform 2 starts.*****
Neighbor list info ...
  update: every = 10 steps, delay = 0 steps, check = no
  max neighbors/atom: 2000, page size: 100000
  master list distance cutoff = 12
  ghost atom cutoff = 12
  binsize = 6, bins = 4 3 4
  2 neighbor lists, perpetual/occasional/extra = 2 0 0
  (1) pair reaxff, perpetual
      attributes: half, newton off, ghost
      pair build: half/bin/newtoff/ghost
      stencil: full/ghost/bin/3d
      bin: standard
  (2) fix qeq/reaxff, perpetual, copy from (1)
      attributes: half, newton off
      pair build: copy
      stencil: none
      bin: none
Setting up Verlet run ...
  Unit style    : real
  Current step  : 0
  Time step     : 0.5
Per MPI rank memory allocation (min/avg/max) = 128.6 | 129.8 | 130.7 Mbytes
   Step          Temp          PotEng         Press        f_avgp[1]        Volume    
         0   327.14105     -42511.226     -9749.0728      0              3885.8921    
       100   333.42373     -42530.949     -2140.0325     -5254.4483      3887.8351    
       200   303.16493     -42562.361     -15396.781     -4275.5592      3889.778     
       300   300.30661     -42569.908      6136.1757      65.871463      3891.721     
       400   290.86952     -42568.003     -16262.456     -1321.8128      3893.6639    
       500   287.04448     -42577.86      -6071.09       -2819.6799      3895.6069    
       600   296.67386     -42583.629     -3650.859       643.30987      3897.5498    
       700   292.4755      -42565.548      6524.5238     -7040.4897      3899.4927    
       800   300.19038     -42592.112     -14389.293     -5851.1318      3901.4357    
       900   328.5279      -42600.312      51.681886      696.46833      3903.3786    
      1000   305.00476     -42589.107     -5822.4366     -4310.7489      3905.3216    
      1100   296.39288     -42591.677     -3699.8381     -5450.1257      3907.2645    
      1200   327.47065     -42589.166     -3133.6981     -5980.2131      3909.2075    
      1300   310.78221     -42572.972      1819.1843     -2941.3865      3911.1504    
      1400   321.79103     -42577.484     -2063.203      -2682.2545      3913.0934    
      1500   313.11479     -42612.137     -15606.031     -13987.258      3915.0363    
      1600   322.25817     -42600.297     -11504.666     -7025.7617      3916.9793    
      1700   303.19567     -42607.263     -6716.3484     -2342.249       3918.9222    
      1800   310.03169     -42578.125     -3888.642      -5302.0025      3920.8651    
      1900   310.1189      -42582.66      -26307.335     -5100.5517      3922.8081    
      2000   298.67899     -42574.439      4350.9714     -5861.0946      3924.751     
Loop time of 94.8968 on 16 procs for 2000 steps with 365 atoms

Performance: 0.910 ns/day, 26.360 hours/ns, 21.076 timesteps/s, 7.693 katom-step/s
99.1% CPU use with 8 MPI tasks x 2 OpenMP threads

MPI task timing breakdown:
Section |  min time  |  avg time  |  max time  |%varavg| %total
---------------------------------------------------------------
Pair    | 53.031     | 62.215     | 78.044     | 117.0 | 65.56
Bond    | 0.00057943 | 0.00069375 | 0.00076686 |   0.0 |  0.00
Neigh   | 4.3207     | 4.9124     | 6.0416     |  30.1 |  5.18
Comm    | 0.72543    | 16.567     | 25.744     | 226.8 | 17.46
Output  | 0.0037746  | 0.0071173  | 0.0087145  |   2.3 |  0.01
Modify  | 10.03      | 11.152     | 11.744     |  20.0 | 11.75
Other   |            | 0.04264    |            |       |  0.04

Nlocal:         45.625 ave          53 max          39 min
Histogram: 1 1 1 0 1 1 1 1 0 1
Nghost:        3263.38 ave        3305 max        3219 min
Histogram: 1 2 0 0 1 0 0 1 2 1
Neighs:        29682.9 ave       34132 max       25680 min
Histogram: 1 1 1 0 1 1 1 1 0 1

Total # of neighbors = 237463
Ave neighs/atom = 650.58356
Ave special neighs/atom = 0
Neighbor list builds = 200
Dangerous builds not checked
  using 2 OpenMP thread(s) per MPI task
Reading restart file ...
  restart file = 2 Aug 2023, LAMMPS = 2 Aug 2023
  restoring atom style full from restart
  triclinic box = (0 0 0) to (15.3172 13.8463 18.3222) with tilt (-7.7318 0.2463 -0.1382)
WARNING: Triclinic box skew is large. LAMMPS will run inefficiently. (src/domain.cpp:220)
  2 by 2 by 2 MPI processor grid
  pair style reaxff stores no restart info
  365 atoms
Finding 1-2 1-3 1-4 neighbors ...
  special bond factors lj:    0        0        0       
  special bond factors coul:  0        0        0       
     0 = max # of 1-2 neighbors
     0 = max # of 1-3 neighbors
     0 = max # of 1-4 neighbors
     1 = max # of special neighbors
  special bonds CPU = 0.000 seconds
  read_restart CPU = 0.003 seconds
*****Negative-deform 3 starts.*****
Neighbor list info ...
  update: every = 10 steps, delay = 0 steps, check = no
  max neighbors/atom: 2000, page size: 100000
  master list distance cutoff = 12
  ghost atom cutoff = 12
  binsize = 6, bins = 4 3 4
  2 neighbor lists, perpetual/occasional/extra = 2 0 0
  (1) pair reaxff, perpetual
      attributes: half, newton off, ghost
      pair build: half/bin/newtoff/ghost
      stencil: full/ghost/bin/3d
      bin: standard
  (2) fix qeq/reaxff, perpetual, copy from (1)
      attributes: half, newton off
      pair build: copy
      stencil: none
      bin: none
Setting up Verlet run ...
  Unit style    : real
  Current step  : 0
  Time step     : 0.5
Per MPI rank memory allocation (min/avg/max) = 128.6 | 129.8 | 130.7 Mbytes
   Step          Temp          PotEng         Press        f_avgp[1]        Volume    
         0   327.14105     -42511.226     -9749.0728      0              3885.8921    
       100   333.42373     -42530.949     -2142.1736     -5254.8147      3883.9492    
       200   302.23305     -42570.096     -10656.814     -7058.6532      3882.0062    
       300   306.64667     -42572.415     -25995.171      39.923682      3880.0633    
       400   289.78985     -42590.923     -3512.5401     -137.64136      3878.1203    
       500   293.07449     -42590.11       8362.3829      699.07915      3876.1774    
       600   313.46044     -42601.364     -8559.3688      3251.9299      3874.2344    
       700   278.75669     -42587.9        5461.6147     -785.19315      3872.2915    
       800   303.98457     -42611.993     -390.8005      -1466.4176      3870.3486    
       900   276.13708     -42597.062      253.59773     -548.54416      3868.4056    
      1000   300.35741     -42614.096     -9065.4388     -5699.3033      3866.4627    
      1100   291.53451     -42580.031     -10316.651     -2819.5851      3864.5197    
      1200   301.15263     -42579.057     -5307.0459     -3255.3897      3862.5768    
      1300   308.88669     -42574.67      -3882.1639     -4586.5423      3860.6338    
      1400   310.02149     -42582.147      11395.701      4693.6646      3858.6909    
      1500   282.83017     -42612.803     -6522.9724     -5848.3143      3856.7479    
      1600   292.06061     -42604.775      2865.7551     -4657.3017      3854.805     
      1700   307.15198     -42596.35      -4619.9504     -110.66778      3852.862     
      1800   327.0863      -42577.547     -2358.1358      174.32015      3850.9191    
      1900   297.37149     -42589.841      1669.2264     -6684.7138      3848.9761    
      2000   325.89745     -42577.013      2201.9704     -637.00646      3847.0332    
Loop time of 96.2758 on 16 procs for 2000 steps with 365 atoms

Performance: 0.897 ns/day, 26.743 hours/ns, 20.774 timesteps/s, 7.582 katom-step/s
99.2% CPU use with 8 MPI tasks x 2 OpenMP threads

MPI task timing breakdown:
Section |  min time  |  avg time  |  max time  |%varavg| %total
---------------------------------------------------------------
Pair    | 53.648     | 62.762     | 78.916     | 119.3 | 65.19
Bond    | 0.00055439 | 0.00066977 | 0.00074636 |   0.0 |  0.00
Neigh   | 4.4132     | 4.921      | 6.1255     |  30.9 |  5.11
Comm    | 0.94068    | 17.086     | 26.172     | 228.6 | 17.75
Output  | 0.0040146  | 0.0060382  | 0.0071684  |   1.5 |  0.01
Modify  | 10.24      | 11.447     | 11.955     |  20.3 | 11.89
Other   |            | 0.05319    |            |       |  0.06

Nlocal:         45.625 ave          50 max          40 min
Histogram: 1 0 0 1 0 2 0 2 1 1
Nghost:        3326.25 ave        3389 max        3259 min
Histogram: 1 0 1 0 1 1 3 0 0 1
Neighs:        30271.9 ave       33004 max       26710 min
Histogram: 1 0 1 0 1 1 0 3 0 1

Total # of neighbors = 242175
Ave neighs/atom = 663.49315
Ave special neighs/atom = 0
Neighbor list builds = 200
Dangerous builds not checked
  using 2 OpenMP thread(s) per MPI task
Reading restart file ...
  restart file = 2 Aug 2023, LAMMPS = 2 Aug 2023
  restoring atom style full from restart
  triclinic box = (0 0 0) to (15.3172 13.8463 18.3222) with tilt (-7.7318 0.2463 -0.1382)
WARNING: Triclinic box skew is large. LAMMPS will run inefficiently. (src/domain.cpp:220)
  2 by 2 by 2 MPI processor grid
  pair style reaxff stores no restart info
  365 atoms
Finding 1-2 1-3 1-4 neighbors ...
  special bond factors lj:    0        0        0       
  special bond factors coul:  0        0        0       
     0 = max # of 1-2 neighbors
     0 = max # of 1-3 neighbors
     0 = max # of 1-4 neighbors
     1 = max # of special neighbors
  special bonds CPU = 0.000 seconds
  read_restart CPU = 0.003 seconds
*****Positive-deform 3 starts.*****
Neighbor list info ...
  update: every = 10 steps, delay = 0 steps, check = no
  max neighbors/atom: 2000, page size: 100000
  master list distance cutoff = 12
  ghost atom cutoff = 12
  binsize = 6, bins = 4 3 4
  2 neighbor lists, perpetual/occasional/extra = 2 0 0
  (1) pair reaxff, perpetual
      attributes: half, newton off, ghost
      pair build: half/bin/newtoff/ghost
      stencil: full/ghost/bin/3d
      bin: standard
  (2) fix qeq/reaxff, perpetual, copy from (1)
      attributes: half, newton off
      pair build: copy
      stencil: none
      bin: none
Setting up Verlet run ...
  Unit style    : real
  Current step  : 0
  Time step     : 0.5
Per MPI rank memory allocation (min/avg/max) = 128.6 | 129.8 | 130.7 Mbytes
   Step          Temp          PotEng         Press        f_avgp[1]        Volume    
         0   327.14105     -42511.226     -9749.0728      0              3885.8921    
       100   333.42373     -42530.949     -2140.0325     -5254.4483      3887.8351    
       200   299.46789     -42564.047     -14916.835     -6671.113       3889.778     
       300   308.69673     -42569.37      -1546.3148     -6340.9544      3891.721     
       400   325.72609     -42592.544      12260.64      -2313.1204      3893.6639    
       500   304.14242     -42578.121     -15518.49      -5750.9882      3895.6069    
       600   276.63366     -42586.759     -5426.2146     -4739.4991      3897.5498    
       700   297.25979     -42562.766     -4743.8332     -2539.1011      3899.4927    
       800   319.1473      -42575.598     -4349.1293     -1579.703       3901.4357    
       900   306.29388     -42581.407     -4179.8363     -738.60734      3903.3786    
      1000   299.40404     -42597.668     -977.93286     -3944.038       3905.3216    
      1100   307.74184     -42599.856     -2080.2894     -6071.9186      3907.2645    
      1200   301.46305     -42569.64      -9264.4368     -2800.0404      3909.2075    
      1300   291.04757     -42589.094     -8953.1546     -2511.7038      3911.1504    
      1400   312.24196     -42603.438     -7677.5575     -1965.5984      3913.0934    
      1500   317.80654     -42608.443     -30.058967     -3752.738       3915.0363    
      1600   319.92941     -42618.872     -12438.352     -508.62707      3916.9793    
      1700   312.83843     -42604.236     -10216.365     -3811.6028      3918.9222    
      1800   299.97135     -42564.097     -10703.734     -5953.2109      3920.8651    
      1900   285.35262     -42559.044      2656.0241     -2213.52        3922.8081    
      2000   296.40979     -42583.716      3556.2051     -4137.342       3924.751     
Loop time of 97.9723 on 16 procs for 2000 steps with 365 atoms

Performance: 0.882 ns/day, 27.215 hours/ns, 20.414 timesteps/s, 7.451 katom-step/s
99.0% CPU use with 8 MPI tasks x 2 OpenMP threads

MPI task timing breakdown:
Section |  min time  |  avg time  |  max time  |%varavg| %total
---------------------------------------------------------------
Pair    | 62.488     | 67.196     | 76.927     |  66.7 | 68.59
Bond    | 0.00062504 | 0.00069824 | 0.00079282 |   0.0 |  0.00
Neigh   | 4.8863     | 5.2428     | 5.8699     |  16.1 |  5.35
Comm    | 4.208      | 13.899     | 18.573     | 146.3 | 14.19
Output  | 0.0040731  | 0.0059971  | 0.0071324  |   1.5 |  0.01
Modify  | 10.809     | 11.445     | 11.829     |  11.0 | 11.68
Other   |            | 0.1819     |            |       |  0.19

Nlocal:         45.625 ave          52 max          43 min
Histogram: 1 2 2 2 0 0 0 0 0 1
Nghost:           3277 ave        3322 max        3233 min
Histogram: 1 0 1 2 0 1 1 1 0 1
Neighs:          29670 ave       33514 max       28257 min
Histogram: 3 1 2 1 0 0 0 0 0 1

Total # of neighbors = 237360
Ave neighs/atom = 650.30137
Ave special neighs/atom = 0
Neighbor list builds = 200
Dangerous builds not checked
  using 2 OpenMP thread(s) per MPI task
Reading restart file ...
  restart file = 2 Aug 2023, LAMMPS = 2 Aug 2023
  restoring atom style full from restart
  triclinic box = (0 0 0) to (15.3172 13.8463 18.3222) with tilt (-7.7318 0.2463 -0.1382)
WARNING: Triclinic box skew is large. LAMMPS will run inefficiently. (src/domain.cpp:220)
  2 by 2 by 2 MPI processor grid
  pair style reaxff stores no restart info
  365 atoms
Finding 1-2 1-3 1-4 neighbors ...
  special bond factors lj:    0        0        0       
  special bond factors coul:  0        0        0       
     0 = max # of 1-2 neighbors
     0 = max # of 1-3 neighbors
     0 = max # of 1-4 neighbors
     1 = max # of special neighbors
  special bonds CPU = 0.000 seconds
  read_restart CPU = 0.003 seconds
*****Negative-deform 4 starts.*****
Neighbor list info ...
  update: every = 10 steps, delay = 0 steps, check = no
  max neighbors/atom: 2000, page size: 100000
  master list distance cutoff = 12
  ghost atom cutoff = 12
  binsize = 6, bins = 4 3 4
  2 neighbor lists, perpetual/occasional/extra = 2 0 0
  (1) pair reaxff, perpetual
      attributes: half, newton off, ghost
      pair build: half/bin/newtoff/ghost
      stencil: full/ghost/bin/3d
      bin: standard
  (2) fix qeq/reaxff, perpetual, copy from (1)
      attributes: half, newton off
      pair build: copy
      stencil: none
      bin: none
Setting up Verlet run ...
  Unit style    : real
  Current step  : 0
  Time step     : 0.5
Per MPI rank memory allocation (min/avg/max) = 128.6 | 129.8 | 130.7 Mbytes
   Step          Temp          PotEng         Press        f_avgp[1]        Volume    
         0   327.14105     -42511.226     -9749.0728      0              3885.8921    
       100   333.42373     -42530.949     -2141.1025     -5254.6314      3885.8921    
       200   299.95726     -42559.699     -11654.33      -3799.8663      3885.8921    
       300   324.69912     -42581.674     -5785.1623     -4553.0894      3885.8921    
       400   317.65925     -42572.071      5488.743       2502.5039      3885.8921    
       500   303.45633     -42592.472      2386.0975     -105.87919      3885.8921    
       600   304.50243     -42595.649     -11651.122     -447.60076      3885.8921    
       700   303.83711     -42608.401      10726.484     -1685.0178      3885.8921    
       800   310.46795     -42571.239     -4139.6927      539.06971      3885.8921    
       900   302.05645     -42593.955     -4074.2368     -4644.601       3885.8921    
      1000   286.94557     -42587.373      5975.313       1477.0948      3885.8921    
      1100   292.34599     -42571.719     -1346.7574     -4399.4103      3885.8921    
      1200   297.10361     -42600.645     -11614.083     -3967.5387      3885.8921    
      1300   287.98594     -42564.662     -7187.0024      1355.9289      3885.8921    
      1400   306.99505     -42612.645     -13591.723      343.35464      3885.8921    
      1500   315.30683     -42602.846     -12725.725     -4518.5545      3885.8921    
      1600   302.22169     -42576.183     -8946.3058     -7844.6805      3885.8921    
      1700   313.398       -42576.413     -12939.583     -7609.5257      3885.8921    
      1800   321.53354     -42593.371     -12278.895     -1948.9744      3885.8921    
      1900   309.0295      -42576.915     -18497.948     -1121.3635      3885.8921    
      2000   313.12206     -42602.618      120.21272     -8913.2999      3885.8921    
Loop time of 103.223 on 16 procs for 2000 steps with 365 atoms

Performance: 0.837 ns/day, 28.673 hours/ns, 19.375 timesteps/s, 7.072 katom-step/s
98.9% CPU use with 8 MPI tasks x 2 OpenMP threads

MPI task timing breakdown:
Section |  min time  |  avg time  |  max time  |%varavg| %total
---------------------------------------------------------------
Pair    | 73.956     | 75.547     | 78.021     |  17.9 | 73.19
Bond    | 0.00066534 | 0.00074558 | 0.00084526 |   0.0 |  0.00
Neigh   | 5.6384     | 5.754      | 5.9713     |   4.1 |  5.57
Comm    | 7.6667     | 10.133     | 11.7       |  49.2 |  9.82
Output  | 0.0059175  | 0.011708   | 0.015859   |   3.4 |  0.01
Modify  | 11.217     | 11.454     | 11.585     |   3.2 | 11.10
Other   |            | 0.3229     |            |       |  0.31

Nlocal:         45.625 ave          53 max          39 min
Histogram: 2 0 1 1 0 0 0 3 0 1
Nghost:        3295.88 ave        3338 max        3255 min
Histogram: 2 0 0 1 1 1 1 0 1 1
Neighs:        29954.9 ave       34681 max       25708 min
Histogram: 2 0 0 2 0 0 2 1 0 1

Total # of neighbors = 239639
Ave neighs/atom = 656.54521
Ave special neighs/atom = 0
Neighbor list builds = 200
Dangerous builds not checked
  using 2 OpenMP thread(s) per MPI task
Reading restart file ...
  restart file = 2 Aug 2023, LAMMPS = 2 Aug 2023
  restoring atom style full from restart
  triclinic box = (0 0 0) to (15.3172 13.8463 18.3222) with tilt (-7.7318 0.2463 -0.1382)
WARNING: Triclinic box skew is large. LAMMPS will run inefficiently. (src/domain.cpp:220)
  2 by 2 by 2 MPI processor grid
  pair style reaxff stores no restart info
  365 atoms
Finding 1-2 1-3 1-4 neighbors ...
  special bond factors lj:    0        0        0       
  special bond factors coul:  0        0        0       
     0 = max # of 1-2 neighbors
     0 = max # of 1-3 neighbors
     0 = max # of 1-4 neighbors
     1 = max # of special neighbors
  special bonds CPU = 0.000 seconds
  read_restart CPU = 0.003 seconds
*****Positive-deform 4 starts.*****
Neighbor list info ...
  update: every = 10 steps, delay = 0 steps, check = no
  max neighbors/atom: 2000, page size: 100000
  master list distance cutoff = 12
  ghost atom cutoff = 12
  binsize = 6, bins = 4 3 4
  2 neighbor lists, perpetual/occasional/extra = 2 0 0
  (1) pair reaxff, perpetual
      attributes: half, newton off, ghost
      pair build: half/bin/newtoff/ghost
      stencil: full/ghost/bin/3d
      bin: standard
  (2) fix qeq/reaxff, perpetual, copy from (1)
      attributes: half, newton off
      pair build: copy
      stencil: none
      bin: none
Setting up Verlet run ...
  Unit style    : real
  Current step  : 0
  Time step     : 0.5
Per MPI rank memory allocation (min/avg/max) = 128.6 | 129.8 | 130.7 Mbytes
   Step          Temp          PotEng         Press        f_avgp[1]        Volume    
         0   327.14105     -42511.226     -9749.0728      0              3885.8921    
       100   333.42373     -42530.949     -2141.1025     -5254.6314      3885.8921    
       200   298.93485     -42560.707     -10949.671     -3392.7332      3885.8921    
       300   312.9481      -42558.565      12911.403     -390.68335      3885.8921    
       400   306.60633     -42576.456     -6299.7413     -3284.0673      3885.8921    
       500   311.75723     -42564.328     -6204.3808     -2058.6356      3885.8921    
       600   310.3035      -42562.753     -12911.271     -891.21978      3885.8921    
       700   309.01688     -42589.098      8009.8736     -3778.8992      3885.8921    
       800   290.19178     -42603.638      1785.8267      1784.1392      3885.8921    
       900   313.45461     -42624.406     -1330.2505     -3712.4506      3885.8921    
      1000   297.1384      -42607.79      -12194.044     -5165.8143      3885.8921    
      1100   292.71857     -42617.477     -11448.525     -336.78226      3885.8921    
      1200   286.40845     -42589.34       2023.6287      1880.0897      3885.8921    
      1300   304.84271     -42605.003     -1167.0499      5201.1417      3885.8921    
      1400   311.57515     -42599.017     -15050.856      3400.6032      3885.8921    
      1500   295.67583     -42595.218      3748.3682     -5434.827       3885.8921    
      1600   308.95696     -42615.285     -5707.0329     -1883.3082      3885.8921    
      1700   314.24233     -42591.177     -24835.328      185.37455      3885.8921    
      1800   303.03847     -42582.527     -9221.8859     -1309.6948      3885.8921    
      1900   294.67819     -42558.123      891.98418      2550.8297      3885.8921    
      2000   316.39906     -42561.146     -15520.867      6795.1544      3885.8921    
Loop time of 103.107 on 16 procs for 2000 steps with 365 atoms

Performance: 0.838 ns/day, 28.641 hours/ns, 19.397 timesteps/s, 7.080 katom-step/s
98.9% CPU use with 8 MPI tasks x 2 OpenMP threads

MPI task timing breakdown:
Section |  min time  |  avg time  |  max time  |%varavg| %total
---------------------------------------------------------------
Pair    | 73.587     | 75.475     | 77.19      |  12.9 | 73.20
Bond    | 0.00066144 | 0.00075137 | 0.00085822 |   0.0 |  0.00
Neigh   | 5.5152     | 5.7055     | 5.791      |   3.4 |  5.53
Comm    | 8.4751     | 10.206     | 12.151     |  35.7 |  9.90
Output  | 0.0062051  | 0.012319   | 0.016318   |   3.3 |  0.01
Modify  | 11.287     | 11.387     | 11.607     |   2.7 | 11.04
Other   |            | 0.3203     |            |       |  0.31

Nlocal:         45.625 ave          50 max          39 min
Histogram: 1 1 0 0 0 2 1 0 0 3
Nghost:           3291 ave        3333 max        3244 min
Histogram: 2 0 1 0 0 1 0 2 1 1
Neighs:        29971.9 ave       32563 max       25889 min
Histogram: 1 1 0 0 0 2 1 0 0 3

Total # of neighbors = 239775
Ave neighs/atom = 656.91781
Ave special neighs/atom = 0
Neighbor list builds = 200
Dangerous builds not checked
  using 2 OpenMP thread(s) per MPI task
Reading restart file ...
  restart file = 2 Aug 2023, LAMMPS = 2 Aug 2023
  restoring atom style full from restart
  triclinic box = (0 0 0) to (15.3172 13.8463 18.3222) with tilt (-7.7318 0.2463 -0.1382)
WARNING: Triclinic box skew is large. LAMMPS will run inefficiently. (src/domain.cpp:220)
  2 by 2 by 2 MPI processor grid
  pair style reaxff stores no restart info
  365 atoms
Finding 1-2 1-3 1-4 neighbors ...
  special bond factors lj:    0        0        0       
  special bond factors coul:  0        0        0       
     0 = max # of 1-2 neighbors
     0 = max # of 1-3 neighbors
     0 = max # of 1-4 neighbors
     1 = max # of special neighbors
  special bonds CPU = 0.000 seconds
  read_restart CPU = 0.003 seconds
*****Negative-deform 5 starts.*****
Neighbor list info ...
  update: every = 10 steps, delay = 0 steps, check = no
  max neighbors/atom: 2000, page size: 100000
  master list distance cutoff = 12
  ghost atom cutoff = 12
  binsize = 6, bins = 4 3 4
  2 neighbor lists, perpetual/occasional/extra = 2 0 0
  (1) pair reaxff, perpetual
      attributes: half, newton off, ghost
      pair build: half/bin/newtoff/ghost
      stencil: full/ghost/bin/3d
      bin: standard
  (2) fix qeq/reaxff, perpetual, copy from (1)
      attributes: half, newton off
      pair build: copy
      stencil: none
      bin: none
Setting up Verlet run ...
  Unit style    : real
  Current step  : 0
  Time step     : 0.5
Per MPI rank memory allocation (min/avg/max) = 128.6 | 129.8 | 130.7 Mbytes
   Step          Temp          PotEng         Press        f_avgp[1]        Volume    
         0   327.14105     -42511.226     -9749.0728      0              3885.8921    
       100   333.42373     -42530.949     -2141.1025     -5254.6314      3885.8921    
       200   300.83404     -42561.455     -9842.9962     -3611.7577      3885.8921    
       300   320.40446     -42552.59       9463.3352     -1236.3919      3885.8921    
       400   302.57954     -42572.81      -6813.2749     -2148.6941      3885.8921    
       500   297.28372     -42586.155     -2754.6266     -5172.9681      3885.8921    
       600   297.69619     -42582.339     -11076.245     -5385.4435      3885.8921    
       700   322.17272     -42584.913      2668.9942      349.25619      3885.8921    
       800   311.09099     -42600.588     -3756.6543      3221.9318      3885.8921    
       900   297.25523     -42583.002      17252.065      3150.0767      3885.8921    
      1000   278.37256     -42591.969     -8689.2215     -3428.0992      3885.8921    
      1100   286.04524     -42590.848     -6696.7272     -494.16399      3885.8921    
      1200   317.74933     -42597.079     -11951.152      5513.7031      3885.8921    
      1300   310.10734     -42582.988     -13568.138     -6675.2224      3885.8921    
      1400   315.87022     -42578.67      -1681.9267     -137.03415      3885.8921    
      1500   310.80669     -42571.095     -8960.8265     -4171.6738      3885.8921    
      1600   285.97171     -42562.913     -8354.4706     -469.33676      3885.8921    
      1700   305.9656      -42585.388      2795.5948     -4369.1969      3885.8921    
      1800   284.30177     -42573.413     -547.13176     -5771.8908      3885.8921    
      1900   301.44739     -42602.281     -10897.079     -958.89621      3885.8921    
      2000   287.66222     -42621.266     -8835.4526     -3116.8899      3885.8921    
Loop time of 103.466 on 16 procs for 2000 steps with 365 atoms

Performance: 0.835 ns/day, 28.741 hours/ns, 19.330 timesteps/s, 7.055 katom-step/s
98.8% CPU use with 8 MPI tasks x 2 OpenMP threads

MPI task timing breakdown:
Section |  min time  |  avg time  |  max time  |%varavg| %total
---------------------------------------------------------------
Pair    | 73.964     | 75.488     | 76.88      |  10.3 | 72.96
Bond    | 0.00068762 | 0.0007718  | 0.00092195 |   0.0 |  0.00
Neigh   | 5.5584     | 5.711      | 5.8199     |   3.4 |  5.52
Comm    | 9.0502     | 10.399     | 11.952     |  27.4 | 10.05
Output  | 0.0054728  | 0.017481   | 0.025565   |   5.7 |  0.02
Modify  | 11.32      | 11.522     | 11.69      |   3.5 | 11.14
Other   |            | 0.328      |            |       |  0.32

Nlocal:         45.625 ave          52 max          39 min
Histogram: 2 0 0 1 1 0 2 0 0 2
Nghost:           3277 ave        3323 max        3225 min
Histogram: 1 1 1 0 0 0 3 0 1 1
Neighs:        29955.5 ave       33765 max       25774 min
Histogram: 2 0 0 1 1 0 1 1 0 2

Total # of neighbors = 239644
Ave neighs/atom = 656.5589
Ave special neighs/atom = 0
Neighbor list builds = 200
Dangerous builds not checked
  using 2 OpenMP thread(s) per MPI task
Reading restart file ...
  restart file = 2 Aug 2023, LAMMPS = 2 Aug 2023
  restoring atom style full from restart
  triclinic box = (0 0 0) to (15.3172 13.8463 18.3222) with tilt (-7.7318 0.2463 -0.1382)
WARNING: Triclinic box skew is large. LAMMPS will run inefficiently. (src/domain.cpp:220)
  2 by 2 by 2 MPI processor grid
  pair style reaxff stores no restart info
  365 atoms
Finding 1-2 1-3 1-4 neighbors ...
  special bond factors lj:    0        0        0       
  special bond factors coul:  0        0        0       
     0 = max # of 1-2 neighbors
     0 = max # of 1-3 neighbors
     0 = max # of 1-4 neighbors
     1 = max # of special neighbors
  special bonds CPU = 0.000 seconds
  read_restart CPU = 0.003 seconds
*****Positive-deform 5 starts.*****
Neighbor list info ...
  update: every = 10 steps, delay = 0 steps, check = no
  max neighbors/atom: 2000, page size: 100000
  master list distance cutoff = 12
  ghost atom cutoff = 12
  binsize = 6, bins = 4 3 4
  2 neighbor lists, perpetual/occasional/extra = 2 0 0
  (1) pair reaxff, perpetual
      attributes: half, newton off, ghost
      pair build: half/bin/newtoff/ghost
      stencil: full/ghost/bin/3d
      bin: standard
  (2) fix qeq/reaxff, perpetual, copy from (1)
      attributes: half, newton off
      pair build: copy
      stencil: none
      bin: none
Setting up Verlet run ...
  Unit style    : real
  Current step  : 0
  Time step     : 0.5
Per MPI rank memory allocation (min/avg/max) = 128.6 | 129.8 | 130.7 Mbytes
   Step          Temp          PotEng         Press        f_avgp[1]        Volume    
         0   327.14105     -42511.226     -9749.0728      0              3885.8921    
       100   333.42373     -42530.949     -2141.1025     -5254.6314      3885.8921    
       200   297.57636     -42558.93      -11245.069     -3152.7027      3885.8921    
       300   319.47308     -42563.942      9008.0257     -2302.8423      3885.8921    
       400   320.87224     -42544.563     -3934.5987     -2963.9835      3885.8921    
       500   301.98131     -42557.101     -15439.955     -4966.1023      3885.8921    
       600   302.39948     -42550.41      -8696.7114     -2693.1421      3885.8921    
       700   308.40529     -42578.309     -9711.1955     -8565.5891      3885.8921    
       800   304.73684     -42569.83       3819.1732      2434.4029      3885.8921    
       900   314.06096     -42581.102      808.85953     -2110.2473      3885.8921    
      1000   309.82818     -42577.865      2354.5261     -4158.204       3885.8921    
      1100   321.64546     -42589.875      5290.869      -4342.7206      3885.8921    
      1200   296.33386     -42585.165      4786.118       3328.4512      3885.8921    
      1300   287.26972     -42609.932      4014.9483     -3999.2394      3885.8921    
      1400   311.62689     -42582.852      408.04657      346.94281      3885.8921    
      1500   313.72214     -42609.438     -5098.6929      3211.9363      3885.8921    
      1600   312.12169     -42580.13      -5117.5346     -3067.5629      3885.8921    
      1700   331.64143     -42604.84      -7107.3938     -2058.954       3885.8921    
      1800   292.79561     -42591.712     -6934.1781     -3259.2229      3885.8921    
      1900   296.85257     -42596.932     -5942.9234     -2306.1748      3885.8921    
      2000   298.25025     -42587.776      1588.4119     -6394.0451      3885.8921    
Loop time of 100.684 on 16 procs for 2000 steps with 365 atoms

Performance: 0.858 ns/day, 27.968 hours/ns, 19.864 timesteps/s, 7.250 katom-step/s
99.0% CPU use with 8 MPI tasks x 2 OpenMP threads

MPI task timing breakdown:
Section |  min time  |  avg time  |  max time  |%varavg| %total
---------------------------------------------------------------
Pair    | 68.815     | 71.468     | 77.915     |  32.6 | 70.98
Bond    | 0.00064062 | 0.0007264  | 0.00077634 |   0.0 |  0.00
Neigh   | 5.3707     | 5.5673     | 5.9158     |   7.2 |  5.53
Comm    | 5.4732     | 11.926     | 14.582     |  79.9 | 11.84
Output  | 0.0045057  | 0.0073836  | 0.010102   |   2.3 |  0.01
Modify  | 11.157     | 11.479     | 11.707     |   4.8 | 11.40
Other   |            | 0.2358     |            |       |  0.23

Nlocal:         45.625 ave          51 max          41 min
Histogram: 1 1 0 1 1 1 1 0 1 1
Nghost:        3282.75 ave        3312 max        3246 min
Histogram: 1 1 0 0 1 1 1 1 0 2
Neighs:        29973.4 ave       33120 max       27235 min
Histogram: 2 0 1 0 2 0 1 0 1 1

Total # of neighbors = 239787
Ave neighs/atom = 656.95068
Ave special neighs/atom = 0
Neighbor list builds = 200
Dangerous builds not checked
  using 2 OpenMP thread(s) per MPI task
Reading restart file ...
  restart file = 2 Aug 2023, LAMMPS = 2 Aug 2023
  restoring atom style full from restart
  triclinic box = (0 0 0) to (15.3172 13.8463 18.3222) with tilt (-7.7318 0.2463 -0.1382)
WARNING: Triclinic box skew is large. LAMMPS will run inefficiently. (src/domain.cpp:220)
  2 by 2 by 2 MPI processor grid
  pair style reaxff stores no restart info
  365 atoms
Finding 1-2 1-3 1-4 neighbors ...
  special bond factors lj:    0        0        0       
  special bond factors coul:  0        0        0       
     0 = max # of 1-2 neighbors
     0 = max # of 1-3 neighbors
     0 = max # of 1-4 neighbors
     1 = max # of special neighbors
  special bonds CPU = 0.000 seconds
  read_restart CPU = 0.003 seconds
*****Negative-deform 6 starts.*****
Neighbor list info ...
  update: every = 10 steps, delay = 0 steps, check = no
  max neighbors/atom: 2000, page size: 100000
  master list distance cutoff = 12
  ghost atom cutoff = 12
  binsize = 6, bins = 4 3 4
  2 neighbor lists, perpetual/occasional/extra = 2 0 0
  (1) pair reaxff, perpetual
      attributes: half, newton off, ghost
      pair build: half/bin/newtoff/ghost
      stencil: full/ghost/bin/3d
      bin: standard
  (2) fix qeq/reaxff, perpetual, copy from (1)
      attributes: half, newton off
      pair build: copy
      stencil: none
      bin: none
Setting up Verlet run ...
  Unit style    : real
  Current step  : 0
  Time step     : 0.5
Per MPI rank memory allocation (min/avg/max) = 128.6 | 129.8 | 130.7 Mbytes
   Step          Temp          PotEng         Press        f_avgp[1]        Volume    
         0   327.14105     -42511.226     -9749.0728      0              3885.8921    
       100   333.42373     -42530.949     -2141.1025     -5254.6314      3885.8921    
       200   304.5347      -42564.721     -14623.983     -4136.0392      3885.8921    
       300   294.79655     -42555.813      4896.4624     -582.99472      3885.8921    
       400   325.91022     -42558.021     -5920.967      -1348.3677      3885.8921    
       500   310.98048     -42568.642     -6924.5417     -4511.3831      3885.8921    
       600   313.73089     -42584.044     -5986.4603     -1698.2332      3885.8921    
       700   329.08688     -42587.747     -12335.363     -2692.4372      3885.8921    
       800   298.31486     -42584.922      3547.8749      2091.361       3885.8921    
       900   302.18337     -42607.396     -130.49616      1982.5686      3885.8921    
      1000   305.81149     -42595.86      -8215.5196      197.70553      3885.8921    
      1100   276.27526     -42597.697     -11531.852     -5061.4373      3885.8921    
      1200   292.04905     -42599.923     -9357.3999     -1686.737       3885.8921    
      1300   289.23571     -42585.496     -5329.0401     -1799.0807      3885.8921    
      1400   284.60932     -42614.479     -633.25306     -7681.767       3885.8921    
      1500   297.81465     -42625.823     -5426.9967     -4463.9545      3885.8921    
      1600   296.51535     -42619.934     -2434.0162     -6827.6374      3885.8921    
      1700   288.05328     -42616.653      4372.3223     -556.56021      3885.8921    
      1800   290.98488     -42612.083     -10166.926     -3315.1334      3885.8921    
      1900   296.14892     -42608.389     -9039.018      -8753.5093      3885.8921    
      2000   302.56339     -42582.158     -1196.0955      1651.0532      3885.8921    
Loop time of 94.8019 on 16 procs for 2000 steps with 365 atoms

Performance: 0.911 ns/day, 26.334 hours/ns, 21.097 timesteps/s, 7.700 katom-step/s
99.1% CPU use with 8 MPI tasks x 2 OpenMP threads

MPI task timing breakdown:
Section |  min time  |  avg time  |  max time  |%varavg| %total
---------------------------------------------------------------
Pair    | 58.238     | 63.961     | 68.551     |  38.7 | 67.47
Bond    | 0.00062339 | 0.00069359 | 0.00081448 |   0.0 |  0.00
Neigh   | 4.7913     | 5.1681     | 5.5429     |  11.0 |  5.45
Comm    | 10.192     | 14.79      | 20.535     |  80.7 | 15.60
Output  | 0.00533    | 0.007077   | 0.0081837  |   1.2 |  0.01
Modify  | 10.417     | 10.79      | 11.16      |   7.6 | 11.38
Other   |            | 0.0853     |            |       |  0.09

Nlocal:         45.625 ave          56 max          40 min
Histogram: 2 1 2 0 0 2 0 0 0 1
Nghost:        3284.25 ave        3335 max        3231 min
Histogram: 2 0 1 0 0 1 1 1 1 1
Neighs:        29966.1 ave       36221 max       26409 min
Histogram: 2 1 2 0 0 2 0 0 0 1

Total # of neighbors = 239729
Ave neighs/atom = 656.79178
Ave special neighs/atom = 0
Neighbor list builds = 200
Dangerous builds not checked
  using 2 OpenMP thread(s) per MPI task
Reading restart file ...
  restart file = 2 Aug 2023, LAMMPS = 2 Aug 2023
  restoring atom style full from restart
  triclinic box = (0 0 0) to (15.3172 13.8463 18.3222) with tilt (-7.7318 0.2463 -0.1382)
WARNING: Triclinic box skew is large. LAMMPS will run inefficiently. (src/domain.cpp:220)
  2 by 2 by 2 MPI processor grid
  pair style reaxff stores no restart info
  365 atoms
Finding 1-2 1-3 1-4 neighbors ...
  special bond factors lj:    0        0        0       
  special bond factors coul:  0        0        0       
     0 = max # of 1-2 neighbors
     0 = max # of 1-3 neighbors
     0 = max # of 1-4 neighbors
     1 = max # of special neighbors
  special bonds CPU = 0.000 seconds
  read_restart CPU = 0.003 seconds
*****Positive-deform 6 starts.*****
Neighbor list info ...
  update: every = 10 steps, delay = 0 steps, check = no
  max neighbors/atom: 2000, page size: 100000
  master list distance cutoff = 12
  ghost atom cutoff = 12
  binsize = 6, bins = 4 3 4
  2 neighbor lists, perpetual/occasional/extra = 2 0 0
  (1) pair reaxff, perpetual
      attributes: half, newton off, ghost
      pair build: half/bin/newtoff/ghost
      stencil: full/ghost/bin/3d
      bin: standard
  (2) fix qeq/reaxff, perpetual, copy from (1)
      attributes: half, newton off
      pair build: copy
      stencil: none
      bin: none
Setting up Verlet run ...
  Unit style    : real
  Current step  : 0
  Time step     : 0.5
Per MPI rank memory allocation (min/avg/max) = 128.6 | 129.8 | 130.7 Mbytes
   Step          Temp          PotEng         Press        f_avgp[1]        Volume    
         0   327.14105     -42511.226     -9749.0728      0              3885.8921    
       100   333.42373     -42530.949     -2141.1025     -5254.6314      3885.8921    
       200   297.5328      -42558.887     -10967.088     -3221.2937      3885.8921    
       300   319.28943     -42554.543      9034.1276     -1383.8025      3885.8921    
       400   322.98259     -42575.402     -5486.4302     -1372.8383      3885.8921    
       500   296.85543     -42580.671     -13193.212     -2955.2971      3885.8921    
       600   321.56626     -42615.58      -7360.5889     -2658.8813      3885.8921    
       700   311.7761      -42582.805     -4046.4835      1193.0124      3885.8921    
       800   300.13681     -42570.739     -548.0668       2914.0795      3885.8921    
       900   314.70865     -42564.249     -11351.054     -4244.2365      3885.8921    
      1000   306.98308     -42588.755     -8119.3554     -2638.6483      3885.8921    
      1100   293.79169     -42565.013     -13821.16      -7063.8926      3885.8921    
      1200   305.79077     -42601.725      5813.2635     -874.31589      3885.8921    
      1300   297.92721     -42608.031     -78.83449      -2688.2545      3885.8921    
      1400   291.63351     -42600.697     -1846.4275      1351.0008      3885.8921    
      1500   298.15665     -42577.143     -3499.1125      3230.9077      3885.8921    
      1600   314.53116     -42587.85      -3949.7556     -2034.8913      3885.8921    
      1700   305.52992     -42600.178     -13418.184      1705.4479      3885.8921    
      1800   312.6294      -42610.936     -8079.5544      1893.888       3885.8921    
      1900   309.33477     -42584.492     -21449.272     -1381.1818      3885.8921    
      2000   305.70623     -42591.004     -14963.112     -7095.2302      3885.8921    
Loop time of 80.7094 on 16 procs for 2000 steps with 365 atoms

Performance: 1.071 ns/day, 22.419 hours/ns, 24.780 timesteps/s, 9.045 katom-step/s
99.3% CPU use with 8 MPI tasks x 2 OpenMP threads

MPI task timing breakdown:
Section |  min time  |  avg time  |  max time  |%varavg| %total
---------------------------------------------------------------
Pair    | 53.314     | 55.48      | 56.571     |  13.4 | 68.74
Bond    | 0.00058977 | 0.00065937 | 0.00071877 |   0.0 |  0.00
Neigh   | 4.5191     | 4.5858     | 4.6712     |   2.2 |  5.68
Comm    | 10.021     | 11.108     | 13.258     |  29.7 | 13.76
Output  | 0.0034579  | 0.0065572  | 0.0080906  |   2.2 |  0.01
Modify  | 9.3794     | 9.4711     | 9.5439     |   1.6 | 11.73
Other   |            | 0.05746    |            |       |  0.07

Nlocal:         45.625 ave          51 max          41 min
Histogram: 1 0 2 0 0 1 3 0 0 1
Nghost:        3281.12 ave        3344 max        3227 min
Histogram: 1 1 0 1 1 2 1 0 0 1
Neighs:        29970.8 ave       33318 max       26958 min
Histogram: 1 0 2 0 1 0 3 0 0 1

Total # of neighbors = 239766
Ave neighs/atom = 656.89315
Ave special neighs/atom = 0
Neighbor list builds = 200
Dangerous builds not checked
Total wall time: 0:21:03
