LAMMPS (2 Aug 2023 - Update 2)
  using 2 OpenMP thread(s) per MPI task
Reading data file ...
  triclinic box = (0 0 0) to (15.724 13.9031 17.2465) with tilt (-7.584 0.1778 0.4371)
WARNING: Triclinic box skew is large. LAMMPS will run inefficiently. (src/domain.cpp:220)
  1 by 2 by 2 MPI processor grid
  reading atoms ...
  366 atoms
Finding 1-2 1-3 1-4 neighbors ...
  special bond factors lj:    0        0        0       
  special bond factors coul:  0        0        0       
     0 = max # of 1-2 neighbors
     0 = max # of 1-3 neighbors
     0 = max # of 1-4 neighbors
     1 = max # of special neighbors
  special bonds CPU = 0.000 seconds
  read_data CPU = 0.005 seconds
WARNING: Van der Waals parameters for element SI indicate inner wall+shielding, but earlier atoms indicate a different van der Waals method. This may cause division-by-zero errors. Keeping van der Waals setting for earlier atoms. (src/REAXFF/reaxff_ffield.cpp:251)
*****Minimization starts.*****

CITE-CITE-CITE-CITE-CITE-CITE-CITE-CITE-CITE-CITE-CITE-CITE-CITE

Your simulation uses code contributions which should be cited:
- pair reaxff command: doi:10.1016/j.parco.2011.08.005
- fix qeq/reaxff command: doi:10.1016/j.parco.2011.08.005
The log file lists these citations in BibTeX format.

CITE-CITE-CITE-CITE-CITE-CITE-CITE-CITE-CITE-CITE-CITE-CITE-CITE

Switching to 'neigh_modify every 1 delay 0 check yes' setting during minimization
WARNING: Fix qeq/reaxff group is not charge neutral, net charge = -29.52 (src/REAXFF/fix_qeq_reaxff.cpp:392)
Neighbor list info ...
  update: every = 1 steps, delay = 0 steps, check = yes
  max neighbors/atom: 2000, page size: 100000
  master list distance cutoff = 12
  ghost atom cutoff = 12
  binsize = 6, bins = 4 3 3
  2 neighbor lists, perpetual/occasional/extra = 2 0 0
  (1) pair reaxff, perpetual
      attributes: half, newton off, ghost
      pair build: half/bin/newtoff/ghost
      stencil: full/ghost/bin/3d
      bin: standard
  (2) fix qeq/reaxff, perpetual, copy from (1)
      attributes: half, newton off
      pair build: copy
      stencil: none
      bin: none
Setting up cg style minimization ...
  Unit style    : real
  Current step  : 0
Per MPI rank memory allocation (min/avg/max) = 164.2 | 165.9 | 167.4 Mbytes
   Step          Temp          Press         Density         Volume         PotEng         TotEng    
         0   0             -891.25897      1.8952586      3770.2978     -40261.317     -40261.317    
        43   0             -15924.322      1.8952586      3770.2978     -41381.081     -41381.081    
Loop time of 11.7807 on 8 procs for 43 steps with 366 atoms

88.3% CPU use with 4 MPI tasks x 2 OpenMP threads

Minimization stats:
  Stopping criterion = energy tolerance
  Energy initial, next-to-last, final = 
     -40261.3171097201  -41381.0564689357  -41381.0806981587
  Force two-norm initial, final = 1496.093 147.47464
  Force max component initial, final = 339.9256 68.09964
  Final line search alpha, max atom move = 0.0078573473 0.53508252
  Iterations, force evaluations = 43 133

MPI task timing breakdown:
Section |  min time  |  avg time  |  max time  |%varavg| %total
---------------------------------------------------------------
Pair    | 6.8036     | 7.1056     | 7.3756     |   9.7 | 60.32
Bond    | 0.00035919 | 0.00036766 | 0.00037379 |   0.0 |  0.00
Neigh   | 0          | 0          | 0          |   0.0 |  0.00
Comm    | 1.8303     | 2.1468     | 2.5019     |  18.2 | 18.22
Output  | 0.014262   | 0.01894    | 0.022869   |   2.3 |  0.16
Modify  | 2.2907     | 2.3099     | 2.3213     |   0.8 | 19.61
Other   |            | 0.199      |            |       |  1.69

Nlocal:           91.5 ave          93 max          88 min
Histogram: 1 0 0 0 0 0 0 0 1 2
Nghost:         4172.5 ave        4209 max        4132 min
Histogram: 1 1 0 0 0 0 0 0 0 2
Neighs:        60451.5 ave       61385 max       58229 min
Histogram: 1 0 0 0 0 0 0 0 1 2

Total # of neighbors = 241806
Ave neighs/atom = 660.67213
Ave special neighs/atom = 0
Neighbor list builds = 0
Dangerous builds = 0
System init for write_data ...
##### Equilibration starts.##### 
WARNING: Compute rdf cutoff less than neighbor cutoff - forcing a needless neighbor list build (src/compute_rdf.cpp:179)
Neighbor list info ...
  update: every = 10 steps, delay = 0 steps, check = yes
  max neighbors/atom: 2000, page size: 100000
  master list distance cutoff = 12
  ghost atom cutoff = 12
  binsize = 6, bins = 4 3 3
  3 neighbor lists, perpetual/occasional/extra = 2 1 0
  (1) pair reaxff, perpetual
      attributes: half, newton off, ghost
      pair build: half/bin/newtoff/ghost
      stencil: full/ghost/bin/3d
      bin: standard
  (2) compute rdf, occasional
      attributes: half, newton on, cut 7
      pair build: half/bin/newton/tri
      stencil: half/bin/3d/tri
      bin: standard
  (3) fix qeq/reaxff, perpetual, copy from (1)
      attributes: half, newton off
      pair build: copy
      stencil: none
      bin: none
Setting up Verlet run ...
  Unit style    : real
  Current step  : 0
  Time step     : 0.5
Per MPI rank memory allocation (min/avg/max) = 169.5 | 170.7 | 171.9 Mbytes
   Step          Temp          Press          PotEng         TotEng    
         0   300           -11967.819     -41381.081     -41054.682    
       100   203.70863      867.79998     -41238.058     -41016.424    
       200   222.91521     -4827.7919     -41196.676     -40954.145    
       300   272.84696     -14817.273     -41181.715     -40884.859    
       400   279.31576     -5457.2655     -41129.574     -40825.68     
       500   311.07313      6327.0836     -41129.212     -40790.766    
       600   297.50023     -777.65664     -41120.456     -40796.778    
       700   288.39378     -2063.5353     -41133.044     -40819.273    
       800   287.12494     -6599.792      -41136.46      -40824.07     
       900   307.58459     -9787.6895     -41145.72      -40811.069    
      1000   317.05465     -1178.0557     -41131.407     -40786.453    
      1100   324.21594      624.10505     -41122.898     -40770.152    
      1200   281.99964     -6011.0428     -41097.709     -40790.895    
      1300   295.03949     -5429.4308     -41132.136     -40811.135    
      1400   300.4173      -10183.621     -41150.789     -40823.936    
      1500   269.84389     -2261.0274     -41135.7       -40842.111    
      1600   310.48443     -298.31225     -41165.262     -40827.457    
      1700   319.39699      32.02485      -41147.199     -40799.696    
      1800   303.74914     -677.99715     -41130.705     -40800.227    
      1900   302.38949     -14177.897     -41138.352     -40809.354    
      2000   295.03905      57.159901     -41141.95      -40820.948    
      2100   280.48945     -14228.844     -41142.991     -40837.82     
      2200   272.06957     -3112.5814     -41140.237     -40844.226    
      2300   302.52618      1219.9462     -41148.68      -40819.533    
      2400   299.75986     -3541.2355     -41123.134     -40796.997    
      2500   295.21558     -2287.2333     -41104.098     -40782.905    
      2600   315.86848     -10874.988     -41124.056     -40780.392    
      2700   303.51745     -11919.398     -41142.208     -40811.982    
      2800   276.11481     -11407.376     -41142.834     -40842.422    
      2900   295.85484     -6455.1676     -41150.632     -40828.743    
      3000   289.85913     -7541.5258     -41116.07      -40800.704    
      3100   304.49164     -7660.4981     -41113.388     -40782.103    
      3200   295.3095      -4288.6466     -41106.907     -40785.611    
      3300   279.93819      1299.5709     -41112.947     -40808.376    
      3400   294.09024     -2656.4069     -41144.719     -40824.75     
      3500   289.36321     -2279.6184     -41136.387     -40821.561    
      3600   293.02109      5411.8503     -41109.404     -40790.598    
      3700   297.01528     -5544.0545     -41094.559     -40771.408    
      3800   306.90498     -7904.9697     -41115.193     -40781.282    
      3900   298.44769     -6295.5393     -41133.473     -40808.763    
      4000   283.26577     -16315.385     -41128.343     -40820.151    
      4100   302.68685     -13364.418     -41142.871     -40813.549    
      4200   314.77479     -4692.0313     -41142.47      -40799.996    
      4300   308.38176      2466.3418     -41135.18      -40799.662    
      4400   306.90205     -11289.521     -41138.014     -40804.106    
      4500   292.05638     -6856.452      -41123.248     -40805.491    
      4600   310.48066     -11551.602     -41137.72      -40799.919    
      4700   314.19611     -4076.116      -41121.15      -40779.306    
      4800   320.14186      6445.1489     -41104.712     -40756.399    
      4900   303.9312      -8532.1892     -41107.131     -40776.456    
      5000   299.97215     -1902.1951     -41127.104     -40800.736    
      5100   289.01878     -4396.7449     -41127.606     -40813.154    
      5200   287.42253     -8213.7352     -41128.741     -40816.026    
      5300   291.46348      4380.0203     -41114.813     -40797.702    
      5400   309.90219     -1704.4617     -41108.207     -40771.035    
      5500   322.35994     -860.60962     -41129.711     -40778.985    
      5600   305.56276     -1859.7405     -41131.857     -40799.406    
      5700   305.41858     -1200.9353     -41142.175     -40809.88     
      5800   287.77355     -10948.055     -41124.972     -40811.876    
      5900   311.32337     -4348.9291     -41142.341     -40803.623    
      6000   290.82286     -5931.3407     -41126.161     -40809.747    
      6100   294.61013     -6169.5325     -41148.732     -40828.197    
      6200   276.77564     -9212.7507     -41156.706     -40855.575    
      6300   282.00048     -10808.892     -41162.053     -40855.238    
      6400   299.66404     -3461.6151     -41142.753     -40816.72     
      6500   292.77053     -6487.7784     -41126.243     -40807.71     
      6600   303.2454       811.11006     -41130.778     -40800.848    
      6700   288.91557     -9324.1439     -41105.762     -40791.423    
      6800   309.49299     -2798.4856     -41117.539     -40780.812    
      6900   295.25051     -5689.7369     -41101.217     -40779.986    
      7000   284.80591     -11920.64      -41105.919     -40796.051    
      7100   296.16484     -11015.364     -41139.814     -40817.588    
      7200   304.08298     -7182.0314     -41147.635     -40816.794    
      7300   313.41115      2611.62       -41144.286     -40803.296    
      7400   301.01787     -3875.9558     -41102.521     -40775.015    
      7500   295.82352      7149.7165     -41102.941     -40781.087    
      7600   298.76436     -2330.5461     -41138.773     -40813.719    
      7700   298.63245      4568.6322     -41150.076     -40825.165    
      7800   283.10401      209.79501     -41126.513     -40818.497    
      7900   293.36208     -7798.7635     -41125.209     -40806.032    
      8000   296.58662      4494.2467     -41117.581     -40794.896    
      8100   312.10094     -827.65049     -41112.548     -40772.983    
      8200   328.82154     -10917.908     -41102.015     -40744.259    
      8300   319.07997     -4142.0015     -41112.035     -40764.877    
      8400   302.97577     -831.66132     -41127.765     -40798.128    
      8500   281.57193      404.05589     -41112.187     -40805.838    
      8600   299.63955     -10404.44      -41137.977     -40811.97     
      8700   290.58372     -7247.0788     -41140.16      -40824.006    
      8800   274.99943     -11326.685     -41126.077     -40826.878    
      8900   292.62237     -4566.489      -41119.506     -40801.134    
      9000   322.03879      6972.1667     -41136.175     -40785.798    
      9100   314.92255     -3669.3374     -41145.516     -40802.881    
      9200   280.29814     -3975.9934     -41125.506     -40820.543    
      9300   304.85631     -969.42944     -41143.426     -40811.744    
      9400   310.56366     -4486.391      -41124.309     -40786.417    
      9500   322.41535     -1736.2097     -41112.531     -40761.744    
      9600   325.97983     -4203.0254     -41143.314     -40788.649    
      9700   303.14276      8656.4578     -41146.388     -40816.57     
      9800   300.58597     -4165.1507     -41151.98      -40824.944    
      9900   280.50568     -844.78185     -41122.956     -40817.768    
     10000   319.62306     -6356.5459     -41134.326     -40786.577    
     10100   315.51525     -4984.1068     -41119.878     -40776.599    
     10200   321.4117       9313.3746     -41136.662     -40786.967    
     10300   295.13017      619.68787     -41122.879     -40801.779    
     10400   301.94517     -13067.047     -41136.914     -40808.399    
     10500   298.40023     -6825.5821     -41140.562     -40815.903    
     10600   285.76272      2828.122      -41128.272     -40817.364    
     10700   287.47995      7177.983      -41122.134     -40809.357    
     10800   317.36883     -1092.97       -41132.513     -40787.217    
     10900   310.06496      8183.968      -41121.519     -40784.17     
     11000   316.56758     -4325.631      -41155.107     -40810.683    
     11100   286.9426      -5365.1219     -41146.814     -40834.622    
     11200   271.73193     -3049.2698     -41125.207     -40829.564    
     11300   304.54894      3183.1231     -41145.591     -40814.243    
     11400   307.38825     -5883.8943     -41142.262     -40807.825    
     11500   289.86261     -10806.041     -41124.263     -40808.893    
     11600   315.0662       638.66328     -41145.326     -40802.536    
     11700   313.38621     -4845.3754     -41129.514     -40788.552    
     11800   298.72852      329.69126     -41111.529     -40786.514    
     11900   301.06453      1598.0478     -41130.771     -40803.214    
     12000   294.86451     -904.30954     -41147.184     -40826.373    
     12100   288.15646     -3756.9658     -41141.552     -40828.039    
     12200   313.0645      -8648.0937     -41138.652     -40798.039    
     12300   303.46846     -7165.4201     -41115.885     -40785.713    
     12400   330.37042     -10225.672     -41149.091     -40789.65     
     12500   317.96484     -3469.8723     -41155.469     -40809.525    
     12600   284.20129     -1499.1669     -41134.646     -40825.436    
     12700   287.53604     -4137.1439     -41124.758     -40811.92     
     12800   322.93181     -5433.5985     -41136.842     -40785.494    
     12900   303.49925     -1424.222      -41114.891     -40784.686    
     13000   288.136       -5297.7188     -41108.859     -40795.368    
     13100   306.55512     -7095.2895     -41151.16      -40817.63     
     13200   289.38509      3951.7961     -41145.698     -40830.848    
     13300   305.90682     -3794.0474     -41155.561     -40822.735    
     13400   305.44269     -6652.5171     -41117.465     -40785.145    
     13500   328.46246     -854.73904     -41131.83      -40774.464    
     13600   303.32819      5328.0105     -41121.099     -40791.079    
     13700   302.07324     -2781.1452     -41127.661     -40799.007    
     13800   302.16206      9024.0426     -41133.283     -40804.532    
     13900   289.996        4765.6848     -41140.485     -40824.97     
     14000   265.13665     -11600.826     -41145.039     -40856.571    
     14100   283.11241      1938.473      -41156.788     -40848.763    
     14200   295.35961     -8545.6919     -41145.092     -40823.742    
     14300   297.97587     -8916.054      -41139.33      -40815.133    
     14400   315.2494       340.93596     -41145.372     -40802.382    
     14500   309.70264      3121.7723     -41133.398     -40796.443    
     14600   300.50393      7768.7692     -41129.743     -40802.796    
     14700   293.59118     -2635.7938     -41155.817     -40836.391    
     14800   299.67958     -6497.9707     -41160.136     -40834.086    
     14900   293.25128      5853.913      -41128.805     -40809.748    
     15000   312.94284     -5458.6883     -41132.109     -40791.628    
     15100   284.37391     -5998.8278     -41103.135     -40793.737    
     15200   306.84394      4397.1428     -41132.043     -40798.198    
     15300   289.05342      4358.0162     -41141.68      -40827.191    
     15400   270.68844     -400.60768     -41144.574     -40850.067    
     15500   295.33708      852.64947     -41152.096     -40830.77     
     15600   286.25008     -2038.2349     -41120.949     -40809.51     
     15700   291.91411     -5804.0942     -41112.275     -40794.673    
     15800   329.3405      -6405.2512     -41146.859     -40788.538    
     15900   275.15414      2038.7004     -41121.439     -40822.072    
     16000   276.36398     -4964.282      -41138.98      -40838.297    
     16100   292.1085      -5993.8137     -41146.68      -40828.867    
     16200   298.60118      2966.3721     -41140.976     -40816.099    
     16300   310.23759     -3671.252      -41135.914     -40798.376    
     16400   304.92144     -8931.722      -41108.405     -40776.652    
     16500   322.91319      7489.6806     -41095.151     -40743.822    
     16600   327.21504      5641.3311     -41119.116     -40763.108    
     16700   322.5221      -12251.236     -41146.163     -40795.26     
     16800   301.94697      15448.423     -41138.818     -40810.301    
     16900   300.74913     -1638.4377     -41147.571     -40820.357    
     17000   302.09184      5324.282      -41146.472     -40817.798    
     17100   299.67994      6131.7453     -41117.952     -40791.901    
     17200   305.81052      2940.9757     -41108.739     -40776.018    
     17300   328.34199     -6081.9527     -41144.97      -40787.735    
     17400   285.71007      373.43269     -41127.858     -40817.006    
     17500   295.54901     -11395.108     -41140.755     -40819.199    
     17600   297.65445     -417.7287      -41135.977     -40812.131    
     17700   312.74124     -10146.563     -41135.283     -40795.022    
     17800   313.82522     -2291.6018     -41110.98      -40769.539    
     17900   313.29619      10576.048     -41125.417     -40784.552    
     18000   285.31873      487.09454     -41131.751     -40821.325    
     18100   285.31951     -3899.6673     -41116.805     -40806.378    
     18200   300.70707      11674.604     -41115.341     -40788.173    
     18300   321.43178      2159.0908     -41137.799     -40788.082    
     18400   285.03058     -5828.9364     -41131.539     -40821.427    
     18500   279.47694     -12513.609     -41135.236     -40831.166    
     18600   307.97263      1541.8562     -41152.148     -40817.075    
     18700   313.84269     -9551.6308     -41144.267     -40802.808    
     18800   292.76379     -8543.0002     -41125.884     -40807.358    
     18900   291.66453      248.48432     -41141.814     -40824.484    
     19000   269.75237     -1048.6585     -41150.314     -40856.825    
     19100   279.40034     -6661.9612     -41143.62      -40839.633    
     19200   291.96903      4141.8363     -41133.603     -40815.942    
     19300   291.65642     -14974.993     -41122.298     -40804.978    
     19400   323.55544     -2363.0355     -41150.467     -40798.44     
     19500   306.29367     -4294.6067     -41125.018     -40791.772    
     19600   285.99296     -2860.4405     -41121.312     -40810.153    
     19700   278.61569     -6448.7515     -41133.77      -40830.637    
     19800   304.37522     -6719.2313     -41161.7       -40830.541    
     19900   295.26959     -9260.5215     -41126.056     -40804.804    
     20000   329.5588       5928.8353     -41133.599     -40775.04     
     20100   289.98216     -3766.0103     -41098.262     -40782.763    
     20200   303.58408     -3391.1289     -41131.19      -40800.892    
     20300   301.33194     -7072.9184     -41145.135     -40817.287    
     20400   288.61956     -8175.0742     -41131.03      -40817.013    
     20500   300.96692     -315.77338     -41137.594     -40810.143    
     20600   306.91856     -14256.522     -41139.075     -40805.149    
     20700   300.81685     -10595.694     -41128.556     -40801.268    
     20800   286.83991      4788.4483     -41107.674     -40795.593    
     20900   306.7617       996.21373     -41122.397     -40788.641    
     21000   294.63465     -3806.9463     -41118.341     -40797.78     
     21100   276.2922      -897.49617     -41109.966     -40809.361    
     21200   298.94973     -11740.473     -41132.844     -40807.588    
     21300   269.46299      839.64495     -41103.228     -40810.053    
     21400   320.51563      2027.4091     -41143.605     -40794.885    
     21500   319.12281     -5524.4614     -41130.568     -40783.364    
     21600   298.24213     -14149.995     -41123.323     -40798.837    
     21700   296.32932     -11622.896     -41146.028     -40823.623    
     21800   277.4153       7382.1227     -41133.101     -40831.275    
     21900   301.00796     -15371.4       -41124.756     -40797.261    
     22000   304.88519     -6624.1566     -41108.656     -40776.942    
     22100   302.93413     -1511.3899     -41116.38      -40786.789    
     22200   291.7721      -11812.785     -41126.017     -40808.57     
     22300   296.38194      4685.834      -41136.823     -40814.36     
     22400   294.55579      1266.2865     -41145.481     -40825.005    
     22500   276.90047     -4882.7398     -41151.329     -40850.063    
     22600   297.06447      1279.7331     -41162.566     -40839.361    
     22700   288.48191     -2526.95       -41119.937     -40806.07     
     22800   312.62348     -8329.1733     -41137.712     -40797.579    
     22900   324.31939     -4286.2803     -41159.053     -40806.195    
     23000   279.79256     -8573.1863     -41125.708     -40821.295    
     23100   326.24207      3441.7413     -41158.4       -40803.45     
     23200   311.1873       2959.2268     -41112.54      -40773.969    
     23300   320.79398      5489.771      -41125.285     -40776.262    
     23400   305.94891     -6002.9654     -41135.452     -40802.581    
     23500   305.82359     -5856.2174     -41144.665     -40811.93     
     23600   300.74932     -4732.5293     -41137.253     -40810.039    
     23700   298.80421     -3749.6336     -41128.891     -40803.793    
     23800   306.67997      2383.8625     -41125.939     -40792.272    
     23900   321.36101     -4760.7715     -41127.815     -40778.176    
     24000   306.8946      -2338.4212     -41129.432     -40795.532    
     24100   282.58637      3071.5132     -41129.153     -40821.7      
     24200   304.11904     -3199.1681     -41150.318     -40819.437    
     24300   312.3193      -2577.3252     -41135.992     -40796.19     
     24400   310.3625      -1213.0224     -41129.016     -40791.343    
     24500   302.93094     -5397.6584     -41137.953     -40808.365    
     24600   285.67623      1710.7645     -41162.731     -40851.916    
     24700   284.70733     -3465.0068     -41150.308     -40840.548    
     24800   288.45714      11266.864     -41123.025     -40809.185    
     24900   306.33867     -4490.7958     -41124.426     -40791.131    
     25000   300.06966     -4720.4657     -41121.733     -40795.258    
     25100   290.34793     -3056.3865     -41129.511     -40813.614    
     25200   288.84578     -10920.026     -41153.441     -40839.178    
     25300   269.34037     -13187.274     -41132.788     -40839.747    
     25400   290.44184     -4372.3003     -41113.176     -40797.176    
     25500   304.7613      -17870.129     -41122.182     -40790.603    
     25600   298.71023     -4014.0575     -41134.535     -40809.54     
     25700   295.93777      4681.6968     -41145.725     -40823.746    
     25800   291.10893     -8739.1739     -41139.852     -40823.126    
     25900   295.52346      299.22727     -41113.5       -40791.972    
     26000   305.817       -7860.7254     -41104.675     -40771.948    
     26100   306.8906      -12110.823     -41116.096     -40782.2      
     26200   318.02414     -12922.495     -41143.492     -40797.483    
     26300   302.48845     -2798.26       -41151.813     -40822.707    
     26400   293.18221     -10053.507     -41174.511     -40855.53     
     26500   283.20748     -10219.599     -41148.697     -40840.569    
     26600   319.16128      2933.184      -41159.835     -40812.589    
     26700   300.92339     -127.89714     -41130.125     -40802.722    
     26800   290.23995     -10178.783     -41103.528     -40787.748    
     26900   311.01549     -4334.3101     -41105.285     -40766.901    
     27000   300.9308       1905.3326     -41106.004     -40778.593    
     27100   289.37087     -2513.4908     -41134.863     -40820.029    
     27200   288.87725     -7647.0162     -41137.674     -40823.377    
     27300   294.42506     -9918.2344     -41129.253     -40808.92     
     27400   298.54247     -7280.3931     -41117.587     -40792.774    
     27500   318.2578      -11567.709     -41130.073     -40783.809    
     27600   297.44173      119.54742     -41128.645     -40805.029    
     27700   301.46593     -10116.676     -41153.825     -40825.832    
     27800   302.84021      975.18084     -41157.591     -40828.102    
     27900   294.51059      3276.728      -41126.026     -40805.6      
     28000   318.71218     -8522.7605     -41118.55      -40771.792    
     28100   314.27987     -10494.3       -41114.489     -40772.554    
     28200   301.04044     -4534.9254     -41124.744     -40797.213    
     28300   306.74992      3819.3885     -41144.185     -40810.443    
     28400   300.18845     -7664.1494     -41139.68      -40813.076    
     28500   299.03413     -14543.585     -41129.91      -40804.562    
     28600   314.05101     -9140.8237     -41117.342     -40775.656    
     28700   333.66505     -518.3298      -41134.074     -40771.047    
     28800   299.39152     -9952.714      -41129.229     -40803.492    
     28900   297.39535     -15957.225     -41136.823     -40813.258    
     29000   303.82636      600.94968     -41144.506     -40813.945    
     29100   291.11378      1096.0602     -41124.483     -40807.752    
     29200   301.25006     -9405.1204     -41109.596     -40781.837    
     29300   329.79316     -15186.232     -41119.071     -40760.258    
     29400   311.17969     -3071.8705     -41124.975     -40786.413    
     29500   295.49023     -2387.0647     -41125.858     -40804.366    
     29600   298.06825     -11860.176     -41133.464     -40809.167    
     29700   289.52058     -1937.4445     -41128.508     -40813.511    
     29800   312.86026      1928.9092     -41129.108     -40788.718    
     29900   301.57386     -4138.048      -41100.726     -40772.615    
     30000   309.94091     -11708.496     -41121.523     -40784.309    
     30100   277.06417     -3905.3923     -41120.078     -40818.633    
     30200   294.58065     -9628.6183     -41147.805     -40827.302    
     30300   281.61431     -3504.1177     -41122.899     -40816.504    
     30400   326.31975     -2892.8986     -41154.815     -40799.78     
     30500   301.95491      3571.6078     -41120.064     -40791.539    
     30600   323.7039      -11575.649     -41123.201     -40771.012    
     30700   326.7321      -4319.6348     -41113.805     -40758.322    
     30800   309.15153     -2913.4012     -41136.972     -40800.616    
     30900   319.4663      -3013.1504     -41162.766     -40815.188    
     31000   288.26881     -17434.97      -41129.717     -40816.081    
     31100   295.65543     -8278.4055     -41120.394     -40798.723    
     31200   298.41504      6724.7622     -41106.545     -40781.871    
     31300   321.94526     -16790.974     -41116.56      -40766.285    
     31400   306.83784     -2502.8329     -41117.447     -40783.609    
     31500   304.2925       5136.4093     -41141.044     -40809.975    
     31600   295.72848     -5259.893      -41136.664     -40814.913    
     31700   295.55853     -3461.4014     -41125.89      -40804.324    
     31800   304.13924     -7002.382      -41106.226     -40775.323    
     31900   303.28949     -3637.5697     -41094.156     -40764.179    
     32000   300.46043      1364.2467     -41128.469     -40801.57     
     32100   309.32369     -619.99711     -41152.279     -40815.737    
     32200   277.65066      3644.2044     -41117.613     -40815.531    
     32300   309.87398      3294.3389     -41127.285     -40790.143    
     32400   300.49512     -5153.6776     -41108.415     -40781.478    
     32500   302.98485     -8015.05       -41130.818     -40801.172    
     32600   288.66064     -14481.048     -41149.872     -40835.81     
     32700   300.8758      -14520.058     -41161.641     -40834.289    
     32800   302.41976     -1139.8559     -41148.876     -40819.844    
     32900   296.22776     -5078.533      -41122.158     -40799.863    
     33000   289.0013      -6937.9973     -41106.422     -40791.99     
     33100   310.71046     -12297.268     -41124.042     -40785.99     
     33200   302.58272     -14099.703     -41140.892     -40811.684    
     33300   304.82512     -12931.933     -41157.547     -40825.898    
     33400   297.49797     -6749.9497     -41144.536     -40820.86     
     33500   294.08056      68.1207       -41114.515     -40794.557    
     33600   307.55899     -920.69682     -41109.258     -40774.635    
     33700   317.73426      4186.042      -41127.459     -40781.765    
     33800   306.27066     -6055.5618     -41139.995     -40806.774    
     33900   299.50879     -15006.223     -41143.624     -40817.76     
     34000   305.84254     -2608.1471     -41146.025     -40813.27     
     34100   296.27355      621.44609     -41131.673     -40809.328    
     34200   304.38775     -3078.2348     -41143.539     -40812.366    
     34300   285.17821      327.97326     -41142.969     -40832.696    
     34400   292.83379     -4908.6789     -41153.836     -40835.234    
     34500   300.97545     -10880.234     -41132.273     -40804.813    
     34600   302.07108     -10936.502     -41117.058     -40788.406    
     34700   307.75787     -3969.0836     -41117.064     -40782.225    
     34800   307.82624      6287.3502     -41120.956     -40786.042    
     34900   283.52641     -8021.3936     -41129.868     -40821.393    
     35000   283.22701     -823.01147     -41140.96      -40832.811    
     35100   284.31016     -2285.0211     -41125.874     -40816.545    
     35200   319.29265     -7506.077      -41146.543     -40799.154    
     35300   310.11558      2913.2584     -41133.906     -40796.502    
     35400   280.9917      -6646.3382     -41108.136     -40802.418    
     35500   306.90217     -8764.0224     -41133.957     -40800.048    
     35600   301.93316     -430.37297     -41131.515     -40803.013    
     35700   299.67541     -11262.953     -41125.952     -40799.907    
     35800   310.90505     -6663.7924     -41122.773     -40784.509    
     35900   305.74184      1268.8555     -41119.98      -40787.334    
     36000   287.36154     -7756.2955     -41124.183     -40811.535    
     36100   302.51175      5609.3075     -41154.963     -40825.832    
     36200   279.63817     -2364.3453     -41132.998     -40828.752    
     36300   306.5053      -4459.086      -41122.337     -40788.86     
     36400   295.56227     -11722.289     -41095.165     -40773.594    
     36500   317.09922      601.34085     -41127.578     -40782.575    
     36600   305.34571     -2588.4319     -41140.299     -40808.084    
     36700   293.44192     -10869.486     -41137.261     -40817.997    
     36800   293.9195      -724.11708     -41142.223     -40822.44     
     36900   281.44534     -4572.0926     -41147.855     -40841.644    
     37000   291.94183      553.31567     -41154.431     -40836.8      
     37100   287.79719     -3612.6227     -41122.415     -40809.293    
     37200   309.21746     -9606.5904     -41126.25      -40789.823    
     37300   300.68867     -13617.635     -41110.193     -40783.045    
     37400   316.59865     -8304.9848     -41122.84      -40778.382    
     37500   295.91578      7264.6371     -41147.379     -40825.424    
     37600   289.84861     -4480.7801     -41151.185     -40835.831    
     37700   287.44322     -6428.3331     -41135.606     -40822.869    
     37800   305.31077      5850.872      -41126.358     -40794.181    
     37900   305.67616     -3535.9168     -41118.114     -40785.54     
     38000   287.78091      1751.3274     -41112.351     -40799.246    
     38100   295.36617     -8281.4999     -41148.482     -40827.125    
     38200   276.00972     -12656.532     -41130.876     -40830.579    
     38300   297.16532     -10596.058     -41134.946     -40811.632    
     38400   310.81435     -1922.3399     -41130.338     -40792.173    
     38500   291.49333     -6994.0621     -41107.696     -40790.553    
     38600   308.12368      958.60952     -41140.845     -40805.608    
     38700   276.70926     -1654.1836     -41139.242     -40838.183    
     38800   296.10698      981.18391     -41149.277     -40827.114    
     38900   285.00842      1031.9834     -41116.516     -40806.428    
     39000   317.62469      1990.9431     -41140.256     -40794.682    
     39100   290.53131     -14114.341     -41110.781     -40794.684    
     39200   302.35663     -12848.831     -41122.885     -40793.922    
     39300   308.4377      -3156.6005     -41127.576     -40791.997    
     39400   291.16101     -4276.7041     -41104.003     -40787.221    
     39500   307.8067      -14426.569     -41135.945     -40801.053    
     39600   282.94506     -6892.386      -41135.189     -40827.346    
     39700   314.88936     -12937.334     -41167.756     -40825.158    
     39800   299.13436      2541.9634     -41133.618     -40808.162    
     39900   309.17628      933.40924     -41106.651     -40770.269    
     40000   310.22116     -6849.2346     -41103.699     -40766.179    
     40100   310.5892       4715.3581     -41123.933     -40786.013    
     40200   313.1346      -10762.879     -41140.182     -40799.493    
     40300   275.45134     -7139.556      -41104.759     -40805.07     
     40400   299.8114      -1296.2298     -41129.017     -40802.824    
     40500   303.1105       1495.7906     -41138.341     -40808.558    
     40600   293.65895     -2359.5599     -41146.2       -40826.7      
     40700   293.41153     -6136.4402     -41158.912     -40839.682    
     40800   293.72243     -1247.6151     -41138.113     -40818.544    
     40900   312.40359     -11820.431     -41131.696     -40791.802    
     41000   316.94368     -9035.2603     -41137.628     -40792.794    
     41100   291.87439     -3661.1594     -41124.427     -40806.868    
     41200   294.89902     -9038.2005     -41137.738     -40816.889    
     41300   297.2093      -8066.8995     -41160.712     -40837.349    
     41400   282.8691      -5126.2431     -41158.513     -40850.753    
     41500   283.37514     -10964.601     -41146.33      -40838.02     
     41600   293.03038     -4883.7157     -41124.456     -40805.64     
     41700   318.57894     -609.31379     -41141.836     -40795.224    
     41800   302.50821      4374.0422     -41134.309     -40805.182    
     41900   308.78488     -9020.5091     -41170.111     -40834.154    
     42000   292.42249     -9219.0448     -41163.536     -40845.382    
     42100   273.77216     -9716.3775     -41127.643     -40829.78     
     42200   292.18597     -9368.6527     -41134.005     -40816.108    
     42300   301.04252     -6603.1693     -41141.279     -40813.746    
     42400   306.18493     -3538.2089     -41152.486     -40819.358    
     42500   286.91278     -14237.424     -41142.767     -40830.607    
     42600   273.5117      -1175.8843     -41127.351     -40829.772    
     42700   306.99474     -4694.0609     -41136.665     -40802.656    
     42800   313.46806     -197.88856     -41126.17      -40785.119    
     42900   313.06981     -6182.5687     -41137.69      -40797.072    
     43000   314.41505     -827.06232     -41163.2       -40821.118    
     43100   281.7746      -4792.2153     -41130.532     -40823.962    
     43200   300.43926     -10219.67      -41135.953     -40809.077    
     43300   303.51882     -21708.705     -41121.947     -40791.72     
     43400   305.19095     -11060.015     -41115.57      -40783.523    
     43500   302.83752     -2213.9713     -41122.245     -40792.759    
     43600   297.20235     -813.04576     -41149.847     -40826.492    
     43700   297.47686     -7769.677      -41148.454     -40824.8      
     43800   292.07924     -9132.6157     -41124.505     -40806.724    
     43900   304.72618     -5751.5643     -41108.784     -40777.243    
     44000   322.53999     -5296.4215     -41128.928     -40778.006    
     44100   305.83417     -4704.6342     -41128.493     -40795.746    
     44200   292.37077      9689.4438     -41126.921     -40808.823    
     44300   313.27775     -615.22545     -41161.33      -40820.485    
     44400   276.88872     -11618.7       -41148.511     -40847.257    
     44500   281.57102     -11075.19      -41147.141     -40840.793    
     44600   306.92453      2507.9438     -41130.112     -40796.18     
     44700   295.69834     -1402.9441     -41110.73      -40789.011    
     44800   310.08664      8959.5107     -41124.236     -40786.863    
     44900   328.02734     -3592.9451     -41152.804     -40795.911    
     45000   294.13125     -11876.695     -41140.313     -40820.299    
     45100   285.81163      563.25741     -41139.94      -40828.978    
     45200   288.5772      -924.08831     -41121.227     -40807.257    
     45300   317.70916      3375.3826     -41119.637     -40773.971    
     45400   318.54787      845.03035     -41126.228     -40779.649    
     45500   305.80081      14341.358     -41127.749     -40795.039    
     45600   306.11927     -937.68606     -41139.904     -40806.847    
     45700   300.8953      -684.581       -41140.503     -40813.13     
     45800   308.83083     -13521.801     -41151.74      -40815.733    
     45900   299.19205     -4835.2313     -41129.446     -40803.926    
     46000   321.45861      4622.8729     -41133.996     -40784.251    
     46100   323.60295     -2213.7546     -41137.167     -40785.089    
     46200   296.4348      -4194.98       -41138.691     -40816.172    
     46300   302.18466     -12321.033     -41152.586     -40823.81     
     46400   317.87903     -872.10909     -41158.362     -40812.511    
     46500   303.72723      1373.7111     -41127.534     -40797.081    
     46600   310.19662     -1760.894      -41124.821     -40787.328    
     46700   300.02645      3572.9471     -41118.067     -40791.64     
     46800   309.89975     -15298.982     -41135.514     -40798.344    
     46900   306.48065     -1333.6978     -41147.686     -40814.236    
     47000   285.47121     -14786.76      -41148.018     -40837.426    
     47100   279.46555     -3607.9439     -41142.462     -40838.405    
     47200   310.77138      3847.6559     -41131.624     -40793.506    
     47300   306.37377     -1557.4684     -41114.579     -40781.246    
     47400   307.65135     -10321.633     -41124.046     -40789.323    
     47500   308.22116     -1388.6785     -41146.764     -40811.421    
     47600   277.85439      8100.4172     -41138.933     -40836.628    
     47700   284.60393     -3274.4457     -41145.33      -40835.682    
     47800   308.72361     -4650.5976     -41156.374     -40820.485    
     47900   299.18        -5304.654      -41140.374     -40814.868    
     48000   297.98326     -2361.4767     -41127.44      -40803.236    
     48100   311.39511     -9227.3175     -41128.865     -40790.068    
     48200   311.14344     -7382.8839     -41120.69      -40782.167    
     48300   290.90908     -11596.035     -41114.835     -40798.327    
     48400   295.80454     -4730.4068     -41142.479     -40820.645    
     48500   282.85359      685.07272     -41142.432     -40834.689    
     48600   281.40629     -2010.8148     -41128.975     -40822.806    
     48700   321.69728     -3163.6342     -41135.136     -40785.131    
     48800   316.68021     -9611.8435     -41130.844     -40786.297    
     48900   279.34816     -18094.545     -41107.297     -40803.368    
     49000   278.83314     -6312.7184     -41125.009     -40821.64     
     49100   302.64207      1474.9106     -41144.366     -40815.093    
     49200   323.05362     -853.59168     -41121.627     -40770.146    
     49300   315.62768     -9719.166      -41121.073     -40777.672    
     49400   299.45433     -6817.5229     -41131.552     -40805.747    
     49500   305.08999     -348.37611     -41151.259     -40819.323    
     49600   290.72246      2859.2772     -41140.839     -40824.534    
     49700   310.09453     -7896.2078     -41142.891     -40805.509    
     49800   320.13044     -2364.6476     -41121.241     -40772.941    
     49900   316.27356     -7161.5628     -41117.358     -40773.253    
     50000   299.68122     -4644.1417     -41126.626     -40800.574    
     50100   295.41601      3496.9275     -41133.719     -40812.307    
     50200   301.54575      10324.383     -41141.269     -40813.188    
     50300   316.04838      777.64018     -41153.171     -40809.312    
     50400   297.18983     -15403.074     -41115.581     -40792.239    
     50500   318.48233     -6617.5355     -41108.391     -40761.884    
     50600   317.84621     -5165.4174     -41118.895     -40773.08     
     50700   296.17703     -400.36336     -41120.782     -40798.543    
     50800   303.80168     -959.27993     -41133.616     -40803.081    
     50900   303.74768     -7108.564      -41133.104     -40802.628    
     51000   311.98902     -11683.371     -41137.115     -40797.673    
     51100   315.79187     -4409.3528     -41132.745     -40789.164    
     51200   295.62722     -3843.7011     -41112.17      -40790.528    
     51300   297.00562     -4093.0155     -41118.434     -40795.293    
     51400   302.90475     -1548.3097     -41140.826     -40811.267    
     51500   283.1501      -8593.0212     -41140.133     -40832.067    
     51600   312.32634     -3773.4936     -41159.238     -40819.428    
     51700   303.7761      -9696.9208     -41112.475     -40781.968    
     51800   312.59481      132.21109     -41120.492     -40780.391    
     51900   303.93244     -1132.4152     -41131.714     -40801.037    
     52000   305.19037     -11366.165     -41146.378     -40814.332    
     52100   287.59639     -10017.372     -41130.727     -40817.823    
     52200   300.68352      1473.1273     -41115.334     -40788.191    
     52300   321.82333     -98.123351     -41111.573     -40761.431    
     52400   301.56758     -208.24085     -41115.108     -40787.004    
     52500   300.30724     -9167.4953     -41131.567     -40804.834    
     52600   296.37478     -8480.4347     -41134.307     -40811.853    
     52700   300.98453     -825.12539     -41151.8       -40824.33     
     52800   296.51533     -5580.5153     -41154.915     -40832.307    
     52900   294.8431      -15444.39      -41135.978     -40815.19     
     53000   310.88317     -9763.6362     -41131.087     -40792.847    
     53100   297.52854      9936.9272     -41119.776     -40796.066    
     53200   290.55198     -6824.6932     -41138.244     -40822.125    
     53300   268.61758     -3980.7991     -41129.201     -40836.946    
     53400   298.82096     -2395.4802     -41133.668     -40808.552    
     53500   294.46819     -4311.8087     -41106.872     -40786.492    
     53600   300.32792     -8432.2604     -41114.607     -40787.852    
     53700   313.59325     -6664.8882     -41145.999     -40804.81     
     53800   284.98091     -3331.393      -41135.173     -40825.115    
     53900   300.93124     -1275.6407     -41153.956     -40826.544    
     54000   300.72915     -8773.2717     -41119.385     -40792.193    
     54100   313.90608     -572.11792     -41112.096     -40770.568    
     54200   295.55907     -7223.6713     -41116.165     -40794.598    
     54300   300.83602      612.6274      -41131.408     -40804.1      
     54400   297.64512     -1578.9304     -41133.598     -40809.761    
     54500   282.71903     -2358.1749     -41141.555     -40833.958    
     54600   284.81284     -7143.9947     -41164.657     -40854.781    
     54700   282.66353     -13617.422     -41142.71      -40835.173    
     54800   298.23703     -6892.803      -41135.032     -40810.551    
     54900   282.24686     -3451.6424     -41116.825     -40809.741    
     55000   315.16575     -5799.2493     -41142.422     -40799.523    
     55100   301.48312     -4136.586      -41124.066     -40796.054    
     55200   289.09027     -11542.21      -41118.579     -40804.05     
     55300   308.72535      1751.2556     -41150.194     -40814.302    
     55400   291.76749      3081.5193     -41132.894     -40815.452    
     55500   298.474       -2948.8854     -41114.102     -40789.363    
     55600   309.46818     -1848.5549     -41111.759     -40775.059    
     55700   313.33637     -468.78677     -41130.357     -40789.449    
     55800   304.22279     -9542.752      -41153.588     -40822.595    
     55900   291.23229      5316.9669     -41139.573     -40822.713    
     56000   285.55922     -4885.2723     -41113.574     -40802.887    
     56100   299.40266     -6309.9016     -41112.414     -40786.665    
     56200   307.39079     -2544.1798     -41120.03      -40785.59     
     56300   307.81741      3331.5125     -41158.278     -40823.374    
     56400   303.92162     -5751.6314     -41169.512     -40838.847    
     56500   292.45042      215.76668     -41143.184     -40825        
     56600   302.86441      1835.4815     -41132.626     -40803.111    
     56700   293.49972     -4094.5879     -41113.465     -40794.139    
     56800   307.76045     -5033.4836     -41127.434     -40792.592    
     56900   296.66373     -13504.527     -41136.876     -40814.108    
     57000   292.14739     -7630.9479     -41170.893     -40853.038    
     57100   283.87682     -1691.3406     -41151.54      -40842.683    
     57200   306.70247     -6955.5717     -41155.405     -40821.714    
     57300   299.35081     -948.48517     -41129.946     -40804.254    
     57400   313.33049     -10521.662     -41131.085     -40790.182    
     57500   290.43008     -9271.2659     -41105.251     -40789.264    
     57600   308.6065      -4723.2047     -41133.65      -40797.888    
     57700   298.01181      3747.4653     -41147.677     -40823.442    
     57800   292.6613       175.12873     -41150.996     -40832.582    
     57900   285.18309      6819.9921     -41131.925     -40821.647    
     58000   292.59141      1170.6103     -41105.251     -40786.913    
     58100   316.74682     -7367.0674     -41124.624     -40780.005    
     58200   290.46008     -14707.085     -41105.998     -40789.979    
     58300   307.11825     -2882.9356     -41133.803     -40799.659    
     58400   290.83377      8.761489      -41154.862     -40838.436    
     58500   288.20478      1288.9331     -41154.786     -40841.22     
     58600   296.28395     -2973.8369     -41140.69      -40818.334    
     58700   309.31436     -6180.7235     -41134.263     -40797.73     
     58800   302.6865       2809.3665     -41128.153     -40798.831    
     58900   292.78807      1431.454      -41142.427     -40823.875    
     59000   290.2175      -1267.8074     -41151.481     -40835.726    
     59100   297.65513     -13758.589     -41130.835     -40806.988    
     59200   310.76669      10966.837     -41112.613     -40774.5      
     59300   305.40003     -1848.1289     -41122.26      -40789.986    
     59400   295.98292     -5004.4857     -41130.786     -40808.757    
     59500   282.65269     -142.58781     -41129.963     -40822.439    
     59600   319.65231      7339.9425     -41170.031     -40822.251    
     59700   313.08982     -1480.6635     -41145.773     -40805.133    
     59800   309.67566     -3808.9686     -41115.702     -40778.777    
     59900   310.28568      3411.4628     -41109.598     -40772.008    
     60000   290.55516     -9320.9855     -41110.908     -40794.786    
     60100   298.55674      144.55604     -41145.713     -40820.885    
     60200   294.17477     -6419.6538     -41143.198     -40823.137    
     60300   288.40652     -11417.522     -41118.272     -40804.487    
     60400   315.4283      -3007.0135     -41125.852     -40782.668    
     60500   296.5578      -8207.1902     -41110.269     -40787.616    
     60600   308.74118     -6846.2102     -41134.044     -40798.135    
     60700   302.91192      3278.3847     -41143.332     -40813.765    
     60800   297.84304      1803.7833     -41138.853     -40814.801    
     60900   295.12981     -18245.082     -41125.797     -40804.697    
     61000   289.73632      2577.5805     -41103.806     -40788.574    
     61100   324.37502      2038.2537     -41121.256     -40768.337    
     61200   301.43946      3854.2795     -41122.922     -40794.957    
     61300   302.39149      3717.5494     -41153.6       -40824.6      
     61400   280.50384     -6.639433      -41131.17      -40825.983    
     61500   308.18256      1761.3195     -41143.534     -40808.233    
     61600   314.55992      2950.5085     -41122.601     -40780.361    
     61700   311.7662      -4769.9265     -41105.866     -40766.665    
     61800   315.98977     -5454.0687     -41128.492     -40784.696    
     61900   305.80482      769.42064     -41139.182     -40806.467    
     62000   288.67633     -952.67859     -41128.924     -40814.845    
     62100   287.91547     -211.0417      -41116.688     -40803.437    
     62200   317.76489     -4515.9138     -41117.538     -40771.811    
     62300   320.49285     -3321.9671     -41101.425     -40752.73     
     62400   307.60661      1871.1772     -41105.651     -40770.977    
     62500   297.41903     -2327.9418     -41115.16      -40791.569    
     62600   293.10415      664.5507      -41125.29      -40806.394    
     62700   295.00202      2390.4691     -41133.423     -40812.462    
     62800   303.52236      558.83251     -41123.094     -40792.863    
     62900   310.69294      3122.8886     -41096.911     -40758.878    
     63000   307.07291      5383.4606     -41105.141     -40771.047    
     63100   301.847       -318.68501     -41127.172     -40798.764    
     63200   285.41602     -2822.4411     -41115.517     -40804.986    
     63300   303.51016     -16933.76      -41115.218     -40785.001    
     63400   310.55214      3606.2734     -41117.398     -40779.518    
     63500   293.96376      9259.4271     -41115.095     -40795.264    
     63600   276.10448     -1118.0429     -41136.908     -40836.508    
     63700   284.54043      892.19655     -41145.475     -40835.896    
     63800   301.66721     -10039.545     -41138.518     -40810.305    
     63900   296.94224     -12002.125     -41120.625     -40797.554    
     64000   298.28688      1367.4358     -41121.209     -40796.675    
     64100   296.4133      -1858.3699     -41110.996     -40788.5      
     64200   303.04513      1063.905      -41096.102     -40766.39     
     64300   310.83603     -8162.8907     -41106.35      -40768.162    
     64400   295.53769     -9694.3842     -41124.807     -40803.263    
     64500   291.12009      10828.42      -41132.311     -40815.573    
     64600   295.75328      2890.8449     -41133.086     -40811.307    
     64700   313.71946     -496.0091      -41136.617     -40795.292    
     64800   331.19584     -13913.728     -41126.542     -40766.203    
     64900   320.30992     -3445.0283     -41116.679     -40768.184    
     65000   309.76201     -3086.5732     -41144.782     -40807.762    
     65100   302.72335      4298.9636     -41150.085     -40820.723    
     65200   298.01811      4203.6637     -41137.332     -40813.089    
     65300   322.45337     -3740.9562     -41144.589     -40793.761    
     65400   319.03343     -4122.5726     -41127.181     -40780.074    
     65500   300.7441      -6347.987      -41107.425     -40780.217    
     65600   291.73012     -7708.0794     -41111.637     -40794.236    
     65700   306.70881     -2075.3399     -41149.065     -40815.367    
     65800   282.31784     -8097.204      -41137.837     -40830.676    
     65900   298.3878      -7041.3716     -41142.394     -40817.75     
     66000   303.34827     -5736.0758     -41113.897     -40783.856    
     66100   312.09234     -6562.3631     -41119.912     -40780.357    
     66200   292.82145      2786.7005     -41114.834     -40796.245    
     66300   316.42209      10284.872     -41154.266     -40810        
     66400   303.33306     -551.03704     -41155.225     -40825.2      
     66500   261.92574     -581.10862     -41145.523     -40860.549    
     66600   279.36166      9246.3554     -41151.828     -40847.884    
     66700   292.41585     -7256.5919     -41139.432     -40821.285    
     66800   310.50954     -22900.524     -41140.007     -40802.174    
     66900   315.7631      -5336.8528     -41137.38      -40793.831    
     67000   305.85516     -6718.4189     -41146.136     -40813.367    
     67100   283.15029     -5549.5831     -41145.54      -40837.474    
     67200   277.73515     -5612.6636     -41133.98      -40831.805    
     67300   301.74974     -6468.9564     -41149.685     -40821.382    
     67400   298.94164     -8777.9321     -41134.77      -40809.522    
     67500   301.32778     -12993.658     -41124.221     -40796.377    
     67600   301.38302      2375.5493     -41125.446     -40797.543    
     67700   296.34575     -242.43326     -41135.353     -40812.93     
     67800   282.46375     -9510.108      -41147.577     -40840.257    
     67900   292.80052      5282.1124     -41156.79      -40838.224    
     68000   309.58856      1644.5737     -41137.896     -40801.065    
     68100   314.14223     -12233.899     -41133.963     -40792.178    
     68200   290.06439     -2084.3337     -41115.834     -40800.246    
     68300   304.75576      805.57205     -41141.646     -40810.073    
     68400   290.86619     -6243.1459     -41153.576     -40837.115    
     68500   264.86718     -7664.5577     -41138.506     -40850.331    
     68600   282.07208     -9074.0567     -41120.652     -40813.758    
     68700   301.14298     -9401.9861     -41129.476     -40801.834    
     68800   303.59453     -4848.3339     -41126.775     -40796.466    
     68900   325.21078     -3967.4053     -41146.988     -40793.16     
     69000   288.52806     -11394.062     -41127.712     -40813.794    
     69100   283.57132     -2583.3135     -41142.763     -40834.239    
     69200   300.54026     -4738.7291     -41157         -40830.013    
     69300   291.47639     -1402.1714     -41107.55      -40790.425    
     69400   329.5214       463.18892     -41133.266     -40774.749    
     69500   308.00877     -9858.7838     -41133.388     -40798.275    
     69600   298.04797     -10842.413     -41141.276     -40817.001    
     69700   283.98612     -4724.7331     -41135.994     -40827.018    
     69800   306.31594      6249.6944     -41148.144     -40814.874    
     69900   315.20075     -9180.4214     -41122.171     -40779.234    
     70000   304.23693      3841.6137     -41110.026     -40779.017    
     70100   300.91948     -8229.8966     -41124.037     -40796.638    
     70200   299.07043     -14425.86      -41135.748     -40810.361    
     70300   305.13035     -3908.9869     -41143.175     -40811.195    
     70400   294.13845     -6527.0116     -41125.412     -40805.391    
     70500   301.2859      -14950.455     -41136.738     -40808.94     
     70600   285.2165      -15819.136     -41149.01      -40838.696    
     70700   308.99033     -6036.0705     -41182.671     -40846.491    
     70800   302.04617     -13058.566     -41150.585     -40821.96     
     70900   311.47951      3998.6762     -41140.762     -40801.873    
     71000   307.6378       4433.7793     -41132.411     -40797.702    
     71100   293.53822     -5157.0835     -41111.301     -40791.932    
     71200   304.68604     -25.807848     -41142.185     -40810.688    
     71300   279.59223      3478.1972     -41145.078     -40840.883    
     71400   292.02347      6698.1919     -41147.968     -40830.248    
     71500   291.18341     -2220.6922     -41124.773     -40807.966    
     71600   321.15816     -13902.731     -41143.885     -40794.466    
     71700   306.43039      776.54889     -41139.434     -40806.039    
     71800   275.92095     -357.62341     -41132.537     -40832.336    
     71900   301.3573      -811.37088     -41164.007     -40836.131    
     72000   295.3251      -6581.9176     -41114.022     -40792.71     
     72100   309.47954     -2244.4549     -41115.894     -40779.182    
     72200   301.38063     -14755.049     -41111.586     -40783.685    
     72300   323.51092     -9264.978      -41154.516     -40802.538    
     72400   300.15106     -10718.5       -41161.065     -40834.502    
     72500   300.384       -5314.6045     -41158.714     -40831.897    
     72600   292.94299     -5805.9972     -41131.622     -40812.902    
     72700   305.35651     -5785.0403     -41127.608     -40795.381    
     72800   304.4689      -3940.1975     -41126.992     -40795.731    
     72900   305.14319     -6818.249      -41133.163     -40801.169    
     73000   295.02847     -10463.049     -41128.889     -40807.9      
     73100   290.82971     -7660.5583     -41155.977     -40839.555    
     73200   294.46103     -8716.0746     -41172.111     -40851.738    
     73300   295.01227     -13735.377     -41147.606     -40826.634    
     73400   283.6021      -2555.6253     -41116.44      -40807.882    
     73500   312.09734     -4317.5432     -41146.236     -40806.676    
     73600   294.43267     -7171.6436     -41135.752     -40815.411    
     73700   308.00468     -11166.194     -41154.181     -40819.074    
     73800   312.91001     -1516.2236     -41144.58      -40804.135    
     73900   302.20332     -6371.3315     -41113.617     -40784.821    
     74000   296.74187     -9678.0498     -41106.006     -40783.152    
     74100   281.84586     -3420.5086     -41120.565     -40813.918    
     74200   288.80789      321.92424     -41143.342     -40829.12     
     74300   303.67208      778.43502     -41145.953     -40815.559    
     74400   311.24613     -13882.677     -41141.832     -40803.197    
     74500   295.80866     -11509.801     -41123.227     -40801.388    
     74600   300.67824     -1845.2811     -41132.724     -40805.587    
     74700   295.61515      7295.2892     -41136.556     -40814.928    
     74800   298.88101      7381.6419     -41157.02      -40831.839    
     74900   270.30352     -17322.086     -41140.72      -40846.631    
     75000   291.37868     -16328.338     -41139.085     -40822.066    
     75100   312.7435      -1869.6494     -41135         -40794.737    
     75200   313.75287     -11070.738     -41134.615     -40793.253    
     75300   294.50403     -11082.607     -41126.012     -40805.592    
     75400   277.16898     -12129.377     -41131.902     -40830.344    
     75500   282.33481     -10970.06      -41160.456     -40853.277    
     75600   294.92529     -1671.7359     -41158.612     -40837.735    
     75700   293.989       -17066.709     -41119.613     -40799.754    
     75800   330.95454     -14855.604     -41149.605     -40789.528    
     75900   296.57503      10109.531     -41119.762     -40797.09     
     76000   288.22764     -6389.1992     -41133.471     -40819.88     
     76100   278.37791     -18566         -41138.376     -40835.502    
     76200   297.57544     -10025.472     -41154.07      -40830.309    
     76300   311.87718     -6526.8743     -41126.859     -40787.538    
     76400   310.48894     -2419.1179     -41114.281     -40776.47     
     76500   300.64484     -8502.0946     -41119.05      -40791.949    
     76600   289.19513      39.421497     -41130.938     -40816.295    
     76700   284.03867     -13034.517     -41125.587     -40816.554    
     76800   287.1523      -9746.2682     -41121.212     -40808.791    
     76900   303.85208      5108.2611     -41136.644     -40806.054    
     77000   325.97514     -8546.104      -41162.745     -40808.086    
     77100   286.8333      -1696.755      -41121.207     -40809.134    
     77200   294.85146     -5135.5956     -41114.917     -40794.12     
     77300   318.93032     -3204.4002     -41107.529     -40760.534    
     77400   318.81416     -9391.7526     -41118         -40771.131    
     77500   309.15857     -972.56083     -41129.253     -40792.89     
     77600   297.47427     -11324.396     -41128.045     -40804.394    
     77700   281.29647     -1880.4585     -41121.864     -40815.814    
     77800   300.28311     -9396.1353     -41138.58      -40811.874    
     77900   309.45378     -4914.698      -41123.794     -40787.11     
     78000   326.45724      9967.8449     -41132.949     -40777.765    
     78100   306.70503     -1751.76       -41138.416     -40804.723    
     78200   283.88175     -17951.498     -41135.685     -40826.823    
     78300   287.4081      -4571.1928     -41132.749     -40820.051    
     78400   291.49127      2005.5014     -41119.846     -40802.705    
     78500   303.13197     -5054.1828     -41116.897     -40787.09     
     78600   317.9596      -9118.1834     -41135.284     -40789.345    
     78700   316.19427     -10576.955     -41144.44      -40800.422    
     78800   302.00989      2675.4541     -41142.242     -40813.656    
     78900   295.57615     -10968.494     -41137.275     -40815.69     
     79000   302.3888      -1060.9835     -41127.563     -40798.565    
     79100   331.34319     -7900.0597     -41131.151     -40770.651    
     79200   315.19642     -4833.7538     -41110.842     -40767.91     
     79300   299.68655     -8313.1979     -41127.095     -40801.038    
     79400   306.42325     -2965.626      -41144.35      -40810.963    
     79500   281.45567     -8526.7337     -41124.382     -40818.159    
     79600   297.93766     -2595.075      -41141.136     -40816.981    
     79700   299.84612     -6466.4338     -41124.507     -40798.276    
     79800   305.99535     -7926.349      -41106.257     -40773.336    
     79900   311.20244      4666.8339     -41112.893     -40774.306    
     80000   279.05878      1006.4988     -41112.86      -40809.245    
     80100   298.79778     -19042.627     -41137.475     -40812.385    
     80200   303.09597     -10545.135     -41144.827     -40815.06     
     80300   280.65091     -7775.5992     -41125.702     -40820.355    
     80400   300.24        -4998.4021     -41134.002     -40807.342    
     80500   305.51812      674.49195     -41110.759     -40778.356    
     80600   305.22982     -8224.9799     -41111.404     -40779.315    
     80700   299.76765     -3461.139      -41131.37      -40805.224    
     80800   296.88533     -2712.0188     -41146.086     -40823.076    
     80900   303.71421      5905.9032     -41151.562     -40821.122    
     81000   297.68623     -9068.7244     -41136.972     -40813.09     
     81100   304.65543     -16547.875     -41128.295     -40796.831    
     81200   296.70228     -10777.119     -41104.782     -40781.972    
     81300   315.16653     -6985.5533     -41090.833     -40747.933    
     81400   315.47673     -5343.3477     -41093.887     -40750.65     
     81500   312.71691     -325.95397     -41131.349     -40791.114    
     81600   286.99627     -2622.4157     -41117.454     -40805.203    
     81700   306.66312      39.448863     -41147.669     -40814.021    
     81800   311.57535     -5385.9906     -41145.81      -40806.818    
     81900   315.98332     -2507.6389     -41119.755     -40775.967    
     82000   305.02688     -1139.3907     -41115.226     -40783.358    
     82100   304.07099     -2337.8823     -41133.434     -40802.606    
     82200   310.69465      878.02315     -41145.152     -40807.118    
     82300   285.26801     -10994.435     -41115.741     -40805.371    
     82400   301.09705     -5290.0272     -41122.128     -40794.536    
     82500   321.2686      -6782.6347     -41111.564     -40762.025    
     82600   328.06289      6536.069      -41112.3       -40755.369    
     82700   291.05853     -3065.6778     -41103.709     -40787.038    
     82800   309.43862     -6481.5028     -41127.667     -40790.999    
     82900   299.4884      -3605.5445     -41125.027     -40799.185    
     83000   311.57296     -15068.116     -41162.053     -40823.063    
     83100   301.86053     -4314.5468     -41167.074     -40838.651    
     83200   298.58946     -1663.6581     -41149.248     -40824.384    
     83300   317.64397     -123.74451     -41126.938     -40781.342    
     83400   311.26621     -12269.557     -41122.429     -40783.773    
     83500   301.42572      364.23445     -41124.048     -40796.098    
     83600   312.22202     -7192.0999     -41151.471     -40811.775    
     83700   291.97395     -11998.604     -41153.787     -40836.12     
     83800   272.50973     -2588.6205     -41134.544     -40838.054    
     83900   308.72568     -6636.5429     -41130.025     -40794.133    
     84000   301.93826     -783.3535      -41115.798     -40787.29     
     84100   294.42017     -2282.4176     -41117.315     -40796.987    
     84200   285.52452     -566.42878     -41132.059     -40821.409    
     84300   290.77668     -7600.9543     -41147.803     -40831.439    
     84400   297.37417     -4629.7207     -41130.053     -40806.511    
     84500   312.91742     -6255.0718     -41121.88      -40781.427    
     84600   300.92129     -11916.618     -41116.233     -40788.832    
     84700   318.83915     -10219.438     -41154.049     -40807.153    
     84800   290.50314     -20976.274     -41141.058     -40824.992    
     84900   273.62417     -20420.873     -41124.743     -40827.042    
     85000   300.43902      2240.1918     -41110.383     -40783.507    
     85100   314.65591      5937.9482     -41113.389     -40771.044    
     85200   299.91468     -8868.158      -41119.338     -40793.032    
     85300   295.12961     -3521.7555     -41132.328     -40811.228    
     85400   305.05872     -7900.6669     -41153.21      -40821.308    
     85500   284.35697     -3957.562      -41131.87      -40822.491    
     85600   286.5032      -12721.354     -41117.21      -40805.495    
     85700   298.65668     -9036.4781     -41108.009     -40783.072    
     85800   300.22116     -1489.3562     -41119.568     -40792.928    
     85900   299.0664      -3257.9621     -41147.372     -40821.989    
     86000   290.04798     -2380.6651     -41142.575     -40827.004    
     86100   303.32225     -7865.0342     -41146.656     -40816.643    
     86200   305.89334     -8279.6221     -41138.08      -40805.269    
     86300   302.54277     -3849.6189     -41120.411     -40791.245    
     86400   327.91506     -5369.2453     -41103.331     -40746.561    
     86500   317.60118     -10103.674     -41100.548     -40755        
     86600   303.00763     -8374.929      -41116.051     -40786.38     
     86700   303.6671      -412.70713     -41135.576     -40805.187    
     86800   273.77544      3685.5738     -41120.001     -40822.134    
     86900   300.25825     -8566.462      -41155.52      -40828.84     
     87000   292.12006     -3637.1968     -41148.539     -40830.714    
     87100   295.74453      1772.4984     -41125.199     -40803.431    
     87200   314.87476     -15327.773     -41121.924     -40779.342    
     87300   303.38315     -3867.3311     -41116.342     -40786.262    
     87400   305.9643      -2403.6495     -41147.033     -40814.146    
     87500   284.45293      10586.681     -41136.199     -40826.716    
     87600   287.9253      -1587.3542     -41134.322     -40821.06     
     87700   287.14481     -7320.4659     -41124.193     -40811.781    
     87800   306.01544     -13450.43      -41134.984     -40802.04     
     87900   299.72346     -2687.8165     -41102.905     -40776.807    
     88000   337.72426     -2641.1949     -41122.664     -40755.221    
     88100   312.77841     -2986.0586     -41126.332     -40786.03     
     88200   294.22633      1392.7026     -41127.295     -40807.178    
     88300   312.269       -3241.7494     -41149.838     -40810.091    
     88400   303.39666      3379.2468     -41147.449     -40817.355    
     88500   279.92932     -4761.6331     -41133.408     -40828.846    
     88600   291.96226     -8631.8037     -41149.602     -40831.948    
     88700   297.99116     -12263.436     -41130.407     -40806.194    
     88800   320.3263      -14386.725     -41130.227     -40781.713    
     88900   310.23895     -7439.2242     -41128.825     -40791.286    
     89000   301.31052      366.4981      -41142.298     -40814.473    
     89100   293.45174     -6107.7098     -41140.618     -40821.343    
     89200   297.60573      4115.4402     -41140.556     -40816.762    
     89300   288.52174     -14628.617     -41128.051     -40814.14     
     89400   313.28789     -27447.101     -41132.278     -40791.422    
     89500   316.86482      1223.5131     -41106.869     -40762.121    
     89600   311.47206      2814.1807     -41115.883     -40777.003    
     89700   311.91867      1904.496      -41136.272     -40796.906    
     89800   292.92729     -8488.1711     -41130.725     -40812.021    
     89900   295.53949     -5665.5035     -41134.385     -40812.84     
     90000   308.7304      -3740.7875     -41156.436     -40820.539    
     90100   277.46325     -2630.056      -41147.205     -40845.326    
     90200   269.77466     -10866.444     -41145.055     -40851.541    
     90300   300.75188     -6858.2891     -41145.468     -40818.251    
     90400   294.76664      1094.3654     -41126.351     -40805.646    
     90500   294.80279     -2906.0904     -41123.563     -40802.819    
     90600   303.8372      -9039.3654     -41125.52      -40794.946    
     90700   316.20182     -13353.245     -41121.632     -40777.605    
     90800   318.84581     -4106.3338     -41126.083     -40779.18     
     90900   291.25477     -9337.64       -41130.566     -40813.682    
     91000   291.88969      4969.6652     -41143.187     -40825.612    
     91100   308.33836     -13023.365     -41158.846     -40823.375    
     91200   293.99025     -10681.898     -41122.206     -40802.346    
     91300   314.03155     -3250.3266     -41109.782     -40768.117    
     91400   313.7307      -7744.9491     -41112.281     -40770.944    
     91500   293.42225     -7655.6529     -41105.802     -40786.56     
     91600   293.28748     -1136.3034     -41117.748     -40798.652    
     91700   304.77114     -43.94054      -41144.507     -40812.917    
     91800   277.50533     -7098.2696     -41123.439     -40821.514    
     91900   288.6067      -4044.3635     -41112.483     -40798.48     
     92000   319.44192     -5771.5786     -41114.87      -40767.319    
     92100   319.71284     -11823.67      -41129.504     -40781.657    
     92200   277.99131     -1481.8926     -41109.297     -40806.844    
     92300   306.30715     -2320.3143     -41146.096     -40812.835    
     92400   292.23355      46.047989     -41132.231     -40814.283    
     92500   304.26542      4951.9905     -41144.903     -40813.863    
     92600   302.34684     -10982.998     -41140.414     -40811.461    
     92700   299.43356     -9788.6122     -41127.395     -40801.612    
     92800   311.0467      -5106.9856     -41132.274     -40793.857    
     92900   295.85318     -9342.6441     -41123.658     -40801.771    
     93000   285.69122      3636.0702     -41132.553     -40821.722    
     93100   289.91669      2473.3084     -41149.087     -40833.659    
     93200   291.31113     -1089.9354     -41122.483     -40805.538    
     93300   304.52598     -6081.5982     -41114.37      -40783.047    
     93400   307.24067     -1016.8239     -41128.296     -40794.019    
     93500   312.92817      1519.8016     -41151.144     -40810.68     
     93600   294.4967      -401.58791     -41148.626     -40828.214    
     93700   281.5441      -357.71375     -41133.08      -40826.761    
     93800   321.36136      8889.7894     -41138.046     -40788.406    
     93900   290.9645       915.70488     -41098.428     -40781.859    
     94000   303.92353     -3072.3436     -41120.394     -40789.726    
     94100   297.05709      4047.2347     -41128.795     -40805.598    
     94200   308.56475      7651.0261     -41171.35      -40835.633    
     94300   298.35199     -6035.9643     -41159.993     -40835.387    
     94400   287.36381     -6726.0858     -41125.881     -40813.231    
     94500   305.17906      11289.454     -41134.224     -40802.191    
     94600   294.15897      4481.0902     -41120.923     -40800.88     
     94700   319.80797     -4858.8598     -41138.508     -40790.559    
     94800   309.70113      13546.563     -41126.157     -40789.203    
     94900   283.78364     -2823.7426     -41129.936     -40821.181    
     95000   298.4512      -11994.644     -41157.002     -40832.289    
     95100   300.24977     -6952.1115     -41149.269     -40822.598    
     95200   298.26412     -797.2085      -41117.921     -40793.411    
     95300   297.47629     -7947.2304     -41101.863     -40778.21     
     95400   314.08119      7837.0859     -41124.258     -40782.539    
     95500   312.23183     -2371.4241     -41138.671     -40798.964    
     95600   285.00074     -9528.1947     -41134.103     -40824.024    
     95700   279.40038      3336.2936     -41125.704     -40821.718    
     95800   298.37572     -7245.4037     -41119.235     -40794.604    
     95900   310.91448     -5133.1591     -41128.73      -40790.456    
     96000   313.99838     -4867.4786     -41135.288     -40793.659    
     96100   292.03072     -8205.2417     -41116.841     -40799.113    
     96200   298.8183      -5977.8757     -41144.191     -40819.078    
     96300   285.64428      9747.2894     -41152.189     -40841.41     
     96400   270.52311      287.42077     -41132.17      -40837.843    
     96500   310.03111     -10806.279     -41127.546     -40790.234    
     96600   304.8662       3670.219      -41112.452     -40780.759    
     96700   314.45714      8018.5854     -41125.023     -40782.895    
     96800   300.84179      13242.303     -41139.553     -40812.239    
     96900   308.63463      7649.1516     -41165.568     -40829.775    
     97000   278.45684     -17488.484     -41131.179     -40828.219    
     97100   299.40411     -2936.5408     -41130.075     -40804.325    
     97200   307.4235       8604.3018     -41112.63      -40778.155    
     97300   308.32667     -3759.9444     -41119.999     -40784.541    
     97400   283.9341      -5414.9573     -41114.892     -40805.973    
     97500   307.97032     -12469.388     -41148.325     -40813.254    
     97600   292.71981     -4292.507      -41131.17      -40812.692    
     97700   302.66763      2546.2106     -41107.127     -40777.826    
     97800   313.17781     -54.386548     -41102.379     -40761.643    
     97900   288.6127       7527.5066     -41103.047     -40789.038    
     98000   298.06066      7557.8211     -41127.529     -40803.24     
     98100   293.45923      1395.9182     -41128.269     -40808.987    
     98200   310.19597     -7302.4385     -41151.163     -40813.671    
     98300   291.48245     -12664.469     -41154.998     -40837.866    
     98400   275.7171       3813.0743     -41148.292     -40848.313    
     98500   290.11019     -8496.7791     -41133.908     -40818.27     
     98600   305.41261      3208.0791     -41133.124     -40800.836    
     98700   289.2831       1624.157      -41114.455     -40799.717    
     98800   288.94929      1460.0186     -41121.499     -40807.124    
     98900   288.27074      2097.4992     -41139.471     -40825.834    
     99000   287.73387     -7821.5004     -41150.665     -40837.612    
     99100   292.41813     -6770.7982     -41148.884     -40830.734    
     99200   290.93755     -9773.2057     -41112.812     -40796.273    
     99300   307.15913      4689.7459     -41119.744     -40785.556    
     99400   321.92323     -1344.7321     -41139.896     -40789.645    
     99500   301.07452     -1439.5763     -41144.966     -40817.398    
     99600   277.63483     -8885.0572     -41139.367     -40837.301    
     99700   293.63755     -921.73433     -41146.523     -40827.046    
     99800   288.34671     -2251.9287     -41124.271     -40810.551    
     99900   309.73409     -11182.922     -41131.963     -40794.974    
    100000   321.97073     -12960.363     -41139.017     -40788.714    
    100100   295.2968       6847.3963     -41147.4       -40826.119    
    100200   292.54218      313.0916      -41158.032     -40839.747    
    100300   293.83754     -4655.7365     -41143.002     -40823.308    
    100400   302.88349     -12511.254     -41130.786     -40801.25     
    100500   322.92685      1688.1795     -41144.158     -40792.815    
    100600   298.52897     -3800.6435     -41126.947     -40802.149    
    100700   298.55745     -11360.641     -41130.812     -40805.983    
    100800   309.45875     -5275.0174     -41143.311     -40806.621    
    100900   309.16251     -5975.7178     -41138.27      -40801.903    
    101000   306.21699     -2735.3238     -41132.088     -40798.925    
    101100   302.25982     -5842.3514     -41133.838     -40804.98     
    101200   279.98149     -12419.529     -41148.003     -40843.384    
    101300   281.84864     -1768.6402     -41152.597     -40845.947    
    101400   285.03195     -4139.0867     -41134.981     -40824.868    
    101500   293.62397     -2286.9625     -41130.065     -40810.603    
    101600   307.63874     -9521.4659     -41134.814     -40800.105    
    101700   277.79123      1020.1476     -41107.524     -40805.289    
    101800   288.13455      2568.4506     -41123.251     -40809.761    
    101900   299.47117     -3243.7167     -41136.574     -40810.75     
    102000   288.37863     -4420.7401     -41125.037     -40811.282    
    102100   298.06235     -9944.5754     -41131.57      -40807.279    
    102200   319.70159     -11023.067     -41144.005     -40796.171    
    102300   310.89733     -6997.1201     -41115.516     -40777.261    
    102400   315.03239     -377.50003     -41132.014     -40789.26     
    102500   285.88978     -4915.3334     -41133.283     -40822.236    
    102600   283.4525      -3593.1194     -41134.576     -40826.181    
    102700   302.1063       4734.5207     -41140.477     -40811.786    
    102800   297.61853     -6527.9206     -41109.998     -40786.19     
    102900   324.66084     -6488.522      -41119.217     -40765.987    
    103000   312.01848     -15268.795     -41120.6       -40781.125    
    103100   291.20308     -7892.3586     -41140.931     -40824.103    
    103200   294.38037     -7321.6515     -41136.316     -40816.031    
    103300   307.09689     -6723.1379     -41133.744     -40799.624    
    103400   298.05896     -4629.8087     -41115.339     -40791.052    
    103500   290.57229     -17338.685     -41099.185     -40783.044    
    103600   326.73857      5705.7548     -41129.956     -40774.466    
    103700   285.03288      4308.8976     -41118.559     -40808.444    
[...]
    174300   288.40894      2869.346      -41134.355     -40820.568    
    174400   319.27013     -1931.5172     -41132.32      -40784.955    
    174500   318.19661     -8373.3054     -41126.721     -40780.525    
    174600   339.62059     -7641.4167     -41160.255     -40790.749    
    174700   288.28506     -5964.7907     -41127.586     -40813.933    
    174800   304.2041      -12434.042     -41151.816     -40820.843    
    174900   305.14431     -2919.8098     -41149.148     -40817.152    
    175000   291.68465     -65.828088     -41125.407     -40808.055    
    175100   301.33439      1423.501      -41127.185     -40799.334    
    175200   290.11491     -9178.9456     -41116.328     -40800.684    
    175300   303.23872     -9440.0446     -41132.364     -40802.442    
    175400   295.74585     -1282.2474     -41136.712     -40814.942    
    175500   282.91889      3040.1565     -41154.278     -40846.464    
    175600   273.38181     -1342.6759     -41144.903     -40847.464    
    175700   303.64385      1811.6796     -41145.877     -40815.514    
    175800   308.49619     -9514.7179     -41140.59      -40804.947    
    175900   306.27533     -1522.7577     -41134.914     -40801.687    
    176000   306.23647     -6541.7531     -41128.375     -40795.191    
    176100   319.2102      -5476.1523     -41130.938     -40783.639    
    176200   310.55367     -8.3639176     -41121.253     -40783.372    
    176300   305.80248     -7134.6699     -41143.26      -40810.548    
    176400   294.89713     -1625.4922     -41148.758     -40827.912    
    176500   302.89414     -2545.5572     -41156.754     -40827.206    
    176600   305.58616      6253.8288     -41129.215     -40796.739    
    176700   315.32639      2566.8207     -41115.91      -40772.836    
    176800   307.02115     -16166.472     -41114.661     -40780.623    
    176900   290.63976     -2825.0519     -41117.973     -40801.758    
    177000   284.53636     -13319.22      -41126.887     -40817.312    
    177100   307.87516     -1638.5843     -41153.53      -40818.563    
    177200   319.83906     -2089.1472     -41135.642     -40787.659    
    177300   317.13069      1713.3854     -41113.372     -40768.335    
    177400   309.52692     -5590.4212     -41127.968     -40791.204    
    177500   306.09237     -3027.4878     -41146.401     -40813.374    
    177600   287.41422     -11001.095     -41135.549     -40822.843    
    177700   305.11501     -443.00087     -41151.318     -40819.354    
    177800   286.28621     -3240.3899     -41114.718     -40803.24     
    177900   316.40654     -3721.7173     -41105.31      -40761.061    
    178000   347.94531      1969.7115     -41145.757     -40767.194    
    178100   292.47249     -7817.8472     -41111.152     -40792.944    
    178200   304.653        822.31763     -41135.921     -40804.46     
    178300   286.00907     -1774.9056     -41127.972     -40816.795    
    178400   279.36977      5974.8398     -41140.889     -40836.935    
    178500   286.60779     -3798.1029     -41158.33      -40846.502    
    178600   301.29647     -1113.1578     -41153.414     -40825.605    
    178700   297.3786      -6295.3719     -41120.988     -40797.442    
    178800   312.3869       2596.6937     -41125.046     -40785.17     
    178900   303.48511     -8407.6842     -41128.754     -40798.564    
    179000   282.30579     -2948.1827     -41132.479     -40825.331    
    179100   283.35665     -14944.427     -41146.046     -40837.755    
    179200   291.49598     -10368.91      -41116.794     -40799.648    
    179300   311.67875     -1108.3445     -41115.816     -40776.711    
    179400   299.49392     -9108.5509     -41113.111     -40787.263    
    179500   322.53559     -8097.4754     -41156.337     -40805.42     
    179600   285.03563      3978.4627     -41139.155     -40829.037    
    179700   301.63186      4536.901      -41156.99      -40828.816    
    179800   292.06694     -1912.687      -41117.396     -40799.628    
    179900   323.77194      8326.8297     -41124.602     -40772.34     
    180000   332.08513      17333.123     -41144.002     -40782.695    
    180100   278.84765     -4080.3228     -41110.404     -40807.019    
    180200   295.48369     -5610.5168     -41135.746     -40814.261    
    180300   317.66684     -3239.0866     -41152.745     -40807.125    
    180400   306.03602      3803.1652     -41131.028     -40798.063    
    180500   290.43657     -3280.9686     -41126.665     -40810.672    
    180600   310.75913      7552.5257     -41164.771     -40826.667    
    180700   287.91337     -7313.4788     -41147.924     -40834.675    
    180800   298.5765      -8466.1586     -41141.364     -40816.514    
    180900   314.76833     -4454.8605     -41128.085     -40785.618    
    181000   302.24432     -3613.9304     -41111.823     -40782.983    
    181100   308.0984      -3204.409      -41121.438     -40786.229    
    181200   294.94348      13097.337     -41137.521     -40816.624    
    181300   300.78227     -8650.5059     -41161.776     -40834.526    
    181400   289.69469     -5682.54       -41143.858     -40828.671    
    181500   281.0803      -7748.4422     -41118.167     -40812.353    
    181600   309.30502      9938.7298     -41116.123     -40779.601    
    181700   322.87032     -8954.0603     -41130.148     -40778.866    
    181800   322.30653     -12406.863     -41149.031     -40798.363    
    181900   285.26231      5421.2021     -41133.94      -40823.576    
    182000   293.9378      -4828.2702     -41147.986     -40828.183    
    182100   296.04078      1181.7214     -41137.48      -40815.389    
    182200   323.93345      795.39558     -41127.478     -40775.04     
    182300   322.41195      295.22277     -41116.801     -40766.018    
    182400   309.67913     -9248.4911     -41125.582     -40788.652    
    182500   296.74236     -1216.8593     -41139.919     -40817.065    
    182600   303.26134     -2319.8272     -41146.853     -40816.906    
    182700   304.62018     -1348.0313     -41131.624     -40800.198    
    182800   317.6618      -9361.646      -41128.146     -40782.531    
    182900   297.29326     -17855.73      -41111.163     -40787.709    
    183000   294.44639     -3316.6417     -41147.429     -40827.073    
    183100   278.66832      5291.9973     -41135.53      -40832.34     
    183200   296.94034     -1792.7599     -41130.845     -40807.775    
    183300   297.49851     -6122.0131     -41120.314     -40796.637    
    183400   301.12292     -446.80133     -41127.871     -40800.251    
    183500   291.9955       3569.7935     -41118.988     -40801.298    
    183600   294.50528      345.66381     -41121.878     -40801.458    
    183700   311.71181     -16534.282     -41141.956     -40802.814    
    183800   313.10465     -1442.5783     -41151.66      -40811.004    
    183900   290.26414     -4783.3186     -41134.337     -40818.531    
    184000   282.14634     -8420.2998     -41128.664     -40821.69     
    184100   288.1542      -7778.2488     -41123.524     -40810.013    
    184200   309.81172     -2349.3757     -41121.536     -40784.462    
    184300   293.86732      684.08597     -41105.575     -40785.849    
    184400   276.57859     -2334.1865     -41111.18      -40810.263    
    184500   288.78069     -9881.3605     -41147.763     -40833.571    
    184600   313.31633     -8536.9118     -41169.809     -40828.923    
    184700   291.97487     -595.3509      -41128.953     -40811.285    
    184800   302.81819      1612.3272     -41125.569     -40796.104    
    184900   308.33057     -276.78318     -41131.168     -40795.705    
    185000   302.81067     -15557.162     -41138         -40808.543    
    185100   285.01596     -3601.446      -41123.917     -40813.821    
    185200   298.95229     -6741.6454     -41131.856     -40806.598    
    185300   324.7309      -14009.229     -41120.347     -40767.041    
    185400   319.77053     -4354.684      -41116.877     -40768.968    
    185500   303.10628     -3835.3389     -41129.269     -40799.491    
    185600   288.79181      11085.11      -41125.74      -40811.536    
    185700   290.86197     -1139.3411     -41127.706     -40811.25     
    185800   310.31431     -706.85378     -41136.559     -40798.939    
    185900   319.03898      351.14024     -41126.945     -40779.832    
    186000   315.14434     -6795.5341     -41105.327     -40762.451    
    186100   298.3705      -2243.6601     -41098.211     -40773.585    
    186200   297.53829     -4916.7091     -41129.821     -40806.1      
    186300   293.99692     -440.63927     -41131.477     -40811.61     
    186400   288.38279     -11390.656     -41121.913     -40808.154    
    186500   301.32693      11093.786     -41133.005     -40805.163    
    186600   303.17385     -12131.158     -41139.446     -40809.594    
    186700   306.26777     -6218.1524     -41141.944     -40808.726    
    186800   301.89198     -5346.7092     -41129.301     -40800.844    
    186900   304.14659      2206.1926     -41138.617     -40807.707    
    187000   301.48494     -2076.2196     -41143.515     -40815.5      
    187100   292.712       -13900.638     -41144.526     -40826.056    
    187200   289.97038     -70.27603      -41139.117     -40823.631    
    187300   286.48402     -2416.0825     -41103.692     -40791.999    
    187400   292.74266     -2188.6171     -41095.738     -40777.235    
    187500   314.32735     -16343.401     -41123.664     -40781.677    
    187600   298.45867     -9381.4302     -41133.236     -40808.514    
    187700   290.67417     -5155.3584     -41136.841     -40820.589    
    187800   288.89143     -270.16346     -41128.454     -40814.142    
    187900   306.25651     -4187.6484     -41131.199     -40797.993    
    188000   309.12399     -7555.7866     -41120.33      -40784.004    
    188100   324.45697      4146.4608     -41127.401     -40774.393    
    188200   333.28585     -3954.2144     -41129.381     -40766.767    
    188300   310.48222     -8795.8909     -41133.974     -40796.17     
    188400   298.12633     -6953.6941     -41140.546     -40816.186    
    188500   304.61633     -6058.1365     -41151.238     -40819.817    
    188600   320.05754     -8759.8612     -41153.028     -40804.807    
    188700   284.49056     -8856.6441     -41084.138     -40774.614    
    188800   315.77783      14616.867     -41104.22      -40760.655    
    188900   334.24562     -4300.8201     -41143.862     -40780.204    
    189000   309.45057     -10194.043     -41134.422     -40797.741    
    189100   291.61        -4392.8854     -41127.16      -40809.889    
    189200   288.84213     -8499.8562     -41129.753     -40815.494    
    189300   275.03414      6460.2851     -41097.885     -40798.649    
    189400   305.33544      4977.7393     -41101.362     -40769.158    
    189500   306.27131     -5835.9319     -41107.306     -40774.084    
    189600   304.91705     -9180.9918     -41126.776     -40795.028    
    189700   295.18707     -12075.768     -41130.231     -40809.068    
    189800   296.8183      -8963.5531     -41129.492     -40806.555    
    189900   305.12852     -2945.2574     -41128.599     -40796.62     
    190000   309.1958      -11019.257     -41120.538     -40784.134    
    190100   316.96926     -20163.614     -41127.856     -40782.994    
    190200   298.47484      6405.3482     -41139.889     -40815.15     
    190300   277.83918     -314.16257     -41126.408     -40824.12     
    190400   291.62985     -5511.8285     -41124.717     -40807.425    
    190500   318.43468     -2292.1892     -41125.139     -40778.684    
    190600   304.42578      3369.6126     -41105.214     -40774        
    190700   309.5999      -6501.9944     -41121.099     -40784.256    
    190800   289.94061     -8298.1279     -41113.512     -40798.058    
    190900   298.4078      -5522.1113     -41129.273     -40804.606    
    191000   304.67843     -13688.498     -41142.232     -40810.743    
    191100   279.05183     -108.43459     -41151.239     -40847.632    
    191200   270.10806     -6437.7118     -41143.819     -40849.942    
    191300   298.93808     -2548.9792     -41139.732     -40814.488    
    191400   310.54758     -6805.2233     -41139.522     -40801.648    
    191500   303.61005     -2930.8435     -41124.296     -40793.969    
    191600   309.57789      8049.2582     -41127.539     -40790.719    
    191700   301.53997     -1005.3459     -41121.972     -40793.897    
    191800   292.17975     -8784.5151     -41137.265     -40819.374    
    191900   297.21265     -4630.0847     -41154.777     -40831.411    
    192000   298.45229     -2491.5898     -41145.552     -40820.837    
    192100   301.0531      -1788.8941     -41110.141     -40782.597    
    192200   299.97321     -1175.5206     -41105.243     -40778.874    
    192300   308.76693     -7049.068      -41130.927     -40794.99     
    192400   295.68084      7115.6504     -41140.608     -40818.909    
    192500   276.25339     -7881.3093     -41117.277     -40816.715    
    192600   299.79474     -10708.597     -41130.569     -40804.393    
    192700   299.01675      1269.6819     -41123.487     -40798.158    
    192800   319.43978      142.37981     -41145.335     -40797.786    
    192900   304.62281     -4153.1243     -41131.374     -40799.946    
    193000   288.37002     -2128.0219     -41120.307     -40806.562    
    193100   311.85203     -10701.772     -41154.707     -40815.413    
    193200   301.352        1021.3855     -41146.986     -40819.116    
    193300   308.74763     -2168.7523     -41127.867     -40791.951    
    193400   307.99583      968.99587     -41110.486     -40775.388    
    193500   303.04005     -9359.3785     -41121.278     -40791.572    
    193600   293.49373     -1992.4767     -41138.662     -40819.342    
    193700   283.43064      1646.5865     -41131.095     -40822.724    
    193800   288.11641      3769.7133     -41128.94      -40815.47     
    193900   294.19412     -4055.513      -41129.898     -40809.816    
    194000   318.95924     -1749.8214     -41127.29      -40780.264    
    194100   324.13978     -15497.245     -41118.268     -40765.605    
    194200   320.35719     -6728.0674     -41134.043     -40785.496    
    194300   296.5895       7802.1577     -41128.547     -40805.859    
    194400   294.03841     -1983.7878     -41133.099     -40813.186    
    194500   283.89667      415.33584     -41123.609     -40814.731    
    194600   318.85205      2961.4359     -41137.707     -40790.797    
    194700   324.86078     -4078.981      -41128.339     -40774.892    
    194800   297.68706     -8324.318      -41125.545     -40801.662    
    194900   292.97578      1905.9846     -41141.993     -40823.237    
    195000   322.24908     -147.95582     -41168.938     -40818.332    
    195100   305.40388      3122.8422     -41140.515     -40808.237    
    195200   315.17457      4344.0127     -41119.62      -40776.712    
    195300   311.68079      173.3098      -41098.332     -40759.225    
    195400   300.45664      3573.2555     -41118.736     -40791.84     
    195500   280.9756       3521.2835     -41125.818     -40820.118    
    195600   306.28028     -6867.1437     -41147.134     -40813.902    
    195700   322.65542      1472.7264     -41144.92      -40793.872    
    195800   313.42029      8277.9444     -41126.873     -40785.873    
    195900   310.838       -2871.1447     -41142.014     -40803.824    
    196000   295.63977      1009.4631     -41150.005     -40828.35     
    196100   275.32782     -8397.6876     -41134.009     -40834.454    
    196200   302.50327      1635.338      -41128.28      -40799.157    
    196300   316.26156      3710.808      -41130.224     -40786.132    
    196400   301.76368      9970.1758     -41131.4       -40803.083    
    196500   290.52454     -12109.17      -41133.552     -40817.463    
    196600   298.88923     -3473.4416     -41135.725     -40810.535    
    196700   323.09297     -2615.6613     -41125.064     -40773.54     
    196800   294.68922      4897.91       -41094.773     -40774.153    
    196900   310.99184      5427.8713     -41136.049     -40797.691    
    197000   295.43876     -2319.1249     -41146.067     -40824.631    
    197100   288.92146     -8562.8467     -41141.502     -40827.157    
    197200   297.42108     -3418.4856     -41142.054     -40818.461    
    197300   298.79998      3536.7683     -41119.266     -40794.173    
    197400   313.97667     -4827.254      -41109.492     -40767.886    
    197500   308.76415      187.63646     -41112.98      -40777.046    
    197600   304.79422     -9424.3394     -41121.071     -40789.456    
    197700   293.58803      4239.9312     -41122.673     -40803.251    
    197800   298.60175     -6020.7918     -41148.978     -40824.1      
    197900   291.28922     -4562.1794     -41155.264     -40838.342    
    198000   291.36183      4588.4051     -41141.862     -40824.862    
    198100   309.81208     -9798.9993     -41144.341     -40807.267    
    198200   306.96559      9347.0557     -41136.808     -40802.831    
    198300   311.73561      2914.7738     -41142.356     -40803.189    
    198400   309.96039     -11945.75      -41150.973     -40813.737    
    198500   292.85114     -5984.8924     -41142.399     -40823.778    
    198600   278.30934     -1204.018      -41139.342     -40836.543    
    198700   276.63946      2915.0932     -41141.116     -40840.134    
    198800   289.59801      307.03103     -41121.337     -40806.255    
    198900   310.18217      1944.0784     -41131.232     -40793.755    
    199000   294.69471     -6098.5235     -41123.161     -40802.534    
    199100   301.52376     -2418.7684     -41150.821     -40822.765    
    199200   275.25753     -1199.1388     -41149.42      -40849.941    
    199300   285.05156     -6014.6319     -41148.805     -40838.67     
    199400   300.54975     -2546.6312     -41122.342     -40795.345    
    199500   320.35492     -5382.3902     -41130.921     -40782.376    
    199600   303.6134      -6441.0019     -41125.849     -40795.519    
    199700   298.59723     -10427.58      -41133.035     -40808.162    
    199800   270.79951     -9371.3542     -41121.496     -40826.867    
    199900   276.18862     -866.94065     -41141.203     -40840.711    
    200000   291.03529     -4896.4118     -41137.438     -40820.792    
Loop time of 18245.6 on 8 procs for 200000 steps with 366 atoms

Performance: 0.474 ns/day, 50.682 hours/ns, 10.962 timesteps/s, 4.012 katom-step/s
85.0% CPU use with 4 MPI tasks x 2 OpenMP threads

MPI task timing breakdown:
Section |  min time  |  avg time  |  max time  |%varavg| %total
---------------------------------------------------------------
Pair    | 11589      | 11673      | 11843      |  93.0 | 63.98
Bond    | 0.66383    | 0.72005    | 0.82476    |   7.3 |  0.00
Neigh   | 127.16     | 128.8      | 130.02     |  10.4 |  0.71
Comm    | 3688.6     | 3859       | 3948.2     | 162.5 | 21.15
Output  | 5.706      | 7.4272     | 9.833      |  65.0 |  0.04
Modify  | 2547.1     | 2551.8     | 2557.1     |   8.9 | 13.99
Other   |            | 24.46      |            |       |  0.13

Nlocal:           91.5 ave         100 max          88 min
Histogram: 3 0 0 0 0 0 0 0 0 1
Nghost:        4149.25 ave        4181 max        4111 min
Histogram: 1 0 0 1 0 0 0 0 1 1
Neighs:        60451.2 ave       65529 max       58337 min
Histogram: 2 1 0 0 0 0 0 0 0 1

Total # of neighbors = 241805
Ave neighs/atom = 660.6694
Ave special neighs/atom = 0
Neighbor list builds = 2393
Dangerous builds = 0
System init for write_data ...
WARNING: Compute rdf cutoff less than neighbor cutoff - forcing a needless neighbor list build (src/compute_rdf.cpp:179)
Total wall time: 5:04:17
