LAMMPS (2 Aug 2023 - Update 2)
  using 1 OpenMP thread(s) per MPI task
# Initialization
units           real
dimension       3
boundary        p p p
atom_style      full
timestep        0.5   # fs

variable       nevery equal 1000
variable       nrepeat equal 1
variable       nfreq equal ${nevery}*${nrepeat}
variable       nfreq equal 1000*${nrepeat}
variable       nfreq equal 1000*1
variable       nthermo equal ${nfreq}/10
variable       nthermo equal 1000/10
variable       nrun equal 1200*${nthermo}          # stpes of equilibrated run 1000 (30 min)
variable       nrun equal 1200*100          

variable temp equal 300.0                # temperature of initial sample
variable tdamp equal 50.0                 # time constant for thermostat
variable seed equal 123456                # seed for thermostat
variable ufac equal 1.01325e-4         # pressure unit conversion, from atm to Gpa
variable up equal .6                  # the deformation magnitude 0.01

variable FF string "SiOCHN_2018.ff C H O Si"   # force field args for pair_coeff
# pair_coeff * * CHONSSi.ff O Si
# pair_coeff * * CHOSiNa.ff O Si
# 2019: pair_coeff * * SiOCHN_2018.ff C H O Si
# pair_coeff * * PDMSDecomp.ff Si O
# 2020: pair_coeff * * CHONSi.ff C H O Si
# pair_coeff * * CHOFe.ff O Si
variable structure string 333U-50C-5-vasp

# Read the initial sctructure
# box tilt large
read_data       ${structure}.data
read_data       333U-50C-5-vasp.data
Reading data file ...
  triclinic box = (0 0 0) to (15.6782 14.2194 17.6383) with tilt (-7.0409 -1.0144 0.675)
  2 by 2 by 2 MPI processor grid
  reading atoms ...
  350 atoms
Finding 1-2 1-3 1-4 neighbors ...
  special bond factors lj:    0        0        0       
  special bond factors coul:  0        0        0       
     0 = max # of 1-2 neighbors
     0 = max # of 1-3 neighbors
     0 = max # of 1-4 neighbors
     1 = max # of special neighbors
  special bonds CPU = 0.001 seconds
  read_data CPU = 0.008 seconds

# Assign the force field
pair_style reaxff NULL safezone 3.0 mincap 150
pair_coeff * * ${FF}
pair_coeff * * SiOCHN_2018.ff C H O Si
WARNING: Van der Waals parameters for element SI indicate inner wall+shielding, but earlier atoms indicate a different van der Waals method. This may cause division-by-zero errors. Keeping van der Waals setting for earlier atoms. (src/REAXFF/reaxff_ffield.cpp:251)
# charge method for reaxff
fix myqeq all qeq/reaxff 1 0.0 10.0 1.0e-6 reaxff maxiter 400

# # Energy minimization
# print "*****Minimization starts.*****"
# dump dump_opt all custom 1 dump/dump_opt.lammpstrj id type q x y z
# minimize 1.0e-6 1.0e-6 100 1000
# min_style cg
# # Save the optimized structure
# write_data ${structure}_opt.data
# undump dump_opt
# unfix bondinfo

velocity        all create ${temp} ${seed} dist gaussian
velocity        all create 300 ${seed} dist gaussian
velocity        all create 300 123456 dist gaussian

# # Equilibration
# variable       nequil equal 10*${nthermo}  # 2000: 100 ps
# include ff.mod.lmp
# if "$(is_defined(fix,avgp))" then "unfix avgp"
# if "$(is_defined(fix,avgl))" then "unfix avgl"
# thermo_style custom step temp pe press density vol
# dump dump_eq all custom ${nthermo} dump/dump_eq.lammpstrj id type q x y z

# run ${nequil}
# # Save the equilibrated structure
# write_data ${structure}_eq.data
# undump dump_eq

# use tmp to save initial length and tilt
variable tmp equal lx
variable lx0 equal ${tmp}
variable lx0 equal 15.6782
variable tmp equal ly
variable ly0 equal ${tmp}
variable ly0 equal 14.2194
variable tmp equal lz
variable lz0 equal ${tmp}
variable lz0 equal 17.6383

variable tmp equal yz
variable yz0 equal ${tmp}
variable yz0 equal 0.675
variable tmp equal xz
variable xz0 equal ${tmp}
variable xz0 equal -1.0144
variable tmp equal xy
variable xy0 equal ${tmp}
variable xy0 equal -7.0409

# velocity all create ${temp} ${seed} dist gaussian
# Write restart
write_restart equil.res
System init for write_restart ...
WARNING: Fix qeq/reaxff group is not charge neutral, net charge = -10.66 (src/REAXFF/fix_qeq_reaxff.cpp:392)
Neighbor list info ...
  update: every = 1 steps, delay = 0 steps, check = yes
  max neighbors/atom: 2000, page size: 100000
  master list distance cutoff = 12
  ghost atom cutoff = 12
  binsize = 6, bins = 4 3 3
  2 neighbor lists, perpetual/occasional/extra = 2 0 0
  (1) pair reaxff, perpetual
      attributes: half, newton off, ghost
      pair build: half/bin/newtoff/ghost
      stencil: full/ghost/bin/3d
      bin: standard
  (2) fix qeq/reaxff, perpetual, copy from (1)
      attributes: half, newton off
      pair build: copy
      stencil: none
      bin: none

# uzz Perturbation
variable dir equal 3
include displace.mod.lmp
# Find which length (epsilon) to calculate
if "${dir} == 1" then    "variable len0 equal ${lx0}"    "variable dlen equal lx-${len0}"
if "${dir} == 2" then    "variable len0 equal ${ly0}"    "variable dlen equal ly-${len0}"
if "${dir} == 3" then    "variable len0 equal ${lz0}"    "variable dlen equal lz-${len0}"
variable len0 equal ${lz0}
variable len0 equal 17.6383
variable dlen equal lz-${len0}
variable dlen equal lz-17.6383
if "${dir} == 4" then    "variable len0 equal ${lx0}"    "variable dlen equal 2*(yz-${yz0})"
if "${dir} == 5" then    "variable len0 equal ${ly0}"    "variable dlen equal 2*(xz-${xz0})"
if "${dir} == 6" then    "variable len0 equal ${lz0}"    "variable dlen equal 2*(xy-${xy0})"

# strain vector (epsilon)
variable eps equal v_dlen/v_len0

# stress vector (sigma)
variable sig1 equal -f_avgp[1]*${ufac}
variable sig1 equal -f_avgp[1]*0.000101325
variable sig2 equal -f_avgp[2]*${ufac}
variable sig2 equal -f_avgp[2]*0.000101325
variable sig3 equal -f_avgp[3]*${ufac}
variable sig3 equal -f_avgp[3]*0.000101325
variable sig4 equal -f_avgp[6]*${ufac}
variable sig4 equal -f_avgp[6]*0.000101325
variable sig5 equal -f_avgp[5]*${ufac}
variable sig5 equal -f_avgp[5]*0.000101325
variable sig6 equal -f_avgp[4]*${ufac}
variable sig6 equal -f_avgp[4]*0.000101325

# Reset box and simulation parameters
clear
  using 1 OpenMP thread(s) per MPI task
# box tilt large
read_restart equil.res
Reading restart file ...
  restart file = 2 Aug 2023, LAMMPS = 2 Aug 2023
  restoring atom style full from restart
  triclinic box = (0 0 0) to (15.6782 14.2194 17.6383) with tilt (-7.0409 -1.0144 0.675)
  2 by 2 by 2 MPI processor grid
  pair style reaxff stores no restart info
  350 atoms
Finding 1-2 1-3 1-4 neighbors ...
  special bond factors lj:    0        0        0       
  special bond factors coul:  0        0        0       
     0 = max # of 1-2 neighbors
     0 = max # of 1-3 neighbors
     0 = max # of 1-4 neighbors
     1 = max # of special neighbors
  special bonds CPU = 0.000 seconds
  read_restart CPU = 0.004 seconds

# Positive deformation
variable delta equal ${up}*${len0}
variable delta equal 0.6*${len0}
variable delta equal 0.6*17.6383
variable deltaxy equal ${up}*xy
variable deltaxy equal 0.6*xy
variable deltaxz equal ${up}*xz
variable deltaxz equal 0.6*xz
variable deltayz equal ${up}*yz
variable deltayz equal 0.6*yz
if "${dir} == 1" then    "fix deform_p all deform ${nthermo} x delta 0 ${delta} xy delta ${deltaxy} xz delta ${deltaxz} remap v units box flip no"
if "${dir} == 2" then    "fix deform_p all deform ${nthermo} y delta 0 ${delta} yz delta ${deltayz} remap v units box flip no"
if "${dir} == 3" then    "fix deform_p all deform ${nthermo} z delta 0 ${delta} remap v units box"
fix deform_p all deform ${nthermo} z delta 0 ${delta} remap v units box
fix deform_p all deform 100 z delta 0 ${delta} remap v units box
fix deform_p all deform 100 z delta 0 10.58298 remap v units box
if "${dir} == 4" then    "fix deform_p all deform ${nthermo} yz delta ${delta} remap v units box flip no"
if "${dir} == 5" then    "fix deform_p all deform ${nthermo} xz delta ${delta} remap v units box flip no"
if "${dir} == 6" then    "fix deform_p all deform ${nthermo} xy delta ${delta} remap v units box flip no"

# Run deformation MD
print "*****Positive-deform ${dir} starts.*****"
*****Positive-deform 3 starts.*****
# Save bond information
fix bondinfo all reaxff/bonds ${nthermo} bonds/bonds.pos${dir}.reaxff
fix bondinfo all reaxff/bonds 100 bonds/bonds.pos${dir}.reaxff
fix bondinfo all reaxff/bonds 100 bonds/bonds.pos3.reaxff
# Reset neighbor style
neighbor        2 bin
neigh_modify    every 10 delay 0 check no

include ff.mod.lmp
# Setup forcefield, system
# undefine any fix ave/* fix before using reset_timestep
if "$(is_defined(fix,avgp))" then "unfix avgp"
if "$(is_defined(fix,avgl))" then "unfix avgl"
reset_timestep 0

# Assign the force field
pair_style reaxff NULL safezone 3.0 mincap 150
pair_coeff * * ${FF}
pair_coeff * * SiOCHN_2018.ff C H O Si
WARNING: Van der Waals parameters for element SI indicate inner wall+shielding, but earlier atoms indicate a different van der Waals method. This may cause division-by-zero errors. Keeping van der Waals setting for earlier atoms. (src/REAXFF/reaxff_ffield.cpp:251)

# charge method for reaxff
fix myqeq all qeq/reaxff 1 0.0 10.0 1.0e-6 reaxff maxiter 400
# fix bondinfo all reaxff/bonds ${nthermo} bonds.reaxff
# Setup neighbor style
neighbor        2 bin
neigh_modify    every 10 delay 0 check no

# Setup output
thermo		${nthermo}
thermo		100
thermo_style custom step temp press vol lz density
# thermo_style custom step vol lx ly lz yz xz xy
thermo_modify norm no
# thermo_modify line multi

# Sample pressure (and length vector)
fix avgp all ave/time  ${nevery} ${nrepeat} ${nfreq} c_thermo_press mode vector
fix avgp all ave/time  1000 ${nrepeat} ${nfreq} c_thermo_press mode vector
fix avgp all ave/time  1000 1 ${nfreq} c_thermo_press mode vector
fix avgp all ave/time  1000 1 1000 c_thermo_press mode vector
# fix avgp all ave/time  10 10 ${nthermo} c_thermo_press mode vector
# variable lx equal lx
# variable ly equal ly
# variable lz equal lz
# fix avgl all ave/time  ${nevery} ${nrepeat} ${nfreq} v_lx v_ly v_lz

# nvt
fix fnvt all nvt temp ${temp} ${temp} ${tdamp}
fix fnvt all nvt temp 300 ${temp} ${tdamp}
fix fnvt all nvt temp 300 300 ${tdamp}
fix fnvt all nvt temp 300 300 50


# Save stress, strain to "./stress_strain/stress_strain.pos${dir}.out"
print "# Stress and strain vectors, ${structure}, positive deformation ${dir}"       file stress_strain/stress_strain.pos${dir}.out screen no
print "# Stress and strain vectors, ${structure}, positive deformation ${dir}"       file stress_strain/stress_strain.pos3.out screen no
fix data all print ${nfreq} "${eps} ${sig1} ${sig2} ${sig3} ${sig4} ${sig5} ${sig6}"       append stress_strain/stress_strain.pos${dir}.out screen no       title "# eps sig1 sig2 sig3 sig4 sig5 sig6"
fix data all print 1000 "${eps} ${sig1} ${sig2} ${sig3} ${sig4} ${sig5} ${sig6}"       append stress_strain/stress_strain.pos${dir}.out screen no       title "# eps sig1 sig2 sig3 sig4 sig5 sig6"
fix data all print 1000 "${eps} ${sig1} ${sig2} ${sig3} ${sig4} ${sig5} ${sig6}"       append stress_strain/stress_strain.pos3.out screen no       title "# eps sig1 sig2 sig3 sig4 sig5 sig6"

# compute MSD and RDF
compute msd1 all msd
fix myMSD all ave/time 10 10 ${nthermo} c_msd1[1] c_msd1[2] c_msd1[3] c_msd1[4] c_thermo_temp     file msd.out     title2 "# TimeStep MSD_X MSD_Y MSD_Z MSD_Total Temperture"
fix myMSD all ave/time 10 10 100 c_msd1[1] c_msd1[2] c_msd1[3] c_msd1[4] c_thermo_temp     file msd.out     title2 "# TimeStep MSD_X MSD_Y MSD_Z MSD_Total Temperture"
# C-C C-Si Si-O C-H Si-Si
compute rdf1 all rdf 100  1 1  1 4  3 4  1 2 cutoff 5.0
fix myRDF all ave/time ${nevery} ${nrepeat} ${nfreq} c_rdf1[*]     file rdf.out mode vector     title3 "# Row r g1(r) coor1(r) ..."
fix myRDF all ave/time 1000 ${nrepeat} ${nfreq} c_rdf1[*]     file rdf.out mode vector     title3 "# Row r g1(r) coor1(r) ..."
fix myRDF all ave/time 1000 1 ${nfreq} c_rdf1[*]     file rdf.out mode vector     title3 "# Row r g1(r) coor1(r) ..."
fix myRDF all ave/time 1000 1 1000 c_rdf1[*]     file rdf.out mode vector     title3 "# Row r g1(r) coor1(r) ..."

# save trajectory
# if "$(is_defined(dump,dump_pos${dir1}))" then "undump dump_pos${dir1}"
dump dump_pos${dir} all custom ${nthermo} dump/pos${dir}_deform.lammpstrj id type q x y z element
dump dump_pos3 all custom ${nthermo} dump/pos${dir}_deform.lammpstrj id type q x y z element
dump dump_pos3 all custom 100 dump/pos${dir}_deform.lammpstrj id type q x y z element
dump dump_pos3 all custom 100 dump/pos3_deform.lammpstrj id type q x y z element
dump_modify dump_pos${dir} element C H O Si
dump_modify dump_pos3 element C H O Si
run ${nrun}
run 120000

CITE-CITE-CITE-CITE-CITE-CITE-CITE-CITE-CITE-CITE-CITE-CITE-CITE

Your simulation uses code contributions which should be cited:

- pair reaxff command: doi:10.1016/j.parco.2011.08.005

@Article{Aktulga12,
 author = {H. M. Aktulga and J. C. Fogarty and S. A. Pandit and A. Y. Grama},
 title = {Parallel Reactive Molecular Dynamics: {N}umerical Methods and Algorithmic Techniques},
 journal = {Parallel Computing},
 year =    2012,
 volume =  38,
 number =  {4--5},
 pages =   {245--259}
}

- fix qeq/reaxff command: doi:10.1016/j.parco.2011.08.005

@Article{Aktulga12,
 author = {H. M. Aktulga and J. C. Fogarty and S. A. Pandit and A. Y. Grama},
 title = {Parallel Reactive Molecular Dynamics: {N}umerical Methods and Algorithmic Techniques},
 journal = {Parallel Computing},
 year =    2012,
 volume =  38,
 pages =   {245--259}
}

CITE-CITE-CITE-CITE-CITE-CITE-CITE-CITE-CITE-CITE-CITE-CITE-CITE

WARNING: Compute rdf cutoff less than neighbor cutoff - forcing a needless neighbor list build (src/compute_rdf.cpp:179)
WARNING: Fix qeq/reaxff group is not charge neutral, net charge = -10.66 (src/REAXFF/fix_qeq_reaxff.cpp:392)
Neighbor list info ...
  update: every = 10 steps, delay = 0 steps, check = no
  max neighbors/atom: 2000, page size: 100000
  master list distance cutoff = 12
  ghost atom cutoff = 12
  binsize = 6, bins = 4 3 3
  3 neighbor lists, perpetual/occasional/extra = 2 1 0
  (1) pair reaxff, perpetual
      attributes: half, newton off, ghost
      pair build: half/bin/newtoff/ghost
      stencil: full/ghost/bin/3d
      bin: standard
  (2) compute rdf, occasional
      attributes: half, newton on, cut 7
      pair build: half/bin/newton/tri
      stencil: half/bin/3d/tri
      bin: standard
  (3) fix qeq/reaxff, perpetual, copy from (1)
      attributes: half, newton off
      pair build: copy
      stencil: none
      bin: none
Per MPI rank memory allocation (min/avg/max) = 128.3 | 129 | 129.6 Mbytes
   Step          Temp          Press          Volume           Lz          Density    
         0   300            175786.22      3932.1873      17.6383        1.6516858    
       100   1383.6572     -6282.5971      3934.1534      17.647119      1.6508604    
       200   786.68266     -1709.619       3936.1195      17.655938      1.6500358    
       300   561.46001      12463.928      3938.0856      17.664757      1.649212     
       400   407.06757      12288.496      3940.0517      17.673577      1.648389     
       500   316.95675     -575.40934      3942.0178      17.682396      1.6475669    
       600   269.54314      3073.6899      3943.9839      17.691215      1.6467456    
       700   303.75169     -7221.9019      3945.95        17.700034      1.6459251    
       800   300.82127     -3405.5032      3947.9161      17.708853      1.6451054    
       900   304.74028      4410.7766      3949.8821      17.717672      1.6442865    
      1000   298.49646      823.34739      3951.8482      17.726492      1.6434685    
      1100   282.22208     -683.23178      3953.8143      17.735311      1.6426512    
      1200   322.72915      3783.4642      3955.7804      17.74413       1.6418348    
      1300   368.06639     -4922.0127      3957.7465      17.752949      1.6410192    
      1400   303.03089     -7897.209       3959.7126      17.761768      1.6402044    
      1500   258.11532     -5331.6066      3961.6787      17.770587      1.6393904    
      1600   309.30786      1946.5753      3963.6448      17.779406      1.6385772    
      1700   300.0725       943.43711      3965.6109      17.788226      1.6377648    
      1800   272.68946     -4779.5392      3967.577       17.797045      1.6369532    
      1900   278.85738     -7876.1741      3969.5431      17.805864      1.6361424    
      2000   303.77235     -50.175465      3971.5092      17.814683      1.6353325    
      2100   308.651       -11345.225      3973.4753      17.823502      1.6345233    
      2200   289.88541     -4664.6978      3975.4414      17.832321      1.6337149    
      2300   322.98021      6759.576       3977.4075      17.84114       1.6329074    
      2400   262.80367      15830.152      3979.3736      17.84996       1.6321006    
      2500   245.85767      603.9382       3981.3396      17.858779      1.6312946    
      2600   304.101        6602.703       3983.3057      17.867598      1.6304894    
      2700   360.4276       21157.474      3985.2718      17.876417      1.629685     
      2800   337.09944      12845.984      3987.2379      17.885236      1.6288815    
      2900   316.67762     -429.55683      3989.204       17.894055      1.6280787    
      3000   278.96851      401.80511      3991.1701      17.902874      1.6272766    
      3100   296.86419      8152.457       3993.1362      17.911694      1.6264754    
      3200   275.79273     -9670.8645      3995.1023      17.920513      1.625675     
      3300   283.37208     -7595.4812      3997.0684      17.929332      1.6248754    
      3400   355.84597      9751.6897      3999.0345      17.938151      1.6240765    
      3500   266.02889      10947.299      4001.0006      17.94697       1.6232784    
      3600   259.63317      9126.599       4002.9667      17.955789      1.6224811    
      3700   287.49384      19495.245      4004.9328      17.964609      1.6216846    
      3800   260.26644      13600.869      4006.8989      17.973428      1.6208889    
      3900   317.45069      11102.436      4008.865       17.982247      1.620094     
      4000   360.43513      9992.6507      4010.831       17.991066      1.6192998    
      4100   297.89362      2282.3169      4012.7971      17.999885      1.6185064    
      4200   321.90163      6567.8211      4014.7632      18.008704      1.6177138    
      4300   241.08676      4825.6022      4016.7293      18.017523      1.616922     
      4400   343.04263     -5339.3385      4018.6954      18.026343      1.6161309    
      4500   287.04083      361.60043      4020.6615      18.035162      1.6153406    
      4600   308.95022      4412.5218      4022.6276      18.043981      1.6145511    
      4700   261.95977      832.10417      4024.5937      18.0528        1.6137624    
      4800   374.45963     -2961.932       4026.5598      18.061619      1.6129744    
      4900   265.20676      683.25767      4028.5259      18.070438      1.6121872    
      5000   325.91439      10047.764      4030.492       18.079258      1.6114008    
      5100   273.8395      -3348.4349      4032.4581      18.088077      1.6106151    
      5200   250.89569      8815.8277      4034.4242      18.096896      1.6098302    
      5300   304.86401     -10641.174      4036.3903      18.105715      1.6090461    
      5400   310.36067      4025.4365      4038.3564      18.114534      1.6082627    
      5500   305.96051      11035.623      4040.3225      18.123353      1.6074801    
      5600   315.52111      2893.6499      4042.2885      18.132172      1.6066982    
      5700   294.43664      4891.0323      4044.2546      18.140992      1.6059172    
      5800   330.06421      3295.5673      4046.2207      18.149811      1.6051368    
      5900   265.75965     -2421.9226      4048.1868      18.15863       1.6043573    
      6000   297.9032      -1643.3775      4050.1529      18.167449      1.6035784    
      6100   261.44723      846.57226      4052.119       18.176268      1.6028004    
      6200   292.2727       10610.518      4054.0851      18.185087      1.6020231    
      6300   259.31608      5663.6494      4056.0512      18.193906      1.6012465    
      6400   274.29262     -7332.2573      4058.0173      18.202726      1.6004707    
      6500   266.29608      8844.3545      4059.9834      18.211545      1.5996957    
      6600   338.23754      18120.118      4061.9495      18.220364      1.5989214    
      6700   342.64567     -9211.295       4063.9156      18.229183      1.5981478    
      6800   277.25684     -7880.1207      4065.8817      18.238002      1.597375     
      6900   268.36339     -5493.4399      4067.8478      18.246821      1.596603     
      7000   262.42829     -1965.8115      4069.8139      18.255641      1.5958317    
      7100   312.26828     -3464.7156      4071.78        18.26446       1.5950611    
      7200   263.57223     -13233.464      4073.746       18.273279      1.5942913    
      7300   320.25277      13252.25       4075.7121      18.282098      1.5935222    
      7400   303.28476     -10489.501      4077.6782      18.290917      1.5927539    
      7500   279.03805     -4437.7804      4079.6443      18.299736      1.5919863    
      7600   285.61301      3732.4873      4081.6104      18.308555      1.5912195    
      7700   282.48901      544.30351      4083.5765      18.317375      1.5904533    
      7800   281.06992     -11015.012      4085.5426      18.326194      1.589688     
      7900   270.11346      1004.5186      4087.5087      18.335013      1.5889233    
      8000   321.92066     -4858.7674      4089.4748      18.343832      1.5881594    
      8100   283.57886     -10192.038      4091.4409      18.352651      1.5873962    
      8200   317.15713     -2633.4939      4093.407       18.36147       1.5866338    
      8300   373.46654      1377.1337      4095.3731      18.370289      1.5858721    
      8400   290.92723     -5964.8451      4097.3392      18.379109      1.5851111    
      8500   336.52903     -5973.9668      4099.3053      18.387928      1.5843509    
      8600   260.16469      4329.4495      4101.2714      18.396747      1.5835914    
      8700   269.6271      -2753.0756      4103.2375      18.405566      1.5828326    
      8800   308.57296      3063.7894      4105.2035      18.414385      1.5820745    
      8900   270.8469       2671.1767      4107.1696      18.423204      1.5813172    
      9000   266.82902     -19059.278      4109.1357      18.432023      1.5805606    
      9100   288.80815      1580.0153      4111.1018      18.440843      1.5798047    
      9200   257.99268     -2102.7427      4113.0679      18.449662      1.5790495    
      9300   293.43449     -19020.079      4115.034       18.458481      1.5782951    
      9400   302.4751      -6114.8175      4117.0001      18.4673        1.5775414    
      9500   318.1104       7229.08        4118.9662      18.476119      1.5767884    
      9600   335.5912      -4195.2655      4120.9323      18.484938      1.5760361    
      9700   315.89425     -6695.398       4122.8984      18.493758      1.5752845    
      9800   295.30101      1642.4752      4124.8645      18.502577      1.5745336    
      9900   286.36281     -15407.298      4126.8306      18.511396      1.5737835    
     10000   268.40944     -5071.1247      4128.7967      18.520215      1.5730341    
     10100   287.35198     -3899.8641      4130.7628      18.529034      1.5722854    
     10200   341.66074     -9056.7034      4132.7289      18.537853      1.5715374    
     10300   331.06888     -5180.2666      4134.6949      18.546672      1.5707901    
     10400   315.78575     -15726.177      4136.661       18.555492      1.5700435    
     10500   273.23889      2810.6927      4138.6271      18.564311      1.5692977    
     10600   256.51842     -15479.243      4140.5932      18.57313       1.5685525    
     10700   320.61471      7463.9369      4142.5593      18.581949      1.5678081    
     10800   321.43422     -5105.4872      4144.5254      18.590768      1.5670643    
     10900   278.67856     -2226.9092      4146.4915      18.599587      1.5663213    
     11000   307.31069      2679.1465      4148.4576      18.608407      1.565579     
     11100   295.26064     -10204.483      4150.4237      18.617226      1.5648373    
     11200   319.00097     -1902.0722      4152.3898      18.626045      1.5640964    
     11300   310.20761     -5747.6225      4154.3559      18.634864      1.5633562    
     11400   273.47852      4488.654       4156.322       18.643683      1.5626166    
     11500   321.08869     -2085.3953      4158.2881      18.652502      1.5618778    
     11600   313.43109     -5193.7979      4160.2542      18.661321      1.5611397    
     11700   263.71494     -6221.2446      4162.2203      18.670141      1.5604023    
     11800   337.21541      1011.7833      4164.1864      18.67896       1.5596655    
     11900   280.56571     -4687.084       4166.1524      18.687779      1.5589295    
     12000   296.18503     -6767.6172      4168.1185      18.696598      1.5581941    
     12100   263.96081     -11623.755      4170.0846      18.705417      1.5574595    
     12200   335.84141     -10013.915      4172.0507      18.714236      1.5567255    
     12300   285.07283     -3853.1149      4174.0168      18.723055      1.5559923    
     12400   341.61284     -3235.4069      4175.9829      18.731875      1.5552597    
     12500   308.51169      3302.6936      4177.949       18.740694      1.5545278    
     12600   258.38297      802.91388      4179.9151      18.749513      1.5537966    
     12700   276.22257     -17881.061      4181.8812      18.758332      1.5530661    
     12800   306.18472     -6774.8917      4183.8473      18.767151      1.5523363    
     12900   332.65966     -18.670355      4185.8134      18.77597       1.5516071    
     13000   350.33265     -6664.3889      4187.7795      18.78479       1.5508787    
     13100   340.46907     -9947.23        4189.7456      18.793609      1.5501509    
     13200   310.66413     -3490.0976      4191.7117      18.802428      1.5494238    
     13300   275.33988      2688.0302      4193.6778      18.811247      1.5486974    
     13400   334.9979      -15190.285      4195.6439      18.820066      1.5479717    
     13500   311.57545     -14518.07       4197.6099      18.828885      1.5472466    
     13600   308.19361     -11388.258      4199.576       18.837704      1.5465223    
     13700   286.16188      2288.3399      4201.5421      18.846524      1.5457986    
     13800   297.25334      2427.7365      4203.5082      18.855343      1.5450756    
     13900   315.22714     -16485.29       4205.4743      18.864162      1.5443532    
     14000   306.7967       1406.1625      4207.4404      18.872981      1.5436316    
     14100   300.36958     -16743.572      4209.4065      18.8818        1.5429106    
     14200   302.28382     -10509.438      4211.3726      18.890619      1.5421903    
     14300   326.05946     -3600.1936      4213.3387      18.899438      1.5414706    
     14400   320.85054     -10978.006      4215.3048      18.908258      1.5407517    
     14500   262.99366     -5865.4358      4217.2709      18.917077      1.5400334    
     14600   269.60215      2772.2331      4219.237       18.925896      1.5393157    
     14700   283.09998     -11232.119      4221.2031      18.934715      1.5385988    
     14800   294.2052      -8793.6729      4223.1692      18.943534      1.5378825    
     14900   334.54826     -277.86881      4225.1353      18.952353      1.5371669    
     15000   322.67199     -6585.3303      4227.1014      18.961172      1.5364519    
     15100   265.17097     -9298.0222      4229.0674      18.969992      1.5357376    
     15200   291.54857     -5765.7945      4231.0335      18.978811      1.535024     
     15300   297.17197     -10055.151      4232.9996      18.98763       1.534311     
     15400   262.63177     -10109.665      4234.9657      18.996449      1.5335987    
     15500   252.67498     -18775.908      4236.9318      19.005268      1.5328871    
     15600   304.13564      3365.0982      4238.8979      19.014087      1.5321761    
     15700   337.29136     -3722.28        4240.864       19.022907      1.5314657    
     15800   318.06756      1892.6269      4242.8301      19.031726      1.5307561    
     15900   289.67137     -9039.4805      4244.7962      19.040545      1.5300471    
     16000   273.19687     -15345.197      4246.7623      19.049364      1.5293387    
     16100   302.34387     -6045.82        4248.7284      19.058183      1.528631     
     16200   315.03348     -21313.551      4250.6945      19.067002      1.527924     
     16300   338.29818     -11263.142      4252.6606      19.075821      1.5272176    
     16400   308.41842     -7016.5329      4254.6267      19.084641      1.5265118    
     16500   287.97781     -8560.7938      4256.5928      19.09346       1.5258067    
     16600   275.28109     -6897.2621      4258.5588      19.102279      1.5251023    
     16700   287.21997     -13845.062      4260.5249      19.111098      1.5243985    
     16800   308.61146     -13851.748      4262.491       19.119917      1.5236954    
     16900   320.32583     -9526.2179      4264.4571      19.128736      1.5229929    
     17000   320.76305     -3493.4379      4266.4232      19.137556      1.5222911    
     17100   299.95141     -11287.084      4268.3893      19.146375      1.5215899    
     17200   281.91443     -21629.023      4270.3554      19.155194      1.5208893    
     17300   310.62817     -3221.2086      4272.3215      19.164013      1.5201894    
     17400   302.10731     -11466.053      4274.2876      19.172832      1.5194902    
     17500   307.43528     -18503.775      4276.2537      19.181651      1.5187915    
     17600   281.74213     -24189.417      4278.2198      19.19047       1.5180936    
     17700   327.12399     -15579.696      4280.1859      19.19929       1.5173962    
     17800   299.34036      212.86428      4282.152       19.208109      1.5166995    
     17900   266.34582     -4777.2698      4284.1181      19.216928      1.5160035    
     18000   323.83448     -18321.563      4286.0842      19.225747      1.5153081    
     18100   319.65329     -20205.543      4288.0503      19.234566      1.5146133    
     18200   304.95285     -10798.198      4290.0163      19.243385      1.5139192    
     18300   291.16796     -9955.131       4291.9824      19.252204      1.5132257    
     18400   283.66402     -13799.241      4293.9485      19.261024      1.5125328    
     18500   301.40534     -37.712415      4295.9146      19.269843      1.5118405    
     18600   325.31811     -5812.1764      4297.8807      19.278662      1.5111489    
     18700   317.79229     -24530.885      4299.8468      19.287481      1.510458     
     18800   323.29008     -11195.739      4301.8129      19.2963        1.5097676    
     18900   278.25032     -15630.383      4303.779       19.305119      1.5090779    
     19000   294.34158     -4612.605       4305.7451      19.313938      1.5083889    
     19100   294.2079      -3779.4177      4307.7112      19.322758      1.5077004    
     19200   315.45452     -24247.883      4309.6773      19.331577      1.5070126    
     19300   268.4278      -15585.687      4311.6434      19.340396      1.5063254    
     19400   285.63355     -23472.576      4313.6095      19.349215      1.5056388    
     19500   271.97938     -3672.0758      4315.5756      19.358034      1.5049529    
     19600   308.78223     -23645.659      4317.5417      19.366853      1.5042676    
     19700   299.18007     -10951.892      4319.5078      19.375673      1.5035829    
     19800   298.65075     -13724.365      4321.4738      19.384492      1.5028988    
     19900   278.02416     -14419.191      4323.4399      19.393311      1.5022154    
     20000   286.06859     -16327.329      4325.406       19.40213       1.5015325    
     20100   318.27319     -15322.915      4327.3721      19.410949      1.5008503    
     20200   298.26696     -2175.8654      4329.3382      19.419768      1.5001688    
     20300   320.77317     -21737.669      4331.3043      19.428587      1.4994878    
     20400   282.82591     -13993.509      4333.2704      19.437407      1.4988074    
     20500   306.69108     -6075.513       4335.2365      19.446226      1.4981277    
     20600   288.29444     -17510.491      4337.2026      19.455045      1.4974486    
     20700   309.43109     -4202.2605      4339.1687      19.463864      1.4967701    
     20800   317.99624     -24675.863      4341.1348      19.472683      1.4960922    
     20900   312.13383     -20491.451      4343.1009      19.481502      1.4954149    
     21000   298.55174     -13153.68       4345.067       19.490322      1.4947383    
     21100   305.08459     -12281.644      4347.0331      19.499141      1.4940622    
     21200   283.03276     -5934.3335      4348.9992      19.50796       1.4933868    
     21300   291.63649     -4521.8603      4350.9653      19.516779      1.492712     
     21400   324.75149     -21174.825      4352.9313      19.525598      1.4920378    
     21500   290.55563     -21277.722      4354.8974      19.534417      1.4913642    
     21600   301.4462      -19851.347      4356.8635      19.543236      1.4906912    
     21700   287.62161     -17665.951      4358.8296      19.552056      1.4900188    
     21800   302.9496      -5554.1494      4360.7957      19.560875      1.489347     
     21900   279.99526     -14384.374      4362.7618      19.569694      1.4886758    
     22000   305.9773      -709.35813      4364.7279      19.578513      1.4880052    
     22100   300.68684     -16515.446      4366.694       19.587332      1.4873353    
     22200   319.86472     -6215.8319      4368.6601      19.596151      1.4866659    
     22300   268.62518     -11486.883      4370.6262      19.60497       1.4859971    
     22400   268.3902      -18648.084      4372.5923      19.61379       1.485329     
     22500   310.44032     -10749.325      4374.5584      19.622609      1.4846614    
     22600   290.75905     -21942.84       4376.5245      19.631428      1.4839944    
     22700   311.63984     -10979.535      4378.4906      19.640247      1.4833281    
     22800   295.05997     -18937.466      4380.4567      19.649066      1.4826623    
     22900   285.96454     -16682.088      4382.4227      19.657885      1.4819971    
     23000   278.04166     -8052.018       4384.3888      19.666705      1.4813326    
     23100   263.68785     -11877.921      4386.3549      19.675524      1.4806686    
     23200   306.9357      -16151.762      4388.321       19.684343      1.4800052    
     23300   297.42929     -4826.5947      4390.2871      19.693162      1.4793424    
     23400   316.00215     -6409.2494      4392.2532      19.701981      1.4786802    
     23500   310.50327     -14373.918      4394.2193      19.7108        1.4780186    
     23600   304.4557      -3817.4453      4396.1854      19.719619      1.4773576    
     23700   284.96792     -23278.806      4398.1515      19.728439      1.4766972    
     23800   297.63432     -22882.335      4400.1176      19.737258      1.4760374    
     23900   321.02977     -6885.965       4402.0837      19.746077      1.4753781    
     24000   284.68233     -8865.1685      4404.0498      19.754896      1.4747195    
     24100   304.65356     -16643.221      4406.0159      19.763715      1.4740614    
     24200   266.34971     -20135.57       4407.982       19.772534      1.4734039    
     24300   302.2512      -13803.254      4409.9481      19.781353      1.472747     
     24400   321.42808     -21046.583      4411.9142      19.790173      1.4720907    
     24500   292.74113     -16348.937      4413.8802      19.798992      1.471435     
     24600   291.11284     -15685.7        4415.8463      19.807811      1.4707799    
     24700   287.55153     -12599.171      4417.8124      19.81663       1.4701253    
     24800   283.4446      -14443.595      4419.7785      19.825449      1.4694713    
     24900   315.76171     -29432.506      4421.7446      19.834268      1.468818     
     25000   298.0874      -16146.646      4423.7107      19.843088      1.4681652    
     25100   315.45507     -29702.264      4425.6768      19.851907      1.4675129    
     25200   290.25666     -9696.328       4427.6429      19.860726      1.4668613    
     25300   267.06936     -16462.409      4429.609       19.869545      1.4662102    
     25400   325.55626     -15215.48       4431.5751      19.878364      1.4655597    
     25500   289.97866     -14810.607      4433.5412      19.887183      1.4649098    
     25600   309.59836     -23554.971      4435.5073      19.896002      1.4642605    
     25700   310.12075     -21272.197      4437.4734      19.904822      1.4636117    
     25800   262.17764     -20110.799      4439.4395      19.913641      1.4629635    
     25900   277.3999      -23535.138      4441.4056      19.92246       1.4623159    
     26000   294.36086     -21047.804      4443.3717      19.931279      1.4616688    
     26100   270.96192     -23811.357      4445.3377      19.940098      1.4610224    
     26200   305.22668     -7618.7188      4447.3038      19.948917      1.4603765    
     26300   296.18704     -23730.146      4449.2699      19.957736      1.4597312    
     26400   273.89235     -14689.842      4451.236       19.966556      1.4590864    
     26500   285.19288     -25064.313      4453.2021      19.975375      1.4584422    
     26600   274.79707     -19668.808      4455.1682      19.984194      1.4577986    
     26700   295.42489     -28285.404      4457.1343      19.993013      1.4571555    
     26800   313.8727      -24360.652      4459.1004      20.001832      1.456513     
     26900   286.43399     -25304.21       4461.0665      20.010651      1.4558711    
     27000   324.06763     -10860.477      4463.0326      20.019471      1.4552298    
     27100   294.14075     -23587.318      4464.9987      20.02829       1.454589     
     27200   279.98002     -11584.53       4466.9648      20.037109      1.4539488    
     27300   295.0604      -25331.283      4468.9309      20.045928      1.4533091    
     27400   296.63132     -28827.455      4470.897       20.054747      1.45267      
     27500   308.68931     -30423.171      4472.8631      20.063566      1.4520315    
     27600   322.36836     -16042.187      4474.8292      20.072385      1.4513935    
     27700   301.5406      -20754.599      4476.7952      20.081205      1.4507561    
     27800   313.12226     -11004.79       4478.7613      20.090024      1.4501192    
     27900   292.10591     -14433.18       4480.7274      20.098843      1.4494829    
     28000   296.93812     -23267.607      4482.6935      20.107662      1.4488472    
     28100   309.41373     -17389.637      4484.6596      20.116481      1.448212     
     28200   310.81562     -12071.956      4486.6257      20.1253        1.4475774    
     28300   291.25693     -18162.997      4488.5918      20.134119      1.4469433    
     28400   306.51588     -9036.4663      4490.5579      20.142939      1.4463098    
     28500   291.80057     -18604.822      4492.524       20.151758      1.4456768    
     28600   311.52499     -18646.62       4494.4901      20.160577      1.4450444    
     28700   319.81311     -21765.257      4496.4562      20.169396      1.4444126    
     28800   272.45705     -14884.451      4498.4223      20.178215      1.4437813    
     28900   321.70502     -20840.604      4500.3884      20.187034      1.4431505    
     29000   293.97441     -13654.84       4502.3545      20.195854      1.4425203    
     29100   301.57558     -10220.42       4504.3206      20.204673      1.4418907    
     29200   312.13244     -13232.907      4506.2867      20.213492      1.4412616    
     29300   329.7519      -15599.44       4508.2527      20.222311      1.4406331    
     29400   311.90194     -23776.38       4510.2188      20.23113       1.4400051    
     29500   282.41947     -10444.767      4512.1849      20.239949      1.4393776    
     29600   299.45357     -15054.465      4514.151       20.248768      1.4387507    
     29700   290.61154     -10700.562      4516.1171      20.257588      1.4381243    
     29800   310.02994     -27124.534      4518.0832      20.266407      1.4374985    
     29900   318.05822     -13258.722      4520.0493      20.275226      1.4368732    
     30000   314.86396     -21975.709      4522.0154      20.284045      1.4362485    
     30100   283.98451     -20643.505      4523.9815      20.292864      1.4356243    
     30200   299.12052     -30322.403      4525.9476      20.301683      1.4350007    
     30300   292.03388     -26021.539      4527.9137      20.310502      1.4343776    
     30400   300.24034     -15793.42       4529.8798      20.319322      1.433755     
     30500   325.30089     -33696.777      4531.8459      20.328141      1.433133     
     30600   299.25055     -25809.562      4533.812       20.33696       1.4325115    
     30700   282.54077     -9742.5629      4535.7781      20.345779      1.4318906    
     30800   320.49029     -20426.145      4537.7441      20.354598      1.4312702    
     30900   304.18415     -15214.206      4539.7102      20.363417      1.4306503    
     31000   279.46342     -17612.303      4541.6763      20.372236      1.430031     
     31100   317.68847     -12287.428      4543.6424      20.381056      1.4294122    
     31200   317.26067     -16967.212      4545.6085      20.389875      1.4287939    
     31300   280.25012     -24467.358      4547.5746      20.398694      1.4281762    
     31400   269.72387     -31610.45       4549.5407      20.407513      1.427559     
     31500   301.5671      -25036.269      4551.5068      20.416332      1.4269424    
     31600   299.35715     -27099.436      4553.4729      20.425151      1.4263262    
     31700   294.05557     -17985.824      4555.439       20.433971      1.4257107    
     31800   313.57317     -20919.945      4557.4051      20.44279       1.4250956    
     31900   268.69025     -26362.006      4559.3712      20.451609      1.4244811    
     32000   264.29364     -19456.641      4561.3373      20.460428      1.4238671    
     32100   266.33929     -25753.261      4563.3034      20.469247      1.4232536    
     32200   291.77551     -24282.246      4565.2695      20.478066      1.4226407    
     32300   296.62545     -23101.349      4567.2356      20.486885      1.4220282    
     32400   279.14474     -15301.23       4569.2016      20.495705      1.4214163    
     32500   317.72671     -16380.118      4571.1677      20.504524      1.420805     
     32600   323.4486      -24592.628      4573.1338      20.513343      1.4201942    
     32700   283.32551     -21819.344      4575.0999      20.522162      1.4195838    
     32800   290.95587     -27363.161      4577.066       20.530981      1.4189741    
     32900   294.27798     -13643.142      4579.0321      20.5398        1.4183648    
     33000   301.06126     -10724.965      4580.9982      20.54862       1.417756     
     33100   282.65078     -16108.786      4582.9643      20.557439      1.4171478    
     33200   302.51382     -9104.4954      4584.9304      20.566258      1.4165401    
     33300   309.2664      -24249.483      4586.8965      20.575077      1.415933     
     33400   283.01953     -33942.47       4588.8626      20.583896      1.4153263    
     33500   299.89642     -25073.341      4590.8287      20.592715      1.4147202    
     33600   287.73948     -20555.558      4592.7948      20.601534      1.4141146    
     33700   301.98975     -20018.896      4594.7609      20.610354      1.4135095    
     33800   305.58159     -29900.817      4596.727       20.619173      1.4129049    
     33900   304.73426     -30820.897      4598.6931      20.627992      1.4123008    
     34000   299.82193     -20072.046      4600.6591      20.636811      1.4116973    
     34100   303.19317     -15139.22       4602.6252      20.64563       1.4110942    
     34200   299.12493     -18939.098      4604.5913      20.654449      1.4104917    
     34300   320.96442     -14183.912      4606.5574      20.663268      1.4098897    
     34400   321.66696     -20516.364      4608.5235      20.672088      1.4092882    
     34500   289.09106     -28802.485      4610.4896      20.680907      1.4086872    
     34600   297.8187      -16333.118      4612.4557      20.689726      1.4080868    
     34700   301.24996     -23320.049      4614.4218      20.698545      1.4074868    
     34800   284.07368     -30197.517      4616.3879      20.707364      1.4068874    
     34900   318.5544      -12762.526      4618.354       20.716183      1.4062885    
     35000   300.22951     -14133.669      4620.3201      20.725003      1.40569      
     35100   301.79586     -27029.54       4622.2862      20.733822      1.4050921    
     35200   303.80481     -22812.581      4624.2523      20.742641      1.4044947    
     35300   286.36802     -22382.312      4626.2184      20.75146       1.4038978    
     35400   306.80768     -37240.447      4628.1845      20.760279      1.4033014    
     35500   276.90583     -20313.982      4630.1506      20.769098      1.4027056    
     35600   300.42525     -19876.389      4632.1166      20.777917      1.4021102    
     35700   333.15751     -26775.971      4634.0827      20.786737      1.4015153    
     35800   297.16068     -24041.746      4636.0488      20.795556      1.4009209    
     35900   293.66211     -31593.594      4638.0149      20.804375      1.4003271    
     36000   313.41894     -24835.281      4639.981       20.813194      1.3997337    
     36100   303.58147     -16607.415      4641.9471      20.822013      1.3991409    
     36200   308.85646     -28726.425      4643.9132      20.830832      1.3985485    
     36300   328.27062     -37413.992      4645.8793      20.839651      1.3979567    
     36400   302.67861     -23331.799      4647.8454      20.848471      1.3973653    
     36500   294.60813     -24872.822      4649.8115      20.85729       1.3967745    
     36600   304.53681     -19842.396      4651.7776      20.866109      1.3961841    
     36700   307.87152     -19491.254      4653.7437      20.874928      1.3955943    
     36800   301.98777     -18884.322      4655.7098      20.883747      1.3950049    
     36900   328.24932     -25174.101      4657.6759      20.892566      1.394416     
     37000   314.10403     -16813.548      4659.642       20.901385      1.3938277    
     37100   283.54684     -21800.018      4661.608       20.910205      1.3932398    
     37200   278.91869     -24475.942      4663.5741      20.919024      1.3926524    
     37300   309.01062     -27695.607      4665.5402      20.927843      1.3920656    
     37400   314.97231     -17892.504      4667.5063      20.936662      1.3914792    
     37500   278.3986      -25512.271      4669.4724      20.945481      1.3908933    
     37600   300.80138     -22286.111      4671.4385      20.9543        1.3903079    
     37700   314.34941     -17182.945      4673.4046      20.96312       1.389723     
     37800   296.72511     -10631.763      4675.3707      20.971939      1.3891386    
     37900   294.62884     -17162.576      4677.3368      20.980758      1.3885547    
     38000   277.22305     -19655.563      4679.3029      20.989577      1.3879713    
     38100   337.808       -24177.592      4681.269       20.998396      1.3873883    
     38200   303.71805     -26226.338      4683.2351      21.007215      1.3868059    
     38300   307.32713     -23262.028      4685.2012      21.016034      1.3862239    
     38400   308.34091     -27291.239      4687.1673      21.024854      1.3856424    
     38500   307.67704     -23591.658      4689.1334      21.033673      1.3850615    
     38600   264.72631     -31442.39       4691.0995      21.042492      1.384481     
     38700   301.72462     -17646.351      4693.0655      21.051311      1.383901     
     38800   312.44261     -19050.241      4695.0316      21.06013       1.3833214    
     38900   286.67801     -30490.824      4696.9977      21.068949      1.3827424    
     39000   289.36145     -27843.203      4698.9638      21.077769      1.3821638    
     39100   289.85012     -26180.36       4700.9299      21.086588      1.3815858    
     39200   302.42816     -27619.282      4702.896       21.095407      1.3810082    
     39300   297.10979     -26582.629      4704.8621      21.104226      1.3804311    
     39400   315.4626      -35048.817      4706.8282      21.113045      1.3798545    
     39500   312.56909     -32947.311      4708.7943      21.121864      1.3792783    
     39600   282.54459     -32744.709      4710.7604      21.130683      1.3787027    
     39700   284.25144     -20829.89       4712.7265      21.139503      1.3781275    
     39800   334.429       -32366.375      4714.6926      21.148322      1.3775528    
     39900   298.44557     -28441.875      4716.6587      21.157141      1.3769786    
     40000   281.8987      -29965.142      4718.6248      21.16596       1.3764048    
     40100   279.16159     -29869.774      4720.5909      21.174779      1.3758316    
     40200   296.03228     -26600.284      4722.557       21.183598      1.3752588    
     40300   314.92496     -29588.102      4724.523       21.192417      1.3746865    
     40400   293.46789     -31217.984      4726.4891      21.201237      1.3741146    
     40500   302.96495     -22979.212      4728.4552      21.210056      1.3735433    
     40600   302.49094     -30904.869      4730.4213      21.218875      1.3729724    
     40700   292.55661     -17808.287      4732.3874      21.227694      1.372402     
     40800   280.02344     -22223.751      4734.3535      21.236513      1.3718321    
     40900   298.78436     -32535.121      4736.3196      21.245332      1.3712626    
     41000   289.13604     -26387.393      4738.2857      21.254151      1.3706936    
     41100   265.63405     -20185.294      4740.2518      21.262971      1.3701251    
     41200   307.18014     -15738.013      4742.2179      21.27179       1.369557     
     41300   314.98599     -12969.861      4744.184       21.280609      1.3689895    
     41400   321.43443     -16607.667      4746.1501      21.289428      1.3684224    
     41500   299.02757     -16841.761      4748.1162      21.298247      1.3678557    
     41600   290.03136     -19197.74       4750.0823      21.307066      1.3672896    
     41700   277.0569      -19450.48       4752.0484      21.315886      1.3667239    
     41800   298.44954     -31182.12       4754.0145      21.324705      1.3661586    
     41900   302.01171     -23734.751      4755.9805      21.333524      1.3655939    
     42000   283.62264     -24501.755      4757.9466      21.342343      1.3650296    
     42100   319.1845      -10406.102      4759.9127      21.351162      1.3644658    
     42200   291.96699     -22299.684      4761.8788      21.359981      1.3639024    
     42300   290.38973     -9926.6289      4763.8449      21.3688        1.3633395    
     42400   289.13506     -15375.427      4765.811       21.37762       1.3627771    
     42500   293.79428     -6831.2596      4767.7771      21.386439      1.3622151    
     42600   296.0177      -19934.343      4769.7432      21.395258      1.3616536    
     42700   325.01393     -25536.211      4771.7093      21.404077      1.3610925    
     42800   311.23814     -7156.837       4773.6754      21.412896      1.360532     
     42900   306.19674     -27877.805      4775.6415      21.421715      1.3599718    
     43000   294.71297     -16956.754      4777.6076      21.430535      1.3594122    
     43100   319.08817     -12777.181      4779.5737      21.439354      1.358853     
     43200   307.76937     -12634.358      4781.5398      21.448173      1.3582942    
     43300   284.95007     -26983.033      4783.5059      21.456992      1.357736     
     43400   278.95505     -15307.386      4785.4719      21.465811      1.3571781    
     43500   299.20138     -18992.871      4787.438       21.47463       1.3566208    
     43600   316.48529     -18286.69       4789.4041      21.483449      1.3560639    
     43700   313.71584     -10045.823      4791.3702      21.492269      1.3555074    
     43800   318.51622     -15951.388      4793.3363      21.501088      1.3549514    
     43900   291.0322      -19892.367      4795.3024      21.509907      1.3543959    
     44000   295.09245     -9457.5111      4797.2685      21.518726      1.3538408    
     44100   278.16636     -9685.8359      4799.2346      21.527545      1.3532862    
     44200   287.46327     -6478.6736      4801.2007      21.536364      1.352732     
     44300   313.67472     -15249.997      4803.1668      21.545183      1.3521783    
     44400   315.8555      -17554.708      4805.1329      21.554003      1.351625     
     44500   303.15597     -25449.435      4807.099       21.562822      1.3510722    
     44600   320.27256     -16561.622      4809.0651      21.571641      1.3505199    
     44700   282.81286     -19346.272      4811.0312      21.58046       1.349968     
     44800   275.05632     -8671.1014      4812.9973      21.589279      1.3494165    
     44900   288.90771     -1097.8833      4814.9634      21.598098      1.3488655    
     45000   287.98151     -24213.666      4816.9294      21.606918      1.3483149    
     45100   309.10219     -13887.882      4818.8955      21.615737      1.3477648    
     45200   321.8881      -19012.971      4820.8616      21.624556      1.3472152    
     45300   299.77433     -15798.538      4822.8277      21.633375      1.346666     
     45400   279.51549     -27664.244      4824.7938      21.642194      1.3461172    
     45500   281.03389     -19499.991      4826.7599      21.651013      1.3455689    
     45600   301.51906     -18092.179      4828.726       21.659832      1.345021     
     45700   299.1554      -19879.747      4830.6921      21.668652      1.3444736    
     45800   325.02843     -18929.362      4832.6582      21.677471      1.3439266    
     45900   306.94032     -4234.7588      4834.6243      21.68629       1.3433801    
     46000   286.81359     -17112.3        4836.5904      21.695109      1.342834     
     46100   288.36739     -12074.841      4838.5565      21.703928      1.3422883    
     46200   308.6383      -22546.718      4840.5226      21.712747      1.3417431    
     46300   313.17892     -12237.758      4842.4887      21.721566      1.3411984    
     46400   312.80869     -22096.254      4844.4548      21.730386      1.3406541    
     46500   321.3627      -8758.7052      4846.4209      21.739205      1.3401102    
     46600   323.24171     -18882.665      4848.3869      21.748024      1.3395667    
     46700   304.19655     -16843.32       4850.353       21.756843      1.3390238    
     46800   306.55554     -25914.788      4852.3191      21.765662      1.3384812    
     46900   298.87767     -19236.169      4854.2852      21.774481      1.3379391    
     47000   312.8859      -16559.955      4856.2513      21.7833        1.3373974    
     47100   317.07875     -20260.402      4858.2174      21.79212       1.3368562    
     47200   318.07407     -10356.366      4860.1835      21.800939      1.3363154    
     47300   310.50233     -20384.487      4862.1496      21.809758      1.335775     
     47400   300.54922     -24029.379      4864.1157      21.818577      1.3352351    
     47500   294.12684     -18112.495      4866.0818      21.827396      1.3346956    
     47600   337.0228      -16984.575      4868.0479      21.836215      1.3341565    
     47700   334.1958      -16505.62       4870.014       21.845035      1.3336179    
     47800   308.71206     -8218.6238      4871.9801      21.853854      1.3330797    
     47900   286.6707      -22614.053      4873.9462      21.862673      1.332542     
     48000   295.86827     -16650.366      4875.9123      21.871492      1.3320047    
     48100   306.43972     -21158.168      4877.8784      21.880311      1.3314678    
     48200   302.56258     -17431.359      4879.8444      21.88913       1.3309313    
     48300   338.54568     -25938.965      4881.8105      21.897949      1.3303953    
     48400   338.96437     -16956.477      4883.7766      21.906769      1.3298597    
     48500   297.53165     -18676.588      4885.7427      21.915588      1.3293246    
     48600   306.66022     -17470.286      4887.7088      21.924407      1.3287899    
     48700   317.09129     -20946.868      4889.6749      21.933226      1.3282556    
     48800   283.69562     -19496.507      4891.641       21.942045      1.3277217    
     48900   278.15362     -18549.905      4893.6071      21.950864      1.3271883    
     49000   290.5392      -17966.511      4895.5732      21.959684      1.3266553    
     49100   310.90899     -29153.17       4897.5393      21.968503      1.3261227    
     49200   285.32374     -27589.015      4899.5054      21.977322      1.3255905    
     49300   294.68939     -20751.683      4901.4715      21.986141      1.3250588    
     49400   307.5662      -25454.727      4903.4376      21.99496       1.3245275    
     49500   290.16862     -24174.58       4905.4037      22.003779      1.3239966    
     49600   290.14759     -29438.459      4907.3698      22.012598      1.3234662    
     49700   292.19497     -18952.891      4909.3358      22.021418      1.3229362    
     49800   303.37498     -31698.177      4911.3019      22.030237      1.3224066    
     49900   290.48232     -13776.527      4913.268       22.039056      1.3218774    
     50000   294.7013      -16575.092      4915.2341      22.047875      1.3213486    
     50100   290.0928      -20919.704      4917.2002      22.056694      1.3208203    
     50200   312.14326     -27774.201      4919.1663      22.065513      1.3202924    
     50300   302.98163     -14670.077      4921.1324      22.074332      1.3197649    
     50400   307.85292     -17825.754      4923.0985      22.083152      1.3192379    
     50500   298.50084     -30654.635      4925.0646      22.091971      1.3187112    
     50600   294.38188     -20051.375      4927.0307      22.10079       1.318185     
     50700   300.02501     -12685.637      4928.9968      22.109609      1.3176592    
     50800   283.8931      -23693.668      4930.9629      22.118428      1.3171338    
     50900   280.32777     -29522.902      4932.929       22.127247      1.3166088    
     51000   285.90816     -20797.591      4934.8951      22.136066      1.3160843    
     51100   317.67856     -28008.067      4936.8612      22.144886      1.3155602    
     51200   292.76013     -22640.474      4938.8273      22.153705      1.3150365    
     51300   326.80862     -24680.56       4940.7933      22.162524      1.3145132    
     51400   307.66917     -15879.833      4942.7594      22.171343      1.3139903    
     51500   289.15539     -21124.554      4944.7255      22.180162      1.3134678    
     51600   264.73993     -23685.85       4946.6916      22.188981      1.3129458    
     51700   280.67501     -16580.873      4948.6577      22.197801      1.3124242    
     51800   311.03549     -17045.741      4950.6238      22.20662       1.3119029    
     51900   294.81366     -21118.698      4952.5899      22.215439      1.3113821    
     52000   304.61097     -30076.588      4954.556       22.224258      1.3108617    
     52100   294.80354     -31500.511      4956.5221      22.233077      1.3103418    
     52200   276.45186     -33285.978      4958.4882      22.241896      1.3098222    
     52300   296.92534     -31348.076      4960.4543      22.250715      1.309303     
     52400   322.01773     -19575.142      4962.4204      22.259535      1.3087843    
     52500   302.79234     -14029.385      4964.3865      22.268354      1.308266     
     52600   323.86061     -19391.461      4966.3526      22.277173      1.3077481    
     52700   292.77156     -21174.759      4968.3187      22.285992      1.3072305    
     52800   296.51166     -37313.781      4970.2848      22.294811      1.3067134    
     52900   295.36672     -27699.951      4972.2508      22.30363       1.3061968    
     53000   298.15184     -25236.727      4974.2169      22.312449      1.3056805    
     53100   285.18634     -24008.725      4976.183       22.321269      1.3051646    
     53200   278.10599     -22553.462      4978.1491      22.330088      1.3046491    
     53300   304.78625     -25481.496      4980.1152      22.338907      1.3041341    
     53400   314.54846     -23117.976      4982.0813      22.347726      1.3036194    
     53500   303.39567     -21332.811      4984.0474      22.356545      1.3031052    
     53600   296.43151     -28467.574      4986.0135      22.365364      1.3025913    
     53700   299.30218     -25566.806      4987.9796      22.374184      1.3020779    
     53800   297.437       -30434.04       4989.9457      22.383003      1.3015649    
     53900   323.1244      -28106.547      4991.9118      22.391822      1.3010522    
     54000   301.50026     -23364.258      4993.8779      22.400641      1.30054      
     54100   303.91261     -27738.38       4995.844       22.40946       1.3000282    
     54200   296.99555     -22334.58       4997.8101      22.418279      1.2995168    
     54300   303.28607     -31709.389      4999.7762      22.427098      1.2990057    
     54400   293.82505     -24112.75       5001.7423      22.435918      1.2984951    
     54500   282.07084     -25815.817      5003.7083      22.444737      1.2979849    
     54600   294.49769     -24557.861      5005.6744      22.453556      1.2974751    
     54700   274.1759      -18989.358      5007.6405      22.462375      1.2969657    
     54800   335.56548     -25820.478      5009.6066      22.471194      1.2964567    
     54900   317.37831     -33578.706      5011.5727      22.480013      1.2959481    
     55000   309.42447     -23646.465      5013.5388      22.488833      1.2954398    
     55100   276.10265     -32256.514      5015.5049      22.497652      1.294932     
     55200   309.85861     -31029.064      5017.471       22.506471      1.2944246    
     55300   298.13919     -20462.945      5019.4371      22.51529       1.2939176    
     55400   319.21877     -25869.955      5021.4032      22.524109      1.293411     
     55500   305.55549     -23382.505      5023.3693      22.532928      1.2929047    
     55600   294.62607     -27876.852      5025.3354      22.541747      1.2923989    
     55700   291.34547     -21404.66       5027.3015      22.550567      1.2918935    
     55800   282.07261     -28854.801      5029.2676      22.559386      1.2913884    
     55900   308.56106     -24145.123      5031.2337      22.568205      1.2908838    
     56000   327.87837     -34803.262      5033.1997      22.577024      1.2903795    
     56100   326.37146     -30758.876      5035.1658      22.585843      1.2898757    
     56200   319.71647     -24721.682      5037.1319      22.594662      1.2893722    
     56300   299.61929     -23355.205      5039.098       22.603481      1.2888691    
     56400   288.26602     -23396.093      5041.0641      22.612301      1.2883665    
     56500   297.05518     -26445.496      5043.0302      22.62112       1.2878642    
     56600   301.17078     -22396.29       5044.9963      22.629939      1.2873623    
     56700   307.56969     -36484.398      5046.9624      22.638758      1.2868608    
     56800   325.36077     -33008.264      5048.9285      22.647577      1.2863597    
     56900   284.71796     -26713.934      5050.8946      22.656396      1.2858589    
     57000   295.26658     -16565.57       5052.8607      22.665216      1.2853586    
     57100   306.60143     -27040.442      5054.8268      22.674035      1.2848587    
     57200   305.18799     -25975.875      5056.7929      22.682854      1.2843591    
     57300   298.08613     -37248.408      5058.759       22.691673      1.2838599    
     57400   308.44943     -28015.065      5060.7251      22.700492      1.2833611    
     57500   307.97934     -24528.225      5062.6912      22.709311      1.2828628    
     57600   304.52945     -29260.472      5064.6572      22.71813       1.2823647    
     57700   316.06778     -29628.327      5066.6233      22.72695       1.2818671    
     57800   288.00074     -21278.607      5068.5894      22.735769      1.2813699    
     57900   304.51187     -27951.116      5070.5555      22.744588      1.280873     
     58000   328.54338     -21660.01       5072.5216      22.753407      1.2803766    
     58100   295.20213     -28916.93       5074.4877      22.762226      1.2798805    
     58200   279.13322     -21704.673      5076.4538      22.771045      1.2793848    
     58300   296.49035     -32455.47       5078.4199      22.779864      1.2788895    
     58400   314.02696     -29905.61       5080.386       22.788684      1.2783946    
     58500   304.33496     -34083.635      5082.3521      22.797503      1.2779       
     58600   274.85863     -32815.763      5084.3182      22.806322      1.2774059    
     58700   289.02056     -32190.25       5086.2843      22.815141      1.2769121    
     58800   307.79969     -31969.484      5088.2504      22.82396       1.2764187    
     58900   311.86701     -28008.378      5090.2165      22.832779      1.2759257    
     59000   310.21154     -33669.723      5092.1826      22.841598      1.275433     
     59100   276.33565     -32337.318      5094.1487      22.850418      1.2749408    
     59200   286.91417     -37073.014      5096.1147      22.859237      1.2744489    
     59300   310.08481     -30462.85       5098.0808      22.868056      1.2739574    
     59400   310.15844     -26211.752      5100.0469      22.876875      1.2734663    
     59500   301.66578     -36496.533      5102.013       22.885694      1.2729756    
     59600   291.31474     -26050.677      5103.9791      22.894513      1.2724852    
     59700   297.95397     -26371.481      5105.9452      22.903333      1.2719952    
     59800   301.7603      -24642.263      5107.9113      22.912152      1.2715056    
     59900   310.34707     -23180.728      5109.8774      22.920971      1.2710164    
     60000   327.95312     -26967.193      5111.8435      22.92979       1.2705275    
     60100   310.08712     -40693.789      5113.8096      22.938609      1.2700391    
     60200   281.63478     -24445.605      5115.7757      22.947428      1.269551     
     60300   296.47436     -31980.797      5117.7418      22.956247      1.2690632    
     60400   297.88944     -27186.618      5119.7079      22.965067      1.2685759    
     60500   299.02369     -22055.931      5121.674       22.973886      1.2680889    
     60600   314.66208     -26327.152      5123.6401      22.982705      1.2676023    
     60700   300.53377     -23235.726      5125.6062      22.991524      1.2671161    
     60800   296.30721     -27445.089      5127.5722      23.000343      1.2666302    
     60900   296.21691     -39216.758      5129.5383      23.009162      1.2661447    
     61000   307.78637     -22145.608      5131.5044      23.017982      1.2656596    
     61100   294.97456     -28334.936      5133.4705      23.026801      1.2651749    
     61200   283.75254     -29090.959      5135.4366      23.03562       1.2646905    
     61300   308.48712     -23716.868      5137.4027      23.044439      1.2642065    
     61400   300.63488     -17666.084      5139.3688      23.053258      1.2637229    
     61500   327.3594      -32681.249      5141.3349      23.062077      1.2632396    
     61600   309.89113     -31264.988      5143.301       23.070896      1.2627567    
     61700   285.00567     -21673.56       5145.2671      23.079716      1.2622742    
     61800   288.04714     -24282.424      5147.2332      23.088535      1.2617921    
     61900   311.33947     -24987.932      5149.1993      23.097354      1.2613103    
     62000   293.48752     -26367.059      5151.1654      23.106173      1.2608289    
     62100   284.06282     -33987.587      5153.1315      23.114992      1.2603478    
     62200   311.55811     -25775.53       5155.0976      23.123811      1.2598671    
     62300   298.0887      -23518.025      5157.0636      23.13263       1.2593868    
     62400   294.51598     -25961.773      5159.0297      23.14145       1.2589069    
     62500   293.08121     -30573.469      5160.9958      23.150269      1.2584273    
     62600   298.25637     -33898.445      5162.9619      23.159088      1.2579481    
     62700   296.21672     -32500.509      5164.928       23.167907      1.2574692    
     62800   324.56978     -26499.186      5166.8941      23.176726      1.2569907    
     62900   315.95383     -34033.143      5168.8602      23.185545      1.2565126    
     63000   289.34548     -29356.546      5170.8263      23.194364      1.2560348    
     63100   289.08654     -22437.42       5172.7924      23.203184      1.2555574    
     63200   295.54333     -30645.061      5174.7585      23.212003      1.2550804    
     63300   304.18474     -22823.055      5176.7246      23.220822      1.2546037    
     63400   294.02851     -29724.752      5178.6907      23.229641      1.2541274    
     63500   295.39815     -39260.377      5180.6568      23.23846       1.2536515    
     63600   297.3125      -27961.723      5182.6229      23.247279      1.2531759    
     63700   312.78616     -29526.529      5184.589       23.256099      1.2527006    
     63800   296.22222     -18997.49       5186.5551      23.264918      1.2522258    
     63900   305.83397     -27026.602      5188.5211      23.273737      1.2517513    
     64000   280.38796     -27225.921      5190.4872      23.282556      1.2512771    
     64100   280.71028     -32449.709      5192.4533      23.291375      1.2508033    
     64200   304.97344     -29634.404      5194.4194      23.300194      1.2503299    
     64300   306.45358     -35986.49       5196.3855      23.309013      1.2498568    
     64400   296.98663     -29496.746      5198.3516      23.317833      1.2493841    
     64500   288.24149     -33425.081      5200.3177      23.326652      1.2489118    
     64600   284.29645     -28787.509      5202.2838      23.335471      1.2484398    
     64700   314.04196     -31653.693      5204.2499      23.34429       1.2479681    
     64800   322.88106     -36709.644      5206.216       23.353109      1.2474968    
     64900   302.02878     -34864.8        5208.1821      23.361928      1.2470259    
     65000   317.1293      -34060.265      5210.1482      23.370748      1.2465553    
     65100   300.79333     -33881.065      5212.1143      23.379567      1.2460851    
     65200   310.4923      -33679.363      5214.0804      23.388386      1.2456152    
     65300   290.86566     -20626.455      5216.0465      23.397205      1.2451457    
     65400   282.59056     -27922.15       5218.0126      23.406024      1.2446766    
     65500   288.41274     -29096.312      5219.9786      23.414843      1.2442078    
     65600   316.98978     -25294.409      5221.9447      23.423662      1.2437393    
     65700   321.55045     -25493.514      5223.9108      23.432482      1.2432712    
     65800   296.59552     -30554.957      5225.8769      23.441301      1.2428035    
     65900   284.23268     -34342.115      5227.843       23.45012       1.2423361    
     66000   308.25421     -40792.948      5229.8091      23.458939      1.241869     
     66100   292.1347      -32282.759      5231.7752      23.467758      1.2414023    
     66200   300.3095      -19057.642      5233.7413      23.476577      1.240936     
     66300   322.58251     -22253.885      5235.7074      23.485396      1.24047      
     66400   321.30907     -27157.922      5237.6735      23.494216      1.2400044    
     66500   334.30311     -26714.465      5239.6396      23.503035      1.2395391    
     66600   283.91617     -21134.481      5241.6057      23.511854      1.2390741    
     66700   281.2754      -27642.877      5243.5718      23.520673      1.2386095    
     66800   309.07224     -34199.705      5245.5379      23.529492      1.2381453    
     66900   294.48138     -19089.243      5247.504       23.538311      1.2376814    
     67000   303.34575     -28972.862      5249.4701      23.547131      1.2372178    
     67100   284.17453     -24140.403      5251.4361      23.55595       1.2367546    
     67200   273.05478     -33523.219      5253.4022      23.564769      1.2362918    
     67300   300.21745     -30484.518      5255.3683      23.573588      1.2358293    
     67400   298.9918      -21410.286      5257.3344      23.582407      1.2353671    
     67500   308.14263     -31457.374      5259.3005      23.591226      1.2349053    
     67600   299.25657     -25132.014      5261.2666      23.600045      1.2344438    
     67700   296.13605     -24858.663      5263.2327      23.608865      1.2339827    
     67800   282.85419     -33319.917      5265.1988      23.617684      1.2335219    
     67900   275.86879     -21811.6        5267.1649      23.626503      1.2330614    
     68000   311.19993     -25618.05       5269.131       23.635322      1.2326013    
     68100   304.81301     -28270.853      5271.0971      23.644141      1.2321416    
     68200   292.68103     -32766.084      5273.0632      23.65296       1.2316822    
     68300   292.7676      -28557.955      5275.0293      23.661779      1.2312231    
     68400   292.66528     -33869.756      5276.9954      23.670599      1.2307644    
     68500   275.69984     -35397.365      5278.9615      23.679418      1.230306     
     68600   291.38088     -33021.763      5280.9275      23.688237      1.229848     
     68700   314.67888     -25251.6        5282.8936      23.697056      1.2293902    
     68800   290.00409     -14370.476      5284.8597      23.705875      1.2289329    
     68900   272.56333     -18235.823      5286.8258      23.714694      1.2284759    
     69000   298.03962     -23530.094      5288.7919      23.723513      1.2280192    
     69100   295.66684     -16847.304      5290.758       23.732333      1.2275628    
     69200   285.24867     -24079.465      5292.7241      23.741152      1.2271068    
     69300   279.8859      -25208.247      5294.6902      23.749971      1.2266512    
     69400   315.14578     -15198.234      5296.6563      23.75879       1.2261958    
     69500   301.85486     -21371.057      5298.6224      23.767609      1.2257409    
     69600   294.76426     -27604.522      5300.5885      23.776428      1.2252862    
     69700   322.93295     -21220.829      5302.5546      23.785248      1.2248319    
     69800   302.29091     -30321.732      5304.5207      23.794067      1.2243779    
     69900   272.82383     -27685.813      5306.4868      23.802886      1.2239243    
     70000   248.51761     -22517.666      5308.4529      23.811705      1.223471     
     70100   297.45603     -19451.783      5310.419       23.820524      1.223018     
     70200   294.63257     -27881.76       5312.385       23.829343      1.2225654    
     70300   297.93865     -21124.593      5314.3511      23.838162      1.2221131    
     70400   307.09896     -30327.9        5316.3172      23.846982      1.2216611    
     70500   289.03203     -31435.489      5318.2833      23.855801      1.2212095    
     70600   264.5283      -32798.781      5320.2494      23.86462       1.2207582    
     70700   292.86999     -25817.161      5322.2155      23.873439      1.2203072    
     70800   300.34723     -25100.591      5324.1816      23.882258      1.2198566    
     70900   294.50772     -26636.411      5326.1477      23.891077      1.2194063    
     71000   300.93424     -26952.212      5328.1138      23.899897      1.2189563    
     71100   312.00597     -25206.16       5330.0799      23.908716      1.2185067    
     71200   285.77297     -19632.771      5332.046       23.917535      1.2180574    
     71300   272.68503     -27540.392      5334.0121      23.926354      1.2176084    
     71400   316.87489     -29338.187      5335.9782      23.935173      1.2171598    
     71500   309.25616     -26920.409      5337.9443      23.943992      1.2167115    
     71600   301.00266     -27963.761      5339.9104      23.952811      1.2162635    
     71700   305.30165     -21585.433      5341.8765      23.961631      1.2158158    
     71800   292.46191     -29553.324      5343.8425      23.97045       1.2153685    
     71900   291.82989     -24405.281      5345.8086      23.979269      1.2149215    
     72000   290.70997     -23824.737      5347.7747      23.988088      1.2144749    
     72100   287.03201     -30778.854      5349.7408      23.996907      1.2140285    
     72200   295.87355     -14802.808      5351.7069      24.005726      1.2135825    
     72300   307.94334     -33105.054      5353.673       24.014545      1.2131368    
     72400   302.75555     -30714.828      5355.6391      24.023365      1.2126915    
     72500   281.19695     -24377.233      5357.6052      24.032184      1.2122465    
     72600   292.62718     -23606.31       5359.5713      24.041003      1.2118018    
     72700   269.57468     -26681.192      5361.5374      24.049822      1.2113574    
     72800   270.2683      -21619.689      5363.5035      24.058641      1.2109133    
     72900   302.28168     -13712.32       5365.4696      24.06746       1.2104696    
     73000   311.58759     -20680.523      5367.4357      24.076279      1.2100262    
     73100   295.5067      -29176.408      5369.4018      24.085099      1.2095832    
     73200   304.42338     -33093.251      5371.3679      24.093918      1.2091404    
     73300   279.56209     -19312.148      5373.334       24.102737      1.208698     
     73400   283.81787     -18734.695      5375.3         24.111556      1.2082559    
     73500   310.09363     -27809.893      5377.2661      24.120375      1.2078141    
     73600   324.99553     -34246.127      5379.2322      24.129194      1.2073727    
     73700   328.10308     -31175.452      5381.1983      24.138014      1.2069315    
     73800   316.89012     -24645.379      5383.1644      24.146833      1.2064907    
     73900   304.90411     -31100.69       5385.1305      24.155652      1.2060502    
     74000   297.52561     -31665.296      5387.0966      24.164471      1.2056101    
     74100   283.30702     -29768.237      5389.0627      24.17329       1.2051702    
     74200   298.16475     -33032.691      5391.0288      24.182109      1.2047307    
     74300   310.67107     -31566.358      5392.9949      24.190928      1.2042915    
     74400   305.78349     -17146.998      5394.961       24.199748      1.2038526    
     74500   272.38425     -28671.444      5396.9271      24.208567      1.2034141    
     74600   305.97322     -27094.701      5398.8932      24.217386      1.2029758    
     74700   287.58704     -30138.954      5400.8593      24.226205      1.2025379    
     74800   301.9825      -30860.327      5402.8254      24.235024      1.2021003    
     74900   337.08059     -20783.226      5404.7914      24.243843      1.201663     
     75000   312.32697     -36515.312      5406.7575      24.252662      1.201226     
[...]
     98700   333.94998     -23667.101      5872.7217      26.342801      1.1059162    
     98800   315.30823     -12675.916      5874.6878      26.35162       1.105546     
     98900   286.15439     -11565.937      5876.6539      26.360439      1.1051762    
     99000   289.39078     -16172.248      5878.62        26.369259      1.1048066    
     99100   303.13003     -26818.257      5880.5861      26.378078      1.1044372    
     99200   322.04221     -15491.013      5882.5522      26.386897      1.104068     
     99300   296.95851     -27777.333      5884.5183      26.395716      1.1036992    
     99400   278.212       -27279.443      5886.4844      26.404535      1.1033305    
     99500   317.61578     -27082.015      5888.4505      26.413354      1.1029621    
     99600   326.36694     -21901.642      5890.4166      26.422173      1.102594     
     99700   318.75455     -14079.002      5892.3827      26.430993      1.1022261    
     99800   283.89015     -24455.585      5894.3488      26.439812      1.1018584    
     99900   301.30132     -25025.909      5896.3149      26.448631      1.101491     
    100000   277.15807     -33642.528      5898.281       26.45745       1.1011239    
    100100   320.61234     -17603.396      5900.247       26.466269      1.1007569    
    100200   311.87757     -28499.036      5902.2131      26.475088      1.1003903    
    100300   300.08709     -24067.771      5904.1792      26.483907      1.1000238    
    100400   280.37067     -22943.355      5906.1453      26.492727      1.0996577    
    100500   282.04655     -24369.731      5908.1114      26.501546      1.0992917    
    100600   256.92112     -16012.082      5910.0775      26.510365      1.098926     
    100700   288.44307     -22611.104      5912.0436      26.519184      1.0985606    
    100800   296.79522     -19741.725      5914.0097      26.528003      1.0981953    
    100900   286.69995     -17221.979      5915.9758      26.536822      1.0978304    
    101000   303.66438     -23816.595      5917.9419      26.545642      1.0974656    
    101100   324.34149     -18251.089      5919.908       26.554461      1.0971012    
    101200   270.8763      -35201.243      5921.8741      26.56328       1.0967369    
    101300   272.92195     -14501.228      5923.8402      26.572099      1.0963729    
    101400   309.35514     -31254.338      5925.8063      26.580918      1.0960092    
    101500   310.3061      -22430.834      5927.7724      26.589737      1.0956456    
    101600   292.49139     -29007.581      5929.7385      26.598556      1.0952824    
    101700   303.50383     -18408.303      5931.7045      26.607376      1.0949193    
    101800   285.15273     -27707.313      5933.6706      26.616195      1.0945565    
    101900   296.56992     -27039.36       5935.6367      26.625014      1.094194     
    102000   363.02703     -15886.892      5937.6028      26.633833      1.0938317    
    102100   357.31794     -7054.495       5939.5689      26.642652      1.0934696    
    102200   341.00479     -7678.6418      5941.535       26.651471      1.0931077    
    102300   294.29694     -15201.521      5943.5011      26.66029       1.0927461    
    102400   263.75562     -7718.1245      5945.4672      26.66911       1.0923848    
    102500   290.28321     -8757.4504      5947.4333      26.677929      1.0920237    
    102600   305.06861     -5362.3598      5949.3994      26.686748      1.0916628    
    102700   302.139       -4410.0695      5951.3655      26.695567      1.0913021    
    102800   323.18502     -2573.3377      5953.3316      26.704386      1.0909417    
    102900   300.19634     -14357.927      5955.2977      26.713205      1.0905816    
    103000   272.27706     -14804.211      5957.2638      26.722024      1.0902216    
    103100   300.11342     -4727.1477      5959.2299      26.730844      1.089862     
    103200   314.86116      1727.1973      5961.196       26.739663      1.0895025    
    103300   325.51246     -801.00584      5963.162       26.748482      1.0891433    
    103400   307.47921      2384.1025      5965.1281      26.757301      1.0887843    
    103500   312.71937     -7666.2319      5967.0942      26.76612       1.0884256    
    103600   291.24913     -5413.7797      5969.0603      26.774939      1.0880671    
    103700   290.90098     -1565.6572      5971.0264      26.783759      1.0877088    
    103800   303.22099     -11251.034      5972.9925      26.792578      1.0873508    
    103900   318.40016     -8723.4564      5974.9586      26.801397      1.086993     
    104000   323.9651      -386.16642      5976.9247      26.810216      1.0866354    
    104100   299.97323     -591.49614      5978.8908      26.819035      1.0862781    
    104200   280.6977       3269.0369      5980.8569      26.827854      1.085921     
    104300   297.96951      2107.5897      5982.823       26.836673      1.0855641    
    104400   293.38101     -3603.1219      5984.7891      26.845493      1.0852075    
    104500   307.99474     -3573.8486      5986.7552      26.854312      1.0848511    
    104600   303.75292      2206.0599      5988.7213      26.863131      1.0844949    
    104700   318.0243      -2531.8511      5990.6874      26.87195       1.084139     
    104800   302.21873     -5626.3156      5992.6535      26.880769      1.0837833    
    104900   300.60918      1752.1632      5994.6195      26.889588      1.0834279    
    105000   289.18006     -2475.7473      5996.5856      26.898408      1.0830727    
    105100   287.77028     -4616.0568      5998.5517      26.907227      1.0827177    
    105200   302.37111      4541.2607      6000.5178      26.916046      1.0823629    
    105300   312.41352     -3544.0133      6002.4839      26.924865      1.0820084    
    105400   295.78473     -6643.5895      6004.45        26.933684      1.0816541    
    105500   290.97113      939.84308      6006.4161      26.942503      1.0813       
    105600   311.58265      1208.8158      6008.3822      26.951322      1.0809462    
    105700   306.01331     -2923.286       6010.3483      26.960142      1.0805926    
    105800   303.4248       6901.7428      6012.3144      26.968961      1.0802392    
    105900   288.42964     -4972.9304      6014.2805      26.97778       1.0798861    
    106000   288.2463      -5203.2644      6016.2466      26.986599      1.0795332    
    106100   299.5814      -6025.0467      6018.2127      26.995418      1.0791805    
    106200   298.88688     -1230.8128      6020.1788      27.004237      1.0788281    
    106300   302.54348     -5015.3888      6022.1449      27.013056      1.0784759    
    106400   304.77586     -12608.517      6024.1109      27.021876      1.0781239    
    106500   321.79472     -3207.2442      6026.077       27.030695      1.0777721    
    106600   298.46915     -2368.6707      6028.0431      27.039514      1.0774206    
    106700   292.03793      2057.9245      6030.0092      27.048333      1.0770693    
    106800   301.06088     -576.94472      6031.9753      27.057152      1.0767183    
    106900   314.56682     -4756.8985      6033.9414      27.065971      1.0763674    
    107000   320.84523     -8648.3316      6035.9075      27.07479       1.0760168    
    107100   306.07755     -7062.0114      6037.8736      27.08361       1.0756664    
    107200   291.80933     -4388.4484      6039.8397      27.092429      1.0753163    
    107300   285.83931      2912.7925      6041.8058      27.101248      1.0749664    
    107400   291.20772      4785.191       6043.7719      27.110067      1.0746167    
    107500   303.95807      3950.4644      6045.738       27.118886      1.0742672    
    107600   295.68831     -9234.4057      6047.7041      27.127705      1.0739179    
    107700   286.08246     -9536.3692      6049.6702      27.136525      1.0735689    
    107800   263.77804      680.88923      6051.6363      27.145344      1.0732201    
    107900   299.17347      1107.6338      6053.6024      27.154163      1.0728716    
    108000   314.83643      3789.6041      6055.5684      27.162982      1.0725232    
    108100   299.6186      -387.71084      6057.5345      27.171801      1.0721751    
    108200   278.43823      1355.8439      6059.5006      27.18062       1.0718273    
    108300   290.56229      3311.6866      6061.4667      27.189439      1.0714796    
    108400   297.60093     -7534.6373      6063.4328      27.198259      1.0711322    
    108500   285.9769      -5538.6586      6065.3989      27.207078      1.070785     
    108600   289.58991     -6033.3313      6067.365       27.215897      1.070438     
    108700   330.60987      8282.6497      6069.3311      27.224716      1.0700912    
    108800   312.57155     -10527.812      6071.2972      27.233535      1.0697447    
    108900   304.3228      -8416.4054      6073.2633      27.242354      1.0693984    
    109000   288.27575     -2877.2324      6075.2294      27.251174      1.0690523    
    109100   289.67781     -8854.3058      6077.1955      27.259993      1.0687064    
    109200   297.31712     -1803.1511      6079.1616      27.268812      1.0683608    
    109300   282.10012     -5221.2686      6081.1277      27.277631      1.0680154    
    109400   327.9419       1564.5198      6083.0938      27.28645       1.0676702    
    109500   304.15277     -5652.9149      6085.0599      27.295269      1.0673252    
    109600   299.16523     -9614.3175      6087.0259      27.304088      1.0669805    
    109700   307.6179      -8124.5865      6088.992       27.312908      1.066636     
    109800   283.56824     -14488.585      6090.9581      27.321727      1.0662917    
    109900   272.01513     -4161.9608      6092.9242      27.330546      1.0659476    
    110000   318.37074     -3389.0308      6094.8903      27.339365      1.0656037    
    110100   318.20114      2716.038       6096.8564      27.348184      1.0652601    
    110200   308.4443       8534.8683      6098.8225      27.357003      1.0649167    
    110300   277.82375     -10159.742      6100.7886      27.365822      1.0645735    
    110400   289.67542     -2187.2026      6102.7547      27.374642      1.0642305    
    110500   317.40326     -13588.441      6104.7208      27.383461      1.0638878    
    110600   312.28116      3774.8346      6106.6869      27.39228       1.0635453    
    110700   297.24268      613.91095      6108.653       27.401099      1.063203     
    110800   275.51585     -5580.1183      6110.6191      27.409918      1.0628609    
    110900   295.93234      1603.2254      6112.5852      27.418737      1.062519     
    111000   300.08416      3856.4257      6114.5513      27.427557      1.0621774    
    111100   297.18697      4242.5792      6116.5174      27.436376      1.0618359    
    111200   310.6674      -3769.663       6118.4834      27.445195      1.0614947    
    111300   308.88523     -2709.73        6120.4495      27.454014      1.0611537    
    111400   334.14323     -10466.315      6122.4156      27.462833      1.060813     
    111500   302.79933      646.85393      6124.3817      27.471652      1.0604724    
    111600   299.35581      4322.3106      6126.3478      27.480471      1.0601321    
    111700   305.28901     -1322.6211      6128.3139      27.489291      1.059792     
    111800   287.17156     -8908.8663      6130.28        27.49811       1.0594521    
    111900   294.34236      563.35435      6132.2461      27.506929      1.0591124    
    112000   301.31985     -8000.5691      6134.2122      27.515748      1.0587729    
    112100   312.41079      1618.7578      6136.1783      27.524567      1.0584337    
    112200   313.85949     -10694.644      6138.1444      27.533386      1.0580947    
    112300   305.68653     -2803.1117      6140.1105      27.542205      1.0577559    
    112400   297.50739      5172.0885      6142.0766      27.551025      1.0574173    
    112500   304.09838      959.74442      6144.0427      27.559844      1.0570789    
    112600   303.85661     -3124.4267      6146.0088      27.568663      1.0567408    
    112700   281.64491      4125.454       6147.9748      27.577482      1.0564028    
    112800   290.67842     -6042.3923      6149.9409      27.586301      1.0560651    
    112900   289.56736     -1943.5516      6151.907       27.59512       1.0557276    
    113000   315.30148     -3716.8966      6153.8731      27.603939      1.0553903    
    113100   301.91306     -10445.081      6155.8392      27.612759      1.0550532    
    113200   275.37881     -2881.2137      6157.8053      27.621578      1.0547163    
    113300   297.69686     -381.51814      6159.7714      27.630397      1.0543797    
    113400   318.68105     -6569.8441      6161.7375      27.639216      1.0540433    
    113500   333.11012     -4890.0023      6163.7036      27.648035      1.053707     
    113600   279.16082      4187.7113      6165.6697      27.656854      1.053371     
    113700   310.20808     -13519.492      6167.6358      27.665674      1.0530353    
    113800   288.13793     -9550.3521      6169.6019      27.674493      1.0526997    
    113900   307.51126     -4725.763       6171.568       27.683312      1.0523643    
    114000   320.99779     -7304.3925      6173.5341      27.692131      1.0520292    
    114100   314.91166     -5810.1056      6175.5002      27.70095       1.0516942    
    114200   307.37886     -9658.6181      6177.4663      27.709769      1.0513595    
    114300   293.83586     -1983.5926      6179.4323      27.718588      1.051025     
    114400   308.06775     -6323.0784      6181.3984      27.727408      1.0506907    
    114500   313.35045     -4619.6572      6183.3645      27.736227      1.0503566    
    114600   302.75952      2095.6925      6185.3306      27.745046      1.0500228    
    114700   305.18491     -2428.2668      6187.2967      27.753865      1.0496891    
    114800   278.39356     -4329.129       6189.2628      27.762684      1.0493557    
    114900   307.76511     -5941.5899      6191.2289      27.771503      1.0490224    
    115000   300.92116      6098.0731      6193.195       27.780323      1.0486894    
    115100   292.14258     -3464.2865      6195.1611      27.789142      1.0483566    
    115200   294.91624     -8282.06        6197.1272      27.797961      1.048024     
    115300   276.23781     -560.30321      6199.0933      27.80678       1.0476916    
    115400   298.87736      4115.4873      6201.0594      27.815599      1.0473594    
    115500   299.88434     -2206.2925      6203.0255      27.824418      1.0470274    
    115600   313.22151     -5266.6429      6204.9916      27.833237      1.0466957    
    115700   288.38766     -12716.599      6206.9577      27.842057      1.0463641    
    115800   298.74756     -6960.8328      6208.9238      27.850876      1.0460328    
    115900   291.59628     -5475.6368      6210.8898      27.859695      1.0457017    
    116000   305.06447     -6410.3452      6212.8559      27.868514      1.0453708    
    116100   316.37354     -13242.838      6214.822       27.877333      1.04504      
    116200   287.00213     -4381.074       6216.7881      27.886152      1.0447095    
    116300   292.40417     -4600.4751      6218.7542      27.894971      1.0443793    
    116400   294.50959     -6775.4846      6220.7203      27.903791      1.0440492    
    116500   303.1436      -6508.6123      6222.6864      27.91261       1.0437193    
    116600   298.32304     -4818.2711      6224.6525      27.921429      1.0433896    
    116700   289.05094     -5156.242       6226.6186      27.930248      1.0430602    
    116800   321.25144     -2984.03        6228.5847      27.939067      1.0427309    
    116900   291.23658      1685.1035      6230.5508      27.947886      1.0424019    
    117000   300.40473      4534.2915      6232.5169      27.956705      1.0420731    
    117100   278.56068      420.05782      6234.483       27.965525      1.0417444    
    117200   288.2069      -6491.2249      6236.4491      27.974344      1.041416     
    117300   320.38417     -2231.9248      6238.4152      27.983163      1.0410878    
    117400   306.02586     -3410.3006      6240.3813      27.991982      1.0407598    
    117500   287.94849      334.57308      6242.3473      28.000801      1.040432     
    117600   303.81068      4170.9223      6244.3134      28.00962       1.0401044    
    117700   287.38927     -7373.2983      6246.2795      28.01844       1.039777     
    117800   281.4722      -8718.0924      6248.2456      28.027259      1.0394498    
    117900   299.12859     -239.70895      6250.2117      28.036078      1.0391229    
    118000   303.7989      -4023.2488      6252.1778      28.044897      1.0387961    
    118100   290.54761      127.33102      6254.1439      28.053716      1.0384695    
    118200   286.65655     -1220.7112      6256.11        28.062535      1.0381432    
    118300   279.24853     -2104.9983      6258.0761      28.071354      1.037817     
    118400   299.86952     -2962.3456      6260.0422      28.080174      1.0374911    
    118500   299.16087     -2655.6189      6262.0083      28.088993      1.0371653    
    118600   278.48085     -8693.0925      6263.9744      28.097812      1.0368398    
    118700   290.63134      4427.075       6265.9405      28.106631      1.0365145    
    118800   312.52394     -6734.4279      6267.9066      28.11545       1.0361893    
    118900   302.35987      1650.342       6269.8727      28.124269      1.0358644    
    119000   296.77763     -5547.381       6271.8387      28.133088      1.0355397    
    119100   282.75057     -5300.3527      6273.8048      28.141908      1.0352152    
    119200   319.62856     -6635.9124      6275.7709      28.150727      1.0348909    
    119300   319.7881      -5180.5813      6277.737       28.159546      1.0345667    
    119400   291.73007      1216.8919      6279.7031      28.168365      1.0342428    
    119500   283.04061     -8719.8869      6281.6692      28.177184      1.0339191    
    119600   285.26018      1519.9997      6283.6353      28.186003      1.0335956    
    119700   311.87516     -6588.7151      6285.6014      28.194823      1.0332723    
    119800   307.53096     -1085.3524      6287.5675      28.203642      1.0329492    
    119900   315.98791     -8990.3239      6289.5336      28.212461      1.0326263    
    120000   269.87024     -5890.7529      6291.4997      28.22128       1.0323036    
Loop time of 3872.5 on 8 procs for 120000 steps with 350 atoms

Performance: 1.339 ns/day, 17.928 hours/ns, 30.988 timesteps/s, 10.846 katom-step/s
98.8% CPU use with 8 MPI tasks x 1 OpenMP threads

MPI task timing breakdown:
Section |  min time  |  avg time  |  max time  |%varavg| %total
---------------------------------------------------------------
Pair    | 2280.9     | 2485.1     | 2863.6     | 357.8 | 64.17
Bond    | 0.29498    | 0.32579    | 0.34285    |   2.5 |  0.01
Neigh   | 187.14     | 204.85     | 233.89     | 102.0 |  5.29
Comm    | 351.97     | 731.37     | 936.15     | 661.1 | 18.89
Output  | 0.42305    | 0.4584     | 0.49606    |   3.6 |  0.01
Modify  | 419.52     | 447.85     | 465.19     |  67.4 | 11.56
Other   |            | 2.494      |            |       |  0.06

Nlocal:          43.75 ave          66 max          18 min
Histogram: 3 0 0 0 0 1 0 1 0 3
Nghost:           2246 ave        2587 max        1868 min
Histogram: 3 1 0 0 0 0 0 0 0 4
Neighs:        18001.9 ave       29284 max        6491 min
Histogram: 3 0 1 0 0 0 0 1 0 3

Total # of neighbors = 144015
Ave neighs/atom = 411.47143
Ave special neighs/atom = 0
Neighbor list builds = 12000
Dangerous builds not checked
unfix deform_p
unfix data
undump dump_pos${dir}
undump dump_pos3

# Delete dir to make sure it is not reused
variable dir delete



Total wall time: 1:04:32
