LAMMPS (2 Aug 2023 - Update 2)
  using 1 OpenMP thread(s) per MPI task
# Initialization
units           real
dimension       3
boundary        p p p
atom_style      full
timestep        0.5   # fs

# Define MD parameters
variable nevery equal 10                  # sampling interval
variable nrepeat equal 10                 # number of samples
variable nthermo equal ${nevery}*${nrepeat}           # interval for thermo output
variable nthermo equal 10*${nrepeat}           
variable nthermo equal 10*10           
variable nfreq equal ${nthermo} # length of one average
variable nfreq equal 100 
# 1 ps : 1e3 fs / 0.5 fs = 2e3 steps
variable nequil equal 20*${nthermo}       # steps of equilibration run 20
variable nequil equal 20*100       
variable nrun equal 20*${nthermo}          # stpes of equilibrated run 20
variable nrun equal 20*100          
variable temp equal 300.0                # temperature of initial sample
variable tdamp equal 50.0                 # time constant for thermostat
variable seed equal 123457                # seed for thermostat
variable ufac equal 1.01325e-4         # pressure unit conversion, from atm to Gpa
variable up equal 0.01                  # the deformation magnitude 2.0e-2

# Read the initial sctructure
# box tilt large
variable structure string 333-EXP-1-vasp
read_data       ${structure}.data
read_data       333-EXP-1-vasp.data
Reading data file ...
  triclinic box = (0 0 0) to (14.7487 13.4318 16.6096) with tilt (-6.1972 -1.0047 -1.8606)
  2 by 2 by 2 MPI processor grid
  reading atoms ...
  271 atoms
Finding 1-2 1-3 1-4 neighbors ...
  special bond factors lj:    0        0        0       
  special bond factors coul:  0        0        0       
     0 = max # of 1-2 neighbors
     0 = max # of 1-3 neighbors
     0 = max # of 1-4 neighbors
     1 = max # of special neighbors
  special bonds CPU = 0.001 seconds
  read_data CPU = 0.011 seconds

# Energy minimization
print "*****Minimization starts.*****"
*****Minimization starts.*****
velocity        all create ${temp} ${seed} dist gaussian
velocity        all create 300 ${seed} dist gaussian
velocity        all create 300 123457 dist gaussian
minimize 1.0e-6 1.0e-6 100 1000
WARNING: No pairwise cutoff or binsize set. Atom sorting therefore disabled. (src/atom.cpp:2366)
WARNING: Communication cutoff is 0.0. No ghost atoms will be generated. Atoms may get lost. (src/comm_brick.cpp:210)
Per MPI rank memory allocation (min/avg/max) = 6.364 | 6.364 | 6.364 Mbytes
   Step          Temp          E_pair         E_mol          TotEng         Press     
         0   300            0              0              241.44561      3354.3242    
         1   300            0              0              241.44561      3354.3242    
Loop time of 7.03462e-05 on 8 procs for 1 steps with 271 atoms

50.8% CPU use with 8 MPI tasks x 1 OpenMP threads

Minimization stats:
  Stopping criterion = search direction is not downhill
  Energy initial, next-to-last, final = 
                     0                  0                  0
  Force two-norm initial, final = 0 0
  Force max component initial, final = 0 0
  Final line search alpha, max atom move = 0 0
  Iterations, force evaluations = 1 0

MPI task timing breakdown:
Section |  min time  |  avg time  |  max time  |%varavg| %total
---------------------------------------------------------------
Pair    | 0          | 0          | 0          |   0.0 |  0.00
Bond    | 1.37e-07   | 2.5375e-07 | 3.04e-07   |   0.0 |  0.36
Neigh   | 0          | 0          | 0          |   0.0 |  0.00
Comm    | 8.27e-07   | 1.6231e-06 | 1.875e-06  |   0.0 |  2.31
Output  | 0          | 0          | 0          |   0.0 |  0.00
Modify  | 0          | 0          | 0          |   0.0 |  0.00
Other   |            | 6.847e-05  |            |       | 97.33

Nlocal:         33.875 ave          38 max          27 min
Histogram: 1 1 0 0 0 0 2 0 2 2
Nghost:              0 ave           0 max           0 min
Histogram: 8 0 0 0 0 0 0 0 0 0
Neighs:              0 ave           0 max           0 min
Histogram: 8 0 0 0 0 0 0 0 0 0

Total # of neighbors = 0
Ave neighs/atom = 0
Ave special neighs/atom = 0
Neighbor list builds = 0
Dangerous builds = 0
min_style cg

# Equilibration
include ff.mod.lmp
# Setup forcefield, system
# undefine any fix ave/* fix before using reset_timestep
if "$(is_defined(fix,avgp))" then "unfix avgp"
reset_timestep 0

# Assign the force field
pair_style reaxff NULL safezone 3.0 mincap 150
# pair_coeff * * CHONSSi.ff O Si
# pair_coeff * * CHOSiNa.ff O Si
# pair_coeff * * SiOCHN_2018.ff O Si
# pair_coeff * * PDMSDecomp.ff Si O
pair_coeff * * CHONSi.ff C H O Si
# pair_coeff * * CHOFe.ff O Si

# charge method for reaxff
fix myqeq all qeq/reaxff 1 0.0 10.0 1.0e-6 reaxff maxiter 400
# Setup neighbor style
neighbor        2 bin
neigh_modify    every 10 delay 0 check no

# Setup output
fix avgp all ave/time  ${nevery} ${nrepeat} ${nfreq} c_thermo_press mode vector
fix avgp all ave/time  10 ${nrepeat} ${nfreq} c_thermo_press mode vector
fix avgp all ave/time  10 10 ${nfreq} c_thermo_press mode vector
fix avgp all ave/time  10 10 100 c_thermo_press mode vector
thermo		${nthermo}
thermo		100
thermo_style custom step temp pe press f_avgp[1] vol
thermo_modify norm no

# NVT
fix 4 all nvt temp ${temp} ${temp} ${tdamp}
fix 4 all nvt temp 300 ${temp} ${tdamp}
fix 4 all nvt temp 300 300 ${tdamp}
fix 4 all nvt temp 300 300 50
thermo_style custom step temp pe press f_avgp[1] density vol
WARNING: New thermo_style command, previous thermo_modify settings will be lost (src/output.cpp:903)
run ${nequil}
run 2000

CITE-CITE-CITE-CITE-CITE-CITE-CITE-CITE-CITE-CITE-CITE-CITE-CITE

Your simulation uses code contributions which should be cited:

- pair reaxff command: doi:10.1016/j.parco.2011.08.005

@Article{Aktulga12,
 author = {H. M. Aktulga and J. C. Fogarty and S. A. Pandit and A. Y. Grama},
 title = {Parallel Reactive Molecular Dynamics: {N}umerical Methods and Algorithmic Techniques},
 journal = {Parallel Computing},
 year =    2012,
 volume =  38,
 number =  {4--5},
 pages =   {245--259}
}

- fix qeq/reaxff command: doi:10.1016/j.parco.2011.08.005

@Article{Aktulga12,
 author = {H. M. Aktulga and J. C. Fogarty and S. A. Pandit and A. Y. Grama},
 title = {Parallel Reactive Molecular Dynamics: {N}umerical Methods and Algorithmic Techniques},
 journal = {Parallel Computing},
 year =    2012,
 volume =  38,
 pages =   {245--259}
}

CITE-CITE-CITE-CITE-CITE-CITE-CITE-CITE-CITE-CITE-CITE-CITE-CITE

WARNING: Fix qeq/reaxff group is not charge neutral, net charge = -9.02 (src/REAXFF/fix_qeq_reaxff.cpp:392)
Neighbor list info ...
  update: every = 10 steps, delay = 0 steps, check = no
  max neighbors/atom: 2000, page size: 100000
  master list distance cutoff = 12
  ghost atom cutoff = 12
  binsize = 6, bins = 4 3 3
  2 neighbor lists, perpetual/occasional/extra = 2 0 0
  (1) pair reaxff, perpetual
      attributes: half, newton off, ghost
      pair build: half/bin/newtoff/ghost
      stencil: full/ghost/bin/3d
      bin: standard
  (2) fix qeq/reaxff, perpetual, copy from (1)
      attributes: half, newton off
      pair build: copy
      stencil: none
      bin: none
Per MPI rank memory allocation (min/avg/max) = 106.3 | 107.8 | 109.6 Mbytes
   Step          Temp          PotEng         Press        f_avgp[1]       Density         Volume    
         0   300           -30660.091      116480.91      0              1.5329564      3290.3881    
       100   746.11056     -31309.274     -38696.74       172.98247      1.5329564      3290.3881    
       200   481.9423      -31413.832     -21598.846     -4990.2462      1.5329564      3290.3881    
       300   415.0172      -31594.78      -6889.2654      2848.4903      1.5329564      3290.3881    
       400   319.35441     -31667.978      1345.5334      5492.5989      1.5329564      3290.3881    
       500   307.93486     -31755.664      15709.453      1992.7981      1.5329564      3290.3881    
       600   291.93109     -31804.953     -14908.396      4297.1335      1.5329564      3290.3881    
       700   272.53843     -31827.42      -7057.6111      7005.1604      1.5329564      3290.3881    
       800   269.95969     -31833.672     -11759.64       7345.6306      1.5329564      3290.3881    
       900   297.95214     -31830.762     -4635.3935      6482.5508      1.5329564      3290.3881    
      1000   336.48475     -31835.004      7737.0158      11025.006      1.5329564      3290.3881    
      1100   312.12582     -31822.482      10590.609      8054.5143      1.5329564      3290.3881    
      1200   300.2432      -31842.812      5483.2865      10584.823      1.5329564      3290.3881    
      1300   285.19686     -31858.474     -15085.453      9616.2066      1.5329564      3290.3881    
      1400   316.95614     -31891.993     -6326.2429      3331.567       1.5329564      3290.3881    
      1500   277.40296     -31841.609      21233.986      9773.2496      1.5329564      3290.3881    
      1600   305.01193     -31830.821     -1199.163       4263.3819      1.5329564      3290.3881    
      1700   320.63369     -31840.183     -9413.4012      6862.321       1.5329564      3290.3881    
      1800   302.33765     -31856.298     -4978.8372      867.81517      1.5329564      3290.3881    
      1900   280.6047      -31867.402      1618.4404      5926.6037      1.5329564      3290.3881    
      2000   273.71107     -31867.778     -8880.7599      6836.9004      1.5329564      3290.3881    
Loop time of 76.1724 on 8 procs for 2000 steps with 271 atoms

Performance: 1.134 ns/day, 21.159 hours/ns, 26.256 timesteps/s, 7.115 katom-step/s
98.5% CPU use with 8 MPI tasks x 1 OpenMP threads

MPI task timing breakdown:
Section |  min time  |  avg time  |  max time  |%varavg| %total
---------------------------------------------------------------
Pair    | 45.166     | 58.312     | 63.341     |  73.7 | 76.55
Bond    | 0.00068582 | 0.0008354  | 0.00095097 |   0.0 |  0.00
Neigh   | 3.6862     | 4.7997     | 5.1688     |  21.0 |  6.30
Comm    | 1.2023     | 6.2333     | 19.377     | 225.3 |  8.18
Output  | 0.0011219  | 0.0012818  | 0.002183   |   1.0 |  0.00
Modify  | 6.4175     | 6.7915     | 7.9111     |  17.7 |  8.92
Other   |            | 0.0337     |            |       |  0.04

Nlocal:         33.875 ave          39 max          26 min
Histogram: 1 0 0 0 0 1 5 0 0 1
Nghost:        2779.62 ave        2838 max        2729 min
Histogram: 1 1 0 1 1 2 1 0 0 1
Neighs:        19562.1 ave       22420 max       15169 min
Histogram: 1 0 0 0 0 2 4 0 0 1

Total # of neighbors = 156497
Ave neighs/atom = 577.4797
Ave special neighs/atom = 0
Neighbor list builds = 200
Dangerous builds not checked
# Save the optimized structure
write_data ${structure}_opt.data
write_data 333-EXP-1-vasp_opt.data
System init for write_data ...

# Save initial pressure, box size
variable pxx0 equal f_avgp[1]
variable pyy0 equal f_avgp[2]
variable pzz0 equal f_avgp[3]
variable pxy0 equal f_avgp[4]
variable pxz0 equal f_avgp[5]
variable pyz0 equal f_avgp[6]

# use tmp to save initial box length
variable tmp equal lx
variable lx0 equal ${tmp}
variable lx0 equal 14.7487
variable tmp equal ly
variable ly0 equal ${tmp}
variable ly0 equal 13.4318
variable tmp equal lz
variable lz0 equal ${tmp}
variable lz0 equal 16.6096

# define the derivatives, w.r.t. strain tensor
# Constants uses $, variables use v_
variable d1 equal -(v_pxx1-${pxx0})/(v_delta/v_len0)*${ufac}
variable d1 equal -(v_pxx1-6836.90035895002)/(v_delta/v_len0)*${ufac}
variable d1 equal -(v_pxx1-6836.90035895002)/(v_delta/v_len0)*0.000101325
variable d2 equal -(v_pyy1-${pyy0})/(v_delta/v_len0)*${ufac}
variable d2 equal -(v_pyy1-403.444889323348)/(v_delta/v_len0)*${ufac}
variable d2 equal -(v_pyy1-403.444889323348)/(v_delta/v_len0)*0.000101325
variable d3 equal -(v_pzz1-${pzz0})/(v_delta/v_len0)*${ufac}
variable d3 equal -(v_pzz1--1324.49188351033)/(v_delta/v_len0)*${ufac}
variable d3 equal -(v_pzz1--1324.49188351033)/(v_delta/v_len0)*0.000101325
variable d4 equal -(v_pyz1-${pyz0})/(v_delta/v_len0)*${ufac}*0.5
variable d4 equal -(v_pyz1-3248.05391670844)/(v_delta/v_len0)*${ufac}*0.5
variable d4 equal -(v_pyz1-3248.05391670844)/(v_delta/v_len0)*0.000101325*0.5
variable d5 equal -(v_pxz1-${pxz0})/(v_delta/v_len0)*${ufac}*0.5
variable d5 equal -(v_pxz1-2049.03014200902)/(v_delta/v_len0)*${ufac}*0.5
variable d5 equal -(v_pxz1-2049.03014200902)/(v_delta/v_len0)*0.000101325*0.5
variable d6 equal -(v_pxy1-${pxy0})/(v_delta/v_len0)*${ufac}*0.5
variable d6 equal -(v_pxy1--279.966303413969)/(v_delta/v_len0)*${ufac}*0.5
variable d6 equal -(v_pxy1--279.966303413969)/(v_delta/v_len0)*0.000101325*0.5

# Write restart
write_restart equil.res
System init for write_restart ...

# dir: direction
# uxx Perturbation
variable dir equal 1
include displace.mod.lmp
# Find which reference length to use
if "${dir} == 1" then    "variable len0 equal ${lx0}"
variable len0 equal ${lx0}
variable len0 equal 14.7487
if "${dir} == 2" then    "variable len0 equal ${ly0}"
if "${dir} == 3" then    "variable len0 equal ${lz0}"
if "${dir} == 4" then    "variable len0 equal ${lz0}"
if "${dir} == 5" then    "variable len0 equal ${lz0}"
if "${dir} == 6" then    "variable len0 equal ${ly0}"

# Reset box and simulation parameters
clear
  using 1 OpenMP thread(s) per MPI task
# box tilt large
read_restart equil.res
Reading restart file ...
  restart file = 2 Aug 2023, LAMMPS = 2 Aug 2023
  restoring atom style full from restart
  triclinic box = (0 0 0) to (14.7487 13.4318 16.6096) with tilt (-6.1972 -1.0047 -1.8606)
  2 by 2 by 2 MPI processor grid
  pair style reaxff stores no restart info
  271 atoms
Finding 1-2 1-3 1-4 neighbors ...
  special bond factors lj:    0        0        0       
  special bond factors coul:  0        0        0       
     0 = max # of 1-2 neighbors
     0 = max # of 1-3 neighbors
     0 = max # of 1-4 neighbors
     1 = max # of special neighbors
  special bonds CPU = 0.000 seconds
  read_restart CPU = 0.003 seconds
print "*****Negative-change ${dir} starts.*****"
*****Negative-change 1 starts.*****
include ff.mod.lmp
# Setup forcefield, system
# undefine any fix ave/* fix before using reset_timestep
if "$(is_defined(fix,avgp))" then "unfix avgp"
reset_timestep 0

# Assign the force field
pair_style reaxff NULL safezone 3.0 mincap 150
# pair_coeff * * CHONSSi.ff O Si
# pair_coeff * * CHOSiNa.ff O Si
# pair_coeff * * SiOCHN_2018.ff O Si
# pair_coeff * * PDMSDecomp.ff Si O
pair_coeff * * CHONSi.ff C H O Si
# pair_coeff * * CHOFe.ff O Si

# charge method for reaxff
fix myqeq all qeq/reaxff 1 0.0 10.0 1.0e-6 reaxff maxiter 400
# Setup neighbor style
neighbor        2 bin
neigh_modify    every 10 delay 0 check no

# Setup output
fix avgp all ave/time  ${nevery} ${nrepeat} ${nfreq} c_thermo_press mode vector
fix avgp all ave/time  10 ${nrepeat} ${nfreq} c_thermo_press mode vector
fix avgp all ave/time  10 10 ${nfreq} c_thermo_press mode vector
fix avgp all ave/time  10 10 100 c_thermo_press mode vector
thermo		${nthermo}
thermo		100
thermo_style custom step temp pe press f_avgp[1] vol
thermo_modify norm no

# NVT
fix 4 all nvt temp ${temp} ${temp} ${tdamp}
fix 4 all nvt temp 300 ${temp} ${tdamp}
fix 4 all nvt temp 300 300 ${tdamp}
fix 4 all nvt temp 300 300 50
Resetting global fix info from restart file:
  fix style: nvt, fix ID: 4

# Negative deformation
variable delta equal -${up}*${len0}
variable delta equal -0.01*${len0}
variable delta equal -0.01*14.7487
variable deltaxy equal -${up}*xy
variable deltaxy equal -0.01*xy
variable deltaxz equal -${up}*xz
variable deltaxz equal -0.01*xz
variable deltayz equal -${up}*yz
variable deltayz equal -0.01*yz
if "${dir} == 1" then    "change_box all x delta 0 ${delta} xy delta ${deltaxy} xz delta ${deltaxz} remap units box"
change_box all x delta 0 ${delta} xy delta ${deltaxy} xz delta ${deltaxz} remap units box
change_box all x delta 0 -0.147487 xy delta ${deltaxy} xz delta ${deltaxz} remap units box
change_box all x delta 0 -0.147487 xy delta 0.061972 xz delta ${deltaxz} remap units box
change_box all x delta 0 -0.147487 xy delta 0.061972 xz delta 0.010047 remap units box
Changing box ...
  triclinic box = (0 0 0) to (14.601213 13.4318 16.6096) with tilt (-6.1972 -1.0047 -1.8606)
  triclinic box = (0 0 0) to (14.601213 13.4318 16.6096) with tilt (-6.135228 -1.0047 -1.8606)
  triclinic box = (0 0 0) to (14.601213 13.4318 16.6096) with tilt (-6.135228 -0.994653 -1.8606)
if "${dir} == 2" then    "change_box all y delta 0 ${delta} yz delta ${deltayz} remap units box"
if "${dir} == 3" then    "change_box all z delta 0 ${delta} remap units box"
if "${dir} == 4" then    "change_box all yz delta ${delta} remap units box"
if "${dir} == 5" then    "change_box all xz delta ${delta} remap units box"
if "${dir} == 6" then    "change_box all xy delta ${delta} remap units box"

# Run MD for Negative deformation
# save trajectory
dump dump_neg${dir} all custom ${nthermo} dump/neg_deform${dir}.lammpstrj id type x y z
dump dump_neg1 all custom ${nthermo} dump/neg_deform${dir}.lammpstrj id type x y z
dump dump_neg1 all custom 100 dump/neg_deform${dir}.lammpstrj id type x y z
dump dump_neg1 all custom 100 dump/neg_deform1.lammpstrj id type x y z
run ${nrun}
run 2000
All restart file global fix info was re-assigned
Neighbor list info ...
  update: every = 10 steps, delay = 0 steps, check = no
  max neighbors/atom: 2000, page size: 100000
  master list distance cutoff = 12
  ghost atom cutoff = 12
  binsize = 6, bins = 4 3 3
  2 neighbor lists, perpetual/occasional/extra = 2 0 0
  (1) pair reaxff, perpetual
      attributes: half, newton off, ghost
      pair build: half/bin/newtoff/ghost
      stencil: full/ghost/bin/3d
      bin: standard
  (2) fix qeq/reaxff, perpetual, copy from (1)
      attributes: half, newton off
      pair build: copy
      stencil: none
      bin: none
Per MPI rank memory allocation (min/avg/max) = 107.6 | 109.4 | 111.6 Mbytes
   Step          Temp          PotEng         Press        f_avgp[1]        Volume    
         0   273.71107     -31857.841      35582.641      0              3257.4843    
       100   291.3064      -31855.421     -11472.285      6144.5558      3257.4843    
       200   320.61729     -31870.007     -2875.0187      9132.5182      3257.4843    
       300   291.85352     -31860.528      16734.417      6832.8711      3257.4843    
       400   297.61332     -31886.533      10356.046      3887.5346      3257.4843    
       500   268.39578     -31877.202     -10937.533      1251.0137      3257.4843    
       600   299.4231      -31895.272      5549.6557      6528.3217      3257.4843    
       700   306.46916     -31877.241      1287.771       12040.471      3257.4843    
       800   319.18613     -31875.596     -1873.0409      5970.0671      3257.4843    
       900   300.13162     -31869.164     -12146.512      10608.321      3257.4843    
      1000   286.93016     -31880.913     -9700.9564      5743.9824      3257.4843    
      1100   254.94466     -31862.043     -4882.2116      1078.3963      3257.4843    
      1200   303.99582     -31891.708     -7465.8547      4251.6859      3257.4843    
      1300   320.69345     -31893.074     -8187.3525      2237.3496      3257.4843    
      1400   301.11235     -31884.658     -1980.5285     -407.65422      3257.4843    
      1500   294.66363     -31887.995     -400.22685     -1535.983       3257.4843    
      1600   286.45884     -31884.315      2441.7738      6560.6317      3257.4843    
      1700   291.72507     -31882.575      3160.5116      4725.9903      3257.4843    
      1800   301.46046     -31875.901      1615.8488      7119.7128      3257.4843    
      1900   308.90127     -31868.105      5792.3666      8923.4531      3257.4843    
      2000   294.94087     -31859.59      -7805.5813      6786.1092      3257.4843    
Loop time of 78.7858 on 8 procs for 2000 steps with 271 atoms

Performance: 1.097 ns/day, 21.885 hours/ns, 25.385 timesteps/s, 6.879 katom-step/s
98.7% CPU use with 8 MPI tasks x 1 OpenMP threads

MPI task timing breakdown:
Section |  min time  |  avg time  |  max time  |%varavg| %total
---------------------------------------------------------------
Pair    | 46.644     | 58.107     | 65.929     | 100.1 | 73.75
Bond    | 0.00068008 | 0.00085084 | 0.00095519 |   0.0 |  0.00
Neigh   | 3.6872     | 4.6639     | 5.3847     |  28.1 |  5.92
Comm    | 1.163      | 8.9908     | 20.455     | 254.5 | 11.41
Output  | 0.0038892  | 0.005685   | 0.0071222  |   1.8 |  0.01
Modify  | 6.2643     | 6.984      | 7.962      |  23.0 |  8.86
Other   |            | 0.03402    |            |       |  0.04

Nlocal:         33.875 ave          42 max          27 min
Histogram: 2 0 1 1 0 1 1 0 1 1
Nghost:        2781.62 ave        2831 max        2732 min
Histogram: 1 1 2 0 0 1 0 0 1 2
Neighs:          19778 ave       24153 max       15953 min
Histogram: 2 0 1 1 0 1 1 0 1 1

Total # of neighbors = 158224
Ave neighs/atom = 583.8524
Ave special neighs/atom = 0
Neighbor list builds = 200
Dangerous builds not checked
undump dump_neg${dir}
undump dump_neg1

# Run equilibration
print "*****Equilibration neg${dir} starts.*****"
*****Equilibration neg1 starts.*****
include ff.mod.lmp
# Setup forcefield, system
# undefine any fix ave/* fix before using reset_timestep
if "$(is_defined(fix,avgp))" then "unfix avgp"
unfix avgp
reset_timestep 0

# Assign the force field
pair_style reaxff NULL safezone 3.0 mincap 150
# pair_coeff * * CHONSSi.ff O Si
# pair_coeff * * CHOSiNa.ff O Si
# pair_coeff * * SiOCHN_2018.ff O Si
# pair_coeff * * PDMSDecomp.ff Si O
pair_coeff * * CHONSi.ff C H O Si
# pair_coeff * * CHOFe.ff O Si

# charge method for reaxff
fix myqeq all qeq/reaxff 1 0.0 10.0 1.0e-6 reaxff maxiter 400
# Setup neighbor style
neighbor        2 bin
neigh_modify    every 10 delay 0 check no

# Setup output
fix avgp all ave/time  ${nevery} ${nrepeat} ${nfreq} c_thermo_press mode vector
fix avgp all ave/time  10 ${nrepeat} ${nfreq} c_thermo_press mode vector
fix avgp all ave/time  10 10 ${nfreq} c_thermo_press mode vector
fix avgp all ave/time  10 10 100 c_thermo_press mode vector
thermo		${nthermo}
thermo		100
thermo_style custom step temp pe press f_avgp[1] vol
WARNING: New thermo_style command, previous thermo_modify settings will be lost (src/output.cpp:903)
thermo_modify norm no

# NVT
fix 4 all nvt temp ${temp} ${temp} ${tdamp}
fix 4 all nvt temp 300 ${temp} ${tdamp}
fix 4 all nvt temp 300 300 ${tdamp}
fix 4 all nvt temp 300 300 50
run ${nequil}
run 2000
Neighbor list info ...
  update: every = 10 steps, delay = 0 steps, check = no
  max neighbors/atom: 2000, page size: 100000
  master list distance cutoff = 12
  ghost atom cutoff = 12
  binsize = 6, bins = 4 3 3
  2 neighbor lists, perpetual/occasional/extra = 2 0 0
  (1) pair reaxff, perpetual
      attributes: half, newton off, ghost
      pair build: half/bin/newtoff/ghost
      stencil: full/ghost/bin/3d
      bin: standard
  (2) fix qeq/reaxff, perpetual, copy from (1)
      attributes: half, newton off
      pair build: copy
      stencil: none
      bin: none
Per MPI rank memory allocation (min/avg/max) = 107.5 | 109.4 | 111.7 Mbytes
   Step          Temp          PotEng         Press        f_avgp[1]        Volume    
         0   294.94087     -31859.59      -7805.621       0              3257.4843    
       100   307.24554     -31877.297      3199.3902      6782.1237      3257.4843    
       200   305.74446     -31900.693      5151.9082      4397.8538      3257.4843    
       300   286.56798     -31900.286     -9243.3785      514.56789      3257.4843    
       400   314.12667     -31910.384     -893.40584      2059.8647      3257.4843    
       500   273.45099     -31872.619      7067.0483      1140.3592      3257.4843    
       600   296.4414      -31888.562      14145.649      6869.5496      3257.4843    
       700   303.44257     -31893.577     -4563.3106      2425.5793      3257.4843    
       800   317.76511     -31908.579     -9096.572       1474.3908      3257.4843    
       900   272.90936     -31894.673     -7661.1668     -1165.4329      3257.4843    
      1000   288.36537     -31908.218      925.99664      2152.4954      3257.4843    
      1100   316.07356     -31900.023      20871.185      5785.5693      3257.4843    
      1200   306.91619     -31885.115      9861.2587      3775.7993      3257.4843    
      1300   283.03725     -31875.57       3564.8299      1006.0441      3257.4843    
      1400   296.01616     -31895.15       188.82429      5804.9662      3257.4843    
      1500   279.33204     -31892.233      1726.1884      3420.0107      3257.4843    
      1600   276.04653     -31898.437     -6695.0252      5573.9341      3257.4843    
      1700   295.31891     -31920.36      -5996.4708      6894.1445      3257.4843    
      1800   308.20785     -31920.033     -997.79519      6853.9579      3257.4843    
      1900   316.23062     -31903.669      8067.525       6931.1577      3257.4843    
      2000   314.00346     -31893.487     -5743.1009      3302.3541      3257.4843    
Loop time of 79.0299 on 8 procs for 2000 steps with 271 atoms

Performance: 1.093 ns/day, 21.953 hours/ns, 25.307 timesteps/s, 6.858 katom-step/s
98.8% CPU use with 8 MPI tasks x 1 OpenMP threads

MPI task timing breakdown:
Section |  min time  |  avg time  |  max time  |%varavg| %total
---------------------------------------------------------------
Pair    | 45.008     | 55.773     | 66.344     | 114.4 | 70.57
Bond    | 0.00065654 | 0.00083749 | 0.00096779 |   0.0 |  0.00
Neigh   | 3.6585     | 4.4348     | 5.361      |  31.1 |  5.61
Comm    | 0.96023    | 11.529     | 22.292     | 251.6 | 14.59
Output  | 0.00096003 | 0.0010613  | 0.0015135  |   0.5 |  0.00
Modify  | 6.3266     | 7.2588     | 8.0401     |  24.4 |  9.18
Other   |            | 0.03267    |            |       |  0.04

Nlocal:         33.875 ave          39 max          27 min
Histogram: 1 0 0 2 1 1 0 0 0 3
Nghost:           2804 ave        2864 max        2753 min
Histogram: 2 1 0 1 0 0 2 0 0 2
Neighs:        19748.2 ave       22756 max       15920 min
Histogram: 1 0 0 2 1 1 0 0 0 3

Total # of neighbors = 157986
Ave neighs/atom = 582.97417
Ave special neighs/atom = 0
Neighbor list builds = 200
Dangerous builds not checked

# Obtain new stress tensor Negative deformation, convert index from LAMMPS to Voigt
variable pxx1 equal f_avgp[1]
variable pyy1 equal f_avgp[2]
variable pzz1 equal f_avgp[3]
variable pxy1 equal f_avgp[4]
variable pxz1 equal f_avgp[5]
variable pyz1 equal f_avgp[6]

# Compute elastic constant from pressure
# d1 = -[pxx1-pxx0]/[(]v_delta/v_len0] defined in input script
variable C1neg equal ${d1}
variable C1neg equal -35.8137895659905
variable C2neg equal ${d2}
variable C2neg equal -74.8798760193243
variable C3neg equal ${d3}
variable C3neg equal -54.2892508989441
variable C4neg equal ${d4}
variable C4neg equal -35.2981045518133
variable C5neg equal ${d5}
variable C5neg equal -5.47469595889558
variable C6neg equal ${d6}
variable C6neg equal -19.4431537481472

# Reset box and simulation parameters
clear
  using 1 OpenMP thread(s) per MPI task
# box tilt large
read_restart equil.res
Reading restart file ...
  restart file = 2 Aug 2023, LAMMPS = 2 Aug 2023
  restoring atom style full from restart
  triclinic box = (0 0 0) to (14.7487 13.4318 16.6096) with tilt (-6.1972 -1.0047 -1.8606)
  2 by 2 by 2 MPI processor grid
  pair style reaxff stores no restart info
  271 atoms
Finding 1-2 1-3 1-4 neighbors ...
  special bond factors lj:    0        0        0       
  special bond factors coul:  0        0        0       
     0 = max # of 1-2 neighbors
     0 = max # of 1-3 neighbors
     0 = max # of 1-4 neighbors
     1 = max # of special neighbors
  special bonds CPU = 0.000 seconds
  read_restart CPU = 0.003 seconds
print "*****Positive-change ${dir} starts.*****"
*****Positive-change 1 starts.*****
include ff.mod.lmp
# Setup forcefield, system
# undefine any fix ave/* fix before using reset_timestep
if "$(is_defined(fix,avgp))" then "unfix avgp"
reset_timestep 0

# Assign the force field
pair_style reaxff NULL safezone 3.0 mincap 150
# pair_coeff * * CHONSSi.ff O Si
# pair_coeff * * CHOSiNa.ff O Si
# pair_coeff * * SiOCHN_2018.ff O Si
# pair_coeff * * PDMSDecomp.ff Si O
pair_coeff * * CHONSi.ff C H O Si
# pair_coeff * * CHOFe.ff O Si

# charge method for reaxff
fix myqeq all qeq/reaxff 1 0.0 10.0 1.0e-6 reaxff maxiter 400
# Setup neighbor style
neighbor        2 bin
neigh_modify    every 10 delay 0 check no

# Setup output
fix avgp all ave/time  ${nevery} ${nrepeat} ${nfreq} c_thermo_press mode vector
fix avgp all ave/time  10 ${nrepeat} ${nfreq} c_thermo_press mode vector
fix avgp all ave/time  10 10 ${nfreq} c_thermo_press mode vector
fix avgp all ave/time  10 10 100 c_thermo_press mode vector
thermo		${nthermo}
thermo		100
thermo_style custom step temp pe press f_avgp[1] vol
thermo_modify norm no

# NVT
fix 4 all nvt temp ${temp} ${temp} ${tdamp}
fix 4 all nvt temp 300 ${temp} ${tdamp}
fix 4 all nvt temp 300 300 ${tdamp}
fix 4 all nvt temp 300 300 50
Resetting global fix info from restart file:
  fix style: nvt, fix ID: 4

# Positive deformation
variable delta equal ${up}*${len0}
variable delta equal 0.01*${len0}
variable delta equal 0.01*14.7487
variable deltaxy equal ${up}*xy
variable deltaxy equal 0.01*xy
variable deltaxz equal ${up}*xz
variable deltaxz equal 0.01*xz
variable deltayz equal ${up}*yz
variable deltayz equal 0.01*yz
if "${dir} == 1" then    "change_box all x delta 0 ${delta} xy delta ${deltaxy} xz delta ${deltaxz} remap units box"
change_box all x delta 0 ${delta} xy delta ${deltaxy} xz delta ${deltaxz} remap units box
change_box all x delta 0 0.147487 xy delta ${deltaxy} xz delta ${deltaxz} remap units box
change_box all x delta 0 0.147487 xy delta -0.061972 xz delta ${deltaxz} remap units box
change_box all x delta 0 0.147487 xy delta -0.061972 xz delta -0.010047 remap units box
Changing box ...
  triclinic box = (0 0 0) to (14.896187 13.4318 16.6096) with tilt (-6.1972 -1.0047 -1.8606)
  triclinic box = (0 0 0) to (14.896187 13.4318 16.6096) with tilt (-6.259172 -1.0047 -1.8606)
  triclinic box = (0 0 0) to (14.896187 13.4318 16.6096) with tilt (-6.259172 -1.014747 -1.8606)
if "${dir} == 2" then    "change_box all y delta 0 ${delta} yz delta ${deltayz} remap units box"
if "${dir} == 3" then    "change_box all z delta 0 ${delta} remap units box"
if "${dir} == 4" then    "change_box all yz delta ${delta} remap units box"
if "${dir} == 5" then    "change_box all xz delta ${delta} remap units box"
if "${dir} == 6" then    "change_box all xy delta ${delta} remap units box"

# Run positive deformation MD
# save trajectory
dump dump_pos${dir} all custom ${nthermo} dump/pos_deform${dir}.lammpstrj id type x y z
dump dump_pos1 all custom ${nthermo} dump/pos_deform${dir}.lammpstrj id type x y z
dump dump_pos1 all custom 100 dump/pos_deform${dir}.lammpstrj id type x y z
dump dump_pos1 all custom 100 dump/pos_deform1.lammpstrj id type x y z
run ${nrun}
run 2000
All restart file global fix info was re-assigned
Neighbor list info ...
  update: every = 10 steps, delay = 0 steps, check = no
  max neighbors/atom: 2000, page size: 100000
  master list distance cutoff = 12
  ghost atom cutoff = 12
  binsize = 6, bins = 4 3 3
  2 neighbor lists, perpetual/occasional/extra = 2 0 0
  (1) pair reaxff, perpetual
      attributes: half, newton off, ghost
      pair build: half/bin/newtoff/ghost
      stencil: full/ghost/bin/3d
      bin: standard
  (2) fix qeq/reaxff, perpetual, copy from (1)
      attributes: half, newton off
      pair build: copy
      stencil: none
      bin: none
Per MPI rank memory allocation (min/avg/max) = 106.6 | 108 | 109.7 Mbytes
   Step          Temp          PotEng         Press        f_avgp[1]        Volume    
         0   273.71107     -31849.292     -47770.331      0              3323.292     
       100   291.5856      -31850.949     -5400.391      -1103.5087      3323.292     
       200   297.08705     -31850.811     -2703.5107      820.18034      3323.292     
       300   299.00097     -31871.732      5284.8093      5164.9983      3323.292     
       400   313.15388     -31902.267     -1205.2429      3757.2408      3323.292     
       500   289.37932     -31892.494     -14456.113     -3034.7389      3323.292     
       600   299.01572     -31892.446     -16144.11      -2423.2436      3323.292     
       700   289.9878      -31863.73       6490.3424      3625.4582      3323.292     
       800   317.23984     -31876.024      3067.5362      2166.9487      3323.292     
       900   298.95705     -31871.547     -10501.887      3678.9237      3323.292     
      1000   301.63979     -31892.749     -14357.307      5959.9226      3323.292     
      1100   286.43616     -31884.798      15051.069      3131.4029      3323.292     
      1200   320.64347     -31896.219     -89.825996      1175.6003      3323.292     
      1300   299.56996     -31869.342      3390.3051     -3831.525       3323.292     
      1400   311.86652     -31875.053     -9496.1885     -871.47277      3323.292     
      1500   301.38686     -31870.238      2545.2141      10229.471      3323.292     
      1600   298.99572     -31876.201     -4165.4928      1887.4358      3323.292     
      1700   284.39793     -31873.334      12495.11       1716.6383      3323.292     
      1800   279.27282     -31867.764     -5601.1051      3750.2594      3323.292     
      1900   336.08405     -31895.808     -7013.783       608.0485       3323.292     
      2000   336.69985     -31895.744      3118.9073      6657.984       3323.292     
Loop time of 76.9442 on 8 procs for 2000 steps with 271 atoms

Performance: 1.123 ns/day, 21.373 hours/ns, 25.993 timesteps/s, 7.044 katom-step/s
98.8% CPU use with 8 MPI tasks x 1 OpenMP threads

MPI task timing breakdown:
Section |  min time  |  avg time  |  max time  |%varavg| %total
---------------------------------------------------------------
Pair    | 43.488     | 55.691     | 64.247     |  97.3 | 72.38
Bond    | 0.00067039 | 0.00085427 | 0.00097981 |   0.0 |  0.00
Neigh   | 3.6367     | 4.5228     | 5.2902     |  26.3 |  5.88
Comm    | 1.1336     | 9.6935     | 21.895     | 233.1 | 12.60
Output  | 0.0040492  | 0.0059129  | 0.0074477  |   1.9 |  0.01
Modify  | 6.2292     | 6.9966     | 7.8861     |  21.2 |  9.09
Other   |            | 0.03318    |            |       |  0.04

Nlocal:         33.875 ave          39 max          23 min
Histogram: 1 0 0 0 0 1 2 0 2 2
Nghost:         2765.5 ave        2817 max        2714 min
Histogram: 1 1 1 0 1 1 1 0 0 2
Neighs:        19365.1 ave       21997 max       13347 min
Histogram: 1 0 0 0 0 1 2 0 1 3

Total # of neighbors = 154921
Ave neighs/atom = 571.66421
Ave special neighs/atom = 0
Neighbor list builds = 200
Dangerous builds not checked
undump dump_pos${dir}
undump dump_pos1

# Run equilibration
print "*****Equilibration pos${dir} starts.*****"
*****Equilibration pos1 starts.*****
include ff.mod.lmp
# Setup forcefield, system
# undefine any fix ave/* fix before using reset_timestep
if "$(is_defined(fix,avgp))" then "unfix avgp"
unfix avgp
reset_timestep 0

# Assign the force field
pair_style reaxff NULL safezone 3.0 mincap 150
# pair_coeff * * CHONSSi.ff O Si
# pair_coeff * * CHOSiNa.ff O Si
# pair_coeff * * SiOCHN_2018.ff O Si
# pair_coeff * * PDMSDecomp.ff Si O
pair_coeff * * CHONSi.ff C H O Si
# pair_coeff * * CHOFe.ff O Si

# charge method for reaxff
fix myqeq all qeq/reaxff 1 0.0 10.0 1.0e-6 reaxff maxiter 400
# Setup neighbor style
neighbor        2 bin
neigh_modify    every 10 delay 0 check no

# Setup output
fix avgp all ave/time  ${nevery} ${nrepeat} ${nfreq} c_thermo_press mode vector
fix avgp all ave/time  10 ${nrepeat} ${nfreq} c_thermo_press mode vector
fix avgp all ave/time  10 10 ${nfreq} c_thermo_press mode vector
fix avgp all ave/time  10 10 100 c_thermo_press mode vector
thermo		${nthermo}
thermo		100
thermo_style custom step temp pe press f_avgp[1] vol
WARNING: New thermo_style command, previous thermo_modify settings will be lost (src/output.cpp:903)
thermo_modify norm no

# NVT
fix 4 all nvt temp ${temp} ${temp} ${tdamp}
fix 4 all nvt temp 300 ${temp} ${tdamp}
fix 4 all nvt temp 300 300 ${tdamp}
fix 4 all nvt temp 300 300 50
run ${nequil}
run 2000
Neighbor list info ...
  update: every = 10 steps, delay = 0 steps, check = no
  max neighbors/atom: 2000, page size: 100000
  master list distance cutoff = 12
  ghost atom cutoff = 12
  binsize = 6, bins = 4 3 3
  2 neighbor lists, perpetual/occasional/extra = 2 0 0
  (1) pair reaxff, perpetual
      attributes: half, newton off, ghost
      pair build: half/bin/newtoff/ghost
      stencil: full/ghost/bin/3d
      bin: standard
  (2) fix qeq/reaxff, perpetual, copy from (1)
      attributes: half, newton off
      pair build: copy
      stencil: none
      bin: none
Per MPI rank memory allocation (min/avg/max) = 106.7 | 108 | 109.8 Mbytes
   Step          Temp          PotEng         Press        f_avgp[1]        Volume    
         0   336.69985     -31895.744      3118.8954      0              3323.292     
       100   302.83473     -31882.266      875.65596      3762.6248      3323.292     
       200   291.32252     -31896.319      8581.041       1296.2159      3323.292     
       300   277.70003     -31887.005     -13981.406     -4120.6778      3323.292     
       400   305.50165     -31899.118     -1824.8094     -3620.9347      3323.292     
       500   295.41601     -31882.859     -6145.8503      124.43907      3323.292     
       600   313.43791     -31885.891     -2570.5531     -1965.7777      3323.292     
       700   315.0901      -31868.867     -5199.8347      3499.4804      3323.292     
       800   319.35146     -31857.186      195.73346      1476.246       3323.292     
       900   326.65852     -31875.029     -2903.8208     -6945.6841      3323.292     
      1000   296.98075     -31887.335     -5173.5656      1011.224       3323.292     
      1100   265.12314     -31867.786      1350.7572     -2052.7552      3323.292     
      1200   298.70327     -31880.311     -7325.0326     -8129.3414      3323.292     
      1300   291.67768     -31866.505     -15072.408     -1498.4364      3323.292     
      1400   307.01085     -31878.44      -519.40337      3676.9119      3323.292     
      1500   296.35191     -31876.868      6306.4873     -130.90714      3323.292     
      1600   295.01808     -31900.175     -5890.4171     -3518.7999      3323.292     
      1700   278.56064     -31890.32      -17174.103     -5139.6666      3323.292     
      1800   292.16093     -31878.159     -5826.1656     -2399.1209      3323.292     
      1900   304.07675     -31872.231     -19188.909     -1821.661       3323.292     
      2000   330.58789     -31903.002     -3960.9368      2386.955       3323.292     
Loop time of 76.8406 on 8 procs for 2000 steps with 271 atoms

Performance: 1.124 ns/day, 21.345 hours/ns, 26.028 timesteps/s, 7.054 katom-step/s
98.8% CPU use with 8 MPI tasks x 1 OpenMP threads

MPI task timing breakdown:
Section |  min time  |  avg time  |  max time  |%varavg| %total
---------------------------------------------------------------
Pair    | 43.013     | 57.138     | 64.357     | 103.6 | 74.36
Bond    | 0.00071855 | 0.00086721 | 0.0011431  |   0.0 |  0.00
Neigh   | 3.6694     | 4.6609     | 5.2717     |  27.5 |  6.07
Comm    | 0.9484     | 8.1682     | 22.296     | 274.0 | 10.63
Output  | 0.00090888 | 0.0010179  | 0.001566   |   0.7 |  0.00
Modify  | 6.225      | 6.8373     | 7.8303     |  22.8 |  8.90
Other   |            | 0.03372    |            |       |  0.04

Nlocal:         33.875 ave          42 max          22 min
Histogram: 1 0 0 0 1 2 1 1 0 2
Nghost:        2763.38 ave        2790 max        2737 min
Histogram: 1 0 2 2 0 0 0 1 0 2
Neighs:        19347.4 ave       23652 max       12795 min
Histogram: 1 0 0 0 2 1 1 1 0 2

Total # of neighbors = 154779
Ave neighs/atom = 571.14022
Ave special neighs/atom = 0
Neighbor list builds = 200
Dangerous builds not checked

# Obtain new stress tensor, convert index from LAMMPS to Voigt
variable pxx1 equal f_avgp[1]
variable pyy1 equal f_avgp[2]
variable pzz1 equal f_avgp[3]
variable pxy1 equal f_avgp[4]
variable pxz1 equal f_avgp[5]
variable pyz1 equal f_avgp[6]

# Compute elastic constant from pressure tensor
# d1 = -[pxx1-pxx0]/[(]v_delta/v_len0] defined in input script
variable C1pos equal ${d1}
variable C1pos equal 45.089070932287
variable C2pos equal ${d2}
variable C2pos equal 59.2837092378127
variable C3pos equal ${d3}
variable C3pos equal 55.8953255215539
variable C4pos equal ${d4}
variable C4pos equal 32.8762275970967
variable C5pos equal ${d5}
variable C5pos equal -10.9443317257815
variable C6pos equal ${d6}
variable C6pos equal 5.68642387375606

# Combine positive and negative
variable C1${dir} equal 0.5*(${C1neg}+${C1pos})
variable C11 equal 0.5*(${C1neg}+${C1pos})
variable C11 equal 0.5*(-35.8137895659905+${C1pos})
variable C11 equal 0.5*(-35.8137895659905+45.089070932287)
variable C2${dir} equal 0.5*(${C2neg}+${C2pos})
variable C21 equal 0.5*(${C2neg}+${C2pos})
variable C21 equal 0.5*(-74.8798760193243+${C2pos})
variable C21 equal 0.5*(-74.8798760193243+59.2837092378127)
variable C3${dir} equal 0.5*(${C3neg}+${C3pos})
variable C31 equal 0.5*(${C3neg}+${C3pos})
variable C31 equal 0.5*(-54.2892508989441+${C3pos})
variable C31 equal 0.5*(-54.2892508989441+55.8953255215539)
variable C4${dir} equal 0.5*(${C4neg}+${C4pos})
variable C41 equal 0.5*(${C4neg}+${C4pos})
variable C41 equal 0.5*(-35.2981045518133+${C4pos})
variable C41 equal 0.5*(-35.2981045518133+32.8762275970967)
variable C5${dir} equal 0.5*(${C5neg}+${C5pos})
variable C51 equal 0.5*(${C5neg}+${C5pos})
variable C51 equal 0.5*(-5.47469595889558+${C5pos})
variable C51 equal 0.5*(-5.47469595889558+-10.9443317257815)
variable C6${dir} equal 0.5*(${C6neg}+${C6pos})
variable C61 equal 0.5*(${C6neg}+${C6pos})
variable C61 equal 0.5*(-19.4431537481472+${C6pos})
variable C61 equal 0.5*(-19.4431537481472+5.68642387375606)

# Delete dir to make sure it is not reused
variable dir delete
# uyy Perturbation
variable dir equal 2
include displace.mod.lmp
# Find which reference length to use
if "${dir} == 1" then    "variable len0 equal ${lx0}"
if "${dir} == 2" then    "variable len0 equal ${ly0}"
variable len0 equal ${ly0}
variable len0 equal 13.4318
if "${dir} == 3" then    "variable len0 equal ${lz0}"
if "${dir} == 4" then    "variable len0 equal ${lz0}"
if "${dir} == 5" then    "variable len0 equal ${lz0}"
if "${dir} == 6" then    "variable len0 equal ${ly0}"

# Reset box and simulation parameters
clear
  using 1 OpenMP thread(s) per MPI task
# box tilt large
read_restart equil.res
Reading restart file ...
  restart file = 2 Aug 2023, LAMMPS = 2 Aug 2023
  restoring atom style full from restart
  triclinic box = (0 0 0) to (14.7487 13.4318 16.6096) with tilt (-6.1972 -1.0047 -1.8606)
  2 by 2 by 2 MPI processor grid
  pair style reaxff stores no restart info
  271 atoms
Finding 1-2 1-3 1-4 neighbors ...
  special bond factors lj:    0        0        0       
  special bond factors coul:  0        0        0       
     0 = max # of 1-2 neighbors
     0 = max # of 1-3 neighbors
     0 = max # of 1-4 neighbors
     1 = max # of special neighbors
  special bonds CPU = 0.000 seconds
  read_restart CPU = 0.003 seconds
print "*****Negative-change ${dir} starts.*****"
*****Negative-change 2 starts.*****
include ff.mod.lmp
# Setup forcefield, system
# undefine any fix ave/* fix before using reset_timestep
if "$(is_defined(fix,avgp))" then "unfix avgp"
reset_timestep 0

# Assign the force field
pair_style reaxff NULL safezone 3.0 mincap 150
# pair_coeff * * CHONSSi.ff O Si
# pair_coeff * * CHOSiNa.ff O Si
# pair_coeff * * SiOCHN_2018.ff O Si
# pair_coeff * * PDMSDecomp.ff Si O
pair_coeff * * CHONSi.ff C H O Si
# pair_coeff * * CHOFe.ff O Si

# charge method for reaxff
fix myqeq all qeq/reaxff 1 0.0 10.0 1.0e-6 reaxff maxiter 400
# Setup neighbor style
neighbor        2 bin
neigh_modify    every 10 delay 0 check no

# Setup output
fix avgp all ave/time  ${nevery} ${nrepeat} ${nfreq} c_thermo_press mode vector
fix avgp all ave/time  10 ${nrepeat} ${nfreq} c_thermo_press mode vector
fix avgp all ave/time  10 10 ${nfreq} c_thermo_press mode vector
fix avgp all ave/time  10 10 100 c_thermo_press mode vector
thermo		${nthermo}
thermo		100
thermo_style custom step temp pe press f_avgp[1] vol
thermo_modify norm no

# NVT
fix 4 all nvt temp ${temp} ${temp} ${tdamp}
fix 4 all nvt temp 300 ${temp} ${tdamp}
fix 4 all nvt temp 300 300 ${tdamp}
fix 4 all nvt temp 300 300 50
Resetting global fix info from restart file:
  fix style: nvt, fix ID: 4

# Negative deformation
variable delta equal -${up}*${len0}
variable delta equal -0.01*${len0}
variable delta equal -0.01*13.4318
variable deltaxy equal -${up}*xy
variable deltaxy equal -0.01*xy
variable deltaxz equal -${up}*xz
variable deltaxz equal -0.01*xz
variable deltayz equal -${up}*yz
variable deltayz equal -0.01*yz
if "${dir} == 1" then    "change_box all x delta 0 ${delta} xy delta ${deltaxy} xz delta ${deltaxz} remap units box"
if "${dir} == 2" then    "change_box all y delta 0 ${delta} yz delta ${deltayz} remap units box"
change_box all y delta 0 ${delta} yz delta ${deltayz} remap units box
change_box all y delta 0 -0.134318 yz delta ${deltayz} remap units box
change_box all y delta 0 -0.134318 yz delta 0.018606 remap units box
Changing box ...
  triclinic box = (0 0 0) to (14.7487 13.297482 16.6096) with tilt (-6.1972 -1.0047 -1.8606)
  triclinic box = (0 0 0) to (14.7487 13.297482 16.6096) with tilt (-6.1972 -1.0047 -1.841994)
if "${dir} == 3" then    "change_box all z delta 0 ${delta} remap units box"
if "${dir} == 4" then    "change_box all yz delta ${delta} remap units box"
if "${dir} == 5" then    "change_box all xz delta ${delta} remap units box"
if "${dir} == 6" then    "change_box all xy delta ${delta} remap units box"

# Run MD for Negative deformation
# save trajectory
dump dump_neg${dir} all custom ${nthermo} dump/neg_deform${dir}.lammpstrj id type x y z
dump dump_neg2 all custom ${nthermo} dump/neg_deform${dir}.lammpstrj id type x y z
dump dump_neg2 all custom 100 dump/neg_deform${dir}.lammpstrj id type x y z
dump dump_neg2 all custom 100 dump/neg_deform2.lammpstrj id type x y z
run ${nrun}
run 2000
All restart file global fix info was re-assigned
Neighbor list info ...
  update: every = 10 steps, delay = 0 steps, check = no
  max neighbors/atom: 2000, page size: 100000
  master list distance cutoff = 12
  ghost atom cutoff = 12
  binsize = 6, bins = 4 3 3
  2 neighbor lists, perpetual/occasional/extra = 2 0 0
  (1) pair reaxff, perpetual
      attributes: half, newton off, ghost
      pair build: half/bin/newtoff/ghost
      stencil: full/ghost/bin/3d
      bin: standard
  (2) fix qeq/reaxff, perpetual, copy from (1)
      attributes: half, newton off
      pair build: copy
      stencil: none
      bin: none
Per MPI rank memory allocation (min/avg/max) = 107.6 | 109.5 | 111.7 Mbytes
   Step          Temp          PotEng         Press        f_avgp[1]        Volume    
         0   273.71107     -31860.657      36822.389      0              3257.4843    
       100   276.35647     -31847.27      -6167.5951      2973.0352      3257.4843    
       200   316.80325     -31867.834     -7956.0062      3386.8202      3257.4843    
       300   323.70812     -31887.648     -4678.365       5803.0936      3257.4843    
       400   299.98936     -31894.619      6579.5239      2220.5878      3257.4843    
       500   285.13738     -31900.849      829.43619     -1449.1132      3257.4843    
       600   275.04082     -31887.169      2979.4319      2963.9439      3257.4843    
       700   306.98019     -31880.855     -4776.5084      7440.5224      3257.4843    
       800   325.50428     -31878.215     -3583.6616      5163.9458      3257.4843    
       900   302.41663     -31873.122     -5777.224       5993.0986      3257.4843    
      1000   291.9197      -31890.151      4974.4966      3017.0265      3257.4843    
      1100   261.39491     -31873.01       2441.4756      78.285115      3257.4843    
      1200   307.41153     -31885.76      -7328.4805     -814.54449      3257.4843    
      1300   308.93019     -31872.374     -2714.8114      216.07485      3257.4843    
      1400   320.98143     -31898.119      1238.5641      3381.4136      3257.4843    
      1500   301.78342     -31915.87       145.69008      4643.8007      3257.4843    
      1600   276.52508     -31918.353     -2919.7502      3140.2032      3257.4843    
      1700   267.49289     -31915.22      -4328.7301     -2536.8123      3257.4843    
      1800   292.63779     -31918.599     -10959.213      3903.936       3257.4843    
      1900   303.57231     -31914.549     -2682.3411      2791.8952      3257.4843    
      2000   306.27271     -31924.838      2260.0584      9071.7989      3257.4843    
Loop time of 78.5225 on 8 procs for 2000 steps with 271 atoms

Performance: 1.100 ns/day, 21.812 hours/ns, 25.470 timesteps/s, 6.902 katom-step/s
98.8% CPU use with 8 MPI tasks x 1 OpenMP threads

MPI task timing breakdown:
Section |  min time  |  avg time  |  max time  |%varavg| %total
---------------------------------------------------------------
Pair    | 44.593     | 59.351     | 65.643     | 106.3 | 75.58
Bond    | 0.00073312 | 0.00084434 | 0.00099553 |   0.0 |  0.00
Neigh   | 3.7172     | 4.8068     | 5.4445     |  27.9 |  6.12
Comm    | 1.1448     | 7.4362     | 22.193     | 300.4 |  9.47
Output  | 0.0038112  | 0.0062056  | 0.0080891  |   2.3 |  0.01
Modify  | 6.2444     | 6.8873     | 7.9819     |  23.4 |  8.77
Other   |            | 0.03444    |            |       |  0.04

Nlocal:         33.875 ave          37 max          28 min
Histogram: 1 0 0 0 1 0 3 1 0 2
Nghost:        2785.75 ave        2821 max        2750 min
Histogram: 1 1 0 0 2 1 1 1 0 1
Neighs:        19786.2 ave       21599 max       16556 min
Histogram: 1 0 0 0 1 0 3 1 0 2

Total # of neighbors = 158290
Ave neighs/atom = 584.09594
Ave special neighs/atom = 0
Neighbor list builds = 200
Dangerous builds not checked
undump dump_neg${dir}
undump dump_neg2

# Run equilibration
print "*****Equilibration neg${dir} starts.*****"
*****Equilibration neg2 starts.*****
include ff.mod.lmp
# Setup forcefield, system
# undefine any fix ave/* fix before using reset_timestep
if "$(is_defined(fix,avgp))" then "unfix avgp"
unfix avgp
reset_timestep 0

# Assign the force field
pair_style reaxff NULL safezone 3.0 mincap 150
# pair_coeff * * CHONSSi.ff O Si
# pair_coeff * * CHOSiNa.ff O Si
# pair_coeff * * SiOCHN_2018.ff O Si
# pair_coeff * * PDMSDecomp.ff Si O
pair_coeff * * CHONSi.ff C H O Si
# pair_coeff * * CHOFe.ff O Si

# charge method for reaxff
fix myqeq all qeq/reaxff 1 0.0 10.0 1.0e-6 reaxff maxiter 400
# Setup neighbor style
neighbor        2 bin
neigh_modify    every 10 delay 0 check no

# Setup output
fix avgp all ave/time  ${nevery} ${nrepeat} ${nfreq} c_thermo_press mode vector
fix avgp all ave/time  10 ${nrepeat} ${nfreq} c_thermo_press mode vector
fix avgp all ave/time  10 10 ${nfreq} c_thermo_press mode vector
fix avgp all ave/time  10 10 100 c_thermo_press mode vector
thermo		${nthermo}
thermo		100
thermo_style custom step temp pe press f_avgp[1] vol
WARNING: New thermo_style command, previous thermo_modify settings will be lost (src/output.cpp:903)
thermo_modify norm no

# NVT
fix 4 all nvt temp ${temp} ${temp} ${tdamp}
fix 4 all nvt temp 300 ${temp} ${tdamp}
fix 4 all nvt temp 300 300 ${tdamp}
fix 4 all nvt temp 300 300 50
run ${nequil}
run 2000
Neighbor list info ...
  update: every = 10 steps, delay = 0 steps, check = no
  max neighbors/atom: 2000, page size: 100000
  master list distance cutoff = 12
  ghost atom cutoff = 12
  binsize = 6, bins = 4 3 3
  2 neighbor lists, perpetual/occasional/extra = 2 0 0
  (1) pair reaxff, perpetual
      attributes: half, newton off, ghost
      pair build: half/bin/newtoff/ghost
      stencil: full/ghost/bin/3d
      bin: standard
  (2) fix qeq/reaxff, perpetual, copy from (1)
      attributes: half, newton off
      pair build: copy
      stencil: none
      bin: none
Per MPI rank memory allocation (min/avg/max) = 107.6 | 109.5 | 111.7 Mbytes
   Step          Temp          PotEng         Press        f_avgp[1]        Volume    
         0   306.27271     -31924.838      2259.9929      0              3257.4843    
       100   286.31161     -31911.607     -6882.5523     -170.37524      3257.4843    
       200   311.32076     -31944.456     -4084.4926      4608.3706      3257.4843    
       300   268.96115     -31932.163      3711.989      -150.52098      3257.4843    
       400   282.98538     -31938.162     -13291.69      -1895.7047      3257.4843    
       500   304.47937     -31926.92      -7649.4918      4098.5904      3257.4843    
       600   322.05916     -31927.691     -13351.88       1682.9912      3257.4843    
       700   318.78112     -31930.199     -12320.889     -1264.1454      3257.4843    
       800   302.18573     -31932.256     -16402.253      4429.9108      3257.4843    
       900   303.80846     -31945.203     -7569.7104     -773.26927      3257.4843    
      1000   308.45012     -31948.591     -2895.0999      6049.5665      3257.4843    
      1100   289.44421     -31930.134     -2897.4851      4673.5679      3257.4843    
      1200   301.97447     -31935.222     -26852.779     -1925.7376      3257.4843    
      1300   312.36254     -31939.287     -10271.133      1537.688       3257.4843    
      1400   295.70849     -31946.174     -13970.382      2307.6685      3257.4843    
      1500   282.06032     -31956.527      3184.7601      3199.2961      3257.4843    
      1600   276.21746     -31942.954     -4648.9129      2509.53        3257.4843    
      1700   290.75257     -31935.388     -11538.275      100.01744      3257.4843    
      1800   306.42302     -31942.387     -3668.7707      780.23863      3257.4843    
      1900   305.32144     -31944.651     -9353.4459     -78.714958      3257.4843    
      2000   296.37        -31955.661     -8090.0744      3597.995       3257.4843    
Loop time of 78.7319 on 8 procs for 2000 steps with 271 atoms

Performance: 1.097 ns/day, 21.870 hours/ns, 25.403 timesteps/s, 6.884 katom-step/s
98.8% CPU use with 8 MPI tasks x 1 OpenMP threads

MPI task timing breakdown:
Section |  min time  |  avg time  |  max time  |%varavg| %total
---------------------------------------------------------------
Pair    | 44.571     | 60.099     | 65.498     |  94.4 | 76.33
Bond    | 0.00063333 | 0.00084849 | 0.0010689  |   0.0 |  0.00
Neigh   | 3.7666     | 4.8243     | 5.3577     |  24.2 |  6.13
Comm    | 1.5949     | 6.9886     | 22.525     | 277.0 |  8.88
Output  | 0.00085704 | 0.00096831 | 0.0013738  |   0.0 |  0.00
Modify  | 6.2438     | 6.7835     | 7.836      |  20.4 |  8.62
Other   |            | 0.03432    |            |       |  0.04

Nlocal:         33.875 ave          38 max          28 min
Histogram: 1 0 1 0 0 1 1 1 1 2
Nghost:        2784.25 ave        2830 max        2740 min
Histogram: 1 1 0 2 1 0 0 1 0 2
Neighs:          19792 ave       21936 max       16519 min
Histogram: 1 0 1 0 0 1 2 0 1 2

Total # of neighbors = 158336
Ave neighs/atom = 584.26568
Ave special neighs/atom = 0
Neighbor list builds = 200
Dangerous builds not checked

# Obtain new stress tensor Negative deformation, convert index from LAMMPS to Voigt
variable pxx1 equal f_avgp[1]
variable pyy1 equal f_avgp[2]
variable pzz1 equal f_avgp[3]
variable pxy1 equal f_avgp[4]
variable pxz1 equal f_avgp[5]
variable pyz1 equal f_avgp[6]

# Compute elastic constant from pressure
# d1 = -[pxx1-pxx0]/[(]v_delta/v_len0] defined in input script
variable C1neg equal ${d1}
variable C1neg equal -32.8182080741483
variable C2neg equal ${d2}
variable C2neg equal -78.8536638187371
variable C3neg equal ${d3}
variable C3neg equal -37.3230708623472
variable C4neg equal ${d4}
variable C4neg equal -2.5139321981475
variable C5neg equal ${d5}
variable C5neg equal -12.8685104487231
variable C6neg equal ${d6}
variable C6neg equal -7.33807018198293

# Reset box and simulation parameters
clear
  using 1 OpenMP thread(s) per MPI task
# box tilt large
read_restart equil.res
Reading restart file ...
  restart file = 2 Aug 2023, LAMMPS = 2 Aug 2023
  restoring atom style full from restart
  triclinic box = (0 0 0) to (14.7487 13.4318 16.6096) with tilt (-6.1972 -1.0047 -1.8606)
  2 by 2 by 2 MPI processor grid
  pair style reaxff stores no restart info
  271 atoms
Finding 1-2 1-3 1-4 neighbors ...
  special bond factors lj:    0        0        0       
  special bond factors coul:  0        0        0       
     0 = max # of 1-2 neighbors
     0 = max # of 1-3 neighbors
     0 = max # of 1-4 neighbors
     1 = max # of special neighbors
  special bonds CPU = 0.000 seconds
  read_restart CPU = 0.003 seconds
print "*****Positive-change ${dir} starts.*****"
*****Positive-change 2 starts.*****
include ff.mod.lmp
# Setup forcefield, system
# undefine any fix ave/* fix before using reset_timestep
if "$(is_defined(fix,avgp))" then "unfix avgp"
reset_timestep 0

# Assign the force field
pair_style reaxff NULL safezone 3.0 mincap 150
# pair_coeff * * CHONSSi.ff O Si
# pair_coeff * * CHOSiNa.ff O Si
# pair_coeff * * SiOCHN_2018.ff O Si
# pair_coeff * * PDMSDecomp.ff Si O
pair_coeff * * CHONSi.ff C H O Si
# pair_coeff * * CHOFe.ff O Si

# charge method for reaxff
fix myqeq all qeq/reaxff 1 0.0 10.0 1.0e-6 reaxff maxiter 400
# Setup neighbor style
neighbor        2 bin
neigh_modify    every 10 delay 0 check no

# Setup output
fix avgp all ave/time  ${nevery} ${nrepeat} ${nfreq} c_thermo_press mode vector
fix avgp all ave/time  10 ${nrepeat} ${nfreq} c_thermo_press mode vector
fix avgp all ave/time  10 10 ${nfreq} c_thermo_press mode vector
fix avgp all ave/time  10 10 100 c_thermo_press mode vector
thermo		${nthermo}
thermo		100
thermo_style custom step temp pe press f_avgp[1] vol
thermo_modify norm no

# NVT
fix 4 all nvt temp ${temp} ${temp} ${tdamp}
fix 4 all nvt temp 300 ${temp} ${tdamp}
fix 4 all nvt temp 300 300 ${tdamp}
fix 4 all nvt temp 300 300 50
Resetting global fix info from restart file:
  fix style: nvt, fix ID: 4

# Positive deformation
variable delta equal ${up}*${len0}
variable delta equal 0.01*${len0}
variable delta equal 0.01*13.4318
variable deltaxy equal ${up}*xy
variable deltaxy equal 0.01*xy
variable deltaxz equal ${up}*xz
variable deltaxz equal 0.01*xz
variable deltayz equal ${up}*yz
variable deltayz equal 0.01*yz
if "${dir} == 1" then    "change_box all x delta 0 ${delta} xy delta ${deltaxy} xz delta ${deltaxz} remap units box"
if "${dir} == 2" then    "change_box all y delta 0 ${delta} yz delta ${deltayz} remap units box"
change_box all y delta 0 ${delta} yz delta ${deltayz} remap units box
change_box all y delta 0 0.134318 yz delta ${deltayz} remap units box
change_box all y delta 0 0.134318 yz delta -0.018606 remap units box
Changing box ...
  triclinic box = (0 0 0) to (14.7487 13.566118 16.6096) with tilt (-6.1972 -1.0047 -1.8606)
  triclinic box = (0 0 0) to (14.7487 13.566118 16.6096) with tilt (-6.1972 -1.0047 -1.879206)
if "${dir} == 3" then    "change_box all z delta 0 ${delta} remap units box"
if "${dir} == 4" then    "change_box all yz delta ${delta} remap units box"
if "${dir} == 5" then    "change_box all xz delta ${delta} remap units box"
if "${dir} == 6" then    "change_box all xy delta ${delta} remap units box"

# Run positive deformation MD
# save trajectory
dump dump_pos${dir} all custom ${nthermo} dump/pos_deform${dir}.lammpstrj id type x y z
dump dump_pos2 all custom ${nthermo} dump/pos_deform${dir}.lammpstrj id type x y z
dump dump_pos2 all custom 100 dump/pos_deform${dir}.lammpstrj id type x y z
dump dump_pos2 all custom 100 dump/pos_deform2.lammpstrj id type x y z
run ${nrun}
run 2000
All restart file global fix info was re-assigned
Neighbor list info ...
  update: every = 10 steps, delay = 0 steps, check = no
  max neighbors/atom: 2000, page size: 100000
  master list distance cutoff = 12
  ghost atom cutoff = 12
  binsize = 6, bins = 4 3 3
  2 neighbor lists, perpetual/occasional/extra = 2 0 0
  (1) pair reaxff, perpetual
      attributes: half, newton off, ghost
      pair build: half/bin/newtoff/ghost
      stencil: full/ghost/bin/3d
      bin: standard
  (2) fix qeq/reaxff, perpetual, copy from (1)
      attributes: half, newton off
      pair build: copy
      stencil: none
      bin: none
Per MPI rank memory allocation (min/avg/max) = 106.4 | 107.6 | 109.1 Mbytes
   Step          Temp          PotEng         Press        f_avgp[1]        Volume    
         0   273.71107     -31845.936     -49234.019      0              3323.292     
       100   294.06726     -31848.299     -5584.9718      2319.2342      3323.292     
       200   319.51563     -31866.442     -1346.542       7866.1597      3323.292     
       300   286.98315     -31861.766      10491.705      4565.9081      3323.292     
       400   319.02053     -31903.497     -1093.7329      351.78218      3323.292     
       500   271.05484     -31874.28      -14614.856     -1356.9483      3323.292     
       600   299.6628      -31884.876     -11780.67      -5495.7388      3323.292     
       700   340.20676     -31893.301      5239.5115      6610.9434      3323.292     
       800   301.78182     -31870.035     -1689.4497     -171.8525       3323.292     
       900   276.85777     -31868.059     -3904.9508      7867.7937      3323.292     
      1000   269.04466     -31871.082     -6141.8088      1739.8325      3323.292     
      1100   286.29996     -31879.783     -6124.4531      122.01487      3323.292     
      1200   320.16664     -31884.556      9605.6929      2124.6015      3323.292     
      1300   327.77355     -31873.246      4121.0766      1545.0994      3323.292     
      1400   312.61779     -31875.881     -11428.059      4966.2845      3323.292     
      1500   282.52691     -31876.151     -8629.1257      1639.6325      3323.292     
      1600   305.00452     -31909.533      3265.959       436.48345      3323.292     
      1700   264.55417     -31878.362      6277.0501      1602.2542      3323.292     
      1800   331.64037     -31908.195     -12844.635     -256.83411      3323.292     
      1900   326.62561     -31886.822     -8337.2945     -2121.6644      3323.292     
      2000   306.55273     -31867.787     -755.46852      4167.4891      3323.292     
Loop time of 77.3659 on 8 procs for 2000 steps with 271 atoms

Performance: 1.117 ns/day, 21.491 hours/ns, 25.851 timesteps/s, 7.006 katom-step/s
98.6% CPU use with 8 MPI tasks x 1 OpenMP threads

MPI task timing breakdown:
Section |  min time  |  avg time  |  max time  |%varavg| %total
---------------------------------------------------------------
Pair    | 43.122     | 59.027     | 64.212     |  86.8 | 76.30
Bond    | 0.00066447 | 0.00081366 | 0.00093664 |   0.0 |  0.00
Neigh   | 3.6409     | 4.76       | 5.2067     |  22.1 |  6.15
Comm    | 1.4751     | 6.6599     | 22.564     | 258.3 |  8.61
Output  | 0.0040001  | 0.006702   | 0.008745   |   2.5 |  0.01
Modify  | 6.4328     | 6.8782     | 7.9995     |  18.4 |  8.89
Other   |            | 0.03377    |            |       |  0.04

Nlocal:         33.875 ave          41 max          24 min
Histogram: 1 0 0 0 1 2 2 0 1 1
Nghost:         2761.5 ave        2814 max        2712 min
Histogram: 1 1 0 2 1 1 0 0 0 2
Neighs:        19348.4 ave       23089 max       13921 min
Histogram: 1 0 0 0 1 2 2 0 1 1

Total # of neighbors = 154787
Ave neighs/atom = 571.16974
Ave special neighs/atom = 0
Neighbor list builds = 200
Dangerous builds not checked
undump dump_pos${dir}
undump dump_pos2

# Run equilibration
print "*****Equilibration pos${dir} starts.*****"
*****Equilibration pos2 starts.*****
include ff.mod.lmp
# Setup forcefield, system
# undefine any fix ave/* fix before using reset_timestep
if "$(is_defined(fix,avgp))" then "unfix avgp"
unfix avgp
reset_timestep 0

# Assign the force field
pair_style reaxff NULL safezone 3.0 mincap 150
# pair_coeff * * CHONSSi.ff O Si
# pair_coeff * * CHOSiNa.ff O Si
# pair_coeff * * SiOCHN_2018.ff O Si
# pair_coeff * * PDMSDecomp.ff Si O
pair_coeff * * CHONSi.ff C H O Si
# pair_coeff * * CHOFe.ff O Si

# charge method for reaxff
fix myqeq all qeq/reaxff 1 0.0 10.0 1.0e-6 reaxff maxiter 400
# Setup neighbor style
neighbor        2 bin
neigh_modify    every 10 delay 0 check no

# Setup output
fix avgp all ave/time  ${nevery} ${nrepeat} ${nfreq} c_thermo_press mode vector
fix avgp all ave/time  10 ${nrepeat} ${nfreq} c_thermo_press mode vector
fix avgp all ave/time  10 10 ${nfreq} c_thermo_press mode vector
fix avgp all ave/time  10 10 100 c_thermo_press mode vector
thermo		${nthermo}
thermo		100
thermo_style custom step temp pe press f_avgp[1] vol
WARNING: New thermo_style command, previous thermo_modify settings will be lost (src/output.cpp:903)
thermo_modify norm no

# NVT
fix 4 all nvt temp ${temp} ${temp} ${tdamp}
fix 4 all nvt temp 300 ${temp} ${tdamp}
fix 4 all nvt temp 300 300 ${tdamp}
fix 4 all nvt temp 300 300 50
run ${nequil}
run 2000
Neighbor list info ...
  update: every = 10 steps, delay = 0 steps, check = no
  max neighbors/atom: 2000, page size: 100000
  master list distance cutoff = 12
  ghost atom cutoff = 12
  binsize = 6, bins = 4 3 3
  2 neighbor lists, perpetual/occasional/extra = 2 0 0
  (1) pair reaxff, perpetual
      attributes: half, newton off, ghost
      pair build: half/bin/newtoff/ghost
      stencil: full/ghost/bin/3d
      bin: standard
  (2) fix qeq/reaxff, perpetual, copy from (1)
      attributes: half, newton off
      pair build: copy
      stencil: none
      bin: none
Per MPI rank memory allocation (min/avg/max) = 106.5 | 107.6 | 109.2 Mbytes
   Step          Temp          PotEng         Press        f_avgp[1]        Volume    
         0   306.55273     -31867.787     -755.41342      0              3323.292     
       100   289.94622     -31864.101     -12696.466      3488.5832      3323.292     
       200   297.10439     -31898.068     -11692.933     -3797.9199      3323.292     
       300   258.06936     -31870.693     -7657.301      -4108.7423      3323.292     
       400   289.39783     -31880.992     -14480.948      1559.1889      3323.292     
       500   285.33307     -31863.246     -13471.917     -3468.7309      3323.292     
       600   309.57349     -31868.286     -9239.9453     -3739.4884      3323.292     
       700   300.46619     -31866.056      460.50657      272.35894      3323.292     
       800   313.9857      -31888.859      73.089926      3434.6673      3323.292     
       900   275.11493     -31895.683      1952.7221      1886.3174      3323.292     
      1000   273.66453     -31890.805      3993.8794     -1287.9581      3323.292     
      1100   296.81922     -31883.931     -8594.6675     -1450.7878      3323.292     
      1200   297.32442     -31865.37      -3410.692      -587.89379      3323.292     
      1300   307.17954     -31867.104     -6655.1328      2879.0596      3323.292     
      1400   290.86125     -31866.604     -14300.228      1388.864       3323.292     
      1500   273.17676     -31873.42      -12694.688      423.04497      3323.292     
      1600   286.06191     -31895.485      12800.281     -2226.7003      3323.292     
      1700   278.23859     -31891.638     -3211.068      -763.83887      3323.292     
      1800   300.69621     -31883.707     -9445.6407     -4765.3204      3323.292     
      1900   294.71292     -31860.121      10257.802      1261.8055      3323.292     
      2000   325.91471     -31890.705     -1310.3781      1299.4507      3323.292     
Loop time of 77.3185 on 8 procs for 2000 steps with 271 atoms

Performance: 1.117 ns/day, 21.477 hours/ns, 25.867 timesteps/s, 7.010 katom-step/s
98.6% CPU use with 8 MPI tasks x 1 OpenMP threads

MPI task timing breakdown:
Section |  min time  |  avg time  |  max time  |%varavg| %total
---------------------------------------------------------------
Pair    | 45.419     | 60.791     | 64.815     |  76.0 | 78.62
Bond    | 0.00069689 | 0.0008196  | 0.00094802 |   0.0 |  0.00
Neigh   | 3.8141     | 4.9137     | 5.234      |  19.1 |  6.36
Comm    | 0.81414    | 4.8426     | 20.214     | 269.1 |  6.26
Output  | 0.00093791 | 0.0010996  | 0.0020915  |   1.1 |  0.00
Modify  | 6.4173     | 6.7355     | 7.839      |  16.4 |  8.71
Other   |            | 0.03417    |            |       |  0.04

Nlocal:         33.875 ave          38 max          26 min
Histogram: 1 0 0 1 0 0 2 0 2 2
Nghost:        2755.62 ave        2789 max        2722 min
Histogram: 1 2 1 0 0 0 1 0 1 2
Neighs:          19368 ave       21717 max       15071 min
Histogram: 1 0 0 1 0 0 2 2 0 2

Total # of neighbors = 154944
Ave neighs/atom = 571.74908
Ave special neighs/atom = 0
Neighbor list builds = 200
Dangerous builds not checked

# Obtain new stress tensor, convert index from LAMMPS to Voigt
variable pxx1 equal f_avgp[1]
variable pyy1 equal f_avgp[2]
variable pzz1 equal f_avgp[3]
variable pxy1 equal f_avgp[4]
variable pxz1 equal f_avgp[5]
variable pyz1 equal f_avgp[6]

# Compute elastic constant from pressure tensor
# d1 = -[pxx1-pxx0]/[(]v_delta/v_len0] defined in input script
variable C1pos equal ${d1}
variable C1pos equal 56.1082085850816
variable C2pos equal ${d2}
variable C2pos equal 97.0087312103716
variable C3pos equal ${d3}
variable C3pos equal 12.629693657452
variable C4pos equal ${d4}
variable C4pos equal 18.9088364926267
variable C5pos equal ${d5}
variable C5pos equal 3.99822599322795
variable C6pos equal ${d6}
variable C6pos equal 5.32369057167427

# Combine positive and negative
variable C1${dir} equal 0.5*(${C1neg}+${C1pos})
variable C12 equal 0.5*(${C1neg}+${C1pos})
variable C12 equal 0.5*(-32.8182080741483+${C1pos})
variable C12 equal 0.5*(-32.8182080741483+56.1082085850816)
variable C2${dir} equal 0.5*(${C2neg}+${C2pos})
variable C22 equal 0.5*(${C2neg}+${C2pos})
variable C22 equal 0.5*(-78.8536638187371+${C2pos})
variable C22 equal 0.5*(-78.8536638187371+97.0087312103716)
variable C3${dir} equal 0.5*(${C3neg}+${C3pos})
variable C32 equal 0.5*(${C3neg}+${C3pos})
variable C32 equal 0.5*(-37.3230708623472+${C3pos})
variable C32 equal 0.5*(-37.3230708623472+12.629693657452)
variable C4${dir} equal 0.5*(${C4neg}+${C4pos})
variable C42 equal 0.5*(${C4neg}+${C4pos})
variable C42 equal 0.5*(-2.5139321981475+${C4pos})
variable C42 equal 0.5*(-2.5139321981475+18.9088364926267)
variable C5${dir} equal 0.5*(${C5neg}+${C5pos})
variable C52 equal 0.5*(${C5neg}+${C5pos})
variable C52 equal 0.5*(-12.8685104487231+${C5pos})
variable C52 equal 0.5*(-12.8685104487231+3.99822599322795)
variable C6${dir} equal 0.5*(${C6neg}+${C6pos})
variable C62 equal 0.5*(${C6neg}+${C6pos})
variable C62 equal 0.5*(-7.33807018198293+${C6pos})
variable C62 equal 0.5*(-7.33807018198293+5.32369057167427)

# Delete dir to make sure it is not reused
variable dir delete
# uzz Perturbation
variable dir equal 3
include displace.mod.lmp
# Find which reference length to use
if "${dir} == 1" then    "variable len0 equal ${lx0}"
if "${dir} == 2" then    "variable len0 equal ${ly0}"
if "${dir} == 3" then    "variable len0 equal ${lz0}"
variable len0 equal ${lz0}
variable len0 equal 16.6096
if "${dir} == 4" then    "variable len0 equal ${lz0}"
if "${dir} == 5" then    "variable len0 equal ${lz0}"
if "${dir} == 6" then    "variable len0 equal ${ly0}"

# Reset box and simulation parameters
clear
  using 1 OpenMP thread(s) per MPI task
# box tilt large
read_restart equil.res
Reading restart file ...
  restart file = 2 Aug 2023, LAMMPS = 2 Aug 2023
  restoring atom style full from restart
  triclinic box = (0 0 0) to (14.7487 13.4318 16.6096) with tilt (-6.1972 -1.0047 -1.8606)
  2 by 2 by 2 MPI processor grid
  pair style reaxff stores no restart info
  271 atoms
Finding 1-2 1-3 1-4 neighbors ...
  special bond factors lj:    0        0        0       
  special bond factors coul:  0        0        0       
     0 = max # of 1-2 neighbors
     0 = max # of 1-3 neighbors
     0 = max # of 1-4 neighbors
     1 = max # of special neighbors
  special bonds CPU = 0.000 seconds
  read_restart CPU = 0.004 seconds
print "*****Negative-change ${dir} starts.*****"
*****Negative-change 3 starts.*****
include ff.mod.lmp
# Setup forcefield, system
# undefine any fix ave/* fix before using reset_timestep
if "$(is_defined(fix,avgp))" then "unfix avgp"
reset_timestep 0

# Assign the force field
pair_style reaxff NULL safezone 3.0 mincap 150
# pair_coeff * * CHONSSi.ff O Si
# pair_coeff * * CHOSiNa.ff O Si
# pair_coeff * * SiOCHN_2018.ff O Si
# pair_coeff * * PDMSDecomp.ff Si O
pair_coeff * * CHONSi.ff C H O Si
# pair_coeff * * CHOFe.ff O Si

# charge method for reaxff
fix myqeq all qeq/reaxff 1 0.0 10.0 1.0e-6 reaxff maxiter 400
# Setup neighbor style
neighbor        2 bin
neigh_modify    every 10 delay 0 check no

# Setup output
fix avgp all ave/time  ${nevery} ${nrepeat} ${nfreq} c_thermo_press mode vector
fix avgp all ave/time  10 ${nrepeat} ${nfreq} c_thermo_press mode vector
fix avgp all ave/time  10 10 ${nfreq} c_thermo_press mode vector
fix avgp all ave/time  10 10 100 c_thermo_press mode vector
thermo		${nthermo}
thermo		100
thermo_style custom step temp pe press f_avgp[1] vol
thermo_modify norm no

# NVT
fix 4 all nvt temp ${temp} ${temp} ${tdamp}
fix 4 all nvt temp 300 ${temp} ${tdamp}
fix 4 all nvt temp 300 300 ${tdamp}
fix 4 all nvt temp 300 300 50
Resetting global fix info from restart file:
  fix style: nvt, fix ID: 4

# Negative deformation
variable delta equal -${up}*${len0}
variable delta equal -0.01*${len0}
variable delta equal -0.01*16.6096
variable deltaxy equal -${up}*xy
variable deltaxy equal -0.01*xy
variable deltaxz equal -${up}*xz
variable deltaxz equal -0.01*xz
variable deltayz equal -${up}*yz
variable deltayz equal -0.01*yz
if "${dir} == 1" then    "change_box all x delta 0 ${delta} xy delta ${deltaxy} xz delta ${deltaxz} remap units box"
if "${dir} == 2" then    "change_box all y delta 0 ${delta} yz delta ${deltayz} remap units box"
if "${dir} == 3" then    "change_box all z delta 0 ${delta} remap units box"
change_box all z delta 0 ${delta} remap units box
change_box all z delta 0 -0.166096 remap units box
Changing box ...
  triclinic box = (0 0 0) to (14.7487 13.4318 16.443504) with tilt (-6.1972 -1.0047 -1.8606)
if "${dir} == 4" then    "change_box all yz delta ${delta} remap units box"
if "${dir} == 5" then    "change_box all xz delta ${delta} remap units box"
if "${dir} == 6" then    "change_box all xy delta ${delta} remap units box"

# Run MD for Negative deformation
# save trajectory
dump dump_neg${dir} all custom ${nthermo} dump/neg_deform${dir}.lammpstrj id type x y z
dump dump_neg3 all custom ${nthermo} dump/neg_deform${dir}.lammpstrj id type x y z
dump dump_neg3 all custom 100 dump/neg_deform${dir}.lammpstrj id type x y z
dump dump_neg3 all custom 100 dump/neg_deform3.lammpstrj id type x y z
run ${nrun}
run 2000
All restart file global fix info was re-assigned
Neighbor list info ...
  update: every = 10 steps, delay = 0 steps, check = no
  max neighbors/atom: 2000, page size: 100000
  master list distance cutoff = 12
  ghost atom cutoff = 12
  binsize = 6, bins = 4 3 3
  2 neighbor lists, perpetual/occasional/extra = 2 0 0
  (1) pair reaxff, perpetual
      attributes: half, newton off, ghost
      pair build: half/bin/newtoff/ghost
      stencil: full/ghost/bin/3d
      bin: standard
  (2) fix qeq/reaxff, perpetual, copy from (1)
      attributes: half, newton off
      pair build: copy
      stencil: none
      bin: none
Per MPI rank memory allocation (min/avg/max) = 107.7 | 109.3 | 111 Mbytes
   Step          Temp          PotEng         Press        f_avgp[1]        Volume    
         0   273.71107     -31860.353      35288.078      0              3257.4843    
       100   287.68012     -31855.672     -9867.1076      3507.8541      3257.4843    
       200   303.21738     -31859.192     -6577.9246      5413.3331      3257.4843    
       300   308.82453     -31875.381      5105.6864      7009.3223      3257.4843    
       400   324.68365     -31913.893     -11239.015      1545.2824      3257.4843    
       500   281.44805     -31903.053     -5307.2246      242.04506      3257.4843    
       600   290.91315     -31906.516      2953.6107      1425.5355      3257.4843    
       700   278.19648     -31869.874      5951.2816      10492.468      3257.4843    
       800   306.4053      -31872.777      13306.26       7384.6205      3257.4843    
       900   304.4695      -31870.595     -10481.469      11886.256      3257.4843    
      1000   297.7525      -31884.285      6639.8185      8542.6838      3257.4843    
      1100   289.66555     -31897.81       276.60149      1859.8077      3257.4843    
      1200   305.15912     -31915.737      6084.0863      1789.5675      3257.4843    
      1300   285.65929     -31889.827     -840.68953      3168.4152      3257.4843    
      1400   293.78826     -31875.136     -16551.405      2117.4101      3257.4843    
      1500   320.40163     -31880.666     -7783.6         3197.2305      3257.4843    
      1600   290.52171     -31859.552     -9033.0243     -156.48554      3257.4843    
      1700   305.27195     -31894.422      2765.5996      5021.814       3257.4843    
      1800   289.66282     -31907.764      848.46809      2583.0157      3257.4843    
      1900   266.16559     -31889.225     -80.056847      6039.1308      3257.4843    
      2000   297.72407     -31898.149      2824.7067      1648.6321      3257.4843    
Loop time of 80.0595 on 8 procs for 2000 steps with 271 atoms

Performance: 1.079 ns/day, 22.239 hours/ns, 24.981 timesteps/s, 6.770 katom-step/s
98.6% CPU use with 8 MPI tasks x 1 OpenMP threads

MPI task timing breakdown:
Section |  min time  |  avg time  |  max time  |%varavg| %total
---------------------------------------------------------------
Pair    | 44.376     | 62.735     | 67.197     |  89.1 | 78.36
Bond    | 0.00069391 | 0.00085278 | 0.0010003  |   0.0 |  0.00
Neigh   | 3.7088     | 5.0118     | 5.3806     |  22.4 |  6.26
Comm    | 0.98557    | 5.458      | 23.812     | 301.9 |  6.82
Output  | 0.0041375  | 0.0069822  | 0.0091863  |   2.6 |  0.01
Modify  | 6.4491     | 6.8129     | 8.1232     |  19.3 |  8.51
Other   |            | 0.03462    |            |       |  0.04

Nlocal:         33.875 ave          40 max          23 min
Histogram: 1 0 0 0 1 1 0 3 0 2
Nghost:        2814.38 ave        2848 max        2773 min
Histogram: 1 0 1 0 1 2 1 0 0 2
Neighs:        19762.2 ave       22971 max       13686 min
Histogram: 1 0 0 0 1 1 0 3 0 2

Total # of neighbors = 158098
Ave neighs/atom = 583.38745
Ave special neighs/atom = 0
Neighbor list builds = 200
Dangerous builds not checked
undump dump_neg${dir}
undump dump_neg3

# Run equilibration
print "*****Equilibration neg${dir} starts.*****"
*****Equilibration neg3 starts.*****
include ff.mod.lmp
# Setup forcefield, system
# undefine any fix ave/* fix before using reset_timestep
if "$(is_defined(fix,avgp))" then "unfix avgp"
unfix avgp
reset_timestep 0

# Assign the force field
pair_style reaxff NULL safezone 3.0 mincap 150
# pair_coeff * * CHONSSi.ff O Si
# pair_coeff * * CHOSiNa.ff O Si
# pair_coeff * * SiOCHN_2018.ff O Si
# pair_coeff * * PDMSDecomp.ff Si O
pair_coeff * * CHONSi.ff C H O Si
# pair_coeff * * CHOFe.ff O Si

# charge method for reaxff
fix myqeq all qeq/reaxff 1 0.0 10.0 1.0e-6 reaxff maxiter 400
# Setup neighbor style
neighbor        2 bin
neigh_modify    every 10 delay 0 check no

# Setup output
fix avgp all ave/time  ${nevery} ${nrepeat} ${nfreq} c_thermo_press mode vector
fix avgp all ave/time  10 ${nrepeat} ${nfreq} c_thermo_press mode vector
fix avgp all ave/time  10 10 ${nfreq} c_thermo_press mode vector
fix avgp all ave/time  10 10 100 c_thermo_press mode vector
thermo		${nthermo}
[...]
Loop time of 77.5795 on 8 procs for 2000 steps with 271 atoms

Performance: 1.114 ns/day, 21.550 hours/ns, 25.780 timesteps/s, 6.986 katom-step/s
98.6% CPU use with 8 MPI tasks x 1 OpenMP threads

MPI task timing breakdown:
Section |  min time  |  avg time  |  max time  |%varavg| %total
---------------------------------------------------------------
Pair    | 55.291     | 60.078     | 64.105     |  37.8 | 77.44
Bond    | 0.00063018 | 0.00080136 | 0.00096406 |   0.0 |  0.00
Neigh   | 4.6913     | 4.9275     | 5.3243     |  10.5 |  6.35
Comm    | 1.7751     | 5.804      | 10.602     | 121.6 |  7.48
Output  | 0.00091638 | 0.0010191  | 0.0015759  |   0.7 |  0.00
Modify  | 6.3218     | 6.7318     | 6.9767     |   9.1 |  8.68
Other   |            | 0.03603    |            |       |  0.05

Nlocal:         33.875 ave          41 max          27 min
Histogram: 1 0 1 1 0 2 2 0 0 1
Nghost:        2779.38 ave        2813 max        2745 min
Histogram: 1 0 2 0 1 1 1 0 0 2
Neighs:        19567.5 ave       23393 max       15813 min
Histogram: 1 1 0 1 0 2 2 0 0 1

Total # of neighbors = 156540
Ave neighs/atom = 577.63838
Ave special neighs/atom = 0
Neighbor list builds = 200
Dangerous builds not checked

# Obtain new stress tensor Negative deformation, convert index from LAMMPS to Voigt
variable pxx1 equal f_avgp[1]
variable pyy1 equal f_avgp[2]
variable pzz1 equal f_avgp[3]
variable pxy1 equal f_avgp[4]
variable pxz1 equal f_avgp[5]
variable pyz1 equal f_avgp[6]

# Compute elastic constant from pressure
# d1 = -[pxx1-pxx0]/[(]v_delta/v_len0] defined in input script
variable C1neg equal ${d1}
variable C1neg equal -33.0480551133149
variable C2neg equal ${d2}
variable C2neg equal -40.6942232495207
variable C3neg equal ${d3}
variable C3neg equal 17.0585630795565
variable C4neg equal ${d4}
variable C4neg equal -16.9615312441859
variable C5neg equal ${d5}
variable C5neg equal -17.5262720333003
variable C6neg equal ${d6}
variable C6neg equal 1.31832008771951

# Reset box and simulation parameters
clear
  using 1 OpenMP thread(s) per MPI task
# box tilt large
read_restart equil.res
Reading restart file ...
  restart file = 2 Aug 2023, LAMMPS = 2 Aug 2023
  restoring atom style full from restart
  triclinic box = (0 0 0) to (14.7487 13.4318 16.6096) with tilt (-6.1972 -1.0047 -1.8606)
  2 by 2 by 2 MPI processor grid
  pair style reaxff stores no restart info
  271 atoms
Finding 1-2 1-3 1-4 neighbors ...
  special bond factors lj:    0        0        0       
  special bond factors coul:  0        0        0       
     0 = max # of 1-2 neighbors
     0 = max # of 1-3 neighbors
     0 = max # of 1-4 neighbors
     1 = max # of special neighbors
  special bonds CPU = 0.000 seconds
  read_restart CPU = 0.003 seconds
print "*****Positive-change ${dir} starts.*****"
*****Positive-change 6 starts.*****
include ff.mod.lmp
# Setup forcefield, system
# undefine any fix ave/* fix before using reset_timestep
if "$(is_defined(fix,avgp))" then "unfix avgp"
reset_timestep 0

# Assign the force field
pair_style reaxff NULL safezone 3.0 mincap 150
# pair_coeff * * CHONSSi.ff O Si
# pair_coeff * * CHOSiNa.ff O Si
# pair_coeff * * SiOCHN_2018.ff O Si
# pair_coeff * * PDMSDecomp.ff Si O
pair_coeff * * CHONSi.ff C H O Si
# pair_coeff * * CHOFe.ff O Si

# charge method for reaxff
fix myqeq all qeq/reaxff 1 0.0 10.0 1.0e-6 reaxff maxiter 400
# Setup neighbor style
neighbor        2 bin
neigh_modify    every 10 delay 0 check no

# Setup output
fix avgp all ave/time  ${nevery} ${nrepeat} ${nfreq} c_thermo_press mode vector
fix avgp all ave/time  10 ${nrepeat} ${nfreq} c_thermo_press mode vector
fix avgp all ave/time  10 10 ${nfreq} c_thermo_press mode vector
fix avgp all ave/time  10 10 100 c_thermo_press mode vector
thermo		${nthermo}
thermo		100
thermo_style custom step temp pe press f_avgp[1] vol
thermo_modify norm no

# NVT
fix 4 all nvt temp ${temp} ${temp} ${tdamp}
fix 4 all nvt temp 300 ${temp} ${tdamp}
fix 4 all nvt temp 300 300 ${tdamp}
fix 4 all nvt temp 300 300 50
Resetting global fix info from restart file:
  fix style: nvt, fix ID: 4

# Positive deformation
variable delta equal ${up}*${len0}
variable delta equal 0.01*${len0}
variable delta equal 0.01*13.4318
variable deltaxy equal ${up}*xy
variable deltaxy equal 0.01*xy
variable deltaxz equal ${up}*xz
variable deltaxz equal 0.01*xz
variable deltayz equal ${up}*yz
variable deltayz equal 0.01*yz
if "${dir} == 1" then    "change_box all x delta 0 ${delta} xy delta ${deltaxy} xz delta ${deltaxz} remap units box"
if "${dir} == 2" then    "change_box all y delta 0 ${delta} yz delta ${deltayz} remap units box"
if "${dir} == 3" then    "change_box all z delta 0 ${delta} remap units box"
if "${dir} == 4" then    "change_box all yz delta ${delta} remap units box"
if "${dir} == 5" then    "change_box all xz delta ${delta} remap units box"
if "${dir} == 6" then    "change_box all xy delta ${delta} remap units box"
change_box all xy delta ${delta} remap units box
change_box all xy delta 0.134318 remap units box
Changing box ...
  triclinic box = (0 0 0) to (14.7487 13.4318 16.6096) with tilt (-6.062882 -1.0047 -1.8606)

# Run positive deformation MD
# save trajectory
dump dump_pos${dir} all custom ${nthermo} dump/pos_deform${dir}.lammpstrj id type x y z
dump dump_pos6 all custom ${nthermo} dump/pos_deform${dir}.lammpstrj id type x y z
dump dump_pos6 all custom 100 dump/pos_deform${dir}.lammpstrj id type x y z
dump dump_pos6 all custom 100 dump/pos_deform6.lammpstrj id type x y z
run ${nrun}
run 2000
All restart file global fix info was re-assigned
Neighbor list info ...
  update: every = 10 steps, delay = 0 steps, check = no
  max neighbors/atom: 2000, page size: 100000
  master list distance cutoff = 12
  ghost atom cutoff = 12
  binsize = 6, bins = 4 3 3
  2 neighbor lists, perpetual/occasional/extra = 2 0 0
  (1) pair reaxff, perpetual
      attributes: half, newton off, ghost
      pair build: half/bin/newtoff/ghost
      stencil: full/ghost/bin/3d
      bin: standard
  (2) fix qeq/reaxff, perpetual, copy from (1)
      attributes: half, newton off
      pair build: copy
      stencil: none
      bin: none
Per MPI rank memory allocation (min/avg/max) = 106.8 | 108.3 | 110.1 Mbytes
   Step          Temp          PotEng         Press        f_avgp[1]        Volume    
         0   273.71107     -31865.734     -11005.375      0              3290.3881    
       100   283.97948     -31855.163     -10082.87       2724.0342      3290.3881    
       200   315.40763     -31863.671     -5794.766       4131.9177      3290.3881    
       300   313.4677      -31872.073      3002.1462      4972.007       3290.3881    
       400   281.45939     -31871.933     -5701.1562      4504.3306      3290.3881    
       500   274.52095     -31886.576     -9746.3317     -1632.723       3290.3881    
       600   276.0621      -31884.745     -2450.1086      2131.924       3290.3881    
       700   305.38002     -31886.989     -9033.0954      5019.8535      3290.3881    
       800   310.68734     -31881.584     -10532.527      1456.1595      3290.3881    
       900   322.87451     -31893.378     -8111.6419      6583.9376      3290.3881    
      1000   280.41742     -31871.674     -3659.381       5708.068       3290.3881    
      1100   297.87164     -31888.536      5971.1535      4507.1341      3290.3881    
      1200   302.41279     -31889.458     -193.29181      4783.7111      3290.3881    
      1300   314.88779     -31890.41      -10086.832      961.64362      3290.3881    
      1400   321.74166     -31882.11      -18979.048      187.6629       3290.3881    
      1500   304.56765     -31864.188      535.68603      7306.889       3290.3881    
      1600   295.68478     -31869.914     -8980.8697      4050.1353      3290.3881    
      1700   295.21686     -31885.962     -14437.333     -966.94418      3290.3881    
      1800   285.25933     -31892.718     -7864.2225      4513.71        3290.3881    
      1900   281.18158     -31892.845      4750.0001      2089.9359      3290.3881    
      2000   313.08368     -31899.877      1330.6061      11241.132      3290.3881    
Loop time of 71.6586 on 8 procs for 2000 steps with 271 atoms

Performance: 1.206 ns/day, 19.905 hours/ns, 27.910 timesteps/s, 7.564 katom-step/s
98.8% CPU use with 8 MPI tasks x 1 OpenMP threads

MPI task timing breakdown:
Section |  min time  |  avg time  |  max time  |%varavg| %total
---------------------------------------------------------------
Pair    | 39.288     | 47.641     | 59.668     | 124.1 | 66.48
Bond    | 0.00056691 | 0.00073363 | 0.00086399 |   0.0 |  0.00
Neigh   | 3.5628     | 4.1871     | 5.1489     |  35.8 |  5.84
Comm    | 0.81513    | 12.848     | 21.197     | 239.0 | 17.93
Output  | 0.0034184  | 0.0048057  | 0.0060301  |   1.5 |  0.01
Modify  | 5.9791     | 6.9457     | 7.5826     |  28.0 |  9.69
Other   |            | 0.03074    |            |       |  0.04

Nlocal:         33.875 ave          37 max          25 min
Histogram: 1 0 0 0 0 1 0 1 1 4
Nghost:        2789.62 ave        2838 max        2751 min
Histogram: 2 1 0 0 3 0 0 0 1 1
Neighs:          19565 ave       21079 max       14649 min
Histogram: 1 0 0 0 0 0 1 1 1 4

Total # of neighbors = 156520
Ave neighs/atom = 577.56458
Ave special neighs/atom = 0
Neighbor list builds = 200
Dangerous builds not checked
undump dump_pos${dir}
undump dump_pos6

# Run equilibration
print "*****Equilibration pos${dir} starts.*****"
*****Equilibration pos6 starts.*****
include ff.mod.lmp
# Setup forcefield, system
# undefine any fix ave/* fix before using reset_timestep
if "$(is_defined(fix,avgp))" then "unfix avgp"
unfix avgp
reset_timestep 0

# Assign the force field
pair_style reaxff NULL safezone 3.0 mincap 150
# pair_coeff * * CHONSSi.ff O Si
# pair_coeff * * CHOSiNa.ff O Si
# pair_coeff * * SiOCHN_2018.ff O Si
# pair_coeff * * PDMSDecomp.ff Si O
pair_coeff * * CHONSi.ff C H O Si
# pair_coeff * * CHOFe.ff O Si

# charge method for reaxff
fix myqeq all qeq/reaxff 1 0.0 10.0 1.0e-6 reaxff maxiter 400
# Setup neighbor style
neighbor        2 bin
neigh_modify    every 10 delay 0 check no

# Setup output
fix avgp all ave/time  ${nevery} ${nrepeat} ${nfreq} c_thermo_press mode vector
fix avgp all ave/time  10 ${nrepeat} ${nfreq} c_thermo_press mode vector
fix avgp all ave/time  10 10 ${nfreq} c_thermo_press mode vector
fix avgp all ave/time  10 10 100 c_thermo_press mode vector
thermo		${nthermo}
thermo		100
thermo_style custom step temp pe press f_avgp[1] vol
WARNING: New thermo_style command, previous thermo_modify settings will be lost (src/output.cpp:903)
thermo_modify norm no

# NVT
fix 4 all nvt temp ${temp} ${temp} ${tdamp}
fix 4 all nvt temp 300 ${temp} ${tdamp}
fix 4 all nvt temp 300 300 ${tdamp}
fix 4 all nvt temp 300 300 50
run ${nequil}
run 2000
Neighbor list info ...
  update: every = 10 steps, delay = 0 steps, check = no
  max neighbors/atom: 2000, page size: 100000
  master list distance cutoff = 12
  ghost atom cutoff = 12
  binsize = 6, bins = 4 3 3
  2 neighbor lists, perpetual/occasional/extra = 2 0 0
  (1) pair reaxff, perpetual
      attributes: half, newton off, ghost
      pair build: half/bin/newtoff/ghost
      stencil: full/ghost/bin/3d
      bin: standard
  (2) fix qeq/reaxff, perpetual, copy from (1)
      attributes: half, newton off
      pair build: copy
      stencil: none
      bin: none
Per MPI rank memory allocation (min/avg/max) = 106.8 | 108.3 | 110.1 Mbytes
   Step          Temp          PotEng         Press        f_avgp[1]        Volume    
         0   313.08368     -31899.877      1330.5967      0              3290.3881    
       100   312.28256     -31909.574     -15397.023      70.340426      3290.3881    
       200   281.02039     -31909.42       874.6355       2305.4075      3290.3881    
       300   281.80998     -31914.515     -9294.2386      4309.8155      3290.3881    
       400   293.72475     -31892.414     -10120.455      279.7429       3290.3881    
       500   307.30847     -31897.034     -4331.3985      4781.6984      3290.3881    
       600   307.63873     -31901.072     -711.61652      194.37147      3290.3881    
       700   289.31637     -31888.246      3501.8061      4951.4343      3290.3881    
       800   303.04122     -31892.473      8545.4575     -1405.3932      3290.3881    
       900   315.61305     -31885.231     -397.80652     -1996.3023      3290.3881    
      1000   326.29764     -31886.432     -2087.3489      560.84784      3290.3881    
      1100   309.0569      -31899.247     -5637.4313     -4903.1845      3290.3881    
      1200   287.48285     -31899.819     -4359.7365     -1475.3654      3290.3881    
      1300   297.8932      -31902.846     -2361.8714     -2311.0672      3290.3881    
      1400   305.58384     -31894.103      9778.5358      7470.3721      3290.3881    
      1500   286.82077     -31856.224     -11441.868     -425.76831      3290.3881    
      1600   336.26973     -31873.398     -16421.614      1889.7247      3290.3881    
      1700   302.8423      -31870.206      761.46992      1599.1731      3290.3881    
      1800   307.97621     -31892.588     -17768.794     -3406.8457      3290.3881    
      1900   320.18222     -31915.674      5700.6377     -140.056        3290.3881    
      2000   301.82264     -31909.451     -6026.4553      1228.2013      3290.3881    
Loop time of 67.7423 on 8 procs for 2000 steps with 271 atoms

Performance: 1.275 ns/day, 18.817 hours/ns, 29.524 timesteps/s, 8.001 katom-step/s
98.9% CPU use with 8 MPI tasks x 1 OpenMP threads

MPI task timing breakdown:
Section |  min time  |  avg time  |  max time  |%varavg| %total
---------------------------------------------------------------
Pair    | 38.085     | 43.93      | 55.433     |  89.3 | 64.85
Bond    | 0.00052937 | 0.00070213 | 0.00082414 |   0.0 |  0.00
Neigh   | 3.5369     | 3.9741     | 5.0934     |  26.9 |  5.87
Comm    | 1.7267     | 13.236     | 19.077     | 162.8 | 19.54
Output  | 0.00087856 | 0.00099026 | 0.0013087  |   0.0 |  0.00
Modify  | 5.4555     | 6.571      | 7.0005     |  20.8 |  9.70
Other   |            | 0.02922    |            |       |  0.04

Nlocal:         33.875 ave          39 max          23 min
Histogram: 1 0 0 0 0 1 2 1 2 1
Nghost:        2757.75 ave        2794 max        2716 min
Histogram: 2 0 0 0 1 1 2 0 0 2
Neighs:        19578.9 ave       22433 max       13439 min
Histogram: 1 0 0 0 0 1 1 2 2 1

Total # of neighbors = 156631
Ave neighs/atom = 577.97417
Ave special neighs/atom = 0
Neighbor list builds = 200
Dangerous builds not checked

# Obtain new stress tensor, convert index from LAMMPS to Voigt
variable pxx1 equal f_avgp[1]
variable pyy1 equal f_avgp[2]
variable pzz1 equal f_avgp[3]
variable pxy1 equal f_avgp[4]
variable pxz1 equal f_avgp[5]
variable pyz1 equal f_avgp[6]

# Compute elastic constant from pressure tensor
# d1 = -[pxx1-pxx0]/[(]v_delta/v_len0] defined in input script
variable C1pos equal ${d1}
variable C1pos equal 56.8301435456659
variable C2pos equal ${d2}
variable C2pos equal 35.2094716382422
variable C3pos equal ${d3}
variable C3pos equal 66.1943845177941
variable C4pos equal ${d4}
variable C4pos equal 20.2553351340111
variable C5pos equal ${d5}
variable C5pos equal 7.74113285562602
variable C6pos equal ${d6}
variable C6pos equal 14.0181001357539

# Combine positive and negative
variable C1${dir} equal 0.5*(${C1neg}+${C1pos})
variable C16 equal 0.5*(${C1neg}+${C1pos})
variable C16 equal 0.5*(-33.0480551133149+${C1pos})
variable C16 equal 0.5*(-33.0480551133149+56.8301435456659)
variable C2${dir} equal 0.5*(${C2neg}+${C2pos})
variable C26 equal 0.5*(${C2neg}+${C2pos})
variable C26 equal 0.5*(-40.6942232495207+${C2pos})
variable C26 equal 0.5*(-40.6942232495207+35.2094716382422)
variable C3${dir} equal 0.5*(${C3neg}+${C3pos})
variable C36 equal 0.5*(${C3neg}+${C3pos})
variable C36 equal 0.5*(17.0585630795565+${C3pos})
variable C36 equal 0.5*(17.0585630795565+66.1943845177941)
variable C4${dir} equal 0.5*(${C4neg}+${C4pos})
variable C46 equal 0.5*(${C4neg}+${C4pos})
variable C46 equal 0.5*(-16.9615312441859+${C4pos})
variable C46 equal 0.5*(-16.9615312441859+20.2553351340111)
variable C5${dir} equal 0.5*(${C5neg}+${C5pos})
variable C56 equal 0.5*(${C5neg}+${C5pos})
variable C56 equal 0.5*(-17.5262720333003+${C5pos})
variable C56 equal 0.5*(-17.5262720333003+7.74113285562602)
variable C6${dir} equal 0.5*(${C6neg}+${C6pos})
variable C66 equal 0.5*(${C6neg}+${C6pos})
variable C66 equal 0.5*(1.31832008771951+${C6pos})
variable C66 equal 0.5*(1.31832008771951+14.0181001357539)

# Delete dir to make sure it is not reused
variable dir delete

# Calc and output
include calc.mod.lmp
variable C11all equal ${C11}
variable C11all equal 4.63764068314825
variable C22all equal ${C22}
variable C22all equal 9.07753369581724
variable C33all equal ${C33}
variable C33all equal 32.2416752588015

variable C44all equal ${C44}
variable C44all equal 2.99069489145848
variable C55all equal ${C55}
variable C55all equal 2.9451346213424
variable C66all equal ${C66}
variable C66all equal 7.6682101117367

variable C12all equal 0.5*(${C12}+${C21})
variable C12all equal 0.5*(11.6450002554666+${C21})
variable C12all equal 0.5*(11.6450002554666+-7.7980833907558)
variable C13all equal 0.5*(${C13}+${C31})
variable C13all equal 0.5*(23.5874137519735+${C31})
variable C13all equal 0.5*(23.5874137519735+0.803037311304902)
variable C23all equal 0.5*(${C23}+${C32})
variable C23all equal 0.5*(-7.76177150684755+${C32})
variable C23all equal 0.5*(-7.76177150684755+-12.3466886024476)

variable C14all equal 0.5*(${C14}+${C41})
variable C14all equal 0.5*(-9.09497447450205+${C41})
variable C14all equal 0.5*(-9.09497447450205+-1.2109384773583)
variable C15all equal 0.5*(${C15}+${C51})
variable C15all equal 0.5*(17.9318573246851+${C51})
variable C15all equal 0.5*(17.9318573246851+-8.20951384233854)
variable C16all equal 0.5*(${C16}+${C61})
variable C16all equal 0.5*(11.8910442161755+${C61})
variable C16all equal 0.5*(11.8910442161755+-6.87836493719557)

variable C24all equal 0.5*(${C24}+${C42})
variable C24all equal 0.5*(12.4826495769891+${C42})
variable C24all equal 0.5*(12.4826495769891+8.1974521472396)
variable C25all equal 0.5*(${C25}+${C52})
variable C25all equal 0.5*(-3.33962610082145+${C52})
variable C25all equal 0.5*(-3.33962610082145+-4.43514222774758)
variable C26all equal 0.5*(${C26}+${C62})
variable C26all equal 0.5*(-2.74237580563925+${C62})
variable C26all equal 0.5*(-2.74237580563925+-1.00718980515433)

variable C34all equal 0.5*(${C34}+${C43})
variable C34all equal 0.5*(20.6316931236437+${C43})
variable C34all equal 0.5*(20.6316931236437+0.478824692866949)
variable C35all equal 0.5*(${C35}+${C53})
variable C35all equal 0.5*(-13.1249486611705+${C53})
variable C35all equal 0.5*(-13.1249486611705+-12.737233358349)
variable C36all equal 0.5*(${C36}+${C63})
variable C36all equal 0.5*(41.6264737986753+${C63})
variable C36all equal 0.5*(41.6264737986753+-2.4754074672366)

variable C45all equal 0.5*(${C45}+${C54})
variable C45all equal 0.5*(-9.34535112878055+${C54})
variable C45all equal 0.5*(-9.34535112878055+-1.87009926520008)
variable C46all equal 0.5*(${C46}+${C64})
variable C46all equal 0.5*(1.6469019449126+${C64})
variable C46all equal 0.5*(1.6469019449126+-0.9311150590882)
variable C56all equal 0.5*(${C56}+${C65})
variable C56all equal 0.5*(-4.89256958883714+${C65})
variable C56all equal 0.5*(-4.89256958883714+8.67164510471497)

# print stiffness tensor to "C.log"
print """
# stiffness tensor (GPa) for ${structure} by change-box method
${C11all} ${C12all} ${C13all} ${C14all} ${C15all} ${C16all}
${C12all} ${C22all} ${C23all} ${C24all} ${C25all} ${C26all}
${C13all} ${C23all} ${C33all} ${C34all} ${C35all} ${C36all}
${C14all} ${C24all} ${C34all} ${C44all} ${C45all} ${C46all}
${C15all} ${C25all} ${C35all} ${C45all} ${C55all} ${C56all}
${C16all} ${C26all} ${C36all} ${C46all} ${C56all} ${C66all}
"""  file C.log screen no

Total wall time: 0:32:14
