ITEM: TIMESTEP
0
ITEM: NUMBER OF ATOMS
243
ITEM: BOX BOUNDS xy xz yz pp pp pp
-7.3456000000000001e+00 1.4691300000000000e+01 -7.3456000000000001e+00
0.0000000000000000e+00 1.2723000000000001e+01 0.0000000000000000e+00
0.0000000000000000e+00 1.5963100000000001e+01 0.0000000000000000e+00
ITEM: ATOMS id type x y z
134 1 3.79307 5.62945 1.22538
139 1 2.84915 6.14883 4.03709
31 2 7.1154 0.0202689 7.01734
6 2 1.47918 2.35454 5.33539
10 2 -0.0397982 4.28614 1.74312
13 2 -0.226776 4.28715 7.03388
93 1 -2.03386 6.11276 4.04481
29 2 3.84138 2.10353 3.50832
140 1 3.86572 5.4476 6.45084
1 2 2.28378 0.111152 1.7336
37 2 4.71626 4.40254 1.76119
40 2 4.7212 4.31541 7.12148
82 1 1.30205 1.24783 1.14951
83 1 0.450221 1.81378 4.21593
84 1 1.7057 1.24249 6.47239
88 1 -0.805621 3.10124 2.39925
89 1 0.947866 3.68999 0.660708
90 1 -0.840433 5.50469 1.12237
91 1 -1.17304 3.24337 7.77253
92 1 0.683064 3.57576 5.9709
135 1 3.85207 3.21437 7.89294
94 1 -0.998675 5.44752 6.26287
118 1 3.24665 0.689869 2.90145
119 1 2.9307 2.67339 4.71555
120 1 6.14964 1.13728 0.99193
123 1 5.35975 2.02117 4.06932
124 1 6.23364 1.17901 6.38083
130 1 3.73735 3.23321 2.31805
132 1 0.870275 4.93765 2.9555
2 2 -0.971043 2.00379 3.51177
28 2 7.11339 0.138599 1.76996
41 2 1.33094 6.20177 8.846
9 2 1.28535 2.29902 10.5993
16 2 -0.113228 4.29919 12.33
32 2 3.80474 1.98873 8.89948
14 2 -3.60765 6.28635 8.75149
35 2 3.7977 2.01186 14.0514
7 2 2.3043 0.0266733 12.3447
43 2 4.7196 4.31198 12.4145
44 2 1.41777 6.28958 14.1171
85 1 0.423599 1.77005 14.7745
86 1 0.359343 1.8024 9.31302
87 1 1.33269 1.24002 11.7668
95 1 -0.872473 3.07583 13.0059
96 1 0.700623 3.6887 11.0735
97 1 -2.06682 5.97449 14.9366
98 1 -2.17584 6.06799 9.42475
99 1 -1.1044 5.4504 11.8429
121 1 3.37457 0.630868 8.23926
122 1 2.71462 2.2906 9.98211
125 1 3.30334 0.58557 13.4423
126 1 5.29299 2.04174 14.6171
127 1 2.84508 2.44179 15.2737
128 1 5.24001 1.87744 9.53915
129 1 6.37677 1.25187 11.7438
137 1 0.671913 4.9351 8.16817
141 1 3.8052 3.09644 12.8823
143 1 0.885619 4.98094 13.4033
144 1 2.81938 6.17145 14.8795
146 1 2.77117 5.96173 9.53323
147 1 3.87161 5.4212 11.6584
8 2 -1.01657 1.90294 14.1568
17 2 -3.44049 6.202 14.178
3 2 1.33886 2.30422 15.9009
5 2 -1.14784 2.01703 8.80078
34 2 7.2301 0.0925119 12.4616
21 2 -3.63304 10.6784 0.0339124
15 2 -1.01732 6.55497 5.14261
19 2 -2.49187 8.56542 1.75997
161 1 1.36464 9.53316 6.38498
22 2 -2.55325 8.48645 7.02775
24 2 -3.47355 10.8004 5.22823
46 2 2.24911 8.63884 1.76037
47 2 -1.03715 10.4938 3.57017
49 2 2.38873 8.43724 7.00953
100 1 -3.48564 7.42181 2.31197
101 1 -1.77145 8.03501 0.412366
102 1 -6.00812 11.6662 2.30429
103 1 -3.54019 9.69505 1.31053
104 1 -4.1373 12.0472 0.698388
105 1 -3.38465 7.27254 7.5125
106 1 -1.53592 7.86851 5.91095
107 1 -5.77274 11.5417 7.57468
108 1 -4.57613 10.5183 4.11155
109 1 -3.33675 9.64002 6.26704
110 1 -3.94196 12.0916 5.91862
133 1 0.44416 6.84609 4.60779
148 1 1.27581 7.49101 2.32503
150 1 -1.61252 9.16953 2.88099
151 1 -0.898418 11.5344 2.32216
152 1 -2.03981 11.0115 4.6431
153 1 1.39901 9.80813 1.14974
155 1 1.46139 7.2792 7.6779
158 1 -1.06086 11.5626 7.73267
160 1 0.424757 10.3241 4.17914
20 2 -5.9679 10.4673 3.32957
11 2 -3.48941 6.36419 3.48466
38 2 1.39914 6.37368 3.43182
4 2 -4.85785 12.7082 7.03774
18 2 -1.19876 6.48842 10.5757
25 2 -2.58852 8.47673 12.4405
27 2 -3.55583 10.7994 10.6603
50 2 -1.17025 10.4492 8.8847
12 2 -1.03557 6.59072 15.9075
53 2 -1.14763 10.4827 14.1866
111 1 -3.39818 7.34713 13.0513
112 1 -1.71646 7.8434 11.2775
113 1 -4.62177 10.1757 14.8834
114 1 -5.91824 11.5765 13.082
115 1 -4.45487 10.2618 9.4199
116 1 -3.44582 9.73001 11.8316
117 1 -4.25115 12.1999 11.0991
138 1 0.278299 6.74299 9.99282
145 1 0.419802 6.86366 15.3117
157 1 -1.87182 9.06553 8.36018
159 1 -2.01305 10.9971 10.1204
163 1 1.56164 7.31479 12.9244
165 1 -1.61869 9.12109 13.539
166 1 0.282247 10.2795 14.88
167 1 -1.07273 11.6753 13.1519
168 1 -2.10768 10.8411 15.3834
169 1 0.333325 10.2182 9.44422
170 1 1.42972 9.66796 11.8265
26 2 -6.03512 10.4988 14.2541
23 2 -5.98069 10.478 8.76788
196 1 8.69591 5.38976 1.09168
204 1 8.75436 5.36499 6.489
203 1 7.7609 6.06229 4.15714
193 1 5.66288 4.90407 2.90069
198 1 10.6765 3.62179 5.90755
56 2 8.70055 2.08712 3.5295
197 1 8.98136 3.08419 7.78139
136 1 5.73027 3.6327 6.10163
60 2 11.1406 2.2454 5.21253
64 2 9.67467 4.30037 1.75998
65 2 6.29863 6.17906 3.59156
67 2 9.74409 4.25975 7.05663
131 1 5.64271 3.5789 0.653458
33 2 6.29852 2.36119 5.35981
172 1 13.0822 0.58076 3.0388
173 1 8.01159 0.799415 2.88417
174 1 7.7367 2.5658 4.70567
176 1 11.2173 1.2478 1.25296
180 1 12.5741 2.49354 4.53073
181 1 10.1916 1.86487 4.05362
182 1 11.2662 1.02903 6.22285
190 1 8.77704 3.06482 2.26755
191 1 10.7099 3.69387 0.683174
192 1 10.5101 5.04869 2.90425
55 2 12.0952 0.0823296 1.90038
57 2 11.2015 2.33043 0.0344504
71 2 6.15191 6.28049 14.163
213 1 8.73625 5.45058 11.8713
212 1 7.63687 6.00516 9.57115
209 1 7.61578 5.88884 14.6486
36 2 6.31482 2.39018 10.5855
59 2 8.73147 1.98483 8.84366
208 1 5.48888 4.99892 13.6074
62 2 8.7512 1.9903 14.2549
63 2 11.0908 2.13959 10.6528
68 2 6.25467 6.18391 8.82243
70 2 9.64973 4.18554 12.3711
30 2 6.27769 2.33267 15.9001
142 1 5.77395 3.73825 11.2885
175 1 12.6919 2.57337 15.295
207 1 10.6258 4.84035 13.4934
178 1 8.02402 0.77784 8.08276
179 1 7.84147 2.40303 10.0806
183 1 13.0872 0.501276 13.5534
184 1 8.20576 0.660715 13.6173
185 1 10.2102 1.84393 14.8186
186 1 7.79612 2.44886 15.3964
187 1 12.5685 2.45674 10.0595
188 1 10.1374 1.6184 9.4554
189 1 11.235 1.10288 11.8973
199 1 10.608 4.90929 8.16254
177 1 13.0467 0.617699 8.08536
205 1 8.80837 3.08265 13.1217
206 1 10.45 3.51983 11.1781
200 1 5.65488 4.86587 8.27795
232 1 5.84738 12.0178 5.99876
227 1 3.83971 11.5116 7.75212
42 2 3.8299 6.51099 5.29446
229 1 7.68583 10.7966 4.61284
51 2 1.39307 10.7915 5.35978
230 1 5.19048 10.3327 4.15234
69 2 8.75989 6.50691 5.35957
73 2 7.2339 8.41563 1.6819
74 2 3.7388 10.5061 3.53875
231 1 6.29809 9.52486 6.45788
76 2 7.31212 8.44161 7.05473
78 2 6.26017 10.622 5.31156
149 1 3.34138 8.03664 0.715085
154 1 0.770856 12.3037 0.650796
156 1 3.318 7.90939 5.82076
162 1 0.761227 12.0724 5.99569
194 1 5.29437 6.64766 4.76072
202 1 10.2539 6.74917 4.69995
214 1 6.32796 7.31073 2.46661
215 1 8.06652 7.73263 0.512663
216 1 8.19566 9.10967 2.73827
217 1 3.12621 9.10326 3.0023
218 1 3.88145 11.5882 2.44167
219 1 2.81424 11.1122 4.74136
221 1 6.28714 9.56635 1.09102
222 1 5.68742 12.0737 0.76573
223 1 6.37717 7.24615 7.59042
224 1 8.24352 7.92271 5.85564
75 2 6.25785 10.7246 0.0448067
58 2 4.74524 12.5801 6.98702
39 2 3.85203 6.67125 0.0428902
48 2 1.25687 10.8774 0.0339623
242 1 6.59578 9.78086 11.7203
243 1 5.58288 11.9803 11.2139
45 2 3.82105 6.56981 10.5408
54 2 1.28959 10.7324 10.6212
72 2 8.67963 6.46965 10.6482
77 2 3.8233 10.42 8.82468
79 2 7.29722 8.48774 12.4018
80 2 3.75262 10.4873 14.285
81 2 6.30996 10.7699 10.5554
164 1 3.38571 7.99475 11.1982
171 1 0.656725 12.1136 11.2441
195 1 10.0948 6.61982 15.2183
201 1 5.22673 6.81358 9.83581
210 1 5.28629 6.81613 15.4108
211 1 9.99731 6.71439 9.79312
220 1 7.65254 10.991 15.3622
225 1 8.15306 9.07939 8.19469
226 1 3.32003 9.10983 8.09925
228 1 2.76975 10.8337 9.97432
233 1 6.31896 7.33454 12.9863
234 1 8.24214 7.80949 11.2944
235 1 8.14021 9.07737 13.5998
236 1 3.26379 9.16208 13.5449
237 1 5.23669 10.3318 14.8235
238 1 3.78582 11.594 13.101
239 1 2.72232 11.0018 15.3634
240 1 7.71766 11.0942 9.87169
241 1 5.34192 10.2867 9.41228
61 2 4.79509 12.6417 12.4491
66 2 8.60121 6.40163 15.8535
52 2 2.42617 8.56078 12.4006
ITEM: TIMESTEP
100
ITEM: NUMBER OF ATOMS
243
ITEM: BOX BOUNDS xy xz yz pp pp pp
-7.3519614999999998e+00 1.4691300000000000e+01 -7.3519614999999998e+00
0.0000000000000000e+00 1.2723000000000001e+01 0.0000000000000000e+00
0.0000000000000000e+00 1.5963100000000001e+01 0.0000000000000000e+00
ITEM: ATOMS id type x y z
134 1 3.87028 5.55083 1.26678
139 1 2.90082 5.99661 4.13614
31 2 7.17595 0.00491146 7.09237
6 2 1.43464 2.37485 5.28041
10 2 -0.0560282 4.27168 1.69246
13 2 -0.23576 4.25704 7.00277
93 1 -1.9681 6.17905 4.03905
29 2 3.88711 2.12992 3.55881
140 1 3.83171 5.47102 6.4824
1 2 2.31456 0.110793 1.74616
37 2 4.77671 4.31762 1.77552
40 2 4.67701 4.26752 7.16172
82 1 1.51496 1.3994 1.14112
83 1 0.493301 1.7933 4.16731
84 1 1.52731 1.16741 6.36318
88 1 -0.928128 3.13878 2.38203
89 1 0.851742 3.72856 0.46974
90 1 -0.947326 5.53693 1.28259
91 1 -1.0565 3.11175 7.69392
92 1 0.733656 3.68467 5.87749
135 1 3.75241 3.16148 7.90927
94 1 -1.1387 5.43655 6.39198
118 1 3.27005 0.760217 2.89414
119 1 2.9044 2.67111 4.72202
120 1 6.10913 1.23277 1.02048
123 1 5.36788 1.9733 4.08048
124 1 6.25405 1.13135 6.47604
130 1 3.80065 3.12242 2.29092
132 1 0.9347 4.82366 2.86879
2 2 -1.01654 2.05711 3.54681
28 2 7.15962 0.108615 1.64239
11 2 -3.48189 6.28254 3.62705
38 2 1.45905 6.2642 3.51587
4 2 2.50319 0.089196 7.07273
41 2 1.22273 6.22983 8.80242
9 2 1.25657 2.23034 10.6213
16 2 -0.00797595 4.29355 12.4427
32 2 3.89922 2.05186 9.07361
17 2 -3.48224 6.15764 14.0422
35 2 3.87487 2.02418 14.0123
7 2 2.21132 0.0392771 12.3838
43 2 4.70062 4.39437 12.4087
3 2 1.41897 2.39596 15.9036
85 1 0.457848 1.77148 14.803
86 1 0.326361 1.74263 9.413
87 1 1.29021 1.18124 11.8568
95 1 -0.972046 3.13431 13.0416
96 1 0.770172 3.6042 11.2176
97 1 -1.98954 6.17021 14.702
98 1 -2.07858 6.1656 9.46729
99 1 -0.922198 5.45281 11.7687
121 1 3.35621 0.701799 8.3316
122 1 2.83279 2.43295 10.2128
125 1 3.42988 0.624692 13.3467
126 1 5.36746 1.91805 14.606
127 1 2.85221 2.42381 15.1818
128 1 5.42297 1.86732 9.62447
129 1 6.39502 1.15853 11.8527
137 1 0.683036 4.90165 8.15591
141 1 3.75718 3.25449 12.9411
143 1 0.791116 5.02706 13.5875
144 1 2.82127 6.11248 14.8892
146 1 2.66034 6.15422 9.50756
147 1 3.87079 5.54137 11.6761
8 2 -0.976335 1.98567 14.106
5 2 -1.13679 1.97182 8.82331
20 2 -5.84137 10.4336 3.31506
15 2 -1.00387 6.61347 5.20957
19 2 -2.58447 8.52065 1.79255
161 1 1.47068 9.77652 6.59283
22 2 -2.58877 8.45639 7.01086
24 2 -3.52944 10.8187 5.21371
46 2 2.30034 8.65993 1.81283
47 2 -1.08422 10.5437 3.45752
12 2 -1.05009 6.53515 0.00907457
100 1 -3.56974 7.4517 2.47704
101 1 -1.6643 7.89267 0.657096
102 1 -5.92587 11.621 2.28609
103 1 -3.51459 9.67699 1.14777
104 1 -4.12447 12.2014 0.588201
105 1 -3.54964 7.2737 7.70064
106 1 -1.47268 7.87675 6.03973
107 1 -5.67152 11.5273 7.66121
108 1 -4.44107 10.388 3.97986
109 1 -3.42309 9.59667 6.27305
110 1 -4.02751 12.1461 5.8798
133 1 0.503895 6.82222 4.7038
148 1 1.55785 7.38941 2.40627
150 1 -1.67139 9.16156 2.92417
151 1 -1.077 11.6283 2.26086
152 1 -2.06521 11.0757 4.54465
153 1 1.45931 9.92472 1.29635
155 1 1.48831 7.33352 7.64982
158 1 -1.08842 11.5757 7.72894
160 1 0.356241 10.3255 4.14532
21 2 -3.61176 10.7797 0.00383529
18 2 -1.14973 6.55598 10.6363
25 2 -2.65307 8.45063 12.3609
27 2 -3.54423 10.7798 10.6705
50 2 -1.17911 10.5025 8.90428
44 2 1.38814 6.38995 14.2766
53 2 -1.14667 10.4001 14.1631
111 1 -3.5241 7.2702 12.9321
112 1 -1.64773 7.84898 11.2927
113 1 -4.52616 10.1642 14.8266
114 1 -5.82624 11.5194 13.056
115 1 -4.48037 10.0568 9.48623
116 1 -3.50457 9.64555 11.7387
117 1 -4.25918 12.0902 11.2257
138 1 0.258351 6.79637 9.91538
145 1 0.400737 6.81093 15.484
157 1 -1.79779 9.14518 8.16666
159 1 -2.09808 10.9201 10.1261
163 1 1.40825 7.38684 12.9887
165 1 -1.76198 9.06393 13.498
166 1 0.368065 10.3276 14.8539
167 1 -1.08994 11.5151 13.0127
168 1 -2.17137 10.9256 15.3273
169 1 0.268938 10.1999 9.48052
170 1 1.50083 9.70184 11.7175
52 2 2.30247 8.54486 12.4074
23 2 -5.89279 10.4189 8.81828
34 2 -0.103954 12.6529 12.4728
26 2 -5.96119 10.461 14.2235
196 1 8.78508 5.46678 1.09835
204 1 8.80614 5.40731 6.58652
203 1 7.74016 5.9206 4.22544
193 1 5.68155 4.84635 2.90774
198 1 10.6072 3.56511 5.87607
56 2 8.6753 2.10586 3.50716
197 1 8.89667 3.07562 7.77092
136 1 5.58347 3.56301 6.06392
60 2 11.1869 2.26771 5.16483
64 2 9.67698 4.31934 1.75572
65 2 6.25079 6.10782 3.6143
67 2 9.78157 4.20232 7.04966
131 1 5.5964 3.74301 0.504727
33 2 6.33187 2.31142 5.39701
172 1 13.2185 0.598719 3.02847
173 1 8.03356 0.827183 2.78706
174 1 7.78532 2.46255 4.79052
176 1 11.597 1.30903 1.22318
180 1 12.6817 2.62367 4.6641
181 1 10.1749 1.69591 4.03109
182 1 11.3173 1.05883 6.22191
190 1 8.73855 3.25892 2.41734
191 1 10.7575 3.6289 0.6862
192 1 10.601 5.0091 2.8179
55 2 12.3157 0.0324469 1.87146
71 2 6.15507 6.29228 14.2164
213 1 8.8035 5.37381 11.8782
212 1 7.56134 6.04502 9.53581
209 1 7.7315 6.08139 14.7153
36 2 6.39207 2.38425 10.7634
59 2 8.75927 1.97166 8.9314
208 1 5.56999 4.92234 13.6163
62 2 8.73206 1.94991 14.3489
63 2 11.1415 2.13026 10.6791
68 2 6.11845 6.28201 8.81144
70 2 9.66416 4.15455 12.4442
30 2 6.2318 2.33781 15.8847
142 1 5.81501 3.78239 11.4231
175 1 12.6817 2.44957 15.2842
207 1 10.773 4.72628 13.4339
178 1 8.05498 0.631916 8.33386
179 1 7.82939 2.543 10.0272
183 1 13.1256 0.612504 13.4413
184 1 8.13777 0.585869 13.6342
185 1 10.1005 1.68429 15.0549
186 1 7.70172 2.55903 15.3808
187 1 12.6304 2.36292 10.0597
188 1 10.1678 1.63191 9.53674
189 1 11.2402 1.0934 11.8097
199 1 10.6807 4.81981 8.2002
177 1 12.8863 0.670396 8.16118
205 1 8.74603 3.10024 13.1461
206 1 10.5575 3.51179 11.2801
200 1 5.51567 4.84632 8.40787
57 2 11.2422 2.31271 15.9334
14 2 11.1273 6.1572 8.90582
232 1 5.87742 12.0206 5.97126
227 1 4.03315 11.5104 7.68143
42 2 3.83362 6.55351 5.35353
229 1 7.82989 10.9889 4.50126
51 2 1.37438 10.7492 5.33297
230 1 5.29589 10.3159 4.10459
69 2 8.73099 6.42619 5.35554
73 2 7.13495 8.4796 1.72601
74 2 3.79862 10.5592 3.53203
231 1 6.64427 9.58052 6.26444
76 2 7.35592 8.4273 7.03701
78 2 6.39004 10.7038 5.21793
149 1 3.13001 8.08157 0.589543
154 1 0.823315 12.3657 0.422871
156 1 3.2476 7.92312 5.84417
162 1 0.757406 12.1017 5.96095
194 1 5.32012 6.68044 4.87143
202 1 10.2196 6.59866 4.79544
214 1 6.34822 7.25205 2.50843
215 1 8.08978 7.89387 0.565496
216 1 8.21668 9.10919 2.70206
217 1 3.36961 9.10096 2.9539
218 1 3.89264 11.746 2.45912
219 1 2.8343 10.8507 4.69728
221 1 6.24589 9.65872 1.15222
222 1 5.81161 12.0595 0.722625
223 1 6.39689 7.20898 7.5248
224 1 8.36863 7.88351 5.88807
48 2 1.38443 10.8983 0.0141585
58 2 4.83012 12.6545 6.95171
39 2 3.86059 6.67136 0.132329
49 2 2.43749 8.54945 7.03526
242 1 6.26396 9.72067 11.7916
243 1 5.68975 12.0617 11.1579
45 2 3.73328 6.6989 10.5528
54 2 1.2916 10.7772 10.553
72 2 8.58272 6.49536 10.702
77 2 3.89222 10.452 8.87904
79 2 7.21057 8.55725 12.4456
80 2 3.84065 10.4367 14.1673
81 2 6.3084 10.7366 10.5696
164 1 3.21002 8.04541 11.2281
171 1 0.723279 12.0836 11.2283
195 1 10.2605 6.65117 15.273
201 1 5.14992 6.8882 9.9239
210 1 5.22721 6.82681 15.3785
211 1 10.0598 6.58727 9.99023
220 1 7.79692 10.9038 15.3974
225 1 8.09129 9.13155 8.20251
226 1 3.31499 9.05616 8.24531
228 1 2.80345 10.9461 9.91424
233 1 6.251 7.3512 13.0241
234 1 8.17059 7.89691 11.3293
235 1 8.05137 9.10936 13.6366
236 1 3.07662 9.11415 13.6533
237 1 5.31948 10.4241 14.7281
238 1 3.89633 11.4966 12.9554
239 1 2.81944 11.1156 15.2521
240 1 7.82865 10.9507 9.95593
241 1 5.29911 10.1183 9.52407
61 2 4.81926 12.6489 12.3737
66 2 8.72819 6.59932 15.9021
75 2 6.35527 10.7726 15.9501
ITEM: TIMESTEP
200
ITEM: NUMBER OF ATOMS
243
ITEM: BOX BOUNDS xy xz yz pp pp pp
0.0000000000000000e+00 2.2024276999999998e+01 7.3329769999999979e+00
0.0000000000000000e+00 1.2723000000000001e+01 0.0000000000000000e+00
0.0000000000000000e+00 1.5963100000000001e+01 0.0000000000000000e+00
ITEM: ATOMS id type x y z
134 1 3.96644 5.63723 1.22502
4 2 2.38425 0.0842077 7.07219
33 2 6.20275 2.26159 5.41296
6 2 1.44609 2.39154 5.34457
28 2 7.15243 0.128544 1.65537
130 1 3.81109 3.14546 2.30889
124 1 6.28424 1.15003 6.53621
29 2 3.73699 2.05601 3.50679
140 1 3.84577 5.47877 6.57331
1 2 2.36311 0.101406 1.694
37 2 4.73197 4.36813 1.75683
40 2 4.75773 4.28997 7.1255
82 1 1.43738 1.29392 1.13025
123 1 5.22901 1.78028 4.18807
84 1 1.49507 1.23337 6.43871
120 1 6.09088 1.14547 1.01834
119 1 2.87047 2.63707 4.7485
118 1 3.18091 0.633482 2.99283
135 1 3.81094 3.18879 7.77972
196 1 8.96401 5.52258 1.11697
204 1 8.83768 5.22204 6.56329
203 1 7.67429 5.91374 4.27829
193 1 5.68218 4.92283 2.95353
190 1 8.70839 3.42396 2.56097
197 1 8.91906 2.99441 7.80413
136 1 5.74678 3.59388 6.10537
64 2 9.73891 4.301 1.76741
65 2 6.25129 6.23415 3.58127
174 1 7.64649 2.44172 4.77911
131 1 5.61496 3.72021 0.533356
31 2 7.24756 0.0710049 7.11097
69 2 8.75111 6.35981 5.40089
147 1 3.93781 5.61301 11.8563
141 1 3.81172 3.2305 12.9448
129 1 6.38301 1.21649 11.8603
32 2 3.75886 2.04208 8.93525
128 1 5.23699 2.04145 9.59074
35 2 3.70903 2.12134 14.0623
179 1 7.72243 2.51997 10.1398
43 2 4.7861 4.43502 12.4977
9 2 1.37727 2.25159 10.7289
127 1 2.7833 2.53975 15.2657
126 1 5.19387 1.90088 14.6175
87 1 1.32156 1.00868 11.8141
125 1 3.1622 0.721912 13.4237
122 1 2.8701 2.39022 10.1993
121 1 3.33509 0.672453 8.16293
71 2 6.19329 6.31569 14.2483
213 1 8.72963 5.38501 11.9118
212 1 7.66978 5.95309 9.63921
200 1 5.67775 4.86039 8.29988
209 1 7.75671 6.08831 14.7172
205 1 8.83161 3.01737 13.1928
36 2 6.3178 2.342 10.7379
208 1 5.60157 4.97357 13.7471
68 2 6.16945 6.23094 8.93863
70 2 9.679 4.16343 12.3968
30 2 6.11735 2.3291 15.8744
186 1 7.66929 2.39273 15.4636
142 1 5.71257 3.68403 11.4037
20 2 8.78749 10.5052 3.43169
75 2 6.30365 10.7377 0.0192579
19 2 12.0936 8.49673 1.78705
158 1 13.6268 11.5788 7.70618
22 2 12.1428 8.47598 6.98375
24 2 11.201 10.801 5.22676
152 1 12.652 11.0429 4.64826
151 1 13.7238 11.6277 2.34894
110 1 10.6805 12.0595 6.00887
100 1 11.224 7.34013 2.39965
109 1 11.2571 9.59547 6.27416
102 1 8.81583 11.6248 2.31327
103 1 11.1985 9.70298 1.20467
104 1 10.631 12.246 0.538042
105 1 11.1904 7.26887 7.60385
108 1 10.2619 10.3744 4.02579
107 1 8.86925 11.6702 7.75528
214 1 6.47986 7.43542 2.54952
229 1 7.86907 10.9587 4.66296
202 1 10.2208 6.55832 4.70462
215 1 8.20513 7.90309 0.564077
73 2 7.39972 8.48576 1.77868
224 1 8.24942 7.77258 5.95146
223 1 6.29911 7.3051 7.71456
231 1 6.50651 9.60169 6.32737
221 1 6.44385 9.61438 1.12628
76 2 7.24905 8.39174 7.01719
78 2 6.37951 10.7689 5.22701
194 1 5.21207 6.69402 4.69976
216 1 8.24237 9.13996 2.88292
26 2 8.77044 10.4098 14.2249
25 2 12.1448 8.47621 12.3995
27 2 11.1505 10.7016 10.561
34 2 14.628 12.6958 12.4233
23 2 8.75983 10.4347 8.78071
168 1 12.7159 11.0655 15.3743
111 1 11.206 7.24125 12.9046
167 1 13.6081 11.5081 12.8875
113 1 10.2468 10.1746 14.7959
114 1 8.98289 11.4611 13.0473
115 1 10.276 10.1881 9.34756
116 1 11.2157 9.64373 11.845
117 1 10.5347 12.1017 11.0505
159 1 12.66 11.0162 10.0431
242 1 6.38306 9.63385 11.7403
7 2 9.67161 12.635 12.2986
66 2 8.75705 6.5752 15.8584
72 2 8.70351 6.44202 10.7497
79 2 7.14395 8.40979 12.4179
240 1 7.7581 10.7742 9.93871
81 2 6.31095 10.7303 10.6113
195 1 10.2295 6.71663 15.251
201 1 5.08528 6.90895 9.92013
210 1 5.27957 6.90419 15.443
235 1 8.02336 9.09449 13.6585
234 1 8.13754 7.85637 11.3308
233 1 6.13789 7.31606 12.9955
211 1 10.1699 6.67612 10.0207
220 1 7.77919 10.9419 15.3363
225 1 8.19636 9.10256 8.08554
21 2 11.1671 10.8073 15.9539
55 2 12.3779 0.0325944 1.85492
192 1 10.7876 4.83943 2.85462
191 1 10.4214 3.51021 0.603069
182 1 11.2511 1.0853 6.34584
198 1 10.5921 3.54799 5.87866
56 2 8.62196 2.20028 3.5463
181 1 10.1723 1.92203 3.97274
180 1 12.6741 2.56327 4.71019
60 2 11.1504 2.25409 5.21239
176 1 11.5314 1.21883 1.1791
173 1 8.10575 0.926641 2.6929
67 2 9.84642 4.09662 7.13604
172 1 13.2979 0.701101 3.01252
139 1 17.5606 6.11045 4.14629
10 2 14.5352 4.29194 1.73444
38 2 16.1702 6.33245 3.48424
11 2 11.2867 6.19658 3.48699
13 2 14.5571 4.22908 7.11153
2 2 13.717 2.08513 3.54955
132 1 15.5216 4.9617 2.78461
93 1 12.7442 5.98983 4.1096
83 1 15.2629 1.96568 4.08181
88 1 13.608 3.13848 2.27261
89 1 15.4265 3.61551 0.557714
90 1 13.6337 5.37956 1.02174
91 1 13.6494 3.03818 7.58918
94 1 13.7147 5.43279 6.48398
92 1 15.4632 3.65624 5.98263
57 2 11.2083 2.26266 0.00515783
14 2 11.1306 6.22838 8.8527
44 2 15.9899 6.3285 14.2247
206 1 10.4752 3.60509 11.1293
177 1 13.1445 0.598313 8.16357
199 1 10.7553 4.86106 8.16358
59 2 8.64677 1.9456 8.96984
189 1 11.3199 1.15438 11.6949
62 2 8.72137 1.90979 14.3251
63 2 11.1529 2.23403 10.5612
188 1 10.2266 1.58306 9.37655
187 1 12.5819 2.40287 9.91534
185 1 10.1193 1.59181 14.9916
184 1 8.10789 0.594699 13.6067
175 1 12.4444 2.53749 15.0234
207 1 10.6141 4.7742 13.4909
178 1 8.05675 0.615464 8.35535
183 1 13.1079 0.6588 13.4284
41 2 15.977 6.22741 8.73379
5 2 13.608 1.97143 8.78925
8 2 13.6039 1.99791 14.0869
99 1 13.7191 5.53575 11.6941
146 1 17.3513 6.07367 9.54782
144 1 17.489 6.051 14.8573
143 1 15.3938 4.89506 13.6539
16 2 14.6243 4.33343 12.3723
137 1 15.399 4.82784 8.30126
17 2 11.1667 6.11539 14.065
85 1 14.9677 1.7892 14.768
86 1 15.022 1.83324 9.58041
95 1 13.7829 3.06909 12.8817
96 1 15.6772 3.70533 11.3853
97 1 12.6715 6.04636 14.6443
98 1 12.6338 6.03433 9.51886
61 2 12.2593 -0.00969128 12.2983
3 2 16.0133 2.30732 15.8752
232 1 20.4258 12.1401 5.80854
227 1 18.6181 11.4559 7.5585
49 2 16.9665 8.56979 7.03174
58 2 19.5059 12.6717 7.04713
51 2 16.0917 10.8399 5.33403
230 1 20.154 10.42 3.96414
42 2 18.44 6.58356 5.404
222 1 20.5046 12.0949 0.646324
74 2 18.579 10.5582 3.51234
219 1 17.5826 10.9784 4.73168
218 1 18.617 11.8269 2.51203
217 1 18.0823 9.20064 2.87974
149 1 18.0235 7.93976 0.630795
154 1 15.4308 12.3583 0.472238
156 1 17.9919 7.99056 5.96672
162 1 15.5548 12.1523 5.97747
15 2 13.65 6.50237 5.32199
161 1 15.8792 9.69152 6.44764
160 1 15.1092 10.4756 4.13016
46 2 17.1416 8.65554 1.74574
155 1 16.0103 7.35217 7.48959
153 1 16.3006 9.85394 1.11318
47 2 13.6567 10.5108 3.48725
106 1 13.0428 7.84842 5.86537
150 1 13.112 9.123 2.85026
148 1 16.3351 7.41708 2.3567
133 1 15.1053 6.63679 4.61929
101 1 12.9081 7.78532 0.616532
12 2 13.537 6.55836 15.895
243 1 20.5327 12.2127 11.1004
45 2 18.4338 6.58609 10.646
54 2 16.0495 10.8018 10.5915
241 1 19.9781 10.256 9.44315
77 2 18.4871 10.4795 8.82119
239 1 17.525 11.0958 15.2789
80 2 18.5533 10.5533 14.1764
238 1 18.7981 11.4727 12.9418
164 1 17.953 8.03516 11.2669
171 1 15.483 12.1187 11.1918
237 1 19.9593 10.302 14.8976
236 1 17.9184 9.21987 13.5271
228 1 17.4773 11.0649 9.92809
226 1 17.8156 9.09169 8.34265
18 2 13.6046 6.64406 10.5718
50 2 13.5327 10.4706 8.82367
157 1 12.9146 9.11717 8.25842
53 2 13.5959 10.5054 14.1519
52 2 16.9871 8.57369 12.4548
170 1 16.0393 9.74202 11.79
169 1 15.0853 10.2863 9.38903
112 1 13.0847 7.98909 11.2051
138 1 15.0375 6.86251 9.8748
166 1 15.0889 10.2594 14.7784
165 1 12.9615 9.11074 13.6975
163 1 16.1255 7.34359 13.0224
145 1 15.0566 6.88065 15.3883
48 2 16.0486 10.9507 15.9007
39 2 18.4869 6.61293 15.9499
ITEM: TIMESTEP
300
ITEM: NUMBER OF ATOMS
243
ITEM: BOX BOUNDS xy xz yz pp pp pp
0.0000000000000000e+00 2.2017915500000001e+01 7.3266155000000008e+00
0.0000000000000000e+00 1.2723000000000001e+01 0.0000000000000000e+00
0.0000000000000000e+00 1.5963100000000001e+01 0.0000000000000000e+00
ITEM: ATOMS id type x y z
134 1 3.98505 5.57877 1.25235
4 2 2.31169 0.0685273 7.00007
33 2 6.19345 2.3105 5.34307
6 2 1.43573 2.3589 5.30875
28 2 7.14722 0.171597 1.76904
130 1 3.96769 3.19671 2.47838
124 1 6.10224 1.16794 6.51031
29 2 3.81461 2.03313 3.55546
140 1 4.11712 5.64978 6.4079
67 2 9.72745 4.22703 7.15316
37 2 4.8768 4.33556 1.81269
40 2 4.76326 4.32122 7.0675
82 1 1.39738 1.06854 1.02035
123 1 5.3055 1.73914 4.17556
84 1 1.37801 1.19911 6.4041
120 1 6.26893 1.28487 1.1619
119 1 2.88162 2.59287 4.70135
118 1 3.31769 0.727027 2.79603
135 1 3.82667 3.15465 7.63674
196 1 8.8438 5.45617 1.1218
204 1 8.78593 5.40242 6.67429
203 1 7.70724 5.92675 4.30714
193 1 5.84876 4.87263 2.95805
190 1 8.81038 3.2284 2.51724
197 1 8.74993 3.06901 7.70984
136 1 5.61506 3.68179 5.88319
64 2 9.71581 4.26964 1.72488
65 2 6.35144 6.23808 3.55201
174 1 7.69122 2.39364 4.73506
131 1 5.62324 3.75126 0.55861
31 2 7.10285 0.0644571 7.04867
202 1 10.2006 6.32051 4.65225
147 1 3.87847 5.48311 11.8832
141 1 3.77396 3.09604 12.9866
129 1 6.20488 1.18609 11.7151
32 2 3.82371 2.01838 8.78539
128 1 5.2452 1.98117 9.40076
35 2 3.67558 2.0686 14.174
179 1 7.66182 2.45645 10.0071
43 2 4.73768 4.26183 12.4875
9 2 1.38059 2.29193 10.7155
127 1 2.66666 2.58465 15.317
126 1 5.13702 1.81965 14.8169
87 1 1.3911 1.11156 11.7184
125 1 3.11953 0.630681 13.5478
122 1 2.84962 2.45085 10.0181
121 1 3.176 0.690027 8.2257
71 2 6.31928 6.25417 14.14
213 1 8.7054 5.3192 11.8089
212 1 7.66828 5.99212 9.53354
200 1 5.65147 4.8998 8.3174
209 1 7.78489 6.15315 14.7623
205 1 8.78186 2.96631 13.0624
36 2 6.21373 2.36366 10.6196
208 1 5.69915 4.84891 13.6165
68 2 6.21718 6.27522 8.90122
70 2 9.62371 4.15101 12.4263
30 2 6.16339 2.32751 15.9455
186 1 7.6091 2.41335 15.3264
142 1 5.70457 3.72663 11.3478
34 2 7.17198 0.0256591 12.298
20 2 8.78043 10.5105 3.54776
69 2 8.77787 6.40392 5.36772
19 2 12.1897 8.42504 1.79935
158 1 13.692 11.5389 7.65184
22 2 12.1387 8.38912 7.00406
24 2 11.2087 10.7661 5.28598
152 1 12.6906 10.8435 4.74217
151 1 13.6104 11.7143 2.42762
110 1 10.6773 12.1835 5.86492
100 1 11.1659 7.40178 2.50254
109 1 11.2229 9.52611 6.35213
102 1 8.90907 11.5258 2.33862
103 1 11.3528 9.67612 1.15511
104 1 10.5479 12.0815 0.514944
105 1 11.1437 7.37612 7.72782
108 1 10.2334 10.3112 4.12089
107 1 8.81356 11.5644 7.6903
214 1 6.59366 7.21543 2.32669
229 1 7.70301 11.0247 4.59636
39 2 3.85927 6.6612 0.0882492
215 1 8.27324 7.982 0.513143
73 2 7.46218 8.48238 1.77412
224 1 8.19196 7.83194 5.79157
223 1 6.53919 7.34876 7.7618
231 1 6.32527 9.62748 6.31256
221 1 6.60987 9.73248 1.17372
76 2 7.33152 8.52961 6.97393
78 2 6.23741 10.7924 5.22608
194 1 5.25558 6.83182 4.58011
216 1 8.24529 9.07771 2.99697
1 2 9.69554 12.7149 1.69707
75 2 6.39534 10.8272 0.0213951
26 2 8.82911 10.432 14.1282
25 2 12.1282 8.58944 12.3561
27 2 11.2381 10.7658 10.5576
21 2 11.1567 10.7331 15.9406
23 2 8.73008 10.4459 8.78434
168 1 12.6246 10.9844 15.3006
111 1 11.3591 7.28714 12.8896
167 1 13.6289 11.643 13.0086
113 1 10.2954 10.1343 14.7944
114 1 8.96802 11.4352 12.8964
115 1 10.2387 10.3462 9.38486
116 1 11.1364 9.61081 11.6623
117 1 10.7068 12.2125 11.2131
159 1 12.6986 10.9218 10.0226
242 1 6.49429 9.66099 11.7393
225 1 8.25979 9.17838 8.07686
66 2 8.80244 6.54708 15.9109
72 2 8.66068 6.42067 10.6933
79 2 7.26263 8.51377 12.4517
240 1 7.70937 10.8191 9.93575
81 2 6.21826 10.7341 10.5346
195 1 10.275 6.67732 15.2549
201 1 5.22903 6.83 10.0226
210 1 5.29001 6.64245 15.3459
235 1 8.27602 9.03852 13.6274
234 1 8.20293 7.79718 11.3818
233 1 6.34458 7.3782 13.0751
211 1 10.0064 6.53604 9.95023
220 1 7.70015 11.1029 15.1069
7 2 9.67654 12.7014 12.3152
45 2 3.81511 6.51191 10.6599
55 2 12.1592 0.043938 1.77296
192 1 10.9223 4.77056 2.69014
191 1 10.3417 3.53219 0.490445
182 1 11.3642 1.21295 6.61404
198 1 10.6735 3.68195 5.97342
56 2 8.71523 2.0956 3.59521
181 1 10.0742 1.74529 4.34193
180 1 12.6086 2.48646 4.66473
60 2 11.1636 2.26896 5.43274
176 1 11.4348 1.37807 1.20904
173 1 8.14159 0.861207 2.74401
92 1 15.5933 3.67694 6.10735
172 1 13.0852 0.680936 2.95366
139 1 17.5957 6.12592 4.11144
10 2 14.5801 4.36375 1.66056
38 2 16.1816 6.34488 3.39084
11 2 11.2732 6.11565 3.44578
13 2 14.6075 4.2925 7.17908
2 2 13.6449 2.12187 3.49716
132 1 15.4647 5.0842 2.84892
93 1 12.7456 6.11423 4.05735
83 1 15.1132 2.01322 4.07979
88 1 13.6848 3.17591 2.2773
89 1 15.5252 3.69747 0.569328
90 1 13.6119 5.48016 1.02295
91 1 13.6888 3.07667 7.71653
94 1 13.7095 5.35769 6.38336
14 2 11.1544 6.2351 8.8437
44 2 16.0815 6.34187 14.1959
206 1 10.5755 3.53928 11.3516
177 1 13.0584 0.627633 8.28141
199 1 10.6905 4.80553 8.30445
59 2 8.62344 1.97348 8.88813
189 1 11.2362 1.13019 11.8309
62 2 8.65537 1.8506 14.2051
63 2 11.159 2.23833 10.6955
188 1 10.0571 1.79458 9.5428
187 1 12.5979 2.4846 9.96193
185 1 10.1664 1.62874 14.8386
184 1 8.05517 0.532856 13.5057
175 1 12.5078 2.71518 15.1462
207 1 10.5761 4.80201 13.5479
178 1 8.14616 0.566061 8.16989
183 1 12.9503 0.641458 13.5922
41 2 16.0742 6.24817 8.82605
5 2 13.622 1.99454 8.82281
8 2 13.4767 2.09081 14.0505
99 1 13.7703 5.48034 11.6616
146 1 17.4556 5.991 9.53978
144 1 17.5104 6.20583 14.8512
143 1 15.4696 4.94224 13.6428
16 2 14.5791 4.30358 12.4014
137 1 15.3961 4.9216 8.33817
17 2 11.1822 6.20382 14.0109
85 1 14.9141 1.88588 14.7627
86 1 15.1388 1.87957 9.44092
95 1 13.6262 3.11157 12.816
96 1 15.5133 3.65334 11.3158
97 1 12.6836 6.0036 14.6507
98 1 12.6433 6.23811 9.54525
3 2 15.9405 2.27582 15.9316
57 2 11.1314 2.30416 15.8489
61 2 12.1842 0.00719604 12.3847
232 1 20.4379 12.1398 5.96206
227 1 18.4922 11.5357 7.6238
49 2 16.8578 8.51683 7.00044
101 1 12.982 7.79026 0.541278
51 2 16.1173 10.8815 5.36792
230 1 20.0104 10.5058 3.9803
42 2 18.5462 6.71042 5.30174
222 1 20.4488 12.1563 0.700893
74 2 18.4735 10.5605 3.49847
219 1 17.6354 10.9302 4.74749
218 1 18.4465 11.6488 2.32731
217 1 17.9875 9.18153 2.86906
149 1 18.0858 8.12999 0.591803
154 1 15.3729 12.1447 0.67157
156 1 17.943 8.03176 5.93498
162 1 15.4785 12.2383 5.90718
15 2 13.713 6.5113 5.27666
161 1 15.949 9.74258 6.53037
160 1 15.2102 10.4207 4.07989
46 2 17.0997 8.69628 1.69619
155 1 16.2219 7.14823 7.49547
153 1 16.1728 9.81257 1.04912
47 2 13.7081 10.5574 3.48739
106 1 13.0705 7.83339 5.87142
150 1 13.1168 9.15883 2.82854
148 1 16.2036 7.49468 2.26908
133 1 15.1217 6.74259 4.54043
58 2 19.4923 12.6871 7.09963
12 2 13.6272 6.51552 15.8353
243 1 20.3949 12.1564 11.1358
48 2 16.1224 10.9365 15.9067
54 2 16.0806 10.8614 10.6246
241 1 19.9561 10.1811 9.31564
77 2 18.4333 10.4506 8.82814
239 1 17.5073 11.2659 15.196
80 2 18.5491 10.422 14.2279
238 1 18.7401 11.4949 13.0124
164 1 17.8774 7.83746 11.3136
171 1 15.453 12.2254 11.1642
237 1 19.9979 10.2846 14.9352
236 1 17.9157 9.07691 13.6905
228 1 17.5066 10.9851 9.97033
226 1 17.6983 9.14292 8.23511
18 2 13.7037 6.60974 10.5993
50 2 13.6599 10.3886 8.86006
157 1 13.0837 9.07449 8.15628
53 2 13.6458 10.4746 14.1399
52 2 17.0099 8.5522 12.4338
170 1 16.2015 9.82655 11.8053
169 1 15.1842 10.32 9.44403
112 1 13.1459 7.9822 11.2712
138 1 15.0139 6.95154 9.78061
166 1 15.1667 10.3597 14.6686
165 1 13.0557 9.13089 13.4825
163 1 15.9887 7.48072 13.0205
145 1 15.1106 6.83587 15.3547
ITEM: TIMESTEP