ITEM: TIMESTEP
0
ITEM: NUMBER OF ATOMS
243
ITEM: BOX BOUNDS xy xz yz pp pp pp
-7.3456000000000001e+00 1.4691300000000000e+01 -7.3456000000000001e+00
0.0000000000000000e+00 1.2723000000000001e+01 0.0000000000000000e+00
0.0000000000000000e+00 1.5963100000000001e+01 0.0000000000000000e+00
ITEM: ATOMS id type q x y z
37 2 1.99374 4.65215 4.18522 1.81378
134 1 -0.989964 3.77277 5.36169 1.11023
140 1 -0.955109 3.66719 5.36091 6.52991
6 2 2.05877 1.24241 2.20262 5.23736
10 2 1.94925 -0.256357 4.32743 1.85841
13 2 1.9873 -0.0875027 4.22921 7.07343
139 1 -0.996968 2.86251 6.05659 4.13784
29 2 1.90044 3.66223 2.01171 3.5756
135 1 -1.02295 3.77052 3.16609 7.79976
40 2 1.97242 4.68152 4.27721 7.13916
38 2 2.0426 1.39765 6.2369 3.49776
91 1 -1.00515 -1.0067 3.14134 7.81621
82 1 -1.01966 1.30248 1.22648 1.21524
83 1 -1.00435 0.303824 1.80662 4.01784
84 1 -1.04124 1.30208 1.04201 6.29877
88 1 -0.9462 -1.22238 3.23994 2.44186
89 1 -0.965175 0.450961 3.60924 0.575051
90 1 -1.04027 -1.1076 5.56201 1.26403
132 1 -1.00499 0.896668 4.90599 2.82164
92 1 -1.02938 0.773274 3.53078 5.95397
93 1 -1.00577 -2.10636 6.22859 4.04887
94 1 -0.989022 -1.00623 5.34078 6.35619
118 1 -0.948036 3.17055 0.59824 3.00868
119 1 -1.00851 2.71896 2.43669 4.78465
120 1 -0.99584 6.36565 1.10432 0.926172
123 1 -0.93479 5.15267 1.83018 4.18114
124 1 -0.977476 6.29172 1.15681 6.4081
130 1 -0.991293 3.64546 3.0921 2.39104
28 2 1.96953 7.26616 0.0913895 1.73522
1 2 1.9028 2.21066 0.0949276 1.80059
3 2 1.99206 1.26797 2.32237 0.0892791
146 1 -0.95849 2.79647 6.13062 9.49581
9 2 1.9297 1.32611 2.16318 10.6921
16 2 1.93256 -0.0875849 4.24959 12.4512
32 2 2.05823 3.63529 2.02959 8.85704
43 2 2.02588 4.72101 4.10803 12.3677
35 2 1.82168 3.61257 2.11739 14.2383
41 2 1.93356 1.33323 6.28976 8.79579
144 1 -1.02795 2.76186 6.0091 14.8434
147 1 -1.04911 3.94866 5.36924 11.8539
85 1 -1.00655 0.387468 1.7512 14.8415
86 1 -0.958549 0.337185 1.7292 9.41074
87 1 -0.996567 1.34817 1.01999 11.7725
95 1 -0.971465 -1.00417 3.12771 13.1797
96 1 -0.986883 0.819249 3.47975 11.3594
97 1 -1.01519 -2.14033 5.97619 14.9311
98 1 -0.957521 -2.21089 5.92854 9.59559
99 1 -0.957605 -0.986831 5.4261 11.8178
121 1 -1.04486 2.91493 0.719265 8.24922
122 1 -0.995816 2.83442 2.46872 10.1161
125 1 -0.934057 3.07494 0.655738 13.7235
126 1 -0.945138 5.1461 1.98328 14.7897
127 1 -0.963297 2.70625 2.6612 15.481
128 1 -1.0481 5.09864 1.70287 9.35326
129 1 -1.03841 6.40331 1.18208 11.734
137 1 -0.986351 0.823561 4.87588 8.22055
141 1 -0.962759 3.65323 3.07626 12.9413
143 1 -0.991752 0.912953 4.88884 13.5041
44 2 2.05536 1.32968 6.26122 14.1616
17 2 2.04862 -3.54524 6.14555 14.1895
36 2 1.99309 6.0613 2.11327 10.5223
8 2 2.02186 -1.04027 1.92047 14.2498
160 1 -0.999188 0.247663 10.249 4.11877
107 1 -0.970373 -6.14073 11.6008 7.6846
19 2 1.96318 -2.64955 8.45637 1.69703
155 1 -0.967681 1.41562 7.43508 7.62346
22 2 1.96219 -2.42193 8.4751 7.08672
24 2 2.0871 -3.58608 10.6882 5.32364
46 2 1.9336 2.24915 8.43374 1.71548
47 2 1.93805 -1.16979 10.5286 3.45061
161 1 -1.02169 1.4035 9.78804 6.41762
100 1 -0.990447 -3.62995 7.29703 2.2972
101 1 -1.04146 -1.67723 7.88055 0.602479
102 1 -0.928024 -5.92692 11.5291 2.47609
103 1 -0.952523 -3.51998 9.66031 1.08495
104 1 -0.930728 -4.24945 12.172 0.593132
105 1 -0.917662 -3.35046 7.19031 7.56921
106 1 -0.967892 -1.52788 7.89649 5.93089
15 2 1.97721 -1.08016 6.50467 5.22409
108 1 -1.04171 -4.5413 10.212 4.18103
109 1 -1.01575 -3.34645 9.57258 6.45663
110 1 -1.06619 -4.26967 11.9008 6.05991
133 1 -1.01956 0.341625 6.72229 4.57536
148 1 -1.0084 1.37166 7.23683 2.31136
150 1 -0.976532 -1.76443 9.1973 2.81526
151 1 -0.961018 -1.10352 11.7267 2.39731
152 1 -0.961719 -2.19371 11.0297 4.64203
153 1 -0.987544 1.38786 9.59213 1.00176
49 2 1.95038 2.25492 8.66674 7.16196
158 1 -1.00636 -0.819993 11.409 7.57037
4 2 2.10083 -5.17292 12.6973 7.06369
12 2 2.13077 -1.12258 6.52133 0.0701561
31 2 1.90826 -0.0817455 12.7221 7.00411
18 2 1.9238 -1.04734 6.46296 10.5858
25 2 1.89817 -2.52871 8.41595 12.3163
27 2 1.88112 -3.46348 10.8557 10.5807
50 2 2.05501 -1.00805 10.4555 8.81402
52 2 1.97106 2.351 8.50011 12.4676
53 2 1.88704 -1.1993 10.4976 14.146
111 1 -0.982067 -3.32681 7.17351 13.0359
112 1 -0.947316 -1.4546 7.82769 11.2828
113 1 -1.00057 -4.61985 10.2394 14.7598
114 1 -0.956664 -5.90998 11.4886 13.1181
115 1 -0.944932 -4.60542 10.4883 9.51504
116 1 -0.912138 -3.4546 9.52842 11.5693
117 1 -0.978123 -4.04702 12.1546 11.3532
138 1 -1.00612 0.389821 6.7508 9.93389
145 1 -1.02899 0.266817 6.66309 15.2959
157 1 -1.0212 -1.5754 9.03579 8.30465
159 1 -1.00245 -2.02416 11.0558 9.84652
163 1 -1.00431 1.36014 7.39946 13.1013
165 1 -0.944463 -1.84865 9.12811 13.5741
166 1 -0.959254 0.315245 10.5001 14.7926
167 1 -0.973131 -1.15792 11.5667 12.9719
168 1 -0.948714 -2.18721 11.0512 15.2988
169 1 -1.00513 0.339711 10.3242 9.603
170 1 -1.02274 1.38695 9.67723 11.9136
34 2 1.99232 -0.147784 12.7221 12.4305
21 2 1.91459 -3.63836 10.8094 15.9065
7 2 1.9523 -5.02968 12.7117 12.4665
193 1 -0.980373 5.49925 4.83213 2.95524
204 1 -0.952508 8.64474 5.49315 6.46576
196 1 -1.0269 8.8007 5.50152 1.06196
33 2 1.97356 6.14906 2.35923 5.35389
203 1 -0.934345 7.6375 5.99353 4.09324
56 2 1.9903 8.62701 2.07432 3.53232
65 2 1.83991 6.1163 6.1924 3.59431
198 1 -0.988558 10.3556 3.68388 5.71793
60 2 1.9062 11.0268 2.30879 5.33468
64 2 2.06258 9.66506 4.30817 1.67401
197 1 -0.980682 8.54751 3.14759 7.6504
67 2 1.97436 9.54267 4.2679 6.97611
131 1 -0.987038 5.71783 3.57475 0.78361
136 1 -1.0304 5.49285 3.67528 5.90177
172 1 -0.931048 12.9354 0.586666 2.9054
173 1 -0.997444 8.1352 0.737705 2.88896
174 1 -0.995834 7.58335 2.51982 4.67582
176 1 -0.955971 11.0384 1.13708 1.17536
180 1 -0.938929 12.5687 2.45229 4.76032
181 1 -0.94589 10.0952 1.7673 4.16312
182 1 -0.959074 11.156 1.33839 6.58757
190 1 -0.985578 8.79256 3.17247 2.37148
191 1 -0.997806 10.5112 3.52102 0.580907
192 1 -0.987318 10.6177 4.83361 2.78938
11 2 1.96944 11.0907 6.2278 3.47771
58 2 1.89625 12.0278 0.043878 7.09226
2 2 1.86233 13.484 1.99536 3.5357
207 1 -1.00449 10.6544 4.744 13.665
213 1 -1.01378 8.76405 5.25706 11.9357
212 1 -0.936107 7.66273 5.96003 9.67118
209 1 -0.932074 7.59992 5.91013 14.8904
61 2 1.99565 11.994 0.0336614 12.5297
59 2 1.94939 8.5156 2.02116 8.77626
208 1 -0.988673 5.60793 4.62506 13.5963
62 2 1.94751 8.71631 1.84174 14.2112
63 2 1.92206 11.0495 2.23163 10.666
30 2 1.97469 6.25703 2.33905 15.8948
70 2 1.95343 9.77795 4.1915 12.455
14 2 1.93145 11.0813 6.12342 8.79492
142 1 -0.99454 5.5543 3.52336 11.193
175 1 -0.993109 12.631 2.17862 15.4702
177 1 -1.00384 13.0574 0.589909 8.11589
178 1 -0.970134 8.0671 0.57762 8.29249
179 1 -0.943232 7.47041 2.53321 9.8557
183 1 -1.01206 13.0138 0.626861 13.5901
184 1 -1.02608 8.10331 0.532804 13.6278
185 1 -0.985553 10.188 1.56624 14.7784
186 1 -0.975595 7.73769 2.52451 15.2869
187 1 -0.992851 12.476 2.16578 9.94221
188 1 -0.957106 9.93264 1.94575 9.51201
189 1 -0.994768 11.0919 1.10174 11.792
199 1 -1.00731 10.5463 4.83244 7.99549
200 1 -0.976169 5.62369 4.89804 8.29222
205 1 -0.948208 8.92265 3.00897 13.0557
206 1 -0.95411 10.8773 3.67566 11.3958
71 2 1.93524 6.15745 6.0609 14.1658
68 2 1.94469 6.22308 6.21919 8.99034
57 2 1.98865 11.1095 2.15407 15.9452
5 2 2.02737 13.5663 1.92519 8.82065
232 1 -0.91342 5.46149 12.1114 5.81322
230 1 -0.920805 5.13951 10.1479 4.29868
223 1 -0.930725 6.4151 7.26918 7.7995
229 1 -0.961556 7.65866 10.9069 4.67783
51 2 2.00598 1.29855 10.8037 5.21157
227 1 -0.997481 3.68657 11.7329 7.85396
48 2 1.98807 1.35059 10.85 0.0155353
73 2 1.84924 7.18225 8.46995 1.73646
74 2 2.00763 3.72949 10.3805 3.56857
231 1 -0.973554 6.27272 9.65268 6.56857
76 2 1.812 7.25094 8.52107 7.12889
78 2 1.86287 6.23228 10.7059 5.37734
149 1 -0.991106 3.19917 7.78011 0.604652
154 1 -0.997298 1.00817 12.2116 0.754857
156 1 -0.903975 3.164 7.82625 6.05088
162 1 -0.976979 0.835422 12.2153 5.81623
194 1 -0.954412 5.24018 6.7725 4.842
202 1 -0.957325 10.078 6.5364 4.67288
214 1 -0.903561 6.28315 7.27782 2.38094
215 1 -0.992868 8.07921 7.99181 0.459961
216 1 -0.957632 8.05928 9.02006 3.00454
217 1 -0.973028 3.18677 9.00197 2.93498
218 1 -0.987217 3.85269 11.4844 2.42527
219 1 -1.03467 2.73919 10.9747 4.60653
221 1 -0.926208 6.27154 9.68911 1.33523
222 1 -0.974219 5.61362 12.0902 0.655736
42 2 1.90796 3.75875 6.47722 5.38487
224 1 -0.942927 8.2469 7.97462 5.94704
69 2 1.90261 8.58515 6.56955 5.28214
75 2 1.85867 6.22267 10.7423 0.0619517
55 2 1.97781 4.65754 12.681 1.76803
20 2 1.98394 8.70408 10.3694 3.57467
66 2 1.99455 8.6302 6.59593 15.9074
243 1 -0.975355 5.62239 12.0775 11.4145
45 2 2.01795 3.80191 6.44081 10.7243
54 2 2.00301 1.38215 10.7204 10.7733
72 2 1.92155 8.72285 6.39303 10.7976
77 2 2.01586 3.7561 10.5574 8.87481
79 2 2.05482 7.27333 8.43523 12.4152
80 2 1.97478 3.76725 10.428 14.3187
81 2 2.00102 6.17493 10.8093 10.6836
164 1 -1.00293 3.22639 7.78555 11.3632
171 1 -0.969985 0.802841 12.117 11.3228
195 1 -1.00137 10.045 6.76419 15.1661
201 1 -1.00324 5.25879 6.72568 10.159
210 1 -1.01548 5.25706 6.56393 15.3506
211 1 -0.977498 10.1103 6.5423 9.96122
220 1 -1.00565 7.69895 10.9418 15.4077
225 1 -0.905155 8.19967 9.06237 8.34714
226 1 -1.02392 3.21056 9.18225 8.32108
228 1 -0.978122 2.79073 11.0237 10.0802
233 1 -0.98828 6.41207 7.257 13.1086
234 1 -1.00004 8.24053 7.81398 11.3631
235 1 -1.03279 8.16345 9.06887 13.489
236 1 -0.992972 3.25581 9.04579 13.6383
237 1 -0.965982 5.18881 10.11 14.9206
238 1 -0.989193 3.80335 11.5311 13.1382
239 1 -1.02662 2.83009 10.9416 15.4429
240 1 -0.989787 7.57744 11.075 9.99759
241 1 -1.01175 5.15333 10.3067 9.53266
242 1 -0.982476 6.39585 9.66897 11.8094
26 2 2.07585 8.62876 10.3982 14.2498
39 2 2.06652 3.775 6.44462 15.9414
23 2 1.89014 8.59027 10.5443 8.91861
ITEM: TIMESTEP
100
ITEM: NUMBER OF ATOMS
243
ITEM: BOX BOUNDS xy xz yz pp pp pp
-7.3456000000000001e+00 1.4691300000000000e+01 -7.3456000000000001e+00
-5.8765199999992745e-03 1.2723000000000001e+01 0.0000000000000000e+00
0.0000000000000000e+00 1.5963100000000001e+01 -5.8765199999992745e-03
ITEM: ATOMS id type q x y z
37 2 2.035 4.70068 4.24035 1.80879
134 1 -1.0078 3.84386 5.40263 1.0998
140 1 -1.01387 3.75585 5.5017 6.61997
6 2 1.97812 1.24911 2.2753 5.27667
10 2 1.95038 -0.232257 4.32548 1.73256
13 2 2.00812 -0.203913 4.23917 7.1972
139 1 -0.955751 2.75917 6.2015 4.10461
29 2 1.82065 3.64216 1.95906 3.55278
135 1 -0.97944 3.79109 3.0936 7.71613
40 2 2.00683 4.63205 4.30312 7.13931
38 2 1.97932 1.32735 6.20459 3.3705
91 1 -1.01875 -1.09341 3.08924 7.83205
82 1 -0.938766 1.24625 1.19324 1.32132
83 1 -0.971834 0.220534 1.98269 4.06075
84 1 -1.0115 1.17189 1.05226 6.2864
88 1 -0.949159 -1.224 3.20313 2.29452
89 1 -0.980729 0.669795 3.70521 0.546714
90 1 -0.954579 -1.07971 5.64228 1.29649
132 1 -1.02515 0.706306 4.84038 2.86544
92 1 -0.971221 0.64135 3.53757 6.04423
93 1 -0.994469 -2.11257 6.1138 4.2132
94 1 -0.995855 -1.02564 5.38089 6.45421
118 1 -0.937122 3.29733 0.492463 2.87827
119 1 -1.02268 2.68927 2.52745 4.70857
120 1 -0.963092 6.26747 1.18196 1.13907
123 1 -0.919781 5.18663 1.90515 4.11645
124 1 -0.976056 6.19379 1.15664 6.44949
130 1 -0.942164 3.7666 3.00065 2.32621
28 2 2.01324 7.1431 0.0146469 1.71494
1 2 1.89993 2.24355 0.0206694 1.76869
3 2 1.93448 1.26482 2.26193 0.0997468
11 2 1.99364 -3.53658 6.28172 3.54364
31 2 1.99737 7.17999 0.00050968 6.96242
4 2 2.006 2.15224 0.0163854 6.95654
146 1 -0.97018 2.77788 6.02561 9.60482
9 2 2.10703 1.24322 2.19583 10.6151
16 2 1.94681 -0.106162 4.19973 12.4879
32 2 1.92578 3.67437 1.93894 8.84374
43 2 1.79369 4.68679 4.24956 12.5286
35 2 2.01732 3.70448 2.04714 14.2785
41 2 2.02229 1.32443 6.18853 8.8786
144 1 -0.929681 2.85961 6.10219 14.6808
147 1 -0.979264 3.91679 5.49827 11.8427
85 1 -0.983306 0.312616 1.58909 15.0086
86 1 -1.06574 0.337155 1.70168 9.51229
87 1 -0.999157 1.35486 1.06038 11.7491
95 1 -0.962987 -1.0334 3.13006 13.2233
96 1 -1.05666 0.709953 3.47318 11.3045
97 1 -0.901438 -2.09695 6.02817 14.763
98 1 -0.963627 -2.07782 5.80616 9.47742
99 1 -0.984873 -1.01548 5.37715 11.8632
121 1 -1.00184 3.00429 0.673791 8.13777
122 1 -1.00742 2.7427 2.36657 10.0801
125 1 -0.983566 3.19389 0.697134 13.5763
126 1 -0.956644 5.22885 1.87163 14.7944
127 1 -1.02653 2.73991 2.33032 15.4597
128 1 -0.936238 5.17312 1.62895 9.36553
129 1 -0.917311 6.11112 1.08638 11.6597
137 1 -1.02811 0.909568 4.81862 8.17924
141 1 -0.978758 3.66012 3.22006 13.2334
143 1 -0.960167 0.806048 4.82211 13.649
44 2 1.89498 1.28607 6.24662 14.2476
8 2 1.9388 -1.08645 1.93986 14.3086
34 2 1.88837 7.12356 0.0165488 12.3445
14 2 1.92448 -3.52057 6.17487 8.88948
17 2 1.86905 -3.56917 6.20555 14.1158
160 1 -0.948694 0.33609 10.2734 4.1913
107 1 -1.02195 -6.04614 11.536 7.54461
19 2 1.92376 -2.5948 8.58019 1.68952
155 1 -0.986197 1.51516 7.36049 7.88086
22 2 1.9504 -2.48391 8.549 7.0829
24 2 2.10459 -3.6464 10.7449 5.29417
46 2 2.07652 2.26015 8.50711 1.63258
47 2 1.90792 -1.14996 10.4428 3.52801
161 1 -1.03454 1.56364 9.7913 6.47063
100 1 -0.953952 -3.46199 7.39708 2.41207
101 1 -0.941174 -1.7868 8.0154 0.456264
102 1 -0.992734 -5.96586 11.5591 2.4095
103 1 -0.98932 -3.46654 9.81932 1.18845
104 1 -0.926164 -4.29729 12.2069 0.489091
105 1 -0.916436 -3.43041 7.4545 7.90229
106 1 -0.978714 -1.54756 7.86249 5.99266
15 2 1.9974 -1.01904 6.4967 5.2808
108 1 -1.06862 -4.64753 10.1914 4.25925
109 1 -1.02677 -3.38804 9.68538 6.41032
110 1 -1.02078 -4.16702 12.1513 5.87694
133 1 -1.00462 0.405324 6.60378 4.63297
148 1 -0.991038 1.32743 7.30956 2.21698
150 1 -0.961957 -1.665 9.06263 2.90483
151 1 -0.981354 -1.00324 11.4802 2.3307
152 1 -0.979611 -2.21553 10.961 4.67067
153 1 -1.08501 1.45789 9.69062 1.01778
49 2 1.94552 2.32256 8.51979 7.04739
158 1 -1.02819 -0.900499 11.5335 7.63773
12 2 1.82263 -1.10018 6.56065 0.018697
18 2 1.95259 -1.13517 6.41544 10.6706
25 2 2.04086 -2.57737 8.50016 12.358
27 2 2.10208 -3.65691 10.7361 10.5641
50 2 1.97905 -1.06084 10.4924 8.87509
52 2 1.94659 2.28196 8.5082 12.4712
53 2 1.95515 -1.12882 10.4898 14.0842
111 1 -0.963959 -3.44454 7.26959 12.9583
112 1 -0.986916 -1.90085 7.7154 11.1605
113 1 -0.99736 -4.485 10.2937 14.7119
114 1 -1.00451 -5.94189 11.5433 13.0544
115 1 -1.0079 -4.74042 10.4227 9.46048
116 1 -0.981051 -3.52181 9.54906 11.6613
117 1 -1.03067 -4.06815 11.9674 11.4728
138 1 -0.999299 0.288077 6.66243 9.99431
145 1 -0.988604 0.431225 6.68245 15.4838
157 1 -0.946614 -1.51556 9.09528 8.18231
159 1 -1.02987 -2.26073 10.8709 9.87099
163 1 -0.952403 1.35109 7.34883 13.0737
165 1 -1.02142 -1.58246 9.12196 13.4043
166 1 -0.974719 0.353683 10.27 14.6652
167 1 -0.944772 -1.18599 11.589 12.9247
168 1 -0.979449 -2.15458 11.0025 15.2072
169 1 -0.976762 0.23513 10.129 9.65335
170 1 -0.970072 1.36952 9.76136 11.9937
7 2 2.05677 -5.03418 12.6853 12.4638
21 2 1.91807 -3.57341 10.8139 15.8887
26 2 1.95051 -6.00104 10.46 14.2202
193 1 -1.07596 5.41766 4.81723 3.0252
204 1 -1.06351 8.73373 5.42438 6.42284
196 1 -1.04499 8.96501 5.52904 1.2619
33 2 1.9862 6.15999 2.30735 5.3326
203 1 -0.97706 7.63865 6.03202 4.16655
56 2 1.99689 8.59833 2.03329 3.59939
65 2 1.97428 6.14327 6.13117 3.56643
198 1 -1.00858 10.6159 3.7586 5.99266
60 2 1.96795 11.0185 2.34433 5.41303
64 2 2.02222 9.74241 4.28028 1.78384
197 1 -0.994291 8.69962 3.01906 7.55894
67 2 2.01145 9.58545 4.28094 7.09382
131 1 -1.01149 5.65953 3.68144 0.693776
136 1 -0.984443 5.67432 3.58514 6.16282
172 1 -0.942735 13.004 0.670335 2.94101
173 1 -0.997638 7.85863 0.790818 2.91599
174 1 -1.00123 7.56742 2.56982 4.68906
176 1 -0.980453 11.1182 1.21214 1.31752
180 1 -0.962492 12.441 2.52408 4.65217
181 1 -0.990796 9.9785 1.7766 4.32884
182 1 -0.983708 11.2909 1.17368 6.50541
190 1 -1.0072 8.86623 3.17304 2.45191
191 1 -0.980313 10.6667 3.62169 0.681559
192 1 -0.959867 10.7762 4.88674 2.91399
2 2 1.97899 13.4296 2.10891 3.50526
57 2 1.94549 11.1713 2.25063 0.0957323
55 2 1.92821 12.0953 0.00320693 1.80149
58 2 1.94034 12.0834 0.00163325 7.13552
30 2 1.89581 6.23569 2.36249 0.0103021
178 1 -0.867447 8.30121 0.615341 7.97163
207 1 -0.9444 10.551 4.74803 13.7161
213 1 -0.975617 9.02977 5.3872 11.749
212 1 -0.994401 7.61986 5.92913 9.55343
209 1 -0.903226 7.85987 5.94064 14.7687
36 2 1.87032 6.10906 2.22099 10.5519
59 2 1.84851 8.69536 2.06503 8.81622
208 1 -0.88586 5.98698 4.69679 13.463
62 2 1.94478 8.62398 1.94884 14.2343
63 2 1.97791 11.1251 2.15816 10.6985
68 2 2.05596 6.18301 6.23713 8.92669
70 2 1.86826 9.70631 4.13409 12.5041
5 2 2.01831 13.5396 1.92154 8.91543
142 1 -0.898651 5.48901 3.54668 11.2349
175 1 -0.9625 12.6437 2.47219 15.4925
177 1 -0.991484 13.1177 0.542873 8.18393
71 2 1.82755 6.3663 6.11636 14.1527
179 1 -0.962668 7.60432 2.34262 9.97925
183 1 -1.00942 12.8709 0.747694 13.5465
184 1 -0.975047 7.89134 0.678832 13.6173
185 1 -0.95835 10.0968 1.83541 14.8945
186 1 -0.95632 7.71919 2.62176 15.388
187 1 -1.05863 12.5591 2.24815 10.0859
188 1 -0.968023 10.1528 1.89743 9.42048
189 1 -0.990146 11.0451 0.948254 11.7339
199 1 -1.04149 10.4227 4.96909 8.23335
200 1 -1.00301 5.54894 4.92673 8.30912
205 1 -0.962887 8.78673 2.86469 12.9688
206 1 -0.942357 10.6766 3.55018 11.3126
232 1 -0.885002 5.58989 12.1065 5.84661
230 1 -0.949853 5.16795 10.1093 4.19975
223 1 -1.02779 6.34265 7.35791 7.81752
229 1 -0.991442 7.62445 10.738 4.63453
51 2 2.02481 1.38779 10.8124 5.2989
227 1 -0.956226 3.77744 11.5295 7.70483
75 2 1.94917 6.27928 10.7711 0.0876561
73 2 1.9477 7.17482 8.37477 1.81914
74 2 2.0439 3.73838 10.4108 3.53292
231 1 -0.992558 6.16563 9.57941 6.54797
76 2 2.07195 7.1525 8.49308 7.10257
78 2 1.88142 6.15134 10.6482 5.33982
149 1 -1.02924 3.29875 7.87087 0.659432
154 1 -0.999518 0.690626 12.1135 0.56834
156 1 -0.935944 3.27926 7.98188 5.87649
162 1 -1.00362 0.690808 12.1978 5.78881
194 1 -0.937074 5.25891 6.67091 4.77631
202 1 -0.963071 10.0732 6.82647 4.63538
214 1 -0.999899 6.24257 7.26594 2.45595
215 1 -1.00751 7.86344 7.76816 0.510814
216 1 -1.00879 8.20704 9.0835 2.77929
217 1 -0.997087 3.02882 9.11652 2.87794
218 1 -1.02456 4.0217 11.4858 2.39083
219 1 -1.04147 2.77636 11.0162 4.59362
221 1 -0.923518 6.28319 9.6909 1.26537
222 1 -0.942008 5.76008 12.2181 0.640141
42 2 1.85257 3.74035 6.51867 5.36643
224 1 -0.993247 7.97975 7.87707 5.91083
69 2 1.9865 8.64353 6.49204 5.33514
66 2 1.88067 8.7511 6.56039 0.0768057
20 2 2.08702 8.66955 10.4111 3.51347
48 2 1.97633 1.3283 10.7422 15.8807
243 1 -0.944268 5.60661 11.9516 11.2759
45 2 2.06928 3.81043 6.55116 10.6932
54 2 1.88001 1.31503 10.7162 10.7419
72 2 1.88332 8.69775 6.45428 10.6407
77 2 1.96285 3.72806 10.4307 8.8926
79 2 1.85389 7.24588 8.36709 12.4131
80 2 1.91791 3.81217 10.3828 14.2878
81 2 1.86436 6.18242 10.595 10.647
164 1 -0.9874 3.10742 7.89199 11.2644
171 1 -0.95528 0.762868 12.177 11.2243
195 1 -0.911552 10.1998 6.85543 15.3341
201 1 -1.03534 5.20749 6.79425 10.0279
210 1 -0.954072 5.28712 6.5051 15.2782
211 1 -0.868145 10.1558 6.79343 10.0266
220 1 -0.964677 7.73775 10.9309 15.4534
225 1 -1.00911 8.07498 9.14321 8.21803
226 1 -0.947059 3.17114 9.06628 8.27574
228 1 -0.973481 2.78364 10.8615 10.1163
233 1 -0.953111 6.358 7.15711 12.9162
234 1 -0.916732 8.21652 7.92081 11.2101
235 1 -0.971102 7.98624 9.1584 13.6167
236 1 -0.96529 3.20994 8.98603 13.6879
237 1 -0.98689 5.3064 10.314 14.8892
238 1 -0.964245 3.9086 11.4809 13.1068
239 1 -1.00485 2.81635 10.9972 15.3336
240 1 -0.972546 7.63078 10.9632 10.0598
241 1 -0.976022 5.19314 10.2712 9.42681
242 1 -0.889524 6.15213 9.33521 11.7319
61 2 1.97462 4.71043 12.6711 12.4364
39 2 1.94006 3.81104 6.50201 15.9315
23 2 2.0064 8.51482 10.5627 8.79608
ITEM: TIMESTEP
200
ITEM: NUMBER OF ATOMS
243
ITEM: BOX BOUNDS xy xz yz pp pp pp
-7.3456000000000001e+00 1.4691300000000000e+01 -7.3456000000000001e+00
-1.1753040000000325e-02 1.2723000000000001e+01 0.0000000000000000e+00
0.0000000000000000e+00 1.5963100000000001e+01 -1.1753040000000325e-02
ITEM: ATOMS id type q x y z
37 2 2.0633 4.70566 4.32593 1.74632
134 1 -1.06476 3.8914 5.50298 1.15564
140 1 -0.959666 3.65628 5.35613 6.39699
6 2 1.9713 1.31951 2.43786 5.22474
10 2 1.96575 -0.160078 4.3446 1.65576
13 2 1.8922 -0.205282 4.23398 7.19202
139 1 -0.95778 2.77055 5.90956 4.11586
29 2 2.01376 3.74127 2.03675 3.52634
135 1 -0.947112 3.68502 3.12222 7.67531
40 2 1.99363 4.60217 4.29566 7.09367
38 2 1.93296 1.30161 6.18338 3.58233
91 1 -0.962393 -1.1594 3.07922 7.84132
82 1 -0.961709 1.35451 1.20367 1.26099
83 1 -0.994853 0.280659 2.00326 4.0511
84 1 -0.950621 1.37051 1.24072 6.31675
88 1 -0.997885 -1.08879 3.18695 2.30326
89 1 -0.969089 0.703705 3.60959 0.510284
90 1 -0.985857 -1.16146 5.43278 1.0646
132 1 -1.01139 0.650729 4.91725 2.87678
92 1 -0.98173 0.709399 3.70776 5.96443
93 1 -0.928057 -2.07996 6.02895 4.32636
94 1 -0.96667 -0.939613 5.56273 6.68764
118 1 -0.954279 3.11893 0.686626 2.96373
119 1 -0.998804 2.78185 2.62257 4.63466
120 1 -1.00452 6.17369 1.17403 1.14844
123 1 -0.976926 5.16035 1.75588 4.23374
124 1 -0.958186 6.28471 1.23508 6.48549
130 1 -1.00638 3.84925 3.11449 2.37828
2 2 2.04604 -1.15699 2.11129 3.42377
28 2 1.90172 7.14767 0.0471081 1.72716
3 2 1.9724 1.2973 2.17379 0.00922529
146 1 -0.949194 2.81046 5.97464 9.53245
9 2 1.89724 1.35509 2.29779 10.7068
16 2 2.00552 -0.180691 4.21215 12.4392
32 2 1.84989 3.73815 1.94535 8.79522
43 2 1.93411 4.73334 4.29651 12.4726
35 2 1.97508 3.81988 2.04144 14.2102
41 2 1.84241 1.35555 6.11567 8.88008
144 1 -0.950561 2.83699 6.06163 14.8664
147 1 -0.967274 4.0251 5.58983 11.8987
85 1 -0.961408 0.241703 1.73438 14.8416
86 1 -0.956499 0.42023 1.76923 9.46086
87 1 -0.947058 1.3069 1.20704 11.9011
95 1 -0.935321 -1.06281 3.02975 13.1171
96 1 -1.01048 0.697564 3.62595 11.3266
97 1 -0.938224 -2.05237 6.07172 14.8114
98 1 -0.934139 -2.11267 5.90968 9.53684
99 1 -0.981571 -1.19072 5.35837 11.9093
121 1 -0.886947 3.1793 0.569708 8.11654
122 1 -0.936973 2.81229 2.45015 10.0593
125 1 -0.944372 3.33384 0.730337 13.3884
126 1 -1.00146 5.34497 1.86404 14.7433
127 1 -1.01794 2.72666 2.31058 15.3365
128 1 -0.955519 5.23025 1.73968 9.30528
129 1 -0.964407 6.23204 1.19347 11.7652
137 1 -0.905574 0.647675 4.69389 8.47189
141 1 -0.987063 3.79762 3.23608 13.1913
143 1 -0.951318 0.80489 4.79497 13.548
44 2 1.91574 1.35827 6.18522 14.2172
5 2 2.0006 -1.08075 1.92569 8.94766
34 2 1.98716 7.13431 0.0561452 12.4685
14 2 1.8003 -3.53095 6.27721 8.90566
17 2 1.79977 -3.58779 6.21997 14.2876
7 2 1.89626 2.24494 0.0204995 12.3902
160 1 -0.94291 0.482795 10.1441 4.10987
107 1 -0.948003 -6.07284 11.5726 7.77529
19 2 1.98435 -2.60123 8.58764 1.78339
155 1 -1.00928 1.39264 7.15633 7.62164
22 2 1.83092 -2.64345 8.56132 7.10064
24 2 1.8769 -3.59003 10.7322 5.22633
46 2 2.01896 2.32429 8.47074 1.6771
47 2 1.92484 -1.02069 10.4113 3.54339
161 1 -0.932376 1.42267 9.62915 6.51973
100 1 -0.990368 -3.46038 7.41615 2.36964
101 1 -0.96897 -1.6309 7.9593 0.606328
102 1 -0.944287 -5.913 11.4751 2.42785
103 1 -1.00112 -3.48596 9.74964 1.15697
104 1 -0.920477 -4.10684 12.1185 0.516672
105 1 -0.934465 -3.42109 7.23215 7.59511
106 1 -0.913281 -1.78128 8.02723 5.80899
15 2 1.89612 -1.11758 6.58577 5.47291
108 1 -0.948829 -4.47633 10.0467 4.07949
109 1 -0.974842 -3.44853 9.80851 6.49214
110 1 -0.943201 -4.28909 12.091 5.8051
133 1 -0.940561 0.302724 6.77118 4.7222
148 1 -0.96679 1.53033 7.27898 2.38657
150 1 -0.978529 -1.57496 9.06684 2.88997
151 1 -0.947347 -1.00382 11.5206 2.38711
152 1 -0.950677 -2.06931 10.9404 4.59834
153 1 -1.02397 1.40298 9.55758 0.988652
49 2 1.97662 2.23573 8.34701 7.05056
158 1 -0.9547 -0.993983 11.5782 7.81645
11 2 1.86632 -3.48044 6.40005 3.58726
1 2 1.82827 -5.07801 12.6798 1.79349
4 2 1.86173 -5.20079 12.7029 6.96887
31 2 1.84299 -0.157979 12.7075 7.02656
12 2 1.97299 -1.10954 6.59372 15.941
25 2 1.97684 -2.74378 8.35301 12.291
27 2 2.01627 -3.72194 10.6974 10.6173
50 2 1.87309 -1.15434 10.443 8.92621
52 2 1.89749 2.17371 8.54995 12.4727
53 2 1.96727 -1.16722 10.3253 14.1016
111 1 -0.967796 -3.63146 7.23808 12.9622
112 1 -0.994372 -1.75362 7.81571 11.1789
113 1 -1.00757 -4.51499 10.085 14.8135
114 1 -0.977016 -5.9336 11.62 13.1674
115 1 -1.02115 -4.5463 10.178 9.37969
116 1 -0.994812 -3.60917 9.61594 11.7796
117 1 -0.996226 -4.3537 12.0744 11.1206
138 1 -0.948105 0.310425 6.50017 10.0901
145 1 -1.00504 0.326808 6.77789 15.2446
157 1 -0.929347 -1.62155 9.01896 8.2561
159 1 -0.964027 -2.25681 10.8494 10.0813
163 1 -0.969282 1.41118 7.28343 13.0157
165 1 -0.974446 -1.77042 8.99963 13.4044
166 1 -0.968801 0.307852 10.2844 14.7505
167 1 -0.980229 -0.949788 11.4645 12.9317
168 1 -1.03101 -2.11782 10.8477 15.2255
169 1 -0.939557 0.312824 10.2797 9.57502
170 1 -0.999918 1.3678 9.8022 11.9438
21 2 1.98503 -3.5572 10.7059 15.8732
18 2 1.93549 -1.13599 6.40938 10.7078
193 1 -1.02884 5.71222 4.84161 2.86133
204 1 -1.02572 8.93551 5.45238 6.41996
196 1 -0.956956 8.80286 5.44852 1.29558
33 2 1.98491 6.10045 2.35213 5.38794
203 1 -0.96673 7.6872 6.00604 4.13756
56 2 2.00292 8.59012 1.94873 3.60291
65 2 1.98603 6.22642 6.1667 3.4916
198 1 -1.0414 10.6921 3.6279 6.15539
60 2 2.06208 11.1039 2.34427 5.36271
64 2 1.89795 9.68997 4.32117 1.9366
197 1 -1.05057 8.79962 3.1807 7.82203
67 2 2.07899 9.65755 4.26805 7.16565
131 1 -1.03204 5.6177 3.5958 0.673395
136 1 -1.04333 5.50453 3.71017 5.96928
172 1 -1.03265 12.9278 0.72874 2.98545
173 1 -0.98695 8.16714 0.634118 2.82999
174 1 -0.99224 7.54768 2.45287 4.68948
176 1 -0.966188 11.2591 1.14973 1.14436
180 1 -0.986478 12.4816 2.53494 4.61261
181 1 -1.02056 9.97579 1.84529 4.35403
182 1 -0.981688 11.2725 1.12988 6.4189
190 1 -0.947833 8.74626 3.08954 2.45551
191 1 -0.981693 10.5647 3.74068 0.75622
192 1 -0.924607 10.5263 5.00437 3.21321
30 2 2.04903 6.24173 2.30099 0.0353852
57 2 1.92491 10.942 2.35615 0.0772229
55 2 2.00617 12.1558 0.0165689 1.78278
207 1 -0.962966 10.5482 4.79726 13.7156
213 1 -1.01158 8.80258 5.42767 11.7689
212 1 -0.954081 7.61029 6.10329 9.51243
209 1 -0.999138 7.78844 5.79692 14.9175
36 2 1.91671 6.16238 2.22428 10.5331
59 2 1.98631 8.72922 1.97546 8.89367
208 1 -0.979474 5.75992 4.72225 13.633
62 2 2.03305 8.56854 2.1648 14.1808
63 2 2.00543 11.1811 2.18725 10.696
68 2 1.95392 6.10592 6.24912 8.9326
70 2 1.99437 9.68285 4.3345 12.5035
8 2 1.96976 13.4434 1.85443 14.2196
142 1 -0.910654 5.5187 3.57889 11.1922
175 1 -0.922684 12.3921 2.44191 15.2734
177 1 -0.953511 12.9938 0.592639 8.31809
71 2 1.96592 6.38148 6.05316 14.219
179 1 -0.981657 7.6335 2.40476 9.96063
183 1 -1.00271 12.9003 0.527762 13.5689
184 1 -1.00341 8.04024 0.817836 13.4912
185 1 -0.976481 9.96318 1.86166 14.869
186 1 -1.02495 7.69008 2.52093 15.476
187 1 -1.03719 12.6641 2.22637 10.1599
188 1 -1.00896 10.1468 1.78893 9.52873
189 1 -0.976528 11.0802 0.997987 11.726
199 1 -0.944586 10.4999 4.89588 8.40501
200 1 -0.982397 5.40719 4.9149 8.36121
205 1 -0.983951 8.59913 3.29525 13.1175
206 1 -0.98046 10.5952 3.48727 11.4992
178 1 -0.90805 8.17652 0.593106 8.19103
232 1 -0.887901 5.66404 11.9938 5.9148
230 1 -0.920501 5.11762 10.1111 4.0342
223 1 -1.00987 6.187 7.19241 7.68364
229 1 -0.908565 7.6675 10.7972 4.64512
51 2 1.85864 1.31755 10.7786 5.32293
227 1 -0.950248 3.81915 11.5429 7.70859
58 2 1.90689 4.73947 12.6875 7.09558
73 2 1.90127 7.2138 8.4281 1.69442
74 2 1.93202 3.66149 10.521 3.46227
231 1 -0.97194 6.2234 9.60589 6.50264
76 2 1.92863 7.03668 8.38946 7.04977
78 2 1.81085 6.1187 10.5765 5.24524
149 1 -0.996032 3.3653 7.99531 0.562815
154 1 -0.962544 0.68273 12.0815 0.541927
156 1 -0.965844 3.14927 7.90813 5.84694
162 1 -0.971885 0.727693 12.1557 5.76248
194 1 -0.941441 5.27668 6.59361 4.7408
202 1 -0.892901 10.1446 6.95374 4.73842
214 1 -0.988274 6.27112 7.24852 2.33676
215 1 -0.958061 8.21732 7.94634 0.53716
216 1 -0.993838 8.11566 8.99248 2.81777
217 1 -0.974688 3.05109 9.15511 2.89284
218 1 -0.996317 3.84632 11.5852 2.28232
219 1 -0.932583 2.80323 11.0366 4.69485
221 1 -0.943524 6.24054 9.63863 1.14849
222 1 -0.979214 5.76408 12.1373 0.652813
42 2 1.84333 3.72715 6.4989 5.2663
224 1 -0.960969 7.92663 7.88199 5.78043
69 2 1.93047 8.67881 6.54882 5.27472
66 2 1.88167 8.69277 6.47546 0.0792797
20 2 1.90572 8.70001 10.2782 3.51855
39 2 1.97198 3.92417 6.59679 0.00228702
48 2 2.01231 1.31528 10.7357 15.9255
243 1 -0.957711 5.70981 12.078 11.235
45 2 1.90071 3.74817 6.64746 10.6975
54 2 1.93662 1.31981 10.8142 10.7346
72 2 1.90455 8.69841 6.55239 10.6566
77 2 1.87938 3.74846 10.3887 8.84411
79 2 1.9964 7.12565 8.42076 12.4141
80 2 1.98217 3.77014 10.4568 14.2698
81 2 2.02927 6.2266 10.6816 10.5858
164 1 -0.956424 3.09287 7.98984 11.2632
171 1 -0.926671 0.805108 12.248 11.3094
195 1 -0.912458 10.2362 6.63976 15.5855
201 1 -0.966202 5.21187 6.87918 10.0904
210 1 -1.00435 5.34616 6.69393 15.3013
211 1 -0.925649 10.1817 6.90225 10.1164
220 1 -1.01022 7.76407 10.8552 15.4199
225 1 -0.98412 8.06062 8.99711 8.17818
226 1 -0.938081 3.2267 8.98433 8.12357
228 1 -0.963581 2.75118 10.8284 10.0091
233 1 -1.02009 6.45737 7.17314 13.0611
234 1 -0.960527 8.12029 7.91264 11.2542
235 1 -1.00054 8.05893 9.14055 13.5759
236 1 -0.923083 3.23726 9.07721 13.6853
237 1 -0.998307 5.26922 10.2968 14.8154
238 1 -0.974446 3.82549 11.4225 13.0059
239 1 -1.01201 2.79261 10.9992 15.3809
240 1 -0.994811 7.66599 10.7757 9.93847
241 1 -0.986115 5.24576 10.1874 9.51302
242 1 -0.999103 6.29046 9.59642 11.7649
61 2 1.94265 4.68595 12.6239 12.3765
26 2 1.99948 8.68795 10.386 14.2243
23 2 1.99536 8.67195 10.3275 8.77562
75 2 1.96072 6.26999 10.7254 15.9567
ITEM: TIMESTEP
300
ITEM: NUMBER OF ATOMS
243
ITEM: BOX BOUNDS xy xz yz pp pp pp
-7.3456000000000001e+00 1.4691300000000000e+01 -7.3456000000000001e+00
-1.7629559999999600e-02 1.2723000000000001e+01 0.0000000000000000e+00
0.0000000000000000e+00 1.5963100000000001e+01 -1.7629559999999600e-02
ITEM: ATOMS id type q x y z
37 2 1.97475 4.79758 4.25194 1.74687
134 1 -1.00076 3.94922 5.45566 1.24906
140 1 -1.07433 3.90847 5.50611 6.5453
6 2 2.0234 1.26483 2.31178 5.34584
10 2 1.91112 -0.166361 4.18359 1.71403
13 2 1.91363 -0.166097 4.37719 7.1273
139 1 -0.921633 2.67091 5.90326 4.18198
29 2 2.0142 3.66847 2.10504 3.59292
135 1 -0.967804 3.8107 3.09228 7.76846
40 2 1.99748 4.72925 4.28149 7.1119
38 2 1.89703 1.21219 6.24143 3.53459
91 1 -0.926187 -1.00917 3.10475 7.68632