ITEM: TIMESTEP
0
ITEM: NUMBER OF ATOMS
243
ITEM: BOX BOUNDS xy xz yz pp pp pp
-7.3456000000000001e+00 1.4691300000000000e+01 -7.3456000000000001e+00
0.0000000000000000e+00 1.2723000000000001e+01 0.0000000000000000e+00
0.0000000000000000e+00 1.5963100000000001e+01 0.0000000000000000e+00
ITEM: ATOMS id type x y z
135 1 3.77085 3.02103 7.74974
139 1 2.7791 6.06891 4.21256
132 1 0.599342 4.86252 3.0137
6 2 1.18788 2.30558 5.3735
10 2 -0.342492 4.24886 1.89717
13 2 -0.0563734 4.3795 7.2085
134 1 3.84704 5.49731 1.29941
29 2 3.78369 1.97764 3.57205
140 1 3.76893 5.34116 6.42531
37 2 4.75443 4.26335 1.85865
38 2 1.31023 6.26574 3.51364
120 1 6.2621 1.03915 1.09868
82 1 1.23814 1.13497 1.19043
83 1 0.423388 1.86751 4.05868
84 1 1.20008 1.23186 6.61107
88 1 -1.29022 3.12038 2.60445
89 1 0.504342 3.57273 0.669155
90 1 -1.17899 5.34982 1.16847
91 1 -1.14587 3.35524 7.8062
92 1 0.663067 3.68751 5.99398
93 1 -2.13031 6.05956 4.22267
94 1 -0.886931 5.5246 6.43728
118 1 3.30006 0.647454 2.85001
119 1 2.6895 2.43893 4.78775
31 2 7.10836 0.0354425 7.03558
123 1 5.2615 1.79468 4.07054
124 1 6.19011 1.14349 6.3107
130 1 3.82784 3.11406 2.42186
40 2 4.6297 4.15765 7.04216
146 1 2.96437 6.03663 9.45854
9 2 1.3951 2.35026 10.7261
16 2 -0.040861 4.30228 12.4417
32 2 3.74667 1.87079 8.86828
147 1 3.73718 5.4388 11.909
35 2 3.64241 1.984 14.2314
41 2 1.47005 6.28042 8.93614
43 2 4.62835 4.21918 12.3945
44 2 1.27364 6.23891 14.4433
85 1 0.311753 1.64173 14.6865
86 1 0.348019 1.99666 9.55204
87 1 1.27058 1.25201 11.8869
95 1 -0.926775 3.07571 12.8696
96 1 0.98019 3.77611 11.323
97 1 -2.10438 5.99449 14.8013
98 1 -2.07607 5.90907 9.63223
99 1 -0.943058 5.46888 11.815
121 1 3.03296 0.578547 8.2219
122 1 2.87496 2.33094 10.0943
125 1 3.18603 0.590758 13.6062
126 1 5.10446 1.8894 14.7864
127 1 2.62356 2.53898 15.3214
128 1 5.31333 1.66592 9.30438
129 1 6.35676 1.28191 11.6996
137 1 0.841093 4.86976 8.45043
141 1 3.63402 3.0286 13.0193
143 1 0.644372 4.96475 13.7176
144 1 2.67747 5.8371 15.071
7 2 2.23278 0.0432596 12.4568
14 2 -3.50221 6.07326 8.92759
17 2 -3.55247 6.25224 14.1497
5 2 -1.13404 2.1526 8.85124
34 2 7.09579 0.0583186 12.4553
8 2 -1.12165 1.99097 14.0838
3 2 1.19691 2.24518 15.9574
161 1 1.25413 9.74902 6.60061
160 1 0.324348 10.1021 4.10771
19 2 -2.71811 8.50719 1.73331
15 2 -1.09813 6.62901 5.32041
22 2 -2.49643 8.47735 7.21775
24 2 -3.59267 10.7215 5.38981
46 2 2.38002 8.47174 1.76543
47 2 -1.1563 10.3589 3.51746
49 2 2.15426 8.50846 7.10293
100 1 -3.56727 7.28122 2.36031
101 1 -1.7146 7.89916 0.657708
102 1 -6.01453 11.5773 2.64037
103 1 -3.60348 9.76413 1.28355
104 1 -4.2281 12.2377 0.574038
105 1 -3.40553 7.29943 7.89159
106 1 -1.65283 7.97388 5.97115
107 1 -6.08675 11.5249 7.66601
108 1 -4.48873 10.0629 4.19864
109 1 -3.45937 9.62944 6.59097
110 1 -4.25506 12.0819 5.86406
133 1 0.407684 6.88978 4.72479
148 1 1.44407 7.38704 2.37526
150 1 -1.77108 8.95544 2.98723
151 1 -1.0058 11.4057 2.34668
152 1 -2.12643 10.9287 4.72802
153 1 1.45273 9.59425 1.17574
155 1 1.23744 7.32393 7.73756
158 1 -1.02971 11.5511 7.68296
1 2 -5.12164 12.6773 1.83126
21 2 -3.53874 10.8325 0.0965374
28 2 -0.135008 12.6277 1.83302
4 2 -5.19769 12.6876 7.00286
12 2 -1.26053 6.51234 0.0481032
18 2 -0.968323 6.55424 10.6409
25 2 -2.48846 8.5144 12.2928
27 2 -3.66503 10.6944 10.5654
50 2 -1.10388 10.5627 8.86316
52 2 2.32678 8.53157 12.5719
53 2 -1.1158 10.4393 14.198
111 1 -3.33503 7.29912 12.9062
112 1 -1.51676 7.9978 11.1689
113 1 -4.48743 10.323 14.7644
114 1 -6.00367 11.5974 13.1215
115 1 -4.61171 10.2547 9.3801
116 1 -3.52854 9.538 11.6177
117 1 -4.21688 12.0212 11.3354
138 1 0.484497 6.88087 10.0563
145 1 0.239733 6.81912 15.5176
157 1 -1.48028 9.1657 8.25709
159 1 -2.19613 10.9588 9.97868
163 1 1.47806 7.35053 13.3129
165 1 -1.65813 9.10748 13.4941
166 1 0.429507 10.1742 14.6895
167 1 -1.09386 11.6072 13.1175
168 1 -2.03426 10.7994 15.4431
169 1 0.293206 10.4817 9.68231
170 1 1.46817 9.73014 11.8956
196 1 8.65935 5.38409 1.09588
204 1 8.62126 5.35307 6.41323
203 1 7.72866 5.99594 4.00637
33 2 6.25948 2.29671 5.20997
198 1 10.4281 3.60958 5.84344
56 2 8.66182 1.96492 3.48579
197 1 8.63863 3.07377 7.5719
193 1 5.6774 4.81739 3.02044
60 2 11.0508 2.21191 5.23895
64 2 9.61264 4.24975 1.77435
65 2 6.21068 6.25847 3.56792
67 2 9.57726 4.22941 7.04317
131 1 5.61743 3.6778 0.637141
136 1 5.49669 3.63914 5.78729
172 1 13.0513 0.600129 3.05681
173 1 8.07051 0.584356 2.9913
174 1 7.76894 2.50199 4.69589
176 1 11.3666 1.15058 1.14269
180 1 12.6243 2.41539 4.9025
181 1 10.1831 1.77245 3.98939
182 1 11.0601 0.999933 6.26643
190 1 8.66483 3.06013 2.34034
191 1 10.5123 3.60284 0.602798
192 1 10.5932 4.77315 2.91605
2 2 13.5161 1.94597 3.68031
58 2 12.1329 0.0436974 7.00558
11 2 11.0979 6.21253 3.53381
30 2 6.17717 2.23621 0.0419636
36 2 6.16209 2.27519 10.5348
213 1 8.61154 5.2609 11.7142
212 1 7.72786 5.94241 9.35077
209 1 7.76519 6.01409 14.6486
71 2 6.19393 6.13856 14.1334
59 2 8.55596 2.06856 8.78866
208 1 5.64667 4.76126 13.4737
62 2 8.64042 1.92575 14.2072
63 2 11.0375 2.26992 10.5795
68 2 6.22877 6.13868 8.84254
70 2 9.57742 4.19009 12.3974
207 1 10.5395 4.91734 13.4902
142 1 5.50649 3.59704 11.1874
175 1 12.6297 2.59856 15.2269
177 1 13.0978 0.858315 8.02514
178 1 7.9649 0.719307 8.19803
179 1 7.5431 2.68304 9.85297
183 1 12.9183 0.690246 13.4819
184 1 7.9314 0.60402 13.6992
185 1 10.1832 1.7127 14.7163
186 1 7.67475 2.48323 15.3906
187 1 12.4424 2.46215 9.9321
188 1 9.96132 1.94693 9.52808
189 1 11.1732 1.2235 11.7455
199 1 10.5786 4.80811 8.10257
200 1 5.60401 4.88052 8.1254
205 1 8.67317 2.97761 12.9749
206 1 10.577 3.58849 11.313
57 2 11.2168 2.26798 15.8724
232 1 5.76124 12.136 5.91287
229 1 7.86889 10.7809 4.85612
42 2 3.80219 6.58307 5.37315
39 2 3.80028 6.44859 0.022982
51 2 1.2487 10.6982 5.31267
230 1 5.35628 10.3958 4.04036
69 2 8.65419 6.50088 5.26328
73 2 7.09927 8.47154 1.75931
74 2 3.85292 10.4292 3.53308
231 1 6.3155 9.60094 6.43659
76 2 7.10078 8.38437 7.05407
78 2 6.30718 10.7795 5.28288
149 1 3.22471 7.88888 0.490121
154 1 0.681416 12.0739 0.580886
156 1 3.23368 7.83781 6.05492
162 1 0.762174 12.1223 5.90493
194 1 5.26731 6.7321 4.77915
202 1 10.1177 6.6154 4.72139
214 1 6.17603 7.31125 2.37678
215 1 7.96482 7.8605 0.549546
216 1 8.05067 8.97566 2.91718
217 1 3.40535 9.12154 2.78343
218 1 3.87678 11.6275 2.48648
219 1 2.82124 10.8064 4.73002
221 1 6.15501 9.55924 1.0386
222 1 5.80629 12.0641 0.714902
223 1 6.19217 7.29349 7.73179
224 1 8.0585 7.85968 5.93995
227 1 3.99426 11.6176 7.81488
20 2 8.73173 10.2914 3.62757
55 2 4.86936 12.7113 1.89483
48 2 1.29858 10.6907 15.9327
243 1 5.56485 12.0822 11.1585
23 2 8.60163 10.4026 8.79913
54 2 1.44568 10.823 10.7157
72 2 8.62445 6.41349 10.5937
77 2 3.78691 10.4328 8.86398
79 2 7.1392 8.39785 12.4447
80 2 3.77803 10.564 14.1616
81 2 6.18763 10.7013 10.6452
164 1 3.19545 7.98657 11.2544
171 1 0.804615 12.0905 11.3916
195 1 10.2142 6.75847 15.343
201 1 5.28288 6.61083 10.0531
210 1 5.19998 6.60527 15.2797
211 1 10.1717 6.60383 10.0988
220 1 7.77096 10.7294 15.4446
225 1 7.9984 8.98212 8.26529
226 1 3.17658 9.16934 8.19172
228 1 2.83119 10.982 9.99034
233 1 6.1813 7.27726 13.0574
234 1 7.95803 7.70833 11.283
235 1 8.10555 9.06628 13.5495
236 1 3.37886 9.07919 13.6561
237 1 5.28973 10.5475 14.6732
238 1 3.68581 11.6426 12.9543
239 1 2.73511 10.9169 15.3418
240 1 7.67365 10.835 10.087
241 1 5.2972 10.1485 9.39374
242 1 6.21696 9.57861 11.847
45 2 3.81653 6.55107 10.7343
66 2 8.66954 6.53711 15.8549
61 2 4.68786 12.6927 12.3332
75 2 6.24644 10.7093 15.9246
26 2 8.6922 10.3887 14.1796
ITEM: TIMESTEP
100
ITEM: NUMBER OF ATOMS
243
ITEM: BOX BOUNDS xy xz yz pp pp pp
-7.3535815500000004e+00 1.4691300000000000e+01 -7.3535815500000004e+00
0.0000000000000000e+00 1.2723000000000001e+01 0.0000000000000000e+00
0.0000000000000000e+00 1.5963100000000001e+01 0.0000000000000000e+00
ITEM: ATOMS id type x y z
135 1 3.83815 2.95857 7.5728
139 1 2.71237 5.92892 4.18015
132 1 0.735926 4.97008 2.79603
6 2 1.3304 2.23347 5.31269
10 2 -0.249874 4.36627 1.72355
13 2 -0.140409 4.33022 7.09712
134 1 3.99109 5.49301 1.25815
29 2 3.77905 1.88206 3.49591
140 1 3.76353 5.46909 6.62235
37 2 4.74411 4.21644 1.86574
38 2 1.32193 6.30101 3.50561
120 1 6.23908 1.12669 1.11931
82 1 1.41107 1.06396 1.14846
83 1 0.323699 1.6811 4.23258
84 1 1.36266 1.16582 6.48538
88 1 -1.00613 3.12662 2.37742
89 1 0.659092 3.584 0.645742
90 1 -1.21506 5.50704 1.15106
91 1 -1.09312 3.30024 7.80778
92 1 0.796648 3.69113 5.98044
93 1 -2.15426 6.12854 4.21822
94 1 -1.01513 5.63488 6.57922
118 1 3.08239 0.607908 2.89385
119 1 2.85335 2.33125 4.75309
2 2 -1.07263 1.94967 3.53465
123 1 5.26568 1.81657 4.06036
124 1 6.33754 1.14083 6.3928
130 1 3.71464 3.15651 2.50089
40 2 4.66339 4.2113 7.14166
11 2 -3.57282 6.22451 3.54409
3 2 1.27386 2.223 0.0652304
146 1 2.86944 6.08889 9.4015
9 2 1.36638 2.29143 10.678
16 2 -0.0357132 4.27836 12.4414
32 2 3.73242 1.95114 8.78677
147 1 3.75566 5.49172 11.9002
35 2 3.62192 2.00816 14.1893
41 2 1.37833 6.30015 8.8746
43 2 4.68739 4.27246 12.3499
14 2 -3.55006 6.25155 8.92338
85 1 0.223827 1.69409 14.9257
86 1 0.366706 1.86643 9.47317
87 1 1.44612 1.11188 11.7633
95 1 -0.882691 3.05702 13.0857
96 1 0.950166 3.64008 11.4028
97 1 -2.16171 5.96317 14.8172
98 1 -2.04135 6.09611 9.46587
99 1 -1.0028 5.37393 11.7494
121 1 3.10482 0.539117 8.2689
122 1 2.73321 2.53664 9.88693
125 1 3.03907 0.588571 13.668
126 1 5.02018 1.81339 14.9611
127 1 2.60069 2.47633 15.2711
128 1 5.17334 1.62737 9.44949
129 1 6.27421 1.25823 11.8674
137 1 0.821082 5.00321 8.13728
141 1 3.84142 3.12883 13.0346
143 1 0.811576 4.99252 13.5757
144 1 2.72478 5.96961 14.9735
34 2 7.11899 0.0254907 12.5046
5 2 -1.10405 2.11948 8.86804
44 2 1.33883 6.35182 14.2735
161 1 1.35635 9.58898 6.48781
160 1 0.303977 10.1887 4.19458
19 2 -2.6728 8.46452 1.79938
15 2 -1.14858 6.6683 5.38982
22 2 -2.61811 8.55773 7.20139
24 2 -3.67564 10.7445 5.35632
46 2 2.37535 8.52726 1.74686
47 2 -1.13836 10.4078 3.59729
49 2 2.37348 8.54338 7.0224
100 1 -3.51764 7.30431 2.39422
101 1 -1.9814 7.89315 0.491291
102 1 -5.79166 11.4102 2.37548
103 1 -3.55614 9.60788 1.25266
104 1 -4.06757 12.0473 0.588784
105 1 -3.47619 7.3485 7.73874
106 1 -1.71274 8.04594 5.97152
107 1 -6.1281 11.5188 7.65925
108 1 -4.61699 10.1232 4.21384
109 1 -3.56279 9.71363 6.5693
110 1 -4.28506 12.0464 5.99278
133 1 0.232068 6.75548 4.57173
148 1 1.52772 7.37093 2.25808
150 1 -1.72309 9.07241 2.92387
151 1 -1.1232 11.5501 2.42568
152 1 -2.20673 10.9496 4.6916
153 1 1.4697 9.74317 1.19734
155 1 1.4979 7.37438 7.64921
158 1 -1.06672 11.513 7.65949
1 2 -5.01584 12.6278 1.72556
21 2 -3.55167 10.6507 0.043406
28 2 -0.291205 12.6839 1.77457
4 2 -5.16172 12.6829 7.11655
31 2 -0.162287 12.6837 7.01807
18 2 -1.05072 6.5788 10.6752
25 2 -2.61523 8.49268 12.4598
27 2 -3.60962 10.7097 10.6041
50 2 -1.10263 10.4854 8.89783
7 2 -5.16094 12.6058 12.5233
53 2 -1.09499 10.563 14.3221
111 1 -3.53331 7.2692 13.0276
112 1 -1.63735 7.93369 11.336
113 1 -4.51775 10.2574 14.8085
114 1 -6.10211 11.5206 13.2171
115 1 -4.59374 10.1829 9.5095
116 1 -3.50577 9.66427 11.7859
117 1 -4.24011 11.9883 11.3427
138 1 0.416593 6.66114 10.066
145 1 0.229357 6.71789 15.4017
157 1 -1.73029 9.10819 8.40192
159 1 -2.16663 11.0355 10.0169
163 1 1.45664 7.48871 13.1025
165 1 -1.73636 9.23653 13.6003
166 1 0.400755 10.289 14.8139
167 1 -1.12365 11.6163 13.1298
168 1 -2.09716 10.9312 15.4984
169 1 0.339528 10.3822 9.57357
170 1 1.4219 9.751 11.9105
23 2 -6.03079 10.4363 8.90287
12 2 -1.28846 6.55187 15.9416
196 1 8.80666 5.38234 0.965502
204 1 8.82443 5.50958 6.57595
203 1 7.67473 5.98349 4.16856
33 2 6.17667 2.24777 5.27701
198 1 10.6149 3.64706 5.92027
56 2 8.63533 1.96917 3.46511
197 1 8.66898 3.07207 7.58111
193 1 5.65734 4.78898 3.05806
60 2 11.0868 2.26522 5.19344
64 2 9.60994 4.2 1.70991
65 2 6.16241 6.17878 3.61333
67 2 9.66031 4.28242 7.13401
131 1 5.62811 3.55696 0.71587
136 1 5.67036 3.64788 5.94529
172 1 12.9264 0.674487 2.88527
173 1 8.0182 0.672312 2.84737
174 1 7.65414 2.44499 4.61459
176 1 11.2463 1.13563 1.04961
180 1 12.5771 2.55094 4.61831
181 1 10.0718 1.81627 4.05442
182 1 11.1612 1.09953 6.25281
190 1 8.73004 3.06397 2.3635
191 1 10.5464 3.61931 0.5868
192 1 10.5279 4.9477 2.84948
58 2 12.0669 0.0463645 7.07878
36 2 6.10102 2.29314 10.5216
213 1 8.74551 5.2749 11.9054
212 1 7.68875 5.81393 9.54047
209 1 7.64932 6.19968 14.7838
71 2 6.19623 6.18547 14.0662
59 2 8.65296 2.0302 8.80643
208 1 5.75012 4.83734 13.386
62 2 8.63276 1.94998 14.1903
63 2 11.08 2.21728 10.5645
68 2 6.24261 6.08428 9.01314
70 2 9.75122 4.11896 12.3948
207 1 10.4379 4.8175 13.6643
142 1 5.42213 3.74104 10.9653
175 1 12.5282 2.50637 15.2208
177 1 12.9321 0.737865 8.27905
178 1 8.07904 0.682603 8.1706
179 1 7.6266 2.52514 9.96538
183 1 12.9267 0.658084 13.4561
184 1 8.08312 0.495058 13.6662
185 1 10.0289 1.81991 14.9119
186 1 7.52988 2.49442 15.1712
187 1 12.6145 2.41526 10.1729
188 1 10.1364 1.79112 9.34135
189 1 11.119 1.09965 11.719
199 1 10.5622 4.90596 8.31171
200 1 5.57366 4.82176 8.27131
205 1 8.838 2.92652 12.925
206 1 10.5935 3.61131 11.215
57 2 11.1633 2.31125 15.9397
8 2 13.5308 1.91736 14.1586
17 2 11.0429 6.21806 14.1938
30 2 6.12057 2.23473 15.9355
232 1 5.75269 12.0762 6.02923
229 1 7.6276 10.8086 4.70536
42 2 3.73517 6.41937 5.34393
39 2 3.73805 6.51024 0.0727324
51 2 1.35243 10.7051 5.30147
230 1 5.19412 10.2878 4.21753
69 2 8.65101 6.50129 5.35824
73 2 7.09026 8.41871 1.7763
74 2 3.78272 10.4324 3.54467
231 1 6.14995 9.5384 6.46793
76 2 7.08648 8.41792 7.16468
78 2 6.16867 10.6717 5.42778
149 1 3.22525 7.90532 0.562852
154 1 0.759298 12.2113 0.678219
156 1 3.09575 7.88063 5.76904
162 1 0.781463 12.1342 5.88725
194 1 5.24688 6.60638 4.81255
202 1 10.0389 6.68256 4.68166
214 1 6.27294 7.2262 2.4369
215 1 8.08701 7.89457 0.705847
216 1 7.92692 9.11035 2.89483
217 1 3.29704 9.13196 2.85465
218 1 3.78977 11.5353 2.40988
219 1 2.7847 10.8645 4.67641
221 1 6.15271 9.48292 1.13369
222 1 5.75406 12.0536 0.67748
223 1 6.41105 7.22258 7.95134
224 1 7.91589 7.75117 5.97448
227 1 3.82389 11.5584 7.63503
20 2 8.67978 10.392 3.53601
55 2 4.70985 12.6425 1.76072
75 2 6.2057 10.6442 0.0400278
48 2 1.36755 10.8429 15.9432
243 1 5.63028 12.077 11.23
26 2 8.67068 10.3228 14.2335
54 2 1.35893 10.8215 10.7258
72 2 8.63892 6.38305 10.7308
77 2 3.69091 10.5118 8.83736
79 2 7.1892 8.43248 12.3727
80 2 3.82243 10.4481 14.2126
81 2 6.18937 10.7623 10.5244
164 1 3.26786 7.94525 11.2199
171 1 0.739273 12.2049 11.334
195 1 10.083 6.85938 15.2774
201 1 5.32579 6.61392 10.2084
210 1 5.13794 6.54279 15.17
211 1 10.1014 6.67058 10.0734
220 1 7.7347 10.7597 15.4416
225 1 8.16186 9.08679 8.15567
226 1 3.20027 9.10992 8.19484
228 1 2.75003 10.9687 9.98363
233 1 6.21132 7.34599 12.9834
234 1 8.13372 7.80724 11.2861
235 1 8.07903 9.00156 13.5383
236 1 3.37563 9.11209 13.5426
237 1 5.29696 10.2292 14.7666
238 1 3.83093 11.5149 13.002
239 1 2.83558 11.0292 15.3394
240 1 7.59853 11.0119 9.92283
241 1 5.19865 10.3071 9.36317
242 1 6.32988 9.59649 11.6457
45 2 3.81211 6.52599 10.6352
66 2 8.66056 6.60242 15.9059
61 2 4.68143 12.6899 12.3101
52 2 2.38504 8.59433 12.4135
ITEM: TIMESTEP
200
ITEM: NUMBER OF ATOMS
243
ITEM: BOX BOUNDS xy xz yz pp pp pp
-7.3615630999999997e+00 1.4691300000000000e+01 -7.3615630999999997e+00
0.0000000000000000e+00 1.2723000000000001e+01 0.0000000000000000e+00
0.0000000000000000e+00 1.5963100000000001e+01 0.0000000000000000e+00
ITEM: ATOMS id type x y z
135 1 3.95166 3.04588 7.81988
139 1 2.67082 6.02 4.165
132 1 0.76997 4.8616 2.8766
6 2 1.20054 2.17033 5.3279
10 2 -0.0828389 4.26346 1.68145
13 2 -0.231342 4.1982 7.04552
134 1 3.77177 5.46838 1.15963
29 2 3.68946 1.94281 3.57748
140 1 3.86233 5.32088 6.39521
37 2 4.62351 4.26267 1.77467
38 2 1.30989 6.22874 3.49263
120 1 6.31464 1.3048 1.18098
82 1 1.55086 1.21109 1.22051
83 1 0.337863 1.70776 4.03751
84 1 1.32659 1.11047 6.4689
88 1 -0.963745 3.07281 2.24704
89 1 0.723049 3.6238 0.462055
90 1 -0.967941 5.44783 1.04807
91 1 -1.12639 3.06419 7.62893
92 1 0.480806 3.45931 5.76934
93 1 -2.26802 6.03055 4.2375
94 1 -0.985783 5.43144 6.40697
118 1 3.29937 0.524069 2.93881
119 1 2.70929 2.53178 4.68475
2 2 -1.08896 2.00626 3.45801
123 1 5.11461 1.73266 4.29245
124 1 6.33166 1.15639 6.50703
130 1 3.86874 2.93356 2.33785
40 2 4.84864 4.24718 7.20061
31 2 7.2019 0.02408 7.15043
28 2 7.15178 0.128985 1.78366
4 2 2.35457 0.0599715 7.05173
146 1 2.73457 6.10242 9.51653
9 2 1.31001 2.29186 10.5454
16 2 -0.124957 4.19312 12.3124
32 2 3.79804 1.95449 8.91909
147 1 3.71794 5.38107 11.7743
35 2 3.72108 1.96625 14.1228
41 2 1.25097 6.17144 8.89928
43 2 4.68179 4.23179 12.3473
14 2 -3.5806 6.25852 8.84754
85 1 0.242472 1.62196 14.9427
86 1 0.268975 1.82608 9.41775
87 1 1.31098 1.16548 11.7093
95 1 -0.955583 3.01012 13.0896
96 1 0.727672 3.65993 11.0958
97 1 -2.109 5.97037 14.7176
98 1 -2.13281 6.31481 9.46041
99 1 -1.01279 5.34705 11.6707
121 1 3.26033 0.662184 8.20895
122 1 2.84922 2.27411 10.127
125 1 3.15991 0.583111 13.5538
126 1 5.23177 1.74706 14.7692
127 1 2.71644 2.44692 15.2457
128 1 5.20137 1.65493 9.52702
129 1 6.27662 1.16295 11.7892
137 1 0.727957 4.83601 8.19243
141 1 3.88852 3.08516 13.0256
143 1 0.733945 4.88401 13.4814
144 1 2.69887 6.09733 14.8031
7 2 2.17879 0.0364819 12.3989
44 2 1.26263 6.27095 14.0625
3 2 1.29683 2.24064 15.9036
161 1 1.49374 9.69359 6.4136
160 1 0.26521 10.4077 4.16659
19 2 -2.65955 8.5112 1.74959
15 2 -1.20187 6.52925 5.3197
22 2 -2.69803 8.51442 7.06838
24 2 -3.73498 10.7173 5.3152
46 2 2.32318 8.51577 1.75463
47 2 -1.17341 10.4829 3.54693
49 2 2.30007 8.51079 7.11473
100 1 -3.49947 7.33995 2.41822
101 1 -1.74962 7.81028 0.678359
102 1 -5.98015 11.5463 2.40908
103 1 -3.59373 9.6803 1.17665
104 1 -4.23485 12.1412 0.497826
105 1 -3.54987 7.3336 7.66149
106 1 -1.70169 7.84413 5.98994
107 1 -5.86405 11.5379 7.68815
108 1 -4.70549 10.1213 4.19557
109 1 -3.58303 9.71915 6.54257
110 1 -4.25375 12.1475 5.81132
133 1 0.276666 6.74709 4.61988
148 1 1.36238 7.34079 2.37229
150 1 -1.67237 9.17801 2.81226
151 1 -1.13138 11.7057 2.46205
152 1 -2.24468 10.752 4.66929
153 1 1.3844 9.74562 1.08897
155 1 1.4218 7.31393 7.76838
158 1 -1.06013 11.5897 7.7654
1 2 -4.99235 12.6698 1.827
21 2 -3.6194 10.7661 0.0131852
18 2 -1.13044 6.53759 10.6495
25 2 -2.56244 8.4413 12.5419
27 2 -3.5753 10.7485 10.7535
50 2 -1.19351 10.4723 8.92634
26 2 -6.04066 10.4438 14.2272
53 2 -1.11252 10.4944 14.1959
111 1 -3.52773 7.29525 13.1513
112 1 -1.52879 7.76532 11.5385
113 1 -4.5673 10.1753 14.8259
114 1 -6.00731 11.5426 13.0548
115 1 -4.54084 10.3544 9.55858
116 1 -3.43876 9.56375 11.8242
117 1 -4.18284 12.1028 11.3435
138 1 0.251685 6.67703 9.95092
145 1 0.269501 6.82338 15.1378
157 1 -1.87412 9.16223 8.23581
159 1 -2.14897 10.9867 10.0595
163 1 1.48139 7.31824 12.9081
165 1 -1.62895 9.09511 13.6638
166 1 0.417036 10.3024 14.6386
167 1 -1.16811 11.5727 13.0242
168 1 -2.17646 10.8742 15.3658
169 1 0.247662 10.0908 9.49967
170 1 1.41551 9.78128 11.8329
12 2 -1.16434 6.52716 15.8516
52 2 2.28159 8.57369 12.3747
34 2 -0.17065 12.7055 12.4611
23 2 -5.9609 10.4555 8.90702
196 1 8.79944 5.46841 1.17487
204 1 8.86888 5.3853 6.57402
203 1 7.62802 5.80516 4.40365
33 2 6.17813 2.21044 5.33712
198 1 10.6306 3.66105 5.99842
56 2 8.61974 2.10001 3.48988
197 1 8.65866 3.12858 7.75153
193 1 5.63192 4.66352 2.98973
60 2 11.1651 2.35312 5.3049
64 2 9.68932 4.27193 1.81384
65 2 6.24714 5.96827 3.61334
67 2 9.69829 4.20495 7.18412
131 1 5.55668 3.68623 0.578269
136 1 5.7437 3.63582 5.96758
172 1 13.104 0.650556 2.81086
173 1 8.14482 0.705052 2.91917
174 1 7.55362 2.52911 4.62462
176 1 11.071 1.16686 1.15252
180 1 12.566 2.46827 4.60106
181 1 9.97704 2.0623 4.28452
182 1 11.3167 1.30689 6.48915
190 1 8.76152 3.1031 2.23499
191 1 10.7065 3.61273 0.769272
192 1 10.394 4.85065 3.13795
58 2 12.0438 0.0258316 7.08235
55 2 12.0828 0.0598704 1.75227
11 2 11.0023 6.22602 3.59194
57 2 10.9996 2.24235 0.0267239
36 2 6.2098 2.15608 10.6065
213 1 8.84684 5.47767 11.8933
212 1 7.7264 5.74415 9.56999
209 1 7.70279 6.03412 14.6976
71 2 6.25068 6.25935 14.0501
59 2 8.73658 1.948 8.82924
208 1 5.63007 5.01728 13.3897
62 2 8.55224 1.96988 14.169
63 2 11.1429 2.31439 10.691
68 2 6.25837 6.12417 9.02197
70 2 9.65381 4.1878 12.4475
207 1 10.4841 4.79195 13.6684
142 1 5.61026 3.5632 11.1388
175 1 12.4266 2.31969 15.3901
177 1 12.973 0.575967 8.22481
178 1 8.27264 0.580505 8.16561
179 1 7.65013 2.25245 9.96273
183 1 12.9621 0.661331 13.5546
184 1 8.14208 0.502695 13.5937
185 1 9.92415 1.80023 14.9131
186 1 7.54637 2.53515 15.2881
187 1 12.6116 2.46713 10.0376
188 1 10.1373 1.97654 9.52991
189 1 11.041 1.07738 11.7168
199 1 10.7008 4.8598 8.29905
200 1 5.69448 4.76051 8.39874
205 1 8.77287 2.97659 12.9765
206 1 10.66 3.70757 11.3353
17 2 11.0814 6.14098 14.2497
30 2 6.08992 2.3164 15.9327
61 2 12.0663 0.0494574 12.3672
8 2 13.4995 1.98024 14.2614
5 2 13.5221 2.0017 8.80041
232 1 5.63156 12.0451 6.02755
229 1 7.62224 11.1123 4.82379
42 2 3.70906 6.44746 5.284
75 2 6.16783 10.6033 0.142725
51 2 1.30178 10.8198 5.27262
230 1 5.11869 10.2267 4.25579
69 2 8.58293 6.4671 5.47647
73 2 7.11983 8.36439 1.90406
74 2 3.72913 10.4687 3.52791
231 1 6.34927 9.65989 6.55378
76 2 7.13884 8.44277 7.19588
78 2 6.15882 10.7077 5.39754
149 1 3.25841 7.88548 0.621362
154 1 0.728195 12.1609 0.551737
156 1 3.19628 7.84636 5.94622
162 1 0.682919 12.156 5.91615
194 1 5.16464 6.60311 4.57774
202 1 10.0196 6.84456 4.74735
214 1 6.40826 7.08983 2.5155
215 1 8.02962 7.77602 0.694281
216 1 7.96681 9.07941 3.09902
217 1 3.03108 9.16463 3.00548
218 1 3.87636 11.6014 2.41177
219 1 2.67127 10.9879 4.62815
221 1 6.17969 9.53882 1.36972
222 1 5.57453 12.0784 0.599162
223 1 6.36159 7.15535 7.805
224 1 8.07188 7.85487 6.03029
227 1 3.72614 11.7555 7.78368
20 2 8.55647 10.481 3.59659
39 2 3.77345 6.55582 15.9235
243 1 5.64927 12.2021 11.2352
48 2 1.31829 10.7978 15.8569
54 2 1.23811 10.7652 10.58
72 2 8.69801 6.43275 10.6641
77 2 3.73182 10.5663 8.81854
79 2 7.21155 8.50678 12.3427
80 2 3.80258 10.3952 14.1618
81 2 6.26585 10.8313 10.607
164 1 3.13325 7.87933 11.2572
171 1 0.610067 12.1209 11.172
195 1 10.1217 6.64794 15.3981
201 1 5.25662 6.66023 10.1928
210 1 5.32752 6.6779 15.3103
211 1 10.0951 6.70364 9.96733
220 1 7.69931 10.8301 15.5152
225 1 8.03595 9.04468 8.43973
226 1 3.27879 9.17479 8.14181
228 1 2.69882 10.9001 9.95158
233 1 6.18703 7.41882 12.934
234 1 8.10104 7.78941 11.2032
235 1 8.07951 9.13686 13.5039
236 1 3.20687 9.11414 13.5399
237 1 5.27722 10.2345 14.8058
238 1 3.99964 11.4508 13.0022
239 1 2.79838 10.9527 15.2678
240 1 7.7239 10.9685 10.018
241 1 5.20711 10.4505 9.47089
242 1 6.32829 9.71723 11.6973
45 2 3.7582 6.53848 10.705
66 2 8.66974 6.51646 15.9156
ITEM: TIMESTEP
300
ITEM: NUMBER OF ATOMS
243
ITEM: BOX BOUNDS xy xz yz pp pp pp
-7.3695446499999999e+00 1.4691300000000000e+01 -7.3695446499999999e+00
0.0000000000000000e+00 1.2723000000000001e+01 0.0000000000000000e+00
0.0000000000000000e+00 1.5963100000000001e+01 0.0000000000000000e+00
ITEM: ATOMS id type x y z
135 1 3.7414 3.16353 7.96514
139 1 2.6769 6.12175 4.26745
132 1 0.805504 4.78017 2.86335
6 2 1.18325 2.24087 5.23605
10 2 -0.0920489 4.1704 1.69182
13 2 -0.303321 4.18911 7.08312
134 1 3.75062 5.43518 1.17688
29 2 3.75155 1.95797 3.53365
140 1 3.85358 5.46361 6.57715
37 2 4.69618 4.25219 1.70259
38 2 1.306 6.16399 3.445
120 1 6.40327 1.30704 1.20739
82 1 1.33145 1.24174 1.15275
83 1 0.235108 1.66604 4.05568
84 1 1.18419 1.11799 6.38271
88 1 -1.0846 3.09614 2.34457
89 1 0.818616 3.63166 0.483292
90 1 -0.891196 5.47807 1.10255
91 1 -1.2514 3.08945 7.71844
92 1 0.69792 3.62883 5.93806
93 1 -2.17344 6.04055 4.17616
94 1 -1.17558 5.32661 6.49648
118 1 3.23533 0.5833 2.90564
119 1 2.68462 2.36884 4.66496
31 2 7.2476 0.0381132 7.17888
123 1 5.1113 1.83592 4.41639
124 1 6.40176 1.29856 6.71859
130 1 3.80793 3.10379 2.39154
40 2 4.66761 4.24446 7.24423
4 2 2.23823 0.0397364 6.98493
28 2 7.25621 0.101656 1.75308
1 2 2.16758 0.0588091 1.80928
146 1 2.77816 5.87864 9.40605
9 2 1.30957 2.24494 10.6233
16 2 -0.213071 4.15597 12.3042
32 2 3.87357 1.87563 8.93792
147 1 3.76414 5.40741 11.7503
35 2 3.81995 1.98731 14.1037
41 2 1.30866 6.15194 8.744
43 2 4.73306 4.33376 12.3924
14 2 -3.60064 6.29755 8.8938
85 1 0.408118 1.63513 14.8069
86 1 0.4593 1.82386 9.3249
87 1 1.24788 1.14015 11.7832
95 1 -1.00586 2.99313 13.0776
96 1 0.680685 3.5876 11.1604
97 1 -2.07183 5.86289 14.8125
98 1 -2.09677 6.09225 9.503
99 1 -1.21036 5.27129 11.7156
121 1 3.21296 0.688443 8.0689
122 1 2.81261 2.26283 10.0982
125 1 3.26467 0.645532 13.4764
126 1 5.2252 1.62153 14.8192
127 1 2.89939 2.44587 15.3095
128 1 5.27409 1.6976 9.5275
129 1 6.31865 1.18427 11.9193
137 1 0.699662 4.73318 8.22189
141 1 3.96192 3.00765 12.9008
143 1 0.80648 4.82601 13.3558
144 1 2.77211 6.12663 14.6911
8 2 -1.09484 1.92904 14.2359
44 2 1.32557 6.19798 14.0376
3 2 1.37593 2.2266 15.886
17 2 -3.55587 6.1725 14.3725
5 2 -1.0584 1.92833 8.83649
161 1 1.32459 9.65896 6.39405
160 1 0.346066 10.2301 4.05926
19 2 -2.59336 8.47395 1.67771
15 2 -1.21329 6.48444 5.37945
22 2 -2.74486 8.44938 7.00288
24 2 -3.60435 10.7572 5.19626
46 2 2.21198 8.52872 1.77537
47 2 -1.12271 10.5075 3.43529
49 2 2.23207 8.54085 7.07121
100 1 -3.57061 7.40149 2.39551
101 1 -1.71712 7.87653 0.470637
102 1 -6.18128 11.6493 2.43241
103 1 -3.53109 9.64416 1.05727
104 1 -4.25056 12.037 0.736424
105 1 -3.65381 7.24924 7.6032
106 1 -1.83226 7.88872 5.79649
107 1 -5.84883 11.5123 7.66065
108 1 -4.52685 10.2796 3.97583
109 1 -3.61856 9.57015 6.31876
110 1 -4.23554 12.0529 5.8751
133 1 0.229025 6.64793 4.6452
148 1 1.28823 7.24577 2.25691
150 1 -1.67483 9.18854 2.75978
151 1 -1.05242 11.7093 2.42528
152 1 -2.06398 11.0375 4.68243
153 1 1.26725 9.52176 0.958608
155 1 1.25653 7.35065 7.65627
158 1 -1.06229 11.6072 7.77267
21 2 -3.60633 10.7968 0.0121607
18 2 -1.10772 6.48916 10.6517
25 2 -2.58077 8.39481 12.439
27 2 -3.58601 10.7392 10.7791
50 2 -1.18071 10.4315 8.87352
23 2 -5.95035 10.4897 8.88453
53 2 -1.1775 10.3822 14.2606
111 1 -3.46798 7.20568 13.0446
112 1 -1.68734 7.87508 11.1726
113 1 -4.58006 10.4198 14.7457
114 1 -6.14685 11.6574 13.0998
115 1 -4.58249 10.1729 9.65956
116 1 -3.47676 9.62145 11.9559
117 1 -4.26771 12.0775 11.2329
138 1 0.367538 6.5971 10.0063
145 1 0.356671 6.70434 15.1885
157 1 -1.82442 9.08491 8.13841
159 1 -2.10016 10.9073 10.0719
163 1 1.35199 7.28346 12.8945
165 1 -1.83194 8.98231 13.7288
166 1 0.292807 10.2107 14.7441
167 1 -1.06212 11.3837 12.9954
168 1 -2.11165 10.9984 15.3649
169 1 0.324554 10.1204 9.3865
170 1 1.31129 9.56522 11.8255
12 2 -1.04085 6.54619 15.9054
52 2 2.32218 8.44483 12.4169
34 2 -0.217309 12.6481 12.3786
7 2 -5.16407 12.7112 12.3939
26 2 -6.04608 10.4945 14.1744
196 1 8.50498 5.3758 1.16044
204 1 8.7682 5.439 6.69737
203 1 7.51929 5.92034 4.38221
33 2 6.22291 2.3082 5.4568
198 1 10.6596 3.82249 5.91835
56 2 8.7249 1.93004 3.57777
197 1 8.90052 2.93028 7.63937
193 1 5.66024 4.71552 2.88548
60 2 11.1428 2.38404 5.33494
64 2 9.5931 4.34026 1.83524
65 2 6.14936 6.10342 3.50694
67 2 9.70855 4.23976 7.14442
131 1 5.43855 3.63746 0.461882
136 1 5.59548 3.66882 6.0981
172 1 12.9757 0.595806 2.79356
173 1 8.25013 0.533519 2.91408
174 1 7.62883 2.43569 4.69998
176 1 11.1156 1.15339 1.18806
180 1 12.5737 2.48113 4.64088
181 1 10.1312 1.80796 4.25798
182 1 11.1348 1.29843 6.52223
190 1 8.75436 3.13629 2.52023
191 1 10.6054 3.68838 0.760584
192 1 10.5697 4.84103 3.01806
58 2 12.0072 0.0868383 7.055
57 2 11.1411 2.33048 0.0778162
11 2 11.0171 6.27862 3.5852
2 2 13.5185 1.94613 3.44799
36 2 6.25614 2.23537 10.7079
213 1 8.78949 5.46985 11.7152
212 1 7.65697 6.12744 9.52534
209 1 7.71281 6.1349 14.8326
71 2 6.23725 6.27672 14.2351
59 2 8.74393 1.95862 8.95755
208 1 5.6233 4.92435 13.5053
62 2 8.66299 1.94389 14.1433
63 2 11.1618 2.35545 10.7644
68 2 6.20733 6.23214 8.83147
70 2 9.60696 4.33225 12.5214
207 1 10.4292 4.88618 13.7447
142 1 5.69808 3.71318 11.2797
175 1 12.6198 2.36554 15.4242
177 1 13.0441 0.617508 8.13776
178 1 8.2182 0.532479 8.35348
179 1 7.74785 2.46452 10.0724
183 1 12.9715 0.487372 13.7069
184 1 8.10197 0.55352 13.5444
185 1 10.0791 1.90022 14.8936
186 1 7.63843 2.5054 15.2299
187 1 12.7272 2.38322 10.1272
188 1 10.1894 1.79045 9.64525
189 1 11.1489 1.30715 11.9701
199 1 10.499 4.78675 8.44996
200 1 5.7432 4.75356 8.27458
205 1 8.7007 3.07069 12.9469
206 1 10.6333 3.67258 11.4357
61 2 12.0811 0.0413073 12.4016
30 2 6.24194 2.36989 15.9515
232 1 5.44939 12.135 5.86596
229 1 7.57847 10.8943 4.74425
42 2 3.78564 6.48549 5.30875
75 2 6.10675 10.6414 0.0423936
51 2 1.20239 10.7301 5.29462
230 1 5.12739 10.0952 4.30321
69 2 8.58479 6.46313 5.46105
73 2 7.14577 8.43137 1.73089
74 2 3.68269 10.4827 3.68663
231 1 6.27033 9.69414 6.64877
76 2 7.19698 8.57236 7.1626
78 2 6.10616 10.7434 5.41796
149 1 3.22285 7.89873 0.712012
154 1 0.643977 12.0986 0.54501
156 1 3.31762 7.88893 5.98336
162 1 0.516401 12.03 5.88649
194 1 5.18243 6.64059 4.64383
202 1 10.0426 6.74506 4.72575
214 1 6.40584 7.17395 2.32447
215 1 8.15568 7.97282 0.566435
216 1 8.13754 9.07608 2.85597
217 1 3.04516 9.19283 2.97469
218 1 3.86484 11.4071 2.37979
219 1 2.69967 11.0691 4.79491
221 1 6.1887 9.57389 1.20101
222 1 5.60458 12.1065 0.534811
223 1 6.24588 7.46855 7.81473
224 1 8.10751 7.89772 6.00914
227 1 3.83324 11.5524 7.72018
20 2 8.60509 10.4618 3.54711
55 2 4.66578 12.6416 1.70648
66 2 8.71339 6.54747 0.0675511
45 2 3.69603 6.46187 10.5951
243 1 5.69375 12.2738 11.2435
48 2 1.27174 10.775 15.8843
54 2 1.21888 10.6646 10.6277
72 2 8.666 6.63346 10.6783
77 2 3.75966 10.433 8.90544
79 2 7.05553 8.54741 12.4869
80 2 3.68781 10.3931 14.1554
81 2 6.24442 10.8963 10.6408
164 1 3.22722 7.84493 11.2302
171 1 0.727941 12.0828 11.2066
195 1 10.2142 6.71675 15.566
201 1 5.09708 6.61408 9.85306
210 1 5.1909 6.78912 15.3796
211 1 10.1321 6.78283 10.0642
220 1 7.57115 10.7998 15.3885
225 1 8.10179 9.13076 8.32567
226 1 3.1607 9.12743 8.25287
228 1 2.71991 10.9122 10.0557
233 1 6.16676 7.37411 13.0363
234 1 7.93968 7.93237 11.2795
235 1 8.13853 9.15506 13.483
236 1 3.1132 8.99154 13.6655
237 1 5.06907 10.1311 14.9273
238 1 3.85463 11.4682 12.9631