ITEM: TIMESTEP
0
ITEM: NUMBER OF ATOMS
243
ITEM: BOX BOUNDS xy xz yz pp pp pp
-7.3456000000000001e+00 1.4691300000000000e+01 -7.3456000000000001e+00
0.0000000000000000e+00 1.2723000000000001e+01 0.0000000000000000e+00
0.0000000000000000e+00 1.5963100000000001e+01 0.0000000000000000e+00
ITEM: ATOMS id type x y z
135 1 3.77085 3.02103 7.74974
139 1 2.7791 6.06891 4.21256
132 1 0.599342 4.86252 3.0137
6 2 1.18788 2.30558 5.3735
10 2 -0.342492 4.24886 1.89717
13 2 -0.0563734 4.3795 7.2085
134 1 3.84704 5.49731 1.29941
29 2 3.78369 1.97764 3.57205
140 1 3.76893 5.34116 6.42531
37 2 4.75443 4.26335 1.85865
38 2 1.31023 6.26574 3.51364
120 1 6.2621 1.03915 1.09868
82 1 1.23814 1.13497 1.19043
83 1 0.423388 1.86751 4.05868
84 1 1.20008 1.23186 6.61107
88 1 -1.29022 3.12038 2.60445
89 1 0.504342 3.57273 0.669155
90 1 -1.17899 5.34982 1.16847
91 1 -1.14587 3.35524 7.8062
92 1 0.663067 3.68751 5.99398
93 1 -2.13031 6.05956 4.22267
94 1 -0.886931 5.5246 6.43728
118 1 3.30006 0.647454 2.85001
119 1 2.6895 2.43893 4.78775
31 2 7.10836 0.0354425 7.03558
123 1 5.2615 1.79468 4.07054
124 1 6.19011 1.14349 6.3107
130 1 3.82784 3.11406 2.42186
40 2 4.6297 4.15765 7.04216
146 1 2.96437 6.03663 9.45854
9 2 1.3951 2.35026 10.7261
16 2 -0.040861 4.30228 12.4417
32 2 3.74667 1.87079 8.86828
147 1 3.73718 5.4388 11.909
35 2 3.64241 1.984 14.2314
41 2 1.47005 6.28042 8.93614
43 2 4.62835 4.21918 12.3945
44 2 1.27364 6.23891 14.4433
85 1 0.311753 1.64173 14.6865
86 1 0.348019 1.99666 9.55204
87 1 1.27058 1.25201 11.8869
95 1 -0.926775 3.07571 12.8696
96 1 0.98019 3.77611 11.323
97 1 -2.10438 5.99449 14.8013
98 1 -2.07607 5.90907 9.63223
99 1 -0.943058 5.46888 11.815
121 1 3.03296 0.578547 8.2219
122 1 2.87496 2.33094 10.0943
125 1 3.18603 0.590758 13.6062
126 1 5.10446 1.8894 14.7864
127 1 2.62356 2.53898 15.3214
128 1 5.31333 1.66592 9.30438
129 1 6.35676 1.28191 11.6996
137 1 0.841093 4.86976 8.45043
141 1 3.63402 3.0286 13.0193
143 1 0.644372 4.96475 13.7176
144 1 2.67747 5.8371 15.071
7 2 2.23278 0.0432596 12.4568
14 2 -3.50221 6.07326 8.92759
17 2 -3.55247 6.25224 14.1497
5 2 -1.13404 2.1526 8.85124
34 2 7.09579 0.0583186 12.4553
8 2 -1.12165 1.99097 14.0838
3 2 1.19691 2.24518 15.9574
161 1 1.25413 9.74902 6.60061
160 1 0.324348 10.1021 4.10771
19 2 -2.71811 8.50719 1.73331
15 2 -1.09813 6.62901 5.32041
22 2 -2.49643 8.47735 7.21775
24 2 -3.59267 10.7215 5.38981
46 2 2.38002 8.47174 1.76543
47 2 -1.1563 10.3589 3.51746
49 2 2.15426 8.50846 7.10293
100 1 -3.56727 7.28122 2.36031
101 1 -1.7146 7.89916 0.657708
102 1 -6.01453 11.5773 2.64037
103 1 -3.60348 9.76413 1.28355
104 1 -4.2281 12.2377 0.574038
105 1 -3.40553 7.29943 7.89159
106 1 -1.65283 7.97388 5.97115
107 1 -6.08675 11.5249 7.66601
108 1 -4.48873 10.0629 4.19864
109 1 -3.45937 9.62944 6.59097
110 1 -4.25506 12.0819 5.86406
133 1 0.407684 6.88978 4.72479
148 1 1.44407 7.38704 2.37526
150 1 -1.77108 8.95544 2.98723
151 1 -1.0058 11.4057 2.34668
152 1 -2.12643 10.9287 4.72802
153 1 1.45273 9.59425 1.17574
155 1 1.23744 7.32393 7.73756
158 1 -1.02971 11.5511 7.68296
1 2 -5.12164 12.6773 1.83126
21 2 -3.53874 10.8325 0.0965374
28 2 -0.135008 12.6277 1.83302
4 2 -5.19769 12.6876 7.00286
12 2 -1.26053 6.51234 0.0481032
18 2 -0.968323 6.55424 10.6409
25 2 -2.48846 8.5144 12.2928
27 2 -3.66503 10.6944 10.5654
50 2 -1.10388 10.5627 8.86316
52 2 2.32678 8.53157 12.5719
53 2 -1.1158 10.4393 14.198
111 1 -3.33503 7.29912 12.9062
112 1 -1.51676 7.9978 11.1689
113 1 -4.48743 10.323 14.7644
114 1 -6.00367 11.5974 13.1215
115 1 -4.61171 10.2547 9.3801
116 1 -3.52854 9.538 11.6177
117 1 -4.21688 12.0212 11.3354
138 1 0.484497 6.88087 10.0563
145 1 0.239733 6.81912 15.5176
157 1 -1.48028 9.1657 8.25709
159 1 -2.19613 10.9588 9.97868
163 1 1.47806 7.35053 13.3129
165 1 -1.65813 9.10748 13.4941
166 1 0.429507 10.1742 14.6895
167 1 -1.09386 11.6072 13.1175
168 1 -2.03426 10.7994 15.4431
169 1 0.293206 10.4817 9.68231
170 1 1.46817 9.73014 11.8956
196 1 8.65935 5.38409 1.09588
204 1 8.62126 5.35307 6.41323
203 1 7.72866 5.99594 4.00637
33 2 6.25948 2.29671 5.20997
198 1 10.4281 3.60958 5.84344
56 2 8.66182 1.96492 3.48579
197 1 8.63863 3.07377 7.5719
193 1 5.6774 4.81739 3.02044
60 2 11.0508 2.21191 5.23895
64 2 9.61264 4.24975 1.77435
65 2 6.21068 6.25847 3.56792
67 2 9.57726 4.22941 7.04317
131 1 5.61743 3.6778 0.637141
136 1 5.49669 3.63914 5.78729
172 1 13.0513 0.600129 3.05681
173 1 8.07051 0.584356 2.9913
174 1 7.76894 2.50199 4.69589
176 1 11.3666 1.15058 1.14269
180 1 12.6243 2.41539 4.9025
181 1 10.1831 1.77245 3.98939
182 1 11.0601 0.999933 6.26643
190 1 8.66483 3.06013 2.34034
191 1 10.5123 3.60284 0.602798
192 1 10.5932 4.77315 2.91605
2 2 13.5161 1.94597 3.68031
58 2 12.1329 0.0436974 7.00558
11 2 11.0979 6.21253 3.53381
30 2 6.17717 2.23621 0.0419636
36 2 6.16209 2.27519 10.5348
213 1 8.61154 5.2609 11.7142
212 1 7.72786 5.94241 9.35077
209 1 7.76519 6.01409 14.6486
71 2 6.19393 6.13856 14.1334
59 2 8.55596 2.06856 8.78866
208 1 5.64667 4.76126 13.4737
62 2 8.64042 1.92575 14.2072
63 2 11.0375 2.26992 10.5795
68 2 6.22877 6.13868 8.84254
70 2 9.57742 4.19009 12.3974
207 1 10.5395 4.91734 13.4902
142 1 5.50649 3.59704 11.1874
175 1 12.6297 2.59856 15.2269
177 1 13.0978 0.858315 8.02514
178 1 7.9649 0.719307 8.19803
179 1 7.5431 2.68304 9.85297
183 1 12.9183 0.690246 13.4819
184 1 7.9314 0.60402 13.6992
185 1 10.1832 1.7127 14.7163
186 1 7.67475 2.48323 15.3906
187 1 12.4424 2.46215 9.9321
188 1 9.96132 1.94693 9.52808
189 1 11.1732 1.2235 11.7455
199 1 10.5786 4.80811 8.10257
200 1 5.60401 4.88052 8.1254
205 1 8.67317 2.97761 12.9749
206 1 10.577 3.58849 11.313
57 2 11.2168 2.26798 15.8724
232 1 5.76124 12.136 5.91287
229 1 7.86889 10.7809 4.85612
42 2 3.80219 6.58307 5.37315
39 2 3.80028 6.44859 0.022982
51 2 1.2487 10.6982 5.31267
230 1 5.35628 10.3958 4.04036
69 2 8.65419 6.50088 5.26328
73 2 7.09927 8.47154 1.75931
74 2 3.85292 10.4292 3.53308
231 1 6.3155 9.60094 6.43659
76 2 7.10078 8.38437 7.05407
78 2 6.30718 10.7795 5.28288
149 1 3.22471 7.88888 0.490121
154 1 0.681416 12.0739 0.580886
156 1 3.23368 7.83781 6.05492
162 1 0.762174 12.1223 5.90493
194 1 5.26731 6.7321 4.77915
202 1 10.1177 6.6154 4.72139
214 1 6.17603 7.31125 2.37678
215 1 7.96482 7.8605 0.549546
216 1 8.05067 8.97566 2.91718
217 1 3.40535 9.12154 2.78343
218 1 3.87678 11.6275 2.48648
219 1 2.82124 10.8064 4.73002
221 1 6.15501 9.55924 1.0386
222 1 5.80629 12.0641 0.714902
223 1 6.19217 7.29349 7.73179
224 1 8.0585 7.85968 5.93995
227 1 3.99426 11.6176 7.81488
20 2 8.73173 10.2914 3.62757
55 2 4.86936 12.7113 1.89483
48 2 1.29858 10.6907 15.9327
243 1 5.56485 12.0822 11.1585
23 2 8.60163 10.4026 8.79913
54 2 1.44568 10.823 10.7157
72 2 8.62445 6.41349 10.5937
77 2 3.78691 10.4328 8.86398
79 2 7.1392 8.39785 12.4447
80 2 3.77803 10.564 14.1616
81 2 6.18763 10.7013 10.6452
164 1 3.19545 7.98657 11.2544
171 1 0.804615 12.0905 11.3916
195 1 10.2142 6.75847 15.343
201 1 5.28288 6.61083 10.0531
210 1 5.19998 6.60527 15.2797
211 1 10.1717 6.60383 10.0988
220 1 7.77096 10.7294 15.4446
225 1 7.9984 8.98212 8.26529
226 1 3.17658 9.16934 8.19172
228 1 2.83119 10.982 9.99034
233 1 6.1813 7.27726 13.0574
234 1 7.95803 7.70833 11.283
235 1 8.10555 9.06628 13.5495
236 1 3.37886 9.07919 13.6561
237 1 5.28973 10.5475 14.6732
238 1 3.68581 11.6426 12.9543
239 1 2.73511 10.9169 15.3418
240 1 7.67365 10.835 10.087
241 1 5.2972 10.1485 9.39374
242 1 6.21696 9.57861 11.847
45 2 3.81653 6.55107 10.7343
66 2 8.66954 6.53711 15.8549
61 2 4.68786 12.6927 12.3332
75 2 6.24644 10.7093 15.9246
26 2 8.6922 10.3887 14.1796
ITEM: TIMESTEP
100
ITEM: NUMBER OF ATOMS
243
ITEM: BOX BOUNDS xy xz yz pp pp pp
-7.3456000000000001e+00 1.4691300000000000e+01 -7.3456000000000001e+00
-6.3615000000005750e-03 1.2723000000000001e+01 0.0000000000000000e+00
0.0000000000000000e+00 1.5963100000000001e+01 -6.3615000000005750e-03
ITEM: ATOMS id type x y z
135 1 3.84001 2.95555 7.5728
139 1 2.71609 5.92725 4.18015
132 1 0.739043 4.96897 2.79603
6 2 1.3318 2.23136 5.31269
10 2 -0.247135 4.36559 1.72355
13 2 -0.137693 4.3274 7.09712
134 1 3.99453 5.49251 1.25815
29 2 3.78023 1.88067 3.49591
140 1 3.76696 5.46645 6.62235
37 2 4.74675 4.2157 1.86574
38 2 1.32588 6.29961 3.50561
120 1 6.23979 1.12624 1.11931
82 1 1.41174 1.0635 1.14846
83 1 0.324754 1.67942 4.23258
84 1 1.36339 1.16324 6.48538
88 1 -1.00417 3.12568 2.37742
89 1 0.661341 3.58374 0.645742
90 1 -1.2116 5.50658 1.15106
91 1 -1.09105 3.29713 7.80778
92 1 0.798963 3.68875 5.98044
93 1 -2.15042 6.12686 4.21822
94 1 -1.0116 5.63226 6.57922
118 1 3.08277 0.606755 2.89385
119 1 2.85482 2.32936 4.75309
2 2 -1.07141 1.94826 3.53465
123 1 5.26682 1.81495 4.06036
124 1 6.33826 1.13828 6.3928
130 1 3.71662 3.15552 2.50089
40 2 4.66604 4.20845 7.14166
11 2 -3.56891 6.2231 3.54409
3 2 1.27525 2.22297 0.0652304
146 1 2.87326 6.08514 9.4015
9 2 1.36782 2.28718 10.678
16 2 -0.0330293 4.2734 12.4414
32 2 3.73364 1.94764 8.78677
147 1 3.75911 5.48698 11.9002
35 2 3.62318 2.0025 14.1893
41 2 1.38228 6.29661 8.8746
43 2 4.69007 4.26754 12.3499
14 2 -3.54614 6.24799 8.92338
85 1 0.224889 1.68815 14.9257
86 1 0.367877 1.86265 9.47317
87 1 1.44681 1.1072 11.7633
95 1 -0.880773 3.05181 13.0857
96 1 0.95245 3.63553 11.4028
97 1 -2.15796 5.95726 14.8172
98 1 -2.03752 6.09234 9.46587
99 1 -0.999427 5.36925 11.7494
121 1 3.10516 0.535822 8.2689
122 1 2.7348 2.5327 9.88693
125 1 3.03944 0.583124 13.668
126 1 5.02132 1.80742 14.9611
127 1 2.60225 2.47025 15.2711
128 1 5.17436 1.62361 9.44949
129 1 6.275 1.2535 11.8674
137 1 0.824221 4.99997 8.13728
141 1 3.84339 3.12363 13.0346
143 1 0.814708 4.98711 13.5757
144 1 2.72852 5.96364 14.9735
34 2 7.11901 0.0205075 12.5046
5 2 -1.10272 2.11595 8.86804
44 2 1.34282 6.34614 14.2735
161 1 1.36236 9.58639 6.48781
160 1 0.310368 10.187 4.19458
19 2 -2.66749 8.46381 1.79938
15 2 -1.1444 6.66615 5.38982
22 2 -2.61274 8.55486 7.20139
24 2 -3.6689 10.7423 5.35632
46 2 2.38069 8.52656 1.74686
47 2 -1.13183 10.4063 3.59729
49 2 2.37884 8.54058 7.0224
100 1 -3.51306 7.30336 2.39422
101 1 -1.97645 7.89295 0.491291
102 1 -5.7845 11.4093 2.37548
103 1 -3.55011 9.60738 1.25266
104 1 -4.06002 12.0471 0.588784
105 1 -3.47158 7.34542 7.73874
106 1 -1.70769 8.04356 5.97152
107 1 -6.12087 11.5158 7.65925
108 1 -4.61064 10.1215 4.21384
109 1 -3.55669 9.71101 6.5693
110 1 -4.27751 12.044 5.99278
133 1 0.236305 6.75366 4.57173
148 1 1.53235 7.37003 2.25808
150 1 -1.7174 9.07124 2.92387
151 1 -1.11595 11.5491 2.42568
152 1 -2.19986 10.9478 4.6916
153 1 1.47581 9.74269 1.19734
155 1 1.50252 7.37133 7.64921
158 1 -1.0595 11.51 7.65949
1 2 -5.00792 12.6271 1.72556
21 2 -3.54498 10.6507 0.043406
28 2 -0.283248 12.6832 1.77457
4 2 -5.15376 12.68 7.11655
31 2 -0.154331 12.6809 7.01807
18 2 -1.04659 6.57455 10.6752
25 2 -2.6099 8.48772 12.4598
27 2 -3.6029 10.7055 10.6041
50 2 -1.09605 10.4818 8.89783
7 2 -5.15303 12.6009 12.5233
53 2 -1.08836 10.5572 14.3221
111 1 -3.52875 7.26401 13.0276
112 1 -1.63237 7.92917 11.336
113 1 -4.51131 10.2515 14.8085
114 1 -6.09488 11.5154 13.2171
115 1 -4.58735 10.1791 9.5095
116 1 -3.49971 9.65957 11.7859
117 1 -4.23259 11.9837 11.3427
138 1 0.420771 6.65713 10.066
145 1 0.233572 6.71175 15.4017
157 1 -1.72458 9.10484 8.40192
159 1 -2.15971 11.0315 10.0169
163 1 1.46134 7.48349 13.1025
165 1 -1.73056 9.23111 13.6003
166 1 0.40721 10.2831 14.8139
167 1 -1.11636 11.6111 13.1298
168 1 -2.0903 10.9251 15.4984
169 1 0.346041 10.3784 9.57357
170 1 1.42802 9.74626 11.9105
23 2 -6.02424 10.4328 8.90287
12 2 -1.28435 6.54551 15.9416
196 1 8.81004 5.38195 0.965502
204 1 8.82789 5.50696 6.57595
203 1 7.67848 5.98183 4.16856
33 2 6.17808 2.24567 5.27701
198 1 10.6172 3.6447 5.92027
56 2 8.63657 1.96779 3.46511
197 1 8.67091 3.06905 7.58111
193 1 5.66035 4.78776 3.05806
60 2 11.0882 2.26315 5.19344
64 2 9.61257 4.19932 1.70991
65 2 6.16629 6.17734 3.61333
67 2 9.663 4.27958 7.13401
131 1 5.63034 3.55668 0.71587
136 1 5.67265 3.64551 5.94529
172 1 12.9268 0.673337 2.88527
173 1 8.01862 0.671178 2.84737
174 1 7.65567 2.44315 4.61459
176 1 11.247 1.13521 1.04961
180 1 12.5787 2.5491 4.61831
181 1 10.073 1.81465 4.05442
182 1 11.1618 1.09704 6.25281
190 1 8.73196 3.06303 2.3635
191 1 10.5486 3.61908 0.5868
192 1 10.531 4.94657 2.84948
58 2 12.0669 0.0435436 7.07878
36 2 6.10246 2.28895 10.5216
213 1 8.74882 5.27016 11.9054
212 1 7.69239 5.81012 9.54047
209 1 7.65321 6.19378 14.7838
71 2 6.20011 6.17986 14.0662
59 2 8.65423 2.02669 8.80643
208 1 5.75315 4.83201 13.386
62 2 8.63398 1.94432 14.1903
63 2 11.0814 2.21307 10.5645
68 2 6.24643 6.08069 9.01314
70 2 9.75381 4.11402 12.3948
207 1 10.4409 4.81206 13.6643
142 1 5.42448 3.73667 10.9653
175 1 12.5298 2.5003 15.2208
177 1 12.9326 0.734565 8.27905
178 1 8.07947 0.679347 8.1706
179 1 7.62818 2.52117 9.96538
183 1 12.9271 0.652721 13.4561
184 1 8.08343 0.489612 13.6662
185 1 10.0301 1.81396 14.9119
186 1 7.53145 2.48837 15.1712
187 1 12.6161 2.4112 10.1729
188 1 10.1375 1.78739 9.34135
189 1 11.1197 1.09498 11.719
199 1 10.5653 4.90264 8.31171
200 1 5.57669 4.81847 8.27131
205 1 8.83984 2.92137 12.925
206 1 10.5958 3.60684 11.215
57 2 11.1648 2.3049 15.9397
8 2 13.532 1.91172 14.1586
17 2 11.0468 6.2124 14.1938
30 2 6.12198 2.22838 15.9355
232 1 5.76027 12.0738 6.02923
229 1 7.63438 10.8067 4.70536
42 2 3.73919 6.41724 5.34393
39 2 3.74213 6.51021 0.0727324
51 2 1.35915 10.703 5.30147
230 1 5.20057 10.2862 4.21753
69 2 8.65508 6.49916 5.35824
73 2 7.09554 8.418 1.7763
74 2 3.78927 10.431 3.54467
231 1 6.15593 9.53582 6.46793
76 2 7.09176 8.41507 7.16468
78 2 6.17537 10.6695 5.42778
149 1 3.23021 7.9051 0.562852
154 1 0.766958 12.2111 0.678219
156 1 3.10069 7.87834 5.76904
162 1 0.789075 12.1318 5.88725
194 1 5.25103 6.60446 4.81255
202 1 10.0431 6.68069 4.68166
214 1 6.27748 7.22523 2.4369
215 1 8.09196 7.89429 0.705847
216 1 7.93264 9.1092 2.89483
217 1 3.30277 9.13082 2.85465
218 1 3.79701 11.5343 2.40988
219 1 2.79151 10.8627 4.67641
221 1 6.15866 9.48247 1.13369
222 1 5.76162 12.0533 0.67748
223 1 6.41558 7.21941 7.95134
224 1 7.92075 7.74879 5.97448
227 1 3.83114 11.5554 7.63503
20 2 8.6863 10.3906 3.53601
55 2 4.71778 12.6418 1.76072
75 2 6.21238 10.6442 0.0400278
48 2 1.37436 10.8366 15.9432
243 1 5.63785 12.0726 11.23
26 2 8.67715 10.3171 14.2335
54 2 1.36572 10.8172 10.7258
72 2 8.64292 6.37877 10.7308
77 2 3.69751 10.5083 8.83736
79 2 7.19449 8.42755 12.3727
80 2 3.82898 10.4425 14.2126
81 2 6.19613 10.7581 10.5244
164 1 3.27285 7.94078 11.2199
171 1 0.74693 12.2004 11.334
195 1 10.0873 6.85329 15.2774
201 1 5.32994 6.60985 10.2084
210 1 5.14204 6.53674 15.17
211 1 10.1056 6.66657 10.0734
220 1 7.74145 10.7536 15.4416
225 1 8.16756 9.08354 8.15567
226 1 3.20599 9.10665 8.19484
228 1 2.75691 10.9647 9.98363
233 1 6.21593 7.34082 12.9834
234 1 8.13862 7.80275 11.2861
235 1 8.08467 8.99616 13.5383
236 1 3.38134 9.1067 13.5426
237 1 5.30338 10.2234 14.7666
238 1 3.83815 11.5097 13.002
239 1 2.8425 11.0231 15.3394
240 1 7.60544 11.0079 9.92283
241 1 5.20512 10.3034 9.36317
242 1 6.3359 9.59185 11.6457
45 2 3.81621 6.52175 10.6352
66 2 8.66471 6.59608 15.9059
61 2 4.68939 12.685 12.3101
52 2 2.39043 8.58938 12.4135
ITEM: TIMESTEP
200
ITEM: NUMBER OF ATOMS
243
ITEM: BOX BOUNDS xy xz yz pp pp pp
-7.3456000000000001e+00 1.4691300000000000e+01 -7.3456000000000001e+00
-1.2722999999999374e-02 1.2723000000000001e+01 0.0000000000000000e+00
0.0000000000000000e+00 1.5963100000000001e+01 -1.2722999999999374e-02
ITEM: ATOMS id type x y z
135 1 3.95392 3.04154 7.82058
139 1 2.6781 6.01751 4.1663
132 1 0.777463 4.86308 2.87367
6 2 1.2047 2.16635 5.32733
10 2 -0.0783852 4.26514 1.67446
13 2 -0.22545 4.19538 7.04328
134 1 3.78145 5.46077 1.1455
29 2 3.69222 1.94109 3.57739
140 1 3.86297 5.31803 6.39992
37 2 4.62321 4.26335 1.7665
38 2 1.32101 6.23329 3.49038
120 1 6.31638 1.30663 1.18214
82 1 1.5519 1.2103 1.22164
83 1 0.341093 1.7035 4.03696
84 1 1.32727 1.1045 6.46808
88 1 -0.958652 3.07343 2.24733
89 1 0.726351 3.62424 0.459856
90 1 -0.961937 5.44694 1.05975
91 1 -1.12164 3.05896 7.63197
92 1 0.483887 3.45373 5.76918
93 1 -2.26306 6.02788 4.23874
94 1 -0.979373 5.42742 6.40864
118 1 3.29988 0.522574 2.93857
119 1 2.71271 2.52952 4.68502
2 2 -1.08667 2.0038 3.45873
123 1 5.11715 1.72918 4.29145
124 1 6.33242 1.14963 6.50691
130 1 3.87279 2.93396 2.33799
40 2 4.85482 4.24278 7.20252
31 2 7.20479 0.0214848 7.15377
28 2 7.1491 0.125175 1.78154
4 2 2.35495 0.0540567 7.05085
146 1 2.7425 6.09377 9.51624
9 2 1.31232 2.28429 10.5446
16 2 -0.116555 4.18573 12.3145
32 2 3.80139 1.95006 8.91804
147 1 3.72435 5.37193 11.7738
35 2 3.72684 1.9555 14.123
41 2 1.25911 6.16481 8.8991
43 2 4.68678 4.2221 12.347
14 2 -3.57221 6.2527 8.84618
85 1 0.24662 1.60936 14.942
86 1 0.269155 1.81909 9.41764
87 1 1.31191 1.1568 11.7091
95 1 -0.952261 3.00193 13.0906
96 1 0.73155 3.65186 11.0961
97 1 -2.12641 5.98676 14.7399
98 1 -2.12495 6.30712 9.46093
99 1 -1.00728 5.33836 11.6726
121 1 3.26382 0.657329 8.20772
122 1 2.85246 2.26649 10.127
125 1 3.16164 0.572967 13.5524
126 1 5.23448 1.73447 14.7685
127 1 2.71994 2.43485 15.2459
128 1 5.20566 1.64926 9.52242
129 1 6.27696 1.15463 11.788
137 1 0.733703 4.82997 8.19202
141 1 3.89251 3.07549 13.0258
143 1 0.737124 4.87811 13.482
144 1 2.71826 6.07062 14.7916
7 2 2.179 0.0271171 12.3984
44 2 1.27238 6.2596 14.068
3 2 1.29634 2.23006 15.9056
161 1 1.50816 9.68905 6.4123
160 1 0.278032 10.4031 4.16529
19 2 -2.6453 8.50626 1.74545
15 2 -1.19359 6.52402 5.3189
22 2 -2.68701 8.50496 7.07138
24 2 -3.72167 10.7165 5.31528
46 2 2.32059 8.52935 1.76705
47 2 -1.16018 10.48 3.54635
49 2 2.31243 8.50267 7.11662
100 1 -3.48948 7.3375 2.4174
101 1 -1.72874 7.80649 0.680987
102 1 -5.96617 11.5458 2.40895
103 1 -3.57914 9.67812 1.17419
104 1 -4.22256 12.1387 0.49846
105 1 -3.5394 7.3251 7.66167
106 1 -1.68974 7.84043 5.98815
107 1 -5.84514 11.5333 7.69156
108 1 -4.69201 10.1167 4.19412
109 1 -3.56772 9.7119 6.54007
110 1 -4.2393 12.1437 5.81034
133 1 0.284121 6.74328 4.61852
148 1 1.3681 7.35067 2.37599
150 1 -1.66062 9.17552 2.80988
151 1 -1.11661 11.7036 2.46388
152 1 -2.23131 10.7497 4.66858
153 1 1.39321 9.75075 1.09279
155 1 1.43083 7.30852 7.77015
158 1 -1.04523 11.5845 7.76633
1 2 -4.97973 12.6727 1.83105
21 2 -3.60994 10.7606 0.00456815
18 2 -1.12201 6.5292 10.6495
25 2 -2.55548 8.42497 12.5474
27 2 -3.56203 10.7389 10.7538
50 2 -1.18097 10.4642 8.92567
26 2 -6.01958 10.4336 14.2331
53 2 -1.09725 10.4856 14.1933
111 1 -3.52539 7.28028 13.1427
112 1 -1.52053 7.75632 11.5396
113 1 -4.55305 10.1591 14.8256
114 1 -5.98984 11.531 13.0554
115 1 -4.52728 10.345 9.55939
116 1 -3.42531 9.55187 11.8257
117 1 -4.16819 12.0944 11.3419
138 1 0.259811 6.66859 9.95067
145 1 0.293221 6.8128 15.1446
157 1 -1.86094 9.15616 8.23544
159 1 -2.13495 10.9783 10.059
163 1 1.49615 7.31024 12.9148
165 1 -1.61769 9.08372 13.6632
166 1 0.431624 10.2887 14.6378
167 1 -1.15499 11.5619 13.0252
168 1 -2.16362 10.8627 15.3657
169 1 0.261027 10.0826 9.50011
170 1 1.42384 9.77271 11.8366
12 2 -1.11434 6.51468 15.8746
52 2 2.28992 8.5673 12.3725
34 2 -0.157495 12.6921 12.4643
23 2 -5.94626 10.4483 8.90617
196 1 8.80959 5.46671 1.17479
204 1 8.87522 5.38062 6.57415
203 1 7.63614 5.80104 4.4035
33 2 6.18039 2.20517 5.33706
198 1 10.6345 3.65542 5.99766
56 2 8.62556 2.09924 3.49289
197 1 8.66321 3.12327 7.75325
193 1 5.63446 4.66459 2.98498
60 2 11.1663 2.3479 5.3042
64 2 9.69557 4.26789 1.81097
65 2 6.25786 5.96896 3.61604
67 2 9.70366 4.19945 7.18357
131 1 5.55982 3.6859 0.578141
136 1 5.74744 3.63068 5.9675
172 1 13.103 0.650647 2.80644
173 1 8.14754 0.697373 2.92377
174 1 7.55572 2.52471 4.62504
176 1 11.0591 1.17107 1.16439
180 1 12.5677 2.46488 4.6014
181 1 9.97893 2.05502 4.28722
182 1 11.3182 1.30176 6.48899
190 1 8.77308 3.09775 2.23337
191 1 10.723 3.62047 0.76499
192 1 10.4025 4.84143 3.1365
58 2 12.0438 0.0211601 7.08326
55 2 12.0764 0.0700298 1.74426
11 2 11.0089 6.22386 3.59332
57 2 11.0052 2.23388 0.0369571
36 2 6.21112 2.14813 10.6048
213 1 8.85532 5.46878 11.8934
212 1 7.7338 5.73528 9.56868
209 1 7.70935 6.02082 14.6958
71 2 6.25637 6.2511 14.05
59 2 8.73731 1.93738 8.82665
208 1 5.63661 5.00816 13.3889
62 2 8.5554 1.95846 14.1695
63 2 11.143 2.31385 10.6944
68 2 6.26464 6.11412 9.01995
70 2 9.66702 4.17597 12.4446
207 1 10.49 4.77388 13.6626
142 1 5.61342 3.55401 11.1382
175 1 12.4278 2.29938 15.3913
177 1 12.9735 0.570428 8.22541
178 1 8.2725 0.576278 8.16368
179 1 7.65428 2.24509 9.96458
183 1 12.9647 0.649303 13.5545
184 1 8.14495 0.491458 13.594
185 1 9.92594 1.79363 14.9208
186 1 7.54862 2.52386 15.2893
187 1 12.6097 2.46145 10.0352
188 1 10.1394 1.97064 9.5293
189 1 11.0525 1.07209 11.7118
199 1 10.7071 4.85266 8.29979
200 1 5.69831 4.75419 8.40019
205 1 8.77898 2.9651 12.9749
206 1 10.6639 3.70203 11.332
17 2 11.0629 6.12753 14.2137
30 2 6.08962 2.30385 15.9321
61 2 12.066 0.0395542 12.3668
5 2 13.5202 1.99261 8.80455
8 2 13.5023 1.96941 14.2641
232 1 5.64593 12.0392 6.02834
229 1 7.636 11.1081 4.8245
42 2 3.71801 6.44343 5.2834
75 2 6.18085 10.6042 0.140842
51 2 1.31453 10.8169 5.27068
230 1 5.13108 10.2216 4.2552
69 2 8.59312 6.46363 5.47572
73 2 7.13001 8.36103 1.90682
74 2 3.74172 10.4667 3.52833
231 1 6.36154 9.65467 6.55455
76 2 7.14929 8.43582 7.19482
78 2 6.17396 10.7027 5.39539
149 1 3.24671 7.8556 0.64005
154 1 0.743111 12.1596 0.550467
156 1 3.20614 7.83719 5.9511
162 1 0.696611 12.1532 5.9154
194 1 5.17499 6.59616 4.58081
202 1 10.0267 6.84021 4.74737
214 1 6.41814 7.08833 2.51664
215 1 8.03835 7.77866 0.694927
216 1 7.97804 9.07621 3.09837
217 1 3.03982 9.16588 3.01242
218 1 3.89422 11.6024 2.41045
219 1 2.68351 10.984 4.62861
221 1 6.19073 9.53789 1.36981
222 1 5.58776 12.0792 0.596135
223 1 6.37002 7.14912 7.80456
224 1 8.08147 7.84913 6.02975
227 1 3.73963 11.7495 7.78236
20 2 8.56514 10.4789 3.59739
48 2 1.33175 10.783 15.8593
243 1 5.66409 12.1879 11.2397
39 2 3.79167 6.52412 15.9091
54 2 1.25443 10.7517 10.5823
72 2 8.70457 6.42412 10.6629
77 2 3.74636 10.5596 8.81775
79 2 7.22082 8.49469 12.345
80 2 3.81599 10.382 14.1629
81 2 6.27771 10.8222 10.6067
164 1 3.14187 7.86947 11.257
171 1 0.626345 12.1103 11.1705
195 1 10.1236 6.6272 15.3835
201 1 5.26571 6.65262 10.1931
210 1 5.33556 6.66559 15.3048
211 1 10.1035 6.69639 9.96749
220 1 7.71106 10.8155 15.5136
225 1 8.04676 9.03719 8.43992
226 1 3.29204 9.16759 8.14204
228 1 2.71211 10.8914 9.95044
233 1 6.19527 7.40788 12.9335
234 1 8.10977 7.78138 11.2025
235 1 8.09246 9.12578 13.5044
236 1 3.2168 9.10277 13.539
237 1 5.29088 10.2206 14.8065
238 1 4.01391 11.4425 13.0043
239 1 2.8117 10.9381 15.2704
240 1 7.73905 10.9617 10.0196
241 1 5.22058 10.4433 9.47021
242 1 6.34136 9.70846 11.6974
45 2 3.76683 6.52889 10.704
66 2 8.67754 6.50331 15.9176
ITEM: TIMESTEP
300
ITEM: NUMBER OF ATOMS
243
ITEM: BOX BOUNDS xy xz yz pp pp pp
-7.3456000000000001e+00 1.4691300000000000e+01 -7.3456000000000001e+00
-1.9084499999999949e-02 1.2723000000000001e+01 0.0000000000000000e+00
0.0000000000000000e+00 1.5963100000000001e+01 -1.9084499999999949e-02
ITEM: ATOMS id type x y z
135 1 3.75507 3.14889 7.9635
139 1 2.69475 6.14748 4.25687
132 1 0.88 4.69664 2.91736
6 2 1.19618 2.2391 5.22923
10 2 -0.0672729 4.17482 1.69652
13 2 -0.295127 4.19153 7.07277
134 1 3.65125 5.38557 1.14629
29 2 3.75297 1.98485 3.53271
140 1 3.84807 5.44447 6.56511
37 2 4.6251 4.24069 1.69748
38 2 1.32299 6.16572 3.45582
120 1 6.39709 1.29521 1.17026
82 1 1.30304 1.23503 1.14682
83 1 0.256137 1.64123 4.05683
84 1 1.20125 1.10974 6.36533
88 1 -1.04338 3.10905 2.38101
89 1 0.842057 3.62637 0.503899
90 1 -0.819137 5.49517 1.07328
91 1 -1.17909 3.08476 7.75705
92 1 0.705116 3.62278 5.91719
93 1 -2.16237 6.03042 4.18454
94 1 -1.18014 5.32035 6.50086
118 1 3.22944 0.609827 2.89922
119 1 2.69291 2.37359 4.66881
1 2 2.15534 0.0652321 1.8015
123 1 5.12507 1.85215 4.40858
124 1 6.41977 1.29084 6.71561
130 1 3.77956 3.09503 2.39413
40 2 4.67197 4.22726 7.23544
31 2 7.25454 0.0342175 7.20251
28 2 7.24865 0.093548 1.74093
4 2 2.2411 0.0267454 6.98226
146 1 2.78323 5.86527 9.40098
9 2 1.33546 2.2057 10.6265
16 2 -0.226503 4.15168 12.3225
32 2 3.8695 1.86735 8.92752
147 1 3.75926 5.40026 11.7533
35 2 3.85563 1.98098 14.1192
41 2 1.29352 6.14646 8.75633
43 2 4.73751 4.32461 12.3948
14 2 -3.57836 6.28758 8.89627
85 1 0.419559 1.60468 14.7931
86 1 0.432572 1.78408 9.35371
87 1 1.24184 1.14308 11.8016
95 1 -1.02934 2.97716 13.0888
96 1 0.676134 3.55133 11.1805
97 1 -2.04623 5.95414 14.7835
98 1 -2.07502 6.07551 9.47041
99 1 -1.1857 5.25192 11.6969
121 1 3.22175 0.674817 8.0625
122 1 2.81451 2.23652 10.086
125 1 3.29847 0.608707 13.5197
126 1 5.26047 1.52385 14.7918
127 1 2.90948 2.4227 15.3096
128 1 5.27425 1.67113 9.52252
129 1 6.34097 1.14244 11.9182
137 1 0.708661 4.73922 8.19468
141 1 3.97256 2.98643 12.9061
143 1 0.760262 4.81213 13.3914
144 1 2.8034 6.09767 14.672
7 2 2.20129 -0.00722927 12.388
44 2 1.32382 6.15931 14.0827
3 2 1.36598 2.21653 15.8794
8 2 -1.08942 1.9107 14.2608
5 2 -1.087 1.91159 8.84904
17 2 -3.55798 6.16208 14.342
161 1 1.3387 9.65277 6.40006
160 1 0.354817 10.2681 4.08177
19 2 -2.56253 8.47153 1.68365
15 2 -1.20619 6.47581 5.39124
22 2 -2.72774 8.44591 7.00314
24 2 -3.58603 10.7525 5.19613
46 2 2.22132 8.50485 1.74739
47 2 -1.10491 10.5179 3.42848
49 2 2.25641 8.52944 7.06791
100 1 -3.53872 7.4036 2.40203
101 1 -1.62654 7.90692 0.511981
102 1 -6.15683 11.6458 2.43658
103 1 -3.49051 9.63139 1.02945
104 1 -4.25173 12.0041 0.734245
105 1 -3.63295 7.23932 7.60585
106 1 -1.81163 7.88546 5.79873
107 1 -5.81967 11.4936 7.65791
108 1 -4.50952 10.2823 3.97573
109 1 -3.594 9.57137 6.31867
110 1 -4.20556 12.0467 5.87508
133 1 0.243748 6.60424 4.64953
148 1 1.26931 7.24341 2.27995
150 1 -1.67067 9.18541 2.79243
151 1 -1.04779 11.7078 2.40384
152 1 -2.05772 11.0437 4.66496
153 1 1.29546 9.51768 0.937375
155 1 1.27257 7.34984 7.65969
158 1 -1.03639 11.5987 7.7733
18 2 -1.06078 6.4463 10.6008
25 2 -2.60679 8.40471 12.4612
27 2 -3.55305 10.7245 10.7768
50 2 -1.18301 10.4153 8.85259
26 2 -6.01894 10.491 14.179
53 2 -1.16709 10.3589 14.2636
111 1 -3.46605 7.1842 13.0126
112 1 -1.69242 7.81397 11.2058
113 1 -4.54703 10.37 14.7248
114 1 -6.09731 11.6579 13.1237
115 1 -4.56685 10.1564 9.65969
116 1 -3.4775 9.61794 11.9517
117 1 -4.23814 12.0643 11.2308
138 1 0.410705 6.59085 10.0123
145 1 0.428467 6.73418 15.2373
157 1 -1.80932 9.0689 8.14019
159 1 -2.08719 10.8797 10.0562
163 1 1.37143 7.25833 12.9101
165 1 -1.8325 8.96541 13.7529
166 1 0.324155 10.2241 14.7087
167 1 -1.07313 11.335 12.9822
168 1 -2.09438 10.9926 15.3643
169 1 0.321153 10.133 9.41852
170 1 1.2989 9.52328 11.8248
12 2 -1.00307 6.55727 15.8891
52 2 2.32862 8.43289 12.3997
34 2 -0.207377 12.5964 12.3531
23 2 -5.94744 10.476 8.88071
21 2 -3.58495 10.7747 15.9527
196 1 8.51842 5.33232 1.13647
204 1 8.78162 5.43648 6.72172
203 1 7.56592 5.89178 4.40768
33 2 6.22364 2.30038 5.44993
198 1 10.624 3.74205 5.98917
56 2 8.7278 1.90732 3.59315
197 1 8.80748 2.9181 7.57688
193 1 5.59344 4.82938 2.82551
60 2 11.152 2.35744 5.31978
64 2 9.61908 4.28468 1.81964
65 2 6.24575 6.13797 3.51112
67 2 9.68175 4.20905 7.19575
131 1 5.407 3.54141 0.489367
136 1 5.59861 3.6576 6.08379
172 1 12.9915 0.573739 2.81046
173 1 8.24449 0.532384 2.9012
174 1 7.62619 2.44794 4.69091
176 1 11.1404 1.154 1.20626
180 1 12.587 2.47616 4.64555
181 1 10.1417 1.812 4.22759
182 1 11.1598 1.28379 6.50984
190 1 8.75349 3.09735 2.48803
191 1 10.638 3.74454 0.726684
192 1 10.5513 4.89128 2.94483
58 2 12.0015 0.0731833 7.06583
57 2 11.1409 2.35811 0.103843
2 2 13.5396 1.93756 3.44152
11 2 11.0493 6.28724 3.60192
36 2 6.29189 2.20534 10.7063
213 1 8.82123 5.43378 11.7137
212 1 7.69992 6.05555 9.49755
209 1 7.69824 6.09067 14.8284
71 2 6.22242 6.26291 14.241
59 2 8.75169 1.98873 8.91394
208 1 5.61823 4.91457 13.5115
62 2 8.67223 1.91481 14.1434
63 2 11.1709 2.36933 10.7855
68 2 6.2647 6.22623 8.8749
70 2 9.64938 4.29378 12.4924
207 1 10.4951 4.8105 13.7422
142 1 5.6917 3.65799 11.3002
175 1 12.6149 2.34891 15.4335
177 1 13.0294 0.588021 8.14826
178 1 8.22606 0.571791 8.33925
179 1 7.76694 2.47393 10.0497
183 1 12.973 0.450463 13.7125
184 1 8.09006 0.555734 13.5393
185 1 10.0896 1.88742 14.8988
186 1 7.65399 2.49618 15.2129
187 1 12.7085 2.36089 10.118
188 1 10.1881 1.83407 9.65937
189 1 11.1666 1.33211 12.0076
199 1 10.5009 4.7715 8.48619
200 1 5.74367 4.78258 8.25767
205 1 8.73851 3.00842 12.9041
206 1 10.6976 3.73634 11.3808
61 2 12.077 0.0372541 12.4072
30 2 6.23364 2.27493 15.8819
232 1 5.47434 12.1249 5.87274
229 1 7.59655 10.8915 4.75216
42 2 3.74516 6.48347 5.33496
75 2 6.1374 10.6426 0.0532189
51 2 1.23529 10.7329 5.30916
230 1 5.15263 10.099 4.31477
69 2 8.60292 6.45476 5.47035
73 2 7.16258 8.43659 1.73388
74 2 3.71055 10.4919 3.69114
231 1 6.28729 9.70785 6.65933
76 2 7.22329 8.58382 7.15706
78 2 6.12778 10.7344 5.41275
149 1 3.24093 7.89209 0.687306
154 1 0.660243 12.1051 0.541836
156 1 3.32367 7.8847 5.99124
162 1 0.543123 12.0309 5.89006
194 1 5.21041 6.65664 4.68073
202 1 10.0709 6.74897 4.74378
214 1 6.44689 7.21287 2.36694
215 1 8.15346 7.95645 0.57912
216 1 8.15619 9.08001 2.85827
217 1 3.05364 9.19353 2.94389
218 1 3.87726 11.4302 2.3975
219 1 2.7305 11.0541 4.79495
221 1 6.19659 9.56881 1.20924
222 1 5.61288 12.0885 0.54757
223 1 6.29281 7.47042 7.85332
224 1 8.12379 7.88342 6.01242
227 1 3.84183 11.5475 7.72608
20 2 8.62011 10.4607 3.5506
55 2 4.69476 12.6292 1.7203
66 2 8.71519 6.5469 0.0470195
48 2 1.26624 10.7659 15.8912
243 1 5.70614 12.2258 11.269
45 2 3.69986 6.45122 10.5948
54 2 1.26497 10.6333 10.654
72 2 8.635 6.61534 10.6472
77 2 3.77401 10.4299 8.90979
79 2 7.06657 8.53803 12.4884
80 2 3.72823 10.3897 14.1665
81 2 6.2818 10.8818 10.6321
164 1 3.22076 7.83919 11.2095
171 1 0.782811 12.0867 11.1753
195 1 10.1923 6.7278 15.5165
201 1 5.11936 6.60268 9.86674
210 1 5.17984 6.75361 15.4086
211 1 10.1182 6.79003 10.0448
220 1 7.60396 10.7805 15.3951
225 1 8.12929 9.10337 8.34332
226 1 3.18417 9.12316 8.25026
228 1 2.74616 10.8944 10.0696
233 1 6.17452 7.35592 13.0346
234 1 7.93754 7.92289 11.2687
235 1 8.14658 9.15148 13.4893
236 1 3.11923 9.03567 13.5965
237 1 5.10449 10.1 14.9255
238 1 3.87249 11.4939 13.0038