ITEM: TIMESTEP
0
ITEM: NUMBER OF ATOMS
243
ITEM: BOX BOUNDS xy xz yz pp pp pp
-7.3456000000000001e+00 1.4691300000000000e+01 -7.3456000000000001e+00
0.0000000000000000e+00 1.2723000000000001e+01 0.0000000000000000e+00
0.0000000000000000e+00 1.5963100000000001e+01 0.0000000000000000e+00
ITEM: ATOMS id type x y z
134 1 3.79307 5.62945 1.22538
139 1 2.84915 6.14883 4.03709
31 2 7.1154 0.0202689 7.01734
6 2 1.47918 2.35454 5.33539
10 2 -0.0397982 4.28614 1.74312
13 2 -0.226776 4.28715 7.03388
93 1 -2.03386 6.11276 4.04481
29 2 3.84138 2.10353 3.50832
140 1 3.86572 5.4476 6.45084
1 2 2.28378 0.111152 1.7336
37 2 4.71626 4.40254 1.76119
40 2 4.7212 4.31541 7.12148
82 1 1.30205 1.24783 1.14951
83 1 0.450221 1.81378 4.21593
84 1 1.7057 1.24249 6.47239
88 1 -0.805621 3.10124 2.39925
89 1 0.947866 3.68999 0.660708
90 1 -0.840433 5.50469 1.12237
91 1 -1.17304 3.24337 7.77253
92 1 0.683064 3.57576 5.9709
135 1 3.85207 3.21437 7.89294
94 1 -0.998675 5.44752 6.26287
118 1 3.24665 0.689869 2.90145
119 1 2.9307 2.67339 4.71555
120 1 6.14964 1.13728 0.99193
123 1 5.35975 2.02117 4.06932
124 1 6.23364 1.17901 6.38083
130 1 3.73735 3.23321 2.31805
132 1 0.870275 4.93765 2.9555
2 2 -0.971043 2.00379 3.51177
28 2 7.11339 0.138599 1.76996
41 2 1.33094 6.20177 8.846
9 2 1.28535 2.29902 10.5993
16 2 -0.113228 4.29919 12.33
32 2 3.80474 1.98873 8.89948
14 2 -3.60765 6.28635 8.75149
35 2 3.7977 2.01186 14.0514
7 2 2.3043 0.0266733 12.3447
43 2 4.7196 4.31198 12.4145
44 2 1.41777 6.28958 14.1171
85 1 0.423599 1.77005 14.7745
86 1 0.359343 1.8024 9.31302
87 1 1.33269 1.24002 11.7668
95 1 -0.872473 3.07583 13.0059
96 1 0.700623 3.6887 11.0735
97 1 -2.06682 5.97449 14.9366
98 1 -2.17584 6.06799 9.42475
99 1 -1.1044 5.4504 11.8429
121 1 3.37457 0.630868 8.23926
122 1 2.71462 2.2906 9.98211
125 1 3.30334 0.58557 13.4423
126 1 5.29299 2.04174 14.6171
127 1 2.84508 2.44179 15.2737
128 1 5.24001 1.87744 9.53915
129 1 6.37677 1.25187 11.7438
137 1 0.671913 4.9351 8.16817
141 1 3.8052 3.09644 12.8823
143 1 0.885619 4.98094 13.4033
144 1 2.81938 6.17145 14.8795
146 1 2.77117 5.96173 9.53323
147 1 3.87161 5.4212 11.6584
8 2 -1.01657 1.90294 14.1568
17 2 -3.44049 6.202 14.178
3 2 1.33886 2.30422 15.9009
5 2 -1.14784 2.01703 8.80078
34 2 7.2301 0.0925119 12.4616
21 2 -3.63304 10.6784 0.0339124
15 2 -1.01732 6.55497 5.14261
19 2 -2.49187 8.56542 1.75997
161 1 1.36464 9.53316 6.38498
22 2 -2.55325 8.48645 7.02775
24 2 -3.47355 10.8004 5.22823
46 2 2.24911 8.63884 1.76037
47 2 -1.03715 10.4938 3.57017
49 2 2.38873 8.43724 7.00953
100 1 -3.48564 7.42181 2.31197
101 1 -1.77145 8.03501 0.412366
102 1 -6.00812 11.6662 2.30429
103 1 -3.54019 9.69505 1.31053
104 1 -4.1373 12.0472 0.698388
105 1 -3.38465 7.27254 7.5125
106 1 -1.53592 7.86851 5.91095
107 1 -5.77274 11.5417 7.57468
108 1 -4.57613 10.5183 4.11155
109 1 -3.33675 9.64002 6.26704
110 1 -3.94196 12.0916 5.91862
133 1 0.44416 6.84609 4.60779
148 1 1.27581 7.49101 2.32503
150 1 -1.61252 9.16953 2.88099
151 1 -0.898418 11.5344 2.32216
152 1 -2.03981 11.0115 4.6431
153 1 1.39901 9.80813 1.14974
155 1 1.46139 7.2792 7.6779
158 1 -1.06086 11.5626 7.73267
160 1 0.424757 10.3241 4.17914
20 2 -5.9679 10.4673 3.32957
11 2 -3.48941 6.36419 3.48466
38 2 1.39914 6.37368 3.43182
4 2 -4.85785 12.7082 7.03774
18 2 -1.19876 6.48842 10.5757
25 2 -2.58852 8.47673 12.4405
27 2 -3.55583 10.7994 10.6603
50 2 -1.17025 10.4492 8.8847
12 2 -1.03557 6.59072 15.9075
53 2 -1.14763 10.4827 14.1866
111 1 -3.39818 7.34713 13.0513
112 1 -1.71646 7.8434 11.2775
113 1 -4.62177 10.1757 14.8834
114 1 -5.91824 11.5765 13.082
115 1 -4.45487 10.2618 9.4199
116 1 -3.44582 9.73001 11.8316
117 1 -4.25115 12.1999 11.0991
138 1 0.278299 6.74299 9.99282
145 1 0.419802 6.86366 15.3117
157 1 -1.87182 9.06553 8.36018
159 1 -2.01305 10.9971 10.1204
163 1 1.56164 7.31479 12.9244
165 1 -1.61869 9.12109 13.539
166 1 0.282247 10.2795 14.88
167 1 -1.07273 11.6753 13.1519
168 1 -2.10768 10.8411 15.3834
169 1 0.333325 10.2182 9.44422
170 1 1.42972 9.66796 11.8265
26 2 -6.03512 10.4988 14.2541
23 2 -5.98069 10.478 8.76788
196 1 8.69591 5.38976 1.09168
204 1 8.75436 5.36499 6.489
203 1 7.7609 6.06229 4.15714
193 1 5.66288 4.90407 2.90069
198 1 10.6765 3.62179 5.90755
56 2 8.70055 2.08712 3.5295
197 1 8.98136 3.08419 7.78139
136 1 5.73027 3.6327 6.10163
60 2 11.1406 2.2454 5.21253
64 2 9.67467 4.30037 1.75998
65 2 6.29863 6.17906 3.59156
67 2 9.74409 4.25975 7.05663
131 1 5.64271 3.5789 0.653458
33 2 6.29852 2.36119 5.35981
172 1 13.0822 0.58076 3.0388
173 1 8.01159 0.799415 2.88417
174 1 7.7367 2.5658 4.70567
176 1 11.2173 1.2478 1.25296
180 1 12.5741 2.49354 4.53073
181 1 10.1916 1.86487 4.05362
182 1 11.2662 1.02903 6.22285
190 1 8.77704 3.06482 2.26755
191 1 10.7099 3.69387 0.683174
192 1 10.5101 5.04869 2.90425
55 2 12.0952 0.0823296 1.90038
57 2 11.2015 2.33043 0.0344504
71 2 6.15191 6.28049 14.163
213 1 8.73625 5.45058 11.8713
212 1 7.63687 6.00516 9.57115
209 1 7.61578 5.88884 14.6486
36 2 6.31482 2.39018 10.5855
59 2 8.73147 1.98483 8.84366
208 1 5.48888 4.99892 13.6074
62 2 8.7512 1.9903 14.2549
63 2 11.0908 2.13959 10.6528
68 2 6.25467 6.18391 8.82243
70 2 9.64973 4.18554 12.3711
30 2 6.27769 2.33267 15.9001
142 1 5.77395 3.73825 11.2885
175 1 12.6919 2.57337 15.295
207 1 10.6258 4.84035 13.4934
178 1 8.02402 0.77784 8.08276
179 1 7.84147 2.40303 10.0806
183 1 13.0872 0.501276 13.5534
184 1 8.20576 0.660715 13.6173
185 1 10.2102 1.84393 14.8186
186 1 7.79612 2.44886 15.3964
187 1 12.5685 2.45674 10.0595
188 1 10.1374 1.6184 9.4554
189 1 11.235 1.10288 11.8973
199 1 10.608 4.90929 8.16254
177 1 13.0467 0.617699 8.08536
205 1 8.80837 3.08265 13.1217
206 1 10.45 3.51983 11.1781
200 1 5.65488 4.86587 8.27795
232 1 5.84738 12.0178 5.99876
227 1 3.83971 11.5116 7.75212
42 2 3.8299 6.51099 5.29446
229 1 7.68583 10.7966 4.61284
51 2 1.39307 10.7915 5.35978
230 1 5.19048 10.3327 4.15234
69 2 8.75989 6.50691 5.35957
73 2 7.2339 8.41563 1.6819
74 2 3.7388 10.5061 3.53875
231 1 6.29809 9.52486 6.45788
76 2 7.31212 8.44161 7.05473
78 2 6.26017 10.622 5.31156
149 1 3.34138 8.03664 0.715085
154 1 0.770856 12.3037 0.650796
156 1 3.318 7.90939 5.82076
162 1 0.761227 12.0724 5.99569
194 1 5.29437 6.64766 4.76072
202 1 10.2539 6.74917 4.69995
214 1 6.32796 7.31073 2.46661
215 1 8.06652 7.73263 0.512663
216 1 8.19566 9.10967 2.73827
217 1 3.12621 9.10326 3.0023
218 1 3.88145 11.5882 2.44167
219 1 2.81424 11.1122 4.74136
221 1 6.28714 9.56635 1.09102
222 1 5.68742 12.0737 0.76573
223 1 6.37717 7.24615 7.59042
224 1 8.24352 7.92271 5.85564
75 2 6.25785 10.7246 0.0448067
58 2 4.74524 12.5801 6.98702
39 2 3.85203 6.67125 0.0428902
48 2 1.25687 10.8774 0.0339623
242 1 6.59578 9.78086 11.7203
243 1 5.58288 11.9803 11.2139
45 2 3.82105 6.56981 10.5408
54 2 1.28959 10.7324 10.6212
72 2 8.67963 6.46965 10.6482
77 2 3.8233 10.42 8.82468
79 2 7.29722 8.48774 12.4018
80 2 3.75262 10.4873 14.285
81 2 6.30996 10.7699 10.5554
164 1 3.38571 7.99475 11.1982
171 1 0.656725 12.1136 11.2441
195 1 10.0948 6.61982 15.2183
201 1 5.22673 6.81358 9.83581
210 1 5.28629 6.81613 15.4108
211 1 9.99731 6.71439 9.79312
220 1 7.65254 10.991 15.3622
225 1 8.15306 9.07939 8.19469
226 1 3.32003 9.10983 8.09925
228 1 2.76975 10.8337 9.97432
233 1 6.31896 7.33454 12.9863
234 1 8.24214 7.80949 11.2944
235 1 8.14021 9.07737 13.5998
236 1 3.26379 9.16208 13.5449
237 1 5.23669 10.3318 14.8235
238 1 3.78582 11.594 13.101
239 1 2.72232 11.0018 15.3634
240 1 7.71766 11.0942 9.87169
241 1 5.34192 10.2867 9.41228
61 2 4.79509 12.6417 12.4491
66 2 8.60121 6.40163 15.8535
52 2 2.42617 8.56078 12.4006
ITEM: TIMESTEP
100
ITEM: NUMBER OF ATOMS
243
ITEM: BOX BOUNDS xy xz yz pp pp pp
-7.3535815500000004e+00 1.4691300000000000e+01 -7.3456000000000001e+00
0.0000000000000000e+00 1.2723000000000001e+01 -7.9815500000002260e-03
0.0000000000000000e+00 1.5963100000000001e+01 0.0000000000000000e+00
ITEM: ATOMS id type x y z
134 1 3.87242 5.55083 1.26678
139 1 2.90175 5.99661 4.13614
31 2 7.17241 0.00491146 7.09237
6 2 1.43319 2.37485 5.28041
10 2 -0.0547386 4.27168 1.69246
13 2 -0.237133 4.25704 7.00277
93 1 -1.96703 6.17905 4.03905
29 2 3.8864 2.12992 3.55881
140 1 3.8312 5.47102 6.4824
1 2 2.31375 0.110793 1.74616
37 2 4.77798 4.31762 1.77552
40 2 4.67556 4.26752 7.16172
82 1 1.51508 1.3994 1.14112
83 1 0.492114 1.7933 4.16731
84 1 1.52471 1.16741 6.36318
88 1 -0.927749 3.13878 2.38203
89 1 0.853371 3.72856 0.46974
90 1 -0.945199 5.53693 1.28259
91 1 -1.0588 3.11175 7.69392
92 1 0.73256 3.68467 5.87749
135 1 3.75004 3.16148 7.90927
94 1 -1.13918 5.43655 6.39198
118 1 3.26898 0.760217 2.89414
119 1 2.90338 2.67111 4.72202
120 1 6.10924 1.23277 1.02048
123 1 5.36683 1.9733 4.08048
124 1 6.25138 1.13135 6.47604
130 1 3.80106 3.12242 2.29092
132 1 0.935678 4.82366 2.86879
2 2 -1.01728 2.05711 3.54681
28 2 7.15885 0.108615 1.64239
11 2 -3.48056 6.28254 3.62705
38 2 1.46042 6.2642 3.51587
4 2 2.4997 0.089196 7.07273
41 2 1.22144 6.22983 8.80242
9 2 1.25237 2.23034 10.6213
16 2 -0.0120505 4.29355 12.4427
32 2 3.89571 2.05186 9.07361
17 2 -3.48619 6.15764 14.0422
35 2 3.86888 2.02418 14.0123
7 2 2.20515 0.0392771 12.3838
43 2 4.69661 4.39437 12.4087
3 2 1.41221 2.39596 15.9036
85 1 0.451332 1.77148 14.803
86 1 0.322526 1.74263 9.413
87 1 1.28487 1.18124 11.8568
95 1 -0.977 3.13431 13.0416
96 1 0.766366 3.6042 11.2176
97 1 -1.99381 6.17021 14.702
98 1 -2.08023 6.1656 9.46729
99 1 -0.925356 5.45281 11.7687
121 1 3.3524 0.701799 8.3316
122 1 2.8289 2.43295 10.2128
125 1 3.42352 0.624692 13.3467
126 1 5.36112 1.91805 14.606
127 1 2.84584 2.42381 15.1818
128 1 5.41909 1.86732 9.62447
129 1 6.38967 1.15853 11.8527
137 1 0.681409 4.90165 8.15591
141 1 3.75234 3.25449 12.9411
143 1 0.786835 5.02706 13.5875
144 1 2.81688 6.11248 14.8892
146 1 2.65866 6.15422 9.50756
147 1 3.86772 5.54137 11.6761
8 2 -0.982395 1.98567 14.106
5 2 -1.14021 1.97182 8.82331
20 2 -5.83782 10.4336 3.31506
15 2 -1.00317 6.61347 5.20957
19 2 -2.58111 8.52065 1.79255
161 1 1.47227 9.77652 6.59283
22 2 -2.58805 8.45639 7.01086
24 2 -3.52664 10.8187 5.21371
46 2 2.30376 8.65993 1.81283
47 2 -1.08067 10.5437 3.45752
12 2 -1.04683 6.53515 0.00907457
100 1 -3.56725 7.4517 2.47704
101 1 -1.66068 7.89267 0.657096
102 1 -5.9212 11.621 2.28609
103 1 -3.51033 9.67699 1.14777
104 1 -4.11867 12.2014 0.588201
105 1 -3.54985 7.2737 7.70064
106 1 -1.47176 7.87675 6.03973
107 1 -5.66958 11.5273 7.66121
108 1 -4.43786 10.388 3.97986
109 1 -3.42143 9.59667 6.27305
110 1 -4.02438 12.1461 5.8798
133 1 0.504955 6.82222 4.7038
148 1 1.56035 7.38941 2.40627
150 1 -1.66827 9.16156 2.92417
151 1 -1.07231 11.6283 2.26086
152 1 -2.06195 11.0757 4.54465
153 1 1.46362 9.92472 1.29635
155 1 1.48815 7.33352 7.64982
158 1 -1.08649 11.5757 7.72894
160 1 0.359332 10.3255 4.14532
21 2 -3.60637 10.7797 0.00383529
18 2 -1.15177 6.55598 10.6363
25 2 -2.65502 8.45063 12.3609
27 2 -3.54417 10.7798 10.6705
50 2 -1.17831 10.5025 8.90428
44 2 1.3842 6.38995 14.2766
53 2 -1.14855 10.4001 14.1631
111 1 -3.52693 7.2702 12.9321
112 1 -1.64945 7.84898 11.2927
113 1 -4.52849 10.1642 14.8266
114 1 -5.82701 11.5194 13.056
115 1 -4.48009 10.0568 9.48623
116 1 -3.50561 9.64555 11.7387
117 1 -4.25875 12.0902 11.2257
138 1 0.256792 6.79637 9.91538
145 1 0.396401 6.81093 15.484
157 1 -1.7973 9.14518 8.16666
159 1 -2.09769 10.9201 10.1261
163 1 1.40545 7.38684 12.9887
165 1 -1.7642 9.06393 13.498
166 1 0.365801 10.3276 14.8539
167 1 -1.09069 11.5151 13.0127
168 1 -2.17357 10.9256 15.3273
169 1 0.269298 10.1999 9.48052
170 1 1.49982 9.70184 11.7175
52 2 2.30054 8.54486 12.4074
23 2 -5.89199 10.4189 8.81828
34 2 -0.103864 12.6529 12.4728
26 2 -5.96307 10.461 14.2235
196 1 8.78726 5.46678 1.09835
204 1 8.80555 5.40731 6.58652
203 1 7.74101 5.9206 4.22544
193 1 5.68252 4.84635 2.90774
198 1 10.6061 3.56511 5.87607
56 2 8.6746 2.10586 3.50716
197 1 8.89432 3.07562 7.77092
136 1 5.58222 3.56301 6.06392
60 2 11.1854 2.26771 5.16483
64 2 9.67826 4.31934 1.75572
65 2 6.25203 6.10782 3.6143
67 2 9.78015 4.20232 7.04966
131 1 5.59802 3.74301 0.504727
33 2 6.33033 2.31142 5.39701
172 1 13.2173 0.598719 3.02847
173 1 8.03258 0.827183 2.78706
174 1 7.78415 2.46255 4.79052
176 1 11.597 1.30903 1.22318
180 1 12.6807 2.62367 4.6641
181 1 10.1737 1.69591 4.03109
182 1 11.3147 1.05883 6.22191
190 1 8.73897 3.25892 2.41734
191 1 10.759 3.6289 0.6862
192 1 10.6021 5.0091 2.8179
55 2 12.3148 0.0324469 1.87146
71 2 6.15111 6.29228 14.2164
213 1 8.80025 5.37381 11.8782
212 1 7.5596 6.04502 9.53581
209 1 7.72719 6.08139 14.7153
36 2 6.38788 2.38425 10.7634
59 2 8.75579 1.97166 8.9314
208 1 5.56564 4.92234 13.6163
62 2 8.72586 1.94991 14.3489
63 2 11.1373 2.13026 10.6791
68 2 6.11718 6.28201 8.81144
70 2 9.66001 4.15455 12.4442
30 2 6.22503 2.33781 15.8847
142 1 5.81119 3.78239 11.4231
175 1 12.6753 2.44957 15.2842
207 1 10.7687 4.72628 13.4339
178 1 8.05113 0.631916 8.33386
179 1 7.82565 2.543 10.0272
183 1 13.1192 0.612504 13.4413
184 1 8.13125 0.585869 13.6342
185 1 10.0938 1.68429 15.0549
186 1 7.69531 2.55903 15.3808
187 1 12.6266 2.36292 10.0597
188 1 10.1639 1.63191 9.53674
189 1 11.2348 1.0934 11.8097
199 1 10.679 4.81981 8.2002
177 1 12.8825 0.670396 8.16118
205 1 8.74101 3.10024 13.1461
206 1 10.5536 3.51179 11.2801
200 1 5.51388 4.84632 8.40787
57 2 11.2353 2.31271 15.9334
14 2 11.1259 6.1572 8.90582
232 1 5.88044 12.0206 5.97126
227 1 4.03507 11.5104 7.68143
42 2 3.83422 6.55351 5.35353
229 1 7.83314 10.9889 4.50126
51 2 1.37709 10.7492 5.33297
230 1 5.29899 10.3159 4.10459
69 2 8.73153 6.42619 5.35554
73 2 7.13832 8.4796 1.72601
74 2 3.80214 10.5592 3.53203
231 1 6.64593 9.58052 6.26444
76 2 7.35662 8.4273 7.03701
78 2 6.39278 10.7038 5.21793
149 1 3.13375 8.08157 0.589543
154 1 0.829286 12.3657 0.422871
156 1 3.24864 7.92312 5.84417
162 1 0.760476 12.1017 5.96095
194 1 5.32102 6.68044 4.87143
202 1 10.2205 6.59866 4.79544
214 1 6.35059 7.25205 2.50843
215 1 8.09345 7.89387 0.565496
216 1 8.21988 9.10919 2.70206
217 1 3.37269 9.10096 2.9539
218 1 3.89728 11.746 2.45912
219 1 2.83738 10.8507 4.69728
221 1 6.25014 9.65872 1.15222
222 1 5.81728 12.0595 0.722625
223 1 6.39673 7.20898 7.5248
224 1 8.36963 7.88351 5.88807
48 2 1.38987 10.8983 0.0141585
58 2 4.83298 12.6545 6.95171
39 2 3.86386 6.67136 0.132329
49 2 2.43825 8.54945 7.03526
242 1 6.26292 9.72067 11.7916
243 1 5.6902 12.0617 11.1579
45 2 3.73135 6.6989 10.5528
54 2 1.29171 10.7772 10.553
72 2 8.58062 6.49536 10.702
77 2 3.89301 10.452 8.87904
79 2 7.20862 8.55725 12.4456
80 2 3.83879 10.4367 14.1673
81 2 6.30849 10.7366 10.5696
164 1 3.20843 8.04541 11.2281
171 1 0.723707 12.0836 11.2283
195 1 10.2562 6.65117 15.273
201 1 5.1484 6.8882 9.9239
210 1 5.22294 6.82681 15.3785
211 1 10.0581 6.58727 9.99023
220 1 7.79467 10.9038 15.3974
225 1 8.09175 9.13155 8.20251
226 1 3.31539 9.05616 8.24531
228 1 2.80397 10.9461 9.91424
233 1 6.24817 7.3512 13.0241
234 1 8.16888 7.89691 11.3293
235 1 8.04911 9.10936 13.6366
236 1 3.07435 9.11415 13.6533
237 1 5.31733 10.4241 14.7281
238 1 3.8956 11.4966 12.9554
239 1 2.81737 11.1156 15.2521
240 1 7.82914 10.9507 9.95593
241 1 5.29941 10.1183 9.52407
61 2 4.81939 12.6489 12.3737
66 2 8.72353 6.59932 15.9021
75 2 6.35268 10.7726 15.9501
ITEM: TIMESTEP
200
ITEM: NUMBER OF ATOMS
243
ITEM: BOX BOUNDS xy xz yz pp pp pp
-7.3615631000000006e+00 1.4691300000000000e+01 -7.3456000000000001e+00
0.0000000000000000e+00 1.2723000000000001e+01 -1.5963100000000452e-02
0.0000000000000000e+00 1.5963100000000001e+01 0.0000000000000000e+00
ITEM: ATOMS id type x y z
134 1 4.01472 5.66181 1.18288
139 1 2.88023 6.01288 4.2207
31 2 7.1482 0.0639779 7.09017
6 2 1.39798 2.3892 5.35785
10 2 -0.130454 4.332 1.63701
13 2 -0.196032 4.22508 7.03858
93 1 -1.95688 6.09167 4.04583
29 2 3.77704 2.06245 3.58316
140 1 3.80849 5.44749 6.58403
1 2 2.4493 0.140639 1.73527
37 2 4.73623 4.38665 1.813
40 2 4.77176 4.27934 7.22365
82 1 1.52157 1.32735 1.14192
83 1 0.549246 1.95626 4.08436
84 1 1.56399 1.30901 6.49862
88 1 -1.01052 3.06864 2.17076
89 1 0.816714 3.63347 0.537569
90 1 -1.11598 5.38198 0.937062
91 1 -1.05721 3.07326 7.56963
92 1 0.803969 3.67258 5.97882
4 2 2.40142 0.0706304 7.08403
94 1 -1.1273 5.40153 6.4223
118 1 3.06741 0.717674 3.10231
119 1 2.82912 2.72838 4.74788
120 1 6.08493 1.16578 0.971894
123 1 5.27538 1.89533 4.30019
124 1 6.19803 1.29878 6.62212
130 1 3.84376 3.16635 2.37856
132 1 0.792516 4.96041 2.76038
2 2 -0.938686 2.02644 3.39988
28 2 7.15343 0.169691 1.65165
11 2 -3.492 6.22594 3.58264
38 2 1.48665 6.27351 3.49029
135 1 3.79355 3.09653 7.77571
41 2 1.26324 6.307 8.80808
9 2 1.36479 2.24695 10.7017
16 2 -0.0506089 4.30733 12.4617
32 2 3.76518 1.95972 8.93242
17 2 -3.56901 6.2452 14.1171
35 2 3.76713 2.09415 14.0828
5 2 -1.08613 1.97488 8.78983
43 2 4.65895 4.37884 12.3944
3 2 1.32292 2.28623 15.8773
85 1 0.266242 1.70859 14.8557
86 1 0.442193 1.90401 9.42712
87 1 1.22349 0.989333 11.7242
95 1 -0.856899 3.00876 13.0078
96 1 0.980101 3.62571 11.451
97 1 -2.02073 6.05363 14.6748
98 1 -2.18839 6.02598 9.62925
99 1 -1.02515 5.40526 11.7656
121 1 3.34461 0.493092 8.28384
122 1 2.89832 2.33185 10.2407
125 1 3.07061 0.735397 13.4885
126 1 5.27912 2.05358 14.5463
127 1 2.89619 2.43188 15.3807
128 1 5.25736 1.8993 9.57864
129 1 6.28762 1.26217 11.9224
137 1 0.538245 4.96548 8.28125
141 1 3.64331 3.27518 12.9717
143 1 0.691785 4.93725 13.7446
144 1 2.92888 6.14865 14.722
146 1 2.6844 6.04656 9.49883
147 1 3.91492 5.71178 11.8079
8 2 -1.10668 1.95181 14.1844
44 2 1.41129 6.31247 14.1805
14 2 -3.55769 6.19521 8.87121
34 2 7.22668 0.0383167 12.3511
20 2 -5.83468 10.5017 3.40668
15 2 -1.0714 6.51506 5.31564
19 2 -2.61936 8.56159 1.75398
161 1 1.3785 9.67967 6.30126
22 2 -2.6895 8.49299 7.03267
24 2 -3.4694 10.8391 5.26626
160 1 0.42873 10.349 4.06675
47 2 -1.07223 10.5891 3.53346
49 2 2.35736 8.54818 7.01469
100 1 -3.50002 7.43127 2.54155
101 1 -1.77625 7.81838 0.61421
102 1 -5.88338 11.6476 2.27812
103 1 -3.56653 9.72911 1.19245
104 1 -3.95418 12.184 0.603094
105 1 -3.50266 7.28048 7.71043
106 1 -1.78452 7.82628 5.93399
107 1 -5.89378 11.6145 7.72942
108 1 -4.38197 10.4104 4.01302
109 1 -3.45964 9.67231 6.33827
110 1 -3.99017 12.0979 6.00598
133 1 0.402249 6.58754 4.64754
148 1 1.60727 7.46806 2.44543
150 1 -1.64382 9.22104 2.87886
151 1 -1.00704 11.7023 2.36194
152 1 -1.99542 11.1061 4.74104
153 1 1.56136 9.74075 1.1158
155 1 1.4186 7.35529 7.53301
158 1 -1.00919 11.5661 7.78637
18 2 -1.13004 6.621 10.668
25 2 -2.65667 8.47835 12.4009
27 2 -3.60399 10.7778 10.6344
50 2 -1.18434 10.5116 8.93912
26 2 -5.91415 10.409 14.1807
53 2 -1.13899 10.5095 14.1561
111 1 -3.51569 7.17151 12.7625
112 1 -1.66137 7.99898 11.25
113 1 -4.44082 10.1792 14.6937
114 1 -5.88841 11.4442 12.9667
115 1 -4.42425 10.2151 9.37228
116 1 -3.66377 9.6004 11.791
117 1 -4.15266 12.1626 11.1834
138 1 0.282192 6.91574 9.92271
145 1 0.443247 6.93472 15.3309
157 1 -1.78306 9.15261 8.30633
159 1 -2.12723 10.9722 10.0908
163 1 1.43724 7.33665 12.9555
165 1 -1.84603 9.15005 13.6641
166 1 0.30096 10.3067 14.8743
167 1 -1.01301 11.5318 12.9491
168 1 -2.03708 11.0489 15.3803
169 1 0.37427 10.278 9.38339
170 1 1.37353 9.69214 11.8421
52 2 2.30739 8.55189 12.484
23 2 -5.88924 10.4585 8.79108
21 2 -3.58303 10.7514 15.9613
7 2 -5.11046 12.6652 12.3361
12 2 -1.06215 6.59561 15.8946
196 1 8.99305 5.51303 1.19489
204 1 8.77007 5.30498 6.6045
203 1 7.7444 5.9393 4.23989
193 1 5.72498 4.93331 3.01245
198 1 10.572 3.56019 5.95297
56 2 8.65425 2.09572 3.55762
197 1 8.8343 3.08788 7.78251
136 1 5.75037 3.70941 6.11801
60 2 11.1442 2.27293 5.17136
64 2 9.7978 4.30892 1.77064
65 2 6.3296 6.25321 3.62349
67 2 9.75276 4.15144 7.13409
131 1 5.60551 3.81762 0.555396
33 2 6.25865 2.34594 5.38621
172 1 13.2632 0.617151 2.90682
173 1 8.12219 0.898902 2.71383
174 1 7.7099 2.34316 4.82408
176 1 11.4041 1.22567 1.20286
180 1 12.6529 2.40466 4.60804
181 1 10.2068 1.94422 3.89331
182 1 11.244 1.10631 6.24827
190 1 8.75909 3.34971 2.62713
191 1 10.4652 3.55164 0.519788
192 1 10.8331 4.85772 2.8186
55 2 12.2658 0.033091 1.77754
57 2 11.1709 2.18886 0.0221102
58 2 12.1355 0.0232059 6.98245
71 2 6.23229 6.24061 14.219
213 1 8.76605 5.28426 11.8828
212 1 7.6283 5.90231 9.63069
209 1 7.73766 5.97679 14.8184
36 2 6.22152 2.32259 10.7083
59 2 8.68439 1.92566 8.95139
208 1 5.49836 4.94672 13.6668
62 2 8.69638 1.96614 14.2705
63 2 11.1356 2.2754 10.5951
68 2 6.23134 6.33748 8.87507
70 2 9.7525 4.15195 12.4463
30 2 6.1319 2.3899 15.8961
142 1 5.70851 3.76337 11.3097
175 1 12.4864 2.43336 15.1688
207 1 10.6514 4.8616 13.579
178 1 8.18354 0.574787 8.2428
179 1 7.69142 2.47997 10.1387
183 1 13.1112 0.600573 13.5295
184 1 8.12359 0.675938 13.5368
185 1 10.1385 1.59025 14.9412
186 1 7.69515 2.33551 15.4662
187 1 12.5903 2.45668 9.95712
188 1 10.222 1.74402 9.38594
189 1 11.2707 1.21185 11.7147
199 1 10.7321 4.80656 8.17642
177 1 13.0342 0.632747 8.12888
205 1 8.9534 3.041 13.1632
206 1 10.5022 3.57792 11.1919
200 1 5.64999 4.92376 8.35949
61 2 12.2031 0.0590649 12.2905
232 1 5.8425 12.0693 5.9602
227 1 3.9515 11.5446 7.53228
42 2 3.78991 6.51958 5.39542
229 1 7.88114 10.9079 4.66459
51 2 1.40472 10.8168 5.22984
230 1 5.48481 10.4496 3.99611
69 2 8.82323 6.37711 5.41771
73 2 7.30282 8.43432 1.73583
74 2 3.88733 10.4915 3.53078
231 1 6.39706 9.49167 6.25924
76 2 7.329 8.45155 7.00718
78 2 6.39487 10.7305 5.27725
149 1 3.23044 7.96118 0.591907
154 1 0.785302 12.2341 0.528302
156 1 3.31449 7.90094 5.93987
162 1 0.68435 12.1131 5.88535
194 1 5.30308 6.65015 4.73197
202 1 10.27 6.38337 4.78604
214 1 6.4606 7.43079 2.55015
215 1 8.18862 7.92547 0.512079
216 1 8.32221 9.0917 2.82242
217 1 3.42496 9.12553 2.91629
218 1 3.91424 11.6581 2.36103
219 1 2.88981 11.0237 4.62707
221 1 6.51212 9.58375 1.00669
222 1 5.71204 12.0528 0.603775
223 1 6.49808 7.30159 7.67683
224 1 8.32773 7.81323 5.94436
46 2 2.45328 8.60522 1.77549
242 1 6.41151 9.66464 11.8343
243 1 5.82805 12.1695 11.1744
45 2 3.70623 6.68914 10.5521
54 2 1.28122 10.7097 10.6011
72 2 8.60182 6.44473 10.7027
77 2 3.83161 10.4798 8.76227
79 2 7.1897 8.42381 12.483
80 2 3.87486 10.5144 14.0622
81 2 6.28101 10.7578 10.638
164 1 3.113 7.98405 11.2017
171 1 0.7228 12.1072 11.144
195 1 10.2017 6.86318 15.3346
201 1 5.05464 6.99261 9.73295
210 1 5.38788 6.87648 15.4278
211 1 10.0692 6.6328 9.9569
220 1 7.84896 10.9332 15.2987
225 1 8.29875 9.13005 8.02798
226 1 3.29843 9.04598 8.25916
228 1 2.7217 10.925 9.91588
233 1 6.25007 7.30413 13.0671
234 1 8.06534 7.84131 11.2967
235 1 8.22984 9.02742 13.5689
236 1 3.32085 9.0935 13.5408
237 1 5.3226 10.3582 14.829
238 1 3.96263 11.4832 12.8418
239 1 2.83942 10.9791 15.1999
240 1 7.6722 10.8867 9.89056
241 1 5.24992 10.3025 9.5013
48 2 1.40937 10.8368 15.9441
66 2 8.76004 6.53886 15.9292
75 2 6.34066 10.7957 15.9075
39 2 3.87021 6.69529 15.9239
ITEM: TIMESTEP
300
ITEM: NUMBER OF ATOMS
243
ITEM: BOX BOUNDS xy xz yz pp pp pp
-7.3695446500000008e+00 1.4691300000000000e+01 -7.3456000000000001e+00
0.0000000000000000e+00 1.2723000000000001e+01 -2.3944650000000678e-02
0.0000000000000000e+00 1.5963100000000001e+01 0.0000000000000000e+00
ITEM: ATOMS id type x y z
134 1 3.88835 5.46497 1.09815
139 1 2.84308 5.91122 4.15504
135 1 3.86762 3.16519 7.75963
6 2 1.43509 2.33623 5.36657
10 2 -0.0565743 4.37244 1.60576
13 2 -0.164711 4.28663 7.0465
93 1 -1.84158 6.11798 4.00095
29 2 3.93276 2.09974 3.60348
140 1 3.81561 5.50485 6.58481
1 2 2.49984 0.12096 1.81149
38 2 1.37209 6.27798 3.53928
40 2 4.74905 4.32295 7.17102
82 1 1.45955 1.16502 1.24642
83 1 0.337614 1.98384 4.24875
84 1 1.47672 1.27754 6.52901
88 1 -0.803696 3.08382 2.15027
89 1 0.720665 3.71958 0.389171
90 1 -1.04248 5.50007 1.03585
91 1 -0.997539 3.07784 7.62096
92 1 0.872179 3.71893 5.95062
4 2 2.37559 0.063936 7.09467
94 1 -1.11513 5.30846 6.28165
118 1 3.44525 0.769917 2.92664
119 1 2.87617 2.49517 4.68847
120 1 6.20431 1.25523 0.927304
123 1 5.38095 1.93762 4.22863
124 1 6.24831 1.17218 6.56604
130 1 3.97472 3.22024 2.45502
132 1 0.678965 4.95338 2.88669
2 2 -0.960087 2.04882 3.35639
28 2 7.04254 0.144608 1.64363
11 2 -3.37218 6.12107 3.47511
41 2 1.23041 6.25456 8.82822
9 2 1.332 2.26679 10.6767
16 2 -0.108782 4.29077 12.4652
32 2 3.76281 1.97018 8.8639
17 2 -3.54624 6.26768 14.0671
35 2 3.64774 2.12068 14.0958
5 2 -1.14912 1.98467 8.79312
43 2 4.69258 4.29612 12.3774
8 2 -1.10551 2.0019 14.1956
85 1 0.332665 1.66337 14.7715
86 1 0.367484 1.94213 9.43441
87 1 1.29161 1.15811 11.769
95 1 -1.03771 3.16509 13.1146
96 1 0.879144 3.58342 11.4577
97 1 -2.05208 6.1579 14.6771
98 1 -2.17977 6.24742 9.63827
99 1 -0.800904 5.52711 11.735
121 1 3.28304 0.603394 8.25944
122 1 2.73966 2.44251 9.99188
125 1 3.18148 0.672893 13.5236
126 1 5.11235 2.0054 14.7626
127 1 2.64473 2.57413 15.265
128 1 5.17354 1.88789 9.50286
129 1 6.16534 1.18057 11.8083
137 1 0.640919 4.84759 8.33289
141 1 3.69615 3.13283 12.8869
143 1 0.851135 4.93782 13.604
144 1 2.83691 6.23522 14.7561
146 1 2.67309 6.13518 9.46382
147 1 3.91784 5.51712 11.6516
34 2 7.10973 0.0502057 12.3342
7 2 2.25946 0.0690857 12.4393
14 2 -3.53089 6.24054 8.80619
3 2 1.25141 2.22367 15.9583
20 2 -5.82735 10.5164 3.48216
15 2 -1.03838 6.50832 5.29632
19 2 -2.54525 8.55098 1.73913
161 1 1.43304 9.61321 6.25617
22 2 -2.58967 8.4699 7.08041
24 2 -3.51562 10.8288 5.34926
160 1 0.334807 10.484 4.05935
47 2 -1.10809 10.6298 3.48188
49 2 2.26996 8.40971 6.92484
100 1 -3.48845 7.42291 2.48482
101 1 -1.7496 7.85904 0.636275
102 1 -5.72018 11.6366 2.37751
103 1 -3.43235 9.68426 1.08981
104 1 -4.03341 12.1987 0.616024
105 1 -3.4558 7.2721 7.61519
106 1 -1.49896 7.78688 6.10427
107 1 -5.90515 11.6043 7.57881
108 1 -4.41921 10.3277 4.12069
109 1 -3.43386 9.64963 6.42432
110 1 -4.13904 12.1964 5.85868
133 1 0.463725 6.82197 4.81642
148 1 1.49212 7.40009 2.41726
150 1 -1.63016 9.30028 2.72953
151 1 -1.21897 11.8467 2.45066
152 1 -2.05061 10.9002 4.76796
153 1 1.51802 9.83055 1.24077
155 1 1.36368 7.25253 7.55805
158 1 -1.07639 11.631 7.80053
21 2 -3.38813 10.8245 0.0297315
31 2 -0.195838 12.7201 7.07193
18 2 -1.07526 6.63818 10.6824
25 2 -2.61598 8.57137 12.4556
27 2 -3.52122 10.8613 10.6704
50 2 -1.11775 10.4297 8.89335
26 2 -5.86766 10.3963 14.1511
53 2 -1.05794 10.4954 14.1301
111 1 -3.59809 7.36302 12.9301
112 1 -1.66806 7.91973 11.4333
113 1 -4.39897 10.3312 14.8176
114 1 -5.81152 11.4608 13.036
115 1 -4.51244 10.4121 9.50183
116 1 -3.44908 9.82611 11.8886
117 1 -4.03639 12.2179 11.3289
138 1 0.276046 6.92084 9.90405
145 1 0.394195 6.80032 15.4113
157 1 -1.74616 9.0909 8.24544
159 1 -2.10649 10.8306 10.04
163 1 1.41681 7.37282 12.952
165 1 -1.65866 9.13701 13.5973
166 1 0.401325 10.1914 14.793
167 1 -1.07041 11.6626 13.0518
168 1 -1.97282 11.0422 15.3776
169 1 0.3665 10.2126 9.45956
170 1 1.44515 9.77911 11.8177
52 2 2.31478 8.56201 12.4252
23 2 -5.9646 10.5394 8.81762
12 2 -1.11673 6.61848 15.9099
44 2 1.32001 6.36402 14.1757
196 1 8.95013 5.539 1.21892
204 1 8.78101 5.41935 6.51565
203 1 7.82837 5.91501 4.11678
193 1 5.83904 4.95316 2.85065
198 1 10.5935 3.53408 5.93068
56 2 8.66863 2.05093 3.51227
197 1 8.74349 3.13812 7.83644
136 1 5.67849 3.71714 6.00556
60 2 11.194 2.21504 5.21403
64 2 9.74485 4.23891 1.78757
65 2 6.36061 6.27759 3.56826
67 2 9.7449 4.24094 7.09779
131 1 5.72671 3.7546 0.62283
33 2 6.36771 2.36102 5.42746
172 1 13.3253 0.553662 2.81706
173 1 7.92326 0.902311 2.72011
174 1 7.8113 2.46318 4.79165
176 1 11.2959 1.19036 1.18332
180 1 12.5774 2.44962 4.49137
181 1 10.1574 1.68907 4.0559
182 1 11.286 1.06694 6.28869
190 1 8.76884 3.19343 2.44415
191 1 10.5066 3.60151 0.517385
192 1 10.8717 4.71586 2.76066
55 2 12.3144 0.0455539 1.70361
37 2 4.82002 4.38323 1.78174
71 2 6.25405 6.1979 14.1884
213 1 8.74458 5.41767 11.8875
212 1 7.62167 5.81437 9.599
209 1 7.63155 5.81179 14.9604
36 2 6.19443 2.28191 10.6381
59 2 8.64855 1.95238 8.8793
208 1 5.4361 4.88949 13.5954
62 2 8.75735 1.82319 14.1465
63 2 11.1257 2.38751 10.6063
68 2 6.25488 6.2916 8.88263
70 2 9.63597 4.19414 12.456
30 2 6.14622 2.46938 15.8355
142 1 5.66674 3.67926 11.2631
175 1 12.6028 2.47048 15.3181
207 1 10.5891 4.83765 13.5358
178 1 8.11664 0.562957 8.26591
179 1 7.67793 2.34587 10.084
183 1 13.0708 0.642418 13.5355
184 1 8.06643 0.55574 13.5107
185 1 10.0731 1.61313 14.9526
186 1 7.61287 2.5095 15.1259
187 1 12.5591 2.47275 9.89355
188 1 10.1185 1.76925 9.51442
189 1 11.299 1.25263 11.7396
199 1 10.676 4.77969 8.27838
177 1 13.0483 0.637398 8.08433
205 1 8.85094 2.94359 13.0078
206 1 10.6265 3.79478 11.2688
200 1 5.52486 4.92773 8.43728
61 2 12.2698 0.0872283 12.2451
57 2 11.1482 2.21138 15.9238
232 1 5.69886 11.975 5.94491
227 1 3.80449 11.6152 7.62642
42 2 3.89141 6.5017 5.32376
229 1 7.95255 11.0269 4.68224
51 2 1.37357 10.807 5.17112
230 1 5.41011 10.3603 4.05667
69 2 8.80959 6.43779 5.25802
73 2 7.30581 8.52928 1.70564
74 2 3.87809 10.5642 3.44705
231 1 6.45786 9.57226 6.33688
76 2 7.39792 8.47259 6.91217
78 2 6.42273 10.7567 5.2505
149 1 3.38405 8.05563 0.639017
154 1 0.565154 12.1718 0.49715
156 1 3.2869 7.82751 5.85915
162 1 0.739252 12.0904 5.90687
194 1 5.35411 6.61104 4.77101
46 2 2.37914 8.60745 1.78226
214 1 6.47005 7.39065 2.45685
215 1 8.11908 7.99157 0.457817
216 1 8.34983 9.17489 2.80954
217 1 3.34249 9.21156 2.91851
218 1 3.99017 11.5735 2.21171
219 1 2.83609 11.0844 4.56002
221 1 6.35563 9.67127 1.17362
222 1 5.77879 12.1611 0.517793
223 1 6.58523 7.30345 7.70812
224 1 8.36824 7.92556 5.76025
58 2 4.75323 12.6874 6.97334
202 1 10.3517 6.42224 4.70619
75 2 6.32761 10.7622 0.0010432
242 1 6.44938 9.65303 11.82
243 1 5.79682 12.2227 11.0884
45 2 3.78524 6.5875 10.5154
54 2 1.29217 10.8323 10.5899
72 2 8.67974 6.40761 10.6348
77 2 3.75771 10.499 8.78595
79 2 7.31195 8.47514 12.4207
80 2 3.803 10.5833 14.1159
81 2 6.28263 10.7359 10.5823
164 1 3.16334 7.89191 11.2336
171 1 0.633451 12.1179 11.2118
195 1 10.0636 6.65934 15.2232
201 1 5.2548 6.91683 9.94681
210 1 5.30355 6.78989 15.2895
211 1 10.0047 6.66868 9.77764
220 1 7.75126 10.8231 15.254
225 1 8.18445 9.16295 8.12554
226 1 3.10061 9.14137 8.07407
228 1 2.81925 11.0605 10.0066
233 1 6.49606 7.27458 13.0634
234 1 8.11977 7.81792 11.2311
235 1 8.29715 8.98469 13.5858
236 1 3.27143 9.14987 13.5817
237 1 5.30548 10.3138 14.7743
238 1 3.93388 11.6099 12.8537