ITEM: TIMESTEP
0
ITEM: NUMBER OF ATOMS
243
ITEM: BOX BOUNDS xy xz yz pp pp pp
-7.3456000000000001e+00 1.4691300000000000e+01 -7.3456000000000001e+00
0.0000000000000000e+00 1.2723000000000001e+01 0.0000000000000000e+00
0.0000000000000000e+00 1.5963100000000001e+01 0.0000000000000000e+00
ITEM: ATOMS id type x y z
135 1 3.77085 3.02103 7.74974
139 1 2.7791 6.06891 4.21256
132 1 0.599342 4.86252 3.0137
6 2 1.18788 2.30558 5.3735
10 2 -0.342492 4.24886 1.89717
13 2 -0.0563734 4.3795 7.2085
134 1 3.84704 5.49731 1.29941
29 2 3.78369 1.97764 3.57205
140 1 3.76893 5.34116 6.42531
37 2 4.75443 4.26335 1.85865
38 2 1.31023 6.26574 3.51364
120 1 6.2621 1.03915 1.09868
82 1 1.23814 1.13497 1.19043
83 1 0.423388 1.86751 4.05868
84 1 1.20008 1.23186 6.61107
88 1 -1.29022 3.12038 2.60445
89 1 0.504342 3.57273 0.669155
90 1 -1.17899 5.34982 1.16847
91 1 -1.14587 3.35524 7.8062
92 1 0.663067 3.68751 5.99398
93 1 -2.13031 6.05956 4.22267
94 1 -0.886931 5.5246 6.43728
118 1 3.30006 0.647454 2.85001
119 1 2.6895 2.43893 4.78775
31 2 7.10836 0.0354425 7.03558
123 1 5.2615 1.79468 4.07054
124 1 6.19011 1.14349 6.3107
130 1 3.82784 3.11406 2.42186
40 2 4.6297 4.15765 7.04216
146 1 2.96437 6.03663 9.45854
9 2 1.3951 2.35026 10.7261
16 2 -0.040861 4.30228 12.4417
32 2 3.74667 1.87079 8.86828
147 1 3.73718 5.4388 11.909
35 2 3.64241 1.984 14.2314
41 2 1.47005 6.28042 8.93614
43 2 4.62835 4.21918 12.3945
44 2 1.27364 6.23891 14.4433
85 1 0.311753 1.64173 14.6865
86 1 0.348019 1.99666 9.55204
87 1 1.27058 1.25201 11.8869
95 1 -0.926775 3.07571 12.8696
96 1 0.98019 3.77611 11.323
97 1 -2.10438 5.99449 14.8013
98 1 -2.07607 5.90907 9.63223
99 1 -0.943058 5.46888 11.815
121 1 3.03296 0.578547 8.2219
122 1 2.87496 2.33094 10.0943
125 1 3.18603 0.590758 13.6062
126 1 5.10446 1.8894 14.7864
127 1 2.62356 2.53898 15.3214
128 1 5.31333 1.66592 9.30438
129 1 6.35676 1.28191 11.6996
137 1 0.841093 4.86976 8.45043
141 1 3.63402 3.0286 13.0193
143 1 0.644372 4.96475 13.7176
144 1 2.67747 5.8371 15.071
7 2 2.23278 0.0432596 12.4568
14 2 -3.50221 6.07326 8.92759
17 2 -3.55247 6.25224 14.1497
5 2 -1.13404 2.1526 8.85124
34 2 7.09579 0.0583186 12.4553
8 2 -1.12165 1.99097 14.0838
3 2 1.19691 2.24518 15.9574
161 1 1.25413 9.74902 6.60061
160 1 0.324348 10.1021 4.10771
19 2 -2.71811 8.50719 1.73331
15 2 -1.09813 6.62901 5.32041
22 2 -2.49643 8.47735 7.21775
24 2 -3.59267 10.7215 5.38981
46 2 2.38002 8.47174 1.76543
47 2 -1.1563 10.3589 3.51746
49 2 2.15426 8.50846 7.10293
100 1 -3.56727 7.28122 2.36031
101 1 -1.7146 7.89916 0.657708
102 1 -6.01453 11.5773 2.64037
103 1 -3.60348 9.76413 1.28355
104 1 -4.2281 12.2377 0.574038
105 1 -3.40553 7.29943 7.89159
106 1 -1.65283 7.97388 5.97115
107 1 -6.08675 11.5249 7.66601
108 1 -4.48873 10.0629 4.19864
109 1 -3.45937 9.62944 6.59097
110 1 -4.25506 12.0819 5.86406
133 1 0.407684 6.88978 4.72479
148 1 1.44407 7.38704 2.37526
150 1 -1.77108 8.95544 2.98723
151 1 -1.0058 11.4057 2.34668
152 1 -2.12643 10.9287 4.72802
153 1 1.45273 9.59425 1.17574
155 1 1.23744 7.32393 7.73756
158 1 -1.02971 11.5511 7.68296
1 2 -5.12164 12.6773 1.83126
21 2 -3.53874 10.8325 0.0965374
28 2 -0.135008 12.6277 1.83302
4 2 -5.19769 12.6876 7.00286
12 2 -1.26053 6.51234 0.0481032
18 2 -0.968323 6.55424 10.6409
25 2 -2.48846 8.5144 12.2928
27 2 -3.66503 10.6944 10.5654
50 2 -1.10388 10.5627 8.86316
52 2 2.32678 8.53157 12.5719
53 2 -1.1158 10.4393 14.198
111 1 -3.33503 7.29912 12.9062
112 1 -1.51676 7.9978 11.1689
113 1 -4.48743 10.323 14.7644
114 1 -6.00367 11.5974 13.1215
115 1 -4.61171 10.2547 9.3801
116 1 -3.52854 9.538 11.6177
117 1 -4.21688 12.0212 11.3354
138 1 0.484497 6.88087 10.0563
145 1 0.239733 6.81912 15.5176
157 1 -1.48028 9.1657 8.25709
159 1 -2.19613 10.9588 9.97868
163 1 1.47806 7.35053 13.3129
165 1 -1.65813 9.10748 13.4941
166 1 0.429507 10.1742 14.6895
167 1 -1.09386 11.6072 13.1175
168 1 -2.03426 10.7994 15.4431
169 1 0.293206 10.4817 9.68231
170 1 1.46817 9.73014 11.8956
196 1 8.65935 5.38409 1.09588
204 1 8.62126 5.35307 6.41323
203 1 7.72866 5.99594 4.00637
33 2 6.25948 2.29671 5.20997
198 1 10.4281 3.60958 5.84344
56 2 8.66182 1.96492 3.48579
197 1 8.63863 3.07377 7.5719
193 1 5.6774 4.81739 3.02044
60 2 11.0508 2.21191 5.23895
64 2 9.61264 4.24975 1.77435
65 2 6.21068 6.25847 3.56792
67 2 9.57726 4.22941 7.04317
131 1 5.61743 3.6778 0.637141
136 1 5.49669 3.63914 5.78729
172 1 13.0513 0.600129 3.05681
173 1 8.07051 0.584356 2.9913
174 1 7.76894 2.50199 4.69589
176 1 11.3666 1.15058 1.14269
180 1 12.6243 2.41539 4.9025
181 1 10.1831 1.77245 3.98939
182 1 11.0601 0.999933 6.26643
190 1 8.66483 3.06013 2.34034
191 1 10.5123 3.60284 0.602798
192 1 10.5932 4.77315 2.91605
2 2 13.5161 1.94597 3.68031
58 2 12.1329 0.0436974 7.00558
11 2 11.0979 6.21253 3.53381
30 2 6.17717 2.23621 0.0419636
36 2 6.16209 2.27519 10.5348
213 1 8.61154 5.2609 11.7142
212 1 7.72786 5.94241 9.35077
209 1 7.76519 6.01409 14.6486
71 2 6.19393 6.13856 14.1334
59 2 8.55596 2.06856 8.78866
208 1 5.64667 4.76126 13.4737
62 2 8.64042 1.92575 14.2072
63 2 11.0375 2.26992 10.5795
68 2 6.22877 6.13868 8.84254
70 2 9.57742 4.19009 12.3974
207 1 10.5395 4.91734 13.4902
142 1 5.50649 3.59704 11.1874
175 1 12.6297 2.59856 15.2269
177 1 13.0978 0.858315 8.02514
178 1 7.9649 0.719307 8.19803
179 1 7.5431 2.68304 9.85297
183 1 12.9183 0.690246 13.4819
184 1 7.9314 0.60402 13.6992
185 1 10.1832 1.7127 14.7163
186 1 7.67475 2.48323 15.3906
187 1 12.4424 2.46215 9.9321
188 1 9.96132 1.94693 9.52808
189 1 11.1732 1.2235 11.7455
199 1 10.5786 4.80811 8.10257
200 1 5.60401 4.88052 8.1254
205 1 8.67317 2.97761 12.9749
206 1 10.577 3.58849 11.313
57 2 11.2168 2.26798 15.8724
232 1 5.76124 12.136 5.91287
229 1 7.86889 10.7809 4.85612
42 2 3.80219 6.58307 5.37315
39 2 3.80028 6.44859 0.022982
51 2 1.2487 10.6982 5.31267
230 1 5.35628 10.3958 4.04036
69 2 8.65419 6.50088 5.26328
73 2 7.09927 8.47154 1.75931
74 2 3.85292 10.4292 3.53308
231 1 6.3155 9.60094 6.43659
76 2 7.10078 8.38437 7.05407
78 2 6.30718 10.7795 5.28288
149 1 3.22471 7.88888 0.490121
154 1 0.681416 12.0739 0.580886
156 1 3.23368 7.83781 6.05492
162 1 0.762174 12.1223 5.90493
194 1 5.26731 6.7321 4.77915
202 1 10.1177 6.6154 4.72139
214 1 6.17603 7.31125 2.37678
215 1 7.96482 7.8605 0.549546
216 1 8.05067 8.97566 2.91718
217 1 3.40535 9.12154 2.78343
218 1 3.87678 11.6275 2.48648
219 1 2.82124 10.8064 4.73002
221 1 6.15501 9.55924 1.0386
222 1 5.80629 12.0641 0.714902
223 1 6.19217 7.29349 7.73179
224 1 8.0585 7.85968 5.93995
227 1 3.99426 11.6176 7.81488
20 2 8.73173 10.2914 3.62757
55 2 4.86936 12.7113 1.89483
48 2 1.29858 10.6907 15.9327
243 1 5.56485 12.0822 11.1585
23 2 8.60163 10.4026 8.79913
54 2 1.44568 10.823 10.7157
72 2 8.62445 6.41349 10.5937
77 2 3.78691 10.4328 8.86398
79 2 7.1392 8.39785 12.4447
80 2 3.77803 10.564 14.1616
81 2 6.18763 10.7013 10.6452
164 1 3.19545 7.98657 11.2544
171 1 0.804615 12.0905 11.3916
195 1 10.2142 6.75847 15.343
201 1 5.28288 6.61083 10.0531
210 1 5.19998 6.60527 15.2797
211 1 10.1717 6.60383 10.0988
220 1 7.77096 10.7294 15.4446
225 1 7.9984 8.98212 8.26529
226 1 3.17658 9.16934 8.19172
228 1 2.83119 10.982 9.99034
233 1 6.1813 7.27726 13.0574
234 1 7.95803 7.70833 11.283
235 1 8.10555 9.06628 13.5495
236 1 3.37886 9.07919 13.6561
237 1 5.28973 10.5475 14.6732
238 1 3.68581 11.6426 12.9543
239 1 2.73511 10.9169 15.3418
240 1 7.67365 10.835 10.087
241 1 5.2972 10.1485 9.39374
242 1 6.21696 9.57861 11.847
45 2 3.81653 6.55107 10.7343
66 2 8.66954 6.53711 15.8549
61 2 4.68786 12.6927 12.3332
75 2 6.24644 10.7093 15.9246
26 2 8.6922 10.3887 14.1796
ITEM: TIMESTEP
100
ITEM: NUMBER OF ATOMS
243
ITEM: BOX BOUNDS xy xz yz pp pp pp
-7.3535815500000004e+00 1.4691300000000000e+01 -7.3456000000000001e+00
0.0000000000000000e+00 1.2723000000000001e+01 -7.9815500000002260e-03
0.0000000000000000e+00 1.5963100000000001e+01 0.0000000000000000e+00
ITEM: ATOMS id type x y z
135 1 3.83622 2.95857 7.5728
139 1 2.714 5.92892 4.18015
132 1 0.737645 4.97008 2.79603
6 2 1.32915 2.23347 5.31269
10 2 -0.247997 4.36627 1.72355
13 2 -0.141241 4.33022 7.09712
134 1 3.99391 5.49301 1.25815
29 2 3.77848 1.88206 3.49591
140 1 3.76365 5.46909 6.62235
37 2 4.74582 4.21644 1.86574
38 2 1.32413 6.30101 3.50561
120 1 6.23923 1.12669 1.11931
82 1 1.41117 1.06396 1.14846
83 1 0.322638 1.6811 4.23258
84 1 1.36015 1.16582 6.48538
88 1 -1.00536 3.12662 2.37742
89 1 0.661018 3.584 0.645742
90 1 -1.21218 5.50704 1.15106
91 1 -1.09495 3.30024 7.80778
92 1 0.795973 3.69113 5.98044
93 1 -2.15253 6.12854 4.21822
94 1 -1.01489 5.63488 6.57922
118 1 3.08133 0.607908 2.89385
119 1 2.85244 2.33125 4.75309
2 2 -1.07318 1.94967 3.53465
123 1 5.26479 1.81657 4.06036
124 1 6.33506 1.14083 6.3928
130 1 3.71537 3.15651 2.50089
40 2 4.66247 4.2113 7.14166
11 2 -3.57068 6.22451 3.54409
3 2 1.27522 2.223 0.0652304
146 1 2.86856 6.08889 9.4015
9 2 1.36248 2.29143 10.678
16 2 -0.03925 4.27836 12.4414
32 2 3.72925 1.95114 8.78677
147 1 3.75316 5.49172 11.9002
35 2 3.61608 2.00816 14.1893
41 2 1.37784 6.30015 8.8746
43 2 4.6839 4.27246 12.3499
14 2 -3.5506 6.25155 8.92338
85 1 0.217427 1.69409 14.9257
86 1 0.363141 1.86643 9.47317
87 1 1.44093 1.11188 11.7633
95 1 -0.887316 3.05702 13.0857
96 1 0.946749 3.64008 11.4028
97 1 -2.16537 5.96317 14.8172
98 1 -2.04226 6.09611 9.46587
99 1 -1.0053 5.37393 11.7494
121 1 3.10102 0.539117 8.2689
122 1 2.72986 2.53664 9.88693
125 1 3.03261 0.588571 13.668
126 1 5.01384 1.81339 14.9611
127 1 2.59461 2.47633 15.2711
128 1 5.16963 1.62737 9.44949
129 1 6.26907 1.25823 11.8674
137 1 0.820152 5.00321 8.13728
141 1 3.83687 3.12883 13.0346
143 1 0.80792 4.99252 13.5757
144 1 2.72104 5.96961 14.9735
34 2 7.11275 0.0254907 12.5046
5 2 -1.10716 2.11948 8.86804
44 2 1.33568 6.35182 14.2735
161 1 1.35912 9.58898 6.48781
160 1 0.308271 10.1887 4.19458
19 2 -2.66839 8.46452 1.79938
15 2 -1.1471 6.6683 5.38982
22 2 -2.61634 8.55773 7.20139
24 2 -3.67157 10.7445 5.35632
46 2 2.37982 8.52726 1.74686
47 2 -1.13363 10.4078 3.59729
49 2 2.37533 8.54338 7.0224
100 1 -3.51426 7.30431 2.39422
101 1 -1.9767 7.89315 0.491291
102 1 -5.78569 11.4102 2.37548
103 1 -3.55074 9.60788 1.25266
104 1 -4.06031 12.0473 0.588784
105 1 -3.47545 7.3485 7.73874
106 1 -1.71068 8.04594 5.97152
107 1 -6.1247 11.5188 7.65925
108 1 -4.61274 10.1232 4.21384
109 1 -3.55998 9.71363 6.5693
110 1 -4.2805 12.0464 5.99278
133 1 0.23402 6.75548 4.57173
148 1 1.53122 7.37093 2.25808
150 1 -1.71886 9.07241 2.92387
151 1 -1.11717 11.5501 2.42568
152 1 -2.20221 10.9496 4.6916
153 1 1.47521 9.74317 1.19734
155 1 1.4987 7.37438 7.64921
158 1 -1.06333 11.513 7.65949
1 2 -5.00878 12.6278 1.72556
21 2 -3.54501 10.6507 0.043406
28 2 -0.284136 12.6839 1.77457
4 2 -5.15732 12.6829 7.11655
31 2 -0.15784 12.6837 7.01807
18 2 -1.05193 6.5788 10.6752
25 2 -2.61613 8.49268 12.4598
27 2 -3.6082 10.7097 10.6041
50 2 -1.1005 10.4854 8.89783
7 2 -5.15929 12.6058 12.5233
53 2 -1.09552 10.563 14.3221
111 1 -3.53526 7.2692 13.0276
112 1 -1.63804 7.93369 11.336
113 1 -4.51871 10.2574 14.8085
114 1 -6.10149 11.5206 13.2171
115 1 -4.5921 10.1829 9.5095
116 1 -3.5056 9.66427 11.7859
117 1 -4.23826 11.9883 11.3427
138 1 0.415738 6.66114 10.066
145 1 0.225871 6.71789 15.4017
157 1 -1.72878 9.10819 8.40192
159 1 -2.16472 11.0355 10.0169
163 1 1.45479 7.48871 13.1025
165 1 -1.73736 9.23653 13.6003
166 1 0.399803 10.289 14.8139
167 1 -1.12293 11.6163 13.1298
168 1 -2.09805 10.9312 15.4984
169 1 0.341254 10.3822 9.57357
170 1 1.42206 9.751 11.9105
23 2 -6.02869 10.4363 8.90287
12 2 -1.29232 6.55187 15.9416
196 1 8.80955 5.38234 0.965502
204 1 8.8246 5.50958 6.57595
203 1 7.6764 5.98349 4.16856
33 2 6.17544 2.24777 5.27701
198 1 10.6142 3.64706 5.92027
56 2 8.63483 1.96917 3.46511
197 1 8.66712 3.07207 7.58111
193 1 5.65882 4.78898 3.05806
60 2 11.0856 2.26522 5.19344
64 2 9.61172 4.2 1.70991
65 2 6.16448 6.17878 3.61333
67 2 9.65943 4.28242 7.13401
131 1 5.62998 3.55696 0.71587
136 1 5.66968 3.64788 5.94529
172 1 12.9254 0.674487 2.88527
173 1 8.0172 0.672312 2.84737
174 1 7.65336 2.44499 4.61459
176 1 11.2465 1.13563 1.04961
180 1 12.5764 2.55094 4.61831
181 1 10.0709 1.81627 4.05442
182 1 11.1587 1.09953 6.25281
190 1 8.73078 3.06397 2.3635
191 1 10.5483 3.61931 0.5868
192 1 10.5296 4.9477 2.84948
58 2 12.0634 0.0463645 7.07878
36 2 6.0972 2.29314 10.5216
213 1 8.74287 5.2749 11.9054
212 1 7.68762 5.81393 9.54047
209 1 7.64582 6.19968 14.7838
71 2 6.19308 6.18547 14.0662
59 2 8.64983 2.0302 8.80643
208 1 5.74646 4.83734 13.386
62 2 8.62689 1.94998 14.1903
63 2 11.0761 2.21728 10.5645
68 2 6.24192 6.08428 9.01314
70 2 9.74761 4.11896 12.3948
207 1 10.434 4.8175 13.6643
142 1 5.41899 3.74104 10.9653
175 1 12.5222 2.50637 15.2208
177 1 12.9284 0.737865 8.27905
178 1 8.07538 0.682603 8.1706
179 1 7.6232 2.52514 9.96538
183 1 12.9203 0.658084 13.4561
184 1 8.0766 0.495058 13.6662
185 1 10.0226 1.81991 14.9119
186 1 7.52386 2.49442 15.1712
187 1 12.611 2.41526 10.1729
188 1 10.1328 1.79112 9.34135
189 1 11.1139 1.09965 11.719
199 1 10.5611 4.90596 8.31171
200 1 5.57255 4.82176 8.27131
205 1 8.83338 2.92652 12.925
206 1 10.5902 3.61131 11.215
57 2 11.1568 2.31125 15.9397
8 2 13.5249 1.91736 14.1586
17 2 11.0397 6.21806 14.1938
30 2 6.11401 2.23473 15.9355
232 1 5.75725 12.0762 6.02923
229 1 7.63203 10.8086 4.70536
42 2 3.73652 6.41937 5.34393
39 2 3.74209 6.51024 0.0727324
51 2 1.3565 10.7051 5.30147
230 1 5.19846 10.2878 4.21753
69 2 8.65241 6.50129 5.35824
73 2 7.09465 8.41871 1.7763
74 2 3.7875 10.4324 3.54467
231 1 6.1527 9.5384 6.46793
76 2 7.08818 8.41792 7.16468
78 2 6.17265 10.6717 5.42778
149 1 3.22993 7.90532 0.562852
154 1 0.766619 12.2113 0.678219
156 1 3.09781 7.88063 5.76904
162 1 0.786131 12.1342 5.88725
194 1 5.24862 6.60638 4.81255
202 1 10.0408 6.68256 4.68166
214 1 6.27626 7.2262 2.4369
215 1 8.09161 7.89457 0.705847
216 1 7.93119 9.11035 2.89483
217 1 3.30134 9.13196 2.85465
218 1 3.7958 11.5353 2.40988
219 1 2.78917 10.8645 4.67641
221 1 6.15809 9.48292 1.13369
222 1 5.76129 12.0536 0.67748
223 1 6.4116 7.22258 7.95134
224 1 7.91776 7.75117 5.97448
227 1 3.82733 11.5584 7.63503
20 2 8.68453 10.392 3.53601
55 2 4.7169 12.6425 1.76072
75 2 6.21236 10.6442 0.0400278
48 2 1.36638 10.8429 15.9432
243 1 5.63224 12.077 11.23
26 2 8.67004 10.3228 14.2335
54 2 1.36036 10.8215 10.7258
72 2 8.63756 6.38305 10.7308
77 2 3.69309 10.5118 8.83736
79 2 7.18831 8.43248 12.3727
80 2 3.82188 10.4481 14.2126
81 2 6.19086 10.7623 10.5244
164 1 3.26724 7.94525 11.2199
171 1 0.741263 12.2049 11.334
195 1 10.0797 6.85938 15.2774
201 1 5.32483 6.61392 10.2084
210 1 5.13446 6.54279 15.17
211 1 10.1005 6.67058 10.0734
220 1 7.73372 10.7597 15.4416
225 1 8.16348 9.08679 8.15567
226 1 3.20189 9.10992 8.19484
228 1 2.75192 10.9687 9.98363
233 1 6.20944 7.34599 12.9834
234 1 8.13297 7.80724 11.2861
235 1 8.0779 9.00156 13.5383
236 1 3.37457 9.11209 13.5426
237 1 5.29599 10.2292 14.7666
238 1 3.83165 11.5149 13.002
239 1 2.83483 11.0292 15.3394
240 1 7.60048 11.0119 9.92283
241 1 5.20043 10.3071 9.36317
242 1 6.33007 9.59649 11.6457
45 2 3.81089 6.52599 10.6352
66 2 8.65675 6.60242 15.9059
61 2 4.68323 12.6899 12.3101
52 2 2.38422 8.59433 12.4135
ITEM: TIMESTEP
200
ITEM: NUMBER OF ATOMS
243
ITEM: BOX BOUNDS xy xz yz pp pp pp
-7.3615631000000006e+00 1.4691300000000000e+01 -7.3456000000000001e+00
0.0000000000000000e+00 1.2723000000000001e+01 -1.5963100000000452e-02
0.0000000000000000e+00 1.5963100000000001e+01 0.0000000000000000e+00
ITEM: ATOMS id type x y z
135 1 3.94538 3.04734 7.81994
139 1 2.67494 6.02029 4.16613
132 1 0.773689 4.8637 2.87505
6 2 1.19744 2.17156 5.32652
10 2 -0.0811755 4.26446 1.68031
13 2 -0.232779 4.19666 7.04617
134 1 3.77599 5.45941 1.15297
29 2 3.68839 1.94338 3.57641
140 1 3.85965 5.32246 6.39858
37 2 4.62729 4.26175 1.77466
38 2 1.31746 6.23075 3.49268
120 1 6.31696 1.30692 1.18162
82 1 1.552 1.21006 1.21985
83 1 0.33626 1.70906 4.03786
84 1 1.32358 1.10987 6.4668
88 1 -0.963594 3.07284 2.2462
89 1 0.726328 3.62241 0.461306
90 1 -0.962751 5.44723 1.04987
91 1 -1.13091 3.06512 7.62809
92 1 0.479264 3.45876 5.76987
93 1 -2.27059 6.0318 4.23794
94 1 -0.985267 5.43115 6.40777
118 1 3.2982 0.52504 2.93805
119 1 2.70725 2.53257 4.68334
2 2 -1.08991 2.0061 3.45826
123 1 5.1135 1.73591 4.29081
124 1 6.32648 1.15623 6.50698
130 1 3.86885 2.93331 2.33315
40 2 4.84718 4.24818 7.20167
31 2 7.19453 0.0240901 7.15056
28 2 7.15012 0.128097 1.78315
4 2 2.34936 0.0585158 7.05284
146 1 2.73304 6.10383 9.5161
9 2 1.30318 2.29163 10.5446
16 2 -0.131936 4.19385 12.3131
32 2 3.79148 1.95578 8.91819
147 1 3.71277 5.38205 11.7744
35 2 3.71247 1.96677 14.1248
41 2 1.25082 6.16941 8.89958
43 2 4.67405 4.23238 12.3477
14 2 -3.58177 6.25942 8.84006
85 1 0.230741 1.62166 14.9423
86 1 0.262869 1.82679 9.4166
87 1 1.30104 1.16605 11.7084
95 1 -0.965331 3.01109 13.0901
96 1 0.720848 3.65979 11.096
97 1 -2.12067 5.97468 14.7224
98 1 -2.13409 6.31628 9.46055
99 1 -1.01708 5.34702 11.6708
121 1 3.25429 0.661308 8.20992
122 1 2.84201 2.27537 10.1272
125 1 3.14852 0.583487 13.5534
126 1 5.21944 1.74713 14.7689
127 1 2.7042 2.4469 15.2452
128 1 5.19508 1.65652 9.52402
129 1 6.26826 1.16352 11.7871
137 1 0.725909 4.83443 8.19304
141 1 3.87911 3.08479 13.0252
143 1 0.726315 4.88384 13.4812
144 1 2.69393 6.09515 14.8026
7 2 2.16596 0.0364472 12.3988
3 2 1.28457 2.23958 15.9037
44 2 1.25572 6.27069 14.0639
161 1 1.49682 9.68982 6.41116
160 1 0.273328 10.4073 4.16732
19 2 -2.65133 8.51169 1.74733
15 2 -1.19836 6.5285 5.31977
22 2 -2.69983 8.51467 7.06694
24 2 -3.72508 10.7101 5.31886
46 2 2.32775 8.5249 1.76267
47 2 -1.1633 10.4839 3.54606
49 2 2.30302 8.51076 7.11322
100 1 -3.4927 7.33915 2.42294
101 1 -1.74082 7.80822 0.674849
102 1 -5.9689 11.5468 2.40738
103 1 -3.58626 9.68233 1.18068
104 1 -4.21844 12.1424 0.49813
105 1 -3.55159 7.33771 7.65534
106 1 -1.70152 7.84515 5.99036
107 1 -5.86054 11.5388 7.6867
108 1 -4.69842 10.1298 4.20422
109 1 -3.58309 9.71996 6.54993
110 1 -4.24209 12.1368 5.8149
133 1 0.280798 6.74718 4.61791
148 1 1.36938 7.34266 2.37139
150 1 -1.66353 9.17993 2.80974
151 1 -1.11879 11.7059 2.46257
152 1 -2.23414 10.7503 4.67145
153 1 1.3993 9.74497 1.0895
155 1 1.42039 7.31304 7.76495
158 1 -1.05381 11.5901 7.76586
1 2 -4.97624 12.6685 1.82506
21 2 -3.6059 10.7667 0.0178034
18 2 -1.13335 6.53796 10.6508
25 2 -2.56625 8.43661 12.544
27 2 -3.57075 10.7487 10.7532
50 2 -1.18971 10.4727 8.92776
26 2 -6.04222 10.4437 14.2264
53 2 -1.11266 10.4977 14.1918
111 1 -3.53298 7.29413 13.1527
112 1 -1.531 7.76519 11.5386
113 1 -4.56968 10.1728 14.8277
114 1 -6.00437 11.5414 13.0542
115 1 -4.53638 10.3552 9.55724
116 1 -3.43862 9.56344 11.8251
117 1 -4.17989 12.1029 11.3419
138 1 0.250264 6.67753 9.95119
145 1 0.264889 6.82418 15.1388
157 1 -1.87221 9.16335 8.23167
159 1 -2.14585 10.9872 10.0599
163 1 1.47857 7.31873 12.9089
165 1 -1.62978 9.09462 13.6615
166 1 0.412671 10.3086 14.6431
167 1 -1.16888 11.5725 13.0234
168 1 -2.17894 10.8703 15.365
169 1 0.251948 10.0909 9.49933
170 1 1.4176 9.78114 11.8331
12 2 -1.15163 6.53024 15.8641
52 2 2.28 8.57452 12.3751
34 2 -0.170362 12.6981 12.4635
23 2 -5.9592 10.4551 8.90766
196 1 8.80623 5.46767 1.17569
204 1 8.87098 5.38756 6.5725
203 1 7.6322 5.80374 4.40298
33 2 6.1761 2.20952 5.33727
198 1 10.6291 3.66203 5.99779
56 2 8.61967 2.10044 3.49023
197 1 8.65481 3.12911 7.75236
193 1 5.62401 4.68412 2.97297
60 2 11.1625 2.35354 5.30225
64 2 9.69381 4.27179 1.81542
65 2 6.25069 5.96692 3.61371
67 2 9.69731 4.20786 7.18911
131 1 5.55616 3.68488 0.578558
136 1 5.74081 3.63602 5.96586
172 1 13.1024 0.650299 2.81068
173 1 8.14337 0.703368 2.9207
174 1 7.55118 2.52951 4.62387
176 1 11.0717 1.16782 1.15264
180 1 12.5643 2.46819 4.60041
181 1 9.97462 2.0612 4.2842
182 1 11.3103 1.30717 6.48947
190 1 8.76341 3.10262 2.23487
191 1 10.7102 3.61318 0.76861
192 1 10.3959 4.85158 3.13622
58 2 12.0378 0.0259187 7.08364
55 2 12.0807 0.0609834 1.75204
11 2 10.9979 6.22564 3.59533
57 2 11.0021 2.24209 0.0265447
36 2 6.20089 2.15672 10.6051
213 1 8.84301 5.47808 11.8943
212 1 7.72426 5.74437 9.56948
209 1 7.69545 6.03377 14.6964
71 2 6.24401 6.26165 14.0498
59 2 8.73116 1.94894 8.82822
208 1 5.62388 5.01776 13.3898
62 2 8.54137 1.97185 14.1722
63 2 11.1308 2.31967 10.6951
68 2 6.25537 6.12156 9.0208
70 2 9.6523 4.18457 12.4456
207 1 10.4762 4.7924 13.6681
142 1 5.60272 3.56449 11.1384
175 1 12.4137 2.31868 15.3905
177 1 12.9686 0.576648 8.22354
178 1 8.26569 0.579403 8.16587
179 1 7.64324 2.25355 9.96291
183 1 12.9506 0.660902 13.5534
184 1 8.13072 0.50116 13.5949
185 1 9.91122 1.80116 14.9139
186 1 7.5329 2.535 15.2882
187 1 12.6042 2.46596 10.038
188 1 10.1308 1.97655 9.53017
189 1 11.0306 1.07812 11.7173
199 1 10.7018 4.86177 8.30129
200 1 5.69161 4.75925 8.39922
205 1 8.76195 2.97686 12.9773
206 1 10.6544 3.70776 11.3347
17 2 11.0564 6.14014 14.2314
30 2 6.07415 2.31628 15.9308
61 2 12.0532 0.0487981 12.3688
5 2 13.5163 2.00312 8.79949
8 2 13.4872 1.98022 14.2615
232 1 5.63996 12.0484 6.02496
229 1 7.63034 11.1101 4.81913
42 2 3.71315 6.44573 5.28272
75 2 6.18006 10.6038 0.142571
51 2 1.31012 10.8183 5.27294
230 1 5.12776 10.2264 4.25547
69 2 8.59509 6.46585 5.47117
73 2 7.1284 8.36182 1.90515
74 2 3.73705 10.4653 3.52472
231 1 6.35698 9.65795 6.55451
76 2 7.14224 8.44499 7.19791
78 2 6.1678 10.7071 5.39834
149 1 3.26598 7.88222 0.623409
154 1 0.745648 12.1598 0.5543
156 1 3.20017 7.84377 5.94843
162 1 0.69232 12.1543 5.91723
194 1 5.17596 6.60353 4.58604
202 1 10.0204 6.85078 4.75178
214 1 6.4196 7.09446 2.52204
215 1 8.03636 7.77676 0.696247
216 1 7.97481 9.07934 3.09798
217 1 3.04047 9.16447 3.00541
218 1 3.88806 11.6015 2.41062
219 1 2.68003 10.9869 4.62815
221 1 6.1892 9.53746 1.37104
222 1 5.58846 12.0781 0.599226
223 1 6.36381 7.15427 7.80356
224 1 8.07893 7.85729 6.02191
227 1 3.73997 11.759 7.79165
20 2 8.56795 10.4801 3.59791
39 2 3.77248 6.5442 15.9217
243 1 5.65199 12.2035 11.2341
48 2 1.31758 10.7962 15.8594
54 2 1.24083 10.7647 10.5814
72 2 8.69444 6.43324 10.6641
77 2 3.73429 10.5661 8.81774
79 2 7.20934 8.50414 12.345
80 2 3.80238 10.3945 14.1613
81 2 6.27368 10.8318 10.6059
164 1 3.13139 7.87988 11.2567
171 1 0.612683 12.121 11.1723
195 1 10.116 6.64606 15.395
201 1 5.25341 6.65969 10.1924
210 1 5.31917 6.67774 15.3096
211 1 10.0953 6.70289 9.96371
220 1 7.69382 10.8272 15.5132
225 1 8.03996 9.04501 8.43619
226 1 3.27695 9.17829 8.14017
228 1 2.70688 10.9028 9.95598
233 1 6.18213 7.41859 12.9333
234 1 8.09911 7.79037 11.2038
235 1 8.079 9.13588 13.5034
236 1 3.20516 9.11376 13.5403
237 1 5.27534 10.2349 14.8072
238 1 4.00122 11.451 13.0025
239 1 2.79653 10.9521 15.2683
240 1 7.72844 10.9667 10.0162
241 1 5.20998 10.4451 9.47183
242 1 6.32943 9.7179 11.6993
45 2 3.7551 6.53867 10.705
66 2 8.6626 6.51762 15.9149
ITEM: TIMESTEP
300
ITEM: NUMBER OF ATOMS
243
ITEM: BOX BOUNDS xy xz yz pp pp pp
-7.3695446500000008e+00 1.4691300000000000e+01 -7.3456000000000001e+00
0.0000000000000000e+00 1.2723000000000001e+01 -2.3944650000000678e-02
0.0000000000000000e+00 1.5963100000000001e+01 0.0000000000000000e+00
ITEM: ATOMS id type x y z
135 1 3.73876 3.15502 7.96096
139 1 2.68609 6.13997 4.26238
132 1 0.831531 4.75709 2.87999
6 2 1.1914 2.2684 5.21227
10 2 -0.07595 4.16879 1.70507
13 2 -0.305337 4.18397 7.08345
134 1 3.70793 5.40619 1.17671
29 2 3.73727 1.97503 3.51999
140 1 3.8268 5.44515 6.55882
37 2 4.64754 4.24118 1.69169
38 2 1.30681 6.14902 3.4556
120 1 6.40207 1.30216 1.17051
82 1 1.32285 1.24188 1.15622
83 1 0.226666 1.69085 4.05253
84 1 1.26265 1.11778 6.34607
88 1 -1.09594 3.10006 2.34007
89 1 0.840158 3.62978 0.486372
90 1 -0.824272 5.47427 1.0693
91 1 -1.25401 3.08563 7.71644
92 1 0.691157 3.61928 5.92172
93 1 -2.16696 6.01849 4.19219
94 1 -1.17598 5.3309 6.51922
118 1 3.21928 0.613909 2.91899
119 1 2.68579 2.42788 4.62662
11 2 -3.63933 6.3011 3.60163
123 1 5.10737 1.8334 4.41709
124 1 6.39856 1.29294 6.70208
130 1 3.77695 3.08745 2.36872
40 2 4.6612 4.24275 7.21728
31 2 7.23805 0.0480122 7.192
28 2 7.24335 0.107294 1.74427
1 2 2.17423 0.0806372 1.82962
4 2 2.25336 0.0219257 6.98959
146 1 2.77504 5.87949 9.40128
9 2 1.32716 2.20808 10.6142
16 2 -0.24558 4.16419 12.3327
32 2 3.8598 1.85702 8.95153
147 1 3.76032 5.41435 11.7383
35 2 3.83096 1.99843 14.1228
41 2 1.27947 6.15143 8.76715
43 2 4.72029 4.33844 12.4014
14 2 -3.60795 6.27268 8.87535
85 1 0.371354 1.65528 14.8122
86 1 0.445985 1.82107 9.3242
87 1 1.22573 1.15154 11.7921
95 1 -1.04768 2.98615 13.0859
96 1 0.660239 3.55945 11.1763
97 1 -2.07573 5.93791 14.7957
98 1 -2.11223 6.08857 9.46263
99 1 -1.19515 5.27113 11.6942
121 1 3.20711 0.650381 8.09531
122 1 2.80797 2.25546 10.0943
125 1 3.27175 0.629982 13.5217
126 1 5.23714 1.56964 14.7965
127 1 2.88623 2.44014 15.3168
128 1 5.26495 1.69454 9.51309
129 1 6.34213 1.19339 11.9523
137 1 0.693717 4.72788 8.21769
141 1 3.9457 3.00255 12.9096
143 1 0.750173 4.84125 13.387
144 1 2.76679 6.10714 14.6899
17 2 -3.57882 6.18017 14.3509
3 2 1.35346 2.22085 15.8832
44 2 1.30337 6.20152 14.0586
5 2 -1.08047 1.9267 8.84128
8 2 -1.11729 1.92615 14.239
161 1 1.33185 9.65339 6.38111
160 1 0.393796 10.2034 4.02548
19 2 -2.56935 8.49415 1.66566
15 2 -1.21291 6.49221 5.38008
22 2 -2.74048 8.44565 7.00848
24 2 -3.56659 10.7519 5.22741
46 2 2.23345 8.523 1.75636
47 2 -1.09895 10.5171 3.44732
49 2 2.24294 8.54039 7.07072
100 1 -3.53031 7.43711 2.42862
101 1 -1.65917 7.88963 0.485307
102 1 -6.17237 11.6527 2.43371
103 1 -3.57062 9.62573 1.07111
104 1 -4.23582 12.014 0.756922
105 1 -3.64275 7.24628 7.60395
106 1 -1.83006 7.89388 5.79116
107 1 -5.8546 11.5186 7.66112
108 1 -4.52795 10.3118 4.01013
109 1 -3.61497 9.56328 6.32091
110 1 -4.17708 12.0395 5.91257
133 1 0.250672 6.64915 4.65066
148 1 1.29071 7.24516 2.27613
150 1 -1.66564 9.21976 2.7485
151 1 -1.03625 11.7304 2.44394
152 1 -2.04282 11.0259 4.70807
153 1 1.29371 9.51468 0.940423
155 1 1.2521 7.35349 7.65353
158 1 -1.05325 11.6107 7.77344
21 2 -3.57725 10.7857 0.00993837
18 2 -1.07795 6.4678 10.5827
25 2 -2.63051 8.41329 12.451
27 2 -3.57526 10.7372 10.7874
50 2 -1.19094 10.4279 8.84817
23 2 -5.92672 10.484 8.88697
53 2 -1.16514 10.4259 14.2383
111 1 -3.4894 7.21036 13.0253
112 1 -1.71529 7.82249 11.206
113 1 -4.56076 10.3756 14.7253
114 1 -6.11844 11.6663 13.1166
115 1 -4.56307 10.1714 9.66458
116 1 -3.4971 9.62668 11.9609
117 1 -4.25425 12.0768 11.2378
138 1 0.395409 6.61028 10.0095
145 1 0.397859 6.76661 15.2187
157 1 -1.81774 9.08541 8.12799
159 1 -2.09423 10.8918 10.0557
163 1 1.33428 7.28847 12.8961
165 1 -1.83033 8.99949 13.7383
166 1 0.321055 10.2543 14.7081
167 1 -1.12239 11.3941 12.9704
168 1 -2.11348 10.973 15.3622
169 1 0.321022 10.1312 9.38671
170 1 1.3255 9.55484 11.828
12 2 -1.03316 6.56314 15.8973
52 2 2.31453 8.43138 12.4133
34 2 -0.218451 12.6558 12.458
26 2 -6.03972 10.5074 14.171
7 2 -5.16915 12.7228 12.3894
196 1 8.49405 5.31678 1.12237
204 1 8.80564 5.40142 6.67749
203 1 7.5643 5.89258 4.37569
33 2 6.21353 2.30938 5.45261
198 1 10.648 3.81737 5.94398
56 2 8.72183 1.91661 3.6028
197 1 8.8115 2.91307 7.56879
193 1 5.60178 4.80268 2.82342
60 2 11.134 2.38247 5.33952
64 2 9.61172 4.2787 1.79906
65 2 6.21123 6.12522 3.52326
67 2 9.73261 4.18791 7.20271
131 1 5.42205 3.58827 0.476221
136 1 5.58137 3.64355 6.0925
172 1 12.9677 0.585704 2.79158
173 1 8.25015 0.509334 2.9262
174 1 7.61667 2.44718 4.70449
176 1 11.1023 1.16377 1.2181
180 1 12.5598 2.48673 4.64148
181 1 10.1392 1.84431 4.23965
182 1 11.1339 1.2995 6.53068
190 1 8.7353 3.08649 2.47022
191 1 10.645 3.72525 0.719632
192 1 10.528 4.92306 2.9182
58 2 11.9996 0.0834735 7.05864
57 2 11.1212 2.33424 0.0996979
2 2 13.5146 1.94925 3.45147
36 2 6.26298 2.23942 10.6834
213 1 8.80663 5.43963 11.7085
212 1 7.69451 6.08749 9.49805
209 1 7.68623 6.12464 14.8252
71 2 6.2209 6.28171 14.2301
59 2 8.73962 2.0007 8.92567
208 1 5.61025 4.93215 13.5147
62 2 8.62487 1.90269 14.1173
63 2 11.1471 2.3807 10.783
68 2 6.25409 6.26146 8.8616
70 2 9.61414 4.29776 12.5005
207 1 10.4524 4.84846 13.7278
142 1 5.67424 3.68532 11.2967
175 1 12.5862 2.35682 15.4136
177 1 13.0418 0.616187 8.13454
178 1 8.21327 0.573479 8.35258
179 1 7.75821 2.49437 10.05
183 1 12.9564 0.481738 13.7088
184 1 8.08023 0.483343 13.6429
185 1 10.0392 1.90605 14.9181
186 1 7.6158 2.51696 15.1974
187 1 12.7057 2.35951 10.128
188 1 10.1672 1.84317 9.66659
189 1 11.1143 1.34788 12.0097
199 1 10.5062 4.76811 8.49171
200 1 5.71174 4.83839 8.22528
205 1 8.67749 3.00812 12.8737
206 1 10.6838 3.73836 11.4105
61 2 12.0515 0.0565632 12.4154
30 2 6.20665 2.31767 15.8904
232 1 5.46799 12.1373 5.86631
229 1 7.58658 10.8863 4.73801
42 2 3.77108 6.48428 5.3258
75 2 6.12561 10.6421 0.0492035
51 2 1.20695 10.7347 5.28815
230 1 5.13853 10.0926 4.31504
69 2 8.59303 6.46335 5.4575
73 2 7.1664 8.42915 1.73339
74 2 3.68953 10.4828 3.69098
231 1 6.26966 9.69452 6.65912
76 2 7.18776 8.56833 7.18698
78 2 6.11935 10.7471 5.41582
149 1 3.25059 7.89433 0.707004
154 1 0.670849 12.093 0.552279
156 1 3.32237 7.88427 5.98606
162 1 0.511234 12.0288 5.8771
194 1 5.20962 6.65107 4.67061
202 1 10.0683 6.77202 4.73877
214 1 6.43478 7.19702 2.35974
215 1 8.17006 7.96021 0.580815
216 1 8.16112 9.06978 2.85542
217 1 3.04557 9.19676 2.95815
218 1 3.88182 11.4252 2.38845
219 1 2.7144 11.0786 4.7944
221 1 6.2036 9.57505 1.21152
222 1 5.61922 12.1061 0.53506
223 1 6.19885 7.50751 7.84368
224 1 8.06711 7.87961 6.02332
227 1 3.84453 11.5556 7.72947
20 2 8.58986 10.4588 3.52954
55 2 4.67963 12.6462 1.69595
66 2 8.71276 6.54515 0.0526696
45 2 3.68111 6.47569 10.5922
243 1 5.68179 12.289 11.2453
48 2 1.27628 10.7773 15.8828
54 2 1.25647 10.6445 10.6331
72 2 8.63709 6.63201 10.66
77 2 3.76615 10.4331 8.90886
79 2 7.05272 8.55008 12.4967
80 2 3.68522 10.4 14.1665
81 2 6.23301 10.8871 10.6492
164 1 3.21489 7.85753 11.2356
171 1 0.750185 12.0748 11.2359
195 1 10.1723 6.73238 15.5291
201 1 5.11296 6.63133 9.87795
210 1 5.17391 6.78201 15.3943
211 1 10.1121 6.79663 10.0373
220 1 7.57672 10.8024 15.3916
225 1 8.0946 9.13904 8.33385
226 1 3.16611 9.13004 8.25855
228 1 2.74482 10.9209 10.0532
233 1 6.15946 7.37609 13.0323
234 1 7.92197 7.93385 11.2741
235 1 8.13563 9.16446 13.4868
236 1 3.11812 8.97745 13.6679
237 1 5.06477 10.1265 14.926