ITEM: TIMESTEP
0
ITEM: NUMBER OF ATOMS
243
ITEM: BOX BOUNDS xy xz yz pp pp pp
-7.3456000000000001e+00 1.4691300000000000e+01 -7.3456000000000001e+00
0.0000000000000000e+00 1.2723000000000001e+01 0.0000000000000000e+00
0.0000000000000000e+00 1.5963100000000001e+01 0.0000000000000000e+00
ITEM: ATOMS id type x y z
135 1 3.77085 3.02103 7.74974
139 1 2.7791 6.06891 4.21256
132 1 0.599342 4.86252 3.0137
6 2 1.18788 2.30558 5.3735
10 2 -0.342492 4.24886 1.89717
13 2 -0.0563734 4.3795 7.2085
134 1 3.84704 5.49731 1.29941
29 2 3.78369 1.97764 3.57205
140 1 3.76893 5.34116 6.42531
37 2 4.75443 4.26335 1.85865
38 2 1.31023 6.26574 3.51364
120 1 6.2621 1.03915 1.09868
82 1 1.23814 1.13497 1.19043
83 1 0.423388 1.86751 4.05868
84 1 1.20008 1.23186 6.61107
88 1 -1.29022 3.12038 2.60445
89 1 0.504342 3.57273 0.669155
90 1 -1.17899 5.34982 1.16847
91 1 -1.14587 3.35524 7.8062
92 1 0.663067 3.68751 5.99398
93 1 -2.13031 6.05956 4.22267
94 1 -0.886931 5.5246 6.43728
118 1 3.30006 0.647454 2.85001
119 1 2.6895 2.43893 4.78775
31 2 7.10836 0.0354425 7.03558
123 1 5.2615 1.79468 4.07054
124 1 6.19011 1.14349 6.3107
130 1 3.82784 3.11406 2.42186
40 2 4.6297 4.15765 7.04216
146 1 2.96437 6.03663 9.45854
9 2 1.3951 2.35026 10.7261
16 2 -0.040861 4.30228 12.4417
32 2 3.74667 1.87079 8.86828
147 1 3.73718 5.4388 11.909
35 2 3.64241 1.984 14.2314
41 2 1.47005 6.28042 8.93614
43 2 4.62835 4.21918 12.3945
44 2 1.27364 6.23891 14.4433
85 1 0.311753 1.64173 14.6865
86 1 0.348019 1.99666 9.55204
87 1 1.27058 1.25201 11.8869
95 1 -0.926775 3.07571 12.8696
96 1 0.98019 3.77611 11.323
97 1 -2.10438 5.99449 14.8013
98 1 -2.07607 5.90907 9.63223
99 1 -0.943058 5.46888 11.815
121 1 3.03296 0.578547 8.2219
122 1 2.87496 2.33094 10.0943
125 1 3.18603 0.590758 13.6062
126 1 5.10446 1.8894 14.7864
127 1 2.62356 2.53898 15.3214
128 1 5.31333 1.66592 9.30438
129 1 6.35676 1.28191 11.6996
137 1 0.841093 4.86976 8.45043
141 1 3.63402 3.0286 13.0193
143 1 0.644372 4.96475 13.7176
144 1 2.67747 5.8371 15.071
7 2 2.23278 0.0432596 12.4568
14 2 -3.50221 6.07326 8.92759
17 2 -3.55247 6.25224 14.1497
5 2 -1.13404 2.1526 8.85124
34 2 7.09579 0.0583186 12.4553
8 2 -1.12165 1.99097 14.0838
3 2 1.19691 2.24518 15.9574
161 1 1.25413 9.74902 6.60061
160 1 0.324348 10.1021 4.10771
19 2 -2.71811 8.50719 1.73331
15 2 -1.09813 6.62901 5.32041
22 2 -2.49643 8.47735 7.21775
24 2 -3.59267 10.7215 5.38981
46 2 2.38002 8.47174 1.76543
47 2 -1.1563 10.3589 3.51746
49 2 2.15426 8.50846 7.10293
100 1 -3.56727 7.28122 2.36031
101 1 -1.7146 7.89916 0.657708
102 1 -6.01453 11.5773 2.64037
103 1 -3.60348 9.76413 1.28355
104 1 -4.2281 12.2377 0.574038
105 1 -3.40553 7.29943 7.89159
106 1 -1.65283 7.97388 5.97115
107 1 -6.08675 11.5249 7.66601
108 1 -4.48873 10.0629 4.19864
109 1 -3.45937 9.62944 6.59097
110 1 -4.25506 12.0819 5.86406
133 1 0.407684 6.88978 4.72479
148 1 1.44407 7.38704 2.37526
150 1 -1.77108 8.95544 2.98723
151 1 -1.0058 11.4057 2.34668
152 1 -2.12643 10.9287 4.72802
153 1 1.45273 9.59425 1.17574
155 1 1.23744 7.32393 7.73756
158 1 -1.02971 11.5511 7.68296
1 2 -5.12164 12.6773 1.83126
21 2 -3.53874 10.8325 0.0965374
28 2 -0.135008 12.6277 1.83302
4 2 -5.19769 12.6876 7.00286
12 2 -1.26053 6.51234 0.0481032
18 2 -0.968323 6.55424 10.6409
25 2 -2.48846 8.5144 12.2928
27 2 -3.66503 10.6944 10.5654
50 2 -1.10388 10.5627 8.86316
52 2 2.32678 8.53157 12.5719
53 2 -1.1158 10.4393 14.198
111 1 -3.33503 7.29912 12.9062
112 1 -1.51676 7.9978 11.1689
113 1 -4.48743 10.323 14.7644
114 1 -6.00367 11.5974 13.1215
115 1 -4.61171 10.2547 9.3801
116 1 -3.52854 9.538 11.6177
117 1 -4.21688 12.0212 11.3354
138 1 0.484497 6.88087 10.0563
145 1 0.239733 6.81912 15.5176
157 1 -1.48028 9.1657 8.25709
159 1 -2.19613 10.9588 9.97868
163 1 1.47806 7.35053 13.3129
165 1 -1.65813 9.10748 13.4941
166 1 0.429507 10.1742 14.6895
167 1 -1.09386 11.6072 13.1175
168 1 -2.03426 10.7994 15.4431
169 1 0.293206 10.4817 9.68231
170 1 1.46817 9.73014 11.8956
196 1 8.65935 5.38409 1.09588
204 1 8.62126 5.35307 6.41323
203 1 7.72866 5.99594 4.00637
33 2 6.25948 2.29671 5.20997
198 1 10.4281 3.60958 5.84344
56 2 8.66182 1.96492 3.48579
197 1 8.63863 3.07377 7.5719
193 1 5.6774 4.81739 3.02044
60 2 11.0508 2.21191 5.23895
64 2 9.61264 4.24975 1.77435
65 2 6.21068 6.25847 3.56792
67 2 9.57726 4.22941 7.04317
131 1 5.61743 3.6778 0.637141
136 1 5.49669 3.63914 5.78729
172 1 13.0513 0.600129 3.05681
173 1 8.07051 0.584356 2.9913
174 1 7.76894 2.50199 4.69589
176 1 11.3666 1.15058 1.14269
180 1 12.6243 2.41539 4.9025
181 1 10.1831 1.77245 3.98939
182 1 11.0601 0.999933 6.26643
190 1 8.66483 3.06013 2.34034
191 1 10.5123 3.60284 0.602798
192 1 10.5932 4.77315 2.91605
2 2 13.5161 1.94597 3.68031
58 2 12.1329 0.0436974 7.00558
11 2 11.0979 6.21253 3.53381
30 2 6.17717 2.23621 0.0419636
36 2 6.16209 2.27519 10.5348
213 1 8.61154 5.2609 11.7142
212 1 7.72786 5.94241 9.35077
209 1 7.76519 6.01409 14.6486
71 2 6.19393 6.13856 14.1334
59 2 8.55596 2.06856 8.78866
208 1 5.64667 4.76126 13.4737
62 2 8.64042 1.92575 14.2072
63 2 11.0375 2.26992 10.5795
68 2 6.22877 6.13868 8.84254
70 2 9.57742 4.19009 12.3974
207 1 10.5395 4.91734 13.4902
142 1 5.50649 3.59704 11.1874
175 1 12.6297 2.59856 15.2269
177 1 13.0978 0.858315 8.02514
178 1 7.9649 0.719307 8.19803
179 1 7.5431 2.68304 9.85297
183 1 12.9183 0.690246 13.4819
184 1 7.9314 0.60402 13.6992
185 1 10.1832 1.7127 14.7163
186 1 7.67475 2.48323 15.3906
187 1 12.4424 2.46215 9.9321
188 1 9.96132 1.94693 9.52808
189 1 11.1732 1.2235 11.7455
199 1 10.5786 4.80811 8.10257
200 1 5.60401 4.88052 8.1254
205 1 8.67317 2.97761 12.9749
206 1 10.577 3.58849 11.313
57 2 11.2168 2.26798 15.8724
232 1 5.76124 12.136 5.91287
229 1 7.86889 10.7809 4.85612
42 2 3.80219 6.58307 5.37315
39 2 3.80028 6.44859 0.022982
51 2 1.2487 10.6982 5.31267
230 1 5.35628 10.3958 4.04036
69 2 8.65419 6.50088 5.26328
73 2 7.09927 8.47154 1.75931
74 2 3.85292 10.4292 3.53308
231 1 6.3155 9.60094 6.43659
76 2 7.10078 8.38437 7.05407
78 2 6.30718 10.7795 5.28288
149 1 3.22471 7.88888 0.490121
154 1 0.681416 12.0739 0.580886
156 1 3.23368 7.83781 6.05492
162 1 0.762174 12.1223 5.90493
194 1 5.26731 6.7321 4.77915
202 1 10.1177 6.6154 4.72139
214 1 6.17603 7.31125 2.37678
215 1 7.96482 7.8605 0.549546
216 1 8.05067 8.97566 2.91718
217 1 3.40535 9.12154 2.78343
218 1 3.87678 11.6275 2.48648
219 1 2.82124 10.8064 4.73002
221 1 6.15501 9.55924 1.0386
222 1 5.80629 12.0641 0.714902
223 1 6.19217 7.29349 7.73179
224 1 8.0585 7.85968 5.93995
227 1 3.99426 11.6176 7.81488
20 2 8.73173 10.2914 3.62757
55 2 4.86936 12.7113 1.89483
48 2 1.29858 10.6907 15.9327
243 1 5.56485 12.0822 11.1585
23 2 8.60163 10.4026 8.79913
54 2 1.44568 10.823 10.7157
72 2 8.62445 6.41349 10.5937
77 2 3.78691 10.4328 8.86398
79 2 7.1392 8.39785 12.4447
80 2 3.77803 10.564 14.1616
81 2 6.18763 10.7013 10.6452
164 1 3.19545 7.98657 11.2544
171 1 0.804615 12.0905 11.3916
195 1 10.2142 6.75847 15.343
201 1 5.28288 6.61083 10.0531
210 1 5.19998 6.60527 15.2797
211 1 10.1717 6.60383 10.0988
220 1 7.77096 10.7294 15.4446
225 1 7.9984 8.98212 8.26529
226 1 3.17658 9.16934 8.19172
228 1 2.83119 10.982 9.99034
233 1 6.1813 7.27726 13.0574
234 1 7.95803 7.70833 11.283
235 1 8.10555 9.06628 13.5495
236 1 3.37886 9.07919 13.6561
237 1 5.28973 10.5475 14.6732
238 1 3.68581 11.6426 12.9543
239 1 2.73511 10.9169 15.3418
240 1 7.67365 10.835 10.087
241 1 5.2972 10.1485 9.39374
242 1 6.21696 9.57861 11.847
45 2 3.81653 6.55107 10.7343
66 2 8.66954 6.53711 15.8549
61 2 4.68786 12.6927 12.3332
75 2 6.24644 10.7093 15.9246
26 2 8.6922 10.3887 14.1796
ITEM: TIMESTEP
100
ITEM: NUMBER OF ATOMS
243
ITEM: BOX BOUNDS xy xz yz pp pp pp
-7.3376184499999990e+00 1.4691300000000000e+01 -7.3376184499999990e+00
0.0000000000000000e+00 1.2723000000000001e+01 0.0000000000000000e+00
0.0000000000000000e+00 1.5963100000000001e+01 0.0000000000000000e+00
ITEM: ATOMS id type x y z
135 1 3.84186 2.95857 7.5728
139 1 2.71981 5.92892 4.18015
132 1 0.742161 4.97008 2.79603
6 2 1.3332 2.23347 5.31269
10 2 -0.244396 4.36627 1.72355
13 2 -0.134976 4.33022 7.09712
134 1 3.99798 5.49301 1.25815
29 2 3.78141 1.88206 3.49591
140 1 3.77039 5.46909 6.62235
37 2 4.7494 4.21644 1.86574
38 2 1.32983 6.30101 3.50561
120 1 6.24049 1.12669 1.11931
82 1 1.41241 1.06396 1.14846
83 1 0.325809 1.6811 4.23258
84 1 1.36412 1.16582 6.48538
88 1 -1.00221 3.12662 2.37742
89 1 0.663589 3.584 0.645742
90 1 -1.20815 5.50704 1.15106
91 1 -1.08898 3.30024 7.80778
92 1 0.801279 3.69113 5.98044
93 1 -2.14657 6.12854 4.21822
94 1 -1.00806 5.63488 6.57922
118 1 3.08316 0.607908 2.89385
119 1 2.85628 2.33125 4.75309
2 2 -1.07018 1.94967 3.53465
123 1 5.26796 1.81657 4.06036
124 1 6.33897 1.14083 6.3928
130 1 3.7186 3.15651 2.50089
40 2 4.66868 4.2113 7.14166
11 2 -3.56501 6.22451 3.54409
3 2 1.27665 2.223 0.0652304
146 1 2.87708 6.08889 9.4015
9 2 1.36925 2.29143 10.678
16 2 -0.0303453 4.27836 12.4414
32 2 3.73487 1.95114 8.78677
147 1 3.76255 5.49172 11.9002
35 2 3.62444 2.00816 14.1893
41 2 1.38623 6.30015 8.8746
43 2 4.69275 4.27246 12.3499
14 2 -3.54221 6.25155 8.92338
85 1 0.225952 1.69409 14.9257
86 1 0.369048 1.86643 9.47317
87 1 1.44751 1.11188 11.7633
95 1 -0.878855 3.05702 13.0857
96 1 0.954734 3.64008 11.4028
97 1 -2.15422 5.96317 14.8172
98 1 -2.0337 6.09611 9.46587
99 1 -0.996056 5.37393 11.7494
121 1 3.1055 0.539117 8.2689
122 1 2.73639 2.53664 9.88693
125 1 3.03981 0.588571 13.668
126 1 5.02245 1.81339 14.9611
127 1 2.6038 2.47633 15.2711
128 1 5.17538 1.62737 9.44949
129 1 6.27579 1.25823 11.8674
137 1 0.82736 5.00321 8.13728
141 1 3.84535 3.12883 13.0346
143 1 0.81784 4.99252 13.5757
144 1 2.73227 5.96961 14.9735
34 2 7.11902 0.0254907 12.5046
5 2 -1.10139 2.11948 8.86804
44 2 1.3468 6.35182 14.2735
161 1 1.36838 9.58898 6.48781
160 1 0.31676 10.1887 4.19458
19 2 -2.66218 8.46452 1.79938
15 2 -1.14022 6.6683 5.38982
22 2 -2.60737 8.55773 7.20139
24 2 -3.66216 10.7445 5.35632
46 2 2.38604 8.52726 1.74686
47 2 -1.1253 10.4078 3.59729
49 2 2.3842 8.54338 7.0224
100 1 -3.50848 7.30431 2.39422
101 1 -1.9715 7.89315 0.491291
102 1 -5.77734 11.4102 2.37548
103 1 -3.54408 9.60788 1.25266
104 1 -4.05246 12.0473 0.588784
105 1 -3.46697 7.3485 7.73874
106 1 -1.70264 8.04594 5.97152
107 1 -6.11365 11.5188 7.65925
108 1 -4.60429 10.1232 4.21384
109 1 -3.5506 9.71363 6.5693
110 1 -4.26995 12.0464 5.99278
133 1 0.240543 6.75548 4.57173
148 1 1.53697 7.37093 2.25808
150 1 -1.71171 9.07241 2.92387
151 1 -1.10871 11.5501 2.42568
152 1 -2.19299 10.9496 4.6916
153 1 1.48193 9.74317 1.19734
155 1 1.50715 7.37438 7.64921
158 1 -1.05227 11.513 7.65949
1 2 -5 12.6278 1.72556
21 2 -3.5383 10.6507 0.043406
28 2 -0.275291 12.6839 1.77457
4 2 -5.1458 12.6829 7.11655
31 2 -0.146374 12.6837 7.01807
18 2 -1.04247 6.5788 10.6752
25 2 -2.60457 8.49268 12.4598
27 2 -3.59618 10.7097 10.6041
50 2 -1.08947 10.4854 8.89783
7 2 -5.14512 12.6058 12.5233
53 2 -1.08173 10.563 14.3221
111 1 -3.52418 7.2692 13.0276
112 1 -1.6274 7.93369 11.336
113 1 -4.50488 10.2574 14.8085
114 1 -6.08765 11.5206 13.2171
115 1 -4.58096 10.1829 9.5095
116 1 -3.49365 9.66427 11.7859
117 1 -4.22507 11.9883 11.3427
138 1 0.42495 6.66114 10.066
145 1 0.237786 6.71789 15.4017
157 1 -1.71886 9.10819 8.40192
159 1 -2.15279 11.0355 10.0169
163 1 1.46604 7.48871 13.1025
165 1 -1.72477 9.23653 13.6003
166 1 0.413664 10.289 14.8139
167 1 -1.10908 11.6163 13.1298
168 1 -2.08344 10.9312 15.4984
169 1 0.352554 10.3822 9.57357
170 1 1.43414 9.751 11.9105
23 2 -6.01769 10.4363 8.90287
12 2 -1.28024 6.55187 15.9416
196 1 8.81341 5.38234 0.965502
204 1 8.83134 5.50958 6.57595
203 1 7.68224 5.98349 4.16856
33 2 6.17949 2.24777 5.27701
198 1 10.6195 3.64706 5.92027
56 2 8.6378 1.96917 3.46511
197 1 8.67284 3.07207 7.58111
193 1 5.66335 4.78898 3.05806
60 2 11.0896 2.26522 5.19344
64 2 9.61521 4.2 1.70991
65 2 6.17016 6.17878 3.61333
67 2 9.66568 4.28242 7.13401
131 1 5.63257 3.55696 0.71587
136 1 5.67494 3.64788 5.94529
172 1 12.9272 0.674487 2.88527
173 1 8.01904 0.672312 2.84737
174 1 7.6572 2.44499 4.61459
176 1 11.2478 1.13563 1.04961
180 1 12.5803 2.55094 4.61831
181 1 10.0741 1.81627 4.05442
182 1 11.1625 1.09953 6.25281
190 1 8.73388 3.06397 2.3635
191 1 10.5509 3.61931 0.5868
192 1 10.5341 4.9477 2.84948
58 2 12.067 0.0463645 7.07878
36 2 6.1039 2.29314 10.5216
213 1 8.75213 5.2749 11.9054
212 1 7.69604 5.81393 9.54047
209 1 7.6571 6.19968 14.7838
71 2 6.20399 6.18547 14.0662
59 2 8.65551 2.0302 8.80643
208 1 5.75618 4.83734 13.386
62 2 8.6352 1.94998 14.1903
63 2 11.0827 2.21728 10.5645
68 2 6.25025 6.08428 9.01314
70 2 9.75639 4.11896 12.3948
207 1 10.4439 4.8175 13.6643
142 1 5.42682 3.74104 10.9653
175 1 12.5314 2.50637 15.2208
177 1 12.933 0.737865 8.27905
178 1 8.0799 0.682603 8.1706
179 1 7.62977 2.52514 9.96538
183 1 12.9275 0.658084 13.4561
184 1 8.08374 0.495058 13.6662
185 1 10.0312 1.81991 14.9119
186 1 7.53301 2.49442 15.1712
187 1 12.6176 2.41526 10.1729
188 1 10.1386 1.79112 9.34135
189 1 11.1204 1.09965 11.719
199 1 10.5684 4.90596 8.31171
200 1 5.57971 4.82176 8.27131
205 1 8.84168 2.92652 12.925
206 1 10.5981 3.61131 11.215
57 2 11.1662 2.31125 15.9397
8 2 13.5332 1.91736 14.1586
17 2 11.0507 6.21806 14.1938
30 2 6.12338 2.23473 15.9355
232 1 5.76784 12.0762 6.02923
229 1 7.64116 10.8086 4.70536
42 2 3.74322 6.41937 5.34393
39 2 3.74621 6.51024 0.0727324
51 2 1.36586 10.7051 5.30147
230 1 5.20703 10.2878 4.21753
69 2 8.65916 6.50129 5.35824
73 2 7.10082 8.41871 1.7763
74 2 3.79581 10.4324 3.54467
231 1 6.16191 9.5384 6.46793
76 2 7.09704 8.41792 7.16468
78 2 6.18206 10.6717 5.42778
149 1 3.23517 7.90532 0.562852
154 1 0.774619 12.2113 0.678219
156 1 3.10564 7.88063 5.76904
162 1 0.796687 12.1342 5.88725
194 1 5.25517 6.60638 4.81255
202 1 10.0473 6.68256 4.68166
214 1 6.28201 7.2262 2.4369
215 1 8.09691 7.89457 0.705847
216 1 7.93835 9.11035 2.89483
217 1 3.30849 9.13196 2.85465
218 1 3.80424 11.5353 2.40988
219 1 2.79833 10.8645 4.67641
221 1 6.16461 9.48292 1.13369
222 1 5.76919 12.0536 0.67748
223 1 6.42011 7.22258 7.95134
224 1 7.92561 7.75117 5.97448
227 1 3.8384 11.5584 7.63503
20 2 8.69282 10.392 3.53601
55 2 4.72571 12.6425 1.76072
75 2 6.21906 10.6442 0.0400278
48 2 1.38116 10.8429 15.9432
243 1 5.64543 12.077 11.23
26 2 8.68363 10.3228 14.2335
54 2 1.37251 10.8215 10.7258
72 2 8.64693 6.38305 10.7308
77 2 3.7041 10.5118 8.83736
79 2 7.19978 8.43248 12.3727
80 2 3.83554 10.4481 14.2126
81 2 6.20288 10.7623 10.5244
164 1 3.27783 7.94525 11.2199
171 1 0.754586 12.2049 11.334
195 1 10.0916 6.85938 15.2774
201 1 5.33409 6.61392 10.2084
210 1 5.14615 6.54279 15.17
211 1 10.1097 6.67058 10.0734
220 1 7.7482 10.7597 15.4416
225 1 8.17326 9.08679 8.15567
226 1 3.2117 9.10992 8.19484
228 1 2.76379 10.9687 9.98363
233 1 6.22054 7.34599 12.9834
234 1 8.14351 7.80724 11.2861
235 1 8.09032 9.00156 13.5383
236 1 3.38706 9.11209 13.5426
237 1 5.30979 10.2292 14.7666
238 1 3.84537 11.5149 13.002
239 1 2.84942 11.0292 15.3394
240 1 7.61235 11.0119 9.92283
241 1 5.21158 10.3071 9.36317
242 1 6.34192 9.59649 11.6457
45 2 3.8203 6.52599 10.6352
66 2 8.66885 6.60242 15.9059
61 2 4.69735 12.6899 12.3101
52 2 2.39582 8.59433 12.4135
ITEM: TIMESTEP
200
ITEM: NUMBER OF ATOMS
243
ITEM: BOX BOUNDS xy xz yz pp pp pp
-7.3296369000000023e+00 1.4691300000000000e+01 -7.3296369000000023e+00
0.0000000000000000e+00 1.2723000000000001e+01 0.0000000000000000e+00
0.0000000000000000e+00 1.5963100000000001e+01 0.0000000000000000e+00
ITEM: ATOMS id type x y z
135 1 3.96001 3.04896 7.82226
139 1 2.68729 6.01829 4.16574
132 1 0.784408 4.86501 2.87364
6 2 1.20718 2.17217 5.32563
10 2 -0.073235 4.26841 1.67165
13 2 -0.219749 4.19951 7.04382
134 1 3.77765 5.43555 1.13388
29 2 3.69545 1.94746 3.5747
140 1 3.86651 5.32214 6.40147
37 2 4.63525 4.26568 1.78497
38 2 1.32805 6.23648 3.49229
120 1 6.31802 1.31053 1.18467
82 1 1.55331 1.21014 1.21922
83 1 0.343687 1.70617 4.03621
84 1 1.33124 1.11002 6.46671
88 1 -0.95264 3.0766 2.24837
89 1 0.731141 3.62359 0.459362
90 1 -0.95598 5.44787 1.06094
91 1 -1.11772 3.06591 7.63046
92 1 0.488912 3.45859 5.76913
93 1 -2.27021 6.03662 4.24083
94 1 -0.9724 5.43367 6.41157
118 1 3.30264 0.528447 2.93924
119 1 2.71839 2.53699 4.68378
2 2 -1.08513 2.00619 3.45892
123 1 5.12015 1.74361 4.28955
124 1 6.33225 1.15709 6.509
130 1 3.86647 2.9292 2.31893
40 2 4.85873 4.24708 7.19972
31 2 7.19877 0.024664 7.15111
28 2 7.14958 0.127945 1.7826
4 2 2.35578 0.0580197 7.05159
146 1 2.74864 6.101 9.51791
9 2 1.31528 2.29307 10.5457
16 2 -0.110208 4.19544 12.3144
32 2 3.80178 1.95743 8.91512
147 1 3.72918 5.38216 11.7761
35 2 3.73511 1.96718 14.1275
41 2 1.26559 6.1702 8.90066
43 2 4.69158 4.23313 12.3464
14 2 -3.56306 6.25934 8.8548
85 1 0.249217 1.62137 14.9427
86 1 0.273636 1.82611 9.41721
87 1 1.31285 1.16654 11.7097
95 1 -0.947816 3.01291 13.0909
96 1 0.736008 3.66069 11.0963
97 1 -2.12089 6.00065 14.7412
98 1 -2.1162 6.31438 9.46125
99 1 -1.00077 5.34835 11.6726
121 1 3.26578 0.664342 8.20664
122 1 2.85474 2.27322 10.1258
125 1 3.1633 0.58413 13.5531
126 1 5.23623 1.74431 14.7675
127 1 2.72254 2.44674 15.2459
128 1 5.20621 1.65626 9.52529
129 1 6.27983 1.16601 11.7911
137 1 0.740604 4.83558 8.19182
141 1 3.89724 3.08473 13.0252
143 1 0.743948 4.88863 13.4824
144 1 2.72701 6.08087 14.7927
7 2 2.1781 0.0363864 12.3986
3 2 1.30249 2.24284 15.9093
44 2 1.28286 6.2697 14.0682
161 1 1.51127 9.69291 6.42331
160 1 0.291958 10.4065 4.16988
19 2 -2.63646 8.50999 1.74338
15 2 -1.18364 6.52882 5.31993
22 2 -2.67193 8.51178 7.0717
24 2 -3.71255 10.7257 5.31495
46 2 2.33179 8.53019 1.76696
47 2 -1.14922 10.4835 3.54421
49 2 2.31758 8.52087 7.10432
100 1 -3.48096 7.33475 2.43032
101 1 -1.71979 7.80807 0.67822
102 1 -5.95335 11.5471 2.40607
103 1 -3.57252 9.68144 1.18044
104 1 -4.20454 12.1424 0.496693
105 1 -3.52668 7.32848 7.66584
106 1 -1.67579 7.84629 5.9867
107 1 -5.82701 11.5383 7.69269
108 1 -4.68275 10.1246 4.19448
109 1 -3.54419 9.71669 6.53129
110 1 -4.22173 12.156 5.80744
133 1 0.294223 6.74702 4.61951
148 1 1.37898 7.35341 2.37733
150 1 -1.64934 9.17968 2.80668
151 1 -1.10191 11.7071 2.46416
152 1 -2.21877 10.7571 4.66723
153 1 1.40607 9.75178 1.09313
155 1 1.43845 7.31795 7.76796
158 1 -1.03101 11.5908 7.76732
1 2 -4.95917 12.6663 1.82342
21 2 -3.59281 10.7675 0.0194493
18 2 -1.1147 6.53768 10.6483
25 2 -2.54463 8.43532 12.5476
27 2 -3.54833 10.747 10.7536
50 2 -1.16821 10.4712 8.92474
26 2 -6.0147 10.4437 14.2263
53 2 -1.08517 10.4948 14.1937
111 1 -3.51746 7.291 13.1415
112 1 -1.51098 7.7654 11.5389
113 1 -4.54064 10.1708 14.8266
114 1 -5.97594 11.5415 13.0547
115 1 -4.51508 10.3506 9.56045
116 1 -3.41377 9.56223 11.8271
117 1 -4.15305 12.1029 11.3421
138 1 0.266548 6.67635 9.95092
145 1 0.303804 6.82487 15.1455
157 1 -1.84538 9.15757 8.23881
159 1 -2.12261 10.9833 10.0574
163 1 1.50677 7.32065 12.9152
165 1 -1.60552 9.09367 13.6629
166 1 0.444116 10.2997 14.6386
167 1 -1.13955 11.574 13.0261
168 1 -2.1478 10.869 15.3685
169 1 0.273327 10.0904 9.50012
170 1 1.43588 9.78331 11.8381
12 2 -1.10425 6.5263 15.8773
52 2 2.30071 8.57882 12.3738
34 2 -0.139077 12.7051 12.4638
23 2 -5.93359 10.4529 8.90487
196 1 8.8186 5.46788 1.1738
204 1 8.88734 5.38768 6.5707
203 1 7.66597 5.77428 4.38982
33 2 6.18417 2.20961 5.33976
198 1 10.6438 3.66411 5.99458
56 2 8.62734 2.09995 3.49242
197 1 8.66867 3.12721 7.75504
193 1 5.61329 4.71554 2.94554
60 2 11.1687 2.35373 5.30363
64 2 9.70286 4.26997 1.81321
65 2 6.25152 5.95973 3.60879
67 2 9.70469 4.20207 7.17878
131 1 5.55266 3.68404 0.576691
136 1 5.7499 3.63826 5.96324
172 1 13.1042 0.652638 2.80523
173 1 8.14837 0.699257 2.92337
174 1 7.55745 2.52783 4.62291
176 1 11.0578 1.17279 1.16637
180 1 12.5693 2.46726 4.60168
181 1 9.98076 2.05934 4.28736
182 1 11.3176 1.30843 6.49064
190 1 8.77753 3.0983 2.23207
191 1 10.7273 3.62111 0.764256
192 1 10.4089 4.8423 3.13425
58 2 12.0442 0.0267773 7.08343
55 2 12.0798 0.0675429 1.74746
11 2 10.9925 6.22546 3.60469
57 2 11.0057 2.23865 0.0326166
36 2 6.2149 2.15686 10.6076
213 1 8.86297 5.47976 11.8935
212 1 7.74173 5.74361 9.56773
209 1 7.71715 6.03239 14.6953
71 2 6.26364 6.26216 14.0498
59 2 8.74193 1.94758 8.83153
208 1 5.64383 5.01821 13.3881
62 2 8.55696 1.9677 14.1687
63 2 11.1461 2.31792 10.6987
68 2 6.27332 6.12235 9.02119
70 2 9.67073 4.18683 12.4456
207 1 10.4965 4.78255 13.6624
142 1 5.61733 3.56491 11.1362
175 1 12.4303 2.31041 15.3907
177 1 12.9768 0.575941 8.2241
178 1 8.27529 0.577924 8.16623
179 1 7.6548 2.25135 9.96526
183 1 12.9658 0.659924 13.5531
184 1 8.14687 0.503512 13.5946
185 1 9.92845 1.80689 14.9222
186 1 7.55105 2.53497 15.288
187 1 12.6162 2.46505 10.0371
188 1 10.1429 1.97513 9.53185
189 1 11.0422 1.0789 11.7191
199 1 10.7138 4.85583 8.29977
200 1 5.70873 4.76187 8.39533
205 1 8.7813 2.9761 12.9746
206 1 10.6697 3.71105 11.3338
17 2 11.0696 6.13795 14.2119
30 2 6.08883 2.31075 15.9248
61 2 12.0657 0.0521988 12.3645
5 2 13.5264 2.0008 8.80075
8 2 13.4999 1.98043 14.262
232 1 5.66073 12.0463 6.02631
229 1 7.64692 11.1135 4.82121
42 2 3.72587 6.44569 5.28429
75 2 6.19372 10.6032 0.14224
51 2 1.3338 10.808 5.2801
230 1 5.1447 10.2241 4.25605
69 2 8.62404 6.47692 5.47662
73 2 7.14183 8.36766 1.90381
74 2 3.7594 10.469 3.52461
231 1 6.37939 9.65698 6.55777
76 2 7.16371 8.43725 7.19107
78 2 6.18465 10.7065 5.39803
149 1 3.2564 7.85094 0.642435
154 1 0.757684 12.1599 0.550337
156 1 3.2116 7.84048 5.9496
162 1 0.713248 12.152 5.91505
194 1 5.20174 6.611 4.60876
202 1 10.0264 6.85943 4.75481
214 1 6.44466 7.10573 2.54154
215 1 8.04727 7.77918 0.694118
216 1 7.9912 9.07758 3.10079
217 1 3.05257 9.16742 3.01235
218 1 3.90937 11.6059 2.40896
219 1 2.69995 10.9858 4.62834
221 1 6.19948 9.53843 1.37148
222 1 5.60268 12.0801 0.596114
223 1 6.38205 7.15014 7.80256
224 1 8.09018 7.86493 5.99696
227 1 3.7604 11.7562 7.78633
20 2 8.58117 10.4817 3.5948
39 2 3.80017 6.53179 15.9117
243 1 5.67809 12.2015 11.235
48 2 1.3454 10.7951 15.8598
54 2 1.26681 10.7602 10.5827
72 2 8.71389 6.43201 10.6625
77 2 3.76018 10.5674 8.81887
79 2 7.23172 8.5049 12.3458
80 2 3.82996 10.3943 14.1612
81 2 6.28884 10.8318 10.6082
164 1 3.15198 7.87943 11.2564
171 1 0.64063 12.1203 11.1697
195 1 10.1302 6.63845 15.3815
201 1 5.27254 6.65694 10.1916
210 1 5.34305 6.67673 15.3052
211 1 10.1095 6.7051 9.97198
220 1 7.7228 10.8257 15.5128
225 1 8.05948 9.03872 8.43616
226 1 3.3009 9.17456 8.13965
228 1 2.72702 10.9006 9.95255
233 1 6.20503 7.41811 12.9338
234 1 8.11914 7.78909 11.2016
235 1 8.10574 9.13616 13.5029
236 1 3.22974 9.11466 13.5391
237 1 5.30345 10.2324 14.8068
238 1 4.02927 11.4513 13.0035
239 1 2.8255 10.9499 15.2691
240 1 7.75191 10.9683 10.0198
241 1 5.23375 10.4479 9.47118
242 1 6.35283 9.71809 11.6979
45 2 3.77503 6.5359 10.7045
66 2 8.68489 6.51626 15.9164
ITEM: TIMESTEP
300
ITEM: NUMBER OF ATOMS
243
ITEM: BOX BOUNDS xy xz yz pp pp pp
-7.3216553499999986e+00 1.4691300000000000e+01 -7.3216553499999986e+00
0.0000000000000000e+00 1.2723000000000001e+01 0.0000000000000000e+00
0.0000000000000000e+00 1.5963100000000001e+01 0.0000000000000000e+00
ITEM: ATOMS id type x y z
135 1 3.77395 3.15693 7.95533
139 1 2.71293 6.16329 4.25505
132 1 0.903271 4.69698 2.92068
6 2 1.20522 2.26415 5.22476
10 2 -0.0571125 4.18832 1.70919
13 2 -0.285446 4.18316 7.08063
134 1 3.63506 5.38021 1.15809
29 2 3.74978 1.97771 3.52891
140 1 3.85778 5.4611 6.59164
37 2 4.6362 4.24665 1.68969
38 2 1.34535 6.1615 3.44911
120 1 6.40225 1.30432 1.18317
82 1 1.31843 1.21345 1.13186
83 1 0.229784 1.6824 4.07095
84 1 1.27265 1.11372 6.34139
88 1 -1.04824 3.10877 2.37073
89 1 0.839881 3.6187 0.518545
90 1 -0.809061 5.50321 1.07831
91 1 -1.23293 3.0883 7.72127
92 1 0.715596 3.6131 5.93059
93 1 -2.13985 6.03506 4.18356
94 1 -1.16916 5.31603 6.51326
118 1 3.23181 0.614494 2.88619
119 1 2.69543 2.41176 4.64333
4 2 2.26838 0.000422905 6.96077
123 1 5.10113 1.85581 4.41415
124 1 6.41098 1.30907 6.70073
130 1 3.78349 3.08232 2.38431
40 2 4.67711 4.22167 7.2496
28 2 7.25066 0.0958467 1.73966
1 2 2.17095 0.0553903 1.79245
31 2 7.24531 0.0818002 7.19587
146 1 2.80468 5.87736 9.39732
9 2 1.33104 2.21808 10.6193
16 2 -0.21826 4.16204 12.3263
32 2 3.88874 1.89023 8.92408
147 1 3.77869 5.41238 11.7439
35 2 3.86501 1.98602 14.1224
41 2 1.32148 6.1486 8.75611
43 2 4.75336 4.35056 12.3962
14 2 -3.58123 6.26629 8.87775
85 1 0.420916 1.60553 14.7889
86 1 0.46976 1.82185 9.32225
87 1 1.2327 1.12372 11.7666
95 1 -1.02215 2.99178 13.0884
96 1 0.681864 3.55594 11.188
97 1 -2.03718 5.97103 14.7888
98 1 -2.08539 6.07441 9.47389
99 1 -1.17377 5.26532 11.7019
121 1 3.22544 0.647819 8.07281
122 1 2.82279 2.25714 10.0967
125 1 3.27117 0.682313 13.4604
126 1 5.26975 1.55945 14.8048
127 1 2.93727 2.43943 15.3291
128 1 5.2804 1.69498 9.52437
129 1 6.33768 1.20505 11.9309
137 1 0.712213 4.73471 8.21347
141 1 3.98145 3.02221 12.9387
143 1 0.773253 4.83679 13.3856
144 1 2.81379 6.1082 14.661
17 2 -3.55321 6.17739 14.3439
3 2 1.368 2.22925 15.8739
44 2 1.32665 6.17971 14.0722
5 2 -1.04987 1.92432 8.83386
8 2 -1.08844 1.93391 14.2575
161 1 1.34537 9.66652 6.40663
160 1 0.354578 10.2948 4.09882
19 2 -2.56449 8.4769 1.68371
15 2 -1.18189 6.475 5.39368
22 2 -2.71374 8.46216 7.00908
24 2 -3.56351 10.7812 5.24159
46 2 2.24047 8.49664 1.75976
47 2 -1.08955 10.5278 3.4278
49 2 2.27395 8.53915 7.06727
100 1 -3.52862 7.38676 2.38881
101 1 -1.61802 7.91195 0.511585
102 1 -6.0823 11.6236 2.40079
103 1 -3.48663 9.66321 1.08067
104 1 -4.16501 12.1204 0.668949
105 1 -3.61589 7.2454 7.6058
106 1 -1.79034 7.89277 5.79723
107 1 -5.7875 11.4797 7.6505
108 1 -4.50695 10.3188 4.01367
109 1 -3.56675 9.59307 6.3336
110 1 -4.13415 12.1124 5.8528
133 1 0.254149 6.60098 4.6416
148 1 1.26498 7.24807 2.28383
150 1 -1.64315 9.16874 2.80465
151 1 -1.03335 11.7092 2.38779
152 1 -2.05995 11.0532 4.64931
153 1 1.32845 9.5153 0.953919
155 1 1.27185 7.34521 7.65336
158 1 -1.00236 11.6039 7.78591
21 2 -3.57641 10.8024 0.0207157
18 2 -1.05924 6.45412 10.6046
25 2 -2.58735 8.43085 12.4652
27 2 -3.53066 10.7355 10.7681
50 2 -1.15315 10.4289 8.88617
23 2 -5.92391 10.4699 8.88406
53 2 -1.16467 10.3502 14.2846
111 1 -3.46836 7.19419 12.9981
112 1 -1.67485 7.83375 11.1984
113 1 -4.55499 10.4143 14.7656
114 1 -6.08529 11.6537 13.1071
115 1 -4.54938 10.1558 9.66976
116 1 -3.45533 9.6623 11.9725
117 1 -4.22594 12.0676 11.22
138 1 0.419641 6.60255 10.01
145 1 0.438445 6.74181 15.2349
157 1 -1.78613 9.07571 8.14956
159 1 -2.06265 10.8965 10.0763
163 1 1.37001 7.298 12.9113
165 1 -1.82493 8.95155 13.7712
166 1 0.318846 10.2028 14.7479
167 1 -1.00972 11.3904 12.9979
168 1 -2.09526 10.9753 15.3662
169 1 0.348669 10.1211 9.39526
170 1 1.35561 9.57399 11.8402
12 2 -0.998755 6.57979 15.8917
52 2 2.35715 8.44755 12.4004
34 2 -0.151345 12.6857 12.4023
26 2 -6.01117 10.5024 14.175
7 2 -5.13477 12.7066 12.3766
196 1 8.53181 5.34037 1.14411
204 1 8.8242 5.42984 6.69621
203 1 7.58731 5.8783 4.39277
33 2 6.22754 2.3038 5.45562
198 1 10.642 3.78391 5.98737
56 2 8.73235 1.91315 3.59664
197 1 8.84461 2.94087 7.57017
193 1 5.59502 4.84808 2.78145
60 2 11.1528 2.36985 5.32646
64 2 9.6354 4.28917 1.81564
65 2 6.24726 6.11998 3.50363
67 2 9.71828 4.2466 7.20585
131 1 5.40308 3.57256 0.439832
136 1 5.62095 3.688 6.08549
172 1 12.9932 0.551856 2.82857
173 1 8.24686 0.532404 2.90308
174 1 7.62726 2.45297 4.69101
176 1 11.1443 1.1812 1.21439
180 1 12.5683 2.46851 4.62834
181 1 10.1401 1.818 4.23741
182 1 11.1533 1.29773 6.51916
190 1 8.77017 3.08813 2.48908
191 1 10.663 3.74845 0.736886
192 1 10.5476 4.89346 2.96927
58 2 12.0071 0.0832543 7.06097
57 2 11.1305 2.36592 0.091863
2 2 13.5227 1.93848 3.43796
11 2 11.0524 6.29477 3.5952
36 2 6.27391 2.23825 10.6926
213 1 8.83644 5.47104 11.7474
212 1 7.67209 6.11564 9.52754
209 1 7.72076 6.10802 14.8169
71 2 6.24408 6.27934 14.2331
59 2 8.75252 1.98589 8.91126
208 1 5.63963 4.93105 13.5099
62 2 8.65697 1.92221 14.0949
63 2 11.172 2.36874 10.754
68 2 6.23693 6.22524 8.82302
70 2 9.6381 4.33273 12.5293
207 1 10.5057 4.81074 13.7752
142 1 5.70327 3.69497 11.2931
175 1 12.6072 2.38636 15.4156
177 1 13.0533 0.622989 8.13125
178 1 8.25372 0.5423 8.36588
179 1 7.77102 2.47812 10.0369
183 1 12.9861 0.471663 13.7161
184 1 8.1294 0.51059 13.5824
185 1 10.0656 1.91571 14.9159
186 1 7.6557 2.53568 15.2111
187 1 12.7469 2.37925 10.1263
188 1 10.1815 1.81774 9.6375
189 1 11.159 1.33489 11.9858
199 1 10.5288 4.75164 8.50804
200 1 5.75579 4.76567 8.25319
205 1 8.68909 3.0662 12.8869
206 1 10.6498 3.68963 11.4275
61 2 12.0825 0.047068 12.418
30 2 6.25263 2.27923 15.8867
232 1 5.48834 12.1394 5.86351
229 1 7.62103 10.906 4.76302
42 2 3.74337 6.49421 5.34397
75 2 6.15618 10.6295 0.0284133
51 2 1.2433 10.7315 5.31748
230 1 5.18554 10.085 4.30382
69 2 8.62491 6.46618 5.47293
73 2 7.17548 8.43801 1.7356
74 2 3.73185 10.4899 3.68033
231 1 6.30643 9.7134 6.66171
76 2 7.22144 8.58301 7.15733
78 2 6.14983 10.7428 5.43045
149 1 3.26586 7.8938 0.696979
154 1 0.693124 12.1038 0.550019
156 1 3.32941 7.89621 5.99012
162 1 0.598666 12.0532 5.89502
194 1 5.22038 6.65248 4.68574
202 1 10.0696 6.75324 4.73194
214 1 6.44716 7.20781 2.36393
215 1 8.16088 7.95389 0.573409
216 1 8.18887 9.07693 2.85736
217 1 3.07816 9.18436 2.95477
218 1 3.89333 11.4461 2.40518
219 1 2.75863 11.0513 4.81743
221 1 6.23426 9.57931 1.19133
222 1 5.63786 12.0569 0.57303
223 1 6.28797 7.47715 7.83584
224 1 8.12163 7.90462 5.98908
227 1 3.86915 11.5674 7.73641
20 2 8.62326 10.4723 3.53372
55 2 4.70978 12.6456 1.72082
66 2 8.72624 6.54665 0.047108
45 2 3.72001 6.47013 10.5934
243 1 5.73326 12.2525 11.246
48 2 1.31316 10.7757 15.8704
54 2 1.26405 10.6566 10.6293
72 2 8.6887 6.63429 10.681
77 2 3.79485 10.4371 8.90538
79 2 7.08592 8.5495 12.4918
80 2 3.72197 10.4008 14.1766
81 2 6.30056 10.8887 10.6257
164 1 3.24889 7.85523 11.2319
171 1 0.785006 12.1102 11.1881
195 1 10.1981 6.75819 15.5056
201 1 5.11951 6.61797 9.83588
210 1 5.20045 6.74676 15.4205
211 1 10.1516 6.78932 10.0405
220 1 7.60535 10.8041 15.3781
225 1 8.16672 9.09163 8.3232
226 1 3.2119 9.12805 8.25572
228 1 2.76341 10.9074 10.0603
233 1 6.1807 7.38049 13.0357
234 1 7.95824 7.94052 11.2703
235 1 8.1779 9.15749 13.482
236 1 3.1605 8.97822 13.6709
237 1 5.11019 10.1249 14.9179
238 1 3.88538 11.4775 12.9604