ITEM: TIMESTEP
0
ITEM: NUMBER OF ATOMS
243
ITEM: BOX BOUNDS xy xz yz pp pp pp
-7.3456000000000001e+00 1.4691300000000000e+01 -7.3456000000000001e+00
0.0000000000000000e+00 1.2723000000000001e+01 0.0000000000000000e+00
0.0000000000000000e+00 1.5963100000000001e+01 0.0000000000000000e+00
ITEM: ATOMS id type x y z
134 1 3.79307 5.62945 1.22538
139 1 2.84915 6.14883 4.03709
31 2 7.1154 0.0202689 7.01734
6 2 1.47918 2.35454 5.33539
10 2 -0.0397982 4.28614 1.74312
13 2 -0.226776 4.28715 7.03388
93 1 -2.03386 6.11276 4.04481
29 2 3.84138 2.10353 3.50832
140 1 3.86572 5.4476 6.45084
1 2 2.28378 0.111152 1.7336
37 2 4.71626 4.40254 1.76119
40 2 4.7212 4.31541 7.12148
82 1 1.30205 1.24783 1.14951
83 1 0.450221 1.81378 4.21593
84 1 1.7057 1.24249 6.47239
88 1 -0.805621 3.10124 2.39925
89 1 0.947866 3.68999 0.660708
90 1 -0.840433 5.50469 1.12237
91 1 -1.17304 3.24337 7.77253
92 1 0.683064 3.57576 5.9709
135 1 3.85207 3.21437 7.89294
94 1 -0.998675 5.44752 6.26287
118 1 3.24665 0.689869 2.90145
119 1 2.9307 2.67339 4.71555
120 1 6.14964 1.13728 0.99193
123 1 5.35975 2.02117 4.06932
124 1 6.23364 1.17901 6.38083
130 1 3.73735 3.23321 2.31805
132 1 0.870275 4.93765 2.9555
2 2 -0.971043 2.00379 3.51177
28 2 7.11339 0.138599 1.76996
41 2 1.33094 6.20177 8.846
9 2 1.28535 2.29902 10.5993
16 2 -0.113228 4.29919 12.33
32 2 3.80474 1.98873 8.89948
14 2 -3.60765 6.28635 8.75149
35 2 3.7977 2.01186 14.0514
7 2 2.3043 0.0266733 12.3447
43 2 4.7196 4.31198 12.4145
44 2 1.41777 6.28958 14.1171
85 1 0.423599 1.77005 14.7745
86 1 0.359343 1.8024 9.31302
87 1 1.33269 1.24002 11.7668
95 1 -0.872473 3.07583 13.0059
96 1 0.700623 3.6887 11.0735
97 1 -2.06682 5.97449 14.9366
98 1 -2.17584 6.06799 9.42475
99 1 -1.1044 5.4504 11.8429
121 1 3.37457 0.630868 8.23926
122 1 2.71462 2.2906 9.98211
125 1 3.30334 0.58557 13.4423
126 1 5.29299 2.04174 14.6171
127 1 2.84508 2.44179 15.2737
128 1 5.24001 1.87744 9.53915
129 1 6.37677 1.25187 11.7438
137 1 0.671913 4.9351 8.16817
141 1 3.8052 3.09644 12.8823
143 1 0.885619 4.98094 13.4033
144 1 2.81938 6.17145 14.8795
146 1 2.77117 5.96173 9.53323
147 1 3.87161 5.4212 11.6584
8 2 -1.01657 1.90294 14.1568
17 2 -3.44049 6.202 14.178
3 2 1.33886 2.30422 15.9009
5 2 -1.14784 2.01703 8.80078
34 2 7.2301 0.0925119 12.4616
21 2 -3.63304 10.6784 0.0339124
15 2 -1.01732 6.55497 5.14261
19 2 -2.49187 8.56542 1.75997
161 1 1.36464 9.53316 6.38498
22 2 -2.55325 8.48645 7.02775
24 2 -3.47355 10.8004 5.22823
46 2 2.24911 8.63884 1.76037
47 2 -1.03715 10.4938 3.57017
49 2 2.38873 8.43724 7.00953
100 1 -3.48564 7.42181 2.31197
101 1 -1.77145 8.03501 0.412366
102 1 -6.00812 11.6662 2.30429
103 1 -3.54019 9.69505 1.31053
104 1 -4.1373 12.0472 0.698388
105 1 -3.38465 7.27254 7.5125
106 1 -1.53592 7.86851 5.91095
107 1 -5.77274 11.5417 7.57468
108 1 -4.57613 10.5183 4.11155
109 1 -3.33675 9.64002 6.26704
110 1 -3.94196 12.0916 5.91862
133 1 0.44416 6.84609 4.60779
148 1 1.27581 7.49101 2.32503
150 1 -1.61252 9.16953 2.88099
151 1 -0.898418 11.5344 2.32216
152 1 -2.03981 11.0115 4.6431
153 1 1.39901 9.80813 1.14974
155 1 1.46139 7.2792 7.6779
158 1 -1.06086 11.5626 7.73267
160 1 0.424757 10.3241 4.17914
20 2 -5.9679 10.4673 3.32957
11 2 -3.48941 6.36419 3.48466
38 2 1.39914 6.37368 3.43182
4 2 -4.85785 12.7082 7.03774
18 2 -1.19876 6.48842 10.5757
25 2 -2.58852 8.47673 12.4405
27 2 -3.55583 10.7994 10.6603
50 2 -1.17025 10.4492 8.8847
12 2 -1.03557 6.59072 15.9075
53 2 -1.14763 10.4827 14.1866
111 1 -3.39818 7.34713 13.0513
112 1 -1.71646 7.8434 11.2775
113 1 -4.62177 10.1757 14.8834
114 1 -5.91824 11.5765 13.082
115 1 -4.45487 10.2618 9.4199
116 1 -3.44582 9.73001 11.8316
117 1 -4.25115 12.1999 11.0991
138 1 0.278299 6.74299 9.99282
145 1 0.419802 6.86366 15.3117
157 1 -1.87182 9.06553 8.36018
159 1 -2.01305 10.9971 10.1204
163 1 1.56164 7.31479 12.9244
165 1 -1.61869 9.12109 13.539
166 1 0.282247 10.2795 14.88
167 1 -1.07273 11.6753 13.1519
168 1 -2.10768 10.8411 15.3834
169 1 0.333325 10.2182 9.44422
170 1 1.42972 9.66796 11.8265
26 2 -6.03512 10.4988 14.2541
23 2 -5.98069 10.478 8.76788
196 1 8.69591 5.38976 1.09168
204 1 8.75436 5.36499 6.489
203 1 7.7609 6.06229 4.15714
193 1 5.66288 4.90407 2.90069
198 1 10.6765 3.62179 5.90755
56 2 8.70055 2.08712 3.5295
197 1 8.98136 3.08419 7.78139
136 1 5.73027 3.6327 6.10163
60 2 11.1406 2.2454 5.21253
64 2 9.67467 4.30037 1.75998
65 2 6.29863 6.17906 3.59156
67 2 9.74409 4.25975 7.05663
131 1 5.64271 3.5789 0.653458
33 2 6.29852 2.36119 5.35981
172 1 13.0822 0.58076 3.0388
173 1 8.01159 0.799415 2.88417
174 1 7.7367 2.5658 4.70567
176 1 11.2173 1.2478 1.25296
180 1 12.5741 2.49354 4.53073
181 1 10.1916 1.86487 4.05362
182 1 11.2662 1.02903 6.22285
190 1 8.77704 3.06482 2.26755
191 1 10.7099 3.69387 0.683174
192 1 10.5101 5.04869 2.90425
55 2 12.0952 0.0823296 1.90038
57 2 11.2015 2.33043 0.0344504
71 2 6.15191 6.28049 14.163
213 1 8.73625 5.45058 11.8713
212 1 7.63687 6.00516 9.57115
209 1 7.61578 5.88884 14.6486
36 2 6.31482 2.39018 10.5855
59 2 8.73147 1.98483 8.84366
208 1 5.48888 4.99892 13.6074
62 2 8.7512 1.9903 14.2549
63 2 11.0908 2.13959 10.6528
68 2 6.25467 6.18391 8.82243
70 2 9.64973 4.18554 12.3711
30 2 6.27769 2.33267 15.9001
142 1 5.77395 3.73825 11.2885
175 1 12.6919 2.57337 15.295
207 1 10.6258 4.84035 13.4934
178 1 8.02402 0.77784 8.08276
179 1 7.84147 2.40303 10.0806
183 1 13.0872 0.501276 13.5534
184 1 8.20576 0.660715 13.6173
185 1 10.2102 1.84393 14.8186
186 1 7.79612 2.44886 15.3964
187 1 12.5685 2.45674 10.0595
188 1 10.1374 1.6184 9.4554
189 1 11.235 1.10288 11.8973
199 1 10.608 4.90929 8.16254
177 1 13.0467 0.617699 8.08536
205 1 8.80837 3.08265 13.1217
206 1 10.45 3.51983 11.1781
200 1 5.65488 4.86587 8.27795
232 1 5.84738 12.0178 5.99876
227 1 3.83971 11.5116 7.75212
42 2 3.8299 6.51099 5.29446
229 1 7.68583 10.7966 4.61284
51 2 1.39307 10.7915 5.35978
230 1 5.19048 10.3327 4.15234
69 2 8.75989 6.50691 5.35957
73 2 7.2339 8.41563 1.6819
74 2 3.7388 10.5061 3.53875
231 1 6.29809 9.52486 6.45788
76 2 7.31212 8.44161 7.05473
78 2 6.26017 10.622 5.31156
149 1 3.34138 8.03664 0.715085
154 1 0.770856 12.3037 0.650796
156 1 3.318 7.90939 5.82076
162 1 0.761227 12.0724 5.99569
194 1 5.29437 6.64766 4.76072
202 1 10.2539 6.74917 4.69995
214 1 6.32796 7.31073 2.46661
215 1 8.06652 7.73263 0.512663
216 1 8.19566 9.10967 2.73827
217 1 3.12621 9.10326 3.0023
218 1 3.88145 11.5882 2.44167
219 1 2.81424 11.1122 4.74136
221 1 6.28714 9.56635 1.09102
222 1 5.68742 12.0737 0.76573
223 1 6.37717 7.24615 7.59042
224 1 8.24352 7.92271 5.85564
75 2 6.25785 10.7246 0.0448067
58 2 4.74524 12.5801 6.98702
39 2 3.85203 6.67125 0.0428902
48 2 1.25687 10.8774 0.0339623
242 1 6.59578 9.78086 11.7203
243 1 5.58288 11.9803 11.2139
45 2 3.82105 6.56981 10.5408
54 2 1.28959 10.7324 10.6212
72 2 8.67963 6.46965 10.6482
77 2 3.8233 10.42 8.82468
79 2 7.29722 8.48774 12.4018
80 2 3.75262 10.4873 14.285
81 2 6.30996 10.7699 10.5554
164 1 3.38571 7.99475 11.1982
171 1 0.656725 12.1136 11.2441
195 1 10.0948 6.61982 15.2183
201 1 5.22673 6.81358 9.83581
210 1 5.28629 6.81613 15.4108
211 1 9.99731 6.71439 9.79312
220 1 7.65254 10.991 15.3622
225 1 8.15306 9.07939 8.19469
226 1 3.32003 9.10983 8.09925
228 1 2.76975 10.8337 9.97432
233 1 6.31896 7.33454 12.9863
234 1 8.24214 7.80949 11.2944
235 1 8.14021 9.07737 13.5998
236 1 3.26379 9.16208 13.5449
237 1 5.23669 10.3318 14.8235
238 1 3.78582 11.594 13.101
239 1 2.72232 11.0018 15.3634
240 1 7.71766 11.0942 9.87169
241 1 5.34192 10.2867 9.41228
61 2 4.79509 12.6417 12.4491
66 2 8.60121 6.40163 15.8535
52 2 2.42617 8.56078 12.4006
ITEM: TIMESTEP
100
ITEM: NUMBER OF ATOMS
243
ITEM: BOX BOUNDS xy xz yz pp pp pp
-7.3456000000000001e+00 1.4699281550000000e+01 -7.3456000000000001e+00
0.0000000000000000e+00 1.2723000000000001e+01 7.9815500000002260e-03
0.0000000000000000e+00 1.5963100000000001e+01 0.0000000000000000e+00
ITEM: ATOMS id type x y z
134 1 3.87369 5.55083 1.26678
139 1 2.90588 5.99661 4.13614
31 2 7.1795 0.00491146 7.09237
6 2 1.43847 2.37485 5.28041
10 2 -0.0530461 4.27168 1.69246
13 2 -0.23013 4.25704 7.00277
93 1 -1.96299 6.17905 4.03905
29 2 3.88996 2.12992 3.55881
140 1 3.83768 5.47102 6.4824
1 2 2.31549 0.110793 1.74616
37 2 4.77976 4.31762 1.77552
40 2 4.68273 4.26752 7.16172
82 1 1.51623 1.3994 1.14112
83 1 0.496281 1.7933 4.16731
84 1 1.53107 1.16741 6.36318
88 1 -0.925367 3.13878 2.38203
89 1 0.853841 3.72856 0.46974
90 1 -0.943916 5.53693 1.28259
91 1 -1.0511 3.11175 7.69392
92 1 0.738437 3.68467 5.87749
135 1 3.75795 3.16148 7.90927
94 1 -1.13279 5.43655 6.39198
118 1 3.27188 0.760217 2.89414
119 1 2.9081 2.67111 4.72202
120 1 6.11026 1.23277 1.02048
123 1 5.37091 1.9733 4.08048
124 1 6.25785 1.13135 6.47604
130 1 3.80335 3.12242 2.29092
132 1 0.938547 4.82366 2.86879
2 2 -1.01373 2.05711 3.54681
28 2 7.1605 0.108615 1.64239
11 2 -3.47693 6.28254 3.62705
38 2 1.46394 6.2642 3.51587
4 2 2.50677 0.089196 7.07273
41 2 1.23024 6.22983 8.80242
9 2 1.263 2.23034 10.6213
16 2 0.000392174 4.29355 12.4427
32 2 3.90479 2.05186 9.07361
17 2 -3.47214 6.15764 14.0422
35 2 3.88289 2.02418 14.0123
7 2 2.21753 0.0392771 12.3838
43 2 4.70902 4.39437 12.4087
3 2 1.42812 2.39596 15.9036
85 1 0.466135 1.77148 14.803
86 1 0.331939 1.74263 9.413
87 1 1.29673 1.18124 11.8568
95 1 -0.963958 3.13431 13.0416
96 1 0.777583 3.6042 11.2176
97 1 -1.9791 6.17021 14.702
98 1 -2.07076 6.1656 9.46729
99 1 -0.913587 5.45281 11.7687
121 1 3.36073 0.701799 8.3316
122 1 2.83911 2.43295 10.2128
125 1 3.43687 0.624692 13.3467
126 1 5.37573 1.91805 14.606
127 1 2.86102 2.42381 15.1818
128 1 5.42871 1.86732 9.62447
129 1 6.40152 1.15853 11.8527
137 1 0.689565 4.90165 8.15591
141 1 3.76528 3.25449 12.9411
143 1 0.800423 5.02706 13.5875
144 1 2.83177 6.11248 14.8892
146 1 2.66817 6.15422 9.50756
147 1 3.8794 5.54137 11.6761
8 2 -0.968289 1.98567 14.106
5 2 -1.13139 1.97182 8.82331
20 2 -5.8345 10.4336 3.31506
15 2 -0.997961 6.61347 5.20957
19 2 -2.57932 8.52065 1.79255
161 1 1.47886 9.77652 6.59283
22 2 -2.58104 8.45639 7.01086
24 2 -3.52142 10.8187 5.21371
46 2 2.30557 8.65993 1.81283
47 2 -1.07722 10.5437 3.45752
12 2 -1.04682 6.53515 0.00907457
100 1 -3.56477 7.4517 2.47704
101 1 -1.66003 7.89267 0.657096
102 1 -5.91892 11.621 2.28609
103 1 -3.50918 9.67699 1.14777
104 1 -4.11808 12.2014 0.588201
105 1 -3.54215 7.2737 7.70064
106 1 -1.46572 7.87675 6.03973
107 1 -5.66192 11.5273 7.66121
108 1 -4.43388 10.388 3.97986
109 1 -3.41515 9.59667 6.27305
110 1 -4.0185 12.1461 5.8798
133 1 0.509658 6.82222 4.7038
148 1 1.56275 7.38941 2.40627
150 1 -1.66535 9.16156 2.92417
151 1 -1.07005 11.6283 2.26086
152 1 -2.0574 11.0757 4.54465
153 1 1.46492 9.92472 1.29635
155 1 1.4958 7.33352 7.64982
158 1 -1.07877 11.5757 7.72894
160 1 0.363477 10.3255 4.14532
21 2 -3.60637 10.7797 0.00383529
18 2 -1.14114 6.55598 10.6363
25 2 -2.64266 8.45063 12.3609
27 2 -3.5335 10.7798 10.6705
50 2 -1.1694 10.5025 8.90428
44 2 1.39848 6.38995 14.2766
53 2 -1.13438 10.4001 14.1631
111 1 -3.514 7.2702 12.9321
112 1 -1.63816 7.84898 11.2927
113 1 -4.51366 10.1642 14.8266
114 1 -5.81395 11.5194 13.056
115 1 -4.4706 10.0568 9.48623
116 1 -3.49388 9.64555 11.7387
117 1 -4.24752 12.0902 11.2257
138 1 0.266707 6.79637 9.91538
145 1 0.411885 6.81093 15.484
157 1 -1.78914 9.14518 8.16666
159 1 -2.08756 10.9201 10.1261
163 1 1.41844 7.38684 12.9887
165 1 -1.7507 9.06393 13.498
166 1 0.380655 10.3276 14.8539
167 1 -1.07768 11.5151 13.0127
168 1 -2.15824 10.9256 15.3273
169 1 0.278778 10.1999 9.48052
170 1 1.51154 9.70184 11.7175
52 2 2.31295 8.54486 12.4074
23 2 -5.88317 10.4189 8.81828
34 2 -0.091391 12.6529 12.4728
26 2 -5.94884 10.461 14.2235
196 1 8.78836 5.46678 1.09835
204 1 8.81214 5.40731 6.58652
203 1 7.74524 5.9206 4.22544
193 1 5.68543 4.84635 2.90774
198 1 10.612 3.56511 5.87607
56 2 8.67811 2.10586 3.50716
197 1 8.90209 3.07562 7.77092
136 1 5.58829 3.56301 6.06392
60 2 11.1906 2.26771 5.16483
64 2 9.68002 4.31934 1.75572
65 2 6.25565 6.10782 3.6143
67 2 9.7872 4.20232 7.04966
131 1 5.59853 3.74301 0.504727
33 2 6.33573 2.31142 5.39701
172 1 13.2203 0.598719 3.02847
173 1 8.03537 0.827183 2.78706
174 1 7.78894 2.46255 4.79052
176 1 11.5983 1.30903 1.22318
180 1 12.6854 2.62367 4.6641
181 1 10.1778 1.69591 4.03109
182 1 11.3209 1.05883 6.22191
190 1 8.74138 3.25892 2.41734
191 1 10.7596 3.6289 0.6862
192 1 10.6049 5.0091 2.8179
55 2 12.3167 0.0324469 1.87146
71 2 6.16533 6.29228 14.2164
213 1 8.81213 5.37381 11.8782
212 1 7.56913 6.04502 9.53581
209 1 7.7419 6.08139 14.7153
36 2 6.39864 2.38425 10.7634
59 2 8.76472 1.97166 8.9314
208 1 5.57926 4.92234 13.6163
62 2 8.7402 1.94991 14.3489
63 2 11.148 2.13026 10.6791
68 2 6.12599 6.28201 8.81144
70 2 9.67246 4.15455 12.4442
30 2 6.24091 2.33781 15.8847
142 1 5.82261 3.78239 11.4231
175 1 12.6906 2.44957 15.2842
207 1 10.7821 4.72628 13.4339
178 1 8.05946 0.631916 8.33386
179 1 7.83568 2.543 10.0272
183 1 13.1326 0.612504 13.4413
184 1 8.14488 0.585869 13.6342
185 1 10.1089 1.68429 15.0549
186 1 7.71069 2.55903 15.3808
187 1 12.6366 2.36292 10.0597
188 1 10.1734 1.63191 9.53674
189 1 11.2466 1.0934 11.8097
199 1 10.6872 4.81981 8.2002
177 1 12.8907 0.670396 8.16118
205 1 8.75416 3.10024 13.1461
206 1 10.5649 3.51179 11.2801
200 1 5.52229 4.84632 8.40787
57 2 11.2513 2.31271 15.9334
14 2 11.1348 6.1572 8.90582
232 1 5.88641 12.0206 5.97126
227 1 4.04275 11.5104 7.68143
42 2 3.83957 6.55351 5.35353
229 1 7.83764 10.9889 4.50126
51 2 1.38242 10.7492 5.33297
230 1 5.3031 10.3159 4.10459
69 2 8.73688 6.42619 5.35554
73 2 7.14005 8.4796 1.72601
74 2 3.80567 10.5592 3.53203
231 1 6.65219 9.58052 6.26444
76 2 7.36365 8.4273 7.03701
78 2 6.398 10.7038 5.21793
149 1 3.13434 8.08157 0.589543
154 1 0.829709 12.3657 0.422871
156 1 3.25448 7.92312 5.84417
162 1 0.766437 12.1017 5.96095
194 1 5.32589 6.68044 4.87143
202 1 10.2253 6.59866 4.79544
214 1 6.3531 7.25205 2.50843
215 1 8.09401 7.89387 0.565496
216 1 8.22258 9.10919 2.70206
217 1 3.37564 9.10096 2.9539
218 1 3.89974 11.746 2.45912
219 1 2.84208 10.8507 4.69728
221 1 6.25129 9.65872 1.15222
222 1 5.818 12.0595 0.722625
223 1 6.40426 7.20898 7.5248
224 1 8.37552 7.88351 5.88807
48 2 1.38989 10.8983 0.0141585
58 2 4.83993 12.6545 6.95171
39 2 3.86399 6.67136 0.132329
49 2 2.44528 8.54945 7.03526
242 1 6.27471 9.72067 11.7916
243 1 5.70136 12.0617 11.1579
45 2 3.74191 6.6989 10.5528
54 2 1.30226 10.7772 10.553
72 2 8.59132 6.49536 10.702
77 2 3.90189 10.452 8.87904
79 2 7.22107 8.55725 12.4456
80 2 3.85296 10.4367 14.1673
81 2 6.31906 10.7366 10.5696
164 1 3.21966 8.04541 11.2281
171 1 0.734935 12.0836 11.2283
195 1 10.2715 6.65117 15.273
201 1 5.15832 6.8882 9.9239
210 1 5.23832 6.82681 15.3785
211 1 10.0681 6.58727 9.99023
220 1 7.81007 10.9038 15.3974
225 1 8.09995 9.13155 8.20251
226 1 3.32364 9.05616 8.24531
228 1 2.81388 10.9461 9.91424
233 1 6.26119 7.3512 13.0241
234 1 8.1802 7.89691 11.3293
235 1 8.06275 9.10936 13.6366
236 1 3.08801 9.11415 13.6533
237 1 5.33205 10.4241 14.7281
238 1 3.90855 11.4966 12.9554
239 1 2.83262 11.1156 15.2521
240 1 7.8391 10.9507 9.95593
241 1 5.30893 10.1183 9.52407
61 2 4.83177 12.6489 12.3737
66 2 8.73944 6.59932 15.9021
75 2 6.36863 10.7726 15.9501
ITEM: TIMESTEP
200
ITEM: NUMBER OF ATOMS
243
ITEM: BOX BOUNDS xy xz yz pp pp pp
-7.3456000000000001e+00 1.4707263100000000e+01 -7.3456000000000001e+00
0.0000000000000000e+00 1.2723000000000001e+01 1.5963100000000452e-02
0.0000000000000000e+00 1.5963100000000001e+01 0.0000000000000000e+00
ITEM: ATOMS id type x y z
134 1 4.01808 5.65836 1.18036
139 1 2.88544 6.01426 4.22452
31 2 7.14149 0.0343185 7.0903
6 2 1.41142 2.39031 5.35628
10 2 -0.113362 4.3174 1.64986
13 2 -0.189605 4.23183 7.02394
93 1 -1.94289 6.07208 4.02544
29 2 3.78425 2.06843 3.59381
140 1 3.81827 5.45255 6.58115
1 2 2.43131 0.107109 1.72398
37 2 4.74278 4.39181 1.81859
40 2 4.79373 4.29215 7.23319
82 1 1.53241 1.31594 1.13764
83 1 0.564461 1.95822 4.07994
84 1 1.57671 1.2997 6.50087
88 1 -1.01482 3.06606 2.16607
89 1 0.815651 3.62807 0.545067
90 1 -1.1065 5.39199 0.947304
91 1 -1.03678 3.08125 7.57159
92 1 0.81045 3.68004 5.9791
4 2 2.40416 0.051226 7.09628
94 1 -1.14178 5.39227 6.4352
118 1 3.07506 0.71525 3.08925
119 1 2.84669 2.72722 4.74581
120 1 6.08074 1.15563 0.978898
123 1 5.28486 1.88823 4.30237
124 1 6.21047 1.29316 6.62309
130 1 3.85649 3.16655 2.3879
132 1 0.811433 4.94922 2.75724
2 2 -0.93241 2.01855 3.39744
28 2 7.14717 0.148475 1.65888
11 2 -3.47112 6.23588 3.56855
38 2 1.4997 6.2667 3.47093
135 1 3.80908 3.09581 7.77603
41 2 1.27274 6.30288 8.79044
9 2 1.3617 2.25911 10.6971
16 2 -0.00746703 4.31466 12.4642
32 2 3.78849 1.95026 8.92901
17 2 -3.51989 6.24992 14.1664
35 2 3.78209 2.09375 14.0795
5 2 -1.0657 1.98346 8.79842
43 2 4.69963 4.39804 12.4161
3 2 1.35518 2.29019 15.8775
85 1 0.295017 1.71785 14.8554
86 1 0.456286 1.87394 9.43854
87 1 1.2311 0.999042 11.7336
95 1 -0.848175 3.00377 13.0177
96 1 1.0131 3.63797 11.44
97 1 -2.0388 6.0084 14.6853
98 1 -2.16867 6.04183 9.63626
99 1 -0.989591 5.40681 11.7442
121 1 3.34157 0.492837 8.26922
122 1 2.92915 2.33239 10.2358
125 1 3.1155 0.710075 13.4213
126 1 5.31596 2.06074 14.5407
127 1 2.92316 2.42019 15.3773
128 1 5.27233 1.89987 9.57868
129 1 6.28524 1.23885 11.9114
137 1 0.593045 4.97809 8.24411
141 1 3.68354 3.29431 12.9886
143 1 0.744638 4.91629 13.7258
144 1 2.9333 6.15499 14.7303
146 1 2.72456 6.03977 9.49329
147 1 3.96476 5.71292 11.7784
8 2 -1.06193 1.96657 14.1901
44 2 1.41088 6.2922 14.153
14 2 -3.56655 6.20893 8.86175
34 2 7.29322 0.0270527 12.3474
20 2 -5.81303 10.4987 3.42522
15 2 -1.07315 6.47723 5.30524
19 2 -2.60544 8.57912 1.85296
161 1 1.38169 9.61153 6.19557
22 2 -2.62407 8.45125 7.07608
24 2 -3.45229 10.815 5.31092
160 1 0.418673 10.4003 4.05414
47 2 -1.07151 10.5417 3.5263
49 2 2.37421 8.56966 6.99436
100 1 -3.4926 7.46296 2.53658
101 1 -1.78323 7.82956 0.637936
102 1 -5.88871 11.6586 2.27454
103 1 -3.4835 9.75268 1.16706
104 1 -3.92384 12.2813 0.57434
105 1 -3.54644 7.27746 7.69986
106 1 -1.66984 7.87968 5.95209
107 1 -5.84295 11.6062 7.71716
108 1 -4.3666 10.4529 4.01139
109 1 -3.48211 9.59987 6.32899
110 1 -3.99297 12.0775 6.00922
133 1 0.414172 6.57357 4.63786
148 1 1.69859 7.40638 2.39581
150 1 -1.59438 9.18448 2.89096
151 1 -1.04464 11.6612 2.32879
152 1 -1.97454 11.112 4.75982
153 1 1.56217 9.7169 1.08564
155 1 1.40096 7.43839 7.57629
158 1 -1.01123 11.5653 7.79591
18 2 -1.08636 6.60869 10.6576
25 2 -2.61422 8.47037 12.4429
27 2 -3.58135 10.6886 10.6036
50 2 -1.12711 10.4758 8.94586
26 2 -5.87745 10.4035 14.2119
53 2 -1.04683 10.4887 14.1558
111 1 -3.47497 7.20467 12.8854
112 1 -1.6691 7.99399 11.2619
113 1 -4.42546 10.3261 14.743
114 1 -5.8815 11.4382 12.9943
115 1 -4.4811 10.2658 9.38656
116 1 -3.54646 9.59828 11.7635
117 1 -4.2035 12.099 11.1217
138 1 0.315346 6.89814 9.88151
145 1 0.429513 6.94887 15.3158
157 1 -1.81068 9.18076 8.31344
159 1 -2.15078 10.9289 10.0451
163 1 1.35263 7.37331 12.9415
165 1 -1.73767 9.11794 13.6561
166 1 0.427914 10.2251 14.7847
167 1 -0.955199 11.6157 13.0135
168 1 -1.92718 11.0169 15.3944
169 1 0.354318 10.2238 9.41974
170 1 1.43429 9.79919 11.8737
52 2 2.28104 8.57726 12.466
23 2 -5.89864 10.4283 8.77274
12 2 -1.09265 6.62491 15.8599
7 2 -5.08388 12.6629 12.3345
21 2 -3.50924 10.8752 15.9529
196 1 9.02596 5.52548 1.18238
204 1 8.75369 5.3026 6.6034
203 1 7.78218 5.9324 4.25784
193 1 5.73313 4.93736 2.98205
198 1 10.5749 3.54903 5.96798
56 2 8.66449 2.09188 3.53254
197 1 8.83137 3.06071 7.77215
136 1 5.78963 3.72783 6.13046
60 2 11.1415 2.27548 5.18671
64 2 9.80353 4.30624 1.7929
65 2 6.33447 6.24975 3.63142
67 2 9.76605 4.14051 7.11679
131 1 5.61543 3.83928 0.531355
33 2 6.25134 2.33181 5.39827
172 1 13.2594 0.613667 2.91965
173 1 8.12603 0.906701 2.67339
174 1 7.69599 2.34741 4.78677
176 1 11.4038 1.21654 1.20808
180 1 12.6567 2.41912 4.59792
181 1 10.2236 1.93698 3.89806
182 1 11.2423 1.09376 6.25616
190 1 8.7822 3.38403 2.62098
191 1 10.4324 3.53109 0.54174
192 1 10.8327 4.88773 2.83125
55 2 12.2625 0.020104 1.7775
57 2 11.173 2.20018 0.0262517
58 2 12.1678 0.0170305 6.99217
71 2 6.26372 6.23564 14.2241
213 1 8.79462 5.28169 11.8912
212 1 7.62895 5.90764 9.64242
209 1 7.76978 5.97802 14.8204
36 2 6.23516 2.34378 10.6967
59 2 8.70358 1.92751 8.95704
208 1 5.52963 4.94285 13.68
62 2 8.72755 1.96944 14.2724
63 2 11.1667 2.26267 10.6076
68 2 6.21099 6.32017 8.87012
70 2 9.76592 4.14434 12.4356
30 2 6.16754 2.38277 15.9004
142 1 5.73381 3.76715 11.3101
175 1 12.5182 2.43553 15.1664
207 1 10.6802 4.87349 13.5693
178 1 8.18018 0.580334 8.22897
179 1 7.71413 2.48309 10.1459
183 1 13.1391 0.604231 13.5318
184 1 8.15618 0.683375 13.5321
185 1 10.1674 1.58998 14.9408
186 1 7.7283 2.33385 15.4686
187 1 12.6166 2.45743 9.96002
188 1 10.2501 1.743 9.38591
189 1 11.2814 1.21517 11.7248
199 1 10.7483 4.80312 8.17235
177 1 13.053 0.640369 8.12881
205 1 8.98212 3.04161 13.1644
206 1 10.525 3.57958 11.191
200 1 5.65015 4.92091 8.37462
61 2 12.215 0.0825912 12.2834
232 1 5.88078 12.0932 5.97095
227 1 3.97091 11.5449 7.55126
42 2 3.82028 6.51098 5.38822
229 1 7.89373 10.9 4.64699
51 2 1.38315 10.8366 5.21724
230 1 5.45438 10.418 4.00563
69 2 8.82596 6.37311 5.42701
73 2 7.31064 8.44706 1.7645
74 2 3.87429 10.4921 3.54243
231 1 6.44107 9.49726 6.24329
76 2 7.32228 8.42247 6.99939
78 2 6.40233 10.7362 5.28096
149 1 3.23591 7.98102 0.553274
154 1 0.768017 12.2607 0.502395
156 1 3.35469 7.8962 5.94473
162 1 0.710615 12.1073 5.90435
194 1 5.30834 6.64088 4.75372
202 1 10.3029 6.41535 4.81239
214 1 6.48645 7.39576 2.53546
215 1 8.19488 7.91502 0.522228
216 1 8.3531 9.09536 2.82913
217 1 3.45651 9.10566 2.90265
218 1 3.92678 11.6496 2.34189
219 1 2.87827 11.0261 4.63089
221 1 6.50781 9.6021 1.01539
222 1 5.70402 12.0729 0.603104
223 1 6.48809 7.33005 7.69599
224 1 8.33098 7.80121 5.93463
46 2 2.45109 8.61735 1.75404
242 1 6.45067 9.66097 11.8211
243 1 5.82928 12.172 11.1601
45 2 3.73745 6.70468 10.5522
54 2 1.31589 10.754 10.6251
72 2 8.61495 6.45138 10.724
77 2 3.83382 10.4771 8.76964
79 2 7.22081 8.41474 12.4709
80 2 3.91155 10.5288 14.0743
81 2 6.29888 10.756 10.6244
164 1 3.11011 7.96603 11.231
171 1 0.724509 12.1088 11.1414
195 1 10.2316 6.85266 15.3458
201 1 5.08044 7.04898 9.76464
210 1 5.41699 6.87693 15.4269
211 1 10.0944 6.6321 9.96894
220 1 7.86047 10.9226 15.291
225 1 8.30727 9.09103 8.02215
226 1 3.28258 9.07453 8.25017
228 1 2.77455 10.9697 9.94141
233 1 6.27554 7.29839 13.0691
234 1 8.09854 7.84576 11.2995
235 1 8.26383 9.02341 13.5662
236 1 3.32941 9.10542 13.5227
237 1 5.36071 10.3544 14.8323
238 1 3.99402 11.4894 12.8504
239 1 2.87587 10.9906 15.2053
240 1 7.66738 10.8762 9.85072
241 1 5.26826 10.2676 9.48596
48 2 1.4236 10.8411 15.9004
66 2 8.78991 6.53527 15.9276
75 2 6.37164 10.799 15.9171
39 2 3.89598 6.697 15.9242
ITEM: TIMESTEP
300
ITEM: NUMBER OF ATOMS
243
ITEM: BOX BOUNDS xy xz yz pp pp pp
-7.3456000000000001e+00 1.4715244650000001e+01 -7.3456000000000001e+00
0.0000000000000000e+00 1.2723000000000001e+01 2.3944650000000678e-02
0.0000000000000000e+00 1.5963100000000001e+01 0.0000000000000000e+00
ITEM: ATOMS id type x y z
134 1 3.88592 5.35443 1.01412
139 1 2.88365 5.96228 4.16241
31 2 7.27739 0.0280115 7.13189
6 2 1.32851 2.42788 5.34262
10 2 4.48931e-06 4.33951 1.65691
13 2 -0.153019 4.38581 7.07629
93 1 -1.82825 6.11369 3.94881
29 2 3.82383 2.10283 3.60022
140 1 3.92358 5.48112 6.58741
1 2 2.43767 0.0955826 1.82256
38 2 1.43105 6.27161 3.51221
135 1 3.932 3.19237 7.79252
82 1 1.5154 1.30558 1.36099
83 1 0.363914 1.85997 4.18926
84 1 1.42907 1.30148 6.47086
88 1 -0.824566 3.06429 2.19697
89 1 0.86781 3.74848 0.473322
90 1 -0.910342 5.50108 0.998982
91 1 -0.948288 3.12925 7.66833
92 1 0.827138 3.78953 5.98908
4 2 2.32777 0.0281237 7.04658
94 1 -1.08215 5.40698 6.26838
118 1 3.40113 0.715873 2.93935
119 1 2.75677 2.56297 4.67152
120 1 6.25311 1.13847 0.932321
123 1 5.15252 1.75936 4.42763
124 1 6.3171 1.24379 6.69008
130 1 4.0145 3.2249 2.48352
132 1 0.78725 4.95853 2.9529
2 2 -1.00546 2.00057 3.37552
28 2 7.1548 0.0832895 1.61955
11 2 -3.37409 6.30532 3.47459
3 2 1.33665 2.21917 0.0588958
41 2 1.30484 6.3253 8.81808
9 2 1.35576 2.25685 10.6959
16 2 -0.0316466 4.27366 12.4185
32 2 3.76494 1.95674 8.82225
17 2 -3.45471 6.30019 14.0105
35 2 3.71752 2.11095 14.0317
5 2 -1.17519 2.10007 8.82945
43 2 4.6958 4.38211 12.3949
14 2 -3.55276 6.23441 8.85834
85 1 0.290787 1.76044 14.9517
86 1 0.27902 1.91661 9.49761
87 1 1.353 1.13371 11.8017
95 1 -1.03568 3.17782 13.0071
96 1 0.916372 3.5991 11.3108
97 1 -2.03467 6.16635 14.7792
98 1 -2.13206 6.26026 9.55334
99 1 -0.858581 5.47167 11.6887
121 1 3.30724 0.591107 8.18127
122 1 2.72243 2.33216 9.95505
125 1 3.21858 0.699446 13.5062
126 1 5.1704 1.88971 14.6554
127 1 2.74995 2.54219 15.1722
128 1 5.18496 1.87184 9.47218
129 1 6.20792 1.14277 11.7941
137 1 0.567257 5.01217 8.34855
141 1 3.7501 3.19036 12.909
143 1 0.92363 4.90538 13.5722
144 1 2.81913 6.24023 14.8637
146 1 2.68423 6.1249 9.53886
44 2 1.41788 6.30606 14.0911
34 2 7.20889 0.0580482 12.3891
7 2 2.25836 0.0276599 12.4502
147 1 3.98708 5.68859 11.76
8 2 -1.04779 2.02974 14.1819
20 2 -5.88542 10.5045 3.51081
15 2 -0.989288 6.56685 5.24124
19 2 -2.61635 8.58791 1.71705
161 1 1.38971 9.68914 6.29008
22 2 -2.65913 8.47571 7.03092
24 2 -3.49567 10.7768 5.29125
160 1 0.455861 10.4308 3.95824
47 2 -1.08078 10.5383 3.54932
49 2 2.26788 8.47367 6.86808
100 1 -3.54095 7.58529 2.49239
101 1 -1.75916 7.86612 0.627598
102 1 -5.79083 11.5578 2.298
103 1 -3.3447 9.88521 1.19927
104 1 -4.0495 12.2621 0.612508
105 1 -3.56011 7.28679 7.67262
106 1 -1.63845 7.83767 5.92505
107 1 -5.994 11.6063 7.68985
108 1 -4.37786 10.3394 4.06986
109 1 -3.59323 9.63787 6.39736
110 1 -4.13872 12.1016 5.84519
133 1 0.534101 6.76073 4.71464
148 1 1.61065 7.36451 2.32952
150 1 -1.55393 9.19127 2.77009
151 1 -1.04706 11.7617 2.47962
152 1 -1.94672 10.8065 4.86815
153 1 1.64833 9.76695 1.21551
155 1 1.4982 7.18656 7.47517
158 1 -0.979523 11.5943 7.83369
21 2 -3.434 10.9347 0.0194309
18 2 -1.01287 6.65648 10.6531
25 2 -2.51111 8.63474 12.4284
27 2 -3.56226 10.7349 10.6335
50 2 -1.10871 10.4219 8.94781
26 2 -5.82466 10.3914 14.2134
53 2 -0.931406 10.4731 14.2521
111 1 -3.38399 7.43018 12.9494
112 1 -1.48223 7.9849 11.4637
113 1 -4.33643 10.503 14.7386
114 1 -5.9016 11.5025 13.0747
115 1 -4.50024 10.4087 9.40652
116 1 -3.50297 9.61001 11.7774
117 1 -4.1107 12.1694 11.2507
138 1 0.295317 6.9352 9.85403
145 1 0.417923 6.89422 15.196
157 1 -1.70683 9.13372 8.18033
159 1 -2.10997 10.8783 10.1201
163 1 1.5073 7.31612 12.8691
165 1 -1.65756 9.18148 13.6517
166 1 0.484435 10.1281 14.9378
167 1 -0.881027 11.5404 13.104
168 1 -1.91418 11.0325 15.3764
169 1 0.327927 10.2036 9.5956
170 1 1.49823 9.75474 11.8825
52 2 2.35889 8.52791 12.3813
12 2 -1.04826 6.60952 15.8736
196 1 8.98697 5.5332 1.06718
204 1 8.83767 5.36899 6.54213
203 1 7.75377 5.85171 4.20777
193 1 5.72911 5.04889 2.85076
198 1 10.5928 3.48345 5.9695
56 2 8.63117 2.03701 3.43838
197 1 8.70834 3.09303 7.82543
136 1 5.75983 3.68922 6.0243
60 2 11.181 2.26324 5.1711
64 2 9.77464 4.3088 1.81306
65 2 6.36426 6.33613 3.55269
67 2 9.7012 4.10678 7.16658
131 1 5.81036 3.63826 0.623882
33 2 6.25056 2.28233 5.44396
172 1 13.2035 0.588632 2.86482
173 1 8.12192 0.854897 2.59126
174 1 7.63157 2.44891 4.6769
176 1 11.267 1.17333 1.26192
180 1 12.5529 2.53562 4.4082
181 1 10.0181 1.78238 4.16025
182 1 11.4573 1.11563 6.18394
190 1 8.81244 3.30895 2.60261
191 1 10.511 3.57961 0.606773
192 1 10.9039 4.98072 2.66061
40 2 4.87481 4.3366 7.20438
57 2 11.1294 2.21099 0.0430794
37 2 4.84409 4.34888 1.71581
71 2 6.32201 6.22408 14.2279
213 1 8.71316 5.48438 11.8791
212 1 7.62692 5.9719 9.66592
209 1 7.72735 5.88549 14.8513
36 2 6.16665 2.26259 10.6655
59 2 8.73874 1.90478 8.92068
208 1 5.5287 4.95948 13.6602
62 2 8.74353 1.90889 14.1469
63 2 11.2128 2.31625 10.66
68 2 6.26681 6.30677 8.93541
70 2 9.6239 4.25643 12.3853
30 2 6.17993 2.29334 15.7845
142 1 5.61843 3.61588 11.3418
175 1 12.5619 2.494 15.2573
207 1 10.6461 4.91316 13.4262
178 1 8.30719 0.470477 8.25674
179 1 7.71025 2.26654 10.1249
183 1 13.1435 0.684326 13.4635
184 1 8.21207 0.602527 13.4838
185 1 10.1362 1.60086 14.8957
186 1 7.65592 2.40138 15.2216
187 1 12.6178 2.52388 10.0243
188 1 10.1741 1.76741 9.53878
189 1 11.2091 1.17797 11.7905
199 1 10.6203 4.819 8.26047
177 1 13.0068 0.691903 8.23864
205 1 8.99883 2.97385 13.0841
206 1 10.6406 3.76498 11.2582
200 1 5.54172 4.9609 8.47514
61 2 12.206 0.053178 12.2939
232 1 5.7636 12.0659 5.97259
227 1 3.8275 11.5726 7.62589
42 2 3.86662 6.50355 5.31381
229 1 7.89343 11.1381 4.64856
51 2 1.35608 10.8996 5.19394
230 1 5.36367 10.3764 4.2042
46 2 2.51579 8.56289 1.71255
73 2 7.40847 8.51677 1.71854
74 2 3.82885 10.4273 3.59898
231 1 6.51666 9.70183 6.45173
76 2 7.33068 8.41783 6.90691
78 2 6.4464 10.8071 5.29508
149 1 3.46748 8.05704 0.573729
154 1 0.705104 12.0829 0.557968
156 1 3.29606 7.8853 5.81941
162 1 0.699933 12.1741 5.86512
194 1 5.34037 6.63874 4.68987
202 1 10.3447 6.45389 4.73446
214 1 6.59251 7.37558 2.42642
215 1 8.23572 7.90869 0.522126
216 1 8.26797 9.10742 2.88681
217 1 3.42548 9.06335 2.93702
218 1 4.05391 11.4492 2.40331
219 1 2.84433 11.1889 4.61235
221 1 6.45318 9.66736 1.21959
222 1 5.86349 12.1212 0.548359
223 1 6.56109 7.17273 7.59095
224 1 8.2289 7.87026 5.74445
55 2 4.90387 12.6708 1.74171
58 2 4.81262 12.7107 7.06012
69 2 8.85803 6.41987 5.29765
48 2 1.42876 10.7875 0.0199237
242 1 6.42148 9.66087 11.8144
243 1 5.82449 12.2025 11.1364
45 2 3.77023 6.68839 10.5429
54 2 1.35116 10.8267 10.6604
72 2 8.66949 6.51512 10.6696
77 2 3.76916 10.4873 8.79321
79 2 7.34729 8.481 12.4448
80 2 3.85971 10.5376 14.0911
81 2 6.30216 10.673 10.5744
164 1 3.10604 8.03156 11.0606
171 1 0.815701 12.1822 11.2412
195 1 10.2085 6.6961 15.1863
201 1 5.26162 7.02511 9.88051
210 1 5.34918 6.79496 15.3216
211 1 10.0736 6.63181 9.90428
220 1 7.77594 10.8042 15.2565
225 1 8.1915 8.98087 8.15602
39 2 3.95148 6.60769 15.9428
228 1 2.77702 10.9856 9.92455
233 1 6.59515 7.25553 13.0954
234 1 8.13628 7.96813 11.2152
235 1 8.31749 9.05178 13.5912
236 1 3.37389 9.09384 13.523
237 1 5.31834 10.2449 14.8558
238 1 4.0624 11.5326 12.8545
239 1 2.78931 11.1276 15.2002