ITEM: TIMESTEP
0
ITEM: NUMBER OF ATOMS
243
ITEM: BOX BOUNDS xy xz yz pp pp pp
-7.3456000000000001e+00 1.4691300000000000e+01 -7.3456000000000001e+00
0.0000000000000000e+00 1.2723000000000001e+01 0.0000000000000000e+00
0.0000000000000000e+00 1.5963100000000001e+01 0.0000000000000000e+00
ITEM: ATOMS id type x y z
134 1 3.79307 5.62945 1.22538
139 1 2.84915 6.14883 4.03709
31 2 7.1154 0.0202689 7.01734
6 2 1.47918 2.35454 5.33539
10 2 -0.0397982 4.28614 1.74312
13 2 -0.226776 4.28715 7.03388
93 1 -2.03386 6.11276 4.04481
29 2 3.84138 2.10353 3.50832
140 1 3.86572 5.4476 6.45084
1 2 2.28378 0.111152 1.7336
37 2 4.71626 4.40254 1.76119
40 2 4.7212 4.31541 7.12148
82 1 1.30205 1.24783 1.14951
83 1 0.450221 1.81378 4.21593
84 1 1.7057 1.24249 6.47239
88 1 -0.805621 3.10124 2.39925
89 1 0.947866 3.68999 0.660708
90 1 -0.840433 5.50469 1.12237
91 1 -1.17304 3.24337 7.77253
92 1 0.683064 3.57576 5.9709
135 1 3.85207 3.21437 7.89294
94 1 -0.998675 5.44752 6.26287
118 1 3.24665 0.689869 2.90145
119 1 2.9307 2.67339 4.71555
120 1 6.14964 1.13728 0.99193
123 1 5.35975 2.02117 4.06932
124 1 6.23364 1.17901 6.38083
130 1 3.73735 3.23321 2.31805
132 1 0.870275 4.93765 2.9555
2 2 -0.971043 2.00379 3.51177
28 2 7.11339 0.138599 1.76996
41 2 1.33094 6.20177 8.846
9 2 1.28535 2.29902 10.5993
16 2 -0.113228 4.29919 12.33
32 2 3.80474 1.98873 8.89948
14 2 -3.60765 6.28635 8.75149
35 2 3.7977 2.01186 14.0514
7 2 2.3043 0.0266733 12.3447
43 2 4.7196 4.31198 12.4145
44 2 1.41777 6.28958 14.1171
85 1 0.423599 1.77005 14.7745
86 1 0.359343 1.8024 9.31302
87 1 1.33269 1.24002 11.7668
95 1 -0.872473 3.07583 13.0059
96 1 0.700623 3.6887 11.0735
97 1 -2.06682 5.97449 14.9366
98 1 -2.17584 6.06799 9.42475
99 1 -1.1044 5.4504 11.8429
121 1 3.37457 0.630868 8.23926
122 1 2.71462 2.2906 9.98211
125 1 3.30334 0.58557 13.4423
126 1 5.29299 2.04174 14.6171
127 1 2.84508 2.44179 15.2737
128 1 5.24001 1.87744 9.53915
129 1 6.37677 1.25187 11.7438
137 1 0.671913 4.9351 8.16817
141 1 3.8052 3.09644 12.8823
143 1 0.885619 4.98094 13.4033
144 1 2.81938 6.17145 14.8795
146 1 2.77117 5.96173 9.53323
147 1 3.87161 5.4212 11.6584
8 2 -1.01657 1.90294 14.1568
17 2 -3.44049 6.202 14.178
3 2 1.33886 2.30422 15.9009
5 2 -1.14784 2.01703 8.80078
34 2 7.2301 0.0925119 12.4616
21 2 -3.63304 10.6784 0.0339124
15 2 -1.01732 6.55497 5.14261
19 2 -2.49187 8.56542 1.75997
161 1 1.36464 9.53316 6.38498
22 2 -2.55325 8.48645 7.02775
24 2 -3.47355 10.8004 5.22823
46 2 2.24911 8.63884 1.76037
47 2 -1.03715 10.4938 3.57017
49 2 2.38873 8.43724 7.00953
100 1 -3.48564 7.42181 2.31197
101 1 -1.77145 8.03501 0.412366
102 1 -6.00812 11.6662 2.30429
103 1 -3.54019 9.69505 1.31053
104 1 -4.1373 12.0472 0.698388
105 1 -3.38465 7.27254 7.5125
106 1 -1.53592 7.86851 5.91095
107 1 -5.77274 11.5417 7.57468
108 1 -4.57613 10.5183 4.11155
109 1 -3.33675 9.64002 6.26704
110 1 -3.94196 12.0916 5.91862
133 1 0.44416 6.84609 4.60779
148 1 1.27581 7.49101 2.32503
150 1 -1.61252 9.16953 2.88099
151 1 -0.898418 11.5344 2.32216
152 1 -2.03981 11.0115 4.6431
153 1 1.39901 9.80813 1.14974
155 1 1.46139 7.2792 7.6779
158 1 -1.06086 11.5626 7.73267
160 1 0.424757 10.3241 4.17914
20 2 -5.9679 10.4673 3.32957
11 2 -3.48941 6.36419 3.48466
38 2 1.39914 6.37368 3.43182
4 2 -4.85785 12.7082 7.03774
18 2 -1.19876 6.48842 10.5757
25 2 -2.58852 8.47673 12.4405
27 2 -3.55583 10.7994 10.6603
50 2 -1.17025 10.4492 8.8847
12 2 -1.03557 6.59072 15.9075
53 2 -1.14763 10.4827 14.1866
111 1 -3.39818 7.34713 13.0513
112 1 -1.71646 7.8434 11.2775
113 1 -4.62177 10.1757 14.8834
114 1 -5.91824 11.5765 13.082
115 1 -4.45487 10.2618 9.4199
116 1 -3.44582 9.73001 11.8316
117 1 -4.25115 12.1999 11.0991
138 1 0.278299 6.74299 9.99282
145 1 0.419802 6.86366 15.3117
157 1 -1.87182 9.06553 8.36018
159 1 -2.01305 10.9971 10.1204
163 1 1.56164 7.31479 12.9244
165 1 -1.61869 9.12109 13.539
166 1 0.282247 10.2795 14.88
167 1 -1.07273 11.6753 13.1519
168 1 -2.10768 10.8411 15.3834
169 1 0.333325 10.2182 9.44422
170 1 1.42972 9.66796 11.8265
26 2 -6.03512 10.4988 14.2541
23 2 -5.98069 10.478 8.76788
196 1 8.69591 5.38976 1.09168
204 1 8.75436 5.36499 6.489
203 1 7.7609 6.06229 4.15714
193 1 5.66288 4.90407 2.90069
198 1 10.6765 3.62179 5.90755
56 2 8.70055 2.08712 3.5295
197 1 8.98136 3.08419 7.78139
136 1 5.73027 3.6327 6.10163
60 2 11.1406 2.2454 5.21253
64 2 9.67467 4.30037 1.75998
65 2 6.29863 6.17906 3.59156
67 2 9.74409 4.25975 7.05663
131 1 5.64271 3.5789 0.653458
33 2 6.29852 2.36119 5.35981
172 1 13.0822 0.58076 3.0388
173 1 8.01159 0.799415 2.88417
174 1 7.7367 2.5658 4.70567
176 1 11.2173 1.2478 1.25296
180 1 12.5741 2.49354 4.53073
181 1 10.1916 1.86487 4.05362
182 1 11.2662 1.02903 6.22285
190 1 8.77704 3.06482 2.26755
191 1 10.7099 3.69387 0.683174
192 1 10.5101 5.04869 2.90425
55 2 12.0952 0.0823296 1.90038
57 2 11.2015 2.33043 0.0344504
71 2 6.15191 6.28049 14.163
213 1 8.73625 5.45058 11.8713
212 1 7.63687 6.00516 9.57115
209 1 7.61578 5.88884 14.6486
36 2 6.31482 2.39018 10.5855
59 2 8.73147 1.98483 8.84366
208 1 5.48888 4.99892 13.6074
62 2 8.7512 1.9903 14.2549
63 2 11.0908 2.13959 10.6528
68 2 6.25467 6.18391 8.82243
70 2 9.64973 4.18554 12.3711
30 2 6.27769 2.33267 15.9001
142 1 5.77395 3.73825 11.2885
175 1 12.6919 2.57337 15.295
207 1 10.6258 4.84035 13.4934
178 1 8.02402 0.77784 8.08276
179 1 7.84147 2.40303 10.0806
183 1 13.0872 0.501276 13.5534
184 1 8.20576 0.660715 13.6173
185 1 10.2102 1.84393 14.8186
186 1 7.79612 2.44886 15.3964
187 1 12.5685 2.45674 10.0595
188 1 10.1374 1.6184 9.4554
189 1 11.235 1.10288 11.8973
199 1 10.608 4.90929 8.16254
177 1 13.0467 0.617699 8.08536
205 1 8.80837 3.08265 13.1217
206 1 10.45 3.51983 11.1781
200 1 5.65488 4.86587 8.27795
232 1 5.84738 12.0178 5.99876
227 1 3.83971 11.5116 7.75212
42 2 3.8299 6.51099 5.29446
229 1 7.68583 10.7966 4.61284
51 2 1.39307 10.7915 5.35978
230 1 5.19048 10.3327 4.15234
69 2 8.75989 6.50691 5.35957
73 2 7.2339 8.41563 1.6819
74 2 3.7388 10.5061 3.53875
231 1 6.29809 9.52486 6.45788
76 2 7.31212 8.44161 7.05473
78 2 6.26017 10.622 5.31156
149 1 3.34138 8.03664 0.715085
154 1 0.770856 12.3037 0.650796
156 1 3.318 7.90939 5.82076
162 1 0.761227 12.0724 5.99569
194 1 5.29437 6.64766 4.76072
202 1 10.2539 6.74917 4.69995
214 1 6.32796 7.31073 2.46661
215 1 8.06652 7.73263 0.512663
216 1 8.19566 9.10967 2.73827
217 1 3.12621 9.10326 3.0023
218 1 3.88145 11.5882 2.44167
219 1 2.81424 11.1122 4.74136
221 1 6.28714 9.56635 1.09102
222 1 5.68742 12.0737 0.76573
223 1 6.37717 7.24615 7.59042
224 1 8.24352 7.92271 5.85564
75 2 6.25785 10.7246 0.0448067
58 2 4.74524 12.5801 6.98702
39 2 3.85203 6.67125 0.0428902
48 2 1.25687 10.8774 0.0339623
242 1 6.59578 9.78086 11.7203
243 1 5.58288 11.9803 11.2139
45 2 3.82105 6.56981 10.5408
54 2 1.28959 10.7324 10.6212
72 2 8.67963 6.46965 10.6482
77 2 3.8233 10.42 8.82468
79 2 7.29722 8.48774 12.4018
80 2 3.75262 10.4873 14.285
81 2 6.30996 10.7699 10.5554
164 1 3.38571 7.99475 11.1982
171 1 0.656725 12.1136 11.2441
195 1 10.0948 6.61982 15.2183
201 1 5.22673 6.81358 9.83581
210 1 5.28629 6.81613 15.4108
211 1 9.99731 6.71439 9.79312
220 1 7.65254 10.991 15.3622
225 1 8.15306 9.07939 8.19469
226 1 3.32003 9.10983 8.09925
228 1 2.76975 10.8337 9.97432
233 1 6.31896 7.33454 12.9863
234 1 8.24214 7.80949 11.2944
235 1 8.14021 9.07737 13.5998
236 1 3.26379 9.16208 13.5449
237 1 5.23669 10.3318 14.8235
238 1 3.78582 11.594 13.101
239 1 2.72232 11.0018 15.3634
240 1 7.71766 11.0942 9.87169
241 1 5.34192 10.2867 9.41228
61 2 4.79509 12.6417 12.4491
66 2 8.60121 6.40163 15.8535
52 2 2.42617 8.56078 12.4006
ITEM: TIMESTEP
100
ITEM: NUMBER OF ATOMS
243
ITEM: BOX BOUNDS xy xz yz pp pp pp
-7.3456000000000001e+00 1.4691300000000000e+01 -7.3456000000000001e+00
0.0000000000000000e+00 1.2723000000000001e+01 0.0000000000000000e+00
0.0000000000000000e+00 1.5971081550000001e+01 0.0000000000000000e+00
ITEM: ATOMS id type x y z
134 1 3.87305 5.55083 1.26741
139 1 2.90381 5.99661 4.1382
31 2 7.17595 0.00491146 7.09592
6 2 1.43583 2.37485 5.28305
10 2 -0.0538924 4.27168 1.69331
13 2 -0.233631 4.25704 7.00627
93 1 -1.96501 6.17905 4.04107
29 2 3.88818 2.12992 3.56059
140 1 3.83444 5.47102 6.48564
1 2 2.31462 0.110793 1.74704
37 2 4.77887 4.31762 1.77641
40 2 4.67915 4.26752 7.1653
82 1 1.51566 1.3994 1.14169
83 1 0.494198 1.7933 4.16939
84 1 1.52789 1.16741 6.36636
88 1 -0.926558 3.13878 2.38322
89 1 0.853606 3.72856 0.469975
90 1 -0.944558 5.53693 1.28323
91 1 -1.05495 3.11175 7.69777
92 1 0.735498 3.68467 5.88043
135 1 3.75399 3.16148 7.91323
94 1 -1.13599 5.43655 6.39518
118 1 3.27043 0.760217 2.89558
119 1 2.90574 2.67111 4.72438
120 1 6.10975 1.23277 1.02099
123 1 5.36887 1.9733 4.08253
124 1 6.25462 1.13135 6.47928
130 1 3.80221 3.12242 2.29206
132 1 0.937112 4.82366 2.87022
2 2 -1.01551 2.05711 3.54859
28 2 7.15968 0.108615 1.64321
11 2 -3.47875 6.28254 3.62886
38 2 1.46218 6.2642 3.51763
4 2 2.50324 0.089196 7.07626
41 2 1.22584 6.22983 8.80682
9 2 1.25768 2.23034 10.6266
16 2 -0.00582917 4.29355 12.4489
32 2 3.90025 2.05186 9.07815
17 2 -3.47916 6.15764 14.0492
35 2 3.87589 2.02418 14.0193
7 2 2.21134 0.0392771 12.39
43 2 4.70281 4.39437 12.4149
3 2 1.42016 2.39596 15.9116
85 1 0.458734 1.77148 14.8104
86 1 0.327233 1.74263 9.41771
87 1 1.2908 1.18124 11.8627
95 1 -0.970479 3.13431 13.0481
96 1 0.771974 3.6042 11.2232
97 1 -1.98645 6.17021 14.7093
98 1 -2.0755 6.1656 9.47202
99 1 -0.919471 5.45281 11.7746
121 1 3.35657 0.701799 8.33577
122 1 2.83401 2.43295 10.2179
125 1 3.4302 0.624692 13.3534
126 1 5.36842 1.91805 14.6133
127 1 2.85343 2.42381 15.1894
128 1 5.4239 1.86732 9.62929
129 1 6.3956 1.15853 11.8586
137 1 0.685487 4.90165 8.15999
141 1 3.75881 3.25449 12.9476
143 1 0.793629 5.02706 13.5943
144 1 2.82432 6.11248 14.8966
146 1 2.66341 6.15422 9.51231
147 1 3.87356 5.54137 11.6819
8 2 -0.975342 1.98567 14.1131
5 2 -1.1358 1.97182 8.82772
20 2 -5.83616 10.4336 3.31672
15 2 -1.00057 6.61347 5.21218
19 2 -2.58021 8.52065 1.79345
161 1 1.47557 9.77652 6.59613
22 2 -2.58454 8.45639 7.01436
24 2 -3.52403 10.8187 5.21632
46 2 2.30467 8.65993 1.81374
47 2 -1.07895 10.5437 3.45924
12 2 -1.04683 6.53515 0.00907911
100 1 -3.56601 7.4517 2.47828
101 1 -1.66035 7.89267 0.657425
102 1 -5.92006 11.621 2.28723
103 1 -3.50976 9.67699 1.14835
104 1 -4.11837 12.2014 0.588495
105 1 -3.546 7.2737 7.70449
106 1 -1.46874 7.87675 6.04275
107 1 -5.66575 11.5273 7.66504
108 1 -4.43587 10.388 3.98185
109 1 -3.41829 9.59667 6.27619
110 1 -4.02144 12.1461 5.88274
133 1 0.507307 6.82222 4.70615
148 1 1.56155 7.38941 2.40748
150 1 -1.66681 9.16156 2.92563
151 1 -1.07118 11.6283 2.26199
152 1 -2.05967 11.0757 4.54692
153 1 1.46427 9.92472 1.297
155 1 1.49198 7.33352 7.65365
158 1 -1.08263 11.5757 7.7328
160 1 0.361404 10.3255 4.14739
21 2 -3.60637 10.7797 0.00383721
18 2 -1.14646 6.55598 10.6417
25 2 -2.64884 8.45063 12.3671
27 2 -3.53884 10.7798 10.6759
50 2 -1.17386 10.5025 8.90873
44 2 1.39134 6.38995 14.2837
53 2 -1.14147 10.4001 14.1701
111 1 -3.52047 7.2702 12.9386
112 1 -1.6438 7.84898 11.2984
113 1 -4.52107 10.1642 14.834
114 1 -5.82048 11.5194 13.0626
115 1 -4.47534 10.0568 9.49097
116 1 -3.49975 9.64555 11.7446
117 1 -4.25313 12.0902 11.2313
138 1 0.261749 6.79637 9.92034
145 1 0.404143 6.81093 15.4918
157 1 -1.79322 9.14518 8.17074
159 1 -2.09262 10.9201 10.1311
163 1 1.41194 7.38684 12.9952
165 1 -1.75745 9.06393 13.5048
166 1 0.373228 10.3276 14.8613
167 1 -1.08419 11.5151 13.0193
168 1 -2.16591 10.9256 15.3349
169 1 0.274038 10.1999 9.48526
170 1 1.50568 9.70184 11.7233
52 2 2.30674 8.54486 12.4136
23 2 -5.88758 10.4189 8.82269
34 2 -0.0976274 12.6529 12.479
26 2 -5.95596 10.461 14.2306
196 1 8.78781 5.46678 1.0989
204 1 8.80884 5.40731 6.58981
203 1 7.74313 5.9206 4.22755
193 1 5.68397 4.84635 2.90919
198 1 10.609 3.56511 5.87901
56 2 8.67635 2.10586 3.50892
197 1 8.8982 3.07562 7.7748
136 1 5.58526 3.56301 6.06695
60 2 11.188 2.26771 5.16741
64 2 9.67914 4.31934 1.7566
65 2 6.25384 6.10782 3.6161
67 2 9.78368 4.20232 7.05319
131 1 5.59827 3.74301 0.504979
33 2 6.33303 2.31142 5.39971
172 1 13.2188 0.598719 3.02999
173 1 8.03398 0.827183 2.78845
174 1 7.78655 2.46255 4.79292
176 1 11.5976 1.30903 1.22379
180 1 12.683 2.62367 4.66643
181 1 10.1757 1.69591 4.0331
182 1 11.3178 1.05883 6.22502
190 1 8.74018 3.25892 2.41855
191 1 10.7593 3.6289 0.686543
192 1 10.6035 5.0091 2.81931
55 2 12.3157 0.0324469 1.87239
71 2 6.15822 6.29228 14.2235
213 1 8.80619 5.37381 11.8841
212 1 7.56437 6.04502 9.54058
209 1 7.73455 6.08139 14.7227
36 2 6.39326 2.38425 10.7687
59 2 8.76025 1.97166 8.93586
208 1 5.57245 4.92234 13.6231
62 2 8.73303 1.94991 14.3561
63 2 11.1426 2.13026 10.6844
68 2 6.12159 6.28201 8.81585
70 2 9.66623 4.15455 12.4504
30 2 6.23297 2.33781 15.8927
142 1 5.8169 3.78239 11.4288
175 1 12.683 2.44957 15.2918
207 1 10.7754 4.72628 13.4406
178 1 8.05529 0.631916 8.33803
179 1 7.83066 2.543 10.0322
183 1 13.1259 0.612504 13.4481
184 1 8.13806 0.585869 13.6411
185 1 10.1014 1.68429 15.0624
186 1 7.703 2.55903 15.3885
187 1 12.6316 2.36292 10.0647
188 1 10.1686 1.63191 9.54151
189 1 11.2407 1.0934 11.8156
199 1 10.6831 4.81981 8.2043
177 1 12.8866 0.670396 8.16526
205 1 8.74758 3.10024 13.1527
206 1 10.5592 3.51179 11.2857
200 1 5.51809 4.84632 8.41208
57 2 11.2433 2.31271 15.9414
14 2 11.1304 6.1572 8.91027
232 1 5.88343 12.0206 5.97425
227 1 4.03891 11.5104 7.68527
42 2 3.83689 6.55351 5.35621
229 1 7.83539 10.9889 4.50351
51 2 1.37976 10.7492 5.33563
230 1 5.30105 10.3159 4.10664
69 2 8.73421 6.42619 5.35822
73 2 7.13919 8.4796 1.72687
74 2 3.8039 10.5592 3.5338
231 1 6.64906 9.58052 6.26757
76 2 7.36013 8.4273 7.04053
78 2 6.39539 10.7038 5.22054
149 1 3.13405 8.08157 0.589838
154 1 0.829498 12.3657 0.423082
156 1 3.25156 7.92312 5.8471
162 1 0.763457 12.1017 5.96394
194 1 5.32346 6.68044 4.87387
202 1 10.2229 6.59866 4.79784
214 1 6.35185 7.25205 2.50969
215 1 8.09373 7.89387 0.565779
216 1 8.22123 9.10919 2.70341
217 1 3.37416 9.10096 2.95538
218 1 3.89851 11.746 2.46035
219 1 2.83973 10.8507 4.69963
221 1 6.25072 9.65872 1.15279
222 1 5.81764 12.0595 0.722987
223 1 6.40049 7.20898 7.52857
224 1 8.37257 7.88351 5.89102
48 2 1.38988 10.8983 0.0141656
58 2 4.83645 12.6545 6.95518
39 2 3.86392 6.67136 0.132396
49 2 2.44177 8.54945 7.03878
242 1 6.26882 9.72067 11.7975
243 1 5.69578 12.0617 11.1635
45 2 3.73663 6.6989 10.558
54 2 1.29699 10.7772 10.5583
72 2 8.58597 6.49536 10.7074
77 2 3.89745 10.452 8.88348
79 2 7.21484 8.55725 12.4519
80 2 3.84587 10.4367 14.1744
81 2 6.31377 10.7366 10.5749
164 1 3.21405 8.04541 11.2337
171 1 0.729321 12.0836 11.2339
195 1 10.2638 6.65117 15.2806
201 1 5.15336 6.8882 9.92886
210 1 5.23063 6.82681 15.3862
211 1 10.0631 6.58727 9.99523
220 1 7.80237 10.9038 15.4051
225 1 8.09585 9.13155 8.20661
226 1 3.31951 9.05616 8.24943
228 1 2.80893 10.9461 9.91919
233 1 6.25468 7.3512 13.0306
234 1 8.17454 7.89691 11.3349
235 1 8.05593 9.10936 13.6434
236 1 3.08118 9.11415 13.6601
237 1 5.32469 10.4241 14.7354
238 1 3.90208 11.4966 12.9619
239 1 2.82499 11.1156 15.2597
240 1 7.83412 10.9507 9.9609
241 1 5.30417 10.1183 9.52883
61 2 4.82558 12.6489 12.3799
66 2 8.73148 6.59932 15.9101
75 2 6.36065 10.7726 15.9581
ITEM: TIMESTEP
200
ITEM: NUMBER OF ATOMS
243
ITEM: BOX BOUNDS xy xz yz pp pp pp
-7.3456000000000001e+00 1.4691300000000000e+01 -7.3456000000000001e+00
0.0000000000000000e+00 1.2723000000000001e+01 0.0000000000000000e+00
0.0000000000000000e+00 1.5979063100000001e+01 0.0000000000000000e+00
ITEM: ATOMS id type x y z
134 1 4.01542 5.66054 1.18304
139 1 2.88166 6.01374 4.22374
31 2 7.15668 0.0483793 7.09905
6 2 1.41475 2.38693 5.3556
10 2 -0.12109 4.31482 1.65331
13 2 -0.194995 4.22495 7.04543
93 1 -1.93385 6.05765 4.02593
29 2 3.77373 2.06328 3.59693
140 1 3.81422 5.44924 6.58782
1 2 2.4566 0.130586 1.72279
37 2 4.74251 4.39247 1.81783
40 2 4.79209 4.29645 7.24405
82 1 1.52887 1.322 1.13115
83 1 0.554449 1.9563 4.08448
84 1 1.57224 1.30819 6.50389
88 1 -1.01102 3.06796 2.16939
89 1 0.816539 3.62486 0.539719
90 1 -1.11047 5.39121 0.927016
91 1 -1.05037 3.06365 7.58987
92 1 0.808704 3.66971 5.98968
4 2 2.40764 0.0701173 7.08931
94 1 -1.11763 5.39795 6.41938
118 1 3.06893 0.718176 3.09545
119 1 2.84078 2.73369 4.75486
120 1 6.08734 1.16518 0.974022
123 1 5.27582 1.89366 4.30727
124 1 6.20563 1.29458 6.62594
130 1 3.85066 3.16643 2.38793
132 1 0.801968 4.95801 2.75987
2 2 -0.938075 2.02364 3.39154
28 2 7.15579 0.165678 1.65533
11 2 -3.47429 6.21946 3.58961
38 2 1.48313 6.27131 3.49139
135 1 3.80262 3.09614 7.78018
41 2 1.24133 6.30314 8.84482
9 2 1.38936 2.2571 10.6973
16 2 -0.0350788 4.29651 12.5002
32 2 3.78899 1.9389 8.93635
17 2 -3.54976 6.2607 14.1443
35 2 3.75001 2.10234 14.0701
5 2 -1.07128 1.95586 8.83031
43 2 4.68349 4.40396 12.4275
3 2 1.34249 2.28347 15.8676
85 1 0.290998 1.72673 14.8611
86 1 0.438267 1.89178 9.44471
87 1 1.26012 0.998451 11.7068
95 1 -0.842507 2.97505 13.0308
96 1 0.956046 3.66204 11.4516
97 1 -2.03717 6.02198 14.6671
98 1 -2.18251 6.00452 9.66829
99 1 -1.01153 5.41451 11.8177
121 1 3.34474 0.46901 8.28213
122 1 2.90915 2.37323 10.2316
125 1 3.10854 0.739091 13.4878
126 1 5.27286 2.0084 14.5898
127 1 2.92715 2.44613 15.4089
128 1 5.30732 1.91743 9.55979
129 1 6.3074 1.2266 11.8717
137 1 0.585004 5.00029 8.24624
141 1 3.66064 3.30257 12.9887
143 1 0.715244 4.93241 13.7469
144 1 2.94715 6.18419 14.7252
146 1 2.67568 6.05034 9.55026
147 1 3.93096 5.69654 11.7838
8 2 -1.08391 1.9589 14.2135
44 2 1.40289 6.3154 14.1824
20 2 -5.83506 10.505 3.41608
15 2 -1.07573 6.51731 5.31023
19 2 -2.61407 8.56753 1.76076
161 1 1.37146 9.68594 6.30683
22 2 -2.68887 8.49048 7.04259
24 2 -3.46983 10.8301 5.27105
160 1 0.438348 10.3498 4.07255
47 2 -1.06817 10.5833 3.52901
49 2 2.3685 8.55395 7.02278
100 1 -3.49774 7.44664 2.54971
101 1 -1.77143 7.8173 0.620137
102 1 -5.88471 11.6528 2.27484
103 1 -3.53315 9.72317 1.17901
104 1 -3.94336 12.1975 0.608176
105 1 -3.49587 7.26585 7.73379
106 1 -1.80048 7.81421 5.92947
107 1 -5.8801 11.6246 7.73044
108 1 -4.38294 10.4054 4.01935
109 1 -3.45744 9.67089 6.35145
110 1 -3.98164 12.0987 6.00602
133 1 0.410425 6.59806 4.63622
148 1 1.60879 7.46907 2.44782
150 1 -1.64162 9.22124 2.8859
151 1 -1.00307 11.702 2.36281
152 1 -1.99367 11.102 4.74769
153 1 1.56877 9.72836 1.11204
155 1 1.42702 7.36015 7.53844
158 1 -1.0091 11.5495 7.80388
21 2 -3.55799 10.7632 0.00711526
18 2 -1.10518 6.61268 10.669
25 2 -2.64158 8.47958 12.4149
27 2 -3.5831 10.7545 10.617
50 2 -1.14684 10.4837 8.94402
26 2 -5.92061 10.4302 14.1631
53 2 -1.11742 10.4838 14.2123
111 1 -3.52621 7.17675 12.7934
112 1 -1.70064 8.00286 11.2652
113 1 -4.49111 10.2249 14.7925
114 1 -5.86357 11.457 12.9642
115 1 -4.41816 10.234 9.3431
116 1 -3.62844 9.58086 11.8432
117 1 -4.15045 12.1391 11.1981
138 1 0.290422 6.90744 9.94472
145 1 0.477933 6.91291 15.347
157 1 -1.75356 9.16436 8.28811
159 1 -2.08498 11.0046 10.0817
163 1 1.42519 7.33257 12.9357
165 1 -1.78828 9.16334 13.6463
166 1 0.351388 10.2713 14.8359
167 1 -1.00431 11.5485 13.0293
168 1 -2.02792 11.0489 15.4156
169 1 0.357318 10.2249 9.41506
170 1 1.40006 9.73876 11.8725
52 2 2.29874 8.55376 12.4882
23 2 -5.89911 10.4638 8.79172
12 2 -1.05082 6.62547 15.8697
7 2 -5.07459 12.6709 12.3424
34 2 -0.0839722 12.7167 12.38
196 1 9.02347 5.52419 1.18702
204 1 8.7496 5.30498 6.61123
203 1 7.7766 5.93239 4.2627
193 1 5.73027 4.93691 2.98539
198 1 10.5682 3.54715 5.97453
56 2 8.66312 2.09336 3.53869
197 1 8.82452 3.06238 7.77965
136 1 5.78436 3.73182 6.13754
60 2 11.1345 2.27598 5.18968
64 2 9.80635 4.3084 1.79872
65 2 6.3318 6.24969 3.63448
67 2 9.75821 4.14289 7.1212
131 1 5.6137 3.84049 0.532027
33 2 6.24491 2.33878 5.40031
172 1 13.2541 0.615611 2.92124
173 1 8.13018 0.910789 2.67605
174 1 7.69119 2.34879 4.79194
176 1 11.4032 1.21679 1.2057
180 1 12.6548 2.42169 4.60357
181 1 10.2203 1.93679 3.90214
182 1 11.2365 1.09403 6.25945
190 1 8.78179 3.38439 2.62446
191 1 10.4315 3.53094 0.544355
192 1 10.8312 4.88455 2.83334
55 2 12.268 0.0280227 1.7753
57 2 11.1698 2.20001 0.0248412
58 2 12.1631 0.0175349 6.99719
71 2 6.2482 6.23407 14.2349
213 1 8.77846 5.28119 11.8975
212 1 7.63012 5.90548 9.6458
209 1 7.75209 5.97686 14.8344
36 2 6.23004 2.34458 10.7102
59 2 8.69309 1.92807 8.96407
208 1 5.51434 4.94654 13.6903
62 2 8.71641 1.97067 14.291
63 2 11.1487 2.27765 10.6063
68 2 6.22037 6.32039 8.86993
70 2 9.76362 4.14671 12.4566
30 2 6.14726 2.39179 15.9101
142 1 5.71925 3.76647 11.3253
175 1 12.4992 2.43685 15.1868
207 1 10.6655 4.86134 13.5918
178 1 8.18828 0.581903 8.24355
179 1 7.70258 2.48274 10.153
183 1 13.127 0.603873 13.5475
184 1 8.14009 0.680853 13.5509
185 1 10.1535 1.59003 14.9565
186 1 7.70934 2.33568 15.4806
187 1 12.5993 2.45843 9.97315
188 1 10.236 1.74517 9.39645
189 1 11.2759 1.21596 11.7311
199 1 10.7346 4.78766 8.17579
177 1 13.0473 0.640053 8.13854
205 1 8.96739 3.04079 13.1781
206 1 10.5141 3.57909 11.2023
200 1 5.65363 4.92214 8.37618
61 2 12.2099 0.0652753 12.3098
14 2 11.1254 6.14743 8.88185
232 1 5.87704 12.0894 5.97542
227 1 3.96777 11.545 7.57071
42 2 3.80826 6.51975 5.39944
229 1 7.8897 10.9007 4.63867
51 2 1.38668 10.8317 5.23237
230 1 5.45106 10.4208 4.00973
69 2 8.81837 6.37121 5.43507
73 2 7.30458 8.42815 1.75047
74 2 3.87047 10.4858 3.55148
231 1 6.43792 9.49559 6.24799
76 2 7.327 8.43504 7.02067
78 2 6.40429 10.7354 5.28158
149 1 3.22767 7.96608 0.568854
154 1 0.782246 12.263 0.516085
156 1 3.33488 7.90359 5.96015
162 1 0.694359 12.1166 5.89048
194 1 5.30203 6.63982 4.75826
202 1 10.2922 6.41666 4.82372
214 1 6.47677 7.38966 2.53717
215 1 8.1953 7.91545 0.516259
216 1 8.33251 9.09879 2.81844
217 1 3.47123 9.09663 2.91097
218 1 3.92457 11.6491 2.34552
219 1 2.88309 11.0311 4.64237
221 1 6.51206 9.6008 1.01009
222 1 5.71042 12.0644 0.600921
223 1 6.48987 7.33451 7.69615
224 1 8.33287 7.80443 5.95416
46 2 2.45345 8.59483 1.78191
242 1 6.4358 9.65733 11.8285
243 1 5.81533 12.1728 11.1738
45 2 3.72043 6.69247 10.5674
54 2 1.28711 10.7432 10.6342
72 2 8.60235 6.45718 10.7278
77 2 3.81903 10.4784 8.78911
79 2 7.20848 8.41282 12.4818
80 2 3.8879 10.5162 14.0773
81 2 6.27887 10.7575 10.6341
164 1 3.1226 7.98282 11.2158
171 1 0.725033 12.0951 11.1633
195 1 10.2144 6.86234 15.3504
201 1 5.06316 7.0068 9.7535
210 1 5.40625 6.8799 15.4446
211 1 10.0803 6.62925 9.96422
220 1 7.85501 10.9293 15.3038
225 1 8.30839 9.12546 8.03003
226 1 3.28045 9.0653 8.27537
228 1 2.76556 10.9682 9.96922
233 1 6.25797 7.29782 13.0821
234 1 8.08404 7.84285 11.3084
235 1 8.24438 9.02197 13.5878
236 1 3.32532 9.09621 13.539
237 1 5.33833 10.3562 14.8433
238 1 3.97894 11.4854 12.8599
239 1 2.85524 10.9803 15.2175
240 1 7.66547 10.8894 9.88368
241 1 5.25806 10.2594 9.4909
48 2 1.42274 10.8369 15.958
66 2 8.77031 6.54301 15.9502
75 2 6.34922 10.7985 15.9313
39 2 3.88571 6.69976 15.9455
ITEM: TIMESTEP
300
ITEM: NUMBER OF ATOMS
243
ITEM: BOX BOUNDS xy xz yz pp pp pp
-7.3456000000000001e+00 1.4691300000000000e+01 -7.3456000000000001e+00
0.0000000000000000e+00 1.2723000000000001e+01 0.0000000000000000e+00
0.0000000000000000e+00 1.5987044650000001e+01 0.0000000000000000e+00
ITEM: ATOMS id type x y z
134 1 3.90862 5.40126 1.04012
139 1 2.90815 5.97886 4.15432
31 2 7.14414 0.080901 7.13098
6 2 1.42708 2.32986 5.2985
10 2 -0.048624 4.31988 1.67038
13 2 -0.0976887 4.295 7.10556
93 1 -1.88737 6.12478 4.05494
29 2 3.8976 2.09264 3.57558
140 1 3.83626 5.48837 6.6137
1 2 2.4493 0.0737228 1.81714
40 2 4.83256 4.32103 7.19039
135 1 3.91483 3.11934 7.71205
82 1 1.59357 1.28803 1.19851
83 1 0.377202 1.9007 4.16551
84 1 1.5137 1.31593 6.51536
88 1 -0.837997 2.99391 2.21764
89 1 0.839776 3.70295 0.532323
90 1 -1.10263 5.42899 1.09316
91 1 -0.996826 3.06072 7.65773
92 1 0.811874 3.73482 5.91986
4 2 2.36387 0.0525013 7.05389
94 1 -0.952903 5.43271 6.41676
118 1 3.36665 0.770492 2.88091
119 1 2.8684 2.49483 4.63178
120 1 6.22058 1.19012 0.967458
123 1 5.32216 1.755 4.30543
124 1 6.26991 1.30424 6.69416
130 1 4.0278 3.22105 2.462
132 1 0.772611 4.97799 2.86449
2 2 -0.993845 1.89211 3.4181
28 2 7.16387 0.0870048 1.60143
11 2 -3.38265 6.21754 3.43911
38 2 1.42673 6.29263 3.5515
41 2 1.26533 6.26234 8.86869
9 2 1.35992 2.31931 10.6347
16 2 -0.0328259 4.2635 12.5223
32 2 3.84296 1.96533 8.86826
17 2 -3.5592 6.21349 13.9525
35 2 3.64978 2.17029 14.0773
14 2 -3.51276 6.16734 8.90763
43 2 4.66482 4.39654 12.3984
8 2 -1.03549 1.99246 14.1702
85 1 0.344575 1.78107 14.9051
86 1 0.291372 1.90192 9.4809
87 1 1.24595 1.17149 11.7721
95 1 -1.00968 3.17014 13.1064
96 1 0.95913 3.62624 11.4495
97 1 -2.05889 6.12909 14.652
98 1 -2.1426 6.06009 9.64401
99 1 -0.778749 5.4924 11.8316
121 1 3.3294 0.665477 8.24088
122 1 2.78109 2.29649 10.0212
125 1 3.1821 0.774253 13.5264
126 1 5.17481 2.02208 14.6194
127 1 2.74883 2.68208 15.2555
128 1 5.26605 1.92551 9.53686
129 1 6.23405 1.2605 11.8556
137 1 0.61281 4.89521 8.3809
141 1 3.72753 3.27081 12.9
143 1 0.911499 4.82021 13.6897
144 1 2.87657 6.12272 14.8369
146 1 2.7445 6.15435 9.47612
147 1 3.84252 5.56989 11.7529
44 2 1.34453 6.33758 14.2176
7 2 2.26829 0.0852035 12.3836
34 2 7.11898 0.031759 12.3834
3 2 1.34341 2.29676 15.984
20 2 -5.90083 10.5469 3.50865
15 2 -1.02962 6.57145 5.30896
19 2 -2.56041 8.53574 1.67897
161 1 1.39948 9.73193 6.44127
22 2 -2.61872 8.50088 7.00133
24 2 -3.56512 10.7794 5.36707
160 1 0.407097 10.4003 4.1344
47 2 -1.09635 10.5426 3.57105
49 2 2.27654 8.49752 6.95874
100 1 -3.44214 7.44529 2.42594
101 1 -1.73316 7.8839 0.5849
102 1 -5.80044 11.6117 2.32937
103 1 -3.50135 9.6998 1.14246
104 1 -4.02353 12.1972 0.642608
105 1 -3.36608 7.31824 7.82552
106 1 -1.71048 7.85568 5.86946
107 1 -5.89623 11.6272 7.68603
108 1 -4.3668 10.4078 4.04354
109 1 -3.65464 9.63893 6.45937
110 1 -4.12193 12.1774 5.88882
133 1 0.488757 6.74421 4.7682
148 1 1.58816 7.41841 2.37701
150 1 -1.53671 9.27502 2.6409
151 1 -0.991386 11.7752 2.56824
152 1 -2.06005 10.7272 4.88343
153 1 1.59903 9.78125 1.12662
155 1 1.35897 7.19374 7.53966
158 1 -1.02704 11.643 7.80144
21 2 -3.48119 10.8238 0.043431
18 2 -1.04728 6.56788 10.7191
25 2 -2.56372 8.52877 12.3684
27 2 -3.53887 10.8236 10.6669
50 2 -1.03658 10.4702 8.88288
26 2 -5.87482 10.3606 14.1089
53 2 -1.11041 10.5136 14.209
111 1 -3.5585 7.34259 12.8117
112 1 -1.60779 7.92241 11.3201
113 1 -4.44787 10.5183 14.7973
114 1 -5.82946 11.4857 12.9426
115 1 -4.49132 10.404 9.48066
116 1 -3.46281 9.67382 11.7096
117 1 -4.04191 12.2624 11.2183
138 1 0.308885 6.81971 9.95274
145 1 0.411336 6.83577 15.3769
157 1 -1.60445 9.16255 8.01813
159 1 -2.10139 10.8106 10.003
163 1 1.39065 7.29337 12.9511
165 1 -1.58727 9.13951 13.5499
166 1 0.445238 10.1747 14.8126
167 1 -1.13267 11.6267 13.0732
168 1 -1.98897 10.9579 15.4525
169 1 0.351501 10.2699 9.60976
170 1 1.40987 9.75251 11.9004
52 2 2.25613 8.49235 12.4011
23 2 -5.95538 10.513 8.81442
12 2 -1.09017 6.51967 15.9211
196 1 8.98661 5.58459 1.11498
204 1 8.88767 5.43708 6.57245
203 1 7.75279 5.90775 4.26682
193 1 5.75034 5.00633 2.95521
198 1 10.5425 3.51534 5.88926
56 2 8.66399 2.07925 3.55977
197 1 8.61577 3.0884 7.71886
136 1 5.68863 3.67992 5.93603
60 2 11.1726 2.24568 5.1993
64 2 9.78655 4.31284 1.74258
65 2 6.38543 6.30626 3.57612
67 2 9.67566 4.13617 7.05301
131 1 5.79565 3.71251 0.569457
33 2 6.28602 2.33712 5.43177
172 1 13.204 0.446134 2.85592
173 1 8.05678 0.952385 2.61342
174 1 7.74371 2.51212 4.80869
176 1 11.3862 1.14955 1.13729
180 1 12.5894 2.45986 4.45954
181 1 10.0908 1.65337 4.11823
182 1 11.4446 1.1044 6.28932
190 1 8.8555 3.28412 2.58033
191 1 10.386 3.58858 0.423143
192 1 10.8586 4.85323 2.78538
37 2 4.89667 4.40256 1.76702
71 2 6.27607 6.21927 14.1753
213 1 8.84811 5.45852 11.9357
212 1 7.60061 6.01464 9.67797
209 1 7.72197 5.86232 14.7529
36 2 6.24402 2.34157 10.7212
59 2 8.64835 1.93311 8.88979
208 1 5.52663 5.01462 13.5672
62 2 8.68974 1.90329 14.1783
63 2 11.1351 2.33301 10.6943
57 2 11.079 2.19126 15.9086
70 2 9.62303 4.18791 12.4768
30 2 6.1808 2.3436 15.8189
142 1 5.59348 3.68751 11.322
175 1 12.5418 2.42944 15.248
207 1 10.5559 4.81003 13.5421
178 1 8.18924 0.52425 8.31324
179 1 7.67264 2.39612 10.1034
183 1 13.0095 0.637921 13.5611
184 1 8.08606 0.507638 13.5938
185 1 10.1173 1.61374 14.7436
186 1 7.65555 2.43843 15.2717
187 1 12.5793 2.56722 10.0041
188 1 10.1379 1.86106 9.44596
189 1 11.2339 1.11239 11.6743
199 1 10.5974 4.77475 8.24898
177 1 13.0397 0.64412 8.24769
205 1 8.77954 3.0157 13.0531
206 1 10.5428 3.63341 11.3523
200 1 5.60839 4.92453 8.40396
61 2 12.1748 0.0103107 12.3439
68 2 6.24776 6.3139 8.91306
5 2 13.5204 2.01248 8.87315
232 1 5.8337 12.1026 5.98538
227 1 3.86719 11.6153 7.65093
42 2 3.83306 6.50951 5.37303
229 1 7.8609 11.0849 4.74251
51 2 1.37621 10.8927 5.31349
230 1 5.37466 10.3598 4.17857
46 2 2.48171 8.57736 1.70734
73 2 7.3822 8.55225 1.71567
74 2 3.86714 10.4502 3.55911
231 1 6.46401 9.63081 6.36985
76 2 7.38755 8.46575 6.91635
78 2 6.38943 10.7961 5.29799
149 1 3.39205 7.95152 0.57783
154 1 0.703004 12.1672 0.446736
156 1 3.22642 7.87236 5.87623
162 1 0.717903 12.2017 5.942
194 1 5.33322 6.78186 4.80115
202 1 10.3186 6.54696 4.59485
214 1 6.6409 7.33185 2.40289
215 1 8.22495 7.95947 0.498764
216 1 8.14221 9.191 2.96771
217 1 3.31396 9.12953 2.91873
218 1 3.93019 11.5188 2.40424
219 1 2.83812 11.0478 4.63843
221 1 6.42389 9.64351 1.16932
222 1 5.85174 12.0652 0.551885
223 1 6.6237 7.27322 7.69046
224 1 8.3148 7.89528 5.75685
55 2 4.88712 12.6396 1.73068
69 2 8.88567 6.4628 5.31103
58 2 4.85063 12.7048 7.07958
242 1 6.40633 9.68306 11.7773
243 1 5.76713 12.1527 11.3058
45 2 3.79454 6.68727 10.6024
54 2 1.3096 10.8756 10.6906
72 2 8.73405 6.46655 10.7446
77 2 3.79495 10.4807 8.81043
79 2 7.30875 8.51889 12.3667
80 2 3.85627 10.4707 14.142
81 2 6.22533 10.723 10.645
164 1 3.18607 8.03596 11.1395
171 1 0.825676 12.2588 11.3309
195 1 10.1921 6.62265 15.2246
201 1 5.284 6.92352 9.99736
210 1 5.41207 6.76462 15.4037
211 1 10.0682 6.59302 9.93295
220 1 7.73958 10.9135 15.1301
225 1 8.21598 9.17716 8.0705
226 1 3.20201 9.12708 8.10384
228 1 2.81843 10.9512 10.0131
233 1 6.47519 7.28325 13.0101
234 1 8.16256 7.89323 11.2284
235 1 8.29806 9.01405 13.5154
236 1 3.19094 9.09525 13.5314
237 1 5.25719 10.2409 14.8925
238 1 3.97956 11.4874 12.9245