ITEM: TIMESTEP
0
ITEM: NUMBER OF ATOMS
243
ITEM: BOX BOUNDS xy xz yz pp pp pp
-7.3456000000000001e+00 1.4691300000000000e+01 -7.3456000000000001e+00
0.0000000000000000e+00 1.2723000000000001e+01 0.0000000000000000e+00
0.0000000000000000e+00 1.5963100000000001e+01 0.0000000000000000e+00
ITEM: ATOMS id type q x y z
135 1 -1.00811 3.69841 3.06857 7.71816
139 1 -0.991963 2.86062 6.13411 4.12012
132 1 -0.930523 0.762981 4.81706 3.01482
6 2 2.00365 1.26382 2.28531 5.34863
10 2 1.94523 -0.115564 4.25754 1.75924
13 2 1.98567 -0.192167 4.25517 7.18243
134 1 -1.00065 3.93614 5.4729 1.08967
29 2 1.94504 3.68263 1.9697 3.61302
140 1 -1.01422 3.80449 5.45804 6.57539
37 2 1.98796 4.73984 4.22541 1.73516
38 2 1.86965 1.39275 6.24223 3.46845
120 1 -1.03562 6.31884 1.2865 1.06169
82 1 -0.933654 1.27563 1.16386 1.0828
83 1 -0.990324 0.232163 1.96387 4.17978
84 1 -0.955593 1.35509 0.935204 6.25071
88 1 -0.971719 -1.12084 3.16021 2.30417
89 1 -1.01818 0.855517 3.66137 0.632912
90 1 -0.95464 -0.93676 5.5185 1.29895
91 1 -0.986049 -1.16774 3.12268 7.7891
92 1 -1.02104 0.744142 3.57213 6.14585
93 1 -0.958618 -2.19459 6.17289 4.1257
94 1 -0.954641 -1.01054 5.43747 6.32673
118 1 -0.990591 3.05848 0.663739 2.92449
119 1 -1.01729 2.7028 2.48956 4.78118
124 1 -0.989678 6.08555 1.17482 6.60978
123 1 -1.02055 5.14656 1.77046 4.27764
28 2 1.84779 7.22183 0.0970679 1.6771
130 1 -0.984668 3.89902 3.10346 2.47664
40 2 2.05938 4.64571 4.21838 7.15259
1 2 1.94736 2.26466 0.0127165 1.67152
33 2 2.07113 6.03531 2.23731 5.45398
146 1 -0.97906 2.84177 5.94056 9.48519
9 2 1.8464 1.25662 2.18547 10.5854
16 2 1.87199 -0.188643 4.27913 12.4333
32 2 1.94803 3.65695 1.90909 8.8321
147 1 -0.912163 3.75555 5.3749 11.825
35 2 1.98304 3.75253 1.88332 14.1232
41 2 2.05359 1.38433 6.1919 8.90986
43 2 1.98455 4.74232 4.25066 12.4154
14 2 1.8862 -3.45765 6.22336 8.86769
85 1 -0.968586 0.200387 2.06086 14.7464
86 1 -0.952716 0.266378 1.74799 9.41555
87 1 -0.950632 1.27115 1.17719 11.8311
95 1 -0.960564 -1.22021 3.18337 12.9929
96 1 -0.890842 0.716022 3.60657 11.275
97 1 -1.06716 -2.19019 5.93896 14.9898
98 1 -0.97959 -2.00001 6.10635 9.53683
99 1 -0.948659 -1.05188 5.50643 11.8499
121 1 -1.00327 3.21209 0.575068 8.14016
122 1 -0.951344 2.79379 2.35019 10.1101
125 1 -0.980373 3.12645 0.55895 13.568
126 1 -0.991777 5.22908 1.75616 14.7244
127 1 -0.956942 2.87329 2.36503 15.396
128 1 -0.927055 5.13062 1.83161 9.50019
129 1 -0.960264 6.1332 1.1487 11.7518
137 1 -1.02059 0.719657 4.84361 8.30265
141 1 -0.988058 3.89757 3.04275 13.0291
143 1 -0.950875 0.839276 4.75602 13.566
144 1 -1.02456 2.81527 6.10121 14.768
3 2 1.90415 1.30191 2.35195 15.9223
44 2 1.90014 1.40944 6.19984 14.0521
17 2 2.08486 -3.51611 6.13364 14.2384
34 2 1.96277 7.14761 0.0392112 12.3958
161 1 -0.91164 1.35271 9.39038 6.47375
160 1 -0.903927 0.411983 10.2009 4.14549
19 2 1.78142 -2.55314 8.43596 1.71126
15 2 2.00745 -1.08997 6.59973 5.19612
22 2 1.97446 -2.57584 8.43219 7.11791
24 2 1.94318 -3.42192 10.668 5.23636
46 2 1.99564 2.32454 8.49122 1.7678
47 2 1.87097 -1.02595 10.4781 3.45993
49 2 1.94547 2.40806 8.38456 7.15712
100 1 -0.927202 -3.55952 7.34825 2.42485
101 1 -0.92744 -1.51414 7.88174 0.588368
102 1 -0.972212 -5.93711 11.5293 2.19437
103 1 -0.984509 -3.34816 9.75593 1.19833
104 1 -0.974289 -4.122 12.1575 0.566921
105 1 -0.987727 -3.44014 7.23299 7.61117
106 1 -0.982959 -1.59642 7.89186 5.94975
107 1 -0.972242 -5.89949 11.4666 7.68052
108 1 -0.927904 -4.56596 10.2708 4.20212
109 1 -0.957643 -3.4347 9.5707 6.41951
110 1 -0.946026 -3.99421 12.0258 5.89614
133 1 -0.966356 0.304849 6.81952 4.48746
148 1 -0.929502 1.3698 7.28122 2.18579
150 1 -0.854344 -1.64386 9.02765 3.0095
151 1 -0.928435 -0.990172 11.5527 2.25884
152 1 -0.97834 -1.96713 10.9382 4.63597
153 1 -1.0403 1.52645 9.65083 1.07071
155 1 -1.04653 1.51996 7.25527 7.77609
158 1 -0.924636 -1.28061 11.5592 7.69658
20 2 1.84953 -6.03322 10.5418 3.48216
31 2 1.90644 -0.316938 12.6912 7.14545
4 2 1.95256 -5.00524 12.6197 6.98624
21 2 1.95982 -3.5469 10.7632 0.0353651
18 2 1.9273 -0.957928 6.59387 10.6464
25 2 1.84454 -2.59513 8.45987 12.5461
27 2 1.86373 -3.74435 10.6037 10.6935
50 2 1.80164 -1.22484 10.5122 8.96544
52 2 1.95187 2.38902 8.49826 12.3317
53 2 1.96631 -1.17689 10.4845 14.2407
111 1 -0.989988 -3.50135 7.24764 13.1177
112 1 -0.93058 -1.56331 7.9276 11.4152
113 1 -0.913109 -4.64961 10.3081 14.8365
114 1 -0.960787 -6.10773 11.5589 13.0502
115 1 -1.01519 -4.66428 10.0585 9.49469
116 1 -0.937212 -3.5746 9.61227 11.9801
117 1 -0.956454 -4.3744 11.9914 11.203
138 1 -1.06264 0.485629 6.72572 10.0547
145 1 -0.934908 0.377317 6.67797 15.2434
157 1 -0.933585 -1.80106 9.08484 8.36331
159 1 -0.923655 -2.24424 10.9464 10.1414
163 1 -0.989217 1.55358 7.23027 12.8279
165 1 -0.975063 -1.78734 9.087 13.8254
166 1 -0.996917 0.241707 10.2265 14.9181
167 1 -0.986809 -1.06319 11.5762 13.0594
168 1 -0.973666 -2.1284 11.0895 15.3446
169 1 -0.959853 0.268929 10.3105 9.46964
170 1 -0.996025 1.45048 9.70081 11.7776
12 2 1.94481 -1.06952 6.48141 15.9543
7 2 1.91632 -5.1955 12.6924 12.3995
196 1 -1.04545 8.6629 5.3853 1.077
204 1 -1.01204 8.83288 5.45891 6.55344
203 1 -0.956301 7.70259 5.79627 4.15836
11 2 1.93047 10.9807 6.357 3.63218
198 1 -0.952588 10.6252 3.66507 6.01804
56 2 1.98029 8.51083 1.93154 3.6361
197 1 -0.92467 8.7567 3.11105 7.81046
193 1 -0.98466 5.62266 4.732 2.88733
60 2 2.02282 10.9786 2.25163 5.30114
64 2 1.94891 9.51141 4.3223 1.85962
58 2 1.99208 12.1013 0.0199881 7.02299
67 2 1.89859 9.70605 4.28871 7.18818
131 1 -0.991081 5.71261 3.68633 0.55354
136 1 -1.05552 5.60651 3.6148 6.05521
172 1 -0.997207 12.9122 0.649486 2.97354
173 1 -0.944926 8.04988 0.531587 3.04085
174 1 -0.978171 7.5241 2.34361 4.86874
176 1 -0.97112 11.1698 1.04628 1.12021
180 1 -0.957943 12.3544 2.51858 4.53006
181 1 -1.02867 9.94876 1.78899 4.21597
182 1 -1.02884 11.1874 1.21566 6.46273
190 1 -0.947996 8.60826 3.09242 2.55646
191 1 -0.919 10.4616 3.54777 0.818558
192 1 -0.95098 10.4167 4.98998 3.0226
65 2 1.89089 6.25117 6.08969 3.50135
2 2 1.95604 13.476 2.05851 3.47651
36 2 1.92389 6.16379 2.31811 10.6756
213 1 -0.924712 8.79624 5.37189 11.606
212 1 -0.966017 7.72438 6.0631 9.26987
209 1 -1.01658 7.68863 6.13095 14.7786
68 2 1.98063 6.2344 6.18322 8.85416
59 2 1.96505 8.6095 1.93383 8.9537
208 1 -0.973048 5.61758 4.87483 13.5748
62 2 2.0709 8.69053 2.04868 14.1269
63 2 1.98676 11.0355 2.22081 10.6421
71 2 1.89295 6.17867 6.28309 14.168
70 2 1.91825 9.72772 4.26372 12.3292
207 1 -0.997115 10.6736 4.80707 13.5275
142 1 -0.957998 5.68329 3.74895 11.2475
175 1 -0.998106 12.4542 2.5131 15.322
177 1 -1.008 13.0093 0.590109 8.17725
178 1 -0.985474 7.98377 0.675788 8.25348
179 1 -0.983942 7.64323 2.44522 10.1331
183 1 -0.924394 13.0271 0.603939 13.6436
184 1 -0.996699 8.06283 0.726587 13.4886
185 1 -1.06763 10.0118 1.77158 14.8392
186 1 -1.02319 7.62184 2.46712 15.2151
187 1 -0.975195 12.4801 2.43845 10.053
188 1 -1.00287 10.0403 1.62517 9.54833
189 1 -0.955022 11.1829 1.20075 11.8757
199 1 -0.944635 10.5954 4.79914 8.43069
200 1 -1.01064 5.57341 4.84107 8.20966
205 1 -0.987478 8.7576 3.16894 12.9556
206 1 -0.977778 10.6142 3.64175 11.1521
30 2 2.06446 6.19427 2.28816 15.8813
5 2 1.94904 13.4309 1.94087 8.84755
8 2 1.96763 13.4402 2.11441 14.1639
57 2 1.95608 11.034 2.19181 15.9623
232 1 -0.964559 5.71371 12.1633 5.87909
229 1 -0.972454 7.58648 11.0257 4.5112
42 2 1.94957 3.81451 6.48345 5.34175
55 2 1.98473 4.76244 12.694 1.79457
51 2 1.88999 1.3189 10.6667 5.41015
230 1 -1.01578 5.16903 10.1432 4.27173
69 2 1.99066 8.53632 6.45648 5.39258
73 2 1.94038 7.28681 8.45948 1.7614
74 2 1.91783 3.7409 10.437 3.68796
231 1 -1.0118 6.34382 9.83013 6.58046
76 2 2.02061 7.06402 8.49697 7.07612
78 2 1.99296 6.2118 10.7508 5.30498
149 1 -0.990045 3.35144 7.84927 0.731649
154 1 -1.0124 0.850301 12.1574 0.569172
156 1 -0.951039 3.39447 7.93519 5.93662
162 1 -0.952691 0.624768 11.9438 6.0439
194 1 -0.984662 5.23209 6.55524 4.6899
202 1 -0.947644 9.92843 6.83866 4.81446
214 1 -0.982259 6.46003 7.25552 2.39659
215 1 -0.949461 8.37338 7.92512 0.688578
216 1 -0.878107 8.16256 9.01302 2.9844
217 1 -0.976824 3.01829 9.1682 3.07653
218 1 -0.950883 3.88223 11.5095 2.46411
219 1 -0.945963 2.73636 11.0635 4.85246
221 1 -1.01051 6.44614 9.65332 1.18309
222 1 -0.992263 5.67254 12.1652 0.616679
223 1 -1.00965 6.14999 7.48104 7.87051
224 1 -1.00276 7.89123 7.84001 5.89017
227 1 -0.98811 3.92578 11.5151 7.66843
75 2 1.94809 6.16252 10.7432 0.0475849
48 2 2.10143 1.30538 10.7844 0.0305865
45 2 1.89007 3.8145 6.52755 10.6414
243 1 -0.975625 5.68235 12.1614 11.2725
23 2 2.10319 8.66577 10.3351 8.80132
54 2 1.90871 1.24379 10.8132 10.6618
72 2 1.88621 8.76811 6.53988 10.4829
77 2 1.98054 3.70178 10.5244 8.88029
79 2 1.96111 7.24358 8.39873 12.3608
80 2 1.98785 3.74037 10.4479 14.1737
81 2 1.97981 6.28673 10.7663 10.7044
164 1 -0.985434 3.39107 7.95592 11.2235
171 1 -0.992123 0.78652 12.2196 11.31
195 1 -1.0211 10.1252 6.53076 15.3778
201 1 -0.96394 5.32785 6.43069 10.1302
210 1 -0.975137 5.23654 6.96167 15.2599
211 1 -0.949445 10.2283 6.85844 9.95291
220 1 -0.921057 7.62573 10.8872 15.3046
225 1 -1.02009 8.14768 9.05037 8.09021
226 1 -1.00311 3.21723 9.11839 8.29156
228 1 -0.970738 2.6212 11.0931 9.85947
233 1 -0.954508 6.25522 7.24514 12.9013
234 1 -0.977616 8.17215 7.84805 11.2135
235 1 -0.985586 8.10923 8.9184 13.614
236 1 -1.0038 3.22758 9.08536 13.5514
237 1 -0.987578 5.16337 10.2395 14.8783
238 1 -0.989464 3.80908 11.5383 13.0656
239 1 -0.990652 2.73637 10.9584 15.3507
240 1 -1.00894 7.65059 10.924 9.85607
241 1 -0.927156 5.16135 10.2991 9.60829
242 1 -1.05085 6.48847 9.67826 11.7715
39 2 2.00503 3.80125 6.56373 15.8916
26 2 1.90503 8.57137 10.3555 14.1372
66 2 2.05242 8.65626 6.47884 15.9317
61 2 1.85667 4.77 12.7147 12.4522
ITEM: TIMESTEP
100
ITEM: NUMBER OF ATOMS
243
ITEM: BOX BOUNDS xy xz yz pp pp pp
-7.3456000000000001e+00 1.4691300000000000e+01 -7.3456000000000001e+00
0.0000000000000000e+00 1.2723000000000001e+01 0.0000000000000000e+00
0.0000000000000000e+00 1.5973742066666667e+01 0.0000000000000000e+00
ITEM: ATOMS id type q x y z
135 1 -1.0101 3.8103 3.14236 7.85937
139 1 -0.963678 2.84968 5.98527 4.1113
132 1 -0.973914 0.783369 4.83971 3.03134
6 2 2.03437 1.37728 2.24306 5.3118
10 2 1.91337 -0.0938058 4.20725 1.84003
13 2 1.98249 -0.139146 4.23835 7.16787
134 1 -0.982629 4.01588 5.44076 1.15213
29 2 2.01316 3.66956 2.02458 3.47612
140 1 -1.02896 3.81464 5.30891 6.37064
37 2 1.90742 4.77995 4.2051 1.81964
38 2 2.00414 1.39202 6.22375 3.52261
120 1 -1.01566 6.19863 0.891187 0.952496
82 1 -1.00478 1.36029 1.30394 1.16464
83 1 -1.01464 0.241262 1.84873 4.25395
84 1 -1.02269 1.57542 1.09333 6.43516
88 1 -0.999862 -0.988937 2.98492 2.24721
89 1 -0.947971 0.969223 3.72906 0.685371
90 1 -0.97956 -0.935279 5.43578 1.22858
91 1 -0.975521 -1.16086 3.12469 7.72421
92 1 -1.00728 0.784677 3.49139 6.096
93 1 -0.974918 -2.18797 5.99025 4.21816
94 1 -0.952589 -0.888343 5.48427 6.49407
118 1 -0.983473 2.99631 0.62864 2.9534
119 1 -1.04365 2.67322 2.62141 4.48417
124 1 -0.979145 6.197 1.13034 6.49646
123 1 -1.00601 5.0575 1.75309 4.16392
1 2 1.98223 2.22342 0.0388716 1.69748
130 1 -0.982811 3.80416 2.96921 2.21601
40 2 2.05013 4.69334 4.21746 7.13717
11 2 1.92093 -3.56741 6.26081 3.5076
2 2 2.03309 -1.14315 2.00203 3.51405
146 1 -0.962672 2.83024 5.96182 9.53081
9 2 1.88996 1.25654 2.19393 10.7074
16 2 2.03364 -0.173155 4.2676 12.4423
32 2 1.93554 3.66533 1.99597 8.98805
147 1 -1.0362 3.91771 5.40146 11.8391
35 2 1.90318 3.7235 1.84941 14.1315
41 2 1.96759 1.30803 6.14622 8.93074
43 2 1.96549 4.72145 4.1566 12.4045
14 2 2.03695 -3.48451 6.33905 8.82982
85 1 -1.01583 0.169031 1.90146 14.9635
86 1 -0.970701 0.362174 1.78427 9.4538
87 1 -0.982766 1.27205 1.09262 11.9074
95 1 -1.0517 -1.07079 3.18671 13.187
96 1 -0.969097 0.613583 3.53019 11.2472
97 1 -1.06598 -1.98186 5.90223 14.8683
98 1 -0.972286 -2.14399 6.09084 9.58247
99 1 -1.01106 -0.999544 5.43736 11.8607
121 1 -1.03196 3.12557 0.613028 8.34552
122 1 -0.920593 2.7911 2.6047 10.227
125 1 -1.05041 3.2262 0.506109 13.4869
126 1 -0.92469 5.26981 1.85248 14.727
127 1 -0.99059 2.67287 2.46463 15.1675
128 1 -0.965781 5.1158 1.81376 9.4951
129 1 -0.986238 6.17163 1.04863 11.8068
137 1 -1.00153 0.596452 4.7924 8.4388
141 1 -0.903296 3.70557 2.97746 12.9297
143 1 -0.996536 0.780328 4.97095 13.5735
144 1 -1.04953 2.75708 6.18787 14.8813
17 2 2.06011 -3.42539 6.00018 14.2189
44 2 2.06117 1.35581 6.31145 14.2577
3 2 2.04621 1.29468 2.33155 15.9441
161 1 -0.995605 1.52512 9.67335 6.60414
160 1 -1.01083 0.359534 10.2971 4.24994
19 2 2.14381 -2.59114 8.60159 1.7535
15 2 1.90793 -1.09525 6.55272 5.26155
22 2 2.02635 -2.51251 8.58898 6.99224
24 2 1.98387 -3.55917 10.7745 5.28689
46 2 2.02757 2.36892 8.48424 1.82958
47 2 2.04201 -1.09028 10.4188 3.61832
49 2 2.00962 2.33217 8.40843 7.17549
100 1 -0.983902 -3.44929 7.41508 2.35934
101 1 -1.00735 -1.7452 7.81598 0.676539
102 1 -0.953058 -6.00731 11.5357 2.3111
103 1 -1.09107 -3.42326 9.72419 1.02707
104 1 -1.09296 -4.19142 12.174 0.588707
105 1 -1.0578 -3.24471 7.30687 7.65885
106 1 -0.962434 -1.63016 8.00856 5.81824
107 1 -0.997282 -5.74915 11.3905 7.63238
108 1 -0.96037 -4.49097 10.3438 4.00376
109 1 -1.04867 -3.48229 9.66309 6.37255
110 1 -1.00454 -3.99615 12.133 5.98585
133 1 -0.992354 0.33845 6.75344 4.61688
148 1 -1.03145 1.57257 7.23727 2.32149
150 1 -1.065 -1.68363 9.1127 2.87843
151 1 -1.06279 -0.954113 11.4751 2.41702
152 1 -1.01457 -2.0517 10.8974 4.76789
153 1 -0.980401 1.48641 9.57438 1.07106
155 1 -1.00227 1.41544 7.21619 7.78668
158 1 -1.01283 -1.21512 11.7465 7.88017
20 2 1.86065 -6.03322 10.5088 3.5449
12 2 1.99297 -1.07551 6.48193 0.0327486
4 2 2.06445 -4.93686 12.6745 7.1469
31 2 2.06022 -0.253072 12.7149 7.14708
28 2 2.08789 -0.227159 12.6423 1.71432
18 2 1.96639 -1.0754 6.57466 10.7272
25 2 1.92313 -2.69551 8.42883 12.512
27 2 2.00169 -3.69617 10.6485 10.7317
50 2 2.00274 -1.19329 10.5193 8.93364
52 2 2.11423 2.34781 8.45282 12.376
53 2 1.95792 -1.17402 10.4798 14.2439
111 1 -0.999996 -3.32531 7.06897 13.0654
112 1 -0.943334 -1.62691 7.91893 11.3652
113 1 -1.02709 -4.61224 10.3334 14.9086
114 1 -1.00674 -5.99644 11.425 12.9699
115 1 -1.01192 -4.55701 10.0785 9.5201
116 1 -1.001 -3.67612 9.46473 11.7773
117 1 -1.01729 -4.33466 12.0206 11.2595
138 1 -0.998356 0.366749 6.72412 10.0727
145 1 -0.976025 0.386345 6.84796 15.4443
157 1 -1.02096 -1.5676 9.21529 8.11418
159 1 -0.977629 -2.25878 10.8684 10.0703
163 1 -1.04925 1.4672 7.43838 13.1806
165 1 -0.989666 -1.81211 9.17527 13.6443
166 1 -0.961916 0.367762 10.2881 14.7492
167 1 -0.951832 -1.06973 11.42 12.9226
168 1 -1.07226 -2.22382 11.1315 15.241
169 1 -1.01826 0.198431 10.4252 9.71032
170 1 -1.08432 1.55712 9.69332 11.7865
7 2 2.0428 -5.14366 12.6632 12.4636
21 2 2.20762 -3.58097 10.8815 15.9314
23 2 2.00315 -5.95146 10.3146 8.8224
34 2 1.98663 -0.224491 12.6958 12.4104
196 1 -0.979834 8.60534 5.37029 1.15485
204 1 -1.00775 8.8084 5.49922 6.46487
203 1 -0.972411 7.74568 6.04936 4.19219
33 2 1.93918 6.06497 2.25514 5.3341
198 1 -0.926873 10.5123 3.73173 5.98157
56 2 1.96116 8.58721 2.05094 3.63386
197 1 -0.936019 8.75201 3.12413 7.74003
193 1 -0.974084 5.73639 4.68085 3.0003
60 2 2.01247 11.0803 2.32761 5.39059
64 2 1.91515 9.51073 4.26585 1.79068
58 2 2.0203 11.9819 0.0706142 7.10685
67 2 1.92433 9.64474 4.38001 7.19477
131 1 -0.919433 5.6331 3.57126 0.578813
136 1 -0.993316 5.52037 3.64931 5.90746
172 1 -0.983161 13.0714 0.64638 2.82947
173 1 -0.995986 7.94166 0.853425 2.75498
174 1 -0.939539 7.52841 2.49494 4.78633
176 1 -0.959937 11.084 1.19369 1.28388
180 1 -1.01233 12.4816 2.50315 4.56331
181 1 -1.01766 9.9507 1.82137 4.4212
182 1 -1.05733 11.1939 1.29405 6.56214
190 1 -0.961741 8.56489 3.20515 2.54976
191 1 -0.944713 10.459 3.65138 0.561358
192 1 -0.968145 10.4678 4.91212 2.8841
65 2 1.98483 6.29683 6.11381 3.5182
57 2 1.95388 10.9644 2.20615 0.0434674
36 2 1.9498 6.16978 2.22711 10.688
213 1 -0.865468 8.59315 5.33853 11.5862
212 1 -0.963061 7.66281 6.12379 9.26651
209 1 -1.01699 7.56835 6.10086 14.7427
68 2 1.90715 6.1536 6.28823 8.75211
59 2 1.98298 8.66059 1.97067 8.89584
208 1 -0.992371 5.57059 4.80844 13.6191
62 2 1.96643 8.5933 1.98922 14.2069
63 2 1.94247 11.1495 2.21569 10.6208
71 2 2.0424 6.13001 6.21816 14.0607
70 2 1.77879 9.61381 4.14094 12.3026
207 1 -0.957103 10.635 4.82831 13.3991
142 1 -1.02516 5.66783 3.55083 11.3172
175 1 -1.06085 12.3913 2.42171 15.4245
177 1 -1.02356 13.0584 0.5821 8.14092
178 1 -0.989178 8.12727 0.64182 8.23229
179 1 -0.967482 7.63075 2.46431 10.024
183 1 -0.95924 13.0533 0.693937 13.5858
184 1 -0.991435 7.81888 0.685919 13.6652
185 1 -1.00771 10.0172 1.68506 14.8214
186 1 -0.965778 7.72844 2.53086 15.4026
187 1 -0.964066 12.6392 2.25322 10.0093
188 1 -0.982115 10.0685 1.7157 9.52886
189 1 -0.963138 11.2458 1.08058 11.7705
199 1 -0.978727 10.6811 4.93655 8.28869
200 1 -1.00947 5.62888 4.85272 8.19789
205 1 -0.970704 8.67023 3.04676 13.0145
206 1 -0.960716 10.5651 3.57861 11.0985
30 2 1.89659 6.21576 2.20127 15.9576
8 2 2.06493 13.3963 2.12544 14.2951
5 2 1.99236 13.5877 1.91052 8.77313
232 1 -0.981953 5.51339 12.1858 5.83985
229 1 -0.948806 7.66479 11.0187 4.74744
42 2 1.99706 3.84527 6.44945 5.3131
55 2 1.91943 4.702 12.6855 1.80213
51 2 1.99362 1.34151 10.7816 5.42196
230 1 -1.01074 5.2338 10.2538 4.12838
69 2 1.95246 8.71145 6.60321 5.34273
73 2 1.89833 7.21286 8.40789 1.74418
74 2 2.01564 3.71638 10.4214 3.63549
231 1 -0.958844 6.33526 9.90693 6.54272
76 2 1.96857 7.05627 8.53953 7.0132
78 2 1.9609 6.15369 10.8713 5.26663
149 1 -0.996597 3.40032 7.93194 0.736781
154 1 -0.97973 0.741322 11.9836 0.618189
156 1 -1.00599 3.22434 7.74538 6.00468
162 1 -1.05145 0.607216 12.0486 6.02716
194 1 -0.998566 5.25449 6.65964 4.53833
202 1 -0.951332 10.1619 6.84442 4.69666
214 1 -0.953632 6.33072 7.18803 2.31379
215 1 -0.959575 8.15682 7.81449 0.560764
216 1 -0.937084 8.08928 9.14146 2.90034
217 1 -1.04496 3.14751 9.07994 3.08194
218 1 -0.989775 3.79725 11.5668 2.53081
219 1 -1.03014 2.77813 10.9835 4.78325
221 1 -0.970525 6.25133 9.5075 1.09272
222 1 -0.974765 5.49859 11.9779 0.597909
223 1 -0.998303 6.12123 7.34458 7.583
224 1 -0.991969 7.91456 7.94383 5.83092
227 1 -1.00429 3.7917 11.6139 7.77517
75 2 1.96 6.26081 10.6996 0.0561855
39 2 2.05385 3.81104 6.57196 0.0479456
45 2 2.0235 3.85767 6.45907 10.6928
243 1 -0.94023 5.80396 12.2295 11.2236
48 2 1.92708 1.43829 10.7226 15.8648
54 2 2.11783 1.34264 10.8175 10.751
72 2 1.90379 8.58744 6.53769 10.4957
77 2 2.00349 3.64386 10.4639 8.8783
79 2 1.97167 7.19002 8.50255 12.3591
80 2 1.95244 3.82158 10.3744 14.1015
81 2 1.89995 6.23155 10.7724 10.5848
164 1 -1.04555 3.19923 7.77904 11.2364
171 1 -1.02086 0.771003 12.2411 11.2847
195 1 -0.976 10.1122 6.37334 15.2871
201 1 -0.976134 5.27599 6.7581 10.0614
210 1 -0.968956 5.22477 6.75044 15.251
211 1 -0.954511 10.0818 6.74354 9.97001
220 1 -0.971355 7.68518 10.9996 15.2828
225 1 -0.984795 8.01017 9.03605 8.16933
226 1 -1.03437 3.18939 9.04265 8.27701
228 1 -1.05927 2.71748 10.9591 10.0499
233 1 -1.00967 6.27713 7.35018 12.9568
234 1 -0.958325 7.99488 7.90839 11.098
235 1 -1.00099 8.16681 8.95902 13.5367
236 1 -1.02268 3.28167 9.00547 13.5446
237 1 -0.944397 5.24597 10.2461 14.8902
238 1 -0.986883 3.99082 11.4699 12.982
239 1 -0.967371 2.80508 11.0769 15.1746
240 1 -0.969047 7.67008 10.845 9.87139
241 1 -0.917916 5.13485 10.272 9.45448
242 1 -0.991054 6.29979 9.66078 11.7038
66 2 1.98347 8.57081 6.41151 15.8781
26 2 1.92207 8.63373 10.36 14.1597
61 2 1.93352 4.86939 12.712 12.4169
ITEM: TIMESTEP
200
ITEM: NUMBER OF ATOMS
243
ITEM: BOX BOUNDS xy xz yz pp pp pp
-7.3456000000000001e+00 1.4691300000000000e+01 -7.3456000000000001e+00
0.0000000000000000e+00 1.2723000000000001e+01 0.0000000000000000e+00
0.0000000000000000e+00 1.5984384133333334e+01 0.0000000000000000e+00
ITEM: ATOMS id type q x y z
135 1 -1.00224 3.72142 3.12373 7.7775
139 1 -0.920238 2.81068 5.97375 4.11109
132 1 -0.932367 0.777771 4.83546 2.9495
6 2 2.08658 1.28089 2.34166 5.3599
10 2 1.92112 -0.140608 4.22432 1.80409
13 2 1.93951 -0.100272 4.27834 7.14904
134 1 -0.923519 3.94821 5.42935 1.23242
29 2 1.88181 3.71644 2.01152 3.52042
140 1 -0.994835 3.79489 5.47564 6.45004
37 2 1.85494 4.85122 4.22953 1.82997
38 2 1.83986 1.31951 6.24718 3.55821
120 1 -1.02877 6.25408 1.01682 1.1601
82 1 -0.96325 1.35926 1.18265 1.2443
83 1 -1.04783 0.294627 1.77781 4.25413
84 1 -1.01743 1.47795 1.24388 6.47426
88 1 -0.971855 -0.974495 3.00917 2.45775
89 1 -0.955621 0.788445 3.72539 0.658001
90 1 -0.952777 -1.1245 5.42443 1.19043
91 1 -1.00824 -0.910031 3.01795 7.70339
92 1 -1.03397 0.819252 3.67181 5.96556
93 1 -1.00373 -2.02319 5.98759 4.13903
94 1 -0.981883 -0.979169 5.48777 6.58438
118 1 -0.946382 3.15725 0.575238 2.9383
119 1 -0.970107 2.75685 2.48565 4.69009
124 1 -0.938211 6.23196 1.12448 6.43099
123 1 -0.944297 5.17563 1.70302 4.0309
3 2 1.89113 1.27013 2.26076 0.0675078
130 1 -0.896866 3.72955 3.10993 2.32232
40 2 1.97531 4.58596 4.26562 7.16796
11 2 1.99719 -3.46328 6.22167 3.54439
4 2 1.9616 2.35186 0.105845 7.18918
31 2 2.02564 7.14725 0.0216353 7.12509
146 1 -0.930662 2.69558 5.908 9.49825
9 2 1.94311 1.30364 2.30518 10.7409
16 2 1.98324 -0.205367 4.31989 12.5987
32 2 1.95208 3.77427 2.04144 8.94385
147 1 -0.969499 3.83931 5.40643 11.7277
35 2 1.9811 3.6582 1.89515 14.091
41 2 1.88728 1.23779 6.23961 8.89344
43 2 1.94473 4.69998 4.22571 12.362
14 2 2.0889 -3.60784 6.30137 8.82382
85 1 -0.975118 0.365713 1.70475 14.899
86 1 -1.01334 0.334764 1.81341 9.53935
87 1 -0.992107 1.46829 1.13218 11.7952
95 1 -1.00013 -1.03231 3.1453 13.3073
96 1 -0.971653 0.688665 3.58438 11.484
97 1 -0.995642 -2.21423 5.88471 14.8517
98 1 -0.981325 -2.13428 6.10099 9.46382
99 1 -1.00935 -1.0434 5.45645 11.8699
121 1 -1.01056 3.13247 0.685219 8.40219
122 1 -0.930777 2.85927 2.51599 10.2304
125 1 -1.02293 3.12874 0.534034 13.4987
126 1 -0.967352 5.15527 1.72403 14.7479
127 1 -0.931789 2.75605 2.36873 15.3161
128 1 -0.993166 5.26682 1.83746 9.38213
129 1 -0.958047 6.34584 1.11977 11.755
137 1 -0.955357 0.774618 4.79771 8.39895
141 1 -0.993361 3.86135 3.0223 12.992
143 1 -0.976542 0.796702 4.85235 13.7212
144 1 -0.952906 2.71309 6.04439 15.002
5 2 2.03031 -1.04998 1.93693 8.84627
44 2 1.93355 1.2729 6.24754 14.3299
161 1 -0.924347 1.27157 9.67414 6.5548
160 1 -1.02456 0.361113 10.1892 4.23568
19 2 1.9927 -2.6076 8.53145 1.73897
15 2 1.90553 -1.04957 6.49667 5.32889
22 2 2.1534 -2.59286 8.5583 7.01557
24 2 2.01758 -3.61679 10.8305 5.34931
46 2 1.91428 2.35863 8.44586 1.84675
47 2 2.05381 -1.08436 10.4038 3.62591
49 2 1.87827 2.23831 8.48079 7.13329
100 1 -0.990345 -3.48463 7.3945 2.41263
101 1 -0.976668 -1.8228 7.90284 0.523807
102 1 -0.960282 -6.13433 11.57 2.39131
103 1 -0.971881 -3.41637 9.76703 1.13517
104 1 -1.02728 -4.26042 12.0437 0.641423
105 1 -1.07793 -3.38552 7.47185 7.80434
106 1 -0.986872 -1.77 7.87225 5.85388
107 1 -0.963936 -5.95006 11.5873 7.66739
108 1 -0.981701 -4.65865 10.4441 4.15298
109 1 -1.05035 -3.51454 9.6368 6.38376
110 1 -0.981308 -3.95386 12.162 6.13016
133 1 -0.945658 0.418758 6.77453 4.83276
148 1 -0.956222 1.34476 7.32605 2.39392
150 1 -0.991468 -1.5788 9.0997 2.82903
151 1 -1.04918 -0.970523 11.6093 2.58295
152 1 -1.02045 -2.14721 10.811 4.71631
153 1 -0.891613 1.48859 9.62706 1.10347
155 1 -0.974056 1.36464 7.23567 7.67708
158 1 -0.976372 -1.16201 11.772 7.89615
28 2 2.16116 -0.171679 12.6794 1.79938
12 2 1.99496 -1.30415 6.46564 0.00515821
1 2 1.98175 -5.10005 12.6742 1.7955
157 1 -1.01223 -1.57272 9.29453 7.98246
18 2 1.93356 -1.13675 6.53091 10.6634
25 2 2.0015 -2.69963 8.47692 12.4553
27 2 2.02369 -3.67325 10.594 10.5538
50 2 1.97731 -1.08665 10.5111 8.9022
52 2 2.04715 2.17912 8.51061 12.459
53 2 1.80986 -1.18922 10.4504 14.1425
111 1 -0.975283 -3.58567 7.29138 13.0442
112 1 -0.979448 -1.78849 7.87837 11.2929
113 1 -0.965962 -4.51108 10.261 14.6988
114 1 -0.945395 -6.07274 11.5733 13.0806
115 1 -0.991283 -4.56412 10.0445 9.38243
116 1 -0.988667 -3.57583 9.65115 11.8521
117 1 -1.0488 -4.1989 11.9321 11.1875
138 1 -1.00052 0.30627 6.77841 10.1098
145 1 -0.945176 0.189369 6.6778 15.4435
34 2 1.81192 -0.158361 12.6505 12.4571
159 1 -0.993732 -2.151 10.6268 10.0806
163 1 -0.995994 1.30483 7.39912 13.184
165 1 -0.935947 -1.826 9.01623 13.6575
166 1 -0.91347 0.28918 10.2043 14.8061
167 1 -0.924674 -1.11336 11.3567 12.8265
168 1 -0.957744 -2.06312 11.0745 15.3685
169 1 -0.9981 0.412164 10.4801 9.50707
170 1 -1.04339 1.41292 9.71163 11.8949
7 2 2.0181 -5.05291 12.619 12.3198
21 2 1.94073 -3.55382 10.8309 15.8988
196 1 -1.07875 8.70756 5.44026 1.05101
204 1 -0.9743 8.76136 5.6406 6.5035
203 1 -1.00537 7.67404 6.05076 4.23473
57 2 2.04383 11.0049 2.2171 0.050044
198 1 -0.983077 10.4836 3.69163 5.80015
56 2 2.05368 8.67913 1.9644 3.48074
197 1 -0.958553 8.74443 3.30367 7.75969
193 1 -0.980172 5.71334 4.82385 3.03163
60 2 2.03181 11.0958 2.29526 5.30467
64 2 2.08747 9.56789 4.36341 1.756
58 2 1.94689 12.0332 0.0788375 7.03878
67 2 1.93259 9.64682 4.39757 7.01934
131 1 -0.96194 5.76982 3.48139 0.717016
136 1 -0.906997 5.46147 3.50639 6.01206
172 1 -1.01761 12.936 0.566584 2.94683
173 1 -1.05933 8.08754 0.637994 2.87483
174 1 -0.960682 7.59377 2.44359 4.58201
176 1 -1.02487 11.0586 1.17332 1.21232
180 1 -1.0504 12.5419 2.41123 4.6754
181 1 -1.03492 10.098 1.82251 4.18338
182 1 -1.023 11.1763 1.2933 6.54267
190 1 -1.02375 8.79783 3.17201 2.45152
191 1 -0.993403 10.3399 3.54074 0.542361
192 1 -1.0244 10.6578 4.95972 2.69396
65 2 1.95985 6.21241 6.21459 3.57261
33 2 1.85835 6.13883 2.22709 5.23704
2 2 2.05978 13.5551 1.86562 3.61436
55 2 1.98173 12.03 0.0121248 1.76501
36 2 1.9551 6.19135 2.23959 10.6189
213 1 -0.956966 8.89122 5.43179 11.8237
212 1 -0.975608 7.5058 6.09954 9.56642
209 1 -0.977984 7.73266 5.92362 14.7107
68 2 1.92891 6.13086 6.28347 8.71293
59 2 1.91411 8.731 2.06867 8.81482
208 1 -1.00427 5.57729 4.85459 13.5707
62 2 1.99741 8.62664 1.87237 14.2123
63 2 1.92768 11.1146 2.26064 10.622
71 2 1.96127 6.26375 6.13033 14.1515
70 2 1.97775 9.58522 4.10836 12.385
207 1 -1.01587 10.4523 4.69693 13.5267
142 1 -0.979051 5.64519 3.60974 11.172
175 1 -0.999451 12.5166 2.4021 15.4408
177 1 -0.970599 13.0891 0.5574 8.17581
178 1 -0.967134 8.08154 0.736917 8.21194
179 1 -0.919071 7.70532 2.35746 10.0481
183 1 -0.978383 12.9592 0.640122 13.6073
184 1 -0.965795 8.00148 0.486506 13.7474
185 1 -1.00942 10.0695 1.69419 14.8751
186 1 -0.999202 7.58439 2.29181 15.319
187 1 -0.977333 12.584 2.41351 9.93455
188 1 -0.958749 10.1941 1.78411 9.41145
189 1 -0.998047 11.2245 1.16161 11.7785
199 1 -1.0069 10.6392 4.94752 8.10595
200 1 -0.971607 5.63703 4.8383 8.23356
205 1 -1.01755 8.74649 2.88387 12.9481
206 1 -0.974036 10.5089 3.65037 11.1149
8 2 1.97299 13.5521 1.94289 14.3123
17 2 1.96608 11.0346 6.07682 14.1149
30 2 1.98136 6.13823 2.13555 15.9469
61 2 1.97807 12.1521 0.00580991 12.3521
232 1 -0.982691 5.40161 12.1818 5.78932
229 1 -0.94779 7.6474 10.9831 4.71536
42 2 1.95625 3.75872 6.55764 5.3233
20 2 1.94768 8.57592 10.433 3.49464
51 2 1.96983 1.32375 10.7506 5.3586
230 1 -0.908144 5.31851 10.2952 4.04715
69 2 1.97998 8.69032 6.64993 5.24818
73 2 1.92162 7.23751 8.3917 1.68901
74 2 1.89068 3.75696 10.5058 3.63394
231 1 -0.955897 6.19611 9.60066 6.35576
76 2 1.8955 7.23482 8.56345 6.98042
78 2 1.85825 6.17771 10.8068 5.29786
149 1 -0.971021 3.33129 7.87718 0.702215
154 1 -0.977276 0.82666 12.0938 0.712827
156 1 -0.968464 3.11138 7.89134 5.89038
162 1 -1.02584 0.729941 12.0625 6.04535
194 1 -0.980365 5.27509 6.61897 4.79861
202 1 -1.01818 10.2042 6.66389 4.64578
214 1 -0.966465 6.32625 7.19501 2.29649
215 1 -0.996798 8.11183 7.86439 0.451063
216 1 -0.991491 8.11557 9.03774 2.87018
217 1 -0.950662 3.24095 9.0829 2.98691
218 1 -0.944086 3.83935 11.5399 2.37732
219 1 -1.01715 2.83087 10.901 4.83246
221 1 -0.935593 6.24527 9.55039 1.19984
222 1 -0.979684 5.60568 12.0257 0.647469
223 1 -0.938836 6.31766 7.3158 7.54987
224 1 -0.999814 8.18172 8.04773 5.77592
227 1 -0.924596 3.76489 11.5988 7.66211
75 2 1.93541 6.14959 10.6572 0.0364186
39 2 1.91925 3.85534 6.54161 0.0695561
45 2 1.85525 3.65391 6.55123 10.604
243 1 -0.981183 5.80648 12.2167 11.1582
48 2 1.86392 1.34719 10.7449 15.897
54 2 1.97191 1.44084 10.7907 10.7117
72 2 2.02381 8.60615 6.52662 10.6105
77 2 1.84722 3.73186 10.4919 8.85043
79 2 2.05012 7.12482 8.53387 12.426
80 2 1.97038 3.8438 10.4418 14.1038
81 2 1.94109 6.27894 10.8225 10.6055
164 1 -0.992994 3.03474 7.91164 11.2469
171 1 -0.917401 0.981414 12.1505 11.4107
195 1 -1.01622 10.1708 6.63914 15.3052
201 1 -0.909131 5.04038 6.86731 9.79469
210 1 -0.955682 5.36076 6.62222 15.405
211 1 -1.04733 9.99696 6.67476 9.88048
220 1 -0.90673 7.67438 10.7744 15.4107
225 1 -0.967884 7.96177 9.04589 8.29391
226 1 -0.969491 3.12754 9.11699 8.29576
228 1 -0.979302 2.89819 10.9725 10.1411
233 1 -0.995052 6.34053 7.24604 12.9702
234 1 -0.980686 8.06617 7.84932 11.3339
235 1 -0.990392 8.05255 9.03093 13.5979
236 1 -0.997523 3.15011 9.07501 13.5852
237 1 -0.998941 5.25303 10.204 14.7796
238 1 -1.02712 4.04635 11.4987 12.9428
239 1 -0.937724 2.839 10.9175 15.2926
240 1 -0.956441 7.75518 10.8908 10.0364
241 1 -0.901132 5.29584 10.3296 9.37283
242 1 -1.03409 6.35671 9.71841 11.7832
66 2 2.03061 8.71237 6.49572 15.8832
26 2 1.90564 8.68154 10.389 14.168
23 2 1.84479 8.66364 10.41 8.78609
ITEM: TIMESTEP
300
ITEM: NUMBER OF ATOMS
243
ITEM: BOX BOUNDS xy xz yz pp pp pp
-7.3456000000000001e+00 1.4691300000000000e+01 -7.3456000000000001e+00
0.0000000000000000e+00 1.2723000000000001e+01 0.0000000000000000e+00
0.0000000000000000e+00 1.5995026200000000e+01 0.0000000000000000e+00
ITEM: ATOMS id type q x y z
135 1 -1.03492 3.85951 3.07637 7.74063
139 1 -1.02217 2.71949 6.06542 4.1885
132 1 -0.983436 0.672763 4.96684 2.82544
6 2 1.90013 1.31364 2.27726 5.37589
10 2 1.9556 -0.265176 4.21 1.7518
13 2 1.94914 -0.215831 4.2284 7.03062
134 1 -0.960049 3.8718 5.41803 1.24349
29 2 1.81085 3.77974 1.83526 3.61177
140 1 -1.00855 3.77902 5.47152 6.44262
37 2 1.99468 4.774 4.21557 1.84763
38 2 2.07147 1.30518 6.25813 3.54922
120 1 -1.03008 6.36744 1.22907 1.19428
82 1 -1.04587 1.39433 1.15892 1.25113