ITEM: TIMESTEP
0
ITEM: NUMBER OF ATOMS
243
ITEM: BOX BOUNDS xy xz yz pp pp pp
-7.3456000000000001e+00 1.4691300000000000e+01 -7.3456000000000001e+00
0.0000000000000000e+00 1.2723000000000001e+01 0.0000000000000000e+00
0.0000000000000000e+00 1.5963100000000001e+01 0.0000000000000000e+00
ITEM: ATOMS id type x y z
135 1 3.77085 3.02103 7.74974
139 1 2.7791 6.06891 4.21256
132 1 0.599342 4.86252 3.0137
6 2 1.18788 2.30558 5.3735
10 2 -0.342492 4.24886 1.89717
13 2 -0.0563734 4.3795 7.2085
134 1 3.84704 5.49731 1.29941
29 2 3.78369 1.97764 3.57205
140 1 3.76893 5.34116 6.42531
37 2 4.75443 4.26335 1.85865
38 2 1.31023 6.26574 3.51364
120 1 6.2621 1.03915 1.09868
82 1 1.23814 1.13497 1.19043
83 1 0.423388 1.86751 4.05868
84 1 1.20008 1.23186 6.61107
88 1 -1.29022 3.12038 2.60445
89 1 0.504342 3.57273 0.669155
90 1 -1.17899 5.34982 1.16847
91 1 -1.14587 3.35524 7.8062
92 1 0.663067 3.68751 5.99398
93 1 -2.13031 6.05956 4.22267
94 1 -0.886931 5.5246 6.43728
118 1 3.30006 0.647454 2.85001
119 1 2.6895 2.43893 4.78775
31 2 7.10836 0.0354425 7.03558
123 1 5.2615 1.79468 4.07054
124 1 6.19011 1.14349 6.3107
130 1 3.82784 3.11406 2.42186
40 2 4.6297 4.15765 7.04216
146 1 2.96437 6.03663 9.45854
9 2 1.3951 2.35026 10.7261
16 2 -0.040861 4.30228 12.4417
32 2 3.74667 1.87079 8.86828
147 1 3.73718 5.4388 11.909
35 2 3.64241 1.984 14.2314
41 2 1.47005 6.28042 8.93614
43 2 4.62835 4.21918 12.3945
44 2 1.27364 6.23891 14.4433
85 1 0.311753 1.64173 14.6865
86 1 0.348019 1.99666 9.55204
87 1 1.27058 1.25201 11.8869
95 1 -0.926775 3.07571 12.8696
96 1 0.98019 3.77611 11.323
97 1 -2.10438 5.99449 14.8013
98 1 -2.07607 5.90907 9.63223
99 1 -0.943058 5.46888 11.815
121 1 3.03296 0.578547 8.2219
122 1 2.87496 2.33094 10.0943
125 1 3.18603 0.590758 13.6062
126 1 5.10446 1.8894 14.7864
127 1 2.62356 2.53898 15.3214
128 1 5.31333 1.66592 9.30438
129 1 6.35676 1.28191 11.6996
137 1 0.841093 4.86976 8.45043
141 1 3.63402 3.0286 13.0193
143 1 0.644372 4.96475 13.7176
144 1 2.67747 5.8371 15.071
7 2 2.23278 0.0432596 12.4568
14 2 -3.50221 6.07326 8.92759
17 2 -3.55247 6.25224 14.1497
5 2 -1.13404 2.1526 8.85124
34 2 7.09579 0.0583186 12.4553
8 2 -1.12165 1.99097 14.0838
3 2 1.19691 2.24518 15.9574
161 1 1.25413 9.74902 6.60061
160 1 0.324348 10.1021 4.10771
19 2 -2.71811 8.50719 1.73331
15 2 -1.09813 6.62901 5.32041
22 2 -2.49643 8.47735 7.21775
24 2 -3.59267 10.7215 5.38981
46 2 2.38002 8.47174 1.76543
47 2 -1.1563 10.3589 3.51746
49 2 2.15426 8.50846 7.10293
100 1 -3.56727 7.28122 2.36031
101 1 -1.7146 7.89916 0.657708
102 1 -6.01453 11.5773 2.64037
103 1 -3.60348 9.76413 1.28355
104 1 -4.2281 12.2377 0.574038
105 1 -3.40553 7.29943 7.89159
106 1 -1.65283 7.97388 5.97115
107 1 -6.08675 11.5249 7.66601
108 1 -4.48873 10.0629 4.19864
109 1 -3.45937 9.62944 6.59097
110 1 -4.25506 12.0819 5.86406
133 1 0.407684 6.88978 4.72479
148 1 1.44407 7.38704 2.37526
150 1 -1.77108 8.95544 2.98723
151 1 -1.0058 11.4057 2.34668
152 1 -2.12643 10.9287 4.72802
153 1 1.45273 9.59425 1.17574
155 1 1.23744 7.32393 7.73756
158 1 -1.02971 11.5511 7.68296
1 2 -5.12164 12.6773 1.83126
21 2 -3.53874 10.8325 0.0965374
28 2 -0.135008 12.6277 1.83302
4 2 -5.19769 12.6876 7.00286
12 2 -1.26053 6.51234 0.0481032
18 2 -0.968323 6.55424 10.6409
25 2 -2.48846 8.5144 12.2928
27 2 -3.66503 10.6944 10.5654
50 2 -1.10388 10.5627 8.86316
52 2 2.32678 8.53157 12.5719
53 2 -1.1158 10.4393 14.198
111 1 -3.33503 7.29912 12.9062
112 1 -1.51676 7.9978 11.1689
113 1 -4.48743 10.323 14.7644
114 1 -6.00367 11.5974 13.1215
115 1 -4.61171 10.2547 9.3801
116 1 -3.52854 9.538 11.6177
117 1 -4.21688 12.0212 11.3354
138 1 0.484497 6.88087 10.0563
145 1 0.239733 6.81912 15.5176
157 1 -1.48028 9.1657 8.25709
159 1 -2.19613 10.9588 9.97868
163 1 1.47806 7.35053 13.3129
165 1 -1.65813 9.10748 13.4941
166 1 0.429507 10.1742 14.6895
167 1 -1.09386 11.6072 13.1175
168 1 -2.03426 10.7994 15.4431
169 1 0.293206 10.4817 9.68231
170 1 1.46817 9.73014 11.8956
196 1 8.65935 5.38409 1.09588
204 1 8.62126 5.35307 6.41323
203 1 7.72866 5.99594 4.00637
33 2 6.25948 2.29671 5.20997
198 1 10.4281 3.60958 5.84344
56 2 8.66182 1.96492 3.48579
197 1 8.63863 3.07377 7.5719
193 1 5.6774 4.81739 3.02044
60 2 11.0508 2.21191 5.23895
64 2 9.61264 4.24975 1.77435
65 2 6.21068 6.25847 3.56792
67 2 9.57726 4.22941 7.04317
131 1 5.61743 3.6778 0.637141
136 1 5.49669 3.63914 5.78729
172 1 13.0513 0.600129 3.05681
173 1 8.07051 0.584356 2.9913
174 1 7.76894 2.50199 4.69589
176 1 11.3666 1.15058 1.14269
180 1 12.6243 2.41539 4.9025
181 1 10.1831 1.77245 3.98939
182 1 11.0601 0.999933 6.26643
190 1 8.66483 3.06013 2.34034
191 1 10.5123 3.60284 0.602798
192 1 10.5932 4.77315 2.91605
2 2 13.5161 1.94597 3.68031
58 2 12.1329 0.0436974 7.00558
11 2 11.0979 6.21253 3.53381
30 2 6.17717 2.23621 0.0419636
36 2 6.16209 2.27519 10.5348
213 1 8.61154 5.2609 11.7142
212 1 7.72786 5.94241 9.35077
209 1 7.76519 6.01409 14.6486
71 2 6.19393 6.13856 14.1334
59 2 8.55596 2.06856 8.78866
208 1 5.64667 4.76126 13.4737
62 2 8.64042 1.92575 14.2072
63 2 11.0375 2.26992 10.5795
68 2 6.22877 6.13868 8.84254
70 2 9.57742 4.19009 12.3974
207 1 10.5395 4.91734 13.4902
142 1 5.50649 3.59704 11.1874
175 1 12.6297 2.59856 15.2269
177 1 13.0978 0.858315 8.02514
178 1 7.9649 0.719307 8.19803
179 1 7.5431 2.68304 9.85297
183 1 12.9183 0.690246 13.4819
184 1 7.9314 0.60402 13.6992
185 1 10.1832 1.7127 14.7163
186 1 7.67475 2.48323 15.3906
187 1 12.4424 2.46215 9.9321
188 1 9.96132 1.94693 9.52808
189 1 11.1732 1.2235 11.7455
199 1 10.5786 4.80811 8.10257
200 1 5.60401 4.88052 8.1254
205 1 8.67317 2.97761 12.9749
206 1 10.577 3.58849 11.313
57 2 11.2168 2.26798 15.8724
232 1 5.76124 12.136 5.91287
229 1 7.86889 10.7809 4.85612
42 2 3.80219 6.58307 5.37315
39 2 3.80028 6.44859 0.022982
51 2 1.2487 10.6982 5.31267
230 1 5.35628 10.3958 4.04036
69 2 8.65419 6.50088 5.26328
73 2 7.09927 8.47154 1.75931
74 2 3.85292 10.4292 3.53308
231 1 6.3155 9.60094 6.43659
76 2 7.10078 8.38437 7.05407
78 2 6.30718 10.7795 5.28288
149 1 3.22471 7.88888 0.490121
154 1 0.681416 12.0739 0.580886
156 1 3.23368 7.83781 6.05492
162 1 0.762174 12.1223 5.90493
194 1 5.26731 6.7321 4.77915
202 1 10.1177 6.6154 4.72139
214 1 6.17603 7.31125 2.37678
215 1 7.96482 7.8605 0.549546
216 1 8.05067 8.97566 2.91718
217 1 3.40535 9.12154 2.78343
218 1 3.87678 11.6275 2.48648
219 1 2.82124 10.8064 4.73002
221 1 6.15501 9.55924 1.0386
222 1 5.80629 12.0641 0.714902
223 1 6.19217 7.29349 7.73179
224 1 8.0585 7.85968 5.93995
227 1 3.99426 11.6176 7.81488
20 2 8.73173 10.2914 3.62757
55 2 4.86936 12.7113 1.89483
48 2 1.29858 10.6907 15.9327
243 1 5.56485 12.0822 11.1585
23 2 8.60163 10.4026 8.79913
54 2 1.44568 10.823 10.7157
72 2 8.62445 6.41349 10.5937
77 2 3.78691 10.4328 8.86398
79 2 7.1392 8.39785 12.4447
80 2 3.77803 10.564 14.1616
81 2 6.18763 10.7013 10.6452
164 1 3.19545 7.98657 11.2544
171 1 0.804615 12.0905 11.3916
195 1 10.2142 6.75847 15.343
201 1 5.28288 6.61083 10.0531
210 1 5.19998 6.60527 15.2797
211 1 10.1717 6.60383 10.0988
220 1 7.77096 10.7294 15.4446
225 1 7.9984 8.98212 8.26529
226 1 3.17658 9.16934 8.19172
228 1 2.83119 10.982 9.99034
233 1 6.1813 7.27726 13.0574
234 1 7.95803 7.70833 11.283
235 1 8.10555 9.06628 13.5495
236 1 3.37886 9.07919 13.6561
237 1 5.28973 10.5475 14.6732
238 1 3.68581 11.6426 12.9543
239 1 2.73511 10.9169 15.3418
240 1 7.67365 10.835 10.087
241 1 5.2972 10.1485 9.39374
242 1 6.21696 9.57861 11.847
45 2 3.81653 6.55107 10.7343
66 2 8.66954 6.53711 15.8549
61 2 4.68786 12.6927 12.3332
75 2 6.24644 10.7093 15.9246
26 2 8.6922 10.3887 14.1796
ITEM: TIMESTEP
100
ITEM: NUMBER OF ATOMS
243
ITEM: BOX BOUNDS xy xz yz pp pp pp
-7.3456000000000001e+00 1.4699281550000000e+01 -7.3456000000000001e+00
0.0000000000000000e+00 1.2723000000000001e+01 7.9815500000002260e-03
0.0000000000000000e+00 1.5963100000000001e+01 0.0000000000000000e+00
ITEM: ATOMS id type x y z
135 1 3.84379 2.95857 7.5728
139 1 2.71818 5.92892 4.18015
132 1 0.740441 4.97008 2.79603
6 2 1.33446 2.23347 5.31269
10 2 -0.246273 4.36627 1.72355
13 2 -0.134144 4.33022 7.09712
134 1 3.99516 5.49301 1.25815
29 2 3.78198 1.88206 3.49591
140 1 3.77027 5.46909 6.62235
37 2 4.74769 4.21644 1.86574
38 2 1.32763 6.30101 3.50561
120 1 6.24035 1.12669 1.11931
82 1 1.41231 1.06396 1.14846
83 1 0.32687 1.6811 4.23258
84 1 1.36663 1.16582 6.48538
88 1 -1.00298 3.12662 2.37742
89 1 0.661664 3.584 0.645742
90 1 -1.21103 5.50704 1.15106
91 1 -1.08714 3.30024 7.80778
92 1 0.801954 3.69113 5.98044
93 1 -2.14831 6.12854 4.21822
94 1 -1.00831 5.63488 6.57922
118 1 3.08422 0.607908 2.89385
119 1 2.85719 2.33125 4.75309
2 2 -1.06964 1.94967 3.53465
123 1 5.26885 1.81657 4.06036
124 1 6.34145 1.14083 6.3928
130 1 3.71787 3.15651 2.50089
40 2 4.66961 4.2113 7.14166
11 2 -3.56714 6.22451 3.54409
3 2 1.27529 2.223 0.0652304
146 1 2.87796 6.08889 9.4015
9 2 1.37315 2.29143 10.678
16 2 -0.0268086 4.27836 12.4414
32 2 3.73804 1.95114 8.78677
147 1 3.76506 5.49172 11.9002
35 2 3.63027 2.00816 14.1893
41 2 1.38672 6.30015 8.8746
43 2 4.69625 4.27246 12.3499
14 2 -3.54167 6.25155 8.92338
85 1 0.232352 1.69409 14.9257
86 1 0.372614 1.86643 9.47317
87 1 1.45269 1.11188 11.7633
95 1 -0.87423 3.05702 13.0857
96 1 0.958151 3.64008 11.4028
97 1 -2.15056 5.96317 14.8172
98 1 -2.03279 6.09611 9.46587
99 1 -0.993553 5.37393 11.7494
121 1 3.10929 0.539117 8.2689
122 1 2.73975 2.53664 9.88693
125 1 3.04628 0.588571 13.668
126 1 5.0288 1.81339 14.9611
127 1 2.60988 2.47633 15.2711
128 1 5.17908 1.62737 9.44949
129 1 6.28094 1.25823 11.8674
137 1 0.82829 5.00321 8.13728
141 1 3.8499 3.12883 13.0346
143 1 0.821496 4.99252 13.5757
144 1 2.73601 5.96961 14.9735
34 2 7.12526 0.0254907 12.5046
5 2 -1.09829 2.11948 8.86804
44 2 1.34995 6.35182 14.2735
161 1 1.36561 9.58898 6.48781
160 1 0.312466 10.1887 4.19458
19 2 -2.6666 8.46452 1.79938
15 2 -1.14171 6.6683 5.38982
22 2 -2.60914 8.55773 7.20139
24 2 -3.66622 10.7445 5.35632
46 2 2.38157 8.52726 1.74686
47 2 -1.13003 10.4078 3.59729
49 2 2.38235 8.54338 7.0224
100 1 -3.51186 7.30431 2.39422
101 1 -1.97621 7.89315 0.491291
102 1 -5.78331 11.4102 2.37548
103 1 -3.54948 9.60788 1.25266
104 1 -4.05972 12.0473 0.588784
105 1 -3.46771 7.3485 7.73874
106 1 -1.70471 8.04594 5.97152
107 1 -6.11704 11.5188 7.65925
108 1 -4.60853 10.1232 4.21384
109 1 -3.55341 9.71363 6.5693
110 1 -4.27451 12.0464 5.99278
133 1 0.238591 6.75548 4.57173
148 1 1.53348 7.37093 2.25808
150 1 -1.71594 9.07241 2.92387
151 1 -1.11474 11.5501 2.42568
152 1 -2.19752 10.9496 4.6916
153 1 1.47641 9.74317 1.19734
155 1 1.50635 7.37438 7.64921
158 1 -1.05567 11.513 7.65949
1 2 -5.00706 12.6278 1.72556
21 2 -3.54496 10.6507 0.043406
28 2 -0.282361 12.6839 1.77457
4 2 -5.1502 12.6829 7.11655
31 2 -0.150822 12.6837 7.01807
18 2 -1.04126 6.5788 10.6752
25 2 -2.60367 8.49268 12.4598
27 2 -3.5976 10.7097 10.6041
50 2 -1.0916 10.4854 8.89783
7 2 -5.14677 12.6058 12.5233
53 2 -1.0812 10.563 14.3221
111 1 -3.52223 7.2692 13.0276
112 1 -1.6267 7.93369 11.336
113 1 -4.50391 10.2574 14.8085
114 1 -6.08827 11.5206 13.2171
115 1 -4.58259 10.1829 9.5095
116 1 -3.49382 9.66427 11.7859
117 1 -4.22692 11.9883 11.3427
138 1 0.425804 6.66114 10.066
145 1 0.241273 6.71789 15.4017
157 1 -1.72038 9.10819 8.40192
159 1 -2.1547 11.0355 10.0169
163 1 1.46789 7.48871 13.1025
165 1 -1.72376 9.23653 13.6003
166 1 0.414617 10.289 14.8139
167 1 -1.1098 11.6163 13.1298
168 1 -2.08255 10.9312 15.4984
169 1 0.350827 10.3822 9.57357
170 1 1.43397 9.751 11.9105
23 2 -6.01979 10.4363 8.90287
12 2 -1.27638 6.55187 15.9416
196 1 8.81052 5.38234 0.965502
204 1 8.83118 5.50958 6.57595
203 1 7.68057 5.98349 4.16856
33 2 6.18071 2.24777 5.27701
198 1 10.6201 3.64706 5.92027
56 2 8.6383 1.96917 3.46511
197 1 8.6747 3.07207 7.58111
193 1 5.66188 4.78898 3.05806
60 2 11.0908 2.26522 5.19344
64 2 9.61343 4.2 1.70991
65 2 6.16809 6.17878 3.61333
67 2 9.66656 4.28242 7.13401
131 1 5.6307 3.55696 0.71587
136 1 5.67562 3.64788 5.94529
172 1 12.9282 0.674487 2.88527
173 1 8.02004 0.672312 2.84737
174 1 7.65798 2.44499 4.61459
176 1 11.2476 1.13563 1.04961
180 1 12.581 2.55094 4.61831
181 1 10.075 1.81627 4.05442
182 1 11.165 1.09953 6.25281
190 1 8.73314 3.06397 2.3635
191 1 10.5489 3.61931 0.5868
192 1 10.5324 4.9477 2.84948
58 2 12.0705 0.0463645 7.07878
36 2 6.10772 2.29314 10.5216
213 1 8.75477 5.2749 11.9054
212 1 7.69716 5.81393 9.54047
209 1 7.66061 6.19968 14.7838
71 2 6.20715 6.18547 14.0662
59 2 8.65863 2.0302 8.80643
208 1 5.75984 4.83734 13.386
62 2 8.64108 1.94998 14.1903
63 2 11.0866 2.21728 10.5645
68 2 6.25094 6.08428 9.01314
70 2 9.76001 4.11896 12.3948
207 1 10.4477 4.8175 13.6643
142 1 5.42996 3.74104 10.9653
175 1 12.5374 2.50637 15.2208
177 1 12.9367 0.737865 8.27905
178 1 8.08356 0.682603 8.1706
179 1 7.63317 2.52514 9.96538
183 1 12.9338 0.658084 13.4561
184 1 8.09026 0.495058 13.6662
185 1 10.0375 1.81991 14.9119
186 1 7.53903 2.49442 15.1712
187 1 12.6211 2.41526 10.1729
188 1 10.1422 1.79112 9.34135
189 1 11.1256 1.09965 11.719
199 1 10.5694 4.90596 8.31171
200 1 5.58082 4.82176 8.27131
205 1 8.8463 2.92652 12.925
206 1 10.6014 3.61131 11.215
57 2 11.1727 2.31125 15.9397
8 2 13.5391 1.91736 14.1586
17 2 11.0539 6.21806 14.1938
30 2 6.12994 2.23473 15.9355
232 1 5.76328 12.0762 6.02923
229 1 7.63673 10.8086 4.70536
42 2 3.74186 6.41937 5.34393
39 2 3.74217 6.51024 0.0727324
51 2 1.3618 10.7051 5.30147
230 1 5.20268 10.2878 4.21753
69 2 8.65776 6.50129 5.35824
73 2 7.09643 8.41871 1.7763
74 2 3.79104 10.4324 3.54467
231 1 6.15916 9.5384 6.46793
76 2 7.09535 8.41792 7.16468
78 2 6.17808 10.6717 5.42778
149 1 3.23049 7.90532 0.562852
154 1 0.767297 12.2113 0.678219
156 1 3.10358 7.88063 5.76904
162 1 0.792019 12.1342 5.88725
194 1 5.25343 6.60638 4.81255
202 1 10.0455 6.68256 4.68166
214 1 6.2787 7.2262 2.4369
215 1 8.09231 7.89457 0.705847
216 1 7.93409 9.11035 2.89483
217 1 3.30419 9.13196 2.85465
218 1 3.79821 11.5353 2.40988
219 1 2.79385 10.8645 4.67641
221 1 6.15923 9.48292 1.13369
222 1 5.76196 12.0536 0.67748
223 1 6.41955 7.22258 7.95134
224 1 7.92374 7.75117 5.97448
227 1 3.83496 11.5584 7.63503
20 2 8.68807 10.392 3.53601
55 2 4.71866 12.6425 1.76072
75 2 6.2124 10.6442 0.0400278
48 2 1.38233 10.8429 15.9432
243 1 5.64347 12.077 11.23
26 2 8.68427 10.3228 14.2335
54 2 1.37108 10.8215 10.7258
72 2 8.64829 6.38305 10.7308
77 2 3.70193 10.5118 8.83736
79 2 7.20068 8.43248 12.3727
80 2 3.83609 10.4481 14.2126
81 2 6.20139 10.7623 10.5244
164 1 3.27846 7.94525 11.2199
171 1 0.752597 12.2049 11.334
195 1 10.095 6.85938 15.2774
201 1 5.33504 6.61392 10.2084
210 1 5.14963 6.54279 15.17
211 1 10.1106 6.67058 10.0734
220 1 7.74917 10.7597 15.4416
225 1 8.17164 9.08679 8.15567
226 1 3.21009 9.10992 8.19484
228 1 2.7619 10.9687 9.98363
233 1 6.22242 7.34599 12.9834
234 1 8.14426 7.80724 11.2861
235 1 8.09144 9.00156 13.5383
236 1 3.38811 9.11209 13.5426
237 1 5.31076 10.2292 14.7666
238 1 3.84465 11.5149 13.002
239 1 2.85017 11.0292 15.3394
240 1 7.6104 11.0119 9.92283
241 1 5.2098 10.3071 9.36317
242 1 6.34172 9.59649 11.6457
45 2 3.82152 6.52599 10.6352
66 2 8.67266 6.60242 15.9059
61 2 4.69554 12.6899 12.3101
52 2 2.39663 8.59433 12.4135
ITEM: TIMESTEP
200
ITEM: NUMBER OF ATOMS
243
ITEM: BOX BOUNDS xy xz yz pp pp pp
-7.3456000000000001e+00 1.4707263100000000e+01 -7.3456000000000001e+00
0.0000000000000000e+00 1.2723000000000001e+01 1.5963100000000452e-02
0.0000000000000000e+00 1.5963100000000001e+01 0.0000000000000000e+00
ITEM: ATOMS id type x y z
135 1 3.96588 3.04699 7.82259
139 1 2.68332 6.01773 4.16479
132 1 0.779472 4.86263 2.87391
6 2 1.20742 2.17463 5.32328
10 2 -0.0761767 4.26636 1.67307
13 2 -0.218493 4.19932 7.04329
134 1 3.77092 5.43451 1.14087
29 2 3.69673 1.94856 3.57399
140 1 3.87073 5.32051 6.39707
37 2 4.62864 4.25486 1.78274
38 2 1.31617 6.23002 3.49819
120 1 6.3172 1.31008 1.18475
82 1 1.55218 1.21053 1.22019
83 1 0.345193 1.70569 4.03663
84 1 1.33664 1.10933 6.46653
88 1 -0.953154 3.07596 2.24866
89 1 0.727934 3.62495 0.460239
90 1 -0.960296 5.44733 1.0593
91 1 -1.11418 3.06494 7.6312
92 1 0.490732 3.45871 5.7694
93 1 -2.27265 6.03745 4.24149
94 1 -0.972557 5.43337 6.41121
118 1 3.30356 0.529284 2.93882
119 1 2.71925 2.53644 4.68433
2 2 -1.08347 2.00626 3.45888
123 1 5.12222 1.74347 4.2903
124 1 6.33753 1.15635 6.50947
130 1 3.86524 2.92753 2.31946
40 2 4.86034 4.24596 7.19939
31 2 7.20661 0.0234538 7.1501
28 2 7.15061 0.127483 1.78162
4 2 2.36674 0.0512435 7.05017
146 1 2.74954 6.10036 9.52039
9 2 1.32239 2.29349 10.5461
16 2 -0.103281 4.19427 12.3137
32 2 3.80511 1.95549 8.91376
147 1 3.73377 5.38224 11.7769
35 2 3.74401 1.96653 14.1255
41 2 1.266 6.17298 8.90044
43 2 4.69883 4.23319 12.3452
14 2 -3.56056 6.26182 8.85797
85 1 0.260973 1.62188 14.943
86 1 0.278622 1.82625 9.41857
87 1 1.32297 1.16612 11.7105
95 1 -0.937554 3.01206 13.0908
96 1 0.742596 3.66063 11.0967
97 1 -2.11285 5.99919 14.7401
98 1 -2.11397 6.31352 9.46152
99 1 -0.996623 5.34799 11.6725
121 1 3.27232 0.665287 8.20551
122 1 2.86135 2.27147 10.1251
125 1 3.17505 0.583758 13.5537
126 1 5.24843 1.74461 14.7683
127 1 2.73469 2.44641 15.2464
128 1 5.2125 1.65548 9.52888
129 1 6.28783 1.16694 11.7937
137 1 0.742708 4.83686 8.19165
141 1 3.90706 3.08533 13.0258
143 1 0.751133 4.88759 13.4821
144 1 2.72821 6.0868 14.7968
7 2 2.19079 0.0363577 12.3987
44 2 1.28443 6.26881 14.0671
3 2 1.31374 2.2431 15.9078
161 1 1.51048 9.69725 6.42311
160 1 0.283093 10.407 4.16922
19 2 -2.64381 8.50997 1.74295
15 2 -1.18262 6.52921 5.32
22 2 -2.67441 8.512 7.07235
24 2 -3.72221 10.7299 5.32035
46 2 2.34578 8.50208 1.74198
47 2 -1.15736 10.4833 3.5444
49 2 2.31637 8.51756 7.10846
100 1 -3.48837 7.3348 2.4331
101 1 -1.7273 7.8075 0.679593
102 1 -5.96603 11.5466 2.40571
103 1 -3.58018 9.68045 1.17566
104 1 -4.22179 12.1385 0.498573
105 1 -3.52524 7.32808 7.6685
106 1 -1.67691 7.84527 5.98664
107 1 -5.83285 11.5366 7.69248
108 1 -4.69456 10.1359 4.19876
109 1 -3.54381 9.71807 6.52676
110 1 -4.22507 12.1596 5.80617
133 1 0.291108 6.74759 4.62257
148 1 1.37167 7.34417 2.37899
150 1 -1.6598 9.17856 2.81014
151 1 -1.11291 11.7075 2.4648
152 1 -2.22679 10.7586 4.66822
153 1 1.39452 9.74959 1.08987
155 1 1.4409 7.31845 7.77213
158 1 -1.0366 11.5908 7.76766
1 2 -4.97672 12.6727 1.82741
21 2 -3.6079 10.7628 0.0106389
18 2 -1.11124 6.5374 10.6473
25 2 -2.54343 8.4348 12.5474
27 2 -3.54957 10.7469 10.7514
50 2 -1.17447 10.4719 8.92572
26 2 -6.01124 10.444 14.2301
53 2 -1.08075 10.5007 14.1902
111 1 -3.51241 7.29036 13.1425
112 1 -1.50895 7.76589 11.5389
113 1 -4.53827 10.1736 14.8251
114 1 -5.97885 11.5425 13.0561
115 1 -4.51805 10.3505 9.56117
116 1 -3.41313 9.56194 11.8266
117 1 -4.15544 12.1025 11.3437
138 1 0.268095 6.67551 9.95038
145 1 0.308777 6.82455 15.1441
157 1 -1.84909 9.15568 8.24115
159 1 -2.12497 10.9843 10.059
163 1 1.50437 7.31551 12.9137
165 1 -1.60399 9.09353 13.6638
166 1 0.445445 10.2981 14.6373
167 1 -1.13579 11.5737 13.0265
168 1 -2.14796 10.8727 15.368
169 1 0.268062 10.0921 9.49756
170 1 1.45797 9.77985 11.819
12 2 -1.09796 6.52718 15.8753
52 2 2.30449 8.56748 12.3799
34 2 -0.144786 12.7 12.4647
23 2 -5.93593 10.4523 8.90328
196 1 8.81148 5.46519 1.17578
204 1 8.88488 5.38926 6.56101
203 1 7.67425 5.74614 4.37562
33 2 6.18749 2.20986 5.33992
198 1 10.6473 3.66304 5.99331
56 2 8.62906 2.102 3.49263
197 1 8.67321 3.12498 7.75667
193 1 5.61797 4.72498 2.9509
60 2 11.1706 2.35233 5.30543
64 2 9.69417 4.26557 1.80866
65 2 6.28625 5.9718 3.64024
67 2 9.70799 4.19724 7.17658
131 1 5.5496 3.68432 0.577346
136 1 5.75314 3.63833 5.96381
172 1 13.107 0.651328 2.80709
173 1 8.15188 0.699286 2.92294
174 1 7.55845 2.52719 4.62149
176 1 11.067 1.16981 1.1583
180 1 12.5702 2.46714 4.602
181 1 9.98281 2.06134 4.28776
182 1 11.3243 1.30772 6.49029
190 1 8.77339 3.10022 2.23147
191 1 10.7143 3.61661 0.768115
192 1 10.401 4.84621 3.12966
58 2 12.0495 0.0261414 7.08297
55 2 12.0818 0.0665068 1.74672
11 2 10.9846 6.2295 3.61522
57 2 11.0027 2.23859 0.0328092
36 2 6.22637 2.15607 10.6108
213 1 8.86688 5.47938 11.8931
212 1 7.74374 5.7436 9.56828
209 1 7.72529 6.03253 14.6964
71 2 6.27251 6.25866 14.0498
59 2 8.74805 1.94503 8.83507
208 1 5.65024 5.01763 13.387
62 2 8.56975 1.97085 14.1682
63 2 11.1566 2.31676 10.6891
68 2 6.27535 6.12488 9.02212
70 2 9.67396 4.19269 12.4511
207 1 10.5033 4.78333 13.6627
142 1 5.62494 3.56375 11.1373
175 1 12.4427 2.3143 15.3901
177 1 12.9808 0.575353 8.22589
178 1 8.28121 0.577975 8.16554
179 1 7.6615 2.24993 9.96683
183 1 12.9772 0.66009 13.555
184 1 8.16063 0.50157 13.5945
185 1 9.9408 1.80345 14.9169
186 1 7.56316 2.53459 15.2879
187 1 12.6209 2.46813 10.0351
188 1 10.1487 1.97548 9.53079
189 1 11.06 1.08073 11.7126
199 1 10.715 4.85599 8.29957
200 1 5.7128 4.76192 8.39461
205 1 8.79241 2.97664 12.973
206 1 10.6733 3.70709 11.335
17 2 11.0759 6.13701 14.2125
30 2 6.10422 2.31149 15.9271
61 2 12.0802 0.049861 12.3652
8 2 13.5148 1.98021 14.262
5 2 13.5303 2.00022 8.80256
232 1 5.6524 12.0441 6.02926
229 1 7.63531 11.1124 4.81805
42 2 3.71946 6.44881 5.28757
75 2 6.17859 10.6087 0.138298
51 2 1.32259 10.8132 5.27745
230 1 5.13593 10.2241 4.25651
69 2 8.59716 6.46833 5.43621
73 2 7.13523 8.36375 1.90346
74 2 3.75033 10.4718 3.52889
231 1 6.37058 9.65886 6.55622
76 2 7.15393 8.44508 7.20089
78 2 6.17812 10.7064 5.39705
149 1 3.257 7.86522 0.631111
154 1 0.741478 12.161 0.551215
156 1 3.20694 7.8439 5.94872
162 1 0.70363 12.1549 5.91386
194 1 5.19709 6.61376 4.61019
202 1 10.0181 6.86194 4.75575
214 1 6.4426 7.1044 2.54596
215 1 8.03884 7.77764 0.694014
216 1 7.9822 9.07584 3.09906
217 1 3.04356 9.16831 3.00768
218 1 3.89645 11.604 2.41142
219 1 2.69069 10.9873 4.62876
221 1 6.19144 9.54017 1.36842
222 1 5.58926 12.0782 0.598053
223 1 6.38247 7.15343 7.80156
224 1 8.07677 7.86196 6.00023
227 1 3.74494 11.752 7.77847
20 2 8.56762 10.4816 3.59578
39 2 3.78834 6.56172 15.9373
243 1 5.67485 12.1984 11.239
48 2 1.34458 10.8003 15.8555
54 2 1.2598 10.77 10.5759
72 2 8.71681 6.43162 10.6634
77 2 3.75395 10.5681 8.82192
79 2 7.23489 8.50815 12.3427
80 2 3.83141 10.3934 14.1636
81 2 6.28085 10.8306 10.6079
164 1 3.15677 7.87481 11.2616
171 1 0.63462 12.1288 11.1676
195 1 10.1383 6.6385 15.3827
201 1 5.27346 6.65668 10.192
210 1 5.34715 6.67681 15.3079
211 1 10.1103 6.70562 9.97485
220 1 7.72639 10.8286 15.5157
225 1 8.05332 9.04083 8.43718
226 1 3.30413 9.17091 8.14218
228 1 2.71418 10.9022 9.94373
233 1 6.21109 7.41844 12.9344
234 1 8.12101 7.78854 11.2009
235 1 8.10652 9.13757 13.5036
236 1 3.23355 9.11101 13.5438
237 1 5.30617 10.2324 14.8062
238 1 4.02711 11.4517 13.0045
239 1 2.82741 10.9512 15.269
240 1 7.74843 10.9709 10.0211
241 1 5.22839 10.4552 9.47082
242 1 6.35199 9.71729 11.6953
45 2 3.77687 6.53714 10.7064
66 2 8.69295 6.51464 15.9177
ITEM: TIMESTEP
300
ITEM: NUMBER OF ATOMS
243
ITEM: BOX BOUNDS xy xz yz pp pp pp
-7.3456000000000001e+00 1.4715244650000001e+01 -7.3456000000000001e+00
0.0000000000000000e+00 1.2723000000000001e+01 2.3944650000000678e-02
0.0000000000000000e+00 1.5963100000000001e+01 0.0000000000000000e+00
ITEM: ATOMS id type x y z
135 1 3.7688 3.15634 7.96919
139 1 2.73059 6.13767 4.26738
132 1 0.872453 4.69716 2.92389
6 2 1.19879 2.27257 5.21084
10 2 -0.0668043 4.17973 1.69887
13 2 -0.279038 4.18619 7.0851
134 1 3.67877 5.42885 1.15584
29 2 3.75088 1.99146 3.53291
140 1 3.84484 5.46472 6.59631
37 2 4.62878 4.25356 1.70719
38 2 1.36246 6.14683 3.45523
120 1 6.40909 1.29477 1.18113
82 1 1.32111 1.24025 1.14791
83 1 0.24362 1.67141 4.05085
84 1 1.30283 1.11955 6.3411
88 1 -1.05843 3.10656 2.3533
89 1 0.836729 3.6238 0.510889
90 1 -0.827066 5.50648 1.09477
91 1 -1.22142 3.07999 7.70176
92 1 0.703514 3.61121 5.92692
93 1 -2.14618 6.01825 4.19058
94 1 -1.18495 5.32101 6.53008
118 1 3.22677 0.617939 2.90631
119 1 2.68796 2.4375 4.6114
11 2 -3.60411 6.31373 3.61258
123 1 5.10324 1.84499 4.4302
124 1 6.40156 1.28212 6.68999
130 1 3.78283 3.07496 2.38175
40 2 4.67859 4.23644 7.26246
28 2 7.26129 0.101259 1.73939
1 2 2.17113 0.0676073 1.80184
31 2 7.24652 0.0575744 7.19021
4 2 2.2916 0.00411232 6.96266
146 1 2.8069 5.87504 9.39845
9 2 1.3378 2.23159 10.6342
16 2 -0.192235 4.16123 12.3159
32 2 3.90673 1.88671 8.9289
147 1 3.78389 5.41177 11.7556
35 2 3.87327 1.99139 14.1152
41 2 1.33133 6.15476 8.75424
43 2 4.76393 4.3516 12.4123
14 2 -3.5647 6.30006 8.88765
85 1 0.433226 1.61428 14.7948
86 1 0.483059 1.81146 9.31758
87 1 1.25505 1.12884 11.7795
95 1 -1.0008 2.997 13.0839
96 1 0.696687 3.56767 11.1759
97 1 -2.03194 5.97005 14.8008
98 1 -2.07698 6.0764 9.49448
99 1 -1.17948 5.27068 11.7153
121 1 3.23686 0.641664 8.0979
122 1 2.83471 2.25922 10.0939
125 1 3.29711 0.664057 13.4647
126 1 5.26833 1.59391 14.82
127 1 2.94734 2.44035 15.3173
128 1 5.30275 1.67874 9.51809
129 1 6.36003 1.16639 11.9206
137 1 0.719103 4.736 8.22306
141 1 3.98588 3.02453 12.9273
143 1 0.800173 4.83974 13.3781
144 1 2.80905 6.11896 14.6766
8 2 -1.07238 1.92938 14.2518
44 2 1.33461 6.19109 14.0729
3 2 1.39037 2.23305 15.8743
5 2 -1.05067 1.92469 8.82828
161 1 1.338 9.66965 6.41791
160 1 0.337612 10.2921 4.09998
19 2 -2.56304 8.4847 1.67322
15 2 -1.21102 6.48451 5.37996
22 2 -2.72137 8.45676 7.0208
24 2 -3.56886 10.7708 5.24195
46 2 2.2605 8.51155 1.73953
47 2 -1.10674 10.5265 3.42662
49 2 2.26468 8.54315 7.06604
100 1 -3.53337 7.40504 2.38131
101 1 -1.63199 7.91255 0.516992
102 1 -6.15172 11.6681 2.43334
103 1 -3.49562 9.64484 1.04418
104 1 -4.21968 12.0318 0.743337
105 1 -3.62048 7.25106 7.61533
106 1 -1.79625 7.89965 5.8062
107 1 -5.8102 11.5015 7.65203
108 1 -4.53064 10.3372 4.03287
109 1 -3.5769 9.58296 6.32868
110 1 -4.12748 12.0969 5.87825
133 1 0.245005 6.60365 4.61637
148 1 1.34646 7.21543 2.23224
150 1 -1.64908 9.17679 2.79525
151 1 -1.0513 11.7044 2.37946
152 1 -2.07015 11.0541 4.64648
153 1 1.2916 9.48771 0.944785
155 1 1.27453 7.34613 7.66198
158 1 -1.01167 11.5959 7.76191
21 2 -3.59286 10.7972 0.00441351
18 2 -1.06661 6.45703 10.6242
25 2 -2.57768 8.41661 12.4518
27 2 -3.54617 10.7397 10.787
50 2 -1.16253 10.4334 8.85002
23 2 -5.90951 10.469 8.88659
53 2 -1.14384 10.3667 14.2521
111 1 -3.4459 7.19445 12.9997
112 1 -1.66472 7.84413 11.191
113 1 -4.5505 10.4254 14.7576
114 1 -6.09173 11.6622 13.1038
115 1 -4.54953 10.1651 9.67222
116 1 -3.45731 9.62685 11.972
117 1 -4.23678 12.0752 11.2301
138 1 0.403792 6.59079 10.0062
145 1 0.400223 6.71828 15.2069
157 1 -1.79358 9.07791 8.15282
159 1 -2.0653 10.9018 10.0568
163 1 1.40566 7.29542 12.9192
165 1 -1.81816 8.97382 13.7472
166 1 0.336208 10.2475 14.7096
167 1 -1.05228 11.3576 12.9937
168 1 -2.05988 11.0057 15.3652
169 1 0.340322 10.1443 9.40852
170 1 1.34708 9.57365 11.8371
12 2 -1.00135 6.57569 15.9109
52 2 2.35968 8.45357 12.392
34 2 -0.18675 12.6082 12.3585
7 2 -5.13274 12.7136 12.3831
26 2 -5.99902 10.4968 14.166
196 1 8.50366 5.31978 1.12178
204 1 8.78752 5.41241 6.67305
203 1 7.61502 5.76169 4.34991
33 2 6.23452 2.29614 5.44865
198 1 10.6448 3.75694 5.97995
56 2 8.73386 1.90113 3.60081
197 1 8.83553 2.93825 7.58903
193 1 5.57515 4.8439 2.80949
60 2 11.1541 2.3641 5.32621
64 2 9.61735 4.29569 1.82033
65 2 6.27179 6.10448 3.53394
67 2 9.706 4.21849 7.18882
131 1 5.41931 3.58107 0.454344
136 1 5.6127 3.66182 6.09833
172 1 12.9971 0.538533 2.8359
173 1 8.24521 0.537046 2.89485
174 1 7.63037 2.42601 4.6968
176 1 11.145 1.18519 1.2095
180 1 12.5768 2.47032 4.63183
181 1 10.1513 1.81422 4.23424
182 1 11.1591 1.29469 6.50572
190 1 8.76168 3.08549 2.47238
191 1 10.631 3.73774 0.730537
192 1 10.5474 4.921 2.93601
58 2 12.0239 0.0929898 7.0475
57 2 11.1357 2.36444 0.0980606
2 2 13.5352 1.93904 3.43323
36 2 6.31032 2.21834 10.6986
213 1 8.83312 5.48379 11.7541
212 1 7.69298 6.141 9.52408
209 1 7.70268 6.11406 14.8294
71 2 6.24155 6.25915 14.2447
59 2 8.77588 1.99775 8.9147
208 1 5.64345 4.93409 13.5286
62 2 8.6617 1.95372 14.1557
63 2 11.1787 2.35547 10.7573
68 2 6.23609 6.24682 8.80399
70 2 9.64662 4.34143 12.5412
207 1 10.5086 4.82063 13.7695
142 1 5.69893 3.65516 11.3163
175 1 12.6296 2.38121 15.4203
177 1 13.0584 0.615383 8.12835
178 1 8.22708 0.578133 8.34432
179 1 7.80038 2.48589 10.0486
183 1 12.9988 0.482271 13.7106
184 1 8.09531 0.578729 13.5429
185 1 10.103 1.91925 14.9068
186 1 7.69268 2.54885 15.2433
187 1 12.7573 2.39552 10.1261
188 1 10.2209 1.81547 9.61317
189 1 11.1795 1.30162 11.9629
199 1 10.5113 4.78103 8.49866
200 1 5.7743 4.7615 8.25679
205 1 8.70331 3.09069 12.9485
206 1 10.64 3.66852 11.4216
17 2 11.1383 6.16951 14.3391
30 2 6.28368 2.3027 15.8981
61 2 12.0961 0.0456909 12.4253
232 1 5.48427 12.1499 5.85479
229 1 7.59817 10.8842 4.75475
42 2 3.78366 6.4957 5.33677
75 2 6.13668 10.6286 0.0211866
51 2 1.25094 10.7223 5.31208
230 1 5.16439 10.0876 4.30903
69 2 8.58249 6.41049 5.42248
73 2 7.18196 8.44952 1.74795
74 2 3.7069 10.478 3.68071
231 1 6.27872 9.7109 6.66885
76 2 7.17163 8.54645 7.17682
78 2 6.14145 10.7544 5.42247
149 1 3.26693 7.87835 0.715743
154 1 0.665618 12.0762 0.557342
156 1 3.33217 7.88658 5.98491
162 1 0.587797 12.0549 5.89484
194 1 5.28762 6.63037 4.77271
202 1 10.0452 6.77534 4.70871
214 1 6.47423 7.22421 2.42253
215 1 8.14766 7.94967 0.567503
216 1 8.19478 9.11047 2.85487
217 1 3.06875 9.17819 2.96015
218 1 3.86321 11.4364 2.38641
219 1 2.74297 11.0528 4.80416
221 1 6.23082 9.57703 1.18587
222 1 5.60787 12.0504 0.585525
223 1 6.18295 7.52967 7.86341
224 1 7.98009 7.8332 5.96477
227 1 3.86745 11.5598 7.71888
20 2 8.61054 10.4915 3.54107
55 2 4.68204 12.6609 1.7276
66 2 8.70499 6.53732 0.0432174
45 2 3.71428 6.46441 10.599
243 1 5.73317 12.2781 11.2468
48 2 1.31041 10.7799 15.8693
54 2 1.27507 10.6653 10.6533
72 2 8.70058 6.64048 10.6889
77 2 3.78761 10.442 8.90887
79 2 7.08737 8.55965 12.4723
80 2 3.7345 10.4048 14.1659
81 2 6.28423 10.8765 10.6316
164 1 3.25912 7.85451 11.2316
171 1 0.794271 12.1134 11.164
195 1 10.2031 6.74952 15.5089
201 1 5.12463 6.60086 9.85837
210 1 5.22206 6.7415 15.4147
211 1 10.1638 6.78993 10.057
220 1 7.62122 10.8068 15.3836
225 1 8.14704 9.10939 8.28698
226 1 3.19924 9.12664 8.26538
228 1 2.74738 10.9258 10.0473
233 1 6.19489 7.38268 13.0562
234 1 7.9625 7.94462 11.271
235 1 8.16776 9.16105 13.4747
236 1 3.15335 8.98393 13.6673
237 1 5.11903 10.1262 14.9052
238 1 3.897 11.4657 12.9508