ITEM: TIMESTEP
0
ITEM: NUMBER OF ATOMS
243
ITEM: BOX BOUNDS xy xz yz pp pp pp
-7.3456000000000001e+00 1.4691300000000000e+01 -7.3456000000000001e+00
0.0000000000000000e+00 1.2723000000000001e+01 0.0000000000000000e+00
0.0000000000000000e+00 1.5963100000000001e+01 0.0000000000000000e+00
ITEM: ATOMS id type q x y z
37 2 1.99374 4.65215 4.18522 1.81378
134 1 -0.989964 3.77277 5.36169 1.11023
140 1 -0.955109 3.66719 5.36091 6.52991
6 2 2.05877 1.24241 2.20262 5.23736
10 2 1.94925 -0.256357 4.32743 1.85841
13 2 1.9873 -0.0875027 4.22921 7.07343
139 1 -0.996968 2.86251 6.05659 4.13784
29 2 1.90044 3.66223 2.01171 3.5756
135 1 -1.02295 3.77052 3.16609 7.79976
40 2 1.97242 4.68152 4.27721 7.13916
38 2 2.0426 1.39765 6.2369 3.49776
91 1 -1.00515 -1.0067 3.14134 7.81621
82 1 -1.01966 1.30248 1.22648 1.21524
83 1 -1.00435 0.303824 1.80662 4.01784
84 1 -1.04124 1.30208 1.04201 6.29877
88 1 -0.9462 -1.22238 3.23994 2.44186
89 1 -0.965175 0.450961 3.60924 0.575051
90 1 -1.04027 -1.1076 5.56201 1.26403
132 1 -1.00499 0.896668 4.90599 2.82164
92 1 -1.02938 0.773274 3.53078 5.95397
93 1 -1.00577 -2.10636 6.22859 4.04887
94 1 -0.989022 -1.00623 5.34078 6.35619
118 1 -0.948036 3.17055 0.59824 3.00868
119 1 -1.00851 2.71896 2.43669 4.78465
120 1 -0.99584 6.36565 1.10432 0.926172
123 1 -0.93479 5.15267 1.83018 4.18114
124 1 -0.977476 6.29172 1.15681 6.4081
130 1 -0.991293 3.64546 3.0921 2.39104
28 2 1.96953 7.26616 0.0913895 1.73522
1 2 1.9028 2.21066 0.0949276 1.80059
3 2 1.99206 1.26797 2.32237 0.0892791
146 1 -0.95849 2.79647 6.13062 9.49581
9 2 1.9297 1.32611 2.16318 10.6921
16 2 1.93256 -0.0875849 4.24959 12.4512
32 2 2.05823 3.63529 2.02959 8.85704
43 2 2.02588 4.72101 4.10803 12.3677
35 2 1.82168 3.61257 2.11739 14.2383
41 2 1.93356 1.33323 6.28976 8.79579
144 1 -1.02795 2.76186 6.0091 14.8434
147 1 -1.04911 3.94866 5.36924 11.8539
85 1 -1.00655 0.387468 1.7512 14.8415
86 1 -0.958549 0.337185 1.7292 9.41074
87 1 -0.996567 1.34817 1.01999 11.7725
95 1 -0.971465 -1.00417 3.12771 13.1797
96 1 -0.986883 0.819249 3.47975 11.3594
97 1 -1.01519 -2.14033 5.97619 14.9311
98 1 -0.957521 -2.21089 5.92854 9.59559
99 1 -0.957605 -0.986831 5.4261 11.8178
121 1 -1.04486 2.91493 0.719265 8.24922
122 1 -0.995816 2.83442 2.46872 10.1161
125 1 -0.934057 3.07494 0.655738 13.7235
126 1 -0.945138 5.1461 1.98328 14.7897
127 1 -0.963297 2.70625 2.6612 15.481
128 1 -1.0481 5.09864 1.70287 9.35326
129 1 -1.03841 6.40331 1.18208 11.734
137 1 -0.986351 0.823561 4.87588 8.22055
141 1 -0.962759 3.65323 3.07626 12.9413
143 1 -0.991752 0.912953 4.88884 13.5041
44 2 2.05536 1.32968 6.26122 14.1616
17 2 2.04862 -3.54524 6.14555 14.1895
36 2 1.99309 6.0613 2.11327 10.5223
8 2 2.02186 -1.04027 1.92047 14.2498
160 1 -0.999188 0.247663 10.249 4.11877
107 1 -0.970373 -6.14073 11.6008 7.6846
19 2 1.96318 -2.64955 8.45637 1.69703
155 1 -0.967681 1.41562 7.43508 7.62346
22 2 1.96219 -2.42193 8.4751 7.08672
24 2 2.0871 -3.58608 10.6882 5.32364
46 2 1.9336 2.24915 8.43374 1.71548
47 2 1.93805 -1.16979 10.5286 3.45061
161 1 -1.02169 1.4035 9.78804 6.41762
100 1 -0.990447 -3.62995 7.29703 2.2972
101 1 -1.04146 -1.67723 7.88055 0.602479
102 1 -0.928024 -5.92692 11.5291 2.47609
103 1 -0.952523 -3.51998 9.66031 1.08495
104 1 -0.930728 -4.24945 12.172 0.593132
105 1 -0.917662 -3.35046 7.19031 7.56921
106 1 -0.967892 -1.52788 7.89649 5.93089
15 2 1.97721 -1.08016 6.50467 5.22409
108 1 -1.04171 -4.5413 10.212 4.18103
109 1 -1.01575 -3.34645 9.57258 6.45663
110 1 -1.06619 -4.26967 11.9008 6.05991
133 1 -1.01956 0.341625 6.72229 4.57536
148 1 -1.0084 1.37166 7.23683 2.31136
150 1 -0.976532 -1.76443 9.1973 2.81526
151 1 -0.961018 -1.10352 11.7267 2.39731
152 1 -0.961719 -2.19371 11.0297 4.64203
153 1 -0.987544 1.38786 9.59213 1.00176
49 2 1.95038 2.25492 8.66674 7.16196
158 1 -1.00636 -0.819993 11.409 7.57037
4 2 2.10083 -5.17292 12.6973 7.06369
12 2 2.13077 -1.12258 6.52133 0.0701561
31 2 1.90826 -0.0817455 12.7221 7.00411
18 2 1.9238 -1.04734 6.46296 10.5858
25 2 1.89817 -2.52871 8.41595 12.3163
27 2 1.88112 -3.46348 10.8557 10.5807
50 2 2.05501 -1.00805 10.4555 8.81402
52 2 1.97106 2.351 8.50011 12.4676
53 2 1.88704 -1.1993 10.4976 14.146
111 1 -0.982067 -3.32681 7.17351 13.0359
112 1 -0.947316 -1.4546 7.82769 11.2828
113 1 -1.00057 -4.61985 10.2394 14.7598
114 1 -0.956664 -5.90998 11.4886 13.1181
115 1 -0.944932 -4.60542 10.4883 9.51504
116 1 -0.912138 -3.4546 9.52842 11.5693
117 1 -0.978123 -4.04702 12.1546 11.3532
138 1 -1.00612 0.389821 6.7508 9.93389
145 1 -1.02899 0.266817 6.66309 15.2959
157 1 -1.0212 -1.5754 9.03579 8.30465
159 1 -1.00245 -2.02416 11.0558 9.84652
163 1 -1.00431 1.36014 7.39946 13.1013
165 1 -0.944463 -1.84865 9.12811 13.5741
166 1 -0.959254 0.315245 10.5001 14.7926
167 1 -0.973131 -1.15792 11.5667 12.9719
168 1 -0.948714 -2.18721 11.0512 15.2988
169 1 -1.00513 0.339711 10.3242 9.603
170 1 -1.02274 1.38695 9.67723 11.9136
34 2 1.99232 -0.147784 12.7221 12.4305
21 2 1.91459 -3.63836 10.8094 15.9065
7 2 1.9523 -5.02968 12.7117 12.4665
193 1 -0.980373 5.49925 4.83213 2.95524
204 1 -0.952508 8.64474 5.49315 6.46576
196 1 -1.0269 8.8007 5.50152 1.06196
33 2 1.97356 6.14906 2.35923 5.35389
203 1 -0.934345 7.6375 5.99353 4.09324
56 2 1.9903 8.62701 2.07432 3.53232
65 2 1.83991 6.1163 6.1924 3.59431
198 1 -0.988558 10.3556 3.68388 5.71793
60 2 1.9062 11.0268 2.30879 5.33468
64 2 2.06258 9.66506 4.30817 1.67401
197 1 -0.980682 8.54751 3.14759 7.6504
67 2 1.97436 9.54267 4.2679 6.97611
131 1 -0.987038 5.71783 3.57475 0.78361
136 1 -1.0304 5.49285 3.67528 5.90177
172 1 -0.931048 12.9354 0.586666 2.9054
173 1 -0.997444 8.1352 0.737705 2.88896
174 1 -0.995834 7.58335 2.51982 4.67582
176 1 -0.955971 11.0384 1.13708 1.17536
180 1 -0.938929 12.5687 2.45229 4.76032
181 1 -0.94589 10.0952 1.7673 4.16312
182 1 -0.959074 11.156 1.33839 6.58757
190 1 -0.985578 8.79256 3.17247 2.37148
191 1 -0.997806 10.5112 3.52102 0.580907
192 1 -0.987318 10.6177 4.83361 2.78938
11 2 1.96944 11.0907 6.2278 3.47771
58 2 1.89625 12.0278 0.043878 7.09226
2 2 1.86233 13.484 1.99536 3.5357
207 1 -1.00449 10.6544 4.744 13.665
213 1 -1.01378 8.76405 5.25706 11.9357
212 1 -0.936107 7.66273 5.96003 9.67118
209 1 -0.932074 7.59992 5.91013 14.8904
61 2 1.99565 11.994 0.0336614 12.5297
59 2 1.94939 8.5156 2.02116 8.77626
208 1 -0.988673 5.60793 4.62506 13.5963
62 2 1.94751 8.71631 1.84174 14.2112
63 2 1.92206 11.0495 2.23163 10.666
30 2 1.97469 6.25703 2.33905 15.8948
70 2 1.95343 9.77795 4.1915 12.455
14 2 1.93145 11.0813 6.12342 8.79492
142 1 -0.99454 5.5543 3.52336 11.193
175 1 -0.993109 12.631 2.17862 15.4702
177 1 -1.00384 13.0574 0.589909 8.11589
178 1 -0.970134 8.0671 0.57762 8.29249
179 1 -0.943232 7.47041 2.53321 9.8557
183 1 -1.01206 13.0138 0.626861 13.5901
184 1 -1.02608 8.10331 0.532804 13.6278
185 1 -0.985553 10.188 1.56624 14.7784
186 1 -0.975595 7.73769 2.52451 15.2869
187 1 -0.992851 12.476 2.16578 9.94221
188 1 -0.957106 9.93264 1.94575 9.51201
189 1 -0.994768 11.0919 1.10174 11.792
199 1 -1.00731 10.5463 4.83244 7.99549
200 1 -0.976169 5.62369 4.89804 8.29222
205 1 -0.948208 8.92265 3.00897 13.0557
206 1 -0.95411 10.8773 3.67566 11.3958
71 2 1.93524 6.15745 6.0609 14.1658
68 2 1.94469 6.22308 6.21919 8.99034
57 2 1.98865 11.1095 2.15407 15.9452
5 2 2.02737 13.5663 1.92519 8.82065
232 1 -0.91342 5.46149 12.1114 5.81322
230 1 -0.920805 5.13951 10.1479 4.29868
223 1 -0.930725 6.4151 7.26918 7.7995
229 1 -0.961556 7.65866 10.9069 4.67783
51 2 2.00598 1.29855 10.8037 5.21157
227 1 -0.997481 3.68657 11.7329 7.85396
48 2 1.98807 1.35059 10.85 0.0155353
73 2 1.84924 7.18225 8.46995 1.73646
74 2 2.00763 3.72949 10.3805 3.56857
231 1 -0.973554 6.27272 9.65268 6.56857
76 2 1.812 7.25094 8.52107 7.12889
78 2 1.86287 6.23228 10.7059 5.37734
149 1 -0.991106 3.19917 7.78011 0.604652
154 1 -0.997298 1.00817 12.2116 0.754857
156 1 -0.903975 3.164 7.82625 6.05088
162 1 -0.976979 0.835422 12.2153 5.81623
194 1 -0.954412 5.24018 6.7725 4.842
202 1 -0.957325 10.078 6.5364 4.67288
214 1 -0.903561 6.28315 7.27782 2.38094
215 1 -0.992868 8.07921 7.99181 0.459961
216 1 -0.957632 8.05928 9.02006 3.00454
217 1 -0.973028 3.18677 9.00197 2.93498
218 1 -0.987217 3.85269 11.4844 2.42527
219 1 -1.03467 2.73919 10.9747 4.60653
221 1 -0.926208 6.27154 9.68911 1.33523
222 1 -0.974219 5.61362 12.0902 0.655736
42 2 1.90796 3.75875 6.47722 5.38487
224 1 -0.942927 8.2469 7.97462 5.94704
69 2 1.90261 8.58515 6.56955 5.28214
75 2 1.85867 6.22267 10.7423 0.0619517
55 2 1.97781 4.65754 12.681 1.76803
20 2 1.98394 8.70408 10.3694 3.57467
66 2 1.99455 8.6302 6.59593 15.9074
243 1 -0.975355 5.62239 12.0775 11.4145
45 2 2.01795 3.80191 6.44081 10.7243
54 2 2.00301 1.38215 10.7204 10.7733
72 2 1.92155 8.72285 6.39303 10.7976
77 2 2.01586 3.7561 10.5574 8.87481
79 2 2.05482 7.27333 8.43523 12.4152
80 2 1.97478 3.76725 10.428 14.3187
81 2 2.00102 6.17493 10.8093 10.6836
164 1 -1.00293 3.22639 7.78555 11.3632
171 1 -0.969985 0.802841 12.117 11.3228
195 1 -1.00137 10.045 6.76419 15.1661
201 1 -1.00324 5.25879 6.72568 10.159
210 1 -1.01548 5.25706 6.56393 15.3506
211 1 -0.977498 10.1103 6.5423 9.96122
220 1 -1.00565 7.69895 10.9418 15.4077
225 1 -0.905155 8.19967 9.06237 8.34714
226 1 -1.02392 3.21056 9.18225 8.32108
228 1 -0.978122 2.79073 11.0237 10.0802
233 1 -0.98828 6.41207 7.257 13.1086
234 1 -1.00004 8.24053 7.81398 11.3631
235 1 -1.03279 8.16345 9.06887 13.489
236 1 -0.992972 3.25581 9.04579 13.6383
237 1 -0.965982 5.18881 10.11 14.9206
238 1 -0.989193 3.80335 11.5311 13.1382
239 1 -1.02662 2.83009 10.9416 15.4429
240 1 -0.989787 7.57744 11.075 9.99759
241 1 -1.01175 5.15333 10.3067 9.53266
242 1 -0.982476 6.39585 9.66897 11.8094
26 2 2.07585 8.62876 10.3982 14.2498
39 2 2.06652 3.775 6.44462 15.9414
23 2 1.89014 8.59027 10.5443 8.91861
ITEM: TIMESTEP
100
ITEM: NUMBER OF ATOMS
243
ITEM: BOX BOUNDS xy xz yz pp pp pp
-7.3456000000000001e+00 1.4691300000000000e+01 -7.3456000000000001e+00
0.0000000000000000e+00 1.2728876520000000e+01 0.0000000000000000e+00
0.0000000000000000e+00 1.5963100000000001e+01 5.8765199999992745e-03
ITEM: ATOMS id type q x y z
37 2 2.03508 4.70074 4.2403 1.8088
134 1 -1.00769 3.84383 5.40256 1.09985
140 1 -1.0138 3.75587 5.50173 6.61998
6 2 1.97828 1.24906 2.27529 5.27668
10 2 1.95011 -0.232266 4.32563 1.73268
13 2 2.00811 -0.20389 4.23914 7.19721
139 1 -0.955498 2.75913 6.20156 4.10454
29 2 1.82071 3.64212 1.95908 3.55272
135 1 -0.979486 3.79109 3.09357 7.71614
40 2 2.00677 4.63198 4.30314 7.13945
38 2 1.97899 1.32734 6.20494 3.37006
91 1 -1.01877 -1.09342 3.08922 7.83206
82 1 -0.938841 1.24617 1.19323 1.32137
83 1 -0.971862 0.220513 1.98284 4.0608
84 1 -1.01157 1.17189 1.05226 6.28636
88 1 -0.94907 -1.22408 3.20299 2.29448
89 1 -0.980547 0.669689 3.70515 0.54668
90 1 -0.954605 -1.07978 5.64229 1.29651
132 1 -1.02518 0.706351 4.84071 2.86532
92 1 -0.971251 0.641358 3.53755 6.04424
93 1 -0.994099 -2.1127 6.11381 4.21314
94 1 -0.995764 -1.02568 5.38087 6.45426
118 1 -0.937144 3.29734 0.492509 2.87826
119 1 -1.02266 2.68922 2.52742 4.70853
120 1 -0.963319 6.26654 1.18254 1.13946
123 1 -0.919607 5.18659 1.90514 4.11651
124 1 -0.9764 6.1937 1.15659 6.44959
130 1 -0.942184 3.76658 3.00062 2.32616
28 2 2.01255 7.14276 0.0156236 1.7152
1 2 1.89986 2.2435 0.02075 1.76865
3 2 1.9344 1.26489 2.26179 0.0997855
11 2 1.99353 -3.53684 6.2813 3.54327
31 2 1.99734 7.1799 0.000735955 6.96219
4 2 2.00604 2.15224 0.0163942 6.95651
146 1 -0.970164 2.77788 6.0256 9.60482
9 2 2.10701 1.24323 2.19584 10.615
16 2 1.94677 -0.106181 4.19971 12.488
32 2 1.92585 3.6743 1.93895 8.84373
43 2 1.79367 4.68675 4.24952 12.5285
35 2 2.01716 3.70457 2.04717 14.2785
41 2 2.02227 1.32443 6.18853 8.87859
144 1 -0.929507 2.85959 6.10224 14.6809
147 1 -0.979243 3.91677 5.4983 11.8427
85 1 -0.983361 0.312547 1.58902 15.0086
86 1 -1.06574 0.337149 1.70168 9.51228
87 1 -0.999114 1.35487 1.06036 11.7491
95 1 -0.963055 -1.03342 3.1301 13.2235
96 1 -1.05665 0.709945 3.47316 11.3045
97 1 -0.901469 -2.09697 6.02814 14.763
98 1 -0.963622 -2.07783 5.80615 9.47742
99 1 -0.984873 -1.01548 5.37715 11.8632
121 1 -1.00185 3.00428 0.673789 8.13778
122 1 -1.00747 2.74269 2.36657 10.0801
125 1 -0.983522 3.19391 0.697134 13.5763
126 1 -0.956695 5.22904 1.87168 14.7944
127 1 -1.02649 2.7399 2.33028 15.4597
128 1 -0.936192 5.1731 1.62896 9.36553
129 1 -0.917282 6.11114 1.08636 11.6597
137 1 -1.02812 0.90957 4.81862 8.17924
141 1 -0.978751 3.6601 3.22005 13.2334
143 1 -0.960112 0.806056 4.82205 13.649
44 2 1.89478 1.28599 6.24662 14.2476
8 2 1.93899 -1.0864 1.93977 14.3085
34 2 1.88867 7.1234 0.0162848 12.3444
14 2 1.92451 -3.52058 6.17488 8.88949
17 2 1.86875 -3.56911 6.20553 14.1157
160 1 -0.948612 0.336192 10.2736 4.19117
107 1 -1.02196 -6.04614 11.536 7.5446
19 2 1.92362 -2.59483 8.58031 1.68955
155 1 -0.986213 1.51516 7.3605 7.88086
22 2 1.95033 -2.48395 8.54898 7.08291
24 2 2.10464 -3.64646 10.745 5.29418
46 2 2.07679 2.25973 8.50798 1.63204
47 2 1.9072 -1.14996 10.4427 3.52807
161 1 -1.03469 1.56366 9.79132 6.4706
100 1 -0.953786 -3.46202 7.39705 2.41204
101 1 -0.941035 -1.78675 8.01543 0.456288
102 1 -0.992634 -5.96586 11.5591 2.40948
103 1 -0.989338 -3.46659 9.81932 1.18844
104 1 -0.926156 -4.29727 12.2069 0.489069
105 1 -0.916444 -3.4304 7.45448 7.90231
106 1 -0.978573 -1.54754 7.86254 5.99266
15 2 1.99701 -1.01897 6.4967 5.28081
108 1 -1.06868 -4.64753 10.1914 4.25928
109 1 -1.02675 -3.38806 9.68541 6.41034
110 1 -1.02083 -4.167 12.1513 5.87693
133 1 -1.00438 0.40534 6.60377 4.63271
148 1 -0.990917 1.32717 7.31054 2.21668
150 1 -0.961765 -1.66487 9.06243 2.90486
151 1 -0.980848 -1.00277 11.4798 2.32984
152 1 -0.979591 -2.21559 10.961 4.67068
153 1 -1.08512 1.45889 9.69274 1.01789
49 2 1.94554 2.32246 8.51985 7.0474
158 1 -1.028 -0.900466 11.5335 7.63769
12 2 1.82242 -1.10014 6.56057 0.0186296
18 2 1.95252 -1.13518 6.41544 10.6706
25 2 2.04047 -2.57726 8.50021 12.3581
27 2 2.10205 -3.6569 10.7361 10.5641
50 2 1.97896 -1.06084 10.4924 8.87513
52 2 1.94641 2.28195 8.5082 12.4712
53 2 1.95575 -1.12865 10.4901 14.0842
111 1 -0.963846 -3.44452 7.26964 12.9583
112 1 -0.986803 -1.90086 7.71542 11.1605
113 1 -0.997465 -4.48501 10.2938 14.7119
114 1 -1.0047 -5.94189 11.5432 13.0545
115 1 -1.0079 -4.74041 10.4227 9.46049
116 1 -0.980927 -3.52178 9.54905 11.6613
117 1 -1.03065 -4.06816 11.9674 11.4727
138 1 -0.999278 0.28808 6.66243 9.99432
145 1 -0.988663 0.431269 6.68248 15.4839
157 1 -0.946558 -1.51555 9.09528 8.18231
159 1 -1.02989 -2.26074 10.8709 9.87099
163 1 -0.952415 1.35105 7.34889 13.0737
165 1 -1.02135 -1.58207 9.12209 13.4044
166 1 -0.975208 0.353644 10.2723 14.6656
167 1 -0.945065 -1.18614 11.5889 12.9246
168 1 -0.979603 -2.15459 11.0025 15.2071
169 1 -0.976761 0.235133 10.129 9.65334
170 1 -0.970001 1.36949 9.76132 11.9938
7 2 2.05676 -5.03421 12.6852 12.4639
21 2 1.91815 -3.57345 10.8139 15.8887
26 2 1.9508 -6.00096 10.4601 14.2202
193 1 -1.07607 5.41765 4.81722 3.02516
204 1 -1.06345 8.73372 5.42438 6.42286
196 1 -1.04545 8.96595 5.52798 1.26174
33 2 1.98613 6.16029 2.30706 5.33275
203 1 -0.976914 7.63863 6.03202 4.16656
56 2 1.99719 8.59822 2.03324 3.59956
65 2 1.97425 6.14318 6.13112 3.5664
198 1 -1.00854 10.6159 3.75864 5.99263
60 2 1.96779 11.0185 2.34435 5.41302
64 2 2.02422 9.74386 4.279 1.7828
197 1 -0.994379 8.6996 3.01904 7.55892
67 2 2.0114 9.58543 4.28089 7.09386
131 1 -1.01162 5.65947 3.6814 0.693711
136 1 -0.984133 5.67432 3.5852 6.16284
172 1 -0.942903 13.0045 0.66964 2.94202
173 1 -0.997802 7.85801 0.791184 2.91681
174 1 -1.00146 7.56747 2.56973 4.68905
176 1 -0.981106 11.1184 1.21072 1.31725
180 1 -0.962526 12.4409 2.52415 4.65204
181 1 -0.990807 9.97855 1.77643 4.32875
182 1 -0.983687 11.291 1.17373 6.50541
190 1 -1.00731 8.86645 3.17311 2.45203
191 1 -0.98307 10.6662 3.61949 0.681895
192 1 -0.960303 10.7764 4.88642 2.91357
2 2 1.97883 13.4296 2.10877 3.50536
57 2 1.94679 11.1705 2.24963 0.0966322
55 2 1.92848 12.0957 0.00266118 1.80265
58 2 1.94032 12.0834 0.00163317 7.13555
30 2 1.89598 6.2354 2.36238 0.0105684
178 1 -0.867328 8.30123 0.615325 7.97159
207 1 -0.944484 10.5509 4.74806 13.7162
213 1 -0.975732 9.02975 5.38723 11.749
212 1 -0.994443 7.61987 5.92913 9.55343
209 1 -0.903438 7.85975 5.94054 14.7686
36 2 1.87031 6.10908 2.22105 10.5519
59 2 1.84854 8.6954 2.06508 8.81622
208 1 -0.885822 5.98697 4.69679 13.463
62 2 1.9443 8.6235 1.94864 14.2338
63 2 1.97803 11.1252 2.15805 10.6983
68 2 2.05602 6.18302 6.23711 8.92667
70 2 1.86826 9.7062 4.1343 12.5042
5 2 2.01841 13.5395 1.92153 8.91545
142 1 -0.898666 5.48901 3.5467 11.2349
175 1 -0.962174 12.6431 2.47135 15.4924
177 1 -0.991525 13.1177 0.542858 8.18395
71 2 1.82765 6.36623 6.11637 14.1527
179 1 -0.96267 7.60432 2.3426 9.97923
183 1 -1.00948 12.8709 0.747728 13.5464
184 1 -0.975146 7.89088 0.678837 13.6172
185 1 -0.957602 10.0967 1.83353 14.894
186 1 -0.955929 7.71907 2.62212 15.3881
187 1 -1.05881 12.5592 2.24814 10.0859
188 1 -0.968165 10.1528 1.89742 9.42045
189 1 -0.990057 11.0451 0.948197 11.7338
199 1 -1.0415 10.4227 4.96909 8.23336
200 1 -1.00307 5.54896 4.92673 8.30915
205 1 -0.962898 8.78657 2.86482 12.9688
206 1 -0.942164 10.6765 3.55004 11.3126
232 1 -0.884964 5.5899 12.1064 5.84665
230 1 -0.949938 5.16797 10.1093 4.19986
223 1 -1.0278 6.34264 7.35791 7.81752
229 1 -0.991411 7.62446 10.738 4.63453
51 2 2.02484 1.38762 10.8124 5.29899
227 1 -0.956209 3.77744 11.5295 7.70483
75 2 1.9496 6.27951 10.7706 0.0872475
73 2 1.94712 7.17508 8.37451 1.81886
74 2 2.04379 3.73833 10.4102 3.53308
231 1 -0.992581 6.16562 9.5794 6.54798
76 2 2.07196 7.15249 8.49308 7.10256
78 2 1.88155 6.15134 10.6482 5.33983
149 1 -1.02918 3.29843 7.87118 0.659507
154 1 -0.998637 0.691678 12.1169 0.568332
156 1 -0.93584 3.27928 7.98192 5.8765
162 1 -1.00367 0.69086 12.1978 5.78877
194 1 -0.937116 5.25898 6.67094 4.77634
202 1 -0.962865 10.0732 6.82642 4.63535
214 1 -0.999819 6.24262 7.26592 2.45595
215 1 -1.00715 7.86364 7.76789 0.510583
216 1 -1.00855 8.20703 9.08353 2.77922
217 1 -0.997064 3.02828 9.11632 2.87788
218 1 -1.02447 4.02166 11.4852 2.39111
219 1 -1.04112 2.77637 11.0164 4.59375
221 1 -0.923309 6.28317 9.69093 1.26536
222 1 -0.941673 5.76038 12.2173 0.64098
42 2 1.8524 3.74048 6.51865 5.36635
224 1 -0.993238 7.97974 7.87706 5.91083
69 2 1.98641 8.64351 6.49204 5.33517
66 2 1.88027 8.75076 6.55893 0.0770641
20 2 2.08699 8.66958 10.4112 3.51348
48 2 1.97556 1.32859 10.7441 15.8806
243 1 -0.944273 5.60658 11.9516 11.2759
45 2 2.06922 3.81044 6.55116 10.6932
54 2 1.87996 1.31504 10.7162 10.7418
72 2 1.88344 8.69777 6.45425 10.6407
77 2 1.96285 3.72808 10.4307 8.89264
79 2 1.85389 7.24587 8.36709 12.4131
80 2 1.91811 3.8124 10.3831 14.2878
81 2 1.86433 6.18241 10.595 10.647
164 1 -0.987356 3.10743 7.89206 11.2644
171 1 -0.955309 0.762853 12.177 11.2242
195 1 -0.910946 10.1997 6.85531 15.3343
201 1 -1.03534 5.20751 6.79422 10.0279
210 1 -0.954092 5.28711 6.50512 15.2782
211 1 -0.868184 10.1558 6.79342 10.0266
220 1 -0.964985 7.73796 10.9308 15.4533
225 1 -1.00911 8.07498 9.14321 8.21804
226 1 -0.947006 3.17115 9.06628 8.27574
228 1 -0.973481 2.78365 10.8615 10.1163
233 1 -0.953119 6.35797 7.15711 12.9162
234 1 -0.916719 8.21653 7.92079 11.2101
235 1 -0.971068 7.9862 9.15843 13.6167
236 1 -0.965265 3.20967 8.98636 13.6881
237 1 -0.987403 5.30629 10.314 14.8892
238 1 -0.964353 3.90869 11.4808 13.1066
239 1 -1.00423 2.81684 10.9989 15.3331
240 1 -0.972547 7.63078 10.9632 10.0598
241 1 -0.976058 5.19313 10.2712 9.4268
242 1 -0.88956 6.15214 9.3352 11.7319
61 2 1.9748 4.7104 12.671 12.4365
39 2 1.93964 3.81101 6.50212 15.9316
23 2 2.0064 8.51482 10.5627 8.79609
ITEM: TIMESTEP
200
ITEM: NUMBER OF ATOMS
243
ITEM: BOX BOUNDS xy xz yz pp pp pp
-7.3456000000000001e+00 1.4691300000000000e+01 -7.3456000000000001e+00
0.0000000000000000e+00 1.2734753040000001e+01 0.0000000000000000e+00
0.0000000000000000e+00 1.5963100000000001e+01 1.1753040000000325e-02
ITEM: ATOMS id type q x y z
37 2 2.07132 4.70799 4.31147 1.74606
134 1 -1.05997 3.91638 5.51122 1.16745
140 1 -0.951272 3.62874 5.34574 6.38987
6 2 1.97569 1.32543 2.43816 5.22042
10 2 1.96896 -0.158161 4.34502 1.65592
13 2 1.88847 -0.206287 4.23499 7.1924
139 1 -0.951093 2.78132 5.88935 4.09628
29 2 2.02022 3.74006 2.03709 3.53126
135 1 -0.936097 3.68511 3.12842 7.66973
40 2 1.97881 4.59838 4.30874 7.08517
38 2 1.93231 1.29842 6.17936 3.58284
91 1 -0.959477 -1.16001 3.07852 7.84286
82 1 -0.962203 1.36216 1.20255 1.26227
83 1 -0.995106 0.279473 2.00526 4.05161
84 1 -0.949198 1.36918 1.24374 6.31666
88 1 -0.998661 -1.08652 3.18491 2.30065
89 1 -0.969215 0.709587 3.6083 0.512521
90 1 -0.988588 -1.1598 5.42833 1.06366
132 1 -1.01836 0.650867 4.9241 2.87294
92 1 -0.977284 0.708891 3.70866 5.96442
93 1 -0.935958 -2.09004 6.03629 4.33431
94 1 -0.96698 -0.939802 5.5653 6.68862
118 1 -0.952451 3.12679 0.683405 2.96459
119 1 -1.01128 2.77955 2.61648 4.63068
120 1 -1.00659 6.17185 1.16396 1.15059
123 1 -0.979586 5.16109 1.74847 4.24091
124 1 -0.960394 6.28011 1.23551 6.48551
130 1 -1.01745 3.8526 3.11797 2.38308
3 2 1.9731 1.29775 2.17034 0.0101607
28 2 1.92121 7.14814 0.0433005 1.7324
2 2 2.047 -1.158 2.11114 3.42244
146 1 -0.945377 2.80918 5.97181 9.53293
9 2 1.89663 1.35334 2.29571 10.7055
16 2 2.00437 -0.182564 4.21031 12.4392
32 2 1.84583 3.73789 1.94751 8.7919
43 2 1.93573 4.73404 4.29705 12.4712
35 2 1.97172 3.81909 2.04431 14.2109
41 2 1.84496 1.35778 6.12093 8.87751
144 1 -0.942229 2.84257 6.06029 14.8603
147 1 -0.96441 4.02587 5.58809 11.899
85 1 -0.963464 0.2369 1.75257 14.8451
86 1 -0.957438 0.418684 1.76882 9.45865
87 1 -0.949588 1.30653 1.20846 11.9015
95 1 -0.934839 -1.07098 3.02926 13.11
96 1 -1.008 0.696944 3.62505 11.3258
97 1 -0.936506 -2.04862 6.07538 14.811
98 1 -0.935999 -2.11401 5.90808 9.53557
99 1 -0.979939 -1.19109 5.35813 11.9086
121 1 -0.88624 3.17997 0.571744 8.11547
122 1 -0.934203 2.81143 2.45073 10.0578
125 1 -0.944817 3.33174 0.733175 13.3923
126 1 -1.00269 5.3449 1.86756 14.7454
127 1 -1.01814 2.72906 2.31974 15.3396
128 1 -0.955472 5.22618 1.74252 9.30714
129 1 -0.960644 6.23574 1.19187 11.7652
137 1 -0.902498 0.647848 4.69641 8.47191
141 1 -0.986397 3.7958 3.23695 13.189
143 1 -0.949244 0.799849 4.79362 13.5485
44 2 1.89151 1.35482 6.18131 14.2247
5 2 2.00211 -1.08277 1.92636 8.95355
34 2 2.00424 7.14185 0.0504624 12.4682
14 2 1.80158 -3.53194 6.27108 8.90427
7 2 1.89363 2.24383 0.0254718 12.3935
17 2 1.78862 -3.58753 6.22499 14.289
160 1 -0.942433 0.484785 10.1436 4.10729
107 1 -0.940521 -6.08037 11.5645 7.76087
19 2 1.99378 -2.59585 8.6034 1.76802
155 1 -1.00476 1.38436 7.18007 7.6394
22 2 1.82929 -2.64318 8.55977 7.09673
24 2 1.87408 -3.58996 10.7323 5.22467
46 2 2.02155 2.31519 8.47758 1.67473
47 2 1.92534 -1.02393 10.4092 3.5403
161 1 -0.953094 1.41295 9.65509 6.52156
100 1 -0.964108 -3.45333 7.41626 2.37473
101 1 -0.977952 -1.63498 7.95929 0.603892
102 1 -0.946386 -5.91417 11.4736 2.42943
103 1 -1.0195 -3.49013 9.74091 1.15525
104 1 -0.916255 -4.10608 12.1153 0.51199
105 1 -0.932607 -3.42018 7.23136 7.59517
106 1 -0.913454 -1.77831 8.02944 5.80765
15 2 1.90198 -1.11957 6.58622 5.47105
108 1 -0.950162 -4.47709 10.0464 4.08103
109 1 -0.973725 -3.44837 9.80944 6.4919
110 1 -0.94163 -4.28811 12.092 5.80246
133 1 -0.940176 0.301513 6.77097 4.72167
148 1 -0.964857 1.53167 7.28241 2.39155
150 1 -0.984423 -1.5776 9.07312 2.8821
151 1 -0.956061 -1.00924 11.52 2.38729
152 1 -0.948189 -2.06465 10.944 4.59972
153 1 -1.03807 1.39064 9.55808 0.997526
49 2 1.99248 2.21928 8.37852 7.07707
158 1 -0.955404 -0.992833 11.5778 7.81602
4 2 1.85454 -5.19837 12.7063 6.96607
1 2 1.82325 -5.07743 12.6753 1.79724
11 2 1.87062 -3.49468 6.38045 3.60631
31 2 1.84352 -0.161273 12.7095 7.02494
12 2 1.97348 -1.1113 6.60167 15.9426
25 2 1.97222 -2.74085 8.35792 12.2944
27 2 2.00553 -3.71711 10.6922 10.6157
50 2 1.87424 -1.15365 10.4454 8.92557
52 2 1.87536 2.20363 8.60372 12.5093
53 2 1.97731 -1.15546 10.3261 14.1133
111 1 -0.96524 -3.63138 7.23921 12.9578
112 1 -0.991301 -1.75473 7.8166 11.1786
113 1 -1.01061 -4.51668 10.0905 14.8167
114 1 -0.978136 -5.93328 11.622 13.1666
115 1 -0.997744 -4.5613 10.1797 9.37715
116 1 -0.99193 -3.61151 9.61456 11.7833
117 1 -0.984534 -4.35003 12.071 11.1234
138 1 -0.943179 0.309879 6.49912 10.0889
145 1 -1.0024 0.323625 6.7865 15.2455
157 1 -0.926571 -1.62146 9.01938 8.25535
159 1 -0.967368 -2.25458 10.8486 10.0807
163 1 -0.926929 1.42266 7.29624 13.0199
165 1 -0.975103 -1.76555 9.01278 13.4058
166 1 -0.979989 0.315942 10.2746 14.7444
167 1 -0.983182 -0.940482 11.4632 12.9417
168 1 -1.03254 -2.11122 10.8545 15.2305
169 1 -0.938739 0.313076 10.2808 9.57488
170 1 -1.00365 1.3662 9.81718 11.9465
18 2 1.93291 -1.13863 6.40932 10.7053
21 2 1.98445 -3.55892 10.7084 15.8786
193 1 -1.00094 5.71277 4.82907 2.87654
204 1 -1.0244 8.93768 5.44221 6.40891
196 1 -0.955696 8.80321 5.44307 1.29541
33 2 1.99326 6.10313 2.34764 5.38596
203 1 -0.986395 7.71284 5.97926 4.11038
56 2 2.00651 8.5893 1.94679 3.60333
65 2 1.96708 6.2522 6.16888 3.51457
198 1 -1.03459 10.6912 3.62885 6.15802
60 2 2.05952 11.1057 2.34235 5.3612
64 2 1.90781 9.69391 4.31593 1.93427
197 1 -1.0455 8.80007 3.1861 7.81966
67 2 2.08746 9.65562 4.28009 7.16732
131 1 -1.04478 5.62725 3.59734 0.683006
136 1 -1.04101 5.50386 3.70973 5.96575
172 1 -1.03283 12.929 0.729698 2.98162
173 1 -0.994215 8.16862 0.632772 2.83059
174 1 -0.997726 7.5489 2.44635 4.69245
176 1 -0.96488 11.2537 1.14821 1.14619
180 1 -0.987654 12.4824 2.53587 4.61366
181 1 -1.0195 9.9761 1.84409 4.35467
182 1 -0.981085 11.2722 1.13068 6.41921
190 1 -0.947234 8.74819 3.08391 2.45223
191 1 -0.987521 10.5626 3.73237 0.756412
192 1 -0.93682 10.5235 4.99779 3.21447
30 2 2.05959 6.23614 2.29961 0.0405652
57 2 1.93262 10.9356 2.35033 0.0743695
55 2 2.00374 12.1574 0.0124752 1.78074
207 1 -0.951961 10.5506 4.80326 13.7065
213 1 -1.03166 8.79444 5.43984 11.762
212 1 -0.956027 7.61599 6.09921 9.51471
209 1 -0.993931 7.78956 5.80118 14.9185
36 2 1.91562 6.16057 2.23077 10.5304
59 2 1.97787 8.7299 1.97633 8.89359
208 1 -0.978736 5.75923 4.72262 13.6325
62 2 2.02091 8.55908 2.14181 14.1999
63 2 2.01643 11.184 2.18992 10.6955
68 2 1.93326 6.11444 6.24266 8.93396
70 2 1.99669 9.6938 4.35741 12.478
8 2 1.96843 13.4401 1.85821 14.2183
142 1 -0.916018 5.52046 3.57819 11.1932
175 1 -0.922853 12.3845 2.44425 15.2708
177 1 -0.952095 12.9933 0.593125 8.31817
71 2 1.95736 6.38068 6.05605 14.2174
179 1 -0.98084 7.63405 2.40567 9.96243
183 1 -1.00581 12.9003 0.526487 13.5693
184 1 -1.01265 8.03817 0.800423 13.49
185 1 -0.977225 9.95946 1.85484 14.8745
186 1 -1.03239 7.67647 2.51783 15.4832
187 1 -1.04435 12.6653 2.2276 10.164
188 1 -1.00834 10.1497 1.78972 9.53223
189 1 -0.974313 11.0797 0.997802 11.7275
199 1 -0.95481 10.4973 4.89327 8.40613
200 1 -0.978387 5.40413 4.9156 8.35671
205 1 -0.957033 8.64148 3.30532 13.1326
206 1 -0.986714 10.6028 3.48878 11.4884
178 1 -0.906911 8.17486 0.596605 8.18818
232 1 -0.886797 5.66595 11.9976 5.91236
230 1 -0.920571 5.11466 10.1141 4.03854
223 1 -0.97444 6.19796 7.20679 7.68604
229 1 -0.912757 7.67001 10.7968 4.64558
51 2 1.86809 1.31907 10.7814 5.32235
227 1 -0.951249 3.82006 11.5419 7.70781
58 2 1.90499 4.73998 12.6882 7.09406
73 2 1.89598 7.21315 8.42502 1.68866
74 2 1.92334 3.65923 10.5234 3.45985
231 1 -0.987291 6.22245 9.62528 6.50967
76 2 1.9026 7.05374 8.4363 7.06894
78 2 1.81305 6.12159 10.5775 5.2471
149 1 -0.984674 3.35466 7.99914 0.550917
154 1 -0.989908 0.664686 12.0948 0.543512
156 1 -0.94999 3.13795 7.83364 5.89769
162 1 -0.969794 0.725042 12.162 5.75787
194 1 -0.965247 5.29576 6.58895 4.75241
202 1 -0.890926 10.1425 6.96478 4.73647
214 1 -0.976724 6.28467 7.23448 2.32548
215 1 -0.951826 8.2191 7.94907 0.531458
216 1 -0.992859 8.11486 8.99296 2.81149
217 1 -0.97462 3.05168 9.14946 2.89247
218 1 -1.00054 3.84661 11.5858 2.27969
219 1 -0.938276 2.80217 11.0347 4.695
221 1 -0.94372 6.23194 9.63266 1.15194
222 1 -0.985481 5.7614 12.131 0.649002
42 2 1.85259 3.75738 6.46895 5.24186
224 1 -0.943422 7.91795 7.87301 5.77153
69 2 1.91997 8.66129 6.53953 5.25
66 2 1.87944 8.69273 6.46806 0.0792548
20 2 1.90595 8.70145 10.2784 3.51837
48 2 2.02726 1.27021 10.7466 15.9478
243 1 -0.959742 5.70599 12.0815 11.2361
45 2 1.88854 3.7415 6.64426 10.7006
54 2 1.94253 1.31507 10.8218 10.7389
72 2 1.92549 8.70137 6.54726 10.6544
77 2 1.88009 3.74749 10.3873 8.84317
79 2 1.99703 7.12454 8.42549 12.4189
80 2 1.9682 3.78677 10.4325 14.2198
81 2 2.01676 6.22218 10.681 10.5893
164 1 -0.93113 3.09546 7.99791 11.276
171 1 -0.936969 0.80425 12.254 11.3076
195 1 -0.913271 10.233 6.64384 15.5846
201 1 -0.952503 5.21056 6.87459 10.0893
210 1 -0.994733 5.34419 6.70635 15.2994
211 1 -0.928743 10.1831 6.8994 10.1185
220 1 -0.998065 7.75804 10.8588 15.4148
225 1 -1.00254 8.0904 8.94212 8.20413
226 1 -0.952187 3.22352 8.98215 8.13563
228 1 -0.962495 2.74775 10.8271 10.0084
233 1 -1.01678 6.45686 7.17403 13.0575
234 1 -0.953513 8.12065 7.90997 11.255
235 1 -1.00257 8.0582 9.14219 13.5766
236 1 -0.947663 3.27151 9.04631 13.6977
237 1 -0.998163 5.27848 10.3015 14.8077
238 1 -0.995127 3.82632 11.4247 12.9765
239 1 -0.976196 2.74435 10.9432 15.3448
240 1 -0.983236 7.65692 10.7648 9.92474
241 1 -0.984384 5.24469 10.1864 9.5102
242 1 -1.00232 6.28716 9.59484 11.7674
61 2 1.95868 4.68514 12.6212 12.3798
39 2 1.96309 3.92189 6.60359 15.9627
23 2 1.97359 8.6513 10.3012 8.75028
75 2 1.96217 6.25775 10.732 15.9595
26 2 2 8.69479 10.3871 14.2197
ITEM: TIMESTEP
300
ITEM: NUMBER OF ATOMS
243
ITEM: BOX BOUNDS xy xz yz pp pp pp
-7.3456000000000001e+00 1.4691300000000000e+01 -7.3456000000000001e+00
0.0000000000000000e+00 1.2740629560000000e+01 0.0000000000000000e+00
0.0000000000000000e+00 1.5963100000000001e+01 1.7629559999999600e-02
ITEM: ATOMS id type q x y z
37 2 1.96318 4.80722 4.27309 1.76461
134 1 -0.998062 3.9289 5.43926 1.23328
140 1 -1.01353 3.94972 5.45355 6.48805
6 2 2.01853 1.262 2.30251 5.36072
10 2 1.8924 -0.207518 4.23964 1.70107
13 2 1.91157 -0.15525 4.38814 7.13399
139 1 -0.930048 2.71191 5.91407 4.13255
29 2 2.01811 3.66983 2.09699 3.58324
135 1 -0.977954 3.77886 3.07041 7.76651
40 2 1.99762 4.76827 4.21285 7.14374
38 2 1.90164 1.23336 6.23579 3.52797
91 1 -0.922951 -1.01249 3.11981 7.70254