ITEM: TIMESTEP
0
ITEM: NUMBER OF ATOMS
243
ITEM: BOX BOUNDS xy xz yz pp pp pp
-7.3456000000000001e+00 1.4691300000000000e+01 -7.3456000000000001e+00
0.0000000000000000e+00 1.2723000000000001e+01 0.0000000000000000e+00
0.0000000000000000e+00 1.5963100000000001e+01 0.0000000000000000e+00
ITEM: ATOMS id type q x y z
135 1 -1.00811 3.69841 3.06857 7.71816
139 1 -0.991963 2.86062 6.13411 4.12012
132 1 -0.930523 0.762981 4.81706 3.01482
6 2 2.00365 1.26382 2.28531 5.34863
10 2 1.94523 -0.115564 4.25754 1.75924
13 2 1.98567 -0.192167 4.25517 7.18243
134 1 -1.00065 3.93614 5.4729 1.08967
29 2 1.94504 3.68263 1.9697 3.61302
140 1 -1.01422 3.80449 5.45804 6.57539
37 2 1.98796 4.73984 4.22541 1.73516
38 2 1.86965 1.39275 6.24223 3.46845
120 1 -1.03562 6.31884 1.2865 1.06169
82 1 -0.933654 1.27563 1.16386 1.0828
83 1 -0.990324 0.232163 1.96387 4.17978
84 1 -0.955593 1.35509 0.935204 6.25071
88 1 -0.971719 -1.12084 3.16021 2.30417
89 1 -1.01818 0.855517 3.66137 0.632912
90 1 -0.95464 -0.93676 5.5185 1.29895
91 1 -0.986049 -1.16774 3.12268 7.7891
92 1 -1.02104 0.744142 3.57213 6.14585
93 1 -0.958618 -2.19459 6.17289 4.1257
94 1 -0.954641 -1.01054 5.43747 6.32673
118 1 -0.990591 3.05848 0.663739 2.92449
119 1 -1.01729 2.7028 2.48956 4.78118
124 1 -0.989678 6.08555 1.17482 6.60978
123 1 -1.02055 5.14656 1.77046 4.27764
28 2 1.84779 7.22183 0.0970679 1.6771
130 1 -0.984668 3.89902 3.10346 2.47664
40 2 2.05938 4.64571 4.21838 7.15259
1 2 1.94736 2.26466 0.0127165 1.67152
33 2 2.07113 6.03531 2.23731 5.45398
146 1 -0.97906 2.84177 5.94056 9.48519
9 2 1.8464 1.25662 2.18547 10.5854
16 2 1.87199 -0.188643 4.27913 12.4333
32 2 1.94803 3.65695 1.90909 8.8321
147 1 -0.912163 3.75555 5.3749 11.825
35 2 1.98304 3.75253 1.88332 14.1232
41 2 2.05359 1.38433 6.1919 8.90986
43 2 1.98455 4.74232 4.25066 12.4154
14 2 1.8862 -3.45765 6.22336 8.86769
85 1 -0.968586 0.200387 2.06086 14.7464
86 1 -0.952716 0.266378 1.74799 9.41555
87 1 -0.950632 1.27115 1.17719 11.8311
95 1 -0.960564 -1.22021 3.18337 12.9929
96 1 -0.890842 0.716022 3.60657 11.275
97 1 -1.06716 -2.19019 5.93896 14.9898
98 1 -0.97959 -2.00001 6.10635 9.53683
99 1 -0.948659 -1.05188 5.50643 11.8499
121 1 -1.00327 3.21209 0.575068 8.14016
122 1 -0.951344 2.79379 2.35019 10.1101
125 1 -0.980373 3.12645 0.55895 13.568
126 1 -0.991777 5.22908 1.75616 14.7244
127 1 -0.956942 2.87329 2.36503 15.396
128 1 -0.927055 5.13062 1.83161 9.50019
129 1 -0.960264 6.1332 1.1487 11.7518
137 1 -1.02059 0.719657 4.84361 8.30265
141 1 -0.988058 3.89757 3.04275 13.0291
143 1 -0.950875 0.839276 4.75602 13.566
144 1 -1.02456 2.81527 6.10121 14.768
3 2 1.90415 1.30191 2.35195 15.9223
44 2 1.90014 1.40944 6.19984 14.0521
17 2 2.08486 -3.51611 6.13364 14.2384
34 2 1.96277 7.14761 0.0392112 12.3958
161 1 -0.91164 1.35271 9.39038 6.47375
160 1 -0.903927 0.411983 10.2009 4.14549
19 2 1.78142 -2.55314 8.43596 1.71126
15 2 2.00745 -1.08997 6.59973 5.19612
22 2 1.97446 -2.57584 8.43219 7.11791
24 2 1.94318 -3.42192 10.668 5.23636
46 2 1.99564 2.32454 8.49122 1.7678
47 2 1.87097 -1.02595 10.4781 3.45993
49 2 1.94547 2.40806 8.38456 7.15712
100 1 -0.927202 -3.55952 7.34825 2.42485
101 1 -0.92744 -1.51414 7.88174 0.588368
102 1 -0.972212 -5.93711 11.5293 2.19437
103 1 -0.984509 -3.34816 9.75593 1.19833
104 1 -0.974289 -4.122 12.1575 0.566921
105 1 -0.987727 -3.44014 7.23299 7.61117
106 1 -0.982959 -1.59642 7.89186 5.94975
107 1 -0.972242 -5.89949 11.4666 7.68052
108 1 -0.927904 -4.56596 10.2708 4.20212
109 1 -0.957643 -3.4347 9.5707 6.41951
110 1 -0.946026 -3.99421 12.0258 5.89614
133 1 -0.966356 0.304849 6.81952 4.48746
148 1 -0.929502 1.3698 7.28122 2.18579
150 1 -0.854344 -1.64386 9.02765 3.0095
151 1 -0.928435 -0.990172 11.5527 2.25884
152 1 -0.97834 -1.96713 10.9382 4.63597
153 1 -1.0403 1.52645 9.65083 1.07071
155 1 -1.04653 1.51996 7.25527 7.77609
158 1 -0.924636 -1.28061 11.5592 7.69658
20 2 1.84953 -6.03322 10.5418 3.48216
31 2 1.90644 -0.316938 12.6912 7.14545
4 2 1.95256 -5.00524 12.6197 6.98624
21 2 1.95982 -3.5469 10.7632 0.0353651
18 2 1.9273 -0.957928 6.59387 10.6464
25 2 1.84454 -2.59513 8.45987 12.5461
27 2 1.86373 -3.74435 10.6037 10.6935
50 2 1.80164 -1.22484 10.5122 8.96544
52 2 1.95187 2.38902 8.49826 12.3317
53 2 1.96631 -1.17689 10.4845 14.2407
111 1 -0.989988 -3.50135 7.24764 13.1177
112 1 -0.93058 -1.56331 7.9276 11.4152
113 1 -0.913109 -4.64961 10.3081 14.8365
114 1 -0.960787 -6.10773 11.5589 13.0502
115 1 -1.01519 -4.66428 10.0585 9.49469
116 1 -0.937212 -3.5746 9.61227 11.9801
117 1 -0.956454 -4.3744 11.9914 11.203
138 1 -1.06264 0.485629 6.72572 10.0547
145 1 -0.934908 0.377317 6.67797 15.2434
157 1 -0.933585 -1.80106 9.08484 8.36331
159 1 -0.923655 -2.24424 10.9464 10.1414
163 1 -0.989217 1.55358 7.23027 12.8279
165 1 -0.975063 -1.78734 9.087 13.8254
166 1 -0.996917 0.241707 10.2265 14.9181
167 1 -0.986809 -1.06319 11.5762 13.0594
168 1 -0.973666 -2.1284 11.0895 15.3446
169 1 -0.959853 0.268929 10.3105 9.46964
170 1 -0.996025 1.45048 9.70081 11.7776
12 2 1.94481 -1.06952 6.48141 15.9543
7 2 1.91632 -5.1955 12.6924 12.3995
196 1 -1.04545 8.6629 5.3853 1.077
204 1 -1.01204 8.83288 5.45891 6.55344
203 1 -0.956301 7.70259 5.79627 4.15836
11 2 1.93047 10.9807 6.357 3.63218
198 1 -0.952588 10.6252 3.66507 6.01804
56 2 1.98029 8.51083 1.93154 3.6361
197 1 -0.92467 8.7567 3.11105 7.81046
193 1 -0.98466 5.62266 4.732 2.88733
60 2 2.02282 10.9786 2.25163 5.30114
64 2 1.94891 9.51141 4.3223 1.85962
58 2 1.99208 12.1013 0.0199881 7.02299
67 2 1.89859 9.70605 4.28871 7.18818
131 1 -0.991081 5.71261 3.68633 0.55354
136 1 -1.05552 5.60651 3.6148 6.05521
172 1 -0.997207 12.9122 0.649486 2.97354
173 1 -0.944926 8.04988 0.531587 3.04085
174 1 -0.978171 7.5241 2.34361 4.86874
176 1 -0.97112 11.1698 1.04628 1.12021
180 1 -0.957943 12.3544 2.51858 4.53006
181 1 -1.02867 9.94876 1.78899 4.21597
182 1 -1.02884 11.1874 1.21566 6.46273
190 1 -0.947996 8.60826 3.09242 2.55646
191 1 -0.919 10.4616 3.54777 0.818558
192 1 -0.95098 10.4167 4.98998 3.0226
65 2 1.89089 6.25117 6.08969 3.50135
2 2 1.95604 13.476 2.05851 3.47651
36 2 1.92389 6.16379 2.31811 10.6756
213 1 -0.924712 8.79624 5.37189 11.606
212 1 -0.966017 7.72438 6.0631 9.26987
209 1 -1.01658 7.68863 6.13095 14.7786
68 2 1.98063 6.2344 6.18322 8.85416
59 2 1.96505 8.6095 1.93383 8.9537
208 1 -0.973048 5.61758 4.87483 13.5748
62 2 2.0709 8.69053 2.04868 14.1269
63 2 1.98676 11.0355 2.22081 10.6421
71 2 1.89295 6.17867 6.28309 14.168
70 2 1.91825 9.72772 4.26372 12.3292
207 1 -0.997115 10.6736 4.80707 13.5275
142 1 -0.957998 5.68329 3.74895 11.2475
175 1 -0.998106 12.4542 2.5131 15.322
177 1 -1.008 13.0093 0.590109 8.17725
178 1 -0.985474 7.98377 0.675788 8.25348
179 1 -0.983942 7.64323 2.44522 10.1331
183 1 -0.924394 13.0271 0.603939 13.6436
184 1 -0.996699 8.06283 0.726587 13.4886
185 1 -1.06763 10.0118 1.77158 14.8392
186 1 -1.02319 7.62184 2.46712 15.2151
187 1 -0.975195 12.4801 2.43845 10.053
188 1 -1.00287 10.0403 1.62517 9.54833
189 1 -0.955022 11.1829 1.20075 11.8757
199 1 -0.944635 10.5954 4.79914 8.43069
200 1 -1.01064 5.57341 4.84107 8.20966
205 1 -0.987478 8.7576 3.16894 12.9556
206 1 -0.977778 10.6142 3.64175 11.1521
30 2 2.06446 6.19427 2.28816 15.8813
5 2 1.94904 13.4309 1.94087 8.84755
8 2 1.96763 13.4402 2.11441 14.1639
57 2 1.95608 11.034 2.19181 15.9623
232 1 -0.964559 5.71371 12.1633 5.87909
229 1 -0.972454 7.58648 11.0257 4.5112
42 2 1.94957 3.81451 6.48345 5.34175
55 2 1.98473 4.76244 12.694 1.79457
51 2 1.88999 1.3189 10.6667 5.41015
230 1 -1.01578 5.16903 10.1432 4.27173
69 2 1.99066 8.53632 6.45648 5.39258
73 2 1.94038 7.28681 8.45948 1.7614
74 2 1.91783 3.7409 10.437 3.68796
231 1 -1.0118 6.34382 9.83013 6.58046
76 2 2.02061 7.06402 8.49697 7.07612
78 2 1.99296 6.2118 10.7508 5.30498
149 1 -0.990045 3.35144 7.84927 0.731649
154 1 -1.0124 0.850301 12.1574 0.569172
156 1 -0.951039 3.39447 7.93519 5.93662
162 1 -0.952691 0.624768 11.9438 6.0439
194 1 -0.984662 5.23209 6.55524 4.6899
202 1 -0.947644 9.92843 6.83866 4.81446
214 1 -0.982259 6.46003 7.25552 2.39659
215 1 -0.949461 8.37338 7.92512 0.688578
216 1 -0.878107 8.16256 9.01302 2.9844
217 1 -0.976824 3.01829 9.1682 3.07653
218 1 -0.950883 3.88223 11.5095 2.46411
219 1 -0.945963 2.73636 11.0635 4.85246
221 1 -1.01051 6.44614 9.65332 1.18309
222 1 -0.992263 5.67254 12.1652 0.616679
223 1 -1.00965 6.14999 7.48104 7.87051
224 1 -1.00276 7.89123 7.84001 5.89017
227 1 -0.98811 3.92578 11.5151 7.66843
75 2 1.94809 6.16252 10.7432 0.0475849
48 2 2.10143 1.30538 10.7844 0.0305865
45 2 1.89007 3.8145 6.52755 10.6414
243 1 -0.975625 5.68235 12.1614 11.2725
23 2 2.10319 8.66577 10.3351 8.80132
54 2 1.90871 1.24379 10.8132 10.6618
72 2 1.88621 8.76811 6.53988 10.4829
77 2 1.98054 3.70178 10.5244 8.88029
79 2 1.96111 7.24358 8.39873 12.3608
80 2 1.98785 3.74037 10.4479 14.1737
81 2 1.97981 6.28673 10.7663 10.7044
164 1 -0.985434 3.39107 7.95592 11.2235
171 1 -0.992123 0.78652 12.2196 11.31
195 1 -1.0211 10.1252 6.53076 15.3778
201 1 -0.96394 5.32785 6.43069 10.1302
210 1 -0.975137 5.23654 6.96167 15.2599
211 1 -0.949445 10.2283 6.85844 9.95291
220 1 -0.921057 7.62573 10.8872 15.3046
225 1 -1.02009 8.14768 9.05037 8.09021
226 1 -1.00311 3.21723 9.11839 8.29156
228 1 -0.970738 2.6212 11.0931 9.85947
233 1 -0.954508 6.25522 7.24514 12.9013
234 1 -0.977616 8.17215 7.84805 11.2135
235 1 -0.985586 8.10923 8.9184 13.614
236 1 -1.0038 3.22758 9.08536 13.5514
237 1 -0.987578 5.16337 10.2395 14.8783
238 1 -0.989464 3.80908 11.5383 13.0656
239 1 -0.990652 2.73637 10.9584 15.3507
240 1 -1.00894 7.65059 10.924 9.85607
241 1 -0.927156 5.16135 10.2991 9.60829
242 1 -1.05085 6.48847 9.67826 11.7715
39 2 2.00503 3.80125 6.56373 15.8916
26 2 1.90503 8.57137 10.3555 14.1372
66 2 2.05242 8.65626 6.47884 15.9317
61 2 1.85667 4.77 12.7147 12.4522
ITEM: TIMESTEP
100
ITEM: NUMBER OF ATOMS
243
ITEM: BOX BOUNDS xy xz yz pp pp pp
-7.3456000000000001e+00 1.4691300000000000e+01 -7.3456000000000001e+00
0.0000000000000000e+00 1.2731482000000002e+01 0.0000000000000000e+00
0.0000000000000000e+00 1.5963100000000001e+01 0.0000000000000000e+00
ITEM: ATOMS id type q x y z
135 1 -1.0098 3.81043 3.14243 7.85941
139 1 -0.963104 2.84884 5.98642 4.11167
132 1 -0.977136 0.783644 4.83856 3.03113
6 2 2.03439 1.37681 2.24309 5.3115
10 2 1.91727 -0.08932 4.21653 1.83487
13 2 1.98284 -0.139598 4.23766 7.16778
134 1 -0.981886 4.01605 5.44156 1.15166
29 2 2.01339 3.66937 2.02339 3.47648
140 1 -1.0289 3.81486 5.30849 6.37072
37 2 1.90482 4.7806 4.20478 1.81966
38 2 2.00401 1.38986 6.22037 3.52268
120 1 -1.01643 6.19865 0.891468 0.951962
82 1 -1.006 1.36153 1.30446 1.16463
83 1 -1.01497 0.240385 1.84831 4.25408
84 1 -1.02279 1.57533 1.09338 6.43507
88 1 -0.987851 -0.985858 2.98575 2.24925
89 1 -0.952772 0.969216 3.72922 0.685542
90 1 -0.984836 -0.935726 5.43622 1.23222
91 1 -0.976416 -1.16094 3.12465 7.72419
92 1 -1.00722 0.784693 3.49127 6.09605
93 1 -0.974559 -2.18855 5.9907 4.21818
94 1 -0.952409 -0.888271 5.48425 6.49426
118 1 -0.985197 2.99701 0.627923 2.95388
119 1 -1.04334 2.67312 2.62122 4.48413
124 1 -0.979379 6.19568 1.13019 6.49676
123 1 -1.00587 5.05741 1.75313 4.16451
1 2 1.98177 2.22132 0.0403707 1.70069
130 1 -0.981487 3.80397 2.96877 2.21609
40 2 2.05179 4.69421 4.2172 7.13692
11 2 1.92398 -3.56769 6.26111 3.5073
2 2 2.03437 -1.14684 1.99443 3.51967
146 1 -0.958493 2.83007 5.96182 9.53073
9 2 1.88965 1.25662 2.19352 10.7076
16 2 2.03419 -0.173696 4.26651 12.4432
32 2 1.93593 3.66553 1.99585 8.98794
147 1 -1.03783 3.91703 5.40195 11.8387
35 2 1.90077 3.72251 1.84701 14.1356
41 2 1.96662 1.3068 6.14652 8.93006
43 2 1.9654 4.7242 4.1596 12.4041
14 2 2.03785 -3.4846 6.33901 8.82983
85 1 -1.01735 0.16781 1.90191 14.9647
86 1 -0.970519 0.36216 1.78429 9.45372
87 1 -0.983384 1.27215 1.09277 11.9076
95 1 -1.05436 -1.07126 3.1868 13.1877
96 1 -0.968587 0.613543 3.53016 11.2474
97 1 -1.07038 -1.98286 5.90264 14.8703
98 1 -0.972436 -2.14396 6.0908 9.58237
99 1 -1.01039 -0.9994 5.43704 11.8609
121 1 -1.03212 3.12557 0.612941 8.34549
122 1 -0.919878 2.7911 2.60465 10.227
125 1 -1.04937 3.22563 0.504572 13.4869
126 1 -0.924925 5.2689 1.85236 14.7272
127 1 -0.992154 2.67188 2.46537 15.1685
128 1 -0.966305 5.11577 1.81385 9.49526
129 1 -0.987761 6.17139 1.04949 11.8067
137 1 -1.00122 0.59629 4.79215 8.43864
141 1 -0.897888 3.70579 2.97654 12.9309
143 1 -0.997321 0.780156 4.97033 13.5734
144 1 -1.05017 2.75641 6.18887 14.8824
17 2 2.06265 -3.42299 6.00073 14.2207
44 2 2.05673 1.35383 6.30879 14.2612
3 2 2.05031 1.29425 2.33239 15.9447
161 1 -0.995345 1.52503 9.67336 6.60432
160 1 -1.01005 0.359592 10.2967 4.24962
19 2 2.14461 -2.59217 8.60276 1.75323
15 2 1.90801 -1.09476 6.55277 5.2614
22 2 2.02593 -2.5125 8.58892 6.99212
24 2 1.98384 -3.55915 10.7744 5.28692
46 2 2.02662 2.36974 8.48667 1.82783
47 2 2.04062 -1.09031 10.4191 3.61802
49 2 2.00943 2.33194 8.40794 7.17519
100 1 -0.984283 -3.44999 7.41536 2.3588
101 1 -1.00584 -1.74452 7.81686 0.677901
102 1 -0.95428 -6.00724 11.5354 2.31076
103 1 -1.09278 -3.42306 9.72364 1.02594
104 1 -1.08663 -4.19224 12.1738 0.588395
105 1 -1.05781 -3.24479 7.30676 7.65872
106 1 -0.962304 -1.62997 8.00852 5.81818
107 1 -0.99734 -5.74917 11.3905 7.63239
108 1 -0.960284 -4.49098 10.3437 4.00371
109 1 -1.04863 -3.48239 9.66309 6.3726
110 1 -1.00447 -3.99616 12.133 5.98585
133 1 -0.99297 0.338097 6.75279 4.61597
148 1 -1.02706 1.57222 7.23758 2.32113
150 1 -1.06483 -1.68434 9.11307 2.87816
151 1 -1.06229 -0.953224 11.4763 2.41656
152 1 -1.01418 -2.05172 10.8973 4.76787
153 1 -0.980772 1.48766 9.5733 1.0683
155 1 -1.00263 1.41549 7.21635 7.78665
158 1 -1.0128 -1.21486 11.7463 7.87975
20 2 1.8606 -6.033 10.5092 3.54415
12 2 1.99275 -1.07669 6.48012 0.0330928
4 2 2.06436 -4.93688 12.6746 7.14687
31 2 2.06034 -0.252949 12.7153 7.1471
28 2 2.09029 -0.226101 12.6426 1.71255
18 2 1.96611 -1.07518 6.57459 10.7269
25 2 1.92308 -2.69605 8.42874 12.512
27 2 2.00187 -3.69628 10.6486 10.732
50 2 2.00273 -1.1933 10.5194 8.93356
52 2 2.11451 2.35991 8.45247 12.376
53 2 1.95507 -1.1732 10.4797 14.2421
111 1 -1.00044 -3.32449 7.06853 13.0659
112 1 -0.942449 -1.62696 7.91885 11.3652
113 1 -1.02759 -4.61196 10.3332 14.9076
114 1 -1.00776 -5.99676 11.4254 12.9698
115 1 -1.01194 -4.55702 10.0786 9.52012
116 1 -1.00126 -3.67627 9.46462 11.7772
117 1 -1.01821 -4.33469 12.0207 11.2595
138 1 -0.997937 0.366917 6.72424 10.0727
145 1 -0.975896 0.386032 6.8476 15.4465
157 1 -1.0206 -1.56765 9.21524 8.11443
159 1 -0.977541 -2.25882 10.8683 10.0703
163 1 -1.03977 1.46622 7.43702 13.1807
165 1 -0.989261 -1.81226 9.17535 13.6438
166 1 -0.958978 0.3711 10.2863 14.7442
167 1 -0.951132 -1.0692 11.4218 12.9212
168 1 -1.07314 -2.22412 11.1308 15.2389
169 1 -1.01799 0.198305 10.4252 9.71024
170 1 -1.0765 1.5579 9.69135 11.7861
7 2 2.04451 -5.14453 12.6621 12.4625
21 2 2.2062 -3.57925 10.8783 15.9284
23 2 2.00373 -5.95142 10.3145 8.82238
34 2 1.98888 -0.22459 12.6983 12.4107
196 1 -0.976149 8.60268 5.37192 1.15588
204 1 -1.0076 8.80846 5.49917 6.4648
203 1 -0.97248 7.74577 6.04931 4.19196
33 2 1.93997 6.06459 2.25521 5.33488
198 1 -0.926603 10.5123 3.73158 5.98161
56 2 1.96188 8.58822 2.05262 3.63239
197 1 -0.93621 8.75199 3.12387 7.74008
193 1 -0.973214 5.73678 4.68093 3.0007
60 2 2.01319 11.0809 2.32761 5.39037
64 2 1.91078 9.50814 4.26761 1.79712
58 2 2.02035 11.9819 0.070565 7.10701
67 2 1.92383 9.64483 4.37987 7.19496
131 1 -0.919173 5.63323 3.57113 0.578559
136 1 -0.994759 5.52049 3.64896 5.90787
172 1 -0.988575 13.0712 0.645731 2.82922
173 1 -0.995428 7.94249 0.853661 2.75435
174 1 -0.938984 7.52815 2.49406 4.78625
176 1 -0.958623 11.0837 1.19292 1.285
180 1 -1.0156 12.4815 2.50306 4.56365
181 1 -1.01789 9.95086 1.8215 4.42115
182 1 -1.0575 11.1939 1.2941 6.5621
190 1 -0.963825 8.56321 3.20575 2.55086
191 1 -0.940868 10.4588 3.64499 0.56393
192 1 -0.970074 10.4684 4.91373 2.88729
65 2 1.98451 6.29709 6.11457 3.51762
57 2 1.95257 10.9648 2.20368 0.0412946
36 2 1.95179 6.17014 2.22651 10.6874
213 1 -0.865944 8.59343 5.33806 11.5865
212 1 -0.958656 7.66257 6.12441 9.2677
209 1 -1.01215 7.56534 6.10079 14.742
68 2 1.90597 6.15133 6.288 8.74805
59 2 1.98384 8.66045 1.97043 8.89578
208 1 -0.997557 5.56868 4.80892 13.6188
62 2 1.96692 8.59454 1.98943 14.2095
63 2 1.94224 11.1493 2.21587 10.6204
71 2 2.04345 6.12235 6.21675 14.0644
70 2 1.77871 9.614 4.1413 12.3027
207 1 -0.956527 10.6358 4.82874 13.3995
142 1 -1.02418 5.66856 3.55084 11.316
175 1 -1.06153 12.3943 2.42179 15.4247
177 1 -1.02359 13.0584 0.582166 8.14086
178 1 -0.990008 8.12736 0.641993 8.23206
179 1 -0.968233 7.63056 2.46391 10.0238
183 1 -0.959394 13.054 0.694686 13.5855
184 1 -0.991795 7.81898 0.685903 13.6652
185 1 -1.00935 10.0173 1.68298 14.8203
186 1 -0.966703 7.72904 2.53113 15.4034
187 1 -0.964054 12.6391 2.25325 10.0092
188 1 -0.982403 10.0682 1.71552 9.52874
189 1 -0.963463 11.2453 1.08047 11.77
199 1 -0.979053 10.6811 4.93656 8.28875
200 1 -1.01064 5.62869 4.85243 8.19747
205 1 -0.969836 8.6712 3.04683 13.015
206 1 -0.960861 10.5649 3.57872 11.0989
30 2 1.8968 6.21635 2.20096 15.9571
8 2 2.06858 13.3969 2.12607 14.2948
5 2 1.99251 13.5878 1.91082 8.77281
232 1 -0.982592 5.51337 12.1858 5.84003
229 1 -0.948631 7.665 11.0186 4.74735
42 2 1.99693 3.845 6.44936 5.31295
55 2 1.92135 4.70263 12.6853 1.80243
51 2 1.99259 1.34128 10.7814 5.42209
230 1 -1.01123 5.23397 10.2536 4.12836
69 2 1.95211 8.71191 6.60323 5.34242
73 2 1.90064 7.21171 8.40887 1.74556
74 2 2.01533 3.71665 10.4209 3.63531
231 1 -0.958504 6.3353 9.90681 6.54278
76 2 1.96942 7.05583 8.53892 7.01384
78 2 1.96016 6.1534 10.8712 5.26646
149 1 -0.993753 3.40149 7.93089 0.736073
154 1 -0.981216 0.73834 11.9835 0.617915
156 1 -1.0058 3.22474 7.74542 6.00481
162 1 -1.0512 0.606782 12.0487 6.02725
194 1 -0.998242 5.25475 6.65955 4.53833
202 1 -0.952 10.162 6.84455 4.69629
214 1 -0.954299 6.33065 7.18874 2.31351
215 1 -0.957175 8.15638 7.81474 0.56177
216 1 -0.93791 8.08905 9.14117 2.90047
217 1 -1.04517 3.14701 9.08037 3.0813
218 1 -0.989716 3.79774 11.5666 2.53078
219 1 -1.02953 2.77825 10.9832 4.78314
221 1 -0.971214 6.25202 9.50761 1.0912
222 1 -0.975159 5.49757 11.9778 0.596631
223 1 -1.00067 6.12106 7.34494 7.58248
224 1 -0.99158 7.91464 7.94368 5.83098
227 1 -1.00455 3.79148 11.614 7.77484
75 2 1.96012 6.26079 10.7004 0.0563159
39 2 2.05475 3.81577 6.57101 0.0451701
45 2 2.02587 3.85267 6.46739 10.6995
243 1 -0.938963 5.80416 12.2303 11.2234
48 2 1.91647 1.43548 10.723 15.8658
54 2 2.11363 1.34221 10.8193 10.749
72 2 1.90376 8.59053 6.53803 10.4981
77 2 2.00335 3.64348 10.4643 8.87826
79 2 1.96969 7.19029 8.50267 12.3581
80 2 1.9444 3.81655 10.3661 14.0936
81 2 1.89921 6.23251 10.7714 10.5845
164 1 -1.05826 3.19994 7.78179 11.2331
171 1 -1.02083 0.770766 12.2422 11.2852
195 1 -0.977059 10.1136 6.3731 15.2869
201 1 -0.971454 5.27516 6.75801 10.0616
210 1 -0.974904 5.22787 6.75552 15.2553
211 1 -0.956189 10.0823 6.7434 9.96975
220 1 -0.97135 7.68377 10.9996 15.2826
225 1 -0.984852 8.01019 9.03604 8.16935
226 1 -1.03328 3.1895 9.04223 8.27725
228 1 -1.0597 2.71707 10.959 10.0499
233 1 -1.00749 6.27744 7.34925 12.9596
234 1 -0.958577 7.9953 7.90831 11.0972
235 1 -1.00019 8.1664 8.95933 13.536
236 1 -1.03633 3.27784 9.00625 13.5453
237 1 -0.935381 5.2499 10.2398 14.8885
238 1 -0.986968 3.99425 11.4709 12.9838
239 1 -0.953517 2.81148 11.0861 15.1799
240 1 -0.969785 7.67056 10.8448 9.87123
241 1 -0.9179 5.13431 10.2725 9.45462
242 1 -0.991915 6.29948 9.66097 11.7036
66 2 1.97796 8.57188 6.41266 15.8763
26 2 1.92224 8.63307 10.3604 14.1594
61 2 1.93496 4.86898 12.7124 12.4172
ITEM: TIMESTEP
200
ITEM: NUMBER OF ATOMS
243
ITEM: BOX BOUNDS xy xz yz pp pp pp
-7.3456000000000001e+00 1.4691300000000000e+01 -7.3456000000000001e+00
0.0000000000000000e+00 1.2739964000000001e+01 0.0000000000000000e+00
0.0000000000000000e+00 1.5963100000000001e+01 0.0000000000000000e+00
ITEM: ATOMS id type q x y z
135 1 -1.00259 3.71386 3.11765 7.77474
139 1 -0.933968 2.83306 5.93527 4.09512
132 1 -0.90269 0.792805 4.85321 2.94367
6 2 2.08638 1.27974 2.33767 5.36125
10 2 1.86948 -0.145978 4.23016 1.8029
13 2 1.94695 -0.0915783 4.28709 7.15896
134 1 -0.916695 3.94037 5.43277 1.23903
29 2 1.89258 3.71796 2.00915 3.52603
140 1 -0.980871 3.79416 5.47717 6.44725
37 2 1.8403 4.84514 4.23105 1.83299
38 2 1.83325 1.34832 6.25445 3.59232
120 1 -1.02095 6.29928 1.03491 1.15319
82 1 -0.958223 1.35522 1.1888 1.26128
83 1 -1.0459 0.292744 1.75064 4.27183
84 1 -1.01395 1.48052 1.23755 6.47309
88 1 -0.970014 -0.944664 2.99227 2.47922
89 1 -0.908678 0.806907 3.76175 0.631457
90 1 -0.939154 -1.13128 5.42127 1.18798
91 1 -1.01094 -0.89353 3.02207 7.71348
92 1 -1.03411 0.815603 3.67032 5.96644
93 1 -1.00281 -2.02538 5.98634 4.13469
94 1 -0.979439 -0.980709 5.48111 6.5841
118 1 -0.944716 3.15849 0.573294 2.94074
119 1 -0.973542 2.75347 2.48346 4.68825
124 1 -0.941279 6.23137 1.12026 6.42971
123 1 -0.952552 5.17103 1.69774 4.03493
31 2 2.02473 7.14769 0.0198898 7.12298
130 1 -0.894888 3.73013 3.09963 2.32568
40 2 1.96835 4.58165 4.25557 7.16491
11 2 2.0051 -3.46833 6.21928 3.54725
3 2 1.8661 1.28337 2.25333 0.0709036
4 2 1.9607 2.35019 0.0973235 7.19159
146 1 -0.929391 2.71465 5.88568 9.47577
9 2 1.93758 1.30896 2.30405 10.7394
16 2 1.98098 -0.214982 4.3052 12.5868
32 2 1.95407 3.77507 2.0416 8.94556
147 1 -0.961537 3.85302 5.40629 11.7055
35 2 1.95548 3.65181 1.90175 14.0931
41 2 1.86059 1.24657 6.2226 8.91057
43 2 1.93969 4.69856 4.23398 12.3639
14 2 2.09261 -3.60909 6.30176 8.82339
85 1 -0.964528 0.363373 1.70549 14.897
86 1 -1.0034 0.330779 1.80076 9.54192
87 1 -0.986557 1.45391 1.12412 11.7951
95 1 -1.00384 -1.03787 3.13722 13.2978
96 1 -0.978335 0.691812 3.57885 11.4836
97 1 -1.00824 -2.20852 5.88734 14.8324
98 1 -0.982042 -2.13532 6.09974 9.46344
99 1 -1.00916 -1.04208 5.45195 11.8656
121 1 -1.0086 3.13257 0.683597 8.40261
122 1 -0.935155 2.86222 2.50713 10.2355
125 1 -1.00903 3.11438 0.532358 13.5024
126 1 -0.96006 5.17365 1.70961 14.7311
127 1 -0.937584 2.75909 2.36059 15.3232
128 1 -0.995958 5.26383 1.8326 9.38237
129 1 -0.943906 6.3447 1.11581 11.7494
137 1 -0.962418 0.784718 4.79289 8.40079
141 1 -0.988682 3.85503 3.02548 12.9866
143 1 -0.941532 0.77943 4.86615 13.7186
144 1 -0.957438 2.72369 6.03644 15.0195
5 2 2.03526 -1.05611 1.93346 8.84354
44 2 1.90331 1.30413 6.29415 14.3047
161 1 -0.933056 1.26183 9.67677 6.5484
160 1 -1.02384 0.361331 10.1914 4.2348
19 2 2.00443 -2.61797 8.54511 1.74728
15 2 1.90375 -1.04461 6.49339 5.3213
22 2 2.14949 -2.59661 8.56308 7.02082
24 2 2.03146 -3.61727 10.8323 5.34452
46 2 1.91847 2.35495 8.48183 1.85365
47 2 2.05105 -1.09126 10.4018 3.63486
49 2 1.87123 2.23815 8.49831 7.12196
100 1 -0.986722 -3.48394 7.39641 2.41748
101 1 -0.959445 -1.843 7.89105 0.528134
102 1 -0.954808 -6.1349 11.5776 2.39824
103 1 -0.985858 -3.4153 9.76713 1.13527
104 1 -1.02214 -4.25918 12.0527 0.644754
105 1 -1.07757 -3.38715 7.47196 7.80651
106 1 -0.980539 -1.77239 7.8656 5.86266
107 1 -0.969718 -5.94981 11.5938 7.67385
108 1 -0.994433 -4.66092 10.4491 4.15809
109 1 -1.05015 -3.5175 9.64452 6.3827
110 1 -0.97912 -3.95137 12.1639 6.13114
133 1 -0.960966 0.421318 6.77191 4.84072
148 1 -0.93431 1.35891 7.33629 2.4182
150 1 -0.998956 -1.58195 9.10161 2.82794
151 1 -1.05191 -0.976185 11.6172 2.59298
152 1 -1.02993 -2.14987 10.8132 4.72075
153 1 -0.918599 1.49032 9.64088 1.13247
155 1 -0.948591 1.37828 7.23902 7.67918
158 1 -0.97195 -1.16424 11.7779 7.89425
28 2 2.15933 -0.163384 12.6723 1.81264
1 2 1.97141 -5.10056 12.6833 1.79773
18 2 1.93676 -1.13892 6.5312 10.6638
25 2 2.00658 -2.69339 8.4843 12.458
27 2 2.02595 -3.67044 10.5951 10.5552
50 2 1.97322 -1.08096 10.5124 8.8967
52 2 2.05855 2.19047 8.48336 12.4995
53 2 1.81704 -1.20451 10.4473 14.1359
111 1 -0.969376 -3.58579 7.29677 13.0445
112 1 -0.980933 -1.79123 7.87905 11.2919
113 1 -0.968727 -4.50919 10.2707 14.6854
114 1 -0.941296 -6.08465 11.5833 13.0804
115 1 -0.989266 -4.56002 10.044 9.37919
116 1 -0.990056 -3.57839 9.64413 11.8473
117 1 -1.05819 -4.2085 11.9157 11.2004
138 1 -1.00057 0.301717 6.77849 10.1132
145 1 -0.919232 0.206253 6.70504 15.4383
34 2 1.80109 -0.153508 12.6387 12.4373
159 1 -0.99026 -2.14432 10.6311 10.0824
163 1 -1.04596 1.30176 7.41733 13.171
165 1 -0.952572 -1.81881 9.01877 13.6528
166 1 -0.910868 0.278136 10.2101 14.7985
167 1 -0.924887 -1.12674 11.3558 12.8188
168 1 -0.9626 -2.0591 11.0781 15.3659
169 1 -0.994602 0.41258 10.4835 9.51001
170 1 -1.01625 1.45007 9.73148 11.9347
7 2 2.01594 -5.05987 12.6218 12.3147
21 2 1.93299 -3.55067 10.8309 15.891
12 2 1.98143 -1.29781 6.45483 15.9502
157 1 -1.0139 -1.57357 9.29988 7.98334
196 1 -1.03321 8.70648 5.44509 1.05657
204 1 -0.969254 8.76032 5.642 6.50612
203 1 -1.00578 7.67393 6.05283 4.24037
57 2 2.04067 11 2.20908 0.0571562
198 1 -0.993685 10.4845 3.68586 5.80694
56 2 2.0609 8.67738 1.96069 3.48012
197 1 -0.960313 8.74277 3.30285 7.7589
193 1 -0.973263 5.71418 4.82389 3.03111
60 2 2.03667 11.0835 2.29915 5.29939
64 2 2.08055 9.57201 4.34261 1.77636
58 2 1.95064 12.0391 0.0658202 7.04265
67 2 1.93319 9.64804 4.39558 7.021
131 1 -0.949457 5.76411 3.48605 0.701077
136 1 -0.90996 5.46261 3.50009 6.01322
172 1 -0.988813 12.9351 0.549249 2.95447
173 1 -1.05686 8.09627 0.622805 2.89003
174 1 -0.962828 7.5928 2.43378 4.58427
176 1 -1.03717 11.0647 1.16286 1.21076
180 1 -1.04988 12.5402 2.40131 4.68352
181 1 -1.04519 10.099 1.83204 4.17573
182 1 -1.0105 11.1709 1.28139 6.53769
190 1 -1.03386 8.78424 3.17318 2.46036
191 1 -0.98959 10.3269 3.53614 0.551086
192 1 -1.03196 10.6549 4.95647 2.69852
65 2 1.94718 6.21372 6.21451 3.57382
2 2 2.05323 13.5603 1.86235 3.62761
33 2 1.8646 6.13596 2.22052 5.23681
36 2 1.94844 6.18735 2.24246 10.6155
213 1 -0.953505 8.89632 5.43172 11.8255
212 1 -0.972105 7.48875 6.09681 9.58491
209 1 -1.00592 7.74385 5.91874 14.6992
68 2 1.91714 6.12149 6.28215 8.7193
59 2 1.9106 8.72544 2.06619 8.81088
208 1 -1.00113 5.58046 4.85988 13.5732
62 2 2.01511 8.62455 1.87605 14.2233
63 2 1.92804 11.1192 2.26088 10.6251
71 2 1.97343 6.27947 6.13147 14.1623
70 2 1.97352 9.58443 4.1051 12.3845
207 1 -1.0087 10.4553 4.69473 13.5282
142 1 -0.972891 5.64357 3.61174 11.1762
175 1 -0.994604 12.5109 2.40364 15.4354
177 1 -0.977888 13.0858 0.556085 8.17763
178 1 -0.967405 8.08136 0.731858 8.21174
179 1 -0.917048 7.70222 2.35458 10.0448
183 1 -0.972373 12.956 0.62751 13.6036
184 1 -0.953812 7.98409 0.494008 13.7545
185 1 -1.0164 10.0589 1.69139 14.8703
186 1 -0.996018 7.61091 2.32689 15.3313
187 1 -0.981898 12.5861 2.40871 9.93689
188 1 -0.952152 10.1937 1.78697 9.41231
189 1 -0.994751 11.2233 1.15548 11.7767
199 1 -1.00919 10.6373 4.94892 8.10692
200 1 -0.968061 5.61594 4.83803 8.24771
205 1 -1.01518 8.74103 2.88229 12.9615
206 1 -0.977085 10.5099 3.64545 11.12
8 2 1.96331 13.5446 1.93768 14.3035
17 2 1.97058 11.0452 6.07413 14.1175
30 2 1.97431 6.14523 2.1397 15.924
232 1 -0.988701 5.39882 12.1811 5.7889
229 1 -0.938643 7.63881 10.9802 4.71254
42 2 1.94422 3.73389 6.55264 5.30616
20 2 1.94936 8.58213 10.4306 3.49792
51 2 1.98204 1.32728 10.7529 5.35776
230 1 -0.907326 5.318 10.2981 4.04695
69 2 1.97571 8.70017 6.64687 5.2411
73 2 1.92727 7.23404 8.40064 1.69443
74 2 1.89283 3.75334 10.5011 3.63368
231 1 -0.974898 6.19392 9.59451 6.35078
76 2 1.92993 7.21458 8.56304 6.97776
78 2 1.86721 6.16504 10.806 5.3036
149 1 -0.966384 3.3288 7.86258 0.727209
154 1 -0.982591 0.834548 12.102 0.730965
156 1 -0.968701 3.10459 7.89588 5.88447
162 1 -1.02746 0.731728 12.0618 6.04723
194 1 -0.96289 5.25933 6.6148 4.80522
202 1 -1.02888 10.2075 6.6649 4.65004
214 1 -0.963279 6.32479 7.2004 2.30195
215 1 -1.00141 8.11267 7.8616 0.459601
216 1 -0.993062 8.11618 9.0357 2.87799
217 1 -0.953102 3.25709 9.06646 3.01188
218 1 -0.94501 3.83385 11.5301 2.36749
219 1 -1.02996 2.82219 10.8942 4.82269
221 1 -0.948221 6.24905 9.55677 1.20035
222 1 -0.991987 5.59912 12.0209 0.649555
223 1 -0.949396 6.32673 7.31452 7.56284
224 1 -0.990314 8.17662 8.05164 5.77333
227 1 -0.932198 3.76682 11.6096 7.66424
75 2 1.94565 6.14833 10.6618 0.0433526
39 2 1.94378 3.86641 6.53563 0.0715601
55 2 1.97804 4.67244 12.729 1.74875
45 2 1.8214 3.63319 6.56431 10.5904
243 1 -0.973095 5.81573 12.2277 11.1506
48 2 1.84142 1.31768 10.7429 15.9113
54 2 1.94758 1.42834 10.8135 10.7241
72 2 2.01956 8.6039 6.52639 10.612
77 2 1.84838 3.73604 10.4956 8.84508
79 2 2.04023 7.12615 8.53532 12.422
80 2 1.9581 3.85135 10.4147 14.0683
81 2 1.93797 6.28424 10.8261 10.6039
164 1 -0.990953 3.03766 7.91522 11.2741
171 1 -0.933692 0.985077 12.1731 11.4069
195 1 -1.01212 10.1747 6.62892 15.3061
201 1 -0.879578 5.0522 6.91633 9.8148
210 1 -0.976639 5.36353 6.61238 15.4022
211 1 -1.04719 9.99306 6.67209 9.8777
220 1 -0.910994 7.66196 10.7773 15.3889
225 1 -0.977352 7.95773 9.07297 8.26468
226 1 -0.968324 3.12808 9.12165 8.29218
228 1 -0.9592 2.89075 10.9787 10.1317
233 1 -0.988171 6.34673 7.23901 12.9663
234 1 -0.9771 8.07668 7.8566 11.3363
235 1 -0.988896 8.05213 9.03239 13.5986
236 1 -1.00583 3.20216 9.02117 13.6123
237 1 -0.992385 5.26072 10.2138 14.7542
238 1 -1.02115 4.03986 11.4898 12.9074
239 1 -0.90935 2.82842 10.8941 15.2481
240 1 -0.961392 7.76018 10.8982 10.0432
241 1 -0.90352 5.29306 10.3372 9.37241
242 1 -1.03066 6.35724 9.72263 11.7833
66 2 2.02751 8.69847 6.50648 15.8463
26 2 1.9089 8.68092 10.395 14.16
61 2 1.97047 4.80377 12.7262 12.3435
23 2 1.85589 8.66302 10.4218 8.7899
ITEM: TIMESTEP
300
ITEM: NUMBER OF ATOMS
243
ITEM: BOX BOUNDS xy xz yz pp pp pp
-7.3456000000000001e+00 1.4691300000000000e+01 -7.3456000000000001e+00
0.0000000000000000e+00 1.2748446000000001e+01 0.0000000000000000e+00
0.0000000000000000e+00 1.5963100000000001e+01 0.0000000000000000e+00
ITEM: ATOMS id type q x y z
135 1 -1.05343 3.85586 3.07013 7.7411
139 1 -1.04763 2.74392 6.05746 4.16904
132 1 -0.982267 0.69209 4.97461 2.80375
6 2 1.89846 1.29763 2.27732 5.37764
10 2 1.95742 -0.248018 4.19544 1.77135
13 2 1.94904 -0.174546 4.25737 7.06714
134 1 -0.965122 3.85064 5.39199 1.21307
29 2 1.8264 3.77998 1.83164 3.61484
140 1 -1.01435 3.76546 5.45482 6.45468
37 2 1.9781 4.76229 4.21057 1.842
38 2 2.0591 1.32316 6.2515 3.57441
120 1 -1.04229 6.40137 1.21264 1.20277
82 1 -1.02338 1.4044 1.17658 1.26263