ITEM: TIMESTEP
0
ITEM: NUMBER OF ATOMS
386
ITEM: BOX BOUNDS xy xz yz pp pp pp
-7.6535000000000002e+00 1.6722200000000001e+01 -7.3464000000000000e+00
-1.7999999999999999e-02 1.3589000000000000e+01 -3.0709999999999998e-01
0.0000000000000000e+00 1.7316099999999999e+01 -1.7999999999999999e-02
ITEM: ATOMS id type x y z q
108 2 -1.83879 5.45273 4.78609 0.147529
192 1 -1.75636 6.5272 4.43249 -0.676234
377 2 -2.5725 5.91206 0.33149 0.158121
378 2 -2.23765 5.59196 2.1286 0.169837
379 1 -2.91358 6.09413 1.38165 -0.672834
1 4 -0.295853 1.05968 3.14356 1.0426
2 2 0.705165 1.68181 1.84875 0.00719771
3 2 -0.808987 1.80028 5.37934 0.199626
4 2 -0.873374 3.2053 4.09537 0.136225
5 2 0.798263 2.58712 4.74397 0.138993
6 1 -0.283916 2.32958 4.51412 -0.692463
10 4 -0.859255 3.50594 8.04838 0.728321
11 2 0.649755 2.81801 7.70723 -0.0422598
12 2 -1.04923 4.41345 6.61758 -0.0159743
34 4 4.16086 0.535418 3.70144 1.01157
36 4 3.74695 2.05002 8.52143 0.843361
41 4 1.93502 6.66006 4.97657 1.26486
42 4 3.08393 6.2532 0.134821 1.28469
87 2 2.21789 1.98699 7.7763 -0.0346941
90 2 3.30922 1.97636 3.35824 -0.0340297
109 2 -1.07932 6.64209 3.53204 0.156727
120 2 4.50209 0.112202 7.2412 0.194949
129 2 2.53226 4.91134 3.31275 0.179413
130 2 0.69458 4.89446 3.72131 0.159303
131 2 1.94029 4.20705 4.96019 0.143865
133 2 3.1539 5.0664 7.86694 0.230403
134 2 1.35348 5.57759 7.61059 0.202287
196 1 4.33592 0.208829 8.3638 -0.674803
200 1 1.74934 4.95224 4.12859 -0.682562
201 1 2.13489 5.20623 8.34527 -0.693702
235 3 3.96881 4.94893 0.654058 -0.798708
238 3 3.41535 6.76043 5.53591 -0.859719
320 2 2.13089 1.0904 0.52068 0.182839
321 2 2.20665 2.59082 1.67253 0.143119
323 1 2.14458 2.21424 0.612687 -0.658331
325 2 0.53222 4.93097 1.21036 0.177323
326 2 -0.835019 3.65855 1.49987 0.173162
327 1 -0.228357 4.24013 0.743493 -0.670198
329 2 2.20152 0.644788 6.30293 0.154744
35 4 7.6739 3.52437 0.354244 1.08356
37 4 6.68215 1.65101 5.17541 1.01192
40 4 5.31925 4.96961 1.64891 1.21587
43 4 5.7922 3.95313 6.98879 1.46507
86 2 8.18214 2.69977 1.78007 -0.0462582
88 2 7.84346 1.48314 3.91472 -0.0230506
95 2 10.2013 1.30083 8.16793 -0.0284764
117 2 6.19834 0.622869 2.29801 0.168786
118 2 4.58914 0.605915 1.2901 0.141374
121 2 8.53189 1.36101 6.75318 0.157486
122 2 6.88183 0.890644 7.56963 0.181789
126 2 6.2272 2.98122 2.86383 0.133455
127 2 4.60943 2.61822 1.96901 0.151667
128 2 4.60314 3.58662 3.59382 0.178078
170 2 8.76828 5.72682 4.73434 0.175424
171 2 8.34001 4.9341 3.08964 0.157291
172 2 7.33871 4.46816 4.64767 0.253282
180 2 8.10092 6.38975 6.98172 0.211598
195 1 5.17128 0.165198 2.15518 -0.652012
197 1 7.56899 0.757791 6.68478 -0.677324
199 1 5.1728 3.33723 2.6475 -0.690965
215 1 7.93953 5.29757 4.08762 -0.694888
231 3 5.26199 0.845178 4.85126 -0.775492
233 3 6.83849 4.82393 0.662461 -0.784642
236 3 4.71954 3.00112 7.73431 -0.813302
237 3 6.44054 3.17915 5.50154 -0.808778
239 3 5.26581 5.39511 6.63673 -0.872491
267 3 5.39813 6.23832 2.64586 -0.805158
270 3 10.1986 3.91894 8.27716 -0.792699
272 3 7.17587 4.06803 8.03955 -0.77324
274 3 10.5489 6.28421 6.76977 -0.82838
311 2 10.5233 4.92299 3.48937 0.196385
354 2 9.57898 0.311123 4.97717 0.156552
355 2 9.55574 1.83576 3.88228 0.147121
356 1 9.90794 0.782703 4.00779 -0.686184
359 2 9.50142 1.56265 0.957002 0.198878
360 2 7.68699 1.02984 1.18367 0.140557
361 1 8.75797 0.717181 1.01559 -0.679134
362 2 6.03224 1.60536 0.42908 0.144424
59 4 13.8548 1.03365 7.29459 1.19719
61 4 12.4345 2.85401 5.24406 0.965634
67 4 10.9913 4.78194 7.16765 1.3041
96 2 12.1819 2.31449 3.68569 0.0258358
97 2 13.7634 3.82091 4.95757 -0.0478847
167 2 13.3845 5.52532 7.16968 0.203944
168 2 13.1847 3.84183 7.97912 0.208432
214 1 12.7795 4.89385 7.88189 -0.68186
261 3 14.7481 2.39553 8.15231 -0.761367
263 3 12.8358 1.68605 6.21147 -0.823978
271 3 11.2437 3.75143 5.68569 -0.782779
295 3 15.1802 0.0455542 6.59184 -0.821946
308 4 12.54 2.29626 0.427206 1.56594
309 4 12.0539 5.19007 1.52609 1.15159
310 2 12.1646 5.7183 3.95183 0.149047
312 2 10.8319 6.73781 3.09309 0.142518
313 1 11.2898 5.71465 3.23745 -0.670662
314 3 12.7031 0.962751 1.3027 -0.833309
315 3 12.3084 3.62378 1.5651 -0.803363
316 3 11.0858 5.79106 0.405781 -0.805968
353 2 11.0364 0.700755 3.88418 0.221002
386 3 14.9455 0.769584 2.67887 -0.82561
17 4 -5.67985 12.496 4.56123 1.07517
18 2 -5.25386 10.1771 5.15733 0.139159
19 2 -5.4953 10.3668 3.28566 0.141207
21 3 -6.94522 13.294 3.78121 -0.798989
22 3 -4.22612 12.9158 3.97987 -0.78595
28 4 -2.65018 8.28266 8.26934 1.27726
110 2 -2.76552 7.02283 4.29307 0.137392
111 2 -4.37287 10.082 7.96212 0.189617
112 2 -3.5876 9.56937 6.33313 0.139255
113 2 -2.64552 10.6735 7.52439 0.159196
141 2 -1.77501 10.5517 5.65808 0.152383
142 2 -2.34603 11.471 4.13058 0.190228
193 1 -3.41463 9.85633 7.40652 -0.677305
225 3 -1.91029 7.31007 7.10108 -0.804228
330 2 -6.8629 13.4978 6.57029 0.235483
331 1 -5.7595 13.2869 6.36121 -0.660362
332 2 -5.3205 12.5182 7.0548 0.179467
342 2 -1.81366 9.12351 0.088511 0.14375
343 2 -3.36359 9.19181 1.16949 0.13992
344 1 -2.91206 9.39178 0.15235 -0.675497
349 2 -3.83183 12.4796 0.220644 0.158042
350 2 -4.4497 11.283 1.54136 0.150035
351 2 -5.0302 13.0709 1.55544 0.194876
352 1 -4.67461 12.2033 0.926781 -0.674327
357 2 -2.1502 12.6177 2.14575 0.180775
376 2 -3.08209 7.1852 1.61315 0.143392
204 1 -1.56372 11.391 4.94571 -0.664888
25 4 -0.900414 7.42102 5.87452 1.03749
33 4 1.91402 13.2179 2.55075 1.13892
49 4 2.8039 8.09377 2.49025 1.30825
50 4 0.0721208 11.1097 3.92081 1.1266
51 4 3.04103 10.8147 0.94225 1.36164
52 4 3.75341 8.99125 7.92585 1.54736
54 4 2.51442 10.885 5.79829 1.31299
83 2 -0.830611 9.05718 5.41504 -0.00409916
93 2 2.27375 12.2527 6.74335 -0.0476261
105 2 4.35819 7.71148 3.05211 0.0685451
138 2 0.497117 9.42141 2.06882 0.223969
139 2 -1.2275 10.1445 1.94364 0.148302
140 2 -0.843586 8.83216 3.22115 0.161848
143 2 -1.40034 12.3707 5.48005 0.206824
144 2 0.369319 10.0386 7.29862 0.213763
145 2 0.894531 11.5787 8.23783 0.144502
146 2 -0.815732 11.4898 7.4649 0.149585
158 2 0.604813 11.3184 0.571378 0.169353
203 1 -0.445085 9.69006 2.61578 -0.662191
205 1 0.0315239 10.9128 7.93623 -0.692343
234 3 0.578722 6.79249 6.03461 -0.790177
245 3 1.77747 7.93201 3.67998 -0.764769
246 3 2.37714 6.98978 1.40443 -0.831932
247 3 0.551941 12.4829 3.11691 -0.800943
248 3 2.89571 9.47054 1.76202 -0.869251
249 3 2.96798 12.1581 1.89095 -0.774998
253 3 1.12854 10.6191 5.02651 -0.802741
254 3 2.88434 9.73788 6.79802 -0.85451
285 3 3.70232 11.2449 4.83721 -0.846609
358 2 1.51792 13.5874 0.135904 0.164496
367 2 0.367334 13.2747 6.36357 0.141837
65 4 6.85992 6.79994 3.69538 1.2878
220 1 5.63082 13.5683 8.57606 -0.6978
45 4 4.92541 6.86542 6.11107 1.55269
58 4 6.25273 13.545 2.1684 1.58275
69 4 10.3952 7.76083 6.30886 0.995272
73 4 8.54537 8.62777 1.7568 1.2626
74 4 5.16531 11.6303 4.38209 1.34202
75 4 7.6314 11.2395 0.598218 1.28759
76 4 9.09849 10.1779 7.74013 1.33221
78 4 7.74196 12.2166 5.84922 1.25998
100 2 9.44464 7.81815 4.94293 -0.0259568
104 2 9.788 9.44706 2.57962 -0.037655
107 2 8.31686 12.4088 4.27702 0.067514
176 2 7.03104 10.3213 3.31757 0.187503
177 2 5.4027 10.1139 2.41957 0.229446
178 2 5.71703 9.21084 4.04044 0.222502
179 2 6.85351 7.45815 7.88572 0.235935
181 2 8.63811 7.34921 8.50349 0.222782
183 2 6.75271 9.3268 7.80179 0.240017
217 1 5.92381 10.1296 3.41743 -0.672311
218 1 7.78984 6.83234 7.97401 -0.68143
219 1 7.39135 9.79961 8.59748 -0.669266
251 3 4.99985 8.0789 7.28114 -0.828458
268 3 6.13918 7.33415 5.01566 -0.832227
282 3 7.76876 7.81726 2.87858 -0.844104
283 3 9.2018 7.68404 0.677331 -0.855596
284 3 5.4565 12.9915 3.5279 -0.836268
286 3 9.1865 11.7117 0.693485 -0.822378
287 3 7.56795 9.71848 1.08263 -0.845962
288 3 6.68645 12.2485 1.33031 -0.836393
289 3 9.88756 8.82033 7.32482 -0.840145
293 3 6.23286 11.6939 5.78926 -0.801741
294 3 8.69328 11.0943 6.46145 -0.842004
328 2 9.72179 10.3315 4.44296 0.168629
383 2 5.09018 7.79835 0.489287 0.198542
385 2 5.05692 12.8235 7.93107 0.17956
20 1 10.8146 10.5737 4.31721 -0.675184
101 2 11.8204 8.25672 5.6037 -0.0480936
13 2 -1.97284 4.70694 9.91306 0.154486
84 2 -1.74241 5.08999 12.6179 -0.0461962
223 3 -1.90461 3.42014 14.619 -0.850114
375 2 -1.73539 2.92761 11.198 0.142527
324 2 -1.191 4.73361 17.2732 0.171357
7 4 0.374655 3.03592 16.8516 0.869474
8 2 1.20513 3.70268 15.5113 -0.00268687
9 3 -0.661037 1.91203 16.4041 -0.74706
14 2 -0.495006 5.58526 9.06129 0.161694
15 2 -0.163368 4.01657 10.1803 0.113831
16 1 -0.917607 4.62951 9.5206 -0.659026
26 4 -0.993611 4.50089 13.9822 0.948677
44 4 2.31788 6.64278 9.57737 1.10767
47 4 0.381326 6.64776 15.763 1.21037
85 2 0.299807 3.76003 13.2299 -0.0560419
123 2 4.41654 2.19985 10.8964 0.162281
124 2 2.53932 2.12976 10.7317 0.131553
125 2 3.46064 3.73178 10.3589 0.20546
132 2 1.79968 4.31361 8.95485 0.128259
136 2 4.33329 2.81591 13.0628 0.164339
155 2 2.65117 6.7501 12.8942 0.205379
156 2 3.53895 6.77253 14.5433 0.178625
198 1 3.49977 2.60233 10.3712 -0.677944
241 3 -0.470272 5.68619 14.837 -0.859981
242 3 1.7256 5.88863 16.2496 -0.829895
243 3 3.34824 6.13224 10.7001 -0.814441
322 2 2.64426 2.67897 17.2587 0.169009
334 2 0.815278 0.998466 12.4536 0.141234
335 2 -0.185444 1.5991 13.9224 0.17416
336 1 0.199508 0.710639 13.3571 -0.668775
337 2 3.71524 0.845343 14.2498 0.174101
338 2 3.25973 0.66703 16.0674 0.165506
339 2 2.48279 2.02871 15.0304 0.139927
340 1 2.92006 0.990773 15.0404 -0.66077
345 2 -0.347341 0.475666 8.76215 0.203906
346 2 1.47185 0.433178 9.25206 0.148779
347 2 0.172592 1.00111 10.4934 0.159513
348 1 0.399855 0.352158 9.59779 -0.669815
368 2 3.20393 0.612604 12.1357 0.151479
137 2 4.55034 3.73402 14.6889 0.167647
39 4 7.86326 2.05947 11.1878 1.3411
46 4 6.40769 4.21802 13.1133 1.37498
48 4 5.0182 6.1204 10.9957 1.36581
60 4 10.2185 2.61652 9.21069 1.30964
63 4 9.85672 2.9401 15.8993 1.43396
68 4 7.35857 5.30372 9.11528 1.42379
71 4 7.67308 6.37582 14.9637 1.34136
72 4 9.53118 6.17264 11.1981 1.54046
89 2 6.60682 1.53171 10.2113 -0.0270003
103 2 6.53337 6.62283 16.1759 0.0185534
119 2 5.29113 0.140101 8.96104 0.144947
135 2 5.5918 2.20567 14.3243 0.17226
162 2 8.62793 0.740843 15.6434 0.148161
163 2 9.72033 1.20951 14.1621 0.176252
164 2 8.0441 2.02858 14.3909 0.215376
202 1 5.04377 3.09652 13.8988 -0.665342
212 1 8.92575 1.53153 14.8949 -0.670126
232 3 8.29128 0.848472 12.0564 -0.8542
240 3 7.20915 3.1645 12.1382 -0.82035
244 3 5.47303 5.31609 12.3181 -0.816823
262 3 9.03233 2.392 10.2033 -0.836715
265 3 8.62537 3.54674 16.7349 -0.80556
273 3 5.875 5.61741 9.74451 -0.830737
275 3 10.5378 3.86391 14.7783 -0.815958
277 3 7.26235 4.97792 14.2796 -0.80505
278 3 9.12281 6.50754 15.6052 -0.830863
280 3 8.46209 5.40099 10.2594 -0.832481
281 3 9.9898 5.36813 12.5393 -0.836811
363 2 6.72643 1.67821 16.1437 0.172591
364 2 5.35058 2.92398 16.4632 0.183669
365 1 6.14687 2.26081 16.9255 -0.678483
64 4 12.5744 3.23103 11.0858 1.08185
70 4 11.0508 4.55101 13.4279 1.39817
99 2 13.0945 4.7821 10.5934 -0.0342955
165 2 14.1059 1.34191 10.6686 0.191919
166 2 14.117 1.85588 12.4938 0.212654
169 2 12.6345 5.39088 8.88408 0.234191
173 2 13.0643 5.9297 12.8806 0.132377
174 2 13.0213 5.40178 14.6904 0.186245
175 2 11.8757 6.77201 14.0698 0.179619
185 2 12.3063 0.694792 9.14698 0.189277
213 1 14.1533 2.19081 11.4126 -0.679301
216 1 12.4421 5.82841 13.8188 -0.693551
264 3 10.8988 2.14013 16.8195 -0.831203
266 3 11.641 2.53293 9.9755 -0.822249
276 3 11.8603 3.40013 12.4943 -0.79893
279 3 10.9318 6.48821 10.3387 -0.837724
305 4 14.4502 2.19006 15.613 1.48613
306 3 13.4856 2.6418 16.7999 -0.838126
307 3 13.8407 0.887582 14.8221 -0.811166
371 2 11.473 1.16188 13.196 0.216716
372 2 12.5031 0.418636 11.7989 0.187048
373 1 11.9027 0.219921 12.7378 -0.676862
23 4 -5.90832 13.3784 14.5906 1.13983
27 4 -4.11961 8.31285 16.169 1.04395
30 4 -3.0313 9.6291 13.4884 1.2977
31 4 -6.48465 11.7105 17.1787 1.02339
32 4 -4.71649 11.8078 12.2065 1.27016
102 2 -3.25441 6.84746 16.2243 -0.0313266
114 2 -1.71304 8.47633 11.6983 0.208813
115 2 -2.27995 7.28943 13.0501 0.155922
148 2 -2.52082 11.4451 10.0339 0.170003
150 2 -3.3542 13.2645 10.7068 0.165654
151 2 -2.62708 13.1288 12.4459 0.205538
159 2 -1.89414 11.8267 16.9994 0.158086
160 2 -2.3267 13.2758 15.8355 0.16839
194 1 -1.82088 8.2855 12.804 -0.684785
207 1 -3.56196 13.276 11.8236 -0.676082
224 3 -3.82584 7.62971 9.10148 -0.83658
226 3 -3.90512 8.91221 14.7043 -0.808082
227 3 -6.53551 12.7616 15.9388 -0.766496
228 3 -5.91767 11.9059 11.187 -0.830832
229 3 -3.86802 10.179 12.21 -0.804355
230 3 -5.26908 12.1858 13.7029 -0.782351
256 3 -2.0319 10.7547 14.127 -0.812969
317 2 -3.96493 7.82329 11.7195 -0.00968269
341 2 -3.44717 10.4193 17.0736 0.171148
366 2 -3.83403 13.1288 8.7474 0.147585
147 2 -1.53158 11.1469 11.5999 0.221837
38 4 0.917614 13.0503 12.748 1.27366
53 4 -0.51898 10.1493 9.56595 1.18791
55 4 2.06168 8.76132 14.2066 1.30581
56 4 -0.972356 11.7819 14.6927 1.0461
57 4 1.6859 10.3215 11.6185 1.48623
77 4 4.31666 10.9495 10.2916 1.29779
80 4 4.31037 10.739 15.5662 1.32933
91 2 0.80928 6.95513 10.3072 0.0132984
92 2 -0.584128 7.02606 17.0892 -0.0247946
94 2 0.331472 10.8209 15.3574 0.0211302
98 2 2.13219 13.0957 13.9111 -0.0149308
106 2 3.71359 12.4762 9.90631 -0.0351951
116 2 -0.857268 8.47428 13.375 0.232947
149 2 -0.960726 12.4409 10.3687 0.159378
157 2 4.12607 7.8796 13.1457 0.177267
161 2 -0.642236 13.2186 16.7259 0.154689
206 1 -1.4979 11.4593 10.5163 -0.671521
209 1 3.24412 7.36451 13.6291 -0.67496
210 1 1.09827 10.9506 17.1713 -0.693933
211 1 -1.50065 12.621 16.2978 -0.677581
250 3 2.84736 7.90689 8.78861 -0.798498
252 3 -1.51839 8.96264 9.25424 -0.802744
255 3 0.889195 8.06894 15.1939 -0.830233
257 3 -0.427563 12.8237 13.5992 -0.83183
258 3 0.776905 9.71705 10.3431 -0.794749
259 3 1.31773 9.40728 12.9427 -0.830163
260 3 1.26417 11.8824 11.7694 -0.888777
291 3 4.42595 10.151 8.92333 -0.855037
292 3 3.30713 10.2363 11.2958 -0.832528
298 3 3.10392 9.89573 14.857 -0.84637
300 3 3.96953 10.7401 17.1774 -0.805567
369 2 0.924437 9.91159 16.7708 0.19509
370 2 1.3932 11.7263 16.4045 0.138973
374 2 3.78775 12.9865 12.6003 0.166003
380 2 3.54292 8.40268 16.5642 0.210106
382 1 4.15533 7.52728 16.9025 -0.688832
333 2 8.76722 13.5494 13.1131 0.243181
29 4 9.57804 12.0971 10.1721 1.35541
62 4 5.78913 13.1676 14.042 1.33538
66 4 9.89672 6.97514 16.957 1.50499
79 4 8.36089 8.53925 12.8764 1.34504
81 4 7.04581 11.3199 11.857 1.55771
152 2 6.78687 7.8401 10.8821 0.218598
153 2 5.3668 8.40666 11.9624 0.207244
154 2 5.22098 8.46934 10.1061 0.241798
182 2 7.61626 9.10378 9.45208 0.185325
184 2 6.95631 10.7775 8.95252 0.236932
186 2 9.63973 9.92896 14.5014 0.183067
188 2 10.4172 8.23784 14.2797 0.221407
189 2 5.40242 8.86251 14.6603 0.183553
190 2 6.24756 9.26028 16.3083 0.192441
191 2 6.70135 10.2314 14.7435 0.206972
208 1 5.66483 7.9285 10.9899 -0.674698
221 1 9.96788 9.13621 13.7693 -0.678361
222 1 5.90965 9.68077 15.3201 -0.678273
290 3 9.8275 11.0889 8.86238 -0.811166
296 3 7.49917 7.62047 13.9706 -0.834905
297 3 8.89278 7.68029 11.6054 -0.871386
299 3 4.78943 12.1674 14.9693 -0.812308
301 3 8.11651 11.9973 10.8388 -0.843791
302 3 5.67169 11.16 11.0569 -0.856929
303 3 7.58726 9.87478 12.3936 -0.834824
304 3 6.85572 12.2991 13.1825 -0.835557
318 2 10.5422 10.1291 16.6058 0.0333512
319 2 6.87441 11.1633 16.2487 0.0201262
381 2 4.75763 7.06208 16.0796 0.150345
384 2 6.40361 13.0675 9.24241 0.193072
187 2 10.6389 9.5486 12.9621 0.2081
24 4 11.9007 7.70296 10.2847 1.01701
82 2 11.0752 9.16272 10.2442 0.0234992
269 3 11.0748 8.14914 16.5945 -0.822663
ITEM: TIMESTEP
100
ITEM: NUMBER OF ATOMS
386
ITEM: BOX BOUNDS xy xz yz pp pp pp
-7.8617048555981102e+00 1.6806007920930448e+01 -7.4629104187413358e+00
-7.2611899224921173e-02 1.3609965940293037e+01 -3.1498651592630306e-01
-1.1665024405157354e-01 1.7432750244051554e+01 -5.1645958931885387e-02
ITEM: ATOMS id type x y z q
108 2 -1.80305 5.33233 4.46967 0.14939
192 1 -1.84861 6.427 4.29103 -0.69174
377 2 -2.81524 5.36192 0.427493 0.175077
378 2 -2.4409 5.4164 2.25754 0.179993
379 1 -3.08122 5.80612 1.43768 -0.668923
1 4 -0.499602 1.0598 3.07554 0.961633
2 2 0.465516 1.60267 1.72022 -0.0044464
3 2 -1.26951 2.01685 5.0821 0.190414
4 2 -1.0525 3.34351 3.71391 0.141264
5 2 0.450744 2.63935 4.64011 0.138774
6 1 -0.605247 2.44776 4.25587 -0.690771
10 4 -0.910666 3.40866 8.10292 0.735247
11 2 0.561085 2.60837 8.07266 -0.0476406
12 2 -0.789527 4.32816 6.65165 -0.012717
34 4 4.18599 0.443804 3.38171 0.96853
36 4 3.59081 2.08416 8.46545 0.835052
41 4 1.86376 6.68096 4.86523 1.29879
42 4 3.06956 6.26563 -0.0795981 1.19835
87 2 2.08531 1.65998 7.73855 -0.0297889
90 2 3.49256 2.02686 3.1601 -0.0181525
109 2 -1.19213 6.78286 3.4258 0.155028
120 2 4.90776 0.227593 7.48948 0.173513
129 2 2.47164 5.14493 2.95019 0.181666
130 2 0.691037 4.92735 3.54282 0.167495
131 2 2.11435 4.30696 4.628 0.144093
133 2 2.97829 5.35896 7.78311 0.227648
134 2 1.04895 5.52265 8.02578 0.165734
196 1 4.44053 0.264385 8.48191 -0.676155
200 1 1.75416 5.05373 3.84372 -0.680701
201 1 2.06989 5.25462 8.50163 -0.66443
235 3 4.07988 4.84639 0.597272 -0.782694
238 3 3.29864 6.79517 5.47326 -0.87458
320 2 1.74894 1.02365 0.556451 0.172848
321 2 2.19259 2.59497 1.52406 0.145427
323 1 1.98668 2.12693 0.510645 -0.667258
325 2 0.201886 5.03532 1.20811 0.177589
326 2 -0.81094 3.58323 1.71434 0.159845
327 1 -0.383687 4.18981 0.847586 -0.676669
329 2 -4.88865 13.3785 6.51261 0.1636
35 4 7.56527 3.58269 0.202615 1.0482
37 4 6.62185 1.57661 5.36536 0.98167
40 4 5.26501 5.03516 1.6761 1.21925
43 4 5.71246 3.94258 7.00098 1.40359
86 2 7.33244 2.3456 1.42948 -0.00266533
88 2 8.12727 1.10673 4.53843 0.0333203
95 2 10.1405 1.17805 8.25251 -0.0312402
117 2 6.20636 0.529986 1.97447 0.182351
118 2 4.35589 0.699322 1.13912 0.112303
121 2 8.72376 1.23365 6.52621 0.151537
122 2 6.97152 0.683825 7.46314 0.141404
126 2 6.13995 3.30809 3.31907 0.186462
127 2 4.95939 2.60265 2.06017 0.156682
128 2 4.33187 3.66843 3.46641 0.164444
170 2 8.80512 5.70625 4.60472 0.187655
171 2 8.28718 4.93921 2.99967 0.171179
172 2 7.36843 4.45856 4.56759 0.260002
180 2 8.16873 6.42069 7.19835 0.228186
195 1 5.15718 0.0496952 1.87457 -0.638243
197 1 7.76341 0.561515 6.53211 -0.68974
199 1 5.17674 3.42982 2.75007 -0.691122
215 1 7.94609 5.30022 3.99649 -0.689944
231 3 5.30287 0.799785 4.56467 -0.759365
233 3 6.9103 4.87461 0.78179 -0.785256
236 3 4.43998 2.97588 7.53031 -0.814634
237 3 6.56957 3.17233 5.51609 -0.772779
239 3 5.24619 5.43159 6.57985 -0.828038
267 3 5.38372 6.33147 2.5391 -0.825918
270 3 10.3642 3.68249 8.17079 -0.807612
272 3 7.05235 3.87222 7.95336 -0.751139
274 3 10.6497 6.1909 6.85902 -0.802839
311 2 10.7302 4.65784 3.37549 0.188121
354 2 9.65067 0.706461 5.14911 0.162457
355 2 9.9189 1.73361 3.64703 0.129975
356 1 9.98504 0.669669 4.09899 -0.66515
359 2 9.3604 1.75428 1.2553 0.164345
360 2 7.92379 0.546966 0.61593 0.152863
361 1 9.01601 0.721288 0.927595 -0.677599
362 2 5.92413 1.39312 0.418548 0.153889
59 4 13.9618 1.02207 7.24747 1.22431
61 4 12.4618 2.82915 5.12795 0.974945
67 4 11.1138 4.63699 7.14144 1.30033
96 2 11.9543 2.04278 3.77733 0.0213159
97 2 13.7421 3.62172 4.41501 -0.0360954
167 2 13.4016 5.58672 7.32283 0.21077
168 2 13.406 3.95265 8.23286 0.222531
214 1 12.8602 4.87914 8.0292 -0.682719
261 3 14.8173 2.38992 8.12954 -0.766139
263 3 13.0023 1.77226 6.14852 -0.824598
271 3 11.3599 3.82116 5.56558 -0.792564
295 3 15.2014 0.0352823 6.60963 -0.822451
308 4 12.5764 2.2329 0.25947 1.55224
309 4 11.993 5.16774 1.47858 1.11582
310 2 12.2116 5.52217 4.0752 0.174438
312 2 10.8936 6.58737 3.26174 0.142923
313 1 11.4427 5.57053 3.30951 -0.670812
314 3 12.9173 0.914872 1.13824 -0.823413
315 3 12.1376 3.59316 1.24472 -0.795054
316 3 11.0895 6.05782 0.341837 -0.799547
353 2 11.1355 0.239828 4.10793 0.22567
386 3 14.9485 0.702362 2.63897 -0.824419
17 4 -5.92678 12.2738 4.45771 1.0452
18 2 10.9099 9.73498 4.94535 0.135212
19 2 -5.5932 10.2473 3.14954 0.134654
21 3 -7.20473 13.086 3.92717 -0.773626
22 3 -4.43036 12.8515 3.78999 -0.734431
28 4 -2.86109 8.36025 8.33709 1.15762
110 2 -2.89769 6.87431 4.28372 0.134888
111 2 -4.58512 9.93572 7.77914 0.185899
112 2 -3.28225 9.70594 6.38242 0.141025
113 2 -2.84531 10.7435 7.98511 0.163104
141 2 -1.61214 10.8139 5.97372 0.163788
142 2 -2.43442 11.0909 4.33559 0.165913
193 1 -3.48216 9.89154 7.48116 -0.673132
225 3 -1.98578 7.18925 7.09353 -0.767692
330 2 -6.80329 13.3824 6.488 0.218515
331 1 -5.87544 12.7837 6.29647 -0.65371
332 2 -5.87703 11.7546 6.7472 0.198647
342 2 -2.29686 8.94214 17.4182 0.142595
343 2 -3.4415 8.82062 1.07602 0.13301
344 1 -3.06027 9.2713 0.103516 -0.674696
349 2 -4.04777 12.6155 0.145553 0.163926
350 2 -4.52781 11.1783 1.34048 0.14467
351 2 -5.33512 12.8918 1.55082 0.196467
352 1 -4.82866 12.1657 0.866162 -0.676888
357 2 -2.31851 12.5991 1.67716 0.18615
376 2 -3.0466 6.95073 1.40647 0.137697
204 1 -1.62396 11.4356 5.03525 -0.671339
25 4 -1.08888 7.22908 5.78524 0.988108
33 4 1.81497 13.3042 2.46584 1.1356
49 4 2.75982 8.09083 2.34449 1.29464
50 4 -0.108273 11.112 3.88523 1.06503
51 4 3.0149 10.8583 0.925755 1.34083
52 4 3.59476 8.94294 7.949 1.50533
54 4 2.49456 10.8186 5.81799 1.31731
83 2 -1.27171 8.65213 4.88123 -0.0253799
93 2 2.43441 12.1036 6.89993 -0.0433301
105 2 4.30036 7.51642 2.87959 0.106057
138 2 0.524296 9.52753 2.14703 0.214532
139 2 -1.34713 9.92404 1.96737 0.14541
140 2 -0.707246 8.75455 3.34895 0.167228
143 2 -1.64929 12.5347 5.23686 0.227216
144 2 -0.288326 10.2919 7.04519 0.184233
145 2 0.7025 11.6697 7.81802 0.155816
146 2 -1.0917 11.8491 7.55054 0.155038
158 2 0.460801 10.9493 0.96064 0.187868
203 1 -0.476605 9.65506 2.68739 -0.667647
205 1 -0.286936 11.1237 7.80597 -0.683054
234 3 0.561126 6.72297 5.89515 -0.766326
245 3 1.7793 7.92837 3.57389 -0.770854
246 3 2.26351 7.06796 1.23414 -0.823968
247 3 0.399412 12.6147 2.89422 -0.733451
248 3 3.11081 9.50755 1.78631 -0.875973
249 3 2.84626 12.1634 1.94382 -0.760357
253 3 1.151 10.8773 4.90681 -0.774065
254 3 2.67483 9.62274 6.78041 -0.853777
285 3 3.70622 11.1063 4.86974 -0.833346
358 2 9.72434 0.462837 0.0574216 0.209717
367 2 0.378361 13.1893 6.02746 0.167331
65 4 6.90273 6.8135 3.59662 1.24886
220 1 5.5096 13.5051 8.37597 -0.695348
45 4 4.77634 6.93213 6.08974 1.4925
58 4 6.22498 13.5004 2.13062 1.5982
69 4 10.4704 7.66663 6.32214 0.982441
73 4 8.62442 8.65319 1.66689 1.27994
74 4 5.15917 11.5386 4.44965 1.29095
75 4 7.67262 11.2747 0.524284 1.29902
76 4 9.01115 10.1677 7.78188 1.31138
78 4 7.70312 12.2283 5.89632 1.28861
100 2 9.97023 7.61147 4.7489 -0.0187621
104 2 9.78509 9.38262 2.57947 -0.00744672
107 2 8.22656 12.3501 4.28545 0.0873476
176 2 6.77665 10.3167 2.99829 0.210244
177 2 4.98857 9.98483 2.62896 0.233676
178 2 5.80616 9.07166 4.04516 0.247619
179 2 6.58456 7.36391 7.80745 0.280859
181 2 8.32728 7.51448 8.7659 0.198725
183 2 6.71928 9.10508 8.11452 0.236558
217 1 5.78424 10.0328 3.42067 -0.682884
218 1 7.63085 6.8414 8.09189 -0.655243
219 1 7.35167 9.83413 8.70516 -0.67994
251 3 5.00294 7.90755 7.38071 -0.81925
268 3 6.14335 7.41132 4.97114 -0.770422
282 3 7.92471 7.83699 2.87271 -0.835365
283 3 9.29599 7.8302 0.532857 -0.862009
284 3 5.43077 13.1444 3.42865 -0.809635
286 3 9.23239 11.6384 0.459188 -0.836245
287 3 7.66325 9.71404 0.971503 -0.836126
288 3 6.7941 12.1791 1.36132 -0.868495
289 3 9.586 8.69464 7.09328 -0.796205
293 3 6.19048 11.6807 5.70479 -0.827096
294 3 8.56846 11.132 6.5951 -0.831369
328 2 9.49884 10.4125 3.86358 0.16231
383 2 5.14211 7.21406 17.2286 0.182188
385 2 4.73742 12.8895 7.88107 0.168182
20 1 10.622 10.3598 4.05989 -0.676596
101 2 11.9688 8.41957 6.02011 -0.0430289
13 2 -2.01377 4.67006 10.0723 0.142746
84 2 -1.91114 5.38979 12.7054 -0.0489054
223 3 -2.2008 3.53419 14.5727 -0.820999
375 2 15.1302 2.62709 10.7527 0.159919
324 2 -1.23499 4.52284 0.113567 0.172108
7 4 0.267819 3.1034 17.1219 0.804218
8 2 1.15308 4.14769 16.1144 0.0746275
9 3 -0.831704 2.02092 16.2102 -0.776413
14 2 -0.96623 5.62248 8.76087 0.178488
15 2 -0.0813868 4.25981 9.99905 0.103762
16 1 -1.07862 4.69395 9.42662 -0.656878
26 4 -1.21256 4.60087 14.0452 0.941768
44 4 2.0785 6.7158 9.71301 1.09173
47 4 0.174793 6.66685 15.9052 1.1703
85 2 -0.0500172 3.81905 13.0787 -0.0499396
123 2 4.38674 2.06886 10.6486 0.15314
124 2 2.43931 2.38378 10.723 0.128628
125 2 3.63044 3.80035 10.1875 0.20547
132 2 2.08486 4.29559 9.0629 0.149905
136 2 4.18023 3.22979 13.5806 0.178966
155 2 2.87236 7.10057 12.7281 0.240519
156 2 2.51068 6.44239 14.3839 0.208393
198 1 3.46917 2.67771 10.2339 -0.67479
241 3 -0.54109 5.65746 14.994 -0.865898
242 3 1.7281 5.7996 16.3683 -0.810852
243 3 2.986 6.12439 10.8554 -0.785464
322 2 2.57974 2.29288 17.4177 0.163911
334 2 0.585588 1.07392 12.5284 0.149008
335 2 -0.133259 1.84817 14.1334 0.185068
336 1 0.0869953 0.919443 13.5365 -0.67005
337 2 3.65722 0.924274 14.6918 0.180434
338 2 2.70656 1.13406 16.2322 0.176274
339 2 2.22041 2.20673 14.708 0.133774
340 1 2.66165 1.173 15.1336 -0.656687
345 2 -0.105827 0.436958 8.82622 0.182994
346 2 1.5513 0.429169 9.7392 0.148921
347 2 -0.0280473 0.922528 10.6691 0.162039
348 1 0.434576 0.296452 9.82319 -0.669604
368 2 3.28869 0.408477 11.9495 0.159474
137 2 5.13622 3.4721 15.1609 0.164868
39 4 7.85308 2.00886 11.1424 1.30684
46 4 6.33986 4.12955 13.1394 1.31899
48 4 4.90312 6.05743 11.0388 1.29726
60 4 10.3096 2.50289 9.2319 1.27708
63 4 9.97381 2.84788 16.0112 1.35086
68 4 7.26257 5.28121 9.14881 1.31211
71 4 7.69652 6.27096 15.0772 1.31911
72 4 9.45212 6.14087 11.25 1.52604
89 2 6.71666 1.66638 10.0009 -0.0202126
103 2 6.63455 6.28186 16.3776 0.0122151
119 2 5.22031 0.273199 9.31072 0.138361
135 2 5.44038 1.94526 14.0408 0.174765
162 2 9.67069 0.614036 15.4971 0.165712
163 2 9.48739 1.63254 13.7993 0.198588
164 2 8.04383 1.50711 15.0395 0.162419
202 1 5.11308 3.0201 14.0997 -0.675503
212 1 9.18961 1.47573 14.8925 -0.677609
232 3 8.06147 0.719085 11.9493 -0.862917
240 3 7.12128 3.05621 12.1232 -0.794054
244 3 5.34323 5.24445 12.3889 -0.79365
262 3 9.16041 2.46035 10.3441 -0.805396
265 3 8.65136 3.42193 16.9647 -0.784919
273 3 5.76559 5.62867 9.84089 -0.843774
275 3 10.7325 3.84845 14.8432 -0.777273
277 3 7.36079 4.96355 14.2482 -0.777986
278 3 9.18399 6.43429 15.6707 -0.831176
280 3 8.50147 5.28126 10.2091 -0.787077
281 3 9.9134 5.26096 12.5821 -0.775513
363 2 6.44367 1.94859 16.247 0.143909
364 2 5.04137 3.03119 17.1047 0.175835
365 1 5.93776 2.25818 17.2902 -0.684242
64 4 12.7062 3.1482 11.0103 1.02673
70 4 11.1733 4.5195 13.4598 1.37132
99 2 13.1001 4.64616 10.2874 -0.0263247
165 2 13.9732 1.12135 10.9644 0.198819
166 2 14.3822 2.21917 12.5132 0.203567
169 2 12.4148 5.46645 8.90621 0.234063
173 2 13.2318 5.67475 12.986 0.139751
174 2 12.8944 5.79082 14.8059 0.177618
175 2 11.9611 6.84663 13.6465 0.169866
185 2 12.4977 0.732501 9.02211 0.200964
213 1 14.2955 2.12031 11.3524 -0.677686
216 1 12.4495 5.86187 13.777 -0.690675
264 3 10.9589 1.95864 16.9208 -0.831444
266 3 11.7765 2.29147 9.94952 -0.809095
276 3 11.9745 3.45252 12.4774 -0.795732
279 3 10.8019 6.53458 10.4348 -0.848277
305 4 14.5488 2.25158 15.6366 1.48241
306 3 13.5526 2.66036 16.8871 -0.804904
307 3 13.8252 0.989013 14.8433 -0.791557
371 2 12.0033 1.46881 12.8559 0.258754
372 2 12.2815 -0.0324557 11.6946 0.185617
373 1 11.9754 0.362191 12.7371 -0.672147
23 4 -6.0996 13.5005 14.6221 1.11337
27 4 -4.30224 8.2859 16.2833 1.03611
30 4 -3.12809 9.54237 13.546 1.24543
31 4 -6.56869 11.6247 17.2546 1.01525
32 4 -4.85815 11.761 12.1745 1.32481
102 2 -3.6936 6.64149 16.4083 -0.0262093
114 2 -2.29767 7.88567 11.5629 0.198906
115 2 -2.41206 7.25019 13.3377 0.157193
148 2 -2.51934 11.3961 10.6741 0.208435
150 2 -3.58794 13.3076 10.292 0.164639
151 2 -2.70367 12.9205 11.9878 0.194214
159 2 -2.22548 11.8851 17.1651 0.160453
160 2 -2.932 12.8094 15.6732 0.175117
194 1 -2.22235 8.13393 12.6229 -0.677715
207 1 -3.71744 13.1149 11.478 -0.660128
224 3 -4.1682 7.6901 9.05409 -0.815567
226 3 -3.88615 8.77655 14.8233 -0.80552
227 3 -6.56898 12.5983 15.9492 -0.760426
228 3 -6.13837 11.7475 11.2488 -0.819521
229 3 -4.07037 10.3577 12.2217 -0.797536
230 3 -5.29451 12.4043 13.6666 -0.758139
256 3 -2.11698 10.6394 14.2198 -0.80407
317 2 -3.95764 7.75244 11.7285 -0.0117397
341 2 -3.25309 10.3987 0.0273274 0.163342
366 2 -3.81796 13.1058 8.65574 0.151137
147 2 -1.00457 11.9069 11.6051 0.230045
38 4 0.802357 13.0731 12.8415 1.27981
53 4 -0.600518 10.2981 9.53673 1.11493
55 4 1.82349 8.75205 14.2708 1.2626
56 4 -1.15827 11.6697 14.8148 1.06348
57 4 1.7214 10.3849 11.6615 1.44806
77 4 4.23507 10.9678 10.2091 1.26545
80 4 4.05694 10.8751 15.646 1.33358
91 2 0.545496 7.20404 10.278 0.0243766
92 2 -0.767454 6.85231 17.2693 -0.0274951
94 2 -0.018954 10.936 15.9382 0.0111199
98 2 2.01263 13.3744 13.9842 0.00109889
106 2 3.66396 12.4539 9.77843 -0.037496
116 2 -1.11975 8.61466 12.8439 0.211678
149 2 -1.28091 12.6079 9.88773 0.137176
157 2 4.02125 7.57206 14.1461 0.16394
161 2 -1.47268 13.462 16.6346 0.164785
206 1 -1.4305 11.6977 10.5886 -0.670596
209 1 2.97318 7.29518 13.8051 -0.685535
210 1 1.21983 10.9158 0.120635 -0.686336
211 1 -1.95655 12.5469 16.2939 -0.679891
250 3 2.68986 7.8776 8.82497 -0.798123
252 3 -1.69977 9.011 9.41542 -0.756532
255 3 0.628424 8.06915 15.368 -0.816632
257 3 -0.523054 12.6556 13.6995 -0.829723
258 3 0.820852 9.95892 10.2356 -0.772003
259 3 1.19051 9.20529 12.8899 -0.803432
260 3 1.41525 11.9117 12.0778 -0.889382
291 3 4.23821 10.0903 8.87115 -0.869513
292 3 3.31296 10.307 11.3283 -0.820435
298 3 2.89246 9.93654 14.9485 -0.819182
300 3 3.77119 10.988 17.2522 -0.824284
369 2 0.91424 9.95502 17.0372 0.189925
370 2 1.00968 11.856 17.084 0.141462
374 2 3.53718 13.5204 13.0901 0.173459
380 2 3.63719 8.41693 17.2184 0.195363
382 1 4.09859 7.4172 16.8448 -0.685833
333 2 16.0834 0.21978 13.4962 0.229637
29 4 9.56271 12.0637 10.225 1.30587
62 4 5.67708 13.2828 14.0165 1.26254
66 4 9.87954 7.05247 17.0378 1.48152
79 4 8.24173 8.44111 13.0025 1.32484
81 4 6.99246 11.4147 11.8374 1.54495
152 2 6.29015 8.07693 10.8239 0.214469
153 2 5.27949 8.182 12.3778 0.216384
154 2 4.39035 8.30623 10.66 0.229737
182 2 7.6549 9.3934 9.67039 0.182043
184 2 6.79484 10.7598 8.83499 0.235465
186 2 9.79311 9.75135 14.5479 0.197961