LAMMPS (2 Aug 2023 - Update 2)
  using 2 OpenMP thread(s) per MPI task
Reading data file ...
  triclinic box = (0 0 0) to (16.8189 12.842 16.0755) with tilt (-8.3798 1.195 0.4312)
WARNING: Triclinic box skew is large. LAMMPS will run inefficiently. (src/domain.cpp:220)
  2 by 1 by 2 MPI processor grid
  reading atoms ...
  274 atoms
Finding 1-2 1-3 1-4 neighbors ...
  special bond factors lj:    0        0        0       
  special bond factors coul:  0        0        0       
     0 = max # of 1-2 neighbors
     0 = max # of 1-3 neighbors
     0 = max # of 1-4 neighbors
     1 = max # of special neighbors
  special bonds CPU = 0.000 seconds
  read_data CPU = 0.007 seconds
WARNING: Van der Waals parameters for element SI indicate inner wall+shielding, but earlier atoms indicate a different van der Waals method. This may cause division-by-zero errors. Keeping van der Waals setting for earlier atoms. (src/REAXFF/reaxff_ffield.cpp:251)
*****Minimization starts.*****

CITE-CITE-CITE-CITE-CITE-CITE-CITE-CITE-CITE-CITE-CITE-CITE-CITE

Your simulation uses code contributions which should be cited:
- pair reaxff command: doi:10.1016/j.parco.2011.08.005
- fix qeq/reaxff command: doi:10.1016/j.parco.2011.08.005
The log file lists these citations in BibTeX format.

CITE-CITE-CITE-CITE-CITE-CITE-CITE-CITE-CITE-CITE-CITE-CITE-CITE

Switching to 'neigh_modify every 1 delay 0 check yes' setting during minimization
WARNING: Fix qeq/reaxff group is not charge neutral, net charge = -8.2 (src/REAXFF/fix_qeq_reaxff.cpp:392)
Neighbor list info ...
  update: every = 1 steps, delay = 0 steps, check = yes
  max neighbors/atom: 2000, page size: 100000
  master list distance cutoff = 12
  ghost atom cutoff = 12
  binsize = 6, bins = 5 3 3
  2 neighbor lists, perpetual/occasional/extra = 2 0 0
  (1) pair reaxff, perpetual
      attributes: half, newton off, ghost
      pair build: half/bin/newtoff/ghost
      stencil: full/ghost/bin/3d
      bin: standard
  (2) fix qeq/reaxff, perpetual, copy from (1)
      attributes: half, newton off
      pair build: copy
      stencil: none
      bin: none
Setting up cg style minimization ...
  Unit style    : real
  Current step  : 0
Per MPI rank memory allocation (min/avg/max) = 135.7 | 136.4 | 137 Mbytes
   Step          Temp          Press         Density         Volume         PotEng         TotEng    
         0   0              123127.02      1.4594291      3472.1201     -22962.516     -22962.516    
        51   0             -11567.942      1.4594291      3472.1201     -26428.49      -26428.49     
Loop time of 3.61262 on 8 procs for 51 steps with 274 atoms

96.6% CPU use with 4 MPI tasks x 2 OpenMP threads

Minimization stats:
  Stopping criterion = energy tolerance
  Energy initial, next-to-last, final = 
     -22962.5161588617  -26428.4890638349   -26428.490224027
  Force two-norm initial, final = 3932.9092 62.920926
  Force max component initial, final = 549.8429 19.845077
  Final line search alpha, max atom move = 0.0005168385 0.0102567
  Iterations, force evaluations = 51 124

MPI task timing breakdown:
Section |  min time  |  avg time  |  max time  |%varavg| %total
---------------------------------------------------------------
Pair    | 2.5017     | 2.5828     | 2.663      |   4.4 | 71.49
Bond    | 0.00024486 | 0.00026433 | 0.0002765  |   0.0 |  0.01
Neigh   | 0.018754   | 0.020832   | 0.024271   |   1.4 |  0.58
Comm    | 0.074303   | 0.15511    | 0.23639    |  18.1 |  4.29
Output  | 0.0085296  | 0.010631   | 0.011765   |   1.2 |  0.29
Modify  | 0.83192    | 0.83538    | 0.8374     |   0.2 | 23.12
Other   |            | 0.007564   |            |       |  0.21

Nlocal:           68.5 ave          73 max          63 min
Histogram: 1 0 0 0 0 0 2 0 0 1
Nghost:           3408 ave        3441 max        3377 min
Histogram: 1 1 0 0 0 0 0 1 0 1
Neighs:          36965 ave       39279 max       34207 min
Histogram: 1 0 0 0 0 2 0 0 0 1

Total # of neighbors = 147860
Ave neighs/atom = 539.63504
Ave special neighs/atom = 0
Neighbor list builds = 1
Dangerous builds = 0
System init for write_data ...
##### Equilibration starts.##### 
WARNING: Compute rdf cutoff less than neighbor cutoff - forcing a needless neighbor list build (src/compute_rdf.cpp:179)
Neighbor list info ...
  update: every = 10 steps, delay = 0 steps, check = yes
  max neighbors/atom: 2000, page size: 100000
  master list distance cutoff = 12
  ghost atom cutoff = 12
  binsize = 6, bins = 5 3 3
  3 neighbor lists, perpetual/occasional/extra = 2 1 0
  (1) pair reaxff, perpetual
      attributes: half, newton off, ghost
      pair build: half/bin/newtoff/ghost
      stencil: full/ghost/bin/3d
      bin: standard
  (2) compute rdf, occasional
      attributes: half, newton on, cut 7
      pair build: half/bin/newton/tri
      stencil: half/bin/3d/tri
      bin: standard
  (3) fix qeq/reaxff, perpetual, copy from (1)
      attributes: half, newton off
      pair build: copy
      stencil: none
      bin: none
Setting up Verlet run ...
  Unit style    : real
  Current step  : 0
  Time step     : 0.5
Per MPI rank memory allocation (min/avg/max) = 140.9 | 141.6 | 142.3 Mbytes
   Step          Temp          Press          PotEng         TotEng    
         0   300           -8354.2407     -26428.49      -26184.362    
       100   259.95436     -7393.8017     -26364.917     -26153.376    
       200   353.83637      111.97116     -26438.651     -26150.712    
       300   367.71401      5474.9671     -26511.672     -26212.44     
       400   316.60447      1378.6611     -26564.537     -26306.897    
       500   373.10419     -5750.5673     -26704.246     -26400.629    
       600   286.97271     -3327.9285     -26702.099     -26468.571    
       700   247.70453     -7157.2071     -26712.369     -26510.796    
       800   252.74048     -6351.8058     -26736.305     -26530.634    
       900   281.80374      2568.1199     -26757.267     -26527.946    
      1000   340.29991     -302.10698     -26812.481     -26535.558    
      1100   322.75749     -7497.8854     -26827.075     -26564.428    
      1200   294.45844      2738.0579     -26825.299     -26585.68     
      1300   338.90717     -4635.7117     -26887.052     -26611.262    
      1400   279.41162      7052.1418     -26851.323     -26623.949    
      1500   378.12132     -4903.7055     -26939.895     -26632.195    
      1600   297.78379      242.71565     -26900.887     -26658.562    
      1700   267.21705      2666.662      -26904.346     -26686.895    
      1800   303.86343     -3715.4336     -26948.919     -26701.647    
      1900   289.51491      264.1722      -26953.322     -26717.726    
      2000   314.93234     -14779.148     -26970.15      -26713.87     
      2100   357.01586      4948.6905     -26977.724     -26687.198    
      2200   332.7849       4859.5407     -26961.947     -26691.14     
      2300   297.0879       444.72138     -26950.718     -26708.96     
      2400   278.41609     -4047.4966     -26957.486     -26730.922    
      2500   315.88276      2054.8409     -27005.453     -26748.4      
      2600   290.37234     -1950.0371     -26995.392     -26759.099    
      2700   327.01033     -7732.7107     -27011.225     -26745.116    
      2800   358.73311      4099.5139     -27050.378     -26758.455    
      2900   338.54607      6610.7708     -27069.061     -26793.566    
      3000   331.626        788.74955     -27087.552     -26817.688    
      3100   323.17007     -5871.5458     -27110.688     -26847.705    
      3200   299.74098      8053.5305     -27122.392     -26878.475    
      3300   324.41853     -720.41558     -27173.172     -26909.172    
      3400   312.03403      4501.1058     -27184.28      -26930.359    
      3500   297.06936      1626.1378     -27185.675     -26943.931    
      3600   286.75784      10184.021     -27196.518     -26963.165    
      3700   310.55048      3293.8114     -27232.116     -26979.402    
      3800   339.87508      1207.9251     -27261.679     -26985.102    
      3900   320.17392      45.676454     -27251.732     -26991.187    
      4000   311.22389      62.563791     -27259.817     -27006.556    
      4100   298.42088      7398.8453     -27281.053     -27038.209    
      4200   298.41618     -12648.026     -27286.8       -27043.96     
      4300   315.51816      7307.4114     -27294.679     -27037.923    
      4400   361.94567     -12052.299     -27316.598     -27022.06     
      4500   312.89657      10803.556     -27309.439     -27054.815    
      4600   296.82634      20004.631     -27317.659     -27076.113    
      4700   297.87194      9585.4621     -27331.259     -27088.862    
      4800   293.07081      4548.9175     -27338.212     -27099.723    
      4900   293.08896      6754.3074     -27329.55      -27091.046    
      5000   333.08035     -6357.3967     -27335.442     -27064.394    
      5100   338.2065       5973.2832     -27355.008     -27079.789    
      5200   331.15476     -9808.1598     -27377.047     -27107.566    
      5300   308.16676     -14749.655     -27388.164     -27137.39     
      5400   296.91861     -11961.396     -27405.044     -27163.423    
      5500   335.97854     -4227.2806     -27461.023     -27187.617    
      5600   289.83308     -6912.02       -27440.989     -27205.134    
      5700   297.26314      13487.104     -27457.902     -27216.001    
      5800   306.85948     -6443.0953     -27480.483     -27230.773    
      5900   310.99325      7631.1031     -27512.702     -27259.628    
      6000   405.65212     -2912.8154     -27618.103     -27287.999    
      6100   276.12732      1178.2756     -27543.745     -27319.044    
      6200   353.86697     -4229.7205     -27644.616     -27356.653    
      6300   277.73        -7052.3831     -27611.27      -27385.264    
      6400   270.26269     -2801.8123     -27628.834     -27408.905    
      6500   348.39605      1049.4505     -27718.311     -27434.8      
      6600   278.43423     -10661.058     -27673.09      -27446.511    
      6700   309.56292     -3053.8838     -27731.16      -27479.25     
      6800   252.57656     -4368.9292     -27694.218     -27488.681    
      6900   283.95749     -5707.2096     -27718.008     -27486.935    
      7000   336.22446     -3832.8429     -27764.496     -27490.89     
      7100   347.09997     -11059.653     -27786.887     -27504.43     
      7200   323.03682     -6507.6882     -27789.722     -27526.847    
      7300   325.69675     -16939.626     -27797.755     -27532.715    
      7400   344.61765     -11418.029     -27797.304     -27516.867    
      7500   343.47225     -11574.965     -27771.654     -27492.149    
      7600   280.49971     -14625.348     -27725.156     -27496.897    
      7700   287.03328     -7579.938      -27739.983     -27506.406    
      7800   270.91183     -14612.969     -27744.16      -27523.702    
      7900   313.13344     -4340.9543     -27802.441     -27547.625    
      8000   299.70323     -6874.7848     -27827.377     -27583.49     
      8100   311.93155      6908.9023     -27856.426     -27602.588    
      8200   275.49158      661.36116     -27841.26      -27617.076    
      8300   304.17538     -10084.917     -27865.876     -27618.35     
      8400   344.55068     -634.64848     -27880.241     -27599.859    
      8500   336.48735     -11685.746     -27857.333     -27583.513    
      8600   358.66822     -12488.372     -27908.004     -27616.134    
      8700   341.82419      443.64025     -27945.585     -27667.422    
      8800   355.49832      2997.0802     -28001.431     -27712.14     
      8900   319.36401     -5123.0152     -28014.542     -27754.656    
      9000   326.51953     -2426.1933     -28055.552     -27789.843    
      9100   258.9901      -10050.346     -28025.773     -27815.017    
      9200   288.72583     -4849.4256     -28061.704     -27826.75     
      9300   311.07708      2076.37       -28066.852     -27813.709    
      9400   272.25874     -967.983       -28017.747     -27796.193    
      9500   317.47527     -11698.781     -28052.014     -27793.665    
      9600   303.55984      3970.5789     -28056.113     -27809.088    
      9700   245.0723      -5812.8456     -28034.925     -27835.495    
      9800   304.96186     -3949.0715     -28082.791     -27834.624    
      9900   301.44695     -12455.569     -28063.659     -27818.353    
     10000   249.67507     -17380.767     -28007.008     -27803.832    
     10100   316.30102     -17296.144     -28060.837     -27803.443    
     10200   281.09785     -7452.7352     -28048.004     -27819.257    
     10300   288.02024     -7060.2217     -28071.209     -27836.829    
     10400   303.8727       6466.2972     -28091.129     -27843.849    
     10500   284.70202     -8720.2659     -28067.094     -27835.414    
     10600   295.91003     -18331.335     -28066.054     -27825.254    
     10700   334.52288     -963.66585     -28100.202     -27827.98     
     10800   305.75533     -3227.3518     -28086.466     -27837.654    
     10900   277.54404     -16001.625     -28077.078     -27851.224    
     11000   299.49072     -8723.3171     -28107.292     -27863.578    
     11100   299.23769      4115.769      -28099.017     -27855.509    
     11200   287.26713     -15470.45      -28060.439     -27826.672    
     11300   316.78476     -16483.906     -28075.238     -27817.451    
     11400   310.34621     -15391.253     -28072.267     -27819.719    
     11500   252.2482      -4936.8221     -28045.747     -27840.477    
     11600   243.20363     -3775.2341     -28063.829     -27865.919    
     11700   303.42388     -615.77934     -28105.287     -27858.373    
     11800   309.35707      6344.0168     -28101.608     -27849.865    
     11900   282.90519      2812.7614     -28070.666     -27840.449    
     12000   327.57461     -656.61901     -28103.629     -27837.061    
     12100   328.14982     -14126.154     -28106.48      -27839.445    
     12200   308.0547      -14703.925     -28098.95      -27848.267    
     12300   270.04562     -5486.7726     -28078.553     -27858.8      
     12400   305.91474     -8067.8458     -28117.19      -27868.248    
     12500   298.17165      2312.0058     -28107.033     -27864.393    
     12600   326.89243      434.90255     -28107.843     -27841.831    
     12700   275.63968     -10368.659     -28057.071     -27832.766    
     12800   300.08785     -13891.51      -28090.912     -27846.712    
     12900   274.0196      -9780.9624     -28094.046     -27871.059    
     13000   292.07845     -9676.3208     -28133.641     -27895.959    
     13100   281.32064     -10015.499     -28111.742     -27882.815    
     13200   242.39179     -1607.1817     -28061.251     -27864.002    
     13300   305.01999     -4988.2599     -28094.224     -27846.011    
     13400   304.61341      10673.388     -28084.561     -27836.678    
     13500   271.07402     -4518.9228     -28054.813     -27834.223    
     13600   348.55873     -17867.441     -28114.358     -27830.715    
     13700   331.43863     -4461.1224     -28115.615     -27845.903    
     13800   237.19948     -2012.4718     -28060.78      -27867.756    
     13900   297.51265      689.86357     -28105.723     -27863.619    
     14000   319.74883     -5447.6023     -28099.714     -27839.514    
     14100   267.33599     -12581.432     -28048.498     -27830.951    
     14200   334.271        1296.3317     -28109.805     -27837.788    
     14300   324.67461      2698.358      -28115.804     -27851.596    
     14400   268.98399     -7870.1775     -28079.345     -27860.456    
     14500   307.10124     -9113.3575     -28113.409     -27863.502    
     14600   308.58848     -12751.733     -28092.815     -27841.698    
     14700   266.94563     -19326.601     -28038.938     -27821.708    
     14800   313.85918     -10047.264     -28085.585     -27830.179    
     14900   309.66497     -9711.1727     -28104.514     -27852.521    
     15000   250.49316     -12149.571     -28067.356     -27863.514    
     15100   287.70837     -903.36305     -28096.838     -27862.712    
     15200   314.73954     -7965.7308     -28110.26      -27854.137    
     15300   286.57063     -8974.9534     -28083.58      -27850.38     
     15400   345.80099     -3366.9642     -28129.189     -27847.789    
     15500   328.34728     -11494.591     -28125.552     -27858.356    
     15600   282.21467     -7091.5651     -28088.994     -27859.339    
     15700   310.53279     -5370.7858     -28085.913     -27833.214    
     15800   348.18059      268.87598     -28103.079     -27819.744    
     15900   281.37369     -3659.813      -28064.166     -27835.195    
     16000   292.80637     -8722.5918     -28084.317     -27846.042    
     16100   302.36838     -11340.23      -28095.618     -27849.562    
     16200   267.64246     -10979.772     -28069.426     -27851.629    
     16300   286.63452     -3710.8045     -28088.367     -27855.115    
     16400   288.9528      -3410.2387     -28092.685     -27857.546    
     16500   310.45516     -1588.864      -28097.116     -27844.48     
     16600   346.66462     -10765.443     -28105.207     -27823.104    
     16700   281.11804     -16098.48      -28054.474     -27825.711    
     16800   304.67797     -10654.885     -28095.654     -27847.719    
     16900   296.05581     -6429.3417     -28106.716     -27865.798    
     17000   286.08457     -8007.9742     -28103.5       -27870.696    
     17100   310.71042     -5295.001      -28108.165     -27855.321    
     17200   299.74907      1910.0478     -28076.222     -27832.298    
     17300   356.26492     -3162.0821     -28116.848     -27826.933    
     17400   317.58456     -2430.058      -28098.547     -27840.109    
     17500   301.17716     -9873.2328     -28101.433     -27856.347    
     17600   306.38283     -4419.7207     -28100.592     -27851.27     
     17700   292.91022     -10948.866     -28059.168     -27820.809    
     17800   344.89746      3650.5621     -28094.6       -27813.936    
     17900   284.26769     -1571.2306     -28062.028     -27830.702    
     18000   331.57733     -12581.554     -28107.292     -27837.467    
     18100   323.61616     -7680.6673     -28109.395     -27846.049    
     18200   280.7686      -8622.8875     -28079.738     -27851.259    
     18300   295.03118     -1151.6237     -28092.776     -27852.691    
     18400   285.45431     -4784.1215     -28072.26      -27839.968    
     18500   319.66138      1481.7397     -28084.224     -27824.096    
     18600   291.22453      3635.0198     -28067.179     -27830.191    
     18700   291.22149     -3670.8144     -28099.558     -27862.573    
     18800   283.12805     -15767.767     -28097.59      -27867.192    
     18900   249.9913      -3297.7864     -28055.616     -27852.183    
     19000   324.09903     -2391.0444     -28102.911     -27839.172    
     19100   281.41759     -8449.1165     -28068.597     -27839.59     
     19200   301.39156      1181.752      -28079.422     -27834.161    
     19300   335.10429     -7935.2291     -28083.76      -27811.065    
     19400   303.59618     -604.63879     -28062.497     -27815.443    
     19500   290.16532      571.77251     -28083.556     -27847.431    
     19600   252.71783      2469.2652     -28063.958     -27858.306    
     19700   315.58013     -4277.3638     -28111.191     -27854.384    
     19800   319.07409     -9634.7516     -28094.037     -27834.387    
     19900   260.94231     -8223.0923     -28030.994     -27818.649    
     20000   293.58316     -1664.9125     -28071.066     -27832.159    
     20100   278.52882     -5800.7654     -28090.27      -27863.614    
     20200   256.91618     -8385.6451     -28071.644     -27862.575    
     20300   316.76786     -2983.9581     -28101.802     -27844.029    
     20400   304.48066     -2773.0541     -28078.074     -27830.299    
     20500   273.41259      423.75046     -28057.587     -27835.094    
     20600   324.4519      -12907.863     -28107.691     -27843.664    
     20700   317.23248     -6757.5116     -28110.755     -27852.604    
     20800   316.60146      6256.0374     -28119.375     -27861.737    
     20900   304.05451      11099.895     -28098.678     -27851.25     
     21000   304.02856     -6914.638      -28069.07      -27821.664    
     21100   330.03838     -5501.0784     -28094.237     -27825.665    
     21200   319.8127      -10514.446     -28105.04      -27844.789    
     21300   333.09035     -4839.5102     -28121.277     -27850.221    
     21400   309.61318     -9484.3242     -28116.688     -27864.736    
     21500   281.63069     -4931.9676     -28101.371     -27872.191    
     21600   285.64009     -13509.465     -28076.928     -27844.485    
     21700   284.67376     -9208.9788     -28057.425     -27825.768    
     21800   297.62309     -1182.5968     -28076.995     -27834.801    
     21900   300.89176     -10547.044     -28105.886     -27861.032    
     22000   279.38548     -4632.0457     -28091.683     -27864.33     
     22100   303.57354     -1161.1364     -28102.686     -27855.65     
     22200   276.45094      1384.004      -28071.883     -27846.918    
     22300   279.27847     -3729.4152     -28049.634     -27822.368    
     22400   323.92522     -3229.3735     -28068.872     -27805.274    
     22500   313.38122      4132.0188     -28084.545     -27829.528    
     22600   272.7097      -8657.6319     -28069.647     -27847.726    
     22700   260.69581     -16745.677     -28063.676     -27851.532    
     22800   303.70586     -7232.9838     -28103.097     -27855.953    
     22900   296.77067     -3954.331      -28090.928     -27849.428    
     23000   304.45539     -6963.2427     -28078.415     -27830.661    
     23100   290.25893     -11269.324     -28056.739     -27820.537    
     23200   300.73381     -4273.3986     -28094.792     -27850.066    
     23300   299.96294     -11497.942     -28106.243     -27862.145    
     23400   306.93788      764.83686     -28100.431     -27850.657    
     23500   345.3195      -3219.5907     -28124.739     -27843.731    
     23600   304.82911     -2229.3053     -28098.251     -27850.193    
     23700   304.72037     -3512.567      -28120.566     -27872.597    
     23800   257.97273     -4827.631      -28116.737     -27906.809    
     23900   270.15189      1407.531      -28116.952     -27897.113    
     24000   298.75509     -16062.08      -28118.925     -27875.81     
     24100   316.69739      1815.0056     -28116.666     -27858.95     
     24200   299.83092     -6102.6187     -28097.716     -27853.725    
     24300   307.83635      3874.0205     -28110.337     -27859.832    
     24400   277.31287     -10602.675     -28119.09      -27893.423    
     24500   291.11865     -8524.0783     -28135.841     -27898.94     
     24600   310.23849     -2707.7636     -28138.038     -27885.578    
     24700   314.91078     -2046.4512     -28120.922     -27864.66     
     24800   274.15216      1587.9375     -28074.394     -27851.3      
     24900   309.9094      -2752.1969     -28107.066     -27854.873    
     25000   269.54855     -687.68344     -28086.468     -27867.12     
     25100   306.20464      5517.6166     -28130.86      -27881.683    
     25200   316.16153      5867.1178     -28145.259     -27887.979    
     25300   318.67817     -3143.5251     -28132.223     -27872.895    
     25400   348.19474      1722.0341     -28128.633     -27845.286    
     25500   316.00656     -5502.9612     -28109.166     -27852.012    
     25600   325.7065       803.24679     -28135.805     -27870.758    
     25700   267.15371     -3179.83       -28097.051     -27879.652    
     25800   304.99544      1112.9856     -28127.151     -27878.958    
     25900   307.96336     -8832.163      -28127.082     -27876.474    
     26000   280.91537     -13833.6       -28088.271     -27859.673    
     26100   309.90454     -5510.7754     -28088.924     -27836.736    
     26200   278.28257      5358.2055     -28080.483     -27854.028    
     26300   320.46072      9256.8602     -28137.762     -27876.983    
     26400   308.30231     -10694.578     -28132.417     -27881.532    
     26500   314.05785     -12925.019     -28129.902     -27874.334    
     26600   327.56878     -4095.1067     -28132.542     -27865.979    
     26700   301.1027       2592.9226     -28095.431     -27850.405    
     26800   328.66162     -1828.3788     -28114.005     -27846.553    
     26900   271.5766      -14433.583     -28096.476     -27875.478    
     27000   277.34725     -1372.3523     -28111.533     -27885.839    
     27100   277.56601      2903.954      -28102.503     -27876.631    
     27200   322.54018     -8422.3381     -28120.533     -27858.062    
     27300   299.71469     -11847.085     -28093.115     -27849.219    
     27400   294.34882     -9774.5513     -28120.812     -27881.282    
     27500   262.15245      3874.8363     -28105.647     -27892.318    
     27600   290.9304      -2886.9102     -28124.651     -27887.903    
     27700   294.93423      14158.361     -28105.713     -27865.707    
     27800   325.91762     -9830.3386     -28120.232     -27855.013    
     27900   287.87672     -8609.4501     -28099.353     -27865.09     
     28000   323.72684     -2243.9648     -28160.86      -27897.424    
     28100   310.60153     -5881.6243     -28148.333     -27895.578    
     28200   290.9229      -5109.3658     -28109.446     -27872.704    
     28300   290.13597     -308.93118     -28097.311     -27861.209    
     28400   285.92167      6075.8234     -28097.938     -27865.266    
     28500   280.17303     -9587.6787     -28101.561     -27873.567    
     28600   299.58669      2575.9722     -28118.867     -27875.075    
     28700   318.0535      -22316.474     -28137.722     -27878.902    
     28800   302.23865      1980.6331     -28124.214     -27878.264    
     28900   344.61447      9102.6316     -28149.146     -27868.712    
     29000   340.45617     -9686.4741     -28125.58      -27848.53     
     29100   316.33839     -13206.492     -28115.904     -27858.48     
     29200   255.69677     -12178.533     -28094.928     -27886.852    
     29300   267.27256     -4746.7848     -28105.151     -27887.655    
     29400   309.65742     -16405.707     -28136.085     -27884.098    
     29500   327.43172     -10340.817     -28137.49      -27871.039    
     29600   322.06873     -3898.1416     -28103.462     -27841.375    
     29700   340.43425      2135.508      -28125.881     -27848.848    
     29800   335.7259      -1508.8148     -28149.108     -27875.907    
     29900   313.98323     -12835.159     -28142.826     -27887.319    
     30000   316.83805     -10795.66      -28145.862     -27888.031    
     30100   304.34189     -18857.714     -28123.129     -27875.467    
     30200   289.88922     -2101.7265     -28097.158     -27861.257    
     30300   268.97997     -11944.769     -28070.487     -27851.602    
     30400   279.50147     -9812.8575     -28096.055     -27868.608    
     30500   274.77305     -7282.1547     -28118.267     -27894.668    
     30600   283.05418     -5420.3051     -28126.761     -27896.423    
     30700   313.2861      -15635.902     -28138.683     -27883.743    
     30800   329.00942     -1575.7926     -28122.494     -27854.758    
     30900   326.74528     -287.26382     -28115.948     -27850.055    
     31000   314.89077     -7245.8579     -28116.969     -27860.723    
     31100   307.23077     -6123.9173     -28124.512     -27874.5      
     31200   265.00423     -11658.328     -28102.148     -27886.498    
     31300   295.10907     -165.44296     -28126.76      -27886.612    
     31400   321.51703     -1909.9986     -28142.244     -27880.606    
     31500   342.94737     -10617.513     -28144.626     -27865.549    
     31600   318.03117     -7823.6989     -28116.168     -27857.366    
     31700   289.12576     -2321.576      -28097.119     -27861.84     
     31800   305.55324     -411.8869      -28135.89      -27887.243    
     31900   278.73236      2930.0854     -28122.682     -27895.86     
     32000   281.68337     -641.91919     -28116.057     -27886.834    
     32100   288.78195     -15621.395     -28086.163     -27851.164    
     32200   322.52687     -16325.45      -28107.723     -27845.264    
     32300   279.02027     -10092.437     -28088.341     -27861.286    
     32400   332.93075     -10999.793     -28144.241     -27873.314    
     32500   327.96831     -6197.5079     -28153.75      -27886.862    
     32600   258.27995     -13917.722     -28115.641     -27905.463    
     32700   271.57515     -1804.7909     -28147.208     -27926.21     
     32800   276.61342     -5173.5461     -28129.225     -27904.128    
     32900   318.71691     -12100.157     -28145.904     -27886.544    
     33000   292.6972      -13226.267     -28117.695     -27879.51     
     33100   336.02017     -4465.7143     -28146.246     -27872.806    
     33200   305.30735     -94.420532     -28117.854     -27869.407    
     33300   294.75223      6178.3482     -28110.493     -27870.635    
     33400   287.54898     -2621.4369     -28117.255     -27883.259    
     33500   274.41622     -5491.3532     -28115.544     -27892.234    
     33600   289.66718     -9115.6471     -28113.488     -27877.768    
     33700   330.54242     -5430.4278     -28122.571     -27853.589    
     33800   310.94809     -19267.618     -28100.375     -27847.338    
     33900   302.39458     -7496.821      -28111.63      -27865.553    
     34000   295.94047     -6651.4896     -28139.984     -27899.159    
     34100   293.40873      3983.5324     -28129.448     -27890.683    
     34200   282.65691     -8730.5263     -28102.822     -27872.807    
     34300   319.45833     -10559.934     -28116.766     -27856.803    
     34400   318.47468     -8109.685      -28119.677     -27860.514    
     34500   306.04499     -837.05157     -28144.545     -27895.497    
     34600   272.85274     -10158.851     -28113.697     -27891.66     
     34700   335.25039     -10856.656     -28145.691     -27872.877    
     34800   331.42696     -11686.16      -28127.85      -27858.148    
     34900   282.12879     -2152.5043     -28087.045     -27857.46     
     35000   287.78293      10947.004     -28119.595     -27885.408    
     35100   310.86867      2571.9372     -28148.335     -27895.362    
     35200   272.55126     -10153.806     -28110.205     -27888.413    
     35300   296.75054     -1646.4704     -28113.266     -27871.782    
     35400   297.31802     -4403.778      -28101.535     -27859.589    
     35500   327.70642     -12367.981     -28108.521     -27841.846    
     35600   347.3249       9362.4783     -28114.446     -27831.807    
     35700   298.10712     -5990.4069     -28108.341     -27865.753    
     35800   323.75697     -7991.4544     -28153.924     -27890.463    
     35900   280.96607     -10592.427     -28120.118     -27891.479    
     36000   280.48611     -16942.624     -28103.68      -27875.431    
     36100   297.15176     -12348.85      -28102.551     -27860.74     
     36200   314.63153      783.70578     -28118.26      -27862.225    
     36300   318.76699     -8360.2537     -28133.263     -27873.863    
     36400   285.49454     -19359.888     -28121.583     -27889.258    
     36500   277.27739     -5958.6703     -28111.969     -27886.331    
     36600   252.65391     -15959.231     -28065.339     -27859.739    
     36700   337.90433     -4940.2089     -28123.381     -27848.408    
     36800   287.51312     -15668.157     -28097.162     -27863.195    
     36900   293.25664     -4798.8539     -28114.094     -27875.453    
     37000   282.32155     -2088.4367     -28112.994     -27883.252    
     37100   327.13519     -17982.251     -28152.121     -27885.911    
     37200   284.27983     -5117.6137     -28115.161     -27883.825    
     37300   315.99272     -12259.037     -28133.853     -27876.711    
     37400   329.0861      -4509.4725     -28134.23      -27866.433    
     37500   293.44636      2929.4441     -28108.889     -27870.094    
     37600   297.35924     -15124.103     -28133.683     -27891.704    
     37700   281.28191     -7229.2753     -28122.177     -27893.281    
     37800   294.10911      228.69592     -28125.644     -27886.309    
     37900   311.39982      876.95617     -28122.343     -27868.938    
     38000   330.43626     -10105.945     -28125.486     -27856.59     
     38100   289.64141     -5383.5947     -28102.776     -27867.077    
     38200   297.52062     -9380.6644     -28138.103     -27895.992    
     38300   275.42962      3780.5803     -28123.266     -27899.132    
     38400   292.26426     -10564.11      -28124.055     -27886.222    
     38500   321.54612     -17212.478     -28136.107     -27874.445    
     38600   308.53027     -11018.417     -28125.021     -27873.951    
     38700   292.00205     -13083.598     -28125.163     -27887.543    
     38800   238.67672      592.03784     -28110.561     -27916.336    
     38900   286.64922     -7845.3752     -28152.592     -27919.328    
     39000   304.73729     -5678.5325     -28155.54      -27907.557    
     39100   279.864       -10858.999     -28116.399     -27888.656    
     39200   282.33015     -11283.054     -28105.529     -27875.78     
     39300   296.75898     -7640.2178     -28125.692     -27884.201    
     39400   279.66134     -5383.8087     -28140.082     -27912.505    
     39500   293.08375      2011.0847     -28153.487     -27914.987    
     39600   288.68474      2914.8429     -28134.512     -27899.592    
     39700   308.15576      6063.3792     -28143.478     -27892.713    
     39800   270.24657     -16129.213     -28113.144     -27893.228    
     39900   296.89956     -3368.0904     -28148.469     -27906.864    
     40000   300.34459     -7875.3019     -28173.241     -27928.832    
     40100   306.10269      3054.3115     -28170.561     -27921.466    
     40200   309.15351      6852.6528     -28139.749     -27888.172    
     40300   315.58863      5288.3527     -28138.35      -27881.536    
     40400   313.62687     -5254.4506     -28143.458     -27888.241    
     40500   269.4632      -8494.2614     -28127.03      -27907.752    
     40600   257.52339     -10051.086     -28125.726     -27916.164    
     40700   300.10121     -11441.294     -28150.352     -27906.141    
     40800   335.94323     -15287.005     -28150.361     -27876.983    
     40900   340.29859      3517.1675     -28156.202     -27879.28     
     41000   302.32224     -9681.858      -28149.239     -27903.22     
     41100   313.87265     -5142.048      -28166.619     -27911.202    
     41200   317.44845     -13559.326     -28165.482     -27907.155    
     41300   311.09163     -4278.9444     -28144.542     -27891.388    
     41400   363.57674      3808.1636     -28151.342     -27855.477    
     41500   330.37595     -2206.9189     -28124.481     -27855.634    
     41600   318.53338      8128.9077     -28133.557     -27874.347    
     41700   299.05877     -5732.7506     -28139.98      -27896.617    
     41800   282.98518     -1300.182      -28137.604     -27907.322    
     41900   291.84776     -7976.2296     -28138.215     -27900.721    
     42000   301.4516      -9116.3988     -28122.87      -27877.56     
     42100   304.61058     -7665.3555     -28121.734     -27873.853    
     42200   300.24066      4493.4542     -28154.047     -27909.723    
     42300   302.94236      6787.5819     -28171.214     -27924.691    
     42400   300.95764      4734.7622     -28183.452     -27938.545    
     42500   272.04344      1015.7003     -28165.463     -27944.084    
     42600   274.25847     -8258.4611     -28156.75      -27933.569    
     42700   322.87694     -27133.902     -28172.596     -27909.852    
     42800   319.69908     -10829.483     -28163.072     -27902.914    
     42900   316.51577     -780.95475     -28180.639     -27923.071    
     43000   297.7349      -7000.4864     -28192.683     -27950.398    
     43100   298.6822       2810.0206     -28183.42      -27940.364    
     43200   299.71802     -18266.425     -28164.025     -27920.126    
     43300   308.41679     -17092.89      -28171.765     -27920.787    
     43400   271.34639     -5675.0346     -28156.033     -27935.222    
     43500   272.77027     -1159.9353     -28180.517     -27958.547    
     43600   287.7731       9162.3548     -28196.36      -27962.182    
     43700   305.29831     -4207.5664     -28178.648     -27930.208    
     43800   322.36531     -1402.9474     -28183.91      -27921.582    
     43900   294.06269     -18227.384     -28158.011     -27918.714    
     44000   306.55797     -13033.44      -28163.585     -27914.12     
     44100   314.79161     -4499.9758     -28152.731     -27896.566    
     44200   303.58655     -6637.7771     -28143.111     -27896.064    
     44300   279.87522     -15142.116     -28156.832     -27929.081    
     44400   295.77958     -5870.6408     -28175.587     -27934.893    
     44500   315.11728     -10867.658     -28179.932     -27923.502    
     44600   304.6478      -7979.8677     -28153.133     -27905.223    
     44700   311.7792      -2449.2784     -28149.787     -27896.074    
     44800   326.15521      1457.2784     -28181.876     -27916.464    
     44900   268.55177      1877.3662     -28158.425     -27939.888    
     45000   273.04336     -7652.0679     -28171.414     -27949.222    
     45100   326.58607     -3524.6708     -28201.596     -27935.833    
     45200   323.62115     -4315.551      -28170.351     -27907.001    
     45300   313.88558     -7927.0879     -28164.347     -27908.92     
     45400   288.06965     -5094.5627     -28153.761     -27919.341    
     45500   294.86749     -2334.5505     -28173.66      -27933.708    
     45600   334.05724     -7432.5364     -28205.036     -27933.193    
     45700   303.7422      -1558.1894     -28150.683     -27903.509    
     45800   328.8681      -909.78141     -28167.344     -27899.724    
     45900   315.86972     -12060.798     -28179.89      -27922.847    
     46000   298.33101     -6477.2412     -28176.95      -27934.18     
     46100   255.12921     -7435.6663     -28138.141     -27930.527    
     46200   317.44896     -8252.7332     -28183.532     -27925.204    
     46300   324.72179     -3406.2548     -28192.54      -27928.294    
     46400   281.21067     -6930.2946     -28187.454     -27958.616    
     46500   270.94682     -18374.535     -28185.013     -27964.527    
     46600   307.29103     -7703.808      -28190.859     -27940.797    
     46700   312.46104     -24786.177     -28176.652     -27922.384    
     46800   287.57553     -9575.9378     -28154.505     -27920.488    
     46900   309.93528      4999.1141     -28180.73      -27928.517    
     47000   286.05467     -7488.1632     -28189.567     -27956.787    
     47100   283.92306     -6813.5311     -28183.193     -27952.147    
     47200   306.55221     -10747.753     -28180.389     -27930.929    
     47300   311.10344     -9289.5002     -28180.912     -27927.748    
     47400   282.22707      5805.0158     -28158.561     -27928.895    
     47500   284.67214     -832.16538     -28152.763     -27921.108    
     47600   301.93471      5063.8902     -28153.472     -27907.769    
     47700   328.2806      -10642.41      -28155.629     -27888.487    
     47800   302.09498     -16043.734     -28150.443     -27904.61     
     47900   321.72959     -5394.7929     -28189.776     -27927.965    
     48000   318.65277     -667.29352     -28192.659     -27933.351    
     48100   270.77029     -9987.6671     -28151.507     -27931.165    
     48200   291.29091     -8551.0565     -28152.907     -27915.866    
     48300   337.87965     -1049.5644     -28169.278     -27894.325    
     48400   314.69289     -3884.4384     -28154.314     -27898.229    
     48500   294.33283     -7811.1        -28171.228     -27931.712    
     48600   278.68963     -15248         -28161.291     -27934.504    
     48700   286.36992     -20563.572     -28159.685     -27926.648    
     48800   299.84164     -10966.398     -28155.43      -27911.43     
     48900   318.55983     -1415.7502     -28148.759     -27889.527    
     49000   318.95984      709.34598     -28150.916     -27891.359    
     49100   296.94589     -12790.913     -28167.731     -27926.088    
     49200   264.3062      -12866.798     -28149.117     -27934.035    
     49300   304.62077     -14017.962     -28181.392     -27933.504    
     49400   304.74132     -12082.418     -28174.627     -27926.641    
     49500   313.0805      -8518.8744     -28158.328     -27903.555    
     49600   315.81929      2796.941      -28149.971     -27892.97     
     49700   282.26329     -17343.356     -28146.614     -27916.919    
     49800   305.4355      -4772.6963     -28187.454     -27938.902    
     49900   299.30541     -12115.596     -28180.024     -27936.461    
     50000   271.84943     -9598.3168     -28146.075     -27924.855    
     50100   335.48243     -12816.355     -28180.548     -27907.546    
     50200   333.58918     -3636.0897     -28161.958     -27890.496    
     50300   287.24304     -1248.2374     -28122.482     -27888.735    
     50400   301.53334     -12068.321     -28168.459     -27923.083    
     50500   288.70619     -3686.6674     -28169.189     -27934.251    
     50600   307.14913     -1116.6667     -28180.477     -27930.531    
     50700   319.55732     -8882.9587     -28173.951     -27913.908    
     50800   305.74833     -11074.251     -28148.686     -27899.88     
     50900   292.24184     -11509.307     -28165.816     -27928.001    
     51000   302.50206     -6227.6816     -28191.576     -27945.412    
     51100   295.69611     -23290.037     -28173.681     -27933.055    
     51200   302.33311     -8203.9003     -28163.785     -27917.758    
     51300   314.6366      -5985.3117     -28164.458     -27908.419    
     51400   278.87489     -10468.327     -28142.744     -27915.807    
     51500   281.49242     -26309.756     -28186.496     -27957.429    
     51600   320.10047      617.63255     -28213.497     -27953.011    
     51700   275.40748      1102.9528     -28156.214     -27932.099    
     51800   311.05149     -1871.795      -28165.887     -27912.765    
     51900   312.45187     -17982.017     -28159.68      -27905.418    
     52000   296.21243     -3044.0545     -28159.56      -27918.514    
     52100   282.7304      -13698.975     -28176.089     -27946.014    
     52200   309.44357     -8906.9618     -28185.32      -27933.507    
     52300   303.57415     -9864.3626     -28159.72      -27912.683    
     52400   319.88044     -16419.688     -28167.413     -27907.107    
     52500   295.20713     -3698.5712     -28167.664     -27927.436    
     52600   270.17988     -853.5778      -28165.812     -27945.95     
     52700   301.30786     -4553.5474     -28186.881     -27941.688    
     52800   312.35027      5071.1938     -28186.191     -27932.012    
     52900   338.79237     -4844.0991     -28196.929     -27921.233    
     53000   310.44283     -11836.2       -28174.476     -27921.85     
     53100   294.57471     -19281.229     -28181.666     -27941.952    
     53200   265.30073     -16737.298     -28174.621     -27958.729    
     53300   275.05259     -11225.618     -28162.981     -27939.153    
     53400   330.68738     -8149.7626     -28193.531     -27924.43     
     53500   304.27238      10241.536     -28170.955     -27923.35     
     53600   298.82116      7512.3153     -28161.521     -27918.351    
     53700   314.84393     -13608.984     -28162.285     -27906.077    
     53800   333.21463     -22767.202     -28155.514     -27884.356    
     53900   308.30089     -10689.708     -28153.101     -27902.218    
     54000   281.59803     -6459.7453     -28157.102     -27927.948    
     54100   312.18145     -15460.973     -28181.937     -27927.896    
     54200   301.29946     -14864.908     -28175.087     -27929.902    
     54300   300.16776     -5463.7481     -28175.679     -27931.414    
     54400   294.20348     -16248.274     -28158.828     -27919.417    
     54500   293.32087     -11414.197     -28140.976     -27902.282    
     54600   314.24183     -3131.4867     -28163.781     -27908.063    
     54700   280.82307     -3507.0474     -28166.275     -27937.752    
     54800   273.67726     -10657.704     -28162.017     -27939.309    
     54900   320.68305      6989.7708     -28189.04      -27928.08     
     55000   290.28045      5484.0851     -28152.681     -27916.462    
     55100   290.28337     -8066.9509     -28143.569     -27907.348    
     55200   331.88851     -6272.9601     -28200.605     -27930.527    
     55300   277.5957      -13066.527     -28177.274     -27951.378    
     55400   296.52242     -15971.99      -28179.071     -27937.772    
     55500   329.07601     -12080.515     -28186.926     -27919.137    
     55600   284.4814      -14743.494     -28146.304     -27914.804    
     55700   283.98627     -12833.002     -28139.723     -27908.626    
     55800   305.02663     -7675.3844     -28160.23      -27912.011    
     55900   314.55985      527.6197      -28180.988     -27925.012    
     56000   274.83665      5678.7533     -28162.912     -27939.26     
     56100   326.53066     -223.35194     -28204.295     -27938.577    
     56200   300.07102     -19722.899     -28155.332     -27911.146    
     56300   296.22105      1191.4524     -28138.359     -27897.306    
     56400   318.45754      507.4121      -28167.827     -27908.678    
     56500   286.47107      1647.0794     -28160.075     -27926.956    
     56600   306.34074      1534.8037     -28178.422     -27929.134    
     56700   296.14702     -19747.329     -28162.268     -27921.275    
     56800   282.47146     -3969.9873     -28144.636     -27914.772    
     56900   308.45782     -2220.917      -28160.535     -27909.524    
     57000   333.62452     -2271.6271     -28179.293     -27907.803    
     57100   297.18049      2909.1279     -28163.393     -27921.559    
     57200   301.97771     -2164.0403     -28187.696     -27941.958    
     57300   278.65462     -3752.9678     -28174.364     -27947.606    
     57400   290.85981      6537.2351     -28158.088     -27921.397    
     57500   324.05047     -7728.118      -28167.784     -27904.084    
     57600   303.64409     -7340.0044     -28159.796     -27912.702    
     57700   301.21015     -3748.6158     -28176.246     -27931.133    
     57800   312.56527     -9711.9273     -28189.035     -27934.681    
     57900   281.02339     -6084.2878     -28155.273     -27926.587    
     58000   327.33689      5722.0359     -28161.538     -27895.163    
     58100   319.28634     -3486.7215     -28161.927     -27902.104    
     58200   311.9345      -5867.9984     -28182.55      -27928.71     
     58300   292.28964     -9091.2325     -28176.798     -27938.944    
     58400   291.9887      -16509.705     -28172.033     -27934.424    
     58500   321.67093     -8738.3364     -28186.123     -27924.36     
     58600   308.77452     -17267.893     -28154.486     -27903.217    
     58700   340.88875     -8768.7062     -28165.271     -27887.869    
     58800   299.91673     -4636.3779     -28161.616     -27917.555    
     58900   290.69102     -6913.8389     -28167.777     -27931.224    
     59000   300.15529     -9980.5756     -28175.629     -27931.374    
     59100   308.84834     -11416.798     -28179.896     -27928.567    
     59200   303.46261     -4142.8555     -28173.333     -27926.387    
     59300   307.45587     -2565.5651     -28169.267     -27919.071    
     59400   320.1263      -8762.7021     -28177.592     -27917.085    
     59500   285.12577     -19598.135     -28166.314     -27934.29     
     59600   279.91602     -18147.12      -28177.447     -27949.663    
     59700   277.97327     -17207.353     -28178.747     -27952.543    
     59800   300.87916     -4256.941      -28160.003     -27915.159    
     59900   304.81192     -12320.772     -28156.9       -27908.856    
     60000   347.24197     -5116.5076     -28203.156     -27920.584    
     60100   284.24593     -913.66574     -28177.535     -27946.227    
     60200   286.0827      -23731.406     -28177.302     -27944.499    
     60300   290.05108     -2228.7947     -28170.487     -27934.454    
     60400   277.21323     -4342.4082     -28147.762     -27922.177    
     60500   301.50792      9510.8839     -28164.674     -27919.318    
     60600   343.86035     -12128.48      -28202.867     -27923.046    
     60700   280.70442     -4745.7496     -28157.209     -27928.783    
     60800   285.90037     -11732.835     -28166.022     -27933.368    
     60900   323.23164     -11948.489     -28189.12      -27926.087    
     61000   321.43904      403.60319     -28159.42      -27897.845    
     61100   285.15328      3684.5189     -28130.76      -27898.714    
     61200   306.07559     -16996.481     -28172.581     -27923.508    
     61300   341.95393     -7163.3966     -28210.93      -27932.661    
     61400   287.51129      12759.56      -28168.158     -27934.192    
     61500   298.61558     -4694.7899     -28176.278     -27933.277    
     61600   309.47269     -795.27383     -28180.113     -27928.276    
     61700   310.1063      -11677.02      -28152.792     -27900.44     
     61800   328.54733     -2848.8923     -28163.279     -27895.92     
     61900   319.27226     -2094.2742     -28181.494     -27921.683    
     62000   293.25869      5164.8954     -28173.998     -27935.355    
     62100   285.98907     -184.2372      -28165.841     -27933.114    
     62200   309.92197     -463.22958     -28166.858     -27914.655    
     62300   280.26548     -7738.2137     -28135.966     -27907.897    
     62400   296.43823     -12215.884     -28160.795     -27919.565    
     62500   271.71073     -14939.554     -28179.513     -27958.405    
     62600   261.76894     -16858.709     -28164.691     -27951.674    
     62700   278.26265     -6832.5217     -28155.942     -27929.502    
     62800   298.60709      1337.107      -28159.967     -27916.972    
     62900   304.22507     -14949.415     -28163.56      -27915.994    
     63000   284.54063     -15830.564     -28165.211     -27933.663    
     63100   290.83851     -1896.9591     -28195.023     -27958.35     
     63200   300.07633      1185.6677     -28192.505     -27948.315    
     63300   312.91624     -14609.642     -28180.782     -27926.143    
     63400   299.8655      -9501.945      -28163.834     -27919.815    
     63500   299.91836     -10842.354     -28158.177     -27914.115    
     63600   298.86722     -5900.3375     -28160.383     -27917.177    
     63700   295.34568      1223.6262     -28168.863     -27928.523    
     63800   290.72998     -8137.4704     -28173.531     -27936.946    
     63900   279.75038     -11022.443     -28152.654     -27925.004    
     64000   320.58489     -27898.919     -28162.951     -27902.071    
     64100   308.32552     -10919.027     -28152.808     -27901.904    
     64200   281.63106     -13738.194     -28156.073     -27926.893    
     64300   307.4466      -11922.48      -28192.616     -27942.428    
     64400   289.24271     -5813.0204     -28169.593     -27934.219    
     64500   291.47712      7405.255      -28155.7       -27918.508    
     64600   338.13821     -6875.8903     -28178.088     -27902.924    
     64700   319.96229      5052.9486     -28164.247     -27903.874    
     64800   279.37422      2194.819      -28166.962     -27939.618    
     64900   276.41305      6598.4809     -28166.159     -27941.225    
     65000   317.61076     -5515.6264     -28183.673     -27925.213    
     65100   304.8129       5281.4497     -28155.862     -27907.818    
     65200   305.0126      -4413.5284     -28150.522     -27902.315    
     65300   319.33891      1858.6737     -28175.896     -27916.03     
     65400   296.71496     -650.66143     -28189.962     -27948.507    
     65500   274.5748      -1336.8436     -28166.017     -27942.579    
     65600   284.3494       5502.9054     -28153.078     -27921.685    
     65700   299.77072     -3074.7326     -28149.726     -27905.784    
     65800   313.06142     -7851.8926     -28155.944     -27901.187    
     65900   293.09217     -9795.2651     -28152.94      -27914.433    
     66000   294.98811     -6079.1995     -28168.474     -27928.424    
     66100   296.06122     -3975.7814     -28166.589     -27925.666    
     66200   308.72916      1982.7448     -28173.01      -27921.778    
     66300   282.62734      8404.142      -28147.754     -27917.762    
     66400   305.50342     -3259.8995     -28152.038     -27903.431    
     66500   314.26482      202.41953     -28140.146     -27884.409    
     66600   298.26523     -6226.3182     -28130.916     -27888.2      
     66700   313.81913     -10827.37      -28179.139     -27923.765    
     66800   287.28244     -9742.6114     -28171.231     -27937.451    
     66900   296.95992     -12998.794     -28172.407     -27930.752    
     67000   300.43867     -6686.4294     -28155.198     -27910.713    
     67100   309.73398     -7220.8253     -28145.985     -27893.935    
     67200   306.73595      3699.0085     -28152.41      -27902.801    
     67300   274.67058     -6053.8699     -28162.743     -27939.227    
     67400   279.46973     -13732.303     -28161.158     -27933.737    
     67500   312.65593     -5650.2797     -28167.987     -27913.56     
     67600   321.81498     -12057.734     -28159.388     -27897.508    
     67700   300.84143     -13732.204     -28145.735     -27900.922    
     67800   301.08959     -977.23045     -28158.184     -27913.169    
     67900   279.0934      -5867.3618     -28142.346     -27915.231    
     68000   293.75456     -12734.916     -28149.469     -27910.423    
     68100   327.37184     -15263.661     -28172.691     -27906.288    
     68200   276.45393     -10489.586     -28139.87      -27914.903    
     68300   301.69549     -15643.577     -28149.921     -27904.413    
     68400   340.04518     -17230.996     -28157.042     -27880.327    
     68500   328.60485     -7050.4942     -28153.322     -27885.917    
     68600   287.36848     -4817.6436     -28152.02      -27918.17     
     68700   296.15081     -11089.135     -28168.207     -27927.211    
     68800   311.04158     -4406.1792     -28168.729     -27915.615    
     68900   286.39151     -14351.149     -28129.627     -27896.573    
     69000   283.12209     -10735.935     -28119.239     -27888.845    
     69100   331.72238     -2906.0196     -28157.795     -27887.852    
     69200   309.0483       1574.2896     -28172.616     -27921.124    
     69300   285.73484     -10877.3       -28162.93      -27930.41     
     69400   292.42558     -18192.796     -28163.152     -27925.188    
     69500   321.07274     -4858.442      -28164.579     -27903.302    
     69600   315.74567     -7987.0029     -28147.288     -27890.346    
     69700   311.45384      8726.0456     -28144.667     -27891.218    
     69800   291.82924     -3193.8985     -28163.371     -27925.892    
     69900   281.7761      -2063.4284     -28162.469     -27933.171    
     70000   296.34246     -4329.8314     -28158.498     -27917.346    
     70100   330.18246     -5367.4326     -28165.442     -27896.753    
     70200   309.09308     -637.78268     -28143.167     -27891.639    
     70300   277.20725     -6031.7163     -28128.349     -27902.768    
     70400   309.67973     -6228.5039     -28161.265     -27909.259    
     70500   290.71145      226.0342      -28145.99      -27909.42     
     70600   290.33149     -14356.272     -28139.18      -27902.919    
     70700   310.27257     -871.27183     -28157.992     -27905.504    
     70800   308.17349     -13080.444     -28172.671     -27921.891    
     70900   253.15852     -15302.016     -28136.852     -27930.841    
     71000   284.72683     -6602.1093     -28150.465     -27918.765    
     71100   309.44006     -4501.1342     -28142.13      -27890.32     
     71200   320.32734     -11751.948     -28152.745     -27892.075    
     71300   289.6972      -2851.023      -28146.036     -27910.291    
     71400   286.74319     -11715.493     -28151.723     -27918.383    
     71500   312.71456     -7362.754      -28165.784     -27911.309    
     71600   311.9217       454.04479     -28136.705     -27882.875    
     71700   322.89109     -12977.128     -28145.343     -27882.587    
     71800   301.44094     -7175.9152     -28151.809     -27906.508    
     71900   306.67957      3614.1037     -28167.251     -27917.687    
     72000   287.97828      9430.5613     -28154.243     -27919.897    
     72100   297.93492     -95.043852     -28161.223     -27918.775    
     72200   307.17342     -4112.1762     -28164.871     -27914.905    
     72300   294.45193     -7437.5407     -28150.474     -27910.861    
     72400   311.32309     -5488.4657     -28164.226     -27910.884    
     72500   292.61657     -5252.1283     -28150.925     -27912.805    
     72600   290.75823     -4643.9983     -28162.782     -27926.174    
     72700   265.98537     -6077.4461     -28155.815     -27939.367    
     72800   298.08467     -4266.0661     -28157.901     -27915.332    
     72900   305.28611      643.12624     -28141.551     -27893.121    
     73000   317.92387     -14668.128     -28154.155     -27895.441    
     73100   291.63099     -6246.6936     -28142.507     -27905.189    
     73200   287.73845      2032.467      -28160.085     -27925.935    
     73300   257.79903     -4080.3894     -28151.992     -27942.205    
     73400   313.7185      -15922.317     -28193.829     -27938.537    
     73500   301.47254     -15071         -28149.799     -27904.472    
     73600   308.07087     -4174.8639     -28144.517     -27893.821    
     73700   327.13728     -6962.3363     -28166.39      -27900.179    
     73800   291.79024     -9290.5543     -28164.521     -27927.073    
     73900   275.56818      4350.1732     -28154.983     -27930.736    
     74000   283.04254     -2542.6042     -28148.504     -27918.175    
     74100   303.86947     -11921.723     -28155.791     -27908.514    
     74200   293.53182     -2704.1216     -28149.312     -27910.447    
     74300   288.34685     -6149.9504     -28143.784     -27909.138    
     74400   305.37134     -301.71868     -28137.28      -27888.781    
     74500   328.42217      52.074181     -28136.37      -27869.113    
     74600   312.42738     -10619.304     -28135.58      -27881.338    
     74700   296.87242      514.77622     -28152.614     -27911.031    
     74800   283.06932      1461.6313     -28148.559     -27918.209    
     74900   281.66417     -14872.24      -28144.551     -27915.343    
     75000   330.83119     -7105.5346     -28168.879     -27899.662    
     75100   342.59833     -13872.722     -28157.01      -27878.217    
     75200   305.71469     -9759.0596     -28128.427     -27879.648    
     75300   288.96454     -8938.162      -28149.639     -27914.491    
     75400   312.30215     -8399.4156     -28173.028     -27918.889    
     75500   312.289       -3977.5763     -28167.049     -27912.921    
     75600   310.98336      4660.9418     -28154.195     -27901.129    
     75700   315.98857     -16165.727     -28134.874     -27877.735    
     75800   285.6068      -4652.1524     -28133.855     -27901.44     
     75900   306.73917     -3136.3867     -28173.063     -27923.451    
     76000   302.36825      1296.5666     -28162.053     -27915.998    
     76100   319.69759      65.618442     -28160.53      -27900.373    
     76200   288.01761     -2234.2119     -28131.705     -27897.328    
     76300   286.01475     -12230.045     -28163.518     -27930.771    
     76400   292.78996     -4330.6767     -28180.682     -27942.421    
     76500   286.26463     -14875.525     -28156.14      -27923.189    
     76600   300.7576      -2587.0405     -28154.078     -27909.333    
     76700   292.88821     -4327.7046     -28146.643     -27908.302    
     76800   334.72488     -9357.0719     -28172.24      -27899.854    
     76900   328.29056     -11899.161     -28154.731     -27887.581    
     77000   313.22548     -8734.1782     -28152.747     -27897.857    
     77100   305.06591     -9393.4348     -28181.569     -27933.318    
     77200   323.69246      2684.7114     -28217.478     -27954.07     
     77300   284.13887     -11868.123     -28204.783     -27973.562    
     77400   279.99335     -13727.71      -28210.414     -27982.567    
     77500   311.97826     -17781.39      -28224.065     -27970.189    
     77600   315.63236     -14877.322     -28205.998     -27949.149    
     77700   321.47443     -29830.215     -28184.397     -27922.794    
     77800   302.47233      8307.9848     -28185.742     -27939.601    
     77900   288.18153     -10971.444     -28195.662     -27961.151    
     78000   290.48609     -2146.9902     -28206.944     -27970.557    
     78100   294.2129      -14920.751     -28200.542     -27961.123    
     78200   311.33352     -7423.4118     -28211.625     -27958.274    
     78300   286.8514      -19007.736     -28215.239     -27981.81     
     78400   289.26178     -13583.241     -28226.718     -27991.328    
     78500   280.88992     -10922.546     -28204.253     -27975.676    
     78600   308.68074     -11769.983     -28200.632     -27949.44     
     78700   323.42993     -10547.542     -28214.484     -27951.29     
     78800   292.69393     -8581.8731     -28202.097     -27963.914    
     78900   304.85199     -13364.335     -28230.717     -27982.64     
     79000   291.8477      -25425.928     -28223.048     -27985.553    
     79100   278.7196      -7718.1311     -28185.969     -27959.158    
     79200   317.00439     -15548.466     -28196.589     -27938.623    
     79300   296.85558      2979.9007     -28189.027     -27947.458    
     79400   304.41667     -11248.441     -28197.836     -27950.113    
     79500   289.81785     -6719.8117     -28205.378     -27969.535    
     79600   286.93797     -9843.9289     -28221.917     -27988.418    
     79700   283.39496     -434.3559      -28209.879     -27979.264    
     79800   319.26639      4041.9301     -28204.546     -27944.74     
     79900   335.3837       1448.1033     -28217.535     -27944.613    
     80000   292.80121      1792.8108     -28190.358     -27952.088    
     80100   291.81105     -6532.8504     -28199.955     -27962.49     
     80200   297.51765     -10316.031     -28219.648     -27977.54     
     80300   271.94351     -17456.045     -28215.82      -27994.523    
     80400   279.98912     -20554.617     -28231.219     -28003.374    
     80500   292.13841     -10547.721     -28216.475     -27978.744    
     80600   308.95394     -1233.6429     -28206.8       -27955.385    
     80700   296.24306      10723.338     -28186.535     -27945.464    
     80800   314.18326     -5686.5009     -28196.306     -27940.636    
     80900   323.29192      1313.6878     -28232.277     -27969.194    
     81000   280.00157     -8202.0298     -28212.072     -27984.217    
     81100   313.22622     -3422.6517     -28233.196     -27978.305    
     81200   289.92503     -7017.1204     -28192.543     -27956.613    
     81300   331.061       -2714.6761     -28212.279     -27942.874    
     81400   305.81102     -10330.858     -28199.606     -27950.748    
     81500   285.36143     -4497.2875     -28188.457     -27956.241    
     81600   296.22769     -13543.827     -28202.887     -27961.828    
     81700   317.99478     -4843.8232     -28218.2       -27959.428    
     81800   278.70247     -13683.125     -28198.225     -27971.427    
     81900   284.71833     -6534.789      -28233.778     -28002.086    
     82000   270.50109     -1545.8585     -28213.387     -27993.263    
     82100   278.25955     -1941.3246     -28199.949     -27973.513    
     82200   302.64907      1465.298      -28209.525     -27963.241    
     82300   318.96359     -4813.0319     -28216.11      -27956.55     
     82400   307.64599     -6265.6296     -28206.543     -27956.192    
     82500   271.07935     -13233.641     -28196.469     -27975.875    
     82600   285.34856     -1635.6154     -28219.259     -27987.054    
     82700   277.63647     -11325.752     -28189.752     -27963.822    
     82800   324.49611     -9296.5715     -28207.2       -27943.137    
     82900   318.96042     -11967.696     -28212.345     -27952.787    
     83000   286.61171     -28401.442     -28198.439     -27965.206    
     83100   288.70391     -10831.16      -28202.551     -27967.615    
     83200   304.49382     -4872.1121     -28204.642     -27956.857    
     83300   327.88153      3451.0211     -28192.52      -27925.703    
     83400   297.17        -8728.2512     -28175.881     -27934.056    
     83500   287.34196     -11330.157     -28195.84      -27962.012    
     83600   313.59247      2168.4568     -28227.208     -27972.019    
     83700   297.48199      359.11469     -28215.068     -27972.989    
     83800   298.93749     -5170.0759     -28212.703     -27969.439    
     83900   312.25458      971.1505      -28195.663     -27941.563    
     84000   334.76382     -19976.577     -28210.264     -27937.846    
     84100   304.24176     -2147.8648     -28205.273     -27957.693    
     84200   285.22751      3560.5989     -28194.352     -27962.245    
     84300   303.81964     -15277.134     -28211.615     -27964.378    
     84400   301.70385     -15695.18      -28200.619     -27955.104    
     84500   280.96095     -5818.0381     -28176.983     -27948.348    
     84600   279.23515     -2259.6264     -28200.882     -27973.652    
     84700   281.16987     -16494.315     -28221.75      -27992.945    
     84800   286.88386      210.16162     -28217.042     -27983.587    
     84900   305.548        8228.8288     -28207.888     -27959.245    
     85000   292.8634      -2969.4996     -28188.127     -27949.806    
     85100   303.69257     -614.19368     -28197.294     -27950.161    
     85200   287.497        975.64641     -28203.558     -27969.604    
     85300   290.68155     -13677.843     -28228.893     -27992.347    
     85400   267.87425     -17988.572     -28207.254     -27989.269    
     85500   304.90303     -9449.3865     -28223.115     -27974.997    
     85600   308.77295     -3136.9335     -28210.889     -27959.621    
     85700   297.75668     -4301.8045     -28195.925     -27953.622    
     85800   332.9304      -1035.6223     -28214.299     -27943.374    
     85900   313.97811      1717.7676     -28191.16      -27935.657    
     86000   304.74055     -12088.896     -28208.026     -27960.04     
     86100   295.83451     -21849.326     -28217.777     -27977.039    
     86200   273.53433     -11959.029     -28206.963     -27984.371    
     86300   326.02131     -10897.739     -28233.19      -27967.886    
     86400   313.36163     -3844.1703     -28194.946     -27939.944    
     86500   302.97958      4509.0793     -28189.926     -27943.373    
     86600   318.81675      4360.4991     -28215.337     -27955.897    
     86700   289.19963      1310.5096     -28209.618     -27974.279    
     86800   286.02716     -16078.243     -28211.766     -27979.009    
     86900   289.33089     -13308.653     -28211.694     -27976.248    
     87000   308.49669     -13463.402     -28219.237     -27968.195    
     87100   286.22278     -15922.028     -28186.692     -27953.775    
     87200   327.91861     -15985.827     -28186.305     -27919.458    
     87300   347.09392      3057.8503     -28209.799     -27927.347    
     87400   282.02837     -5875.9822     -28174.763     -27945.259    
     87500   321.37499     -10237.321     -28219.287     -27957.764    
     87600   314.08731      916.13058     -28225.098     -27969.506    
     87700   279.13073     -3854.1996     -28200.131     -27972.986    
     87800   315.81765      422.86483     -28212.066     -27955.065    
     87900   308.35144     -5320.1655     -28176.082     -27925.157    
     88000   346.49094     -137.03484     -28219.095     -27937.134    
     88100   284.66243     -3444.0878     -28189.967     -27958.32     
     88200   334.80617     -7308.5184     -28240.481     -27968.029    
     88300   270.84136     -13419.034     -28202.294     -27981.894    
     88400   294.62929     -6376.379      -28219.909     -27980.151    
     88500   310.93364     -11406.491     -28196.048     -27943.022    
     88600   325.17065     -11534.767     -28202.129     -27937.518    
     88700   315.36499     -13388.05      -28209.518     -27952.886    
     88800   288.35803      123.64174     -28207.516     -27972.862    
     88900   304.89645     -3497.1034     -28216.813     -27968.7      
     89000   305.12979     -1864.3233     -28210.984     -27962.681    
     89100   312.59477      3627.2731     -28208.867     -27954.489    
     89200   327.08906     -5745.955      -28203.497     -27937.325    
     89300   329.68629     -2982.2628     -28207.123     -27938.837    
     89400   292.59596     -13475.451     -28202.976     -27964.873    
     89500   280.31133     -5708.927      -28203.353     -27975.246    
     89600   302.58587     -9731.7141     -28216.046     -27969.813    
     89700   287.70007      4448.0805     -28190.789     -27956.67     
     89800   319.93507     -9919.2452     -28183.376     -27923.025    
     89900   323.8916      -19195.446     -28191.417     -27927.846    
     90000   311.43182     -4409.1562     -28207.201     -27953.77     
     90100   286.46982     -2738.8126     -28196.813     -27963.695    
     90200   327.87094     -3666.1288     -28229.75      -27962.941    
     90300   276.18271     -13419.961     -28189.892     -27965.146    
     90400   298.5506      -4471.2147     -28202.695     -27959.746    
     90500   299.75587     -15876.356     -28188.905     -27944.975    
     90600   298.16416     -1893.3505     -28176.302     -27933.667    
     90700   320.35273     -7629.285      -28210.205     -27949.514    
     90800   297.4623      -8296.6801     -28215.636     -27973.573    
     90900   308.31174      1964.4059     -28235.568     -27984.676    
     91000   282.39548     -15509.638     -28211.541     -27981.739    
     91100   302.37805     -6860.0054     -28216.335     -27970.272    
     91200   305.94031     -13245.154     -28209.77      -27960.807    
     91300   288.91276     -4060.0653     -28196.59      -27961.484    
     91400   281.75368      1575.7149     -28192.819     -27963.539    
     91500   298.58177      2798.9393     -28209.895     -27966.921    
     91600   306.99386     -4997.6195     -28210.866     -27961.046    
     91700   301.82059     -323.34097     -28215.024     -27969.414    
     91800   290.06693     -15622.92      -28217.445     -27981.4      
     91900   291.21633     -12555.084     -28237.165     -28000.184    
     92000   281.97615      4100.8035     -28223.323     -27993.861    
     92100   301.82447     -10110.729     -28204.333     -27958.72     
     92200   313.36134     -14646.115     -28206.476     -27951.475    
     92300   276.1512      -2610.7436     -28187.837     -27963.116    
     92400   310.85978     -14520.948     -28231.766     -27978.8      
     92500   273.63909     -962.22194     -28216.868     -27994.191    
     92600   267.86157     -18490.151     -28214.467     -27996.491    
     92700   308.96789     -3809.4917     -28227.921     -27976.495    
     92800   286.11044     -10012.81      -28190.794     -27957.969    
     92900   310.38327     -2086.5683     -28201.062     -27948.484    
     93000   319.47347     -18785.031     -28222.465     -27962.49     
     93100   279.49003     -19897.807     -28216.887     -27989.449    
     93200   269.42734     -3526.401      -28213.146     -27993.896    
     93300   305.32436     -317.74803     -28227.829     -27979.368    
     93400   284.11381      1555.729      -28197.966     -27966.765    
     93500   311.39788     -9805.5027     -28208.697     -27955.293    
     93600   300.44966     -13553.01      -28202.202     -27957.708    
     93700   302.80852     -13616.599     -28218.329     -27971.915    
     93800   287.95155     -6030.9847     -28215.042     -27980.718    
     93900   292.31524     -3034.3803     -28216.558     -27978.683    
     94000   304.65543     -7536.8743     -28218.81      -27970.893    
     94100   292.62976     -14483.274     -28194.656     -27956.526    
     94200   324.26771     -6345.0315     -28194.37      -27930.494    
     94300   345.60456     -24550.396     -28205.777     -27924.538    
     94400   292.34204     -5780.4192     -28206.185     -27968.289    
     94500   289.45482     -8587.774      -28215.986     -27980.439    
     94600   283.24291     -216.21065     -28208.426     -27977.934    
     94700   298.27037     -3211.2201     -28196.547     -27953.826    
     94800   292.15838     -2298.857      -28184.961     -27947.214    
     94900   301.97383      2911.5862     -28205.17      -27959.436    
     95000   292.47609     -5610.0661     -28222.524     -27984.518    
     95100   275.20526     -8197.1129     -28222.408     -27998.457    
     95200   301.16204     -12108.243     -28229.912     -27984.838    
     95300   332.94619     -6189.9472     -28220.445     -27949.506    
     95400   269.80356     -12028.923     -28175.814     -27956.258    
     95500   304.94342     -14091.729     -28211.459     -27963.308    
     95600   317.62163     -6789.9988     -28215.66      -27957.192    
     95700   336.09128      1261.2249     -28226.459     -27952.961    
     95800   288.04086     -5915.8757     -28210.663     -27976.266    
     95900   282.83744     -5379.2344     -28219.085     -27988.923    
     96000   317.5646      -2449.7032     -28232.781     -27974.359    
     96100   293.70437     -1348.0185     -28197.719     -27958.714    
     96200   291.83827     -11590.241     -28195.655     -27958.168    
     96300   318.52764     -3158.2042     -28222.424     -27963.218    
     96400   303.23836     -5752.3335     -28215.792     -27969.029    
     96500   291.93349     -206.31248     -28216.009     -27978.445    
     96600   300.38966     -43.136338     -28232.5       -27988.054    
     96700   296.85316     -632.5815      -28220.23      -27978.663    
     96800   319.1597      -13985.45      -28219.02      -27959.3      
     96900   304.99032     -6970.0773     -28198.782     -27950.593    
     97000   301.50904     -9267.9507     -28203.678     -27958.322    
     97100   284.92962     -784.25997     -28215.144     -27983.279    
     97200   281.93959      1304.5533     -28217.046     -27987.615    
     97300   321.37728     -2112.5011     -28230.505     -27968.981    
     97400   318.77599     -12374.25      -28205.046     -27945.638    
     97500   301.39136     -1495.0924     -28200.449     -27955.189    
     97600   300.27608     -10994.829     -28215.743     -27971.39     
     97700   301.09516     -5112.1098     -28222.513     -27977.494    
     97800   276.37179     -16593.004     -28201.779     -27976.878    
     97900   319.91528     -10325.414     -28234.72      -27974.385    
     98000   272.11075      17016.132     -28189.103     -27967.67     
     98100   291.89788      2925.5702     -28197.724     -27960.189    
     98200   303.71481     -8226.5004     -28215.726     -27968.575    
     98300   281.2724       573.44176     -28201.895     -27973.007    
     98400   296.10608     -7523.2522     -28205.278     -27964.319    
     98500   321.61625     -3676.9707     -28214.321     -27952.602    
     98600   288.92098     -11676.716     -28196.421     -27961.309    
     98700   291.46449     -2400.6091     -28215.587     -27978.404    
     98800   286.45757     -1817.4402     -28222.091     -27988.983    
     98900   305.59516     -20.084573     -28217.595     -27968.913    
     99000   338.79918      982.00498     -28226.9       -27951.198    
     99100   298.86219     -11747.077     -28199.935     -27956.733    
     99200   313.43035     -12432.31      -28226.339     -27971.281    
     99300   302.26151     -16597.541     -28225.957     -27979.988    
     99400   270.87114     -5433.3843     -28196.505     -27976.08     
     99500   303.24497      1087.0714     -28218.633     -27971.864    
     99600   307.44132     -13432.545     -28221.068     -27970.884    
     99700   297.57698     -12243.517     -28215.382     -27973.225    
     99800   301.57241     -16472.063     -28218.579     -27973.171    
     99900   308.44639      6949.2799     -28224.933     -27973.931    
    100000   307.26977     -69.151105     -28226.263     -27976.219    
    100100   270.07365      4968.7127     -28186.17      -27966.395    
    100200   327.11219     -1575.5505     -28213.626     -27947.435    
    100300   309.24912     -1290.0984     -28199.496     -27947.841    
    100400   300.11878     -7055.4966     -28224.55      -27980.325    
    100500   266.31296     -15537.591     -28212.066     -27995.35     
    100600   309.31647      1553.5151     -28234.65      -27982.941    
    100700   316.49235     -7604.1924     -28220.987     -27963.437    
    100800   296.43647     -11540.659     -28198.425     -27957.197    
    100900   312.29343      1397.1947     -28215.921     -27961.788    
    101000   305.81347     -240.12393     -28216.673     -27967.813    
    101100   282.41293     -8962.6396     -28201.148     -27971.331    
    101200   301.24745     -15861.316     -28209.585     -27964.442    
    101300   356.71067     -3367.4227     -28220.285     -27930.008    
    101400   330.96762      1409.7033     -28208.566     -27939.237    
    101500   317.37642     -5786.8287     -28218.46      -27960.191    
    101600   290.05664     -4310.6101     -28209.182     -27973.145    
    101700   318.09904      3062.4313     -28236.357     -27977.5      
    101800   298.90961     -5640.779      -28218.229     -27974.988    
    101900   307.58291     -5960.4889     -28207.852     -27957.553    
    102000   319.04841      715.91406     -28201.561     -27941.931    
    102100   314.18159     -13119.752     -28205.549     -27949.88     
    102200   298.11374     -12272.512     -28221.331     -27978.737    
    102300   271.66415     -15461.467     -28203.461     -27982.392    
    102400   284.58956     -2262.6015     -28210.804     -27979.216    
    102500   325.77931     -2095.0452     -28227.703     -27962.597    
    102600   299.76078     -2638.5193     -28187.557     -27943.624    
    102700   299.63653     -12261.04      -28161.273     -27917.441    
    102800   310.80655     -9050.924      -28170.583     -27917.661    
    102900   313.02314     -5748.5743     -28207.059     -27952.333    
    103000   291.33282      2424.7981     -28205.509     -27968.434    
    103100   281.65544      3223.4945     -28206.573     -27977.373    
    103200   307.26497     -3330.9074     -28226.571     -27976.531    
    103300   317.817       -11493.023     -28215.555     -27956.928    
    103400   325.27678     -8037.2392     -28200.016     -27935.319    
    103500   301.21922      4.2659339     -28196.789     -27951.669    
    103600   310.19354      3535.8233     -28224.213     -27971.79     
    103700   294.44676     -4636.6707     -28211.471     -27971.862    
[...]
    174300   304.20103     -4705.7548     -28396.4       -28148.853    
    174400   294.37528     -2525.7402     -28396.69      -28157.139    
    174500   290.58528     -2599.1387     -28421.647     -28185.18     
    174600   281.77592     -1040.9713     -28429.416     -28200.117    
    174700   296.76819     -17725.902     -28425.006     -28183.507    
    174800   287.43951     -8343.3486     -28404.09      -28170.183    
    174900   301.99976     -13014.154     -28397.999     -28152.243    
    175000   305.47123     -14523.648     -28385.2       -28136.619    
    175100   313.6954      -20964.676     -28400.781     -28145.508    
    175200   289.3485      -9413.8415     -28411.687     -28176.227    
    175300   299.08114     -5151.9805     -28422.107     -28178.726    
    175400   285.86259      1076.62       -28397.468     -28164.844    
    175500   297.65068     -4293.1229     -28394.19      -28151.974    
    175600   321.81775      2920.8183     -28416.301     -28154.418    
    175700   297.69376     -11328.871     -28421.744     -28179.492    
    175800   293.34181     -7543.5454     -28432.081     -28193.371    
    175900   294.05849     -4936.6617     -28420.818     -28181.525    
    176000   301.90943     -11024.748     -28419.164     -28173.482    
    176100   320.58842     -6392.1153     -28415.349     -28154.466    
    176200   319.1271       1534.068      -28402.967     -28143.274    
    176300   291.73955     -13629.144     -28391.66      -28154.254    
    176400   291.62774     -7419.7601     -28412.374     -28175.059    
    176500   300.58535     -14446.854     -28421.695     -28177.091    
    176600   307.24203     -2709.269      -28421.006     -28170.985    
    176700   302.48272     -7583.8035     -28388.779     -28142.63     
    176800   312.44771     -7321.8135     -28392.187     -28137.929    
    176900   305.33863     -4451.4847     -28401.334     -28152.861    
    177000   301.4584      -10607.299     -28421.882     -28176.567    
    177100   297.25233     -16201.866     -28423.696     -28181.803    
    177200   293.50346     -11728.604     -28418.427     -28179.585    
    177300   285.99762     -13442.819     -28404.311     -28171.577    
    177400   296.46434     -6149.261      -28400.925     -28159.673    
    177500   291.68759     -5802.658      -28396.187     -28158.823    
    177600   302.09405     -11212.906     -28405.739     -28159.907    
    177700   281.64275     -11144.595     -28396.357     -28167.167    
    177800   279.76638     -18822.486     -28424.121     -28196.458    
    177900   294.84824     -16239.732     -28442.573     -28202.637    
    178000   293.68543     -18538.597     -28417.581     -28178.591    
    178100   289.24302      240.54356     -28398.47      -28163.095    
    178200   315.83466     -11803.257     -28408.869     -28151.855    
    178300   330.78833     -11049.96      -28424.548     -28155.365    
    178400   295.1084      -2631.2829     -28418.945     -28178.797    
    178500   275.8792      -14542.39      -28409.879     -28185.38     
    178600   295.36668     -2466.5534     -28400.275     -28159.917    
    178700   316.69586     -6270.4008     -28400.871     -28143.157    
    178800   300.35076     -3937.7393     -28399.476     -28155.062    
    178900   290.97671     -9282.5673     -28404.374     -28167.589    
    179000   277.67446     -13508.565     -28396.987     -28171.026    
    179100   318.96748     -11783.402     -28417.865     -28158.302    
    179200   299.85276      188.55061     -28379.621     -28135.612    
    179300   343.59733     -3318.1395     -28410.533     -28130.927    
    179400   294.52672     -16226.207     -28405.052     -28165.378    
    179500   293.62155     -428.01202     -28416.38      -28177.443    
    179600   283.13103     -15842.593     -28407.084     -28176.683    
    179700   317.3026      -9140.2914     -28414.269     -28156.06     
    179800   314.17901     -9457.366      -28396.963     -28141.297    
    179900   296.57502      4839.4028     -28391.251     -28149.909    
    180000   304.37917      3814.3768     -28439.129     -28191.437    
    180100   294.43422     -3697.1335     -28429.577     -28189.978    
    180200   285.57129     -18343.085     -28403.004     -28170.617    
    180300   298.11764     -6088.3792     -28393.152     -28150.555    
    180400   316.30676     -13261.09      -28403.26      -28145.862    
    180500   319.07205     -10206.896     -28417.544     -28157.896    
    180600   267.41788     -9147.8511     -28407.477     -28189.862    
    180700   278.38291     -5782.9072     -28414.207     -28187.67     
    180800   301.53492     -4321.5814     -28415.969     -28170.591    
    180900   307.05214     -18396.871     -28408.362     -28158.495    
    181000   309.07908     -19389.115     -28419.038     -28167.521    
    181100   311.06626     -11018.939     -28424.707     -28171.573    
    181200   303.83686     -4103.5862     -28419.556     -28172.306    
    181300   305.52941      1.221276      -28389.947     -28141.319    
    181400   327.4586      -893.72052     -28397.176     -28130.703    
    181500   320.61886     -15112.515     -28416.787     -28155.88     
    181600   276.57435     -12119.319     -28394.394     -28169.328    
    181700   291.68193     -23800.226     -28409.52      -28172.161    
    181800   296.9479      -3289.7604     -28404.857     -28163.212    
    181900   310.42944     -4175.9127     -28385.949     -28133.334    
    182000   326.4824      -13170.766     -28399.276     -28133.597    
    182100   292.24327     -6404.4793     -28392.013     -28154.196    
    182200   308.49943     -7637.2526     -28420.087     -28169.042    
    182300   278.02377     -11617.096     -28395.335     -28169.09     
    182400   273.30548      4191.2508     -28382.346     -28159.941    
    182500   292.20462      2665.2884     -28384.131     -28146.346    
    182600   314.41336     -2700.9164     -28400.788     -28144.93     
    182700   304.17075     -2570.7485     -28407.215     -28159.692    
    182800   269.78217     -7557.0226     -28381.425     -28161.887    
    182900   302.63945     -19748.117     -28404.058     -28157.782    
    183000   312.30909     -26195.81      -28398.374     -28144.229    
    183100   315.08483     -14780.933     -28382.694     -28126.29     
    183200   301.66129     -13775.116     -28383.738     -28138.257    
    183300   309.51312     -330.37949     -28413.429     -28161.559    
    183400   308.39373     -8281.138      -28416.352     -28165.393    
    183500   283.39196     -7609.0151     -28396.511     -28165.897    
    183600   303.87734     -19244.085     -28405.549     -28158.265    
    183700   301.2217      -15272.291     -28390.642     -28145.519    
    183800   313.41254     -3925.3584     -28391.206     -28136.163    
    183900   287.45991     -6810.9968     -28371.209     -28137.285    
    184000   303.29377     -17938.804     -28408.905     -28162.096    
    184100   279.58589     -6024.8495     -28408.245     -28180.729    
    184200   282.12504     -11225.068     -28398.291     -28168.709    
    184300   284.93521     -7578.0016     -28389.628     -28157.759    
    184400   299.7273      -2353.7337     -28407.638     -28163.732    
    184500   275.25251      3388.78       -28396.722     -28172.733    
    184600   280.14418     -8656.2585     -28393.238     -28165.267    
    184700   313.80407     -13628.746     -28410.987     -28155.625    
    184800   295.96536     -15036.887     -28397.776     -28156.931    
    184900   293.67131     -7139.5006     -28406.062     -28167.084    
    185000   300.51916      2570.6928     -28440.823     -28196.272    
    185100   276.94832     -4985.1023     -28422.147     -28196.777    
    185200   303.67679     -16875.612     -28422.62      -28175.499    
    185300   300.31631     -14677.45      -28407.62      -28163.234    
    185400   297.3901      -14150.413     -28401.998     -28159.993    
    185500   284.4571      -17181.315     -28391.813     -28160.332    
    185600   307.86456      1815.7346     -28401.431     -28150.903    
    185700   326.4399      -5649.6678     -28393.814     -28128.17     
    185800   319.6383      -3724.066      -28397.054     -28136.944    
    185900   297.80608     -11007.179     -28407.527     -28165.184    
    186000   290.582        217.66898     -28408.629     -28172.165    
    186100   307.86993     -2135.677      -28416.254     -28165.722    
    186200   287.45605     -9814.6461     -28397.778     -28163.857    
    186300   342.94404     -14850.142     -28434.638     -28155.563    
    186400   273.17762     -11737.247     -28382.408     -28160.106    
    186500   305.28914      1761.8813     -28420.32      -28171.888    
    186600   270.37737     -16836.095     -28408.623     -28188.601    
    186700   279.73319     -14260.025     -28412.393     -28184.757    
    186800   311.00128     -22785.895     -28404.908     -28151.827    
    186900   308.442       -11397.2       -28400.263     -28149.265    
    187000   315.65777      2887.2515     -28418.337     -28161.467    
    187100   286.49193     -9362.9597     -28401.779     -28168.643    
    187200   331.24945     -4192.8233     -28422.312     -28152.754    
    187300   328.26601     -18379.377     -28394.902     -28127.771    
    187400   328.36616     -28492.823     -28402.407     -28135.195    
    187500   298.67854     -16912.684     -28407.313     -28164.26     
    187600   301.22224      2189.6514     -28413.697     -28168.574    
    187700   298.38712     -10859.701     -28409.137     -28166.321    
    187800   300.64183     -17259.58      -28395.978     -28151.327    
    187900   324.02079     -15068.436     -28392.024     -28128.349    
    188000   295.3108      -6789.003      -28370.88      -28130.567    
    188100   305.91831     -10109.383     -28413.654     -28164.709    
    188200   303.58355     -8240.8819     -28415.494     -28168.45     
    188300   325.66968     -11298.881     -28428.807     -28163.79     
    188400   308.39087     -21081.705     -28404.882     -28153.926    
    188500   324.53996     -2042.4097     -28415.034     -28150.936    
    188600   290.99209     -1101.2252     -28404.986     -28168.188    
    188700   285.79906     -11414.884     -28419.87      -28187.298    
    188800   280.40816     -12756.252     -28412.772     -28184.587    
    188900   299.57944     -3966.6414     -28401.32      -28157.534    
    189000   322.54512     -13277.586     -28410.852     -28148.377    
    189100   300.89369     -16042.433     -28398.054     -28153.199    
    189200   287.38605     -16815.727     -28402.948     -28169.085    
    189300   279.57482     -8325.8091     -28406.182     -28178.675    
    189400   293.28768     -8786.5636     -28410.114     -28171.448    
    189500   327.10851      8881.0382     -28411.096     -28144.908    
    189600   312.14105     -8314.9308     -28385.483     -28131.475    
    189700   310.20516     -3814.0792     -28403.888     -28151.455    
    189800   279.81684      1467.1703     -28400.779     -28173.074    
    189900   298.75803     -6534.9728     -28413.271     -28170.153    
    190000   312.15549     -15051.723     -28413.803     -28159.783    
    190100   321.42016     -2111.7199     -28405.588     -28144.029    
    190200   326.33107     -754.72779     -28385.363     -28119.808    
    190300   311.89618     -14398.851     -28390.473     -28136.664    
    190400   295.81243     -4516.044      -28404.084     -28163.364    
    190500   305.02658      6807.6165     -28415.968     -28167.749    
    190600   297.61964     -12726.857     -28413.919     -28171.728    
    190700   285.67912     -4784.1801     -28401.981     -28169.506    
    190800   307.18499     -5168.0721     -28414.236     -28164.261    
    190900   310.11384     -10480.712     -28401.52      -28149.161    
    191000   311.63664     -4441.1038     -28395.123     -28141.525    
    191100   302.41245      1427.9259     -28413.886     -28167.795    
    191200   287.33305     -9019.6107     -28419.413     -28185.592    
    191300   288.17636     -8513.0735     -28413.182     -28178.675    
    191400   324.16074     -11063.977     -28419.046     -28155.256    
    191500   294.77304     -11311.509     -28394.074     -28154.199    
    191600   331.29053     -3932.7367     -28426.75      -28157.159    
    191700   276.24983     -5763.6939     -28407.362     -28182.56     
    191800   283.41841     -11229.861     -28430.39      -28199.755    
    191900   283.93736     -14797.492     -28415.849     -28184.792    
    192000   296.24027     -15389.994     -28412.022     -28170.953    
    192100   316.48022     -16738.384     -28417.098     -28159.559    
    192200   290.99136     -20441.281     -28397.351     -28160.553    
    192300   310.9087      -10199.639     -28429.273     -28176.267    
    192400   306.4098      -4938.0674     -28446.193     -28196.848    
    192500   286.50757     -15295.201     -28421.591     -28188.442    
    192600   294.95186      7189.3737     -28402.952     -28162.932    
    192700   298.431       -2075.5834     -28395.774     -28152.923    
    192800   309.52144     -8815.8087     -28402.62      -28150.743    
    192900   323.27307      943.0278      -28435.185     -28172.118    
    193000   282.17549     -4552.8044     -28414.746     -28185.122    
    193100   286.18049     -11718.448     -28414.125     -28181.242    
    193200   297.84989      3279.1288     -28411.836     -28169.458    
    193300   313.61055      8382.8476     -28408.667     -28153.462    
    193400   328.56088     -13306.566     -28420.62      -28153.25     
    193500   295.97637      5242.8963     -28423.064     -28182.21     
    193600   267.89392     -4700.041      -28417.928     -28199.926    
    193700   286.74531     -18190.556     -28415.328     -28181.986    
    193800   304.48878     -16128.859     -28405.799     -28158.018    
    193900   297.64201     -4117.6356     -28398.98      -28156.77     
    194000   302.50941     -2140.3828     -28420.066     -28173.895    
    194100   288.10657     -4537.3423     -28422.516     -28188.066    
    194200   292.34624     -7293.5732     -28406.353     -28168.453    
    194300   320.16693      769.58708     -28400.536     -28139.996    
    194400   297.88926     -2488.8467     -28387.116     -28144.705    
    194500   283.57576     -6970.7837     -28393.411     -28162.648    
    194600   292.75125      1770.0491     -28416.845     -28178.616    
    194700   303.61661     -10433.164     -28431.091     -28184.019    
    194800   301.69991     -3143.819      -28415.157     -28169.646    
    194900   324.91618     -11324.553     -28410.149     -28145.745    
    195000   316.43959     -24999.434     -28397.387     -28139.881    
    195100   303.7855      -17656.768     -28412.929     -28165.72     
    195200   284.70903     -12485.651     -28412.574     -28180.889    
    195300   280.19822     -6976.8818     -28398.923     -28170.909    
    195400   297.82143     -6398.8784     -28394.868     -28152.512    
    195500   284.87207     -13316.178     -28377.81      -28145.993    
    195600   320.19284     -2681.3461     -28413.133     -28152.572    
    195700   288.59304     -14315.122     -28395.881     -28161.036    
    195800   296.56605     -7843.9698     -28407.022     -28165.688    
    195900   297.74563     -12042.245     -28408.337     -28166.043    
    196000   287.9551      -25236.567     -28399.666     -28165.339    
    196100   306.6858       3634.4774     -28409.59      -28160.021    
    196200   302.17815     -1253.4707     -28392.262     -28146.361    
    196300   328.41765     -7528.2158     -28407.109     -28139.855    
    196400   320.7194      -4383.9328     -28424.761     -28163.772    
    196500   306.16721     -14250.606     -28432.847     -28183.7      
    196600   297.09629     -12389.829     -28423.408     -28181.642    
    196700   294.46316     -6792.5428     -28409.21      -28169.588    
    196800   296.35783     -2896.3855     -28394.116     -28152.951    
    196900   331.98327     -10436.734     -28406.877     -28136.722    
    197000   316.74513      4641.4808     -28402.498     -28144.744    
    197100   306.69849     -19857.229     -28421.235     -28171.655    
    197200   280.8648      -4180.1359     -28411.932     -28183.376    
    197300   285.33548     -12698.656     -28402.956     -28170.761    
    197400   303.66241      974.15831     -28397.686     -28150.577    
    197500   314.39272     -5816.3794     -28404.089     -28148.248    
    197600   277.21484     -926.4012      -28403.257     -28177.671    
    197700   288.59092     -7011.1304     -28422.552     -28187.708    
    197800   283.51809     -11117.372     -28408.016     -28177.3      
    197900   301.01137     -24523.663     -28404.408     -28159.456    
    198000   315.72321     -13725.192     -28414.788     -28157.865    
    198100   278.7304      -14346.528     -28405.121     -28178.301    
    198200   319.98056     -7142.9149     -28445.77      -28185.382    
    198300   287.56208     -3169.955      -28429.378     -28195.371    
    198400   284.29754     -9016.5723     -28429.79      -28198.44     
    198500   304.57478     -1138.9959     -28428.661     -28180.81     
    198600   325.44484     -11070.094     -28422.805     -28157.971    
    198700   321.91817     -11999.686     -28425.526     -28163.562    
    198800   284.9399      -19154.602     -28415.19      -28183.317    
    198900   301.16097     -13304.807     -28435.927     -28190.854    
    199000   290.45886     -11699.332     -28428.584     -28192.22     
    199100   298.52172     -6904.147      -28434.762     -28191.836    
    199200   279.7339      -5737.8168     -28399.226     -28171.589    
    199300   342.63631     -2984.0063     -28432.191     -28153.367    
    199400   300.13405     -14453.43      -28414.859     -28170.622    
    199500   296.8639      -12585.214     -28436.796     -28195.219    
    199600   298.88785     -19314.044     -28439.122     -28195.899    
    199700   283.03784     -5033.1777     -28422.392     -28192.067    
    199800   329.92594     -3954.7694     -28452.765     -28184.284    
    199900   292.83067      2819.935      -28422.309     -28184.015    
    200000   287.77099     -8186.4664     -28418.746     -28184.57     
Loop time of 14949.7 on 8 procs for 200000 steps with 274 atoms

Performance: 0.578 ns/day, 41.527 hours/ns, 13.378 timesteps/s, 3.666 katom-step/s
81.5% CPU use with 4 MPI tasks x 2 OpenMP threads

MPI task timing breakdown:
Section |  min time  |  avg time  |  max time  |%varavg| %total
---------------------------------------------------------------
Pair    | 7977.2     | 8346.8     | 8632.5     | 292.8 | 55.83
Bond    | 0.70238    | 0.77679    | 0.89703    |   8.3 |  0.01
Neigh   | 126.71     | 127.92     | 129.32     |   8.5 |  0.86
Comm    | 3610.6     | 3892.2     | 4254.1     | 428.7 | 26.04
Output  | 5.9236     | 7.4516     | 9.4406     |  56.3 |  0.05
Modify  | 2523.1     | 2535.4     | 2548.9     |  21.8 | 16.96
Other   |            | 39.19      |            |       |  0.26

Nlocal:           68.5 ave          74 max          59 min
Histogram: 1 0 0 0 0 0 1 0 0 2
Nghost:           3349 ave        3364 max        3327 min
Histogram: 1 0 0 0 1 0 0 0 1 1
Neighs:        36869.8 ave       39669 max       32063 min
Histogram: 1 0 0 0 0 0 1 0 0 2

Total # of neighbors = 147479
Ave neighs/atom = 538.24453
Ave special neighs/atom = 0
Neighbor list builds = 3911
Dangerous builds = 4
System init for write_data ...
WARNING: Compute rdf cutoff less than neighbor cutoff - forcing a needless neighbor list build (src/compute_rdf.cpp:179)
Total wall time: 4:09:13
