ITEM: TIMESTEP
0
ITEM: NUMBER OF ATOMS
310
ITEM: BOX BOUNDS xy xz yz pp pp pp
-9.0288000000000004e+00 1.5411400000000000e+01 -7.2027000000000001e+00
0.0000000000000000e+00 1.3079499999999999e+01 -1.8261000000000001e+00
0.0000000000000000e+00 1.7503399999999999e+01 3.3839999999999998e-01
ITEM: ATOMS id type q x y z
4 4 1.45856 4.87283 4.46226 1.69419
3 4 1.11116 3.47572 1.77983 2.54103
280 2 0.149494 2.13578 0.930474 6.60399
71 4 0.806111 -1.28356 2.04886 3.69598
23 2 0.154763 3.69377 0.864288 4.94496
24 2 0.132415 5.27824 1.39934 3.85044
25 2 0.157841 0.910854 1.01355 2.55489
26 2 0.161009 1.06671 2.93362 3.17507
27 2 0.128062 1.89091 1.5407 4.18537
41 1 -0.655446 4.24213 0.69609 3.95964
42 1 -0.627898 1.58424 1.91067 3.08339
48 3 -0.766106 3.37578 0.730783 1.14162
49 3 -0.794662 3.90822 3.28857 2.45074
51 3 -0.804595 4.07194 5.84369 1.00966
75 2 0.20627 -2.08235 3.80925 2.58367
72 2 0.00218088 0.268662 2.20085 4.57428
73 2 0.00867509 -1.67465 3.68341 0.770465
74 2 0.13812 -0.223458 4.01053 3.25513
152 4 1.40481 -2.07869 6.21181 6.12567
76 1 -0.646752 -0.981325 3.41799 2.56678
275 2 0.0168823 -0.427048 2.42405 1.16089
110 2 -0.0371768 2.02218 4.99208 7.39211
50 3 -0.808169 5.42677 3.47059 0.487757
150 4 0.803037 -0.668153 3.92029 7.82762
159 2 0.0155198 0.890117 5.00512 5.61544
163 2 0.145698 1.46371 3.2968 5.83099
164 2 0.078733 -0.319188 2.35301 6.63774
165 2 0.155399 1.54684 3.32906 7.70993
175 1 -0.634152 0.873848 3.50151 6.77791
179 3 -0.80277 -2.86311 5.55323 4.88479
180 3 -0.808362 -1.35974 5.13981 7.09184
195 2 0.0591915 -1.98275 6.07875 0.262784
196 2 0.17849 -0.712818 5.26076 1.82439
310 3 -0.818676 6.80771 1.17559 1.07131
94 4 0.637971 -0.0143294 2.06987 11.9066
95 4 1.27553 2.5982 2.3333 10.69
147 2 0.0981394 -2.04843 6.34077 13.2724
219 2 0.158784 3.3943 2.46096 15.8582
103 2 0.0287733 -0.331242 0.481852 11.4499
104 2 0.00137912 -0.667556 2.53757 10.3278
105 2 -0.0582736 -1.07772 2.50688 13.0933
108 2 0.0234393 1.39235 5.47128 15.8337
111 2 0.0713534 2.35978 3.43851 13.258
290 1 -0.660541 0.421072 0.450714 15.9932
156 2 0.0507759 -1.81908 3.13286 9.0651
132 3 -0.829222 1.94176 1.36664 9.50884
133 3 -0.797502 1.43102 2.49047 12.1931
134 3 -0.827709 3.87234 1.53301 11.3861
168 2 0.169339 -1.4174 5.45112 9.87787
136 3 -0.76056 2.95672 3.8339 9.6945
100 4 1.1665 3.68069 4.50619 13.165
276 2 0.0448249 3.17092 0.617246 13.169
144 2 -0.0521931 -2.44399 4.75007 15.0723
301 2 0.136491 -0.624739 1.27914 9.15074
99 4 0.693909 3.0634 5.0842 8.77105
220 1 -0.657298 4.52722 2.0964 15.9416
289 2 0.145133 -0.323279 1.05385 16.6522
120 2 0.148192 0.595903 5.99299 12.9982
288 2 0.101991 1.14777 1.18043 15.3648
157 2 -0.00377799 -3.55976 6.46128 12.4178
167 2 0.109237 -0.983555 4.05275 11.1199
176 1 -0.642544 -0.898256 4.43183 9.98165
217 2 0.156389 4.59995 1.03644 15.7034
166 2 0.129994 0.229031 4.58905 9.80798
16 2 0.009929 3.35723 0.701933 16.6637
98 4 0.972951 2.288 6.65728 16.8746
142 4 0.688965 -2.90789 6.35799 15.3219
149 3 -0.789564 -4.49552 6.28649 15.4225
151 4 0.841689 -4.52507 6.51502 11.0007
97 4 1.1175 5.23783 2.12518 11.8817
291 2 0.130567 6.07175 1.10184 9.15809
208 4 0.950006 -3.8677 9.49643 0.107748
171 2 0.146636 -4.07003 10.4287 7.51911
230 2 0.164779 -0.808617 12.785 4.66043
153 4 0.92223 -3.91648 8.24613 8.0833
154 4 0.929563 0.6949 6.77014 5.35494
155 4 1.00689 2.31026 8.10275 2.95243
22 2 0.162537 -2.74305 12.3179 3.82199
160 2 -0.0694812 1.40182 7.13568 6.83879
83 2 0.151884 -4.602 11.8482 6.12799
177 1 -0.645056 -3.10371 9.90077 7.96598
169 2 0.179896 -2.25216 9.55685 7.19367
182 3 -0.777039 -3.07668 7.29391 7.16855
183 3 -0.762394 -0.770042 7.1276 5.27877
184 3 -0.804892 1.59401 7.25321 4.09414
185 3 -0.786253 1.38339 8.81099 1.8102
193 4 1.06919 -2.43797 7.34361 1.60271
194 2 0.150367 -0.619537 7.34926 2.38003
279 2 0.188933 -6.39227 12.3284 6.9678
234 4 1.02486 0.585455 9.83203 0.812009
161 2 0.0869479 3.30095 6.97604 2.04348
200 3 -0.841082 -2.71478 8.7218 0.835594
202 2 0.175918 -4.66081 12.0785 2.93244
203 2 0.198619 -4.29936 10.1641 3.28559
204 2 0.161549 -4.62616 11.3632 4.8229
205 2 0.168485 -6.05851 12.4183 1.23747
206 1 -0.626432 -4.81802 11.1203 3.63184
211 4 0.966066 -0.128632 12.6751 2.01291
199 3 -0.843645 -3.34688 6.57046 2.57487
80 2 0.0360489 -3.55389 12.5595 7.94211
214 3 -0.813845 0.235684 11.2852 1.26553
229 2 0.003093 -0.299054 11.2646 4.96067
212 2 0.00886359 -1.54065 12.5149 3.06256
87 1 -0.664408 -5.1487 12.5692 6.91269
197 2 0.175023 0.385121 6.55268 0.774102
198 1 -0.634032 -0.551919 6.42527 1.34275
77 4 1.0646 -5.13051 12.6823 8.85933
78 4 1.2667 -5.63497 10.5059 10.861
79 4 0.754595 -4.49438 11.7507 13.519
210 2 -0.0156806 -6.09363 9.03954 16.1233
170 2 0.162889 -2.7804 10.1511 9.07528
82 2 0.100559 -4.86941 8.94634 10.4631
84 2 0.164977 -2.20641 10.0966 13.6427
85 2 0.129213 -3.76594 10.0301 14.7977
86 2 0.0984011 -2.61859 11.614 14.8296
88 1 -0.638969 -3.05002 10.7204 14.1378
89 3 -0.867464 -5.46945 11.3635 9.61621
90 3 -0.787228 -4.95206 11.0844 12.2004
119 2 0.174807 -0.505203 7.49746 13.2665
277 2 -0.0114546 -1.20134 11.3579 13.7608
121 2 0.134731 1.45714 8.69504 10.3978
146 2 0.185624 -3.24345 8.02708 13.2635
148 1 -0.638951 -2.49385 7.42169 13.8525
145 2 0.134716 -1.64387 8.02211 14.359
118 2 0.108993 0.310871 7.42888 11.4696
101 4 0.763094 2.41525 7.34909 12.0731
236 2 0.15971 -0.440189 9.00809 16.1947
239 1 -0.663152 -0.957328 10.0438 16.464
129 1 -0.626993 0.457592 7.11965 12.7796
283 2 0.160701 -5.95372 8.90863 14.1786
226 2 0.154453 -0.827642 11.307 9.76685
181 3 -0.743473 -4.0088 7.74508 9.96773
287 2 0.156258 -7.33298 12.4393 15.3341
237 2 0.163603 -1.87686 10.3051 15.7161
309 3 -0.813673 -5.44827 11.3748 17.4814
238 2 0.0568076 -2.61957 9.55923 17.4066
81 2 -0.0223978 -5.84241 12.1624 14.5375
131 1 -0.67694 0.655476 7.21987 16.0293
124 2 0.164481 0.592137 7.18173 14.8516
125 2 0.0999141 1.2297 8.45779 16.4347
1 4 1.00683 -5.43 12.9401 17.3075
112 2 0.0286708 1.64716 8.09834 13.6812
235 2 0.126956 -0.10815 10.987 16.5153
109 2 0.00499672 2.35015 6.62116 9.39368
126 2 0.143001 -0.251021 7.16965 16.6318
231 1 -0.648363 0.295705 11.4562 9.85103
143 2 -0.018708 -2.21895 6.81192 16.8803
2 4 1.56628 11.414 5.74126 3.7128
9 4 1.42158 6.44012 6.33603 3.58
5 4 0.907502 10.9938 0.687172 1.62262
61 3 -0.851588 7.50412 6.05432 4.64187
7 4 1.18973 11.8617 1.56065 6.02668
8 4 1.27379 9.75526 3.34842 2.38966
62 3 -0.856404 9.39273 4.96999 6.28116
215 4 1.11126 6.65003 2.499 0.199999
11 4 1.09158 9.72304 3.585 6.95384
19 2 0.00495043 8.28067 2.97349 7.82384
294 2 0.15938 6.66237 2.08141 7.50284
228 2 0.1574 7.59497 1.25891 5.16271
128 1 -0.636996 4.87861 5.54892 8.32165
29 2 0.175711 7.9027 2.23792 3.88086
30 2 0.249324 7.53338 3.94799 3.14818
31 2 0.2186 8.7946 3.64233 4.53932
221 4 0.858577 8.11383 0.228378 8.74835
116 2 0.109931 4.66458 5.06812 7.15937
44 1 -0.691631 8.36209 3.2719 3.63919
213 2 0.0489802 8.44262 0.388795 2.96436
12 4 1.47919 8.96317 6.2744 5.38402
52 3 -0.793725 12.3123 1.24156 0.985325
53 3 -0.791356 13.0501 1.96824 4.75823
54 3 -0.81678 12.6557 1.30798 7.40487
55 3 -0.823252 9.85655 1.80367 1.93639
56 3 -0.814733 10.937 4.26497 3.06394
57 3 -0.854843 6.06202 5.05093 2.59268
58 3 -0.776415 9.01737 4.40189 0.936324
59 3 -0.824148 10.5257 2.45825 6.2239
232 1 -0.670811 7.38862 0.317706 4.51168
293 1 -0.629045 6.84742 1.85234 8.61299
274 2 0.0227805 14.5411 0.454211 3.02377
35 2 0.1761 10.996 4.97374 8.33511
33 2 0.158247 3.89768 6.27752 4.20767
91 4 0.593729 13.4718 2.00877 0.179691
286 2 0.13331 14.7937 0.399474 1.12016
216 2 0.135811 8.18305 3.34909 0.124877
223 2 0.00129746 9.27973 0.123077 4.50138
46 1 -0.662511 10.5415 3.93393 8.62495
32 2 0.157742 5.03143 6.34022 5.71906
28 2 0.169376 13.3989 0.743968 10.491
36 2 0.175983 11.387 3.1821 8.93728
37 2 0.13066 9.4752 4.12102 9.4103
297 2 0.113396 9.40179 0.796966 10.6018
162 2 -0.0113281 11.0522 5.00143 10.2643
92 2 -0.0275769 12.6318 1.57219 16.4416
93 2 -0.0210549 11.0719 3.44983 16.4512
10 4 1.50856 7.14459 6.05435 17.4196
295 2 0.177357 10.0834 1.96523 9.18445
102 4 1.24544 4.85131 6.0468 15.3435
218 2 0.190732 5.17693 2.84051 15.3965
107 2 -0.00689489 6.22024 2.23433 10.4737
249 2 0.0406375 7.91775 5.50388 9.01767
114 2 0.066875 7.13028 2.53217 15.0116
127 1 -0.603737 7.68158 0.868938 15.0727
137 3 -0.837883 4.91021 3.74717 12.5513
292 2 0.16243 7.12988 2.87226 9.20388
139 3 -0.834444 4.04106 4.83462 14.6901
140 3 -0.854439 6.04014 5.54006 16.3327
191 3 -0.824715 8.669 6.3655 16.8539
187 4 0.66365 7.8315 3.85983 13.8075
188 2 -0.0057125 8.50581 2.24793 13.9754
189 2 -0.00701768 8.36627 3.86853 12.0693
190 2 0.0633956 6.21151 4.26946 13.69
186 4 1.25895 9.33343 6.34093 15.4056
192 3 -0.779035 8.59634 4.92566 14.5861
135 3 -0.797413 6.11804 1.20643 12.8913
252 2 0.192992 5.52924 6.08592 12.0926
298 1 -0.652618 9.79677 0.870886 9.47049
251 2 0.140584 8.339 3.46808 10.3053
242 2 0.131462 11.1716 1.85728 12.3502
243 2 0.167869 11.8301 0.799149 10.8954
244 2 0.115637 12.3452 1.36085 14.551
245 1 -0.662152 12.0613 1.25391 11.9432
43 1 -0.689648 14.1803 0.421739 9.6752
299 2 0.114235 8.81356 0.660229 14.8646
255 1 -0.657695 7.73133 4.39652 10.352
250 2 0.13899 6.65408 4.19947 10.6151
247 4 0.731379 7.87771 6.23001 10.8789
241 2 0.11395 13.0474 1.81561 11.9657
138 3 -0.776555 3.17102 6.01463 12.3706
117 2 0.16835 5.32984 4.81609 9.16285
13 4 1.50065 7.71862 8.28236 1.5316
14 4 0.949999 7.00145 8.12817 6.88755
15 4 1.22507 6.59879 10.7387 5.46165
207 1 -0.668962 8.25276 12.2965 1.53623
201 4 1.07251 8.77357 10.8301 3.05041
158 2 0.0693126 9.95351 8.15731 7.36308
34 2 0.189847 4.78888 7.90622 4.66193
38 2 0.15732 5.36283 11.0312 3.37964
262 2 0.0677534 5.28478 11.519 0.463316
40 2 0.12906 4.33524 11.1224 5.11045
20 2 -0.0338462 6.86057 8.74681 8.45294
47 1 -0.672291 5.19477 11.5851 4.40846
63 3 -0.814551 6.80964 7.64524 2.7795
64 3 -0.819852 8.38393 7.08639 0.678511
65 3 -0.773032 8.9255 9.3296 2.23475
66 3 -0.813105 6.90441 9.17673 0.452546
67 3 -0.793229 8.46586 7.69157 6.56414
68 3 -0.76848 7.82946 10.9895 4.37933
69 3 -0.809871 6.30202 9.17524 5.90032
70 3 -0.795061 6.85944 11.7775 6.95923
172 2 0.131236 2.83014 10.6441 3.67662
173 2 0.149004 4.20592 9.44556 3.13182
174 2 0.142298 3.27762 9.16351 4.80465
178 1 -0.665257 3.24873 9.57038 3.74647
6 4 1.19815 6.02811 12.65 8.04172
224 2 -0.0390021 2.1787 10.4017 5.19675
278 2 -0.0274593 4.18684 12.6507 3.0373
263 2 0.163337 3.5696 10.2998 0.856917
222 4 0.655996 1.27245 11.7708 5.68319
233 3 -0.723498 1.13913 12.3183 7.19832
267 2 -0.0490178 4.56586 9.14044 8.19268
60 3 -0.806063 10.0732 6.59733 4.32765
17 2 -0.0074029 3.1607 12.0586 0.85121
21 2 -0.0085579 6.07348 6.73599 7.28654
285 2 0.150638 7.80479 11.3047 1.04017
39 2 0.158935 5.3504 12.7304 4.38166
45 1 -0.668168 4.83664 6.72451 4.69438
18 2 -0.019297 4.03435 12.8241 5.50444
270 3 -0.807528 4.54209 11.6579 8.65997
115 2 0.100931 4.64785 6.69855 8.63726
209 2 0.0664723 10.0498 9.28414 0.831281
141 3 -0.807297 3.79487 6.97262 16.0187
122 2 0.119355 2.88951 8.52403 9.23652
113 2 -0.0117181 5.49559 6.91792 13.9452
307 2 0.133235 2.6171 12.5307 12.0743
123 2 0.0440413 3.48101 8.84887 11.4285
130 1 -0.633098 2.50829 8.31153 10.2616
265 4 0.939428 4.61883 10.3091 9.39217
246 1 -0.646856 5.1298 12.9539 15.0227
308 1 -0.661415 3.01951 11.6857 12.7564
248 2 0.0202774 6.88318 7.63853 10.4692
106 2 -0.018975 1.09564 12.0239 12.7104
257 3 -0.786579 9.33274 6.70976 11.3395
256 1 -0.66631 6.11079 7.07421 12.1126
258 4 0.703116 4.18168 10.3792 16.9655
259 2 -0.0163524 5.18272 11.0951 15.6773
260 2 0.0201074 2.70922 9.55046 16.2587
96 4 0.687886 -0.234708 12.7901 13.621
264 1 -0.655662 2.37166 10.9309 17.4781
303 2 0.15623 6.07034 12.7115 15.5619
254 2 0.123918 6.89588 7.03497 12.9483
284 1 -0.67953 8.81957 7.99127 14.5044
266 4 1.22955 6.76388 10.1966 11.5999
268 2 0.00737765 3.12867 10.1591 10.2888
269 2 0.00741463 6.82322 8.85604 12.651
271 3 -0.844312 8.26799 10.3481 11.2007
272 3 -0.846398 5.73019 9.89963 10.4343
273 3 -0.77106 6.15056 11.3287 12.5969
281 2 0.134828 7.96617 8.28072 15.1154
282 2 0.166322 8.45976 7.36885 13.5655
240 4 0.843812 4.88938 12.3852 13.0441
253 2 0.157794 5.44839 7.98847 11.9995
302 2 0.216797 7.56059 12.239 9.91364
305 2 0.127573 2.6455 11.6715 13.804
306 2 0.147114 3.14997 10.7436 12.2013
261 2 0.134191 1.79978 11.4852 16.7016
300 2 0.149226 0.109227 12.9919 15.907
296 2 0.269344 3.39636 12.8723 9.20006
227 2 0.141766 0.662298 11.4232 10.9382
225 2 0.15467 0.863481 10.6678 9.14566
304 2 0.118836 4.1604 12.7545 15.5966
ITEM: TIMESTEP
100
ITEM: NUMBER OF ATOMS
310
ITEM: BOX BOUNDS xy xz yz pp pp pp
-9.0288000000000004e+00 1.5411400000000000e+01 -7.2027000000000001e+00
0.0000000000000000e+00 1.3053340999999998e+01 -1.8261000000000001e+00
0.0000000000000000e+00 1.7503399999999999e+01 3.3772319999999922e-01
ITEM: ATOMS id type q x y z
4 4 1.46691 4.84296 4.28797 1.66584
3 4 1.13589 3.57096 1.78531 2.58837
280 2 0.159715 1.93425 1.03922 6.23229
71 4 0.748942 -1.19321 2.14636 3.79986
23 2 0.146867 3.59888 1.11452 4.81192
24 2 0.158606 5.31178 1.18789 4.39626
25 2 0.148489 0.967186 1.05017 2.3866
26 2 0.15846 1.3267 2.89992 3.07243
27 2 0.125869 1.75636 1.39224 4.28178
41 1 -0.686145 4.34571 0.802636 4.01123
42 1 -0.62936 1.65994 1.79675 3.12999
48 3 -0.760642 3.60253 0.808059 1.17591
49 3 -0.822684 3.86141 3.29896 2.52327
51 3 -0.793278 3.88983 5.79971 0.991134
230 2 0.154769 6.25484 0.195244 4.60859
72 2 -0.00992987 0.413812 2.47647 4.53527
73 2 0.00450367 -1.70437 3.74926 0.719326
74 2 0.14823 -0.735001 4.24956 3.10278
152 4 1.44421 -2.1675 6.32358 6.03243
76 1 -0.644771 -1.33057 3.42335 2.59796
275 2 0.00261055 -0.500046 2.56756 1.16363
110 2 -0.0302891 2.16598 5.08359 7.59924
50 3 -0.852833 5.52382 3.50355 0.449138
150 4 0.791291 -0.753428 3.87859 7.86758
159 2 0.0125234 0.855763 5.17407 5.87785
163 2 0.153434 1.78326 3.56142 6.28003
164 2 0.0681061 -0.0788856 2.37644 6.78364
165 2 0.181209 1.47839 3.32695 8.05817
175 1 -0.628579 1.01266 3.63196 7.04841
179 3 -0.791162 -3.17942 5.54368 4.99065
180 3 -0.753075 -1.41505 5.1041 7.033
195 2 0.0325812 -2.18175 5.92593 0.264642
196 2 0.165399 -0.804988 5.23514 1.7662
310 3 -0.844823 6.88291 1.14095 0.997574
198 1 -0.659515 -0.499413 6.28229 1.25575
197 2 0.156169 0.472897 6.12485 0.696163
33 2 0.17347 3.78115 6.24324 3.91492
94 4 0.62668 0.150858 1.9935 12.0541
95 4 1.23153 2.66191 2.23868 10.6131
147 2 0.093811 -2.2017 6.2983 13.2138
219 2 0.176252 3.27264 2.48555 15.7502
103 2 0.0225796 -0.246484 0.457552 11.3087
104 2 0.00613638 -0.524942 2.38999 10.5337
105 2 -0.0583582 -0.785313 2.10133 13.4439
108 2 0.0230331 1.29964 5.31843 16.053
111 2 0.0773644 2.24764 3.65258 12.9716
290 1 -0.661559 0.666234 0.587316 16.0455
156 2 0.0406899 -1.76357 3.08553 9.23183
132 3 -0.815717 1.8381 1.38457 9.35049
133 3 -0.80433 1.61779 2.3097 12.2712
134 3 -0.813598 3.97137 1.37071 11.2144
168 2 0.156732 -1.07381 5.24076 9.83556
136 3 -0.775505 3.15155 3.74316 9.80361
100 4 1.14969 3.67421 4.60971 13.1283
276 2 0.0732317 3.26146 0.757231 12.8506
144 2 -0.0687997 -2.20711 4.891 15.2483
301 2 0.157876 -0.553966 1.02191 9.0459
99 4 0.712828 3.29589 5.0491 8.92794
220 1 -0.646956 4.32379 2.02442 15.8126
289 2 0.156212 -0.00365704 1.28849 16.5463
120 2 0.150773 0.721045 6.00541 13.0391
288 2 0.0978959 1.48503 1.2053 15.335
97 4 1.13993 5.23414 2.2323 11.8398
167 2 0.0857941 -0.688779 3.91843 11.2742
176 1 -0.639584 -0.541532 4.26528 9.98632
217 2 0.124172 4.4263 1.03989 15.1868
166 2 0.138861 0.567142 4.37796 9.69127
16 2 0.0266416 3.633 0.468469 16.7247
98 4 0.992094 2.33132 6.49467 16.9569
142 4 0.681584 -2.88298 6.43257 15.3306
149 3 -0.753647 -4.44219 6.50207 15.3704
151 4 0.887536 -4.60504 6.55934 10.9078
291 2 0.113665 6.23824 0.960362 9.43107
109 2 0.0245315 2.80743 6.51046 9.90263
208 4 0.952862 -3.84662 9.43582 0.149298
171 2 0.147628 -4.08185 10.4492 7.37963
209 2 0.101297 -5.26403 9.44958 1.08426
153 4 0.936551 -3.9162 8.17618 8.01
154 4 0.905679 0.665868 6.84235 5.50147
155 4 1.00049 2.18044 8.09766 2.81685
22 2 0.160421 -2.87264 12.4078 3.93215
160 2 -0.0573002 1.33922 7.53348 6.86111
83 2 0.145141 -4.82933 11.9737 6.34583
177 1 -0.650795 -3.25275 9.88193 8.02425
169 2 0.177358 -2.21888 9.69361 7.52753
182 3 -0.803052 -2.96776 7.26753 7.07858
183 3 -0.776692 -0.823161 7.19172 5.45676
184 3 -0.761776 1.45147 7.34484 4.08651
185 3 -0.806552 1.32905 8.93684 1.72984
193 4 1.09152 -2.40173 7.12786 1.49558
194 2 0.167207 -0.2828 7.28168 2.11119
279 2 0.207083 -6.53573 12.5156 6.92196
234 4 1.05309 0.457983 9.8825 0.839518
161 2 0.0827309 3.1435 7.07399 1.89654
200 3 -0.840018 -2.75162 8.48684 0.806389
202 2 0.164103 -4.31062 11.5076 2.62244
203 2 0.201224 -4.23111 9.73896 3.43503
204 2 0.164471 -4.5395 11.2875 4.55189
205 2 0.154454 -6.2776 12.5284 1.12019
206 1 -0.653408 -4.69 10.8084 3.51476
211 4 0.996728 -0.087158 12.7389 1.99638
199 3 -0.845051 -3.23998 6.58149 2.64801
80 2 0.0243171 -3.66616 12.6623 7.67301
214 3 -0.825066 -0.0719013 11.2244 1.40703
229 2 0.0188533 -0.426565 11.3186 4.91038
212 2 0.0445715 -1.61319 12.6353 2.78042
87 1 -0.67011 -5.40473 12.8389 6.83394
157 2 0.00785223 -3.65685 6.85011 12.2947
78 4 1.2272 -5.70491 10.5265 10.8635
79 4 0.7348 -4.37603 11.952 13.3765
210 2 0.00136941 -6.18001 9.21686 16.1006
170 2 0.198188 -3.23806 10.1358 9.14705
82 2 0.102061 -5.14623 8.94932 10.5335
84 2 0.151939 -2.56578 10.5856 13.2516
85 2 0.153196 -3.58749 9.95012 14.8904
86 2 0.0885209 -2.7651 11.8449 15.0329
88 1 -0.637748 -3.13787 10.8694 14.3118
89 3 -0.836194 -5.19723 11.3158 9.49592
90 3 -0.790548 -4.95446 11.0906 12.1579
119 2 0.175283 -0.583091 7.31493 13.1127
277 2 -0.00478306 -1.31417 11.4951 14.0749
121 2 0.148092 1.29723 8.46327 10.4294
146 2 0.177906 -3.47693 8.05282 13.5558
148 1 -0.613715 -2.53223 7.41738 13.7935
145 2 0.123989 -1.60465 8.02857 14.3878
118 2 0.13078 0.390309 7.19855 11.4366
225 2 0.171223 0.0125898 10.4537 9.30562
236 2 0.168381 -0.389581 8.85461 16.2402
239 1 -0.660577 -0.952607 9.91133 16.4908
129 1 -0.627311 0.467274 7.04676 12.6861
283 2 0.153247 -5.61664 8.66913 14.3456
226 2 0.133611 -0.629071 12.0367 10.2725
181 3 -0.769748 -4.28474 7.70925 9.83934
287 2 0.157227 -7.09611 12.5337 15.5217
237 2 0.177792 -1.80891 10.1803 15.874
235 2 0.108122 -0.149801 10.9682 16.6102
238 2 0.0477494 -2.5728 9.34706 17.3846
81 2 -0.0206962 -5.51004 12.3519 14.6491
131 1 -0.649682 0.666356 7.09606 15.9923
124 2 0.15508 0.535864 6.94859 14.8128
125 2 0.109922 1.36138 8.27403 16.2163
1 4 0.989798 -5.19222 12.9093 17.3211
112 2 0.0340007 1.32561 8.23689 13.6408
231 1 -0.647003 0.306349 11.3873 9.88147
77 4 1.05191 -5.06665 12.7003 8.75387
126 2 0.129809 -0.300352 7.06272 16.6429
309 3 -0.814026 -5.42155 11.326 17.4719
143 2 -0.000232598 -2.35536 7.08431 16.9219
2 4 1.51403 11.2545 5.80195 3.74338
223 2 -0.012146 9.30626 0.207826 4.67717
5 4 0.909127 11.1544 0.758419 1.82898
61 3 -0.870065 7.43574 5.91334 4.59565
7 4 1.27272 11.834 1.65882 6.02039
8 4 1.27211 9.66298 3.38314 2.35631
62 3 -0.830839 9.264 4.90454 6.26766
215 4 1.0921 6.63868 2.43399 0.082862
11 4 1.10173 9.70451 3.60221 7.02039
19 2 0.00606105 8.4002 2.84136 7.92082
294 2 0.171883 6.66155 1.99519 7.75029
228 2 0.149329 7.73972 1.21187 4.9588
128 1 -0.673778 4.95383 5.55613 8.32047
29 2 0.177973 7.90316 2.13366 3.81456
30 2 0.252765 7.49662 3.88288 3.07836
31 2 0.22644 8.58567 3.69842 4.48984
32 2 0.15204 4.79691 6.04417 5.48467
116 2 0.120503 4.77017 5.30892 7.16621
44 1 -0.692973 8.2582 3.20602 3.55199
75 2 0.231785 12.9013 3.57367 2.64522
12 4 1.42786 8.85174 6.26872 5.34064
52 3 -0.779686 12.345 1.37968 1.02283
53 3 -0.782234 12.9464 1.97813 4.88478
54 3 -0.814332 12.611 1.27584 7.36605
55 3 -0.804445 9.95117 1.80184 1.94204
56 3 -0.803888 10.774 4.1122 3.13109
57 3 -0.800644 5.89969 4.94173 2.57968
58 3 -0.816341 8.97464 4.4557 0.850478
59 3 -0.836627 10.6492 2.60787 6.31063
232 1 -0.674596 7.35715 0.306485 4.38994
18 2 -0.0224022 11.2974 0.142146 5.41929
274 2 0.0108997 14.5985 0.628968 2.98612
35 2 0.166655 10.7746 5.07404 8.41271
9 4 1.31704 6.33352 6.41749 3.60986
91 4 0.590527 13.468 2.10468 0.161684
286 2 0.14932 14.5942 0.261814 1.37748
216 2 0.10581 8.08773 3.31812 0.0410257
213 2 0.030226 8.59446 0.197958 2.95335
28 2 0.169194 13.4547 0.631714 10.4719
36 2 0.164791 11.0984 3.26536 9.17751
37 2 0.15005 9.33116 4.13417 9.51793
297 2 0.140778 9.85115 0.738797 10.778
162 2 -0.0158672 11.3071 5.04342 10.2863
92 2 -0.0179661 12.3679 1.35386 16.4477
93 2 -0.0407899 11.0638 3.34714 16.3223
293 1 -0.625749 7.01697 1.78541 8.76336
295 2 0.163517 10.0857 1.98219 9.3398
102 4 1.21823 4.82565 6.05794 15.3048
218 2 0.174355 5.1613 2.75616 15.2949
107 2 0.0177286 6.26655 2.43036 10.4709
249 2 0.0302617 7.68414 4.98301 9.20168
114 2 0.0444814 7.107 2.83255 14.8578
127 1 -0.609672 7.47357 1.07048 15.2116
137 3 -0.83399 5.03556 3.75085 12.3471
292 2 0.155119 7.40652 2.74832 9.39329
139 3 -0.808622 3.9664 4.68101 14.7178
140 3 -0.853338 6.11851 5.83469 16.1903
191 3 -0.818215 8.56161 6.60674 16.8221
187 4 0.665781 8.20671 3.88887 13.7624
188 2 -0.024323 8.73676 2.35786 14.3139
189 2 -0.000339977 8.90161 3.72534 12.1208
190 2 0.0513095 6.64455 4.11788 13.2019
186 4 1.24403 9.17502 6.49524 15.3614
192 3 -0.78767 8.71937 5.1743 14.4075
135 3 -0.792774 6.06439 1.21551 12.8551
252 2 0.186166 5.94324 5.82284 12.0353
298 1 -0.654893 9.90426 0.833125 9.65915
251 2 0.126885 8.20069 3.18887 10.6856
242 2 0.129512 11.3682 2.03161 12.1662
243 2 0.18107 11.9242 0.980993 10.8123
244 2 0.118023 12.7048 1.15112 14.564
245 1 -0.67938 12.1583 1.33689 11.8441
43 1 -0.66213 14.2254 0.221707 9.55772
299 2 0.12489 8.57238 0.736171 15.2997
255 1 -0.650607 7.68236 4.23983 10.7043
250 2 0.169439 6.65942 4.19734 11.1613
247 4 0.742721 7.83106 6.18938 10.7362
241 2 0.107452 13.1531 1.87289 11.9502
138 3 -0.783772 3.29139 6.04059 12.6378
117 2 0.163474 5.58458 4.76091 8.87393
300 2 0.14311 6.75082 0.698208 16.0699
257 3 -0.785897 9.2741 6.56454 11.229
46 1 -0.67478 10.3277 4.01866 8.77927
10 4 1.56864 7.07034 6.14281 17.4924
13 4 1.47946 7.59888 8.1474 1.519
14 4 0.944883 7.01048 8.07069 6.82421
15 4 1.26284 6.76105 10.7386 5.59969
207 1 -0.667287 8.14123 12.2295 1.56887
201 4 1.14191 8.93828 10.7672 3.01567
158 2 0.109885 9.94723 8.08133 7.1898
34 2 0.187634 4.70884 7.81512 4.71471
38 2 0.1556 5.16505 10.9906 3.49409
262 2 0.0285663 5.691 11.7464 0.165754
40 2 0.133579 4.46604 11.1873 5.33353
20 2 -0.03684 6.74864 8.31766 8.49881
47 1 -0.658111 5.28534 11.535 4.54761
63 3 -0.82217 6.51628 7.7921 2.72739
64 3 -0.891142 8.39153 7.03135 0.792453
65 3 -0.765393 8.8904 9.46538 2.13729
66 3 -0.792579 6.86883 9.2043 0.500893
67 3 -0.812243 8.53001 7.73679 6.58474
68 3 -0.746583 8.077 10.814 4.33617
69 3 -0.818111 6.31011 9.16148 5.92672
70 3 -0.83943 6.90435 11.7134 6.80575
172 2 0.143546 2.80445 10.4383 3.74448
173 2 0.15187 4.12327 9.0565 3.46827
174 2 0.146017 3.01002 9.08898 5.03859
178 1 -0.641329 3.06829 9.40656 3.90311
6 4 1.21121 5.95585 12.5494 7.98701
224 2 -0.0321372 2.14649 10.4125 5.32698
270 3 -0.816712 4.70475 11.5439 8.67667
263 2 0.166001 4.27376 10.1407 0.874863
222 4 0.616117 1.19766 11.7945 5.66218
233 3 -0.717293 1.09924 12.2991 7.32061
267 2 -0.0556759 4.32925 8.98547 8.16555
60 3 -0.837912 10.001 6.64941 4.31778
17 2 -0.0122685 3.5104 12.0766 0.984842
21 2 -0.0136826 6.01491 6.6482 7.09686
285 2 0.176922 7.77364 11.3034 1.00821
39 2 0.165376 5.57906 12.6404 4.45582
45 1 -0.666662 4.68386 6.64679 4.57041
115 2 0.0942494 5.22723 6.69625 8.69159
278 2 -0.039655 4.32015 12.7621 3.27507
141 3 -0.801375 3.81494 6.96875 16.1166
122 2 0.115613 2.8307 8.42315 9.43965
113 2 -0.00631861 5.37752 7.07078 13.9906
307 2 0.123301 2.54788 12.7419 12.3395
123 2 0.00569939 3.4636 9.07515 11.6402
130 1 -0.644843 2.36841 8.25161 10.4406
265 4 0.942217 4.62899 10.1513 9.38041
246 1 -0.652279 5.31924 12.7995 14.9748
308 1 -0.63511 3.0111 11.7471 12.7071
248 2 0.0209755 6.69572 7.5235 10.4362
106 2 -0.004112 1.21411 12.1108 13.2284
227 2 0.152141 1.15931 11.2474 10.6259
256 1 -0.665065 6.10396 6.91578 12.1645
258 4 0.709942 4.35401 10.5031 16.9807
259 2 -0.0284572 5.06145 10.9039 15.4585
260 2 0.0541584 2.66315 9.78468 16.2637
96 4 0.695656 -0.343483 12.9259 13.7905
264 1 -0.636028 2.45335 10.9505 17.3685
303 2 0.144837 6.21571 12.3053 15.4612
254 2 0.145648 6.73367 7.11847 13.0536
284 1 -0.661508 8.72523 8.15396 14.5166
266 4 1.21939 6.67046 10.1953 11.5513
268 2 -0.00138344 3.06665 10.0878 10.1955
269 2 -0.00101808 6.62427 8.75978 12.537
271 3 -0.853798 8.2058 10.3286 11.1231
272 3 -0.824676 5.87368 9.82157 10.235
273 3 -0.800744 5.87651 11.3715 12.3499
281 2 0.13219 7.92858 8.95562 14.8801
282 2 0.174001 8.42838 7.64945 13.5186
240 4 0.868505 4.85742 12.4282 12.9325
253 2 0.171205 5.12097 7.41523 12.2915
304 2 0.114135 4.2978 12.6602 15.4566
305 2 0.098451 3.07319 11.5507 13.9614
306 2 0.14657 2.95656 10.7884 12.1258
261 2 0.147627 1.52554 11.5063 17.1295
101 4 0.695347 2.43594 7.61204 12.2073
302 2 0.222306 7.55313 11.9586 9.75771
221 4 0.870858 0.983379 12.8375 8.8565
296 2 0.243336 3.49622 12.8571 9.21848
ITEM: TIMESTEP
200
ITEM: NUMBER OF ATOMS
310
ITEM: BOX BOUNDS xy xz yz pp pp pp
-9.0288000000000004e+00 1.5411400000000000e+01 -7.2027000000000001e+00
0.0000000000000000e+00 1.3027182000000000e+01 -1.8261000000000001e+00
0.0000000000000000e+00 1.7503399999999999e+01 3.3704640000000019e-01
ITEM: ATOMS id type q x y z
4 4 1.43191 4.81076 4.24235 1.56704
3 4 1.07321 3.42295 1.84617 2.70379
280 2 0.162065 1.33678 1.3577 6.78218
71 4 0.741198 -1.17119 2.18806 3.87025
23 2 0.146499 3.71176 1.39394 5.15031
24 2 0.160855 5.2823 1.66609 4.29602
25 2 0.162397 0.878462 0.954446 2.63411
26 2 0.154866 1.10511 2.78406 2.9926
27 2 0.143688 1.78962 1.56043 4.34384
41 1 -0.666061 4.32254 1.06431 4.25564
42 1 -0.674131 1.50633 1.78896 3.21919
48 3 -0.755416 3.57008 0.665316 1.26196
49 3 -0.825184 3.88115 3.31951 2.44006
51 3 -0.790856 3.76712 5.77911 0.941855
87 1 -0.687391 1.7832 0.255297 6.80242
72 2 -0.00335635 0.350959 2.49567 4.69567
73 2 0.00144026 -1.27004 3.7019 0.61784
74 2 0.142248 -0.923533 4.28052 3.23059
152 4 1.41634 -2.17539 6.26828 6.24856
76 1 -0.625608 -1.43308 3.33782 2.52549
275 2 0.0106577 -0.367977 2.35852 1.39966
110 2 -0.035753 2.1151 5.04045 7.84362
50 3 -0.822678 5.47646 3.34922 0.287129
150 4 0.798881 -0.559462 3.98321 7.87986
159 2 0.0158923 1.00409 5.34211 6.05633
163 2 0.150611 1.91678 3.50669 6.04781
164 2 0.0615786 0.0564672 2.51093 6.59173
165 2 0.143319 1.64033 3.46334 7.95716
175 1 -0.625214 1.15936 3.65592 6.89364
179 3 -0.761824 -3.09328 5.51415 5.05923
180 3 -0.804778 -1.38227 5.09819 7.12548
195 2 0.0449991 -2.41838 5.84937 0.166873
196 2 0.173673 -0.996503 5.04434 1.5655
33 2 0.170554 3.79562 6.09449 4.15248
198 1 -0.673363 -0.70578 6.11867 1.03675
197 2 0.144806 0.146488 5.91108 0.362274
212 2 0.02911 5.49166 0.086113 3.05732
310 3 -0.811011 6.91045 1.19262 1.04987
83 2 0.153373 2.68913 0.120798 6.14336
94 4 0.643751 0.185193 1.98919 11.7169
95 4 1.26557 2.77683 2.25941 10.516
291 2 0.118239 6.02789 1.05509 8.83313
219 2 0.191044 3.32362 2.56953 15.6047
103 2 0.024409 -0.119914 0.381755 11.3378
104 2 0.00341943 -0.30387 2.46793 10.1289
105 2 -0.0557094 -1.04683 2.3592 12.8801
108 2 -0.00673642 1.18091 5.37713 15.792
111 2 0.0835506 2.51185 3.49369 12.8794
290 1 -0.662773 1.23152 0.844626 15.9968
156 2 0.0436909 -1.58196 3.06482 9.08709
132 3 -0.857559 1.89431 1.34291 9.46046
133 3 -0.786237 1.62181 2.35846 12.1593
134 3 -0.82785 4.16092 1.36721 11.2749
168 2 0.163077 -1.17183 5.3999 9.7913
136 3 -0.818393 3.27541 3.64983 9.90035
100 4 1.11895 3.84897 4.57575 13.1065
276 2 0.0917951 3.40157 0.757293 12.7285
144 2 -0.065953 -2.21825 5.08895 15.1771
301 2 0.153208 -0.472529 1.05658 9.09925
99 4 0.707807 3.32923 5.03552 9.15468
220 1 -0.658302 4.30186 2.02045 15.7799
289 2 0.155856 0.726053 1.69682 16.6572
120 2 0.137015 0.543733 6.05416 13.3081
288 2 0.13264 2.04858 1.28 15.3258
97 4 1.11246 5.43218 2.05464 11.7132
167 2 0.115303 -0.651772 4.01072 11.0498
176 1 -0.651895 -0.58182 4.426 9.93795
217 2 0.13416 4.28181 1.0048 15.3881
166 2 0.106974 0.554976 4.66049 9.70282
16 2 0.0271964 3.70184 0.470566 16.7944
98 4 1.02465 2.16279 6.36691 16.8913
142 4 0.711416 -2.98554 6.60723 15.3124
149 3 -0.781452 -4.51387 6.56969 15.3877
109 2 0.0279451 2.91982 6.37091 10.2291
208 4 0.948839 -3.91156 9.36242 0.255912
171 2 0.13283 -3.91298 10.4751 7.39947
77 4 1.05999 -5.12177 12.7185 8.70772
153 4 0.94243 -4.11658 8.29126 7.9891
154 4 0.939188 0.534253 6.92634 5.37279
155 4 1.03404 2.04858 7.93321 2.98396
22 2 0.144736 -2.63238 12.6527 4.45006
160 2 -0.0676519 1.14905 7.8102 6.64572
230 2 0.162382 -0.836081 12.8029 4.74022
177 1 -0.652899 -3.15902 9.8366 7.99296
169 2 0.172494 -2.11501 9.85131 7.48251
182 3 -0.776674 -3.15361 7.27372 7.16706
183 3 -0.756825 -1.02831 7.16245 5.2827
184 3 -0.839981 1.38414 7.12393 4.10338
185 3 -0.809281 1.19866 8.81429 1.90553
193 4 1.0824 -2.46499 7.03453 1.36581
194 2 0.168708 -0.313538 6.96966 1.95863
279 2 0.212911 -6.21725 12.1773 6.67968
234 4 1.01031 0.399596 9.7542 0.908485
161 2 0.101245 2.87371 6.86598 1.91939
200 3 -0.837221 -2.6897 8.45199 0.752871
202 2 0.187375 -4.51812 11.9537 2.90978
203 2 0.186743 -4.06634 10.1112 3.0758
204 2 0.1742 -4.56088 11.0818 4.58581
205 2 0.149066 -6.31832 12.2925 1.06737
206 1 -0.676885 -4.69052 10.9621 3.46409
211 4 1.00691 -0.292445 12.7195 2.01187
199 3 -0.771306 -3.31431 6.4562 2.56364
80 2 -0.000620979 -3.72989 12.5387 7.66992
214 3 -0.805177 -0.0725377 11.3094 1.4046
229 2 0.00633013 -0.249696 11.1789 5.04023
309 3 -0.809757 -3.58057 10.8942 0.131968
209 2 0.069562 -5.24451 9.25348 1.28047
238 2 0.0586375 -0.710664 8.80357 0.0138229
1 4 1.02346 -3.23746 12.4847 0.0090326
157 2 0.000677111 -3.87492 6.60151 12.3378
78 4 1.19702 -5.65015 10.5681 10.7796
79 4 0.778838 -4.38157 11.964 13.2283
210 2 -0.00171102 -6.34447 9.1726 16.2758
170 2 0.161913 -3.12246 10.0822 9.12297
82 2 0.0749033 -5.04895 9.01695 10.4441
84 2 0.141813 -2.34337 10.8736 13.519
85 2 0.161832 -3.84023 10.1462 14.6247