ITEM: TIMESTEP
0
ITEM: NUMBER OF ATOMS
310
ITEM: BOX BOUNDS xy xz yz pp pp pp
-9.0288000000000004e+00 1.5411400000000000e+01 -7.2027000000000001e+00
0.0000000000000000e+00 1.3079499999999999e+01 -1.8261000000000001e+00
0.0000000000000000e+00 1.7503399999999999e+01 3.3839999999999998e-01
ITEM: ATOMS id type q x y z
26 2 0.125481 0.970152 2.70171 3.34333
72 2 -0.0122485 -0.0427779 3.36785 4.94687
83 2 0.110343 1.16934 0.569529 6.52553
74 2 0.10862 -1.09647 4.14008 1.69858
75 2 0.0339081 -2.03645 4.53411 3.18079
156 2 0.0275113 -1.21422 2.58355 7.56352
150 4 0.792097 -0.409194 4.11978 7.61046
159 2 0.00786127 0.49829 5.21428 5.33439
164 2 0.129355 0.915961 2.62745 6.53764
175 1 -0.623944 1.21325 3.77627 6.43247
179 3 -0.823435 -3.06303 5.69244 4.93898
180 3 -0.811738 -1.24422 5.26002 6.76741
195 2 0.171524 -2.19149 5.67139 1.17816
25 2 0.163991 0.746091 0.698819 2.86172
42 1 -0.666531 1.36169 1.62879 3.4481
71 4 0.725918 -1.57384 3.06881 4.03143
274 2 0.0326212 -1.1971 1.79451 2.86291
275 2 0.0034853 -0.538875 1.86816 1.21498
143 2 -0.0213724 -0.419114 5.10269 0.401821
301 2 0.14997 -0.0457516 1.16483 8.01937
76 1 -0.64519 -1.83869 3.21545 1.75247
35 2 0.189211 -3.7989 5.41405 8.44235
196 2 0.155977 -0.542915 6.17494 2.07855
152 4 1.35372 -2.06889 6.45771 6.06962
43 1 -0.666818 -0.980453 0.992891 8.72606
287 2 0.14599 0.889473 0.91225 0.126408
27 2 0.152932 1.64156 1.34838 4.54478
77 4 0.988845 2.28243 0.392063 8.32325
291 2 0.142571 5.62163 1.78978 8.40006
22 2 0.149051 4.06943 1.59623 5.07867
163 2 0.152177 1.92889 3.90532 5.5893
33 2 0.160968 4.03323 5.55921 4.48892
279 2 0.160113 3.11173 0.251162 5.59962
3 4 1.07679 3.07713 1.83733 2.78771
50 3 -0.814848 5.34683 3.34265 0.682391
41 1 -0.664494 4.3875 0.996038 4.19068
310 3 -0.824122 6.40485 1.0087 1.04954
48 3 -0.765953 3.29776 0.626328 1.55461
165 2 0.14602 1.78744 4.256 7.54847
4 4 1.42224 4.73229 4.29222 1.8968
23 2 0.151591 5.32412 1.4288 3.72297
49 3 -0.804559 3.38068 3.38149 2.43244
161 2 0.0219268 2.12861 6.3412 1.16556
104 2 0.00448923 -0.199957 1.35483 10.5255
105 2 -0.0484022 -0.0404079 1.87768 13.2722
142 4 0.693653 -2.82735 5.25726 16.2826
144 2 0.0196159 -2.12119 3.49155 15.8154
147 2 0.158576 -0.798597 4.57748 14.2722
149 3 -0.769098 -4.33226 5.68691 15.968
162 2 -0.0153069 -3.57368 5.70843 10.6049
166 2 0.13773 -0.78005 4.06559 9.8189
290 1 -0.655718 -0.21088 0.646972 17.0067
145 2 0.0495481 -1.69784 6.43842 15.3018
148 1 -0.621209 -1.80176 4.82239 14.767
289 2 0.108091 0.200641 1.23774 16.0716
28 2 0.134052 -1.40929 1.90581 9.2652
146 2 0.152783 -2.589 4.87068 13.9574
167 2 0.165321 -0.467041 5.92153 9.33551
176 1 -0.655334 -0.0341306 4.8476 9.36104
108 2 0.0832576 0.820493 5.41726 16.6142
122 2 0.171775 1.3758 6.31948 10.0084
168 2 0.206409 0.983415 4.83971 9.80682
94 4 0.644601 0.825836 1.86828 11.8101
133 3 -0.774599 1.5903 3.20226 11.5692
219 2 0.174571 3.10145 2.72 15.837
111 2 0.090585 2.79735 3.6812 12.5157
16 2 0.0135558 2.7562 0.845204 16.5691
220 1 -0.642126 4.07022 2.11154 15.9178
95 4 1.26718 2.9325 2.84869 10.1768
134 3 -0.80605 4.07538 1.79402 10.9416
136 3 -0.813643 3.54363 4.21704 9.55991
217 2 0.168958 4.00801 1.06743 15.4026
132 3 -0.779603 2.2058 2.01943 8.84719
103 2 0.077285 1.90001 0.577192 11.9636
86 2 0.180392 4.06527 0.272151 13.8247
286 2 0.167351 -6.72702 12.3237 1.08843
153 4 0.945649 -3.89522 8.44903 7.85443
182 3 -0.814901 -2.99138 7.40291 7.05319
193 4 1.10664 -2.73414 7.55585 2.33338
212 2 0.0400591 -2.29068 12.4142 2.83926
200 3 -0.830796 -3.13734 8.76933 1.48003
202 2 0.217237 -4.82196 11.7509 2.72279
203 2 0.189394 -4.51146 10.0866 3.5037
204 2 0.181789 -5.04142 11.583 4.60854
280 2 0.168569 -5.13986 11.499 6.24985
206 1 -0.671282 -5.08757 11.0398 3.55674
177 1 -0.671736 -3.16845 10.1076 7.61346
171 2 0.165706 -3.87191 10.962 7.19773
87 1 -0.656549 -4.89746 12.5519 6.40397
208 4 0.976778 -4.11645 9.4528 0.496423
199 3 -0.796373 -3.99639 6.70949 2.75014
169 2 0.174313 -2.29431 9.82091 6.84721
309 3 -0.813649 -3.88559 10.9858 0.216482
1 4 1.01729 -3.86365 12.6218 0.151481
24 2 0.152891 -2.84166 12.6166 4.30103
158 2 0.103584 -5.44789 8.62707 7.18791
80 2 0.0256857 -3.33602 12.6884 7.51808
170 2 0.161185 -2.75956 10.3458 8.65516
197 2 0.158753 -1.09363 7.07418 0.394248
184 3 -0.823102 1.10239 7.20593 3.55455
228 2 0.0486926 0.528075 11.383 4.5763
183 3 -0.7891 -0.904882 7.62257 5.10821
185 3 -0.806681 0.796588 8.65197 1.35798
214 3 -0.823585 -0.561761 11.093 1.21838
234 4 1.03995 -0.0193127 9.74497 0.57004
211 4 0.97671 -0.832962 12.4673 1.88548
194 2 0.080725 -1.89235 8.05053 3.69588
154 4 0.927627 0.472975 6.96116 4.95422
155 4 1.03844 1.75433 7.69867 2.19165
160 2 -0.0537413 1.41547 7.54293 6.24486
198 1 -0.67606 -1.37646 6.51857 1.3949
213 2 -0.0102981 0.287078 12.5332 3.17419
224 2 -0.0627415 1.56827 9.75558 6.55066
78 4 1.16774 -5.77705 11.0822 10.4556
79 4 0.67217 -4.61561 11.0501 13.4664
81 2 -0.0328458 -5.26762 9.5323 14.0624
82 2 0.0727565 -4.97445 9.6028 10.1196
276 2 0.0048758 -4.95836 12.1667 14.8816
88 1 -0.636222 -3.17321 12.0349 14.4182
89 3 -0.843959 -5.36925 11.9999 9.29012
90 3 -0.795957 -5.24641 11.5316 12.119
151 4 0.879106 -4.46719 7.10558 10.8852
157 2 -0.0474391 -3.97028 7.61608 12.4014
181 3 -0.759535 -4.16408 8.20296 9.77053
283 2 0.108977 -4.85668 8.06613 15.1141
210 2 -0.00564566 -6.11432 8.88383 16.5414
236 2 0.103181 -3.33239 8.91235 16.9163
288 2 0.125894 -7.73005 12.2813 16.696
302 2 0.210968 -7.93311 12.8311 9.40746
84 2 0.0278784 -2.71763 10.6377 13.4603
121 2 0.133566 0.851303 7.64259 11.4582
85 2 0.142611 -2.5892 12.1409 15.402
238 2 0.16483 -2.64821 10.4643 15.5328
237 2 0.146836 -1.55964 8.85288 15.702
126 2 0.147352 -0.531023 7.06995 17.0754
226 2 0.157239 -1.35759 12.5799 9.78278
131 1 -0.65947 0.529797 6.86379 16.7269
130 1 -0.62378 1.68952 7.2731 10.6337
277 2 0.00238236 -1.32916 11.628 13.9727
239 1 -0.646914 -2.27814 9.55899 16.232
120 2 0.160603 1.99274 7.54917 13.8352
235 2 0.0109259 -0.683396 10.5193 16.8418
231 1 -0.674019 -0.295831 12.131 9.83337
225 2 0.148867 -0.28559 11.009 9.51872
124 2 0.147916 0.615024 7.27033 15.6623
110 2 -0.029511 2.98992 6.75184 9.25769
123 2 0.0752255 2.06896 8.25192 9.90737
215 4 1.07834 6.43688 2.37855 0.157044
29 2 0.148525 7.98888 1.8768 4.10148
30 2 0.265483 7.33579 3.59677 3.57116
31 2 0.196622 8.71607 3.4966 4.79995
44 1 -0.691558 8.27647 2.971 3.85149
293 1 -0.663436 6.64701 2.07784 7.97287
57 3 -0.807416 5.94816 4.60376 3.1102
62 3 -0.841129 8.98055 5.02237 7.03342
128 1 -0.666964 5.18502 5.02633 7.52293
292 2 0.170252 6.99205 3.09769 8.2533
230 2 0.162875 8.6412 0.876006 4.92832
51 3 -0.845482 4.42721 5.75202 1.19348
115 2 0.2083 6.19317 5.1497 7.13035
221 4 0.873814 7.80077 0.501091 8.67926
61 3 -0.847665 7.17227 6.10011 5.19168
58 3 -0.773906 9.10249 4.03727 1.0723
116 2 0.0731748 4.23642 5.87386 6.89735
294 2 0.177385 6.66521 1.82973 6.89281
12 4 1.45496 8.62085 6.25527 5.98867
216 2 0.12285 7.9978 3.16658 0.431386
9 4 1.33582 6.23896 6.12056 3.90968
10 4 1.52745 8.90845 5.37793 0.0561776
117 2 0.193008 4.80435 4.01943 7.31467
53 3 -0.79068 12.744 2.47462 4.94658
56 3 -0.830813 10.6306 4.30031 3.48803
55 3 -0.817989 10.4362 1.77198 2.38559
91 4 0.664196 13.4005 1.63774 0.281062
2 4 1.53596 10.9575 5.78908 4.06247
5 4 0.895754 11.0542 0.433859 1.79727
8 4 1.26732 9.75529 3.21081 2.73793
7 4 1.32045 11.5987 1.8983 5.9443
11 4 1.08978 10.0424 3.9432 7.59257
54 3 -0.859302 12.2157 1.04555 7.04746
18 2 0.00479851 10.478 0.912906 5.1023
52 3 -0.770594 12.4541 0.673123 1.07833
59 3 -0.839431 10.7586 3.00896 6.57827
73 2 0.205839 12.5337 3.5309 2.01137
93 2 0.0454436 12.6334 3.28267 0.147831
100 4 1.18781 4.15898 4.62201 12.7728
102 4 1.26359 4.92665 5.83 15.3781
107 2 -0.0160343 6.46476 2.45938 9.87806
109 2 0.00277712 5.76591 5.96718 9.84682
114 2 0.0862768 6.83353 2.66078 14.4801
127 1 -0.601489 7.11614 1.14752 15.0622
137 3 -0.827658 5.38559 3.90014 12.0321
138 3 -0.782887 3.86542 6.21083 12.217
139 3 -0.818481 4.40834 4.71681 14.3791
140 3 -0.852997 6.08136 5.20417 16.3355
190 2 0.049259 6.87 4.15829 12.9775
135 3 -0.754508 6.24855 1.24593 12.4813
249 2 0.116233 7.71908 4.22764 10.7184
250 2 0.179753 8.30487 5.33803 9.32963
251 2 0.166918 6.64057 4.5645 9.16698
252 2 0.0774045 7.43462 6.09882 13.2519
255 1 -0.68073 7.41358 4.9986 9.93307
99 4 0.733931 4.21718 5.50338 9.06327
97 4 1.09495 5.55792 2.33298 11.3295
141 3 -0.817368 3.68926 6.58628 16.0087
247 4 0.761309 7.86241 6.40169 11.2265
218 2 0.17691 5.0813 2.70678 15.4248
187 4 0.623249 8.31494 3.73681 13.7638
299 2 0.107487 8.22105 0.749463 15.3132
98 4 1.03022 2.4506 6.59536 17.2288
300 2 0.131681 6.18497 0.561295 15.6053
191 3 -0.801499 8.54965 6.26858 16.8788
303 2 0.160333 13.4807 0.526454 14.5107
192 3 -0.787613 8.90218 4.89526 14.6659
46 1 -0.688581 11.072 4.58843 9.03967
244 2 0.135148 12.1258 1.82022 14.1911
245 1 -0.632408 12.3618 1.14164 11.185
297 2 0.124885 8.9914 2.05126 10.4398
296 2 0.131441 9.6117 0.261016 10.5692
243 2 0.180496 13.2056 1.05357 10.2844
241 2 0.118365 12.5195 2.05912 11.8984
242 2 0.154815 11.1833 1.191 10.7057
298 1 -0.651018 9.3694 1.18564 9.84553
37 2 0.134303 10.2686 5.04679 9.92411
246 1 -0.667934 12.382 0.744432 14.3525
36 2 0.152254 11.7556 3.73836 9.40984
92 2 -0.0206142 11.9577 1.38835 16.153
186 4 1.27136 9.46297 6.11093 15.6385
188 2 -0.00788026 8.64761 2.29596 14.5795
189 2 -0.0712308 9.19094 3.38756 12.3353
295 2 0.182019 10.2822 1.41602 9.22056
19 2 0.00625015 9.40125 2.93558 8.92025
34 2 0.190535 3.94513 7.37554 3.72132
38 2 0.17554 5.31098 10.6882 3.49585
39 2 0.142964 4.51289 11.9859 4.71168
40 2 0.134046 3.82127 10.2233 4.6901
45 1 -0.658512 4.44255 6.62265 4.48202
47 1 -0.663592 4.72151 10.9107 4.49528
172 2 0.156065 3.17802 9.6678 1.74958
173 2 0.175913 4.07129 8.02445 2.19178
174 2 0.159425 3.35342 9.28402 3.57155
178 1 -0.660227 3.21425 8.84822 2.50847
222 4 0.664588 1.76427 11.4416 6.20742
223 2 -0.00207384 3.46614 11.3325 5.98692
233 3 -0.727169 1.2872 12.4757 7.41784
32 2 0.182931 4.64014 7.04051 5.46589
17 2 -0.046401 2.81933 12.3804 0.752926
278 2 -0.0135783 4.06392 11.926 2.95669
232 1 -0.620089 1.67788 12.5363 4.61569
229 2 0.13294 2.3435 12.4316 3.68151
267 2 -0.0594404 3.69994 9.45694 8.553
6 4 1.33036 5.80489 12.6428 7.75852
64 3 -0.861366 8.28147 6.53732 0.830513
207 1 -0.673476 7.98874 11.8959 1.92469
69 3 -0.803639 6.10677 9.0547 6.30026
209 2 0.0825777 9.73179 9.2751 1.05836
21 2 -0.0134341 6.0675 6.78901 7.43395
70 3 -0.815371 6.59587 11.6943 6.61805
285 2 0.173873 7.49884 12.715 2.51905
68 3 -0.820851 7.54952 10.6025 4.37524
205 2 0.171349 7.16987 11.2018 1.43015
13 4 1.49634 7.62302 7.81653 1.58601
14 4 0.944906 6.98617 8.25503 7.30258
15 4 1.31023 6.43538 10.5886 5.49754
201 4 1.07892 8.50972 10.5133 3.16938
60 3 -0.831751 9.70909 6.50134 4.88054
63 3 -0.781688 6.59269 7.32304 2.75811
66 3 -0.772942 6.83283 8.83722 0.415976
65 3 -0.764223 8.74237 8.78493 2.23777
67 3 -0.801976 8.53794 7.79778 7.09425
101 4 0.751459 3.08341 7.65064 11.8262
112 2 0.0107223 3.8455 9.15781 12.3901
106 2 -0.0243769 1.24994 12.1862 13.0544
262 2 0.171227 3.614 10.9279 14.3603
264 1 -0.634449 3.90461 10.5794 15.4521
268 2 -0.0273017 3.36839 10.7553 10.7606
263 2 0.150357 3.00078 10.2666 16.0812
306 2 0.157822 2.7124 10.5125 12.857
308 1 -0.635855 3.02094 11.635 12.5041
119 2 0.17051 2.86635 9.26139 14.2198
305 2 0.111646 2.82261 12.4428 13.3562
265 4 0.927791 4.59521 10.4601 9.57786
129 1 -0.647995 2.25414 8.64157 13.4269
307 2 0.124842 2.41468 11.9784 11.5951
259 2 0.0648143 4.70185 11.7222 16.2155
125 2 0.0276673 1.65898 8.24124 17.3214
96 4 0.677459 -0.251396 12.9727 13.5248
227 2 0.155163 0.260361 12.3471 10.7685
261 2 0.0268586 4.48501 8.80219 15.0563
304 2 0.15395 4.49362 12.9481 15.0378
118 2 0.130057 1.33514 9.18282 12.9713
270 3 -0.837844 5.00879 11.7704 8.83092
269 2 -0.0052552 7.35113 9.03434 12.3225
20 2 0.0565625 6.7516 8.87361 8.83464
260 2 -0.0776725 7.01007 9.79081 16.0055
273 3 -0.781248 6.07199 11.3989 12.3704
253 2 0.214684 5.59335 6.84156 12.2335
284 1 -0.654427 9.29579 7.92372 14.824
254 2 0.140521 6.34349 8.0267 13.3257
258 4 0.683188 5.32053 9.73841 16.4062
248 2 0.0386511 6.81253 7.78744 10.8085
240 4 0.872709 4.97469 12.5826 12.5513
113 2 -0.00770687 5.79542 6.96352 14.3927
272 3 -0.821013 5.68551 9.45766 10.0175
282 2 0.143156 9.24724 7.4114 13.7599
266 4 1.07138 6.83923 10.3751 11.3222
271 3 -0.83435 8.11049 10.9956 10.5589
281 2 0.139072 8.7879 8.86659 14.7604
256 1 -0.664342 6.58496 7.25698 12.5987
257 3 -0.812592 9.36892 6.84368 11.0697
ITEM: TIMESTEP
100
ITEM: NUMBER OF ATOMS
310
ITEM: BOX BOUNDS xy xz yz pp pp pp
-9.0288000000000004e+00 1.5411400000000000e+01 -7.2027000000000001e+00
0.0000000000000000e+00 1.3053340999999998e+01 -1.8261000000000001e+00
0.0000000000000000e+00 1.7503399999999999e+01 3.3772319999999922e-01
ITEM: ATOMS id type q x y z
26 2 0.124961 1.0559 2.62754 2.95514
72 2 -0.0186578 -0.209768 3.6151 4.97347
83 2 0.131798 1.31593 0.415558 6.38408
74 2 0.135387 -0.824004 3.85372 1.54989
75 2 0.0537586 -2.09355 4.42611 3.1714
156 2 0.00940401 -1.39151 2.55494 7.69003
150 4 0.789733 -0.415972 4.01658 7.60706
159 2 0.00959817 0.490615 5.32904 5.3415
164 2 0.125053 0.853641 2.69975 6.39528
175 1 -0.628011 1.17327 3.83593 6.38397
179 3 -0.846972 -2.91771 5.69293 4.9967
180 3 -0.790566 -1.24787 5.25643 6.86814
195 2 0.1959 -1.98915 5.52602 0.974653
25 2 0.175961 0.756307 0.60995 2.69903
42 1 -0.646673 1.45052 1.49777 3.16961
71 4 0.723357 -1.5642 3.01236 4.06591
274 2 0.0269589 -0.865923 1.74938 2.9714
275 2 0.0102107 -0.422338 1.61694 1.26287
143 2 -0.0199567 -0.307531 5.13388 0.318693
301 2 0.153439 -0.0686525 1.40815 8.03943
76 1 -0.666309 -1.54427 3.11482 1.8367
132 3 -0.787013 2.21155 2.03596 8.6501
196 2 0.144059 -0.755047 5.89572 2.34098
152 4 1.38712 -2.05704 6.444 6.15653
43 1 -0.68233 -0.857556 0.858613 8.64822
198 1 -0.699635 -1.35489 6.3021 1.48782
27 2 0.130403 1.67306 1.27145 4.32308
77 4 0.980078 2.30649 0.319787 8.30932
291 2 0.160648 5.70106 1.85989 8.64627
22 2 0.150353 4.1617 1.49824 5.23004
163 2 0.15671 1.85362 4.02935 5.5206
33 2 0.168309 3.96154 5.80664 4.52987
279 2 0.147119 3.16697 0.126488 5.54803
3 4 1.07969 3.2243 1.7595 2.7927
50 3 -0.81899 5.4501 3.46862 0.742192
41 1 -0.656906 4.50024 0.944932 4.25484
310 3 -0.845812 6.42035 0.987226 0.839501
48 3 -0.780255 3.30036 0.89103 1.46042
165 2 0.166014 1.74974 4.21208 7.4897
4 4 1.48585 4.83847 4.37366 1.92216
23 2 0.149565 5.47823 1.35746 3.8859
49 3 -0.761934 3.632 3.48583 2.61852
51 3 -0.840431 4.19036 5.8289 1.17046
35 2 0.186504 -3.66064 5.19991 8.60665
161 2 0.0244548 1.85096 6.36731 0.923421
104 2 -0.00448979 -0.318482 1.58905 10.365
105 2 -0.0551818 -0.0795537 2.16945 13.196
142 4 0.706171 -2.7442 5.4016 16.1578
144 2 0.0177207 -2.03228 3.64928 15.7269
147 2 0.1599 -1.2158 4.60624 13.8467
149 3 -0.773058 -4.24343 5.69792 16.1091
162 2 0.00408536 -3.64587 5.71245 10.4431
166 2 0.146326 0.0781096 3.66584 9.71404
290 1 -0.656798 -0.294143 0.436517 16.9197
145 2 0.0423701 -1.83501 6.4785 14.8577
148 1 -0.631053 -2.0396 4.85429 14.4771
289 2 0.0925605 0.162029 0.526938 15.7453
28 2 0.125918 -1.5893 1.60155 9.20913
146 2 0.157667 -3.00737 4.82417 13.8657
167 2 0.166913 -1.32655 4.95718 9.6985
176 1 -0.635897 -0.292354 4.73032 9.33689
108 2 0.100535 0.769864 5.44268 16.2456
122 2 0.164492 1.72306 6.28346 9.96455
168 2 0.169931 0.512225 5.54628 9.67106
94 4 0.624865 0.700959 1.85385 11.7743
133 3 -0.777963 1.71445 2.97407 11.4633
219 2 0.18189 3.03529 2.90151 15.7569
111 2 0.0858128 2.69312 3.76834 12.6405
16 2 0.0288335 2.66543 0.923128 16.5232
220 1 -0.633538 3.93364 2.19072 15.852
95 4 1.32721 2.92389 2.69789 10.0106
134 3 -0.841345 4.07378 1.77858 10.6753
136 3 -0.781813 3.43744 4.20222 9.43448
217 2 0.175682 3.87691 1.16519 15.2619
103 2 0.0647034 1.40975 0.316235 12.0781
287 2 0.141618 -0.653659 1.42102 17.3356
286 2 0.150463 -6.83434 12.2471 0.985283
153 4 0.967102 -3.92776 8.39583 7.86687
182 3 -0.817592 -2.96027 7.3149 7.20064
193 4 1.06195 -2.5985 7.58976 2.29769
212 2 0.0127855 -2.05309 12.4275 2.88473
200 3 -0.821071 -2.73123 8.91675 1.38159
202 2 0.213486 -4.82211 11.9989 2.62741
203 2 0.180336 -4.46062 10.2616 3.21814
204 2 0.176338 -4.99213 11.6297 4.58887
280 2 0.158361 -5.10912 11.2703 6.22906
206 1 -0.663904 -5.03757 11.2169 3.40508
177 1 -0.677054 -3.21442 10.0609 7.76997
171 2 0.165074 -3.81999 10.9342 7.2506
87 1 -0.651038 -4.89015 12.4071 6.41769
208 4 0.952958 -3.83506 9.47579 0.451867
199 3 -0.777682 -3.88054 6.84886 2.82704
169 2 0.17353 -2.19825 9.78199 7.22152
309 3 -0.811919 -3.90386 11.0491 0.150332
1 4 1.01006 -3.94762 12.6458 0.101791
24 2 0.142478 -2.57866 12.5579 4.4734
158 2 0.109103 -5.42256 8.49045 6.9487
160 2 -0.0526415 1.41889 7.73771 6.11083
224 2 -0.048991 1.21753 9.795 6.17773
197 2 0.172799 -0.813246 7.02067 0.88431
184 3 -0.780333 1.09271 7.3197 3.53584
155 4 0.989979 1.76086 7.78616 1.97607
183 3 -0.789131 -0.932904 7.62744 5.13187
185 3 -0.820992 0.973952 8.87746 1.15191
214 3 -0.809295 -0.465577 11.1402 1.06483
234 4 1.07371 0.193978 9.94607 0.328234
211 4 0.971519 -0.739712 12.5142 1.76438
194 2 0.117098 -1.61854 7.91428 3.69297
154 4 0.908553 0.497797 7.04443 4.96326
80 2 0.0234395 -3.34596 12.6596 7.52909
78 4 1.13383 -5.81106 11.0129 10.4579
79 4 0.640507 -4.72183 10.9824 13.594
81 2 -0.0340909 -5.36144 9.49073 14.0554
82 2 0.0709435 -5.09975 9.53136 9.97568
276 2 0.0206948 -4.88794 12.2773 15.0696
88 1 -0.62756 -3.33334 12.208 14.2657
89 3 -0.836776 -5.41454 12.0111 9.35874
90 3 -0.785518 -5.21226 11.4035 12.0905
151 4 0.89202 -4.46572 7.15743 10.9091
157 2 -0.0535037 -3.64912 7.40893 12.2853
181 3 -0.767301 -4.21117 8.17275 9.74109
283 2 0.144836 -4.77804 7.90226 15.2818
210 2 -0.030245 -5.8227 8.84576 16.594
236 2 0.136307 -3.25978 9.07921 16.6325
288 2 0.139916 -8.26819 12.3744 17.1138
170 2 0.168569 -3.07657 10.3224 8.89072
84 2 0.0157793 -2.9249 10.5076 13.6615
121 2 0.123254 0.810087 7.57512 11.0395
85 2 0.141384 -2.56129 12.5696 15.0139
238 2 0.15011 -2.74016 10.6912 15.394
237 2 0.137105 -1.59464 9.03215 15.6655
126 2 0.136557 -0.601273 6.86355 16.6865
226 2 0.182174 -1.64488 12.409 9.55319
131 1 -0.667898 0.468595 6.77114 16.5414
130 1 -0.6711 1.79699 7.35833 10.3225
277 2 -0.00614993 -1.51549 11.8037 13.7127
239 1 -0.657031 -2.32041 9.73262 16.1641
120 2 0.133866 1.86496 7.77698 13.8859
235 2 -0.00856885 -0.784404 10.931 16.4676
231 1 -0.684809 -0.639633 12.0779 9.75316
225 2 0.157522 -0.376787 11.043 9.37356
124 2 0.129488 0.744106 7.36398 15.5719
123 2 0.12919 1.97306 8.10595 9.50155
302 2 0.240238 -7.69052 12.7078 9.32563
86 2 0.183195 -3.36351 12.8563 13.2702
227 2 0.151076 -0.307357 12.2304 10.8231
215 4 1.10164 6.40459 2.3734 0.114756
29 2 0.140899 7.96527 1.95319 4.04988
30 2 0.266703 7.45493 3.64244 3.446
31 2 0.20183 8.81494 3.5715 4.82028
44 1 -0.69502 8.37002 3.03082 3.88274
293 1 -0.662341 6.68416 1.99592 8.1109
57 3 -0.801204 5.9284 4.58335 3.07533
62 3 -0.855324 9.07547 5.08412 7.07924
128 1 -0.648797 5.17988 5.06169 7.42683
292 2 0.16114 7.27199 2.87813 8.40154
230 2 0.160601 8.8632 0.91592 4.3341
60 3 -0.866102 9.91345 6.3442 5.05692
115 2 0.234861 5.89906 5.08593 6.5314
221 4 0.847289 7.72856 0.352149 8.71988
61 3 -0.811755 7.24954 5.86506 5.225
58 3 -0.741415 9.05843 3.96462 1.1358
116 2 0.0609977 3.96721 5.83067 7.08156
294 2 0.178427 6.74278 1.83217 6.99983
12 4 1.4596 8.72015 6.21359 6.0389
216 2 0.109639 8.0451 2.95765 0.395172
9 4 1.32845 6.24207 6.21029 3.91771
10 4 1.48441 8.75648 5.45913 0.061209
93 2 0.0294331 13.0171 3.26823 0.158596
53 3 -0.80903 12.7274 2.3474 4.9686
56 3 -0.818132 10.7759 4.27382 3.32773
55 3 -0.819952 10.4166 1.76231 2.27163
91 4 0.681083 13.484 1.54013 0.382779
2 4 1.49212 11.1033 5.75923 4.15379
5 4 0.951867 10.9923 0.46798 1.75408
8 4 1.27702 9.77407 3.24692 2.69169
7 4 1.30007 11.5837 1.89478 5.9574
11 4 1.11086 10.0354 3.96396 7.65434
54 3 -0.845275 12.2007 0.858482 6.95874
18 2 0.0167548 10.3616 1.02805 5.11561
52 3 -0.781209 12.2938 0.666989 0.950402
59 3 -0.858527 10.7425 2.97793 6.74716
73 2 0.185387 12.762 3.56702 1.81335
117 2 0.197014 4.91478 3.97931 7.59444
100 4 1.23802 4.1293 4.63942 12.8417
102 4 1.23758 4.84173 5.91284 15.413
107 2 -0.0170012 6.61661 2.49773 10.0376
109 2 0.0207068 5.49122 5.99588 10.1295
114 2 0.0725888 6.92476 2.80421 14.6951
127 1 -0.61169 7.16605 1.19109 15.1569
137 3 -0.825411 5.29743 3.96891 12.0588
138 3 -0.80773 3.7436 6.13877 12.3148
139 3 -0.810253 4.39418 4.6412 14.3781
140 3 -0.872962 5.96961 5.35282 16.3795
190 2 0.0545758 6.77954 4.0952 13.013
135 3 -0.794794 6.23373 1.40805 12.4629
249 2 0.121839 7.22286 4.38171 10.4465
250 2 0.193177 8.26604 5.47756 9.30422
251 2 0.171563 6.47527 5.19985 8.84115
252 2 0.0712623 7.5724 6.24652 13.2754
255 1 -0.669332 7.249 5.33304 9.77225
99 4 0.709362 4.18545 5.53242 9.03181
97 4 1.10587 5.4725 2.30357 11.3327
141 3 -0.83827 3.53427 6.37846 16.1635
247 4 0.733219 7.85718 6.33184 11.4264
218 2 0.181223 4.95763 2.74043 15.3794
187 4 0.622464 8.30059 3.77469 13.7973
299 2 0.118996 8.19438 0.67489 15.3644
98 4 1.06885 2.34116 6.66369 17.2049
300 2 0.128311 6.26001 0.653175 15.7375
191 3 -0.820556 8.49399 6.17131 17.0357
303 2 0.153484 13.4501 0.338796 14.9107
192 3 -0.793072 8.92691 4.98205 14.6258
46 1 -0.699457 11.1458 4.40298 9.16538
244 2 0.145929 12.6342 1.95305 14.2695
245 1 -0.662958 12.1982 1.00182 11.1863
297 2 0.127899 8.70382 2.12453 10.3199
296 2 0.135644 9.5336 0.431809 10.6867
243 2 0.201063 12.9872 0.560578 10.4605
241 2 0.117025 12.5543 1.99819 11.6418
242 2 0.18755 11.1637 1.12186 10.7471
298 1 -0.649589 9.27454 1.26366 9.89119
37 2 0.147183 10.4438 4.78281 9.9792
246 1 -0.663328 12.526 0.843412 14.4216
36 2 0.157502 11.7775 3.44742 9.35488
92 2 -0.00993963 12.1138 1.3685 16.2986
186 4 1.2652 9.45069 5.98787 15.821
188 2 -0.0015638 8.69348 2.18599 14.5196
189 2 -0.0623211 9.15769 3.30276 12.4389
295 2 0.182832 10.1276 1.5463 9.23105
19 2 -0.000265125 9.27643 3.05847 8.99522
96 4 0.680535 6.80655 0.370864 13.5525
304 2 0.129811 11.4641 0.467166 14.8454
34 2 0.179917 4.0485 7.55635 3.86331
38 2 0.150226 5.27157 10.926 3.46918
39 2 0.146926 4.14242 11.9078 4.67137
40 2 0.137778 4.04151 9.99838 4.51152
45 1 -0.657842 4.55143 6.7527 4.60964
47 1 -0.665734 4.7332 10.907 4.5315
172 2 0.169903 3.26248 9.61745 1.72305
173 2 0.174308 4.01523 7.92045 2.09334
174 2 0.148516 3.4918 9.13812 3.52697
178 1 -0.657915 3.27509 8.82514 2.4221
222 4 0.642528 1.72899 11.3567 6.02242
223 2 0.00752928 3.45496 11.0512 5.97679
233 3 -0.704847 1.16943 12.2406 7.40557
32 2 0.182201 4.77778 7.12746 5.68693
17 2 -0.0436372 2.80353 12.3122 0.738351
278 2 -0.0213056 4.16018 12.1343 2.998
232 1 -0.651318 1.80468 12.5236 4.44105
229 2 0.126314 2.48451 12.1954 3.63063
267 2 -0.0490942 3.41667 9.849 8.68056
6 4 1.34533 5.841 12.6138 7.75688
64 3 -0.870232 8.1281 6.64338 0.921256
207 1 -0.664915 7.83191 11.8941 1.89879
69 3 -0.802073 6.19038 8.93304 6.18481
209 2 0.101737 10.1021 9.12259 1.15068
21 2 -0.0223824 6.04282 6.80154 7.80051
70 3 -0.814769 6.47472 11.52 6.73263
285 2 0.161839 7.23224 12.6947 2.50454
68 3 -0.764449 7.76536 10.4867 4.42462
205 2 0.174026 7.09088 11.0826 1.42518
13 4 1.53288 7.61441 7.8642 1.68708
14 4 0.942548 6.9808 8.23241 7.36701
15 4 1.27405 6.37078 10.4709 5.53688
201 4 1.06281 8.59624 10.5989 3.1218
228 2 0.0832333 0.731173 11.7817 4.42864
63 3 -0.843379 6.68156 7.29059 2.92175
66 3 -0.770666 6.83267 8.80935 0.535661
65 3 -0.767531 8.81072 8.93785 2.11871
67 3 -0.796289 8.51958 7.82372 7.13411
213 2 -0.0239295 0.438159 12.6825 2.9913
101 4 0.761529 2.89095 7.54172 11.9018
112 2 0.021992 3.86925 8.95937 12.1511
106 2 -0.016781 1.0628 12.3258 12.9964
262 2 0.168043 3.42662 11.0586 14.5495
264 1 -0.627534 3.76121 10.6182 15.582
268 2 -0.00865465 3.52611 10.9207 11.0809
263 2 0.153657 2.91578 10.5519 16.2945
306 2 0.161131 2.74125 10.7078 12.8831
308 1 -0.63159 2.93446 11.8557 12.7275
119 2 0.170884 2.87212 9.3917 14.1651
305 2 0.116044 2.80987 12.491 13.7117
265 4 0.934786 4.55088 10.6088 9.73716
129 1 -0.669903 2.34398 8.73484 13.3521
307 2 0.127472 2.39636 12.2442 11.779
259 2 0.0462844 4.97586 11.6209 16.2856
125 2 0.00358012 1.54906 8.25267 17.0985
110 2 -0.0372664 3.31897 7.03206 9.15767
256 1 -0.653574 6.53072 7.32533 12.6909
261 2 0.0215415 4.12391 8.85162 15.2223
118 2 0.127774 1.58187 9.36087 12.7995
257 3 -0.799473 9.39626 6.77113 11.1395
270 3 -0.811259 4.91621 11.8874 8.91754
269 2 -0.0149414 7.48659 8.88599 12.0382
20 2 0.0578559 6.68525 9.06854 8.76281
260 2 -0.0784407 6.76938 9.40433 15.7761
273 3 -0.76933 5.97049 11.3245 12.3298
253 2 0.209979 5.46831 6.8894 12.5232
284 1 -0.667958 9.54418 7.74728 14.9026
254 2 0.128999 6.46446 8.23332 13.3732
258 4 0.658912 5.23249 9.68264 16.442
248 2 0.0478225 6.79837 7.65486 10.852
240 4 0.841147 4.97453 12.6815 12.7335
113 2 -0.0249377 5.46719 7.13863 14.3376
272 3 -0.79741 5.6691 9.54708 10.1008
282 2 0.159098 9.39854 7.61009 13.7776
266 4 1.08342 6.88164 10.3723 11.3518
271 3 -0.839249 8.00274 11.0371 10.4954
281 2 0.135744 8.70194 8.27557 15.3689
ITEM: TIMESTEP
200
ITEM: NUMBER OF ATOMS
310
ITEM: BOX BOUNDS xy xz yz pp pp pp
-9.0288000000000004e+00 1.5411400000000000e+01 -7.2027000000000001e+00
0.0000000000000000e+00 1.3027182000000000e+01 -1.8261000000000001e+00
0.0000000000000000e+00 1.7503399999999999e+01 3.3704640000000019e-01
ITEM: ATOMS id type q x y z
26 2 0.147554 1.03089 2.59432 3.01525
72 2 -0.0205206 0.00300201 3.01854 4.96106
83 2 0.107466 1.24606 0.273545 6.44953
74 2 0.120624 -0.621934 3.83678 1.71787
75 2 0.0337445 -1.78716 4.3317 3.25619
156 2 0.0229251 -1.60407 2.68225 7.9275
150 4 0.801483 -0.510153 4.0501 7.62474
159 2 -0.00264456 0.387743 5.32077 5.3149
164 2 0.130202 0.922295 2.66145 6.54717
175 1 -0.643774 1.09417 3.84298 6.39207
179 3 -0.820151 -2.90644 5.68749 4.94414
180 3 -0.800575 -1.27629 5.31428 6.98439
195 2 0.19415 -1.94171 5.48711 1.15131
25 2 0.16252 0.92015 0.609497 2.76282
42 1 -0.669368 1.45543 1.60637 3.29058
71 4 0.716885 -1.49959 2.81094 4.08812
51 3 -0.848182 4.15377 5.60546 1.2313
275 2 0.0203871 -0.533636 1.36534 1.24247
143 2 -0.0230297 -0.201169 5.32343 0.157464
301 2 0.145671 -0.442477 1.4056 7.92865
76 1 -0.663183 -1.41973 2.99651 1.85605
132 3 -0.789812 2.13528 1.81615 8.73833
196 2 0.116184 -0.561216 6.2131 2.26769
152 4 1.37932 -2.06117 6.42378 6.14487
43 1 -0.647542 -1.174 0.92336 8.63199
279 2 0.155244 3.24496 0.197713 5.58737
27 2 0.133902 1.71717 1.50746 4.48059
77 4 1.01845 2.38334 0.245343 8.32962
291 2 0.181469 5.61556 1.79631 8.37896
22 2 0.155013 4.38018 1.24647 5.08131
163 2 0.1471 1.70375 4.01125 5.40201
287 2 0.161397 1.14888 0.980701 0.00870103
116 2 0.0875942 3.87016 5.01063 6.82331
3 4 1.10445 3.15798 1.75378 2.72986
50 3 -0.817474 5.29783 3.45876 0.606389
41 1 -0.638286 4.5221 0.741182 4.04458
310 3 -0.843892 6.56126 1.0851 1.02406
48 3 -0.787684 3.2053 0.858756 1.28255
165 2 0.160536 1.73297 4.19473 7.29369
4 4 1.45592 4.8164 4.30308 1.87707
23 2 0.126362 5.63256 0.85721 3.69048
49 3 -0.76639 3.6002 3.28317 2.77876
274 2 0.0216996 -0.989161 1.52543 2.97923
104 2 0.00223917 -0.386055 1.2306 10.3993
105 2 -0.0403233 -0.495553 2.04304 12.8657
142 4 0.706849 -2.76054 5.51334 16.0541
144 2 0.0211208 -2.12446 3.74178 15.6474
147 2 0.154264 -1.30392 4.51917 13.683
149 3 -0.776417 -4.27435 5.78798 16.0967
162 2 -0.00505254 -3.61549 5.57586 10.7282
166 2 0.187325 0.825959 4.01006 9.46192
290 1 -0.650878 -0.205201 0.640777 16.7524
145 2 0.0416075 -1.72207 6.52658 14.7324
148 1 -0.619998 -2.13812 4.90496 14.3657
289 2 0.0946527 0.331375 1.24411 15.7818
28 2 0.124069 -1.78795 1.68025 9.39693
146 2 0.156312 -3.16432 4.75348 13.8988
167 2 0.159335 -0.881608 4.38834 10.2331
176 1 -0.645052 -0.147682 4.64921 9.39995
108 2 0.10647 0.747976 5.56455 16.2287
122 2 0.166516 1.3429 6.25464 9.8729
168 2 0.168442 0.074246 5.78963 9.35082
94 4 0.655345 0.654397 1.70489 11.7121
133 3 -0.779414 1.64604 2.85296 11.542
219 2 0.191517 3.16802 2.83432 15.6517
111 2 0.0791228 2.87666 3.46764 12.6074
16 2 0.017355 2.86028 0.901426 16.5272
220 1 -0.656228 4.09564 2.21946 15.7693
95 4 1.33621 2.91777 2.70313 10.075
134 3 -0.852965 4.23748 2.02546 10.5744
136 3 -0.809974 3.28826 4.14257 9.49628
217 2 0.175652 3.95528 1.25156 15.2155
103 2 0.0218342 1.41652 0.354363 12.2278
286 2 0.17216 -6.63752 12.3011 0.922848
153 4 0.953719 -3.92237 8.33619 7.85254
182 3 -0.809936 -3.00818 7.2707 7.13808
193 4 1.05221 -2.31559 7.67738 2.47217
212 2 0.0160782 -2.06989 12.2734 2.50918
200 3 -0.807243 -2.61121 8.84198 1.38046
202 2 0.180725 -4.73026 11.6859 2.59426
203 2 0.180134 -4.4655 9.94217 3.56137
204 2 0.177519 -4.8122 11.5499 4.59711
280 2 0.151146 -4.84657 11.2307 6.19825
206 1 -0.674293 -4.90807 10.9871 3.54027
177 1 -0.675587 -3.01303 9.91378 7.63687
171 2 0.170388 -3.60394 10.8008 7.18943
87 1 -0.647644 -4.64365 12.3686 6.4451
208 4 0.955331 -3.78312 9.49486 0.597112
199 3 -0.768136 -3.70337 7.01044 2.90376
169 2 0.193947 -2.07488 9.61399 7.04251
309 3 -0.808895 -3.81341 11.061 0.236803
80 2 0.0323605 -3.24184 12.5767 7.6337
24 2 0.154109 -3.0588 12.362 4.08527
161 2 0.0314107 1.97055 6.42602 1.0081
160 2 -0.0552438 1.68019 7.30959 6.05889
224 2 -0.054305 1.42519 9.67314 6.33543
197 2 0.165799 -0.868565 6.85713 0.483992
184 3 -0.794683 1.1086 7.47812 3.50621
155 4 0.991148 1.80437 7.89281 2.02036
183 3 -0.781099 -0.882471 7.7625 5.31741
185 3 -0.791796 1.07515 8.96008 1.07699
214 3 -0.802997 -0.142261 11.3566 0.936215
234 4 1.02366 0.319662 10.0591 0.118314
211 4 0.987888 -0.607095 12.5126 1.8116
194 2 0.0887087 -1.46942 8.29682 3.85962
154 4 0.866593 0.485124 7.05143 4.93957
158 2 0.107264 -5.42642 8.47173 7.05759
228 2 0.0472546 0.289226 11.9162 4.75408
198 1 -0.652272 -1.34502 6.4116 1.38337
1 4 1.01522 -3.90086 12.6977 0.00946361
78 4 1.23288 -5.84728 10.9487 10.4553
79 4 0.656647 -4.84515 10.9539 13.423
81 2 -0.0292582 -5.22667 9.4855 14.1648
82 2 0.0943432 -5.19772 9.43777 9.91488
276 2 0.0129617 -5.01161 12.2569 14.8015
88 1 -0.641878 -3.41403 12.2255 14.1873
89 3 -0.855922 -5.18265 11.9021 9.4294