ITEM: TIMESTEP
0
ITEM: NUMBER OF ATOMS
310
ITEM: BOX BOUNDS xy xz yz pp pp pp
-9.0288000000000004e+00 1.5411400000000000e+01 -7.2027000000000001e+00
0.0000000000000000e+00 1.3079499999999999e+01 -1.8261000000000001e+00
0.0000000000000000e+00 1.7503399999999999e+01 3.3839999999999998e-01
ITEM: ATOMS id type x y z
1 4 3.33497 0.139016 0.445227
3 4 3.69717 1.92516 3.18458
50 3 5.51902 3.16491 0.824189
195 2 -2.50604 6.25383 0.464713
23 2 5.28571 1.99351 4.89389
196 2 -0.373102 6.1789 1.48541
25 2 1.38333 1.64712 4.08542
26 2 2.0345 3.00307 4.97131
27 2 2.61139 1.22267 5.4579
41 1 5.36667 1.33309 3.95637
42 1 2.229 1.96538 4.67167
48 3 3.28017 0.812146 2.13047
49 3 3.99687 3.42083 2.71912
51 3 4.03921 5.74011 0.843905
71 4 -1.02023 2.51941 3.56375
72 2 -0.384056 1.00812 3.00701
73 2 -0.168644 5.10821 2.36378
74 2 0.280435 3.56773 4.16961
75 2 -1.67727 4.9097 3.46005
76 1 -0.781979 4.37111 2.98718
110 2 3.23437 5.51141 7.2217
4 4 4.90448 4.29768 1.78329
292 2 6.15413 1.02781 7.55493
150 4 -0.0964745 4.87175 8.08396
159 2 0.214868 5.23646 4.43568
163 2 1.60365 4.05188 6.87248
164 2 0.0267778 3.07172 6.17642
165 2 0.829079 2.40811 7.74487
175 1 0.587814 3.31688 7.08619
179 3 -2.7878 5.8164 5.07233
180 3 -1.03878 5.83151 7.07456
287 2 1.26847 1.33672 0.284106
24 2 6.4326 1.39304 3.51276
274 2 -1.57899 3.32475 1.88723
99 4 3.84163 4.62793 8.50266
22 2 4.99375 0.241165 4.2059
156 2 -0.765213 3.24057 8.45575
286 2 0.794895 0.19481 2.26181
94 4 0.149623 2.654 12.3356
95 4 2.33189 2.31627 10.005
97 4 4.76435 2.24114 11.5509
166 2 1.48859 6.53227 8.84108
103 2 -0.846026 1.13327 11.9962
104 2 -0.718171 4.03512 13.037
105 2 1.08579 2.26221 13.7076
108 2 1.7448 5.23679 15.6526
111 2 2.53907 3.41726 14.7008
241 2 -1.86088 3.34759 11.3053
138 3 3.15546 5.46522 13.0599
132 3 1.08371 1.13035 9.15076
133 3 1.25101 3.00259 11.2815
134 3 3.59031 1.59426 10.6023
289 2 0.519678 1.79719 16.2533
136 3 2.95519 3.4237 8.99089
142 4 -2.48875 5.90904 15.7927
290 1 0.0144529 1.09674 17.0277
144 2 -1.72326 4.18649 15.6397
137 3 4.30259 3.15783 12.6635
146 2 -2.0089 5.0457 13.4478
147 2 -0.265771 5.06436 14.3898
148 1 -1.36528 5.281 14.3303
149 3 -4.03415 5.95229 15.5899
294 2 5.86986 0.558024 9.40012
120 2 0.0306865 6.37073 13.4165
16 2 2.81703 1.10504 16.8891
176 1 0.937644 5.7052 9.38864
217 2 4.5323 0.724 16.3234
245 1 -2.03802 2.4727 12.0303
219 2 3.5239 2.06365 15.4509
220 1 4.43043 1.84151 16.1117
276 2 2.48235 0.847412 13.1318
168 2 0.0546121 6.02291 10.0428
301 2 -0.718707 1.20317 8.82992
167 2 1.64765 5.01654 9.89566
242 2 -2.14478 2.8385 13.1169
100 4 3.74927 4.14057 13.7972
143 2 -2.02723 6.27757 17.4731
135 3 5.79785 1.10688 12.2333
114 2 5.90257 0.668362 15.1421
83 2 -4.54709 11.0098 6.78752
87 1 -5.0178 12.0315 6.96579
161 2 3.26598 6.99562 1.46479
153 4 -3.63125 8.35189 8.31929
154 4 0.558171 6.89815 4.5725
155 4 2.18822 8.2445 2.00187
158 2 -4.73051 9.69559 8.02292
152 4 -1.97351 6.81631 6.04614
309 3 -4.01806 11.3286 0.274764
279 2 -6.339 12.0502 6.78482
169 2 -2.62035 10.6178 7.88232
182 3 -2.9613 7.76304 6.96692
183 3 -0.735903 7.52643 5.05493
184 3 1.29053 7.4821 3.34927
185 3 1.40182 9.07322 0.740083
193 4 -2.90832 7.54027 1.54905
194 2 -0.875624 7.94174 2.31775
197 2 -0.610119 7.67224 0.329946
198 1 -0.993678 7.09881 1.32095
199 3 -3.62959 6.98586 2.83192
200 3 -3.32481 8.81997 0.685184
202 2 -4.40249 12.0713 3.24356
203 2 -4.25931 10.275 3.70119
204 2 -4.88658 11.408 4.99503
80 2 -3.85199 12.3072 8.4589
206 1 -4.8345 11.2061 3.88149
211 4 -0.424343 12.3407 1.64979
212 2 -1.88494 12.5782 2.49182
224 2 0.491991 10.111 5.33887
214 3 -0.451693 11.2263 0.659146
228 2 -0.752352 12.0771 5.43851
229 2 -0.579408 11.352 3.74154
160 2 1.63148 6.86436 5.79474
232 1 -0.000155695 11.6293 4.71498
280 2 -4.51853 12.8281 6.20292
234 4 -1.27888 10.4283 17.1581
78 4 -6.28857 10.3279 11.0564
79 4 -5.05863 11.9634 13.5338
300 2 -1.05169 11.4329 14.3618
238 2 -3.18351 9.30563 16.777
82 2 -5.59688 8.73833 10.9358
84 2 -4.65418 9.63819 14.6089
85 2 -4.11072 10.7771 16.1794
86 2 -3.33048 11.403 14.0873
88 1 -4.50354 10.7234 15.0564
89 3 -5.98926 11.1096 9.69891
90 3 -5.62863 11.0687 12.3029
119 2 0.981857 8.16313 13.3171
151 4 -4.67441 6.65247 10.7937
124 2 1.0293 6.93302 14.691
145 2 -1.41092 7.04935 14.6867
236 2 -1.62957 8.09654 16.1034
129 1 0.756052 7.17763 12.7276
131 1 1.061 7.04831 15.9116
283 2 -5.02751 8.35558 14.2513
157 2 -3.8258 6.99401 12.2124
239 1 -2.02628 9.17732 16.1501
81 2 -6.02535 11.65 15.0537
171 2 -3.62274 10.8574 9.38813
237 2 -1.9243 9.74167 15.1269
181 3 -4.17813 7.54551 9.51439
125 2 1.44049 8.21323 16.3224
118 2 0.311491 7.46373 11.7095
210 2 -6.11915 9.90767 15.712
101 4 2.55761 6.7696 12.4076
226 2 -0.316247 10.6582 10.0758
170 2 -2.06683 9.45337 9.39787
77 4 -5.60247 12.4281 8.82244
126 2 0.060748 6.71973 16.422
122 2 2.56379 6.60136 10.4411
277 2 -0.1777 11.4087 11.5774
208 4 -5.99429 10.1773 17.422
288 2 -7.76597 12.9736 16.5743
304 2 -8.45493 12.6167 14.7327
177 1 -3.02659 10.1349 8.78592
235 2 -0.349274 11.47 16.1243
2 4 11.2839 6.0917 4.07044
117 2 6.08978 4.81971 8.19786
5 4 10.508 0.836445 1.52225
61 3 7.42722 6.06735 4.76291
7 4 11.8865 1.95113 5.47934
8 4 9.88718 3.57878 2.72162
17 2 9.0484 0.446063 0.847629
10 4 9.37482 5.5737 0.313057
11 4 10.0883 3.63271 7.1605
12 4 8.74412 6.15904 5.79959
62 3 9.11375 4.60496 6.27063
18 2 10.6102 1.49276 4.40177
19 2 9.16831 2.26278 7.78419
29 2 8.31119 2.66085 4.30865
30 2 7.4389 3.26943 2.72061
31 2 7.92831 4.49876 4.11809
116 2 5.88843 2.94172 8.18013
115 2 5.13218 3.98625 6.65564
44 1 8.1966 3.47698 3.54644
215 4 6.77918 2.30415 0.350417
128 1 5.4156 3.91066 7.82919
52 3 11.4555 1.26722 0.352985
53 3 13.1765 2.32392 4.55145
54 3 11.9181 0.655362 6.26623
55 3 10.395 1.68096 2.83653
56 3 10.7741 4.5457 3.49096
57 3 6.03055 5.09672 2.60724
58 3 9.63588 3.87548 1.12828
59 3 11.4164 3.04791 6.39928
230 2 8.47538 0.17413 4.45515
35 2 11.4793 4.90599 8.47345
28 2 13.1821 2.25059 8.1617
216 2 8.25212 3.18268 0.448331
310 3 7.24155 1.00017 1.12589
33 2 4.08925 6.04266 4.167
293 1 6.56869 1.03465 8.59967
43 1 13.5302 1.3184 8.73639
295 2 10.6645 1.0706 8.70947
46 1 10.4597 4.33566 8.91867
303 2 12.9083 1.40288 15.0596
37 2 9.64363 5.01052 9.27636
308 1 10.3922 0.516301 13.0556
91 4 10.5164 2.03762 16.6578
92 2 9.52335 2.73189 15.3918
291 2 7.24011 2.04892 8.90768
275 2 11.4012 0.833092 15.8636
98 4 2.60627 6.3651 16.7882
102 4 5.38305 5.7553 15.6691
141 3 4.05906 6.53402 16.1486
107 2 5.73232 3.20222 10.5121
109 2 3.99492 5.87803 9.75662
255 1 7.11824 4.43177 11.1852
307 2 10.4708 0.751935 14.2132
297 2 9.43097 2.16712 9.45045
36 2 10.7202 3.42883 9.58333
139 3 4.89546 4.46527 14.8323
140 3 6.38694 5.53838 16.8055
186 4 9.66448 6.14287 15.4243
187 4 8.60322 3.55756 14.1013
188 2 6.93986 3.17037 14.4076
189 2 9.66616 2.29276 13.539
190 2 8.48678 3.57169 12.3254
191 3 8.77614 6.52914 17.029
192 3 9.07521 4.9539 14.5969
218 2 5.4169 2.35126 15.635
306 2 10.2097 1.37863 12.2716
298 1 9.67773 1.07427 9.27243
93 2 11.7226 3.11595 16.9553
106 2 8.50745 0.530811 12.5663
243 2 12.2195 1.76531 11.487
302 2 13.0306 1.17114 9.73844
240 4 12.3825 0.402657 13.0425
252 2 7.39686 6.01025 13.2614
247 4 7.69816 6.35075 11.4295
249 2 7.5592 3.41094 10.9069
250 2 6.58498 4.93204 10.1414
251 2 6.31893 4.26624 12.0175
162 2 11.2862 5.08286 10.5976
257 3 9.20295 6.54079 11.1249
296 2 9.70933 0.429288 10.3354
13 4 8.15659 8.03283 1.57505
14 4 7.34061 8.04464 7.66245
15 4 6.84571 10.4934 5.79258
285 2 7.27865 12.1034 2.3869
60 3 10.0517 6.68916 4.96769
45 1 4.70168 7.0331 4.24076
34 2 4.11033 7.97228 3.71378
38 2 5.17054 9.95357 4.06446
39 2 4.82272 11.5957 5.06764
40 2 4.46166 9.83657 5.86204
278 2 3.74 12.0368 2.05123
47 1 5.02504 10.4762 5.06045
63 3 6.73989 7.71142 2.30061
64 3 8.91938 6.59088 1.46262
65 3 9.01052 9.20741 2.36786
201 4 8.90924 10.6219 3.20153
67 3 8.32332 6.93579 7.22727
68 3 7.92515 10.5708 4.48996
69 3 7.02742 9.19419 6.68774
70 3 6.81161 11.8778 6.82216
172 2 2.99814 9.38269 3.90766
173 2 2.82796 10.5955 2.50079
174 2 4.21933 9.29903 2.28029
178 1 3.21175 9.55627 2.81029
21 2 5.92068 7.39016 8.14904
270 3 4.64218 11.8214 8.56541
222 4 1.59827 11.6271 5.73383
223 2 3.20504 10.937 5.35302
9 4 6.30925 6.50765 3.33219
233 3 1.27523 12.1946 7.24952
267 2 3.62142 9.39393 8.27077
32 2 5.08557 7.29975 5.2701
6 4 5.65716 12.6382 7.65736
205 2 8.40224 11.8477 0.914521
207 1 8.30172 12.1294 2.00191
213 2 0.6916 12.0115 2.94025
221 4 0.95931 12.7446 8.71236
231 1 0.753264 10.9276 9.87486
112 2 3.69736 8.35301 12.4445
265 4 4.14814 10.5808 9.34308
121 2 4.13942 8.10378 10.1425
284 1 9.42596 7.75362 14.4293
130 1 3.94264 7.39615 10.9865
20 2 7.86423 8.54684 9.1785
246 1 5.8804 12.9802 14.8782
227 2 1.33252 11.3242 10.7734
248 2 6.81435 7.73056 10.8923
66 3 6.1753 9.27747 17.4101
254 2 7.33474 8.35407 12.7499
256 1 6.60112 7.53073 12.892
258 4 5.72198 9.66053 15.8682
259 2 6.49427 11.1029 15.3001
260 2 6.24086 8.54427 14.5193
261 2 3.80347 10.8988 15.2835
262 2 3.43989 9.71335 16.8947
113 2 6.40441 6.81502 14.6363
264 1 3.88948 9.83363 15.7894
282 2 8.96011 7.41693 13.4359
266 4 6.11508 10.4312 11.6463
281 2 8.72203 8.21795 15.2476
269 2 5.54247 9.17375 12.6075
271 3 7.59724 10.042 11.258
272 3 5.21845 10.0565 10.3455
273 3 5.61167 11.7961 12.3407
244 2 5.26884 12.3298 15.5305
263 2 3.67761 8.99098 15.0417
268 2 2.69915 10.9653 10.0702
96 4 -0.337533 12.7434 12.6921
253 2 5.59681 7.50075 12.1255
305 2 2.8856 12.1607 12.7492
299 2 0.611403 12.76 14.8087
123 2 4.82599 6.61222 11.0487
127 1 -0.547234 12.6412 14.5731
225 2 1.26297 10.1127 9.31649
209 2 7.77306 9.56133 17.2626
ITEM: TIMESTEP
100
ITEM: NUMBER OF ATOMS
310
ITEM: BOX BOUNDS xy xz yz pp pp pp
-9.0351705500000001e+00 1.5411400000000000e+01 -7.2090705499999999e+00
0.0000000000000000e+00 1.3079499999999999e+01 -1.8261000000000001e+00
0.0000000000000000e+00 1.7503399999999999e+01 3.3839999999999998e-01
ITEM: ATOMS id type x y z
1 4 3.32651 0.148249 0.4387
3 4 3.72875 2.02452 3.24258
50 3 5.61667 3.23629 0.564148
195 2 -2.34346 6.09221 0.825714
23 2 5.09025 1.75126 4.99873
286 2 0.972159 0.261348 2.14882
25 2 1.53021 1.25823 4.26117
26 2 2.16889 3.10116 4.82369
27 2 2.96324 1.52905 5.56982
41 1 5.25503 1.09361 4.04422
42 1 2.38933 1.97201 4.69996
48 3 3.3214 0.930271 2.16287
49 3 3.85064 3.64092 2.7692
51 3 4.05172 5.8002 0.970105
71 4 -1.14886 2.52759 3.4787
72 2 -0.498234 1.0286 2.83277
73 2 -0.44277 5.13198 2.3236
74 2 0.35719 3.58233 4.01037
75 2 -1.6757 4.79602 3.70518
76 1 -0.872374 4.36346 3.00488
110 2 3.00833 5.64563 7.42425
4 4 4.9501 4.28378 1.75168
292 2 6.26258 1.10535 7.68597
150 4 -0.22974 4.94383 8.06873
159 2 0.22664 5.40313 4.20911
163 2 1.63029 4.04248 7.04898
164 2 0.275423 3.13122 6.072
165 2 0.866844 2.54445 7.79698
175 1 0.664295 3.4282 7.14462
179 3 -2.7707 5.88591 5.04177
180 3 -1.01281 5.79355 7.10006
287 2 1.39721 1.61501 0.301313
24 2 6.28698 1.16029 3.69825
274 2 -1.78296 3.25504 1.89198
99 4 3.86331 4.60269 8.46396
280 2 2.457 0.245367 6.3544
156 2 -0.733634 3.257 8.46648
301 2 -0.715636 1.28455 8.71358
94 4 0.217656 2.60278 12.4024
95 4 2.22084 2.29842 10.1016
97 4 4.83134 2.33878 11.4931
135 3 5.8284 1.27459 12.1735
103 2 -0.705762 1.07404 11.9699
104 2 -0.732415 4.01036 12.9678
105 2 0.785553 2.4048 14.012
108 2 1.54339 5.32291 15.8738
111 2 2.66593 3.22299 14.6469
241 2 -1.82876 2.94204 11.275
138 3 3.03464 5.4808 13.1891
132 3 1.12104 1.18563 9.0043
133 3 1.20943 3.03232 11.2828
134 3 3.58818 1.45266 10.7801
289 2 0.735082 1.73441 16.1997
136 3 2.94215 3.41368 9.05754
142 4 -2.52235 5.91769 15.7841
290 1 0.0622891 1.21897 17.1018
144 2 -1.99701 4.14431 15.4837
137 3 4.32913 3.35276 12.5845
146 2 -1.95844 5.10703 13.3082
147 2 -0.338915 5.15048 14.2824
148 1 -1.44859 5.41355 14.2619
149 3 -4.02679 6.09863 15.5592
294 2 5.65517 0.705925 9.43991
120 2 -0.119598 6.5291 13.2847
16 2 2.89896 1.05183 17.0034
176 1 0.567976 5.82625 9.49214
217 2 4.73476 0.427524 16.3774
245 1 -2.06435 2.27694 12.1392
219 2 3.60335 1.74009 15.6944
220 1 4.60244 1.53631 16.1971
276 2 2.33349 0.708038 13.0947
168 2 -0.376582 5.6697 10.1947
162 2 -3.85624 5.08934 10.5018
167 2 1.52078 5.17267 9.75866
242 2 -2.22272 2.86598 13.0809
100 4 3.80069 4.16377 13.7995
143 2 -2.02869 6.38153 17.4343
288 2 -0.697752 0.470456 16.7103
114 2 5.90642 0.363763 15.1061
83 2 -4.67139 11.1186 6.71127
87 1 -5.14195 12.1231 6.96934
161 2 3.09789 7.02745 1.31292
153 4 -3.6544 8.40736 8.29784
154 4 0.552411 7.07166 4.57313
155 4 2.1203 8.22298 2.03138
158 2 -4.8318 9.66251 8.0024
152 4 -1.93192 6.7905 6.01595
309 3 -3.96739 11.363 0.137418
279 2 -6.39091 12.0805 6.83528
169 2 -2.91771 10.81 7.76514
182 3 -2.93988 7.88397 7.02861
183 3 -0.700566 7.66977 5.17591
184 3 1.24078 7.68471 3.28235
185 3 1.39968 9.1963 0.860259
193 4 -2.86444 7.68614 1.74261
194 2 -1.13851 8.34264 2.51924
197 2 -0.663827 7.73407 0.410465
198 1 -0.979371 7.1123 1.36252
199 3 -3.61939 7.0867 2.96977
200 3 -3.43057 8.72517 0.669001
202 2 -4.37797 12.1243 3.24941
203 2 -4.25794 10.2503 3.76303
204 2 -4.87975 11.5267 5.06945
80 2 -3.75434 12.5546 8.25787
206 1 -4.78991 11.2391 3.88463
211 4 -0.284932 12.3515 1.73439
212 2 -1.78087 12.5548 2.4924
224 2 0.719162 10.2492 5.24377
214 3 -0.395839 11.1844 0.647218
228 2 -0.546034 12.317 5.65087
229 2 -0.642529 11.6238 3.88568
160 2 1.7133 6.94904 5.71235
232 1 0.0904209 11.8926 4.81481
207 1 -6.94053 12.1239 1.93723
22 2 -2.17028 12.7216 4.234
196 2 -0.179773 6.46999 1.71941
177 1 -3.07004 10.2098 8.72154
234 4 -1.31957 10.4442 17.4086
78 4 -6.16786 10.3568 11.1084
79 4 -4.87383 11.8043 13.4759
300 2 -1.05552 11.1999 14.1015
238 2 -3.21061 9.26675 16.8843
82 2 -5.48756 8.79363 10.8313
84 2 -4.31194 9.88487 15.0505
85 2 -3.96165 11.2523 16.2441
86 2 -3.15653 11.5591 14.0499
88 1 -4.42997 10.9773 15.2795
89 3 -5.80021 11.2605 9.76653
90 3 -5.36031 10.9291 12.3341
119 2 0.925581 8.17387 13.155
151 4 -4.49151 6.6371 10.7435
124 2 0.898405 7.14848 14.6742
145 2 -1.65009 7.1205 14.6025
236 2 -1.67301 8.28136 16.2097
129 1 0.747507 7.16189 12.6374
131 1 1.02058 7.17901 15.9506
283 2 -4.97849 8.47691 14.5529
157 2 -3.40044 6.81167 11.9746
239 1 -2.21783 9.28417 16.2146
81 2 -6.03471 11.6775 15.0061
171 2 -3.75042 10.6197 9.4263
237 2 -2.28595 9.97335 15.2462
181 3 -4.15585 7.55659 9.5304
166 2 0.72905 6.94534 9.21118
118 2 0.487456 7.1816 11.4964
210 2 -6.01098 9.89623 15.5745
101 4 2.5604 6.75394 12.3864
226 2 -0.416203 10.6675 9.92498
170 2 -2.04225 9.73183 9.18752
77 4 -5.4622 12.4719 8.88112
126 2 0.10415 7.0366 16.5399
122 2 2.77448 6.65513 10.293
277 2 -0.490636 11.6316 11.4014
208 4 -5.98032 10.1761 17.291
235 2 -0.312443 11.1206 16.1105
304 2 -8.44078 12.6923 14.7611
2 4 11.2454 6.05691 4.04797
117 2 6.19453 4.74381 8.31401
5 4 10.5754 0.793138 1.51291
61 3 7.40037 6.14629 4.66306
7 4 11.8834 2.06063 5.54064
8 4 9.80915 3.54119 2.61569
17 2 9.06083 0.696527 0.825545
10 4 9.33521 5.60864 0.29925
11 4 10.073 3.72516 7.20981
12 4 8.74138 6.13419 5.80959
62 3 9.08205 4.70096 6.47168
18 2 10.5752 1.83895 4.3557
19 2 9.24313 2.32706 7.86267
29 2 8.31083 2.61603 4.28219
30 2 7.40859 3.00966 2.77379
31 2 7.94772 4.3998 3.98444
116 2 5.82269 2.83617 8.28355
115 2 5.24351 3.94278 6.76514
44 1 8.18528 3.40768 3.50736
215 4 6.91678 2.28097 0.203107
128 1 5.48187 3.91918 7.93477
52 3 11.6292 1.0618 0.402209
53 3 13.2608 2.34492 4.73362
54 3 12.0127 0.681136 6.33695
55 3 10.5386 1.66922 2.7753
56 3 10.7684 4.5592 3.33126
57 3 6.04892 5.00189 2.65068
58 3 9.52485 3.90898 1.1517
59 3 11.4607 3.29972 6.55149
230 2 8.62651 0.228849 4.35391
35 2 11.3839 4.92316 8.66922
28 2 13.1296 2.28838 8.21215
216 2 8.35177 3.23188 0.208741
310 3 7.17006 1.10454 1.24623
33 2 4.08292 5.85522 4.05357
9 4 6.37397 6.41283 3.41961
43 1 13.5219 1.32935 8.63971
295 2 10.5798 1.16193 8.70251
46 1 10.6145 4.19026 8.99774
303 2 12.9383 1.50266 14.909
37 2 9.79207 4.73632 9.62345
308 1 10.3252 0.572871 12.8397
91 4 10.6251 1.99317 16.6949
92 2 9.72756 2.68891 15.4299
291 2 7.08704 1.94314 9.1303
275 2 11.3914 0.768135 15.7504
141 3 4.04533 6.62479 16.1709
102 4 5.35542 5.85966 15.6926
123 2 4.73976 6.43663 11.05
107 2 5.79503 3.21208 10.3349
109 2 4.36979 5.64124 9.85309
255 1 7.29615 4.46439 10.9535
307 2 10.3531 0.639218 14.0183
297 2 9.1759 2.11878 9.73989
36 2 10.9781 3.19159 9.47021
139 3 4.95225 4.49753 14.8427
140 3 6.34518 5.51062 16.8253
186 4 9.60483 6.25873 15.4104
187 4 8.74035 3.51306 14.0244
188 2 7.31903 2.83814 14.684
189 2 9.94292 2.34966 13.6772
190 2 8.40819 3.58118 12.3492
191 3 8.76639 6.30742 16.8879
192 3 9.0734 4.97715 14.5288
218 2 5.59866 2.05003 15.5915
306 2 9.92609 1.47625 12.2561
298 1 9.68121 1.17169 9.40966
93 2 11.8598 2.99101 17.0433
106 2 8.39138 0.659894 12.5743
243 2 11.8477 1.69751 11.5955
302 2 13.0359 1.07316 9.69952
240 4 12.3627 0.486901 13.0107
252 2 7.48328 6.11416 13.2943
247 4 7.78721 6.29368 11.466
249 2 7.98115 3.68285 10.5354
250 2 6.69987 4.92434 10.0548
251 2 6.58117 4.16843 11.8098
293 1 6.52184 0.97957 8.76697
257 3 9.41191 6.51882 11.1411
296 2 9.8794 0.498468 10.2758
98 4 2.53483 6.37743 16.8272
13 4 8.17755 8.07667 1.59119
14 4 7.41065 8.05429 7.63887
15 4 6.98359 10.4955 5.81159
32 2 5.02855 6.84861 5.36633
60 3 10.0197 6.64064 4.92039
45 1 4.69456 6.81562 4.28448
34 2 4.26874 7.8015 3.7902
38 2 5.29708 10.1306 3.87874
39 2 4.99259 11.6083 5.04676
40 2 4.59391 9.79254 5.72008
278 2 3.79783 11.9965 2.03533
47 1 5.17637 10.4754 4.96097
63 3 6.74216 7.86562 2.37123
64 3 8.9248 6.65239 1.53351
65 3 9.06802 9.14952 2.38767
201 4 8.92834 10.6969 3.18753
67 3 8.58078 7.2237 7.00163
68 3 7.93716 10.6194 4.43557
69 3 7.03825 9.18311 6.71584
70 3 6.9274 11.6798 6.79317
172 2 3.16005 9.37936 3.99568
173 2 2.86003 10.3528 2.32094
174 2 4.46165 9.37165 2.74263
178 1 3.35054 9.39527 2.84048
21 2 6.0199 7.14387 7.96322
270 3 4.67237 11.7601 8.5843
222 4 1.75077 11.7531 5.74932
223 2 3.3348 11.0097 5.47352
6 4 5.53646 12.6621 7.66669
233 3 1.42758 12.2612 7.28029
267 2 3.45618 9.43374 8.53476
213 2 0.809217 11.8371 2.96241
285 2 7.31636 12.2663 1.96639
205 2 8.69294 11.6319 0.90643
231 1 0.644371 11.0321 9.86861
112 2 3.72397 8.10925 12.5673
265 4 4.10321 10.6406 9.45835
121 2 4.49558 8.08525 10.307
284 1 9.49927 7.81655 14.3098
130 1 4.06739 7.25528 10.9311
20 2 7.74327 8.57022 9.2097
127 1 -0.592515 12.3111 14.457
227 2 1.09619 11.0344 10.8989
248 2 6.7504 7.7431 10.9829
66 3 6.24402 9.22194 17.361
254 2 7.37567 8.46464 12.5085
256 1 6.62885 7.57475 12.8486
258 4 5.79091 9.61512 15.776
259 2 6.38107 11.1517 15.2008
260 2 6.44146 8.5705 14.4433
261 2 3.7803 10.7243 15.2909
262 2 3.59252 9.70043 16.7942
113 2 6.25248 6.8292 14.6052
264 1 3.99185 9.76439 15.7997
282 2 9.54569 7.46 13.2116
266 4 6.16564 10.4523 11.6129
281 2 8.492 8.20772 14.6534
269 2 5.84482 9.36669 12.9317
271 3 7.71978 10.3539 11.3516
272 3 5.2551 10.0306 10.3848
273 3 5.66569 11.8547 12.3353
244 2 5.49657 12.513 15.8999
263 2 3.7486 8.76392 15.1391
268 2 2.61319 11.0886 10.2248
96 4 -0.425789 12.8366 12.6665
253 2 5.61299 7.38902 12.1198
305 2 2.58338 12.3857 12.4386
299 2 0.527933 12.3091 14.7698
225 2 1.27033 10.4217 9.119
221 4 0.963624 12.7148 8.76813
246 1 5.86396 13.0136 14.9446
125 2 1.51141 8.33086 16.3064
209 2 7.72032 9.91629 17.3992
ITEM: TIMESTEP
200
ITEM: NUMBER OF ATOMS
310
ITEM: BOX BOUNDS xy xz yz pp pp pp
-9.0415410999999999e+00 1.5411400000000000e+01 -7.2154410999999996e+00
0.0000000000000000e+00 1.3079499999999999e+01 -1.8261000000000001e+00
0.0000000000000000e+00 1.7503399999999999e+01 3.3839999999999998e-01
ITEM: ATOMS id type x y z
1 4 3.16561 0.217382 0.501974
3 4 3.65852 1.89788 3.36717
50 3 5.595 3.22267 0.608872
195 2 -2.06492 5.98039 0.723946
23 2 5.39502 1.82083 5.20479
22 2 5.11211 0.167972 4.45264
25 2 1.49486 1.63329 4.2215
26 2 2.24949 3.21194 4.94359
27 2 2.81047 1.4484 5.61768
41 1 5.34099 1.24476 4.22054
42 1 2.39202 2.10137 4.75192
48 3 3.21736 0.917798 2.01821
49 3 4.04025 3.3851 2.7025
51 3 3.9176 5.64125 0.804164
71 4 -1.05258 2.53645 3.47146
115 2 4.78769 3.65973 6.56971
73 2 -0.235951 5.01805 2.23532
74 2 0.392553 3.43618 3.97422
75 2 -1.61225 4.87749 3.58626
76 1 -0.865258 4.33965 2.88327
110 2 3.09789 5.74241 7.38548
4 4 4.96251 4.22116 1.67761
292 2 6.39137 0.922577 7.47192
150 4 -0.250909 5.07071 8.05642
159 2 0.16698 5.36241 4.19031
163 2 1.58249 4.38227 6.98906
164 2 0.339822 3.12882 6.13133
165 2 0.881518 2.66913 7.82297
175 1 0.689793 3.49796 7.07441
179 3 -2.70379 5.74887 4.80369
180 3 -1.08698 6.01265 7.04204
287 2 1.88833 2.28701 0.0958598
24 2 6.27782 1.45466 3.62318
274 2 -1.80792 3.37477 1.88337
99 4 3.91091 4.66376 8.4208
280 2 1.83423 0.440228 6.20032
156 2 -0.961886 3.43955 7.96392
72 2 -0.31912 0.97907 2.86483
94 4 0.101208 2.6016 12.4125
95 4 2.13879 2.36242 10.07
97 4 4.70766 2.23538 11.6513
135 3 5.73791 0.98408 12.1937
103 2 -0.915972 1.09912 11.8958
104 2 -0.63953 4.00803 13.0369
105 2 1.03621 1.99183 13.6979
108 2 1.35881 5.58304 15.6052
111 2 2.56365 3.12719 14.6747
241 2 -1.83213 3.30665 11.3717
138 3 2.9084 5.31715 13.356
132 3 1.15889 1.1623 9.02429
133 3 1.10242 2.9554 11.1556
134 3 3.49654 1.5935 10.896
289 2 0.61315 1.63617 16.1157
136 3 2.86741 3.5631 9.15563
142 4 -2.56925 5.99855 15.7385
290 1 0.0626877 1.58608 17.1258
144 2 -1.9439 4.24456 15.5522
137 3 4.24229 3.17039 12.7743
146 2 -1.9901 5.12455 13.3081
147 2 -0.313412 5.237 14.1972
148 1 -1.40947 5.36906 14.2768
149 3 -4.14314 6.11983 15.5746
294 2 5.7347 0.729235 9.18598
120 2 -0.11755 6.47332 13.2858
16 2 2.83838 0.906366 17.1953
176 1 0.533389 5.80143 9.52784
162 2 -3.67908 5.09583 10.4595
245 1 -2.06018 2.506 12.0954
219 2 3.43975 1.55108 15.6377
220 1 4.40745 1.48043 16.1477
276 2 2.40798 0.764014 13.2774
168 2 -0.471141 5.62309 10.2091
288 2 -0.892067 1.02385 17.0773
167 2 1.37909 5.08501 9.78398
242 2 -2.07987 2.91212 13.2061
100 4 3.69957 4.08964 13.9199
143 2 -1.84837 6.31063 17.3626
301 2 -0.68639 1.27843 8.9715
303 2 -2.03317 1.72323 14.5953
98 4 2.45883 6.30503 16.8061
217 2 4.69777 0.410468 16.372
114 2 5.66971 0.359335 15.0245
83 2 -4.10649 11.8215 6.44866
87 1 -5.07643 12.2295 6.82787
161 2 2.97774 6.99402 1.26451
153 4 -3.60603 8.39102 8.25791
154 4 0.440132 7.01197 4.60296
155 4 2.13849 8.29529 2.07166
158 2 -4.67188 9.78676 8.01639
152 4 -1.90145 6.88077 6.0683
309 3 -4.256 11.4288 0.316738
279 2 -5.92751 11.41 6.73279
169 2 -2.93183 10.8552 7.74915
182 3 -3.05544 7.82572 6.89198
183 3 -0.811784 7.83139 4.94989
184 3 1.26507 7.66764 3.32772
185 3 1.4373 9.21407 0.956546
193 4 -2.78278 7.77381 1.63646
194 2 -1.31519 8.40128 2.47221
197 2 -0.725108 7.73616 0.338634
198 1 -1.03633 6.98526 1.23019
199 3 -3.65435 7.14077 2.74414
200 3 -3.37137 8.85322 0.617154
202 2 -4.48042 12.1187 2.95851
203 2 -4.19233 10.263 3.61252
204 2 -4.91195 11.6327 4.85635
80 2 -3.88197 12.6437 8.29827
206 1 -4.77525 11.258 3.75755
211 4 -0.320088 12.493 1.85289
212 2 -1.75056 12.6672 2.728
224 2 1.01262 10.2216 5.35116
214 3 -0.395308 11.3479 0.81419
228 2 -0.4132 12.0487 5.876
229 2 -0.471772 11.3066 4.0491
160 2 1.49004 6.75374 5.89756
232 1 0.209149 11.6939 4.95613
177 1 -2.87825 10.1255 8.63465
170 2 -1.72358 9.5828 8.68668
77 4 -5.50855 12.504 8.72727
286 2 -6.33421 12.773 2.15962
196 2 -0.154495 6.43656 1.67479
234 4 -1.32041 10.6063 17.4795
78 4 -6.0951 10.5446 11.0823
79 4 -4.92851 11.8197 13.6985
300 2 -1.17386 11.2197 14.3343
238 2 -3.28436 9.30489 16.6741
82 2 -5.61697 8.94495 10.8841
84 2 -4.33787 9.91817 15.2837
85 2 -4.06562 11.3517 16.5157
86 2 -3.27994 11.6991 14.391
88 1 -4.60577 11.0017 15.549
89 3 -5.65587 11.3813 9.79786
90 3 -5.32162 10.8555 12.4737
119 2 1.02158 8.2534 13.0988
151 4 -4.37268 6.6404 10.7128
124 2 0.948843 7.38147 14.6862
145 2 -1.70728 7.08766 14.4942
236 2 -1.58925 8.4604 16.1599
129 1 0.79569 7.16207 12.6627
131 1 1.14574 7.38973 15.9261
283 2 -5.39672 8.53374 14.5768
157 2 -3.51872 6.89874 12.0696
239 1 -2.23463 9.43813 16.3038
81 2 -6.19482 11.6805 15.1367
171 2 -3.25129 10.5021 9.66489
237 2 -2.14511 10.0375 15.3107
181 3 -3.94832 7.53239 9.51456
166 2 0.931405 6.92066 9.35294
118 2 0.584189 7.2285 11.5576
210 2 -6.14617 9.86065 15.5323
101 4 2.57968 6.71817 12.5268
226 2 -0.360201 10.9976 9.94817
225 2 1.06284 10.2092 9.01043
127 1 -0.728656 12.325 14.4967
126 2 0.0885656 7.30149 16.4893
122 2 2.87623 6.61315 10.4445
277 2 -0.121919 11.2916 11.6496
208 4 -6.00899 10.1711 17.2844
235 2 -0.380995 11.3717 16.212
304 2 -8.36574 12.7631 14.4108
2 4 11.3296 6.04178 4.0884
117 2 6.08371 4.66462 7.74014
5 4 10.5839 0.873958 1.44825
61 3 7.47124 5.98463 4.63476
7 4 11.9947 2.04923 5.54037
8 4 9.94479 3.55771 2.62366
17 2 9.08426 0.619792 0.814967
10 4 9.35973 5.56338 0.26646
11 4 10.1295 3.7587 7.33046
12 4 8.87504 6.12649 5.88216
62 3 9.1129 4.74188 6.69128
18 2 10.9422 1.4815 4.33521
19 2 9.34759 2.40269 8.17636
29 2 8.39348 2.6181 4.2499
30 2 7.57229 3.15376 2.61427
31 2 8.00459 4.45158 3.91054
116 2 5.80806 2.74003 8.05433
33 2 4.10805 5.95931 4.16724
44 1 8.29577 3.43468 3.46003
215 4 6.83347 2.24704 0.170442
128 1 5.27096 3.7818 7.67624
52 3 11.6606 1.05622 0.260468
53 3 13.3215 2.31985 4.70317
54 3 12.1385 0.788491 6.42766
55 3 10.6191 1.69988 2.80277
56 3 10.6934 4.72733 3.30625
57 3 6.06338 5.09946 2.36159
58 3 9.66471 3.85324 0.91073
59 3 11.3062 3.24392 6.40986
230 2 8.52665 0.230613 4.51161
293 1 6.59988 0.951492 8.58206
28 2 13.0027 2.22737 8.56366
216 2 8.18917 3.26007 0.271342
310 3 7.29558 1.17905 1.25266
9 4 6.38257 6.41517 3.27556
35 2 11.603 4.74647 8.74531
46 1 10.6182 4.09255 9.18081
43 1 13.4814 1.27336 8.91977
37 2 9.86028 4.73604 9.72544
308 1 10.3134 0.61209 12.8581
91 4 10.5966 2.15313 16.6871
92 2 9.62572 2.79361 15.3449
291 2 7.15608 1.92813 8.95998
275 2 11.804 1.22384 15.8331
141 3 3.896 6.48992 16.2302
102 4 5.29256 5.77311 15.7866
123 2 4.99514 6.47858 11.0331
107 2 5.67794 3.27814 10.6866
109 2 4.23256 6.12596 9.39716
255 1 7.34197 4.28502 10.9525
307 2 10.3777 0.735772 14.0388
297 2 9.35119 2.04572 10.0933
36 2 11.0252 3.24972 9.84317
139 3 4.92534 4.39391 14.9751
140 3 6.16248 5.58755 17.0636
186 4 9.5998 6.30001 15.383
187 4 8.64533 3.45731 14.0183
188 2 7.14649 2.82434 14.4855
189 2 10.0177 2.41954 13.547
190 2 8.37588 3.2262 12.2631
191 3 8.67522 6.37373 16.6884
192 3 9.00558 4.90817 14.3323
218 2 5.2689 2.04635 15.492
306 2 9.99524 1.49561 12.1976
298 1 9.66941 1.0903 9.62579
93 2 11.2272 3.56006 17.3731
106 2 8.364 0.702452 12.5513
243 2 12.0439 1.99401 11.7342
302 2 13.1038 0.851289 9.88276
240 4 12.3211 0.512739 13.0018
252 2 7.40758 6.07215 13.2689
247 4 7.83708 6.17308 11.3807
249 2 8.00445 3.34871 10.8612
250 2 6.81477 4.78381 9.95913
251 2 6.71145 4.30346 11.9677
295 2 10.4367 1.28167 8.88119
257 3 9.47836 6.45129 11.0286
296 2 9.86114 0.275825 10.3882
246 1 13.3059 0.443765 14.7855
13 4 8.23673 8.07023 1.51989
14 4 7.43391 8.09074 7.68767
15 4 6.90807 10.5255 5.85454
32 2 5.14658 7.18702 5.23942
60 3 10.1591 6.66102 5.03286
45 1 4.7598 6.92615 4.21514
34 2 4.26911 7.85061 3.67895
38 2 5.76202 10.1994 3.80966
39 2 4.98188 11.7559 4.70877
40 2 4.51595 9.92525 5.23241
278 2 3.49871 11.9657 2.01158
47 1 5.29035 10.6223 4.76458
63 3 6.87768 7.72212 2.31475
64 3 8.98896 6.62704 1.32665
65 3 9.0151 9.2201 2.27331
201 4 8.8757 10.6268 3.21023
67 3 8.56863 7.22929 7.07421
68 3 8.11143 10.5608 4.59923
69 3 6.92557 9.2197 6.71206
70 3 6.89089 11.8882 6.8355
172 2 3.22391 9.45382 3.80521
173 2 3.54607 10.7117 2.43429
174 2 4.37489 8.9499 2.32552
178 1 3.43184 9.51076 2.70438
21 2 6.11393 7.16328 8.26008
270 3 4.5331 11.6445 8.31469
222 4 1.93657 11.8196 5.86064
223 2 3.50622 11.1844 5.50246
6 4 5.61272 12.7435 7.56184
233 3 1.54535 12.316 7.37939
267 2 3.71423 9.25375 8.43544
213 2 0.792673 11.9773 3.11458
285 2 7.12014 12.3935 2.19591
205 2 8.17544 11.4874 0.974392
207 1 8.11811 12.0079 1.97736
231 1 0.736369 10.8592 9.92386
112 2 3.92362 7.96873 12.6563
265 4 4.19991 10.6025 9.36372
121 2 4.42377 8.17056 10.4774
284 1 9.2064 7.9222 14.4334
130 1 4.13235 7.26106 11.0061
20 2 7.87459 8.64584 9.20142
209 2 7.69264 9.67955 17.2623
227 2 1.20944 10.5497 10.9019
248 2 7.01936 7.61759 10.9629
66 3 6.24789 9.1875 17.2238
254 2 7.3382 8.24414 12.4746
256 1 6.65313 7.53813 12.9622
258 4 5.62735 9.65132 15.6578
259 2 6.11851 11.2654 14.9984
260 2 6.51249 8.79792 14.3543
261 2 3.74669 10.8301 15.1072
262 2 3.37198 9.98713 16.8552
113 2 6.13871 6.81219 14.6304
264 1 3.87329 9.82729 15.7737
282 2 9.20628 7.39281 13.3788
266 4 6.20929 10.5902 11.5336
281 2 8.26891 8.36806 14.7614
269 2 6.06207 9.37947 12.7626
271 3 7.78442 10.6975 11.235
272 3 5.39789 10.0188 10.3575
273 3 5.58159 11.92 12.3274
244 2 5.98083 12.9872 15.8736
263 2 3.57583 8.8005 15.1513
268 2 2.68871 11.0101 10.068
96 4 -0.326762 12.6897 12.6985
253 2 5.66092 7.43893 12.2674
305 2 2.66325 12.3589 12.532
299 2 0.385368 12.5103 14.8809
125 2 1.70419 8.46281 16.2511
221 4 1.01827 12.6701 8.821
ITEM: TIMESTEP
300
ITEM: NUMBER OF ATOMS
310
ITEM: BOX BOUNDS xy xz yz pp pp pp
-9.0479116499999996e+00 1.5411400000000000e+01 -7.2218116499999994e+00
0.0000000000000000e+00 1.3079499999999999e+01 -1.8261000000000001e+00
0.0000000000000000e+00 1.7503399999999999e+01 3.3839999999999998e-01
ITEM: ATOMS id type x y z
1 4 3.13514 0.375256 0.489579
3 4 3.78445 1.99859 3.39694
50 3 5.44508 3.34349 0.335521
195 2 -1.95181 5.96586 0.881776
23 2 5.36537 1.55816 5.29699
72 2 -0.204364 0.966131 3.14818
25 2 1.55462 1.63325 4.22298
26 2 2.41395 3.43724 4.59594
27 2 2.69199 1.76878 5.73603
41 1 5.31386 1.08699 4.26151
42 1 2.41924 2.231 4.6592
48 3 3.20107 0.727957 2.03682
49 3 4.10579 3.32874 2.63587
51 3 3.75749 5.45056 0.752983
71 4 -0.998621 2.45729 3.50637
156 2 -1.08477 3.56658 8.24901
73 2 -0.121185 5.09008 2.1849
74 2 0.457911 3.64143 4.02621
75 2 -1.44122 4.86253 3.5224
76 1 -0.653092 4.30741 2.90621
110 2 3.00699 5.84382 7.71638
4 4 4.88217 4.22367 1.63001
292 2 6.00815 1.02588 7.65631
150 4 -0.26963 5.15549 8.11605
159 2 0.302378 5.36435 4.23639
163 2 1.43174 4.11362 7.0335
164 2 0.0385185 3.26483 6.17082
165 2 0.674674 2.61907 7.74201
175 1 0.456845 3.50443 7.16061
179 3 -2.58202 5.70682 4.6927
180 3 -1.02694 6.0102 7.12442