ITEM: TIMESTEP
0
ITEM: NUMBER OF ATOMS
310
ITEM: BOX BOUNDS xy xz yz pp pp pp
-9.0288000000000004e+00 1.5411400000000000e+01 -7.2027000000000001e+00
0.0000000000000000e+00 1.3079499999999999e+01 -1.8261000000000001e+00
0.0000000000000000e+00 1.7503399999999999e+01 3.3839999999999998e-01
ITEM: ATOMS id type q x y z
4 4 1.45856 4.87283 4.46226 1.69419
3 4 1.11116 3.47572 1.77983 2.54103
280 2 0.149494 2.13578 0.930474 6.60399
71 4 0.806111 -1.28356 2.04886 3.69598
23 2 0.154763 3.69377 0.864288 4.94496
24 2 0.132415 5.27824 1.39934 3.85044
25 2 0.157841 0.910854 1.01355 2.55489
26 2 0.161009 1.06671 2.93362 3.17507
27 2 0.128062 1.89091 1.5407 4.18537
41 1 -0.655446 4.24213 0.69609 3.95964
42 1 -0.627898 1.58424 1.91067 3.08339
48 3 -0.766106 3.37578 0.730783 1.14162
49 3 -0.794662 3.90822 3.28857 2.45074
51 3 -0.804595 4.07194 5.84369 1.00966
75 2 0.20627 -2.08235 3.80925 2.58367
72 2 0.00218088 0.268662 2.20085 4.57428
73 2 0.00867509 -1.67465 3.68341 0.770465
74 2 0.13812 -0.223458 4.01053 3.25513
152 4 1.40481 -2.07869 6.21181 6.12567
76 1 -0.646752 -0.981325 3.41799 2.56678
275 2 0.0168823 -0.427048 2.42405 1.16089
110 2 -0.0371768 2.02218 4.99208 7.39211
50 3 -0.808169 5.42677 3.47059 0.487757
150 4 0.803037 -0.668153 3.92029 7.82762
159 2 0.0155198 0.890117 5.00512 5.61544
163 2 0.145698 1.46371 3.2968 5.83099
164 2 0.078733 -0.319188 2.35301 6.63774
165 2 0.155399 1.54684 3.32906 7.70993
175 1 -0.634152 0.873848 3.50151 6.77791
179 3 -0.80277 -2.86311 5.55323 4.88479
180 3 -0.808362 -1.35974 5.13981 7.09184
195 2 0.0591915 -1.98275 6.07875 0.262784
196 2 0.17849 -0.712818 5.26076 1.82439
310 3 -0.818676 6.80771 1.17559 1.07131
94 4 0.637971 -0.0143294 2.06987 11.9066
95 4 1.27553 2.5982 2.3333 10.69
147 2 0.0981394 -2.04843 6.34077 13.2724
219 2 0.158784 3.3943 2.46096 15.8582
103 2 0.0287733 -0.331242 0.481852 11.4499
104 2 0.00137912 -0.667556 2.53757 10.3278
105 2 -0.0582736 -1.07772 2.50688 13.0933
108 2 0.0234393 1.39235 5.47128 15.8337
111 2 0.0713534 2.35978 3.43851 13.258
290 1 -0.660541 0.421072 0.450714 15.9932
156 2 0.0507759 -1.81908 3.13286 9.0651
132 3 -0.829222 1.94176 1.36664 9.50884
133 3 -0.797502 1.43102 2.49047 12.1931
134 3 -0.827709 3.87234 1.53301 11.3861
168 2 0.169339 -1.4174 5.45112 9.87787
136 3 -0.76056 2.95672 3.8339 9.6945
100 4 1.1665 3.68069 4.50619 13.165
276 2 0.0448249 3.17092 0.617246 13.169
144 2 -0.0521931 -2.44399 4.75007 15.0723
301 2 0.136491 -0.624739 1.27914 9.15074
99 4 0.693909 3.0634 5.0842 8.77105
220 1 -0.657298 4.52722 2.0964 15.9416
289 2 0.145133 -0.323279 1.05385 16.6522
120 2 0.148192 0.595903 5.99299 12.9982
288 2 0.101991 1.14777 1.18043 15.3648
157 2 -0.00377799 -3.55976 6.46128 12.4178
167 2 0.109237 -0.983555 4.05275 11.1199
176 1 -0.642544 -0.898256 4.43183 9.98165
217 2 0.156389 4.59995 1.03644 15.7034
166 2 0.129994 0.229031 4.58905 9.80798
16 2 0.009929 3.35723 0.701933 16.6637
98 4 0.972951 2.288 6.65728 16.8746
142 4 0.688965 -2.90789 6.35799 15.3219
149 3 -0.789564 -4.49552 6.28649 15.4225
151 4 0.841689 -4.52507 6.51502 11.0007
97 4 1.1175 5.23783 2.12518 11.8817
291 2 0.130567 6.07175 1.10184 9.15809
208 4 0.950006 -3.8677 9.49643 0.107748
171 2 0.146636 -4.07003 10.4287 7.51911
230 2 0.164779 -0.808617 12.785 4.66043
153 4 0.92223 -3.91648 8.24613 8.0833
154 4 0.929563 0.6949 6.77014 5.35494
155 4 1.00689 2.31026 8.10275 2.95243
22 2 0.162537 -2.74305 12.3179 3.82199
160 2 -0.0694812 1.40182 7.13568 6.83879
83 2 0.151884 -4.602 11.8482 6.12799
177 1 -0.645056 -3.10371 9.90077 7.96598
169 2 0.179896 -2.25216 9.55685 7.19367
182 3 -0.777039 -3.07668 7.29391 7.16855
183 3 -0.762394 -0.770042 7.1276 5.27877
184 3 -0.804892 1.59401 7.25321 4.09414
185 3 -0.786253 1.38339 8.81099 1.8102
193 4 1.06919 -2.43797 7.34361 1.60271
194 2 0.150367 -0.619537 7.34926 2.38003
279 2 0.188933 -6.39227 12.3284 6.9678
234 4 1.02486 0.585455 9.83203 0.812009
161 2 0.0869479 3.30095 6.97604 2.04348
200 3 -0.841082 -2.71478 8.7218 0.835594
202 2 0.175918 -4.66081 12.0785 2.93244
203 2 0.198619 -4.29936 10.1641 3.28559
204 2 0.161549 -4.62616 11.3632 4.8229
205 2 0.168485 -6.05851 12.4183 1.23747
206 1 -0.626432 -4.81802 11.1203 3.63184
211 4 0.966066 -0.128632 12.6751 2.01291
199 3 -0.843645 -3.34688 6.57046 2.57487
80 2 0.0360489 -3.55389 12.5595 7.94211
214 3 -0.813845 0.235684 11.2852 1.26553
229 2 0.003093 -0.299054 11.2646 4.96067
212 2 0.00886359 -1.54065 12.5149 3.06256
87 1 -0.664408 -5.1487 12.5692 6.91269
197 2 0.175023 0.385121 6.55268 0.774102
198 1 -0.634032 -0.551919 6.42527 1.34275
77 4 1.0646 -5.13051 12.6823 8.85933
78 4 1.2667 -5.63497 10.5059 10.861
79 4 0.754595 -4.49438 11.7507 13.519
210 2 -0.0156806 -6.09363 9.03954 16.1233
170 2 0.162889 -2.7804 10.1511 9.07528
82 2 0.100559 -4.86941 8.94634 10.4631
84 2 0.164977 -2.20641 10.0966 13.6427
85 2 0.129213 -3.76594 10.0301 14.7977
86 2 0.0984011 -2.61859 11.614 14.8296
88 1 -0.638969 -3.05002 10.7204 14.1378
89 3 -0.867464 -5.46945 11.3635 9.61621
90 3 -0.787228 -4.95206 11.0844 12.2004
119 2 0.174807 -0.505203 7.49746 13.2665
277 2 -0.0114546 -1.20134 11.3579 13.7608
121 2 0.134731 1.45714 8.69504 10.3978
146 2 0.185624 -3.24345 8.02708 13.2635
148 1 -0.638951 -2.49385 7.42169 13.8525
145 2 0.134716 -1.64387 8.02211 14.359
118 2 0.108993 0.310871 7.42888 11.4696
101 4 0.763094 2.41525 7.34909 12.0731
236 2 0.15971 -0.440189 9.00809 16.1947
239 1 -0.663152 -0.957328 10.0438 16.464
129 1 -0.626993 0.457592 7.11965 12.7796
283 2 0.160701 -5.95372 8.90863 14.1786
226 2 0.154453 -0.827642 11.307 9.76685
181 3 -0.743473 -4.0088 7.74508 9.96773
287 2 0.156258 -7.33298 12.4393 15.3341
237 2 0.163603 -1.87686 10.3051 15.7161
309 3 -0.813673 -5.44827 11.3748 17.4814
238 2 0.0568076 -2.61957 9.55923 17.4066
81 2 -0.0223978 -5.84241 12.1624 14.5375
131 1 -0.67694 0.655476 7.21987 16.0293
124 2 0.164481 0.592137 7.18173 14.8516
125 2 0.0999141 1.2297 8.45779 16.4347
1 4 1.00683 -5.43 12.9401 17.3075
112 2 0.0286708 1.64716 8.09834 13.6812
235 2 0.126956 -0.10815 10.987 16.5153
109 2 0.00499672 2.35015 6.62116 9.39368
126 2 0.143001 -0.251021 7.16965 16.6318
231 1 -0.648363 0.295705 11.4562 9.85103
143 2 -0.018708 -2.21895 6.81192 16.8803
2 4 1.56628 11.414 5.74126 3.7128
9 4 1.42158 6.44012 6.33603 3.58
5 4 0.907502 10.9938 0.687172 1.62262
61 3 -0.851588 7.50412 6.05432 4.64187
7 4 1.18973 11.8617 1.56065 6.02668
8 4 1.27379 9.75526 3.34842 2.38966
62 3 -0.856404 9.39273 4.96999 6.28116
215 4 1.11126 6.65003 2.499 0.199999
11 4 1.09158 9.72304 3.585 6.95384
19 2 0.00495043 8.28067 2.97349 7.82384
294 2 0.15938 6.66237 2.08141 7.50284
228 2 0.1574 7.59497 1.25891 5.16271
128 1 -0.636996 4.87861 5.54892 8.32165
29 2 0.175711 7.9027 2.23792 3.88086
30 2 0.249324 7.53338 3.94799 3.14818
31 2 0.2186 8.7946 3.64233 4.53932
221 4 0.858577 8.11383 0.228378 8.74835
116 2 0.109931 4.66458 5.06812 7.15937
44 1 -0.691631 8.36209 3.2719 3.63919
213 2 0.0489802 8.44262 0.388795 2.96436
12 4 1.47919 8.96317 6.2744 5.38402
52 3 -0.793725 12.3123 1.24156 0.985325
53 3 -0.791356 13.0501 1.96824 4.75823
54 3 -0.81678 12.6557 1.30798 7.40487
55 3 -0.823252 9.85655 1.80367 1.93639
56 3 -0.814733 10.937 4.26497 3.06394
57 3 -0.854843 6.06202 5.05093 2.59268
58 3 -0.776415 9.01737 4.40189 0.936324
59 3 -0.824148 10.5257 2.45825 6.2239
232 1 -0.670811 7.38862 0.317706 4.51168
293 1 -0.629045 6.84742 1.85234 8.61299
274 2 0.0227805 14.5411 0.454211 3.02377
35 2 0.1761 10.996 4.97374 8.33511
33 2 0.158247 3.89768 6.27752 4.20767
91 4 0.593729 13.4718 2.00877 0.179691
286 2 0.13331 14.7937 0.399474 1.12016
216 2 0.135811 8.18305 3.34909 0.124877
223 2 0.00129746 9.27973 0.123077 4.50138
46 1 -0.662511 10.5415 3.93393 8.62495
32 2 0.157742 5.03143 6.34022 5.71906
28 2 0.169376 13.3989 0.743968 10.491
36 2 0.175983 11.387 3.1821 8.93728
37 2 0.13066 9.4752 4.12102 9.4103
297 2 0.113396 9.40179 0.796966 10.6018
162 2 -0.0113281 11.0522 5.00143 10.2643
92 2 -0.0275769 12.6318 1.57219 16.4416
93 2 -0.0210549 11.0719 3.44983 16.4512
10 4 1.50856 7.14459 6.05435 17.4196
295 2 0.177357 10.0834 1.96523 9.18445
102 4 1.24544 4.85131 6.0468 15.3435
218 2 0.190732 5.17693 2.84051 15.3965
107 2 -0.00689489 6.22024 2.23433 10.4737
249 2 0.0406375 7.91775 5.50388 9.01767
114 2 0.066875 7.13028 2.53217 15.0116
127 1 -0.603737 7.68158 0.868938 15.0727
137 3 -0.837883 4.91021 3.74717 12.5513
292 2 0.16243 7.12988 2.87226 9.20388
139 3 -0.834444 4.04106 4.83462 14.6901
140 3 -0.854439 6.04014 5.54006 16.3327
191 3 -0.824715 8.669 6.3655 16.8539
187 4 0.66365 7.8315 3.85983 13.8075
188 2 -0.0057125 8.50581 2.24793 13.9754
189 2 -0.00701768 8.36627 3.86853 12.0693
190 2 0.0633956 6.21151 4.26946 13.69
186 4 1.25895 9.33343 6.34093 15.4056
192 3 -0.779035 8.59634 4.92566 14.5861
135 3 -0.797413 6.11804 1.20643 12.8913
252 2 0.192992 5.52924 6.08592 12.0926
298 1 -0.652618 9.79677 0.870886 9.47049
251 2 0.140584 8.339 3.46808 10.3053
242 2 0.131462 11.1716 1.85728 12.3502
243 2 0.167869 11.8301 0.799149 10.8954
244 2 0.115637 12.3452 1.36085 14.551
245 1 -0.662152 12.0613 1.25391 11.9432
43 1 -0.689648 14.1803 0.421739 9.6752
299 2 0.114235 8.81356 0.660229 14.8646
255 1 -0.657695 7.73133 4.39652 10.352
250 2 0.13899 6.65408 4.19947 10.6151
247 4 0.731379 7.87771 6.23001 10.8789
241 2 0.11395 13.0474 1.81561 11.9657
138 3 -0.776555 3.17102 6.01463 12.3706
117 2 0.16835 5.32984 4.81609 9.16285
13 4 1.50065 7.71862 8.28236 1.5316
14 4 0.949999 7.00145 8.12817 6.88755
15 4 1.22507 6.59879 10.7387 5.46165
207 1 -0.668962 8.25276 12.2965 1.53623
201 4 1.07251 8.77357 10.8301 3.05041
158 2 0.0693126 9.95351 8.15731 7.36308
34 2 0.189847 4.78888 7.90622 4.66193
38 2 0.15732 5.36283 11.0312 3.37964
262 2 0.0677534 5.28478 11.519 0.463316
40 2 0.12906 4.33524 11.1224 5.11045
20 2 -0.0338462 6.86057 8.74681 8.45294
47 1 -0.672291 5.19477 11.5851 4.40846
63 3 -0.814551 6.80964 7.64524 2.7795
64 3 -0.819852 8.38393 7.08639 0.678511
65 3 -0.773032 8.9255 9.3296 2.23475
66 3 -0.813105 6.90441 9.17673 0.452546
67 3 -0.793229 8.46586 7.69157 6.56414
68 3 -0.76848 7.82946 10.9895 4.37933
69 3 -0.809871 6.30202 9.17524 5.90032
70 3 -0.795061 6.85944 11.7775 6.95923
172 2 0.131236 2.83014 10.6441 3.67662
173 2 0.149004 4.20592 9.44556 3.13182
174 2 0.142298 3.27762 9.16351 4.80465
178 1 -0.665257 3.24873 9.57038 3.74647
6 4 1.19815 6.02811 12.65 8.04172
224 2 -0.0390021 2.1787 10.4017 5.19675
278 2 -0.0274593 4.18684 12.6507 3.0373
263 2 0.163337 3.5696 10.2998 0.856917
222 4 0.655996 1.27245 11.7708 5.68319
233 3 -0.723498 1.13913 12.3183 7.19832
267 2 -0.0490178 4.56586 9.14044 8.19268
60 3 -0.806063 10.0732 6.59733 4.32765
17 2 -0.0074029 3.1607 12.0586 0.85121
21 2 -0.0085579 6.07348 6.73599 7.28654
285 2 0.150638 7.80479 11.3047 1.04017
39 2 0.158935 5.3504 12.7304 4.38166
45 1 -0.668168 4.83664 6.72451 4.69438
18 2 -0.019297 4.03435 12.8241 5.50444
270 3 -0.807528 4.54209 11.6579 8.65997
115 2 0.100931 4.64785 6.69855 8.63726
209 2 0.0664723 10.0498 9.28414 0.831281
141 3 -0.807297 3.79487 6.97262 16.0187
122 2 0.119355 2.88951 8.52403 9.23652
113 2 -0.0117181 5.49559 6.91792 13.9452
307 2 0.133235 2.6171 12.5307 12.0743
123 2 0.0440413 3.48101 8.84887 11.4285
130 1 -0.633098 2.50829 8.31153 10.2616
265 4 0.939428 4.61883 10.3091 9.39217
246 1 -0.646856 5.1298 12.9539 15.0227
308 1 -0.661415 3.01951 11.6857 12.7564
248 2 0.0202774 6.88318 7.63853 10.4692
106 2 -0.018975 1.09564 12.0239 12.7104
257 3 -0.786579 9.33274 6.70976 11.3395
256 1 -0.66631 6.11079 7.07421 12.1126
258 4 0.703116 4.18168 10.3792 16.9655
259 2 -0.0163524 5.18272 11.0951 15.6773
260 2 0.0201074 2.70922 9.55046 16.2587
96 4 0.687886 -0.234708 12.7901 13.621
264 1 -0.655662 2.37166 10.9309 17.4781
303 2 0.15623 6.07034 12.7115 15.5619
254 2 0.123918 6.89588 7.03497 12.9483
284 1 -0.67953 8.81957 7.99127 14.5044
266 4 1.22955 6.76388 10.1966 11.5999
268 2 0.00737765 3.12867 10.1591 10.2888
269 2 0.00741463 6.82322 8.85604 12.651
271 3 -0.844312 8.26799 10.3481 11.2007
272 3 -0.846398 5.73019 9.89963 10.4343
273 3 -0.77106 6.15056 11.3287 12.5969
281 2 0.134828 7.96617 8.28072 15.1154
282 2 0.166322 8.45976 7.36885 13.5655
240 4 0.843812 4.88938 12.3852 13.0441
253 2 0.157794 5.44839 7.98847 11.9995
302 2 0.216797 7.56059 12.239 9.91364
305 2 0.127573 2.6455 11.6715 13.804
306 2 0.147114 3.14997 10.7436 12.2013
261 2 0.134191 1.79978 11.4852 16.7016
300 2 0.149226 0.109227 12.9919 15.907
296 2 0.269344 3.39636 12.8723 9.20006
227 2 0.141766 0.662298 11.4232 10.9382
225 2 0.15467 0.863481 10.6678 9.14566
304 2 0.118836 4.1604 12.7545 15.5966
ITEM: TIMESTEP
100
ITEM: NUMBER OF ATOMS
310
ITEM: BOX BOUNDS xy xz yz pp pp pp
-9.0107423999999980e+00 1.5380577200000001e+01 -7.1882945999999990e+00
0.0000000000000000e+00 1.3079499999999999e+01 -1.8224477999999991e+00
0.0000000000000000e+00 1.7503399999999999e+01 3.3839999999999998e-01
ITEM: ATOMS id type q x y z
4 4 1.4669 4.84301 4.28801 1.66588
3 4 1.13588 3.57092 1.78532 2.58834
280 2 0.159694 1.93411 1.03893 6.23191
71 4 0.74889 -1.19329 2.14643 3.79984
23 2 0.146706 3.5987 1.11499 4.81197
24 2 0.158503 5.31195 1.18859 4.39749
25 2 0.148448 0.967245 1.05021 2.38639
26 2 0.158435 1.32669 2.89996 3.07228
27 2 0.125844 1.75539 1.39235 4.28193
41 1 -0.685925 4.34582 0.802164 4.01092
42 1 -0.629361 1.66001 1.79679 3.13001
48 3 -0.760645 3.60268 0.808079 1.17593
49 3 -0.822678 3.86149 3.29899 2.52338
51 3 -0.793286 3.88985 5.79968 0.991153
230 2 0.154758 6.25373 0.193962 4.60895
72 2 -0.0099555 0.413658 2.47676 4.53528
73 2 0.00450842 -1.70444 3.74928 0.719058
74 2 0.148196 -0.736122 4.25031 3.10304
152 4 1.4442 -2.1675 6.32358 6.03243
76 1 -0.644686 -1.33139 3.42343 2.59793
275 2 0.00259773 -0.50016 2.56811 1.16374
110 2 -0.030293 2.16594 5.08362 7.59928
50 3 -0.852837 5.52382 3.50357 0.449133
150 4 0.791317 -0.753434 3.8786 7.86757
159 2 0.0125211 0.855766 5.17408 5.87785
163 2 0.153445 1.78324 3.56136 6.28004
164 2 0.0681559 -0.0789627 2.37647 6.78368
165 2 0.181216 1.47838 3.32697 8.05818
175 1 -0.628576 1.01265 3.63197 7.04842
179 3 -0.791165 -3.17944 5.54368 4.99064
180 3 -0.753073 -1.41505 5.10413 7.03298
195 2 0.0325733 -2.18192 5.92562 0.264646
196 2 0.165387 -0.805261 5.23494 1.76609
310 3 -0.844834 6.88293 1.14105 0.997541
198 1 -0.65952 -0.499341 6.28211 1.25581
197 2 0.156167 0.472977 6.12446 0.69628
33 2 0.173469 3.78107 6.24316 3.9148
94 4 0.626667 0.15086 1.99354 12.0542
95 4 1.2315 2.66192 2.23863 10.613
147 2 0.0938303 -2.20172 6.29835 13.2138
219 2 0.176235 3.27259 2.48535 15.7502
103 2 0.0226278 -0.24655 0.457714 11.3086
104 2 0.00610286 -0.524967 2.39002 10.5337
105 2 -0.0583568 -0.785295 2.1012 13.4439
108 2 0.0230255 1.29971 5.3184 16.053
111 2 0.0773804 2.2476 3.65249 12.9715
290 1 -0.661593 0.66622 0.587504 16.0454
156 2 0.0407418 -1.7635 3.08559 9.2319
132 3 -0.815761 1.83822 1.38456 9.35043
133 3 -0.804325 1.61777 2.3097 12.2712
134 3 -0.813549 3.97139 1.37068 11.2144
168 2 0.156749 -1.0738 5.24077 9.83563
136 3 -0.77551 3.15155 3.74319 9.80354
100 4 1.1497 3.67418 4.60969 13.1283
276 2 0.0732842 3.26176 0.756918 12.8503
144 2 -0.068796 -2.20709 4.89104 15.2483
301 2 0.158193 -0.551522 1.02162 9.04878
99 4 0.712856 3.29584 5.04908 8.92797
220 1 -0.646975 4.32385 2.0244 15.8126
289 2 0.156212 -0.00358742 1.28874 16.5462
120 2 0.15076 0.721042 6.00541 13.0391
288 2 0.0979127 1.48499 1.20538 15.3349
97 4 1.14002 5.23412 2.23238 11.8398
167 2 0.0857582 -0.688577 3.91841 11.2745
176 1 -0.63956 -0.541475 4.26534 9.98635
217 2 0.124178 4.42655 1.03978 15.1868
166 2 0.138855 0.567178 4.37807 9.69123
16 2 0.0266251 3.63277 0.4684 16.7245
98 4 0.992077 2.3313 6.49467 16.957
142 4 0.681565 -2.883 6.43258 15.3306
149 3 -0.753637 -4.44223 6.50204 15.3704
151 4 0.887545 -4.60503 6.55942 10.9078
291 2 0.113575 6.24267 0.95674 9.43163
109 2 0.0245335 2.80745 6.51044 9.90274
208 4 0.952765 -3.84654 9.4357 0.149406
171 2 0.14761 -4.08179 10.4491 7.37952
209 2 0.101225 -5.26291 9.44929 1.08496
153 4 0.936572 -3.91619 8.17617 8.01
154 4 0.905637 0.665875 6.84236 5.50147
155 4 1.00048 2.18043 8.09766 2.81685
22 2 0.160459 -2.87403 12.4073 3.93218
160 2 -0.0573506 1.33922 7.5335 6.8611
83 2 0.145121 -4.82953 11.9738 6.34605
177 1 -0.650802 -3.25276 9.88191 8.02424
169 2 0.177272 -2.21887 9.69352 7.52761
182 3 -0.803064 -2.96775 7.26751 7.07857
183 3 -0.776717 -0.823158 7.19172 5.45674
184 3 -0.761786 1.45147 7.34483 4.08651
185 3 -0.806551 1.32904 8.93681 1.72982
193 4 1.09147 -2.40161 7.12776 1.49549
194 2 0.167256 -0.282514 7.28108 2.11128
279 2 0.207162 -6.53502 12.5154 6.92286
234 4 1.05313 0.458016 9.88251 0.839509
161 2 0.0827255 3.14346 7.07398 1.89656
200 3 -0.839965 -2.75103 8.48693 0.806126
202 2 0.164079 -4.31048 11.5074 2.62232
203 2 0.201198 -4.23122 9.73877 3.43509
204 2 0.164459 -4.53966 11.2875 4.55167
205 2 0.154425 -6.27746 12.5284 1.12018
206 1 -0.653425 -4.69007 10.8084 3.51471
211 4 0.996734 -0.0872025 12.7388 1.99641
199 3 -0.845017 -3.23999 6.58162 2.64798
80 2 0.0243214 -3.6673 12.6626 7.67288
214 3 -0.82508 -0.0718272 11.2244 1.40714
229 2 0.0187588 -0.427538 11.3188 4.91233
212 2 0.0448041 -1.61481 12.6355 2.77802
87 1 -0.67018 -5.40482 12.8388 6.83426
157 2 0.00786352 -3.65691 6.85023 12.2948
78 4 1.22721 -5.70484 10.5264 10.8636
79 4 0.734805 -4.37602 11.952 13.3766
210 2 0.00137819 -6.17904 9.21758 16.1001
170 2 0.198241 -3.23815 10.1358 9.14699
82 2 0.102046 -5.1463 8.94922 10.5339
84 2 0.152026 -2.56624 10.5851 13.2516
85 2 0.153189 -3.58795 9.95034 14.8904
86 2 0.0885493 -2.76484 11.8446 15.0326
88 1 -0.637791 -3.13795 10.8693 14.3117
89 3 -0.836138 -5.19715 11.3158 9.49582
90 3 -0.790558 -4.95445 11.0907 12.1578
119 2 0.175307 -0.583071 7.31495 13.1126
277 2 -0.00475786 -1.31445 11.4956 14.0736
121 2 0.148179 1.29728 8.46333 10.4294
146 2 0.177909 -3.47699 8.05278 13.5559
148 1 -0.613709 -2.53222 7.41736 13.7935
145 2 0.123996 -1.60462 8.02856 14.3878
118 2 0.130814 0.390341 7.19857 11.4365
225 2 0.171117 0.0191939 10.4632 9.29229
236 2 0.168371 -0.389635 8.85464 16.2402
239 1 -0.660586 -0.952644 9.9114 16.4909
129 1 -0.62729 0.467281 7.04677 12.686
283 2 0.153244 -5.61668 8.66906 14.3463
226 2 0.134255 -0.629952 12.0353 10.2732
181 3 -0.769737 -4.28477 7.7093 9.83933
287 2 0.157224 -7.09622 12.534 15.5216
237 2 0.177789 -1.80897 10.1804 15.874
235 2 0.108119 -0.149838 10.9682 16.6102
238 2 0.0478249 -2.57288 9.34713 17.3846
81 2 -0.0207035 -5.51016 12.352 14.6491
131 1 -0.649694 0.666343 7.09605 15.9923
124 2 0.155079 0.53588 6.94856 14.8128
125 2 0.109926 1.36125 8.27402 16.2163
1 4 0.989832 -5.19235 12.9092 17.321
112 2 0.0340288 1.32563 8.23691 13.6408
231 1 -0.647239 0.306817 11.3915 9.88205
77 4 1.05195 -5.06635 12.7002 8.75392
126 2 0.129805 -0.300385 7.06267 16.6428
309 3 -0.814014 -5.42138 11.3261 17.4718
143 2 -0.000225969 -2.35541 7.08421 16.9219
2 4 1.51404 11.2545 5.80195 3.74338
223 2 -0.012042 9.30564 0.20726 4.67391
5 4 0.909125 11.154 0.758274 1.82872
61 3 -0.870044 7.43587 5.91306 4.59562
7 4 1.27265 11.8339 1.65829 6.02035
8 4 1.27211 9.66283 3.38308 2.35647
62 3 -0.830927 9.26418 4.9046 6.26756
215 4 1.0921 6.63867 2.43397 0.082832
11 4 1.1019 9.70474 3.60256 7.02024
19 2 0.00595627 8.39845 2.84371 7.91935
294 2 0.171962 6.65781 1.99764 7.75135
228 2 0.14943 7.73771 1.21105 4.95984
128 1 -0.673772 4.95384 5.5561 8.32054
29 2 0.178034 7.90272 2.13327 3.81423
30 2 0.252705 7.49661 3.88265 3.07804
31 2 0.226493 8.58466 3.69815 4.4896
32 2 0.152029 4.7969 6.04418 5.4846
116 2 0.120501 4.77019 5.30891 7.16627
44 1 -0.69301 8.25795 3.20559 3.55212
75 2 0.231872 12.9003 3.57265 2.64568
12 4 1.42788 8.85177 6.26866 5.34064
52 3 -0.779647 12.3452 1.37958 1.02332
53 3 -0.782185 12.9463 1.97784 4.88486
54 3 -0.814211 12.611 1.27586 7.36617
55 3 -0.804508 9.95117 1.80187 1.94203
56 3 -0.803894 10.7738 4.1122 3.13115
57 3 -0.800709 5.89971 4.94178 2.5797
58 3 -0.816383 8.97442 4.45567 0.850525
59 3 -0.836543 10.6491 2.60766 6.31078
232 1 -0.67452 7.35627 0.306181 4.38988
18 2 -0.02238 11.2976 0.1418 5.41892
274 2 0.0109405 14.5986 0.629044 2.98593
35 2 0.166696 10.7744 5.07481 8.41257
9 4 1.31701 6.33352 6.41734 3.60978
91 4 0.590474 13.4681 2.10466 0.161768
286 2 0.149314 14.5946 0.26219 1.37747
216 2 0.105791 8.08796 3.31794 0.0412422
213 2 0.0301465 8.59404 0.197295 2.95301
28 2 0.169156 13.4544 0.632174 10.4716
36 2 0.164928 11.0987 3.26696 9.17726
37 2 0.150007 9.33159 4.13456 9.51776
297 2 0.140797 9.85475 0.739874 10.779
162 2 -0.0158808 11.3077 5.04323 10.2865
92 2 -0.017963 12.3682 1.35382 16.4478
93 2 -0.0407919 11.0637 3.34698 16.3225
293 1 -0.625964 7.01612 1.78731 8.76301
295 2 0.163734 10.0856 1.98142 9.34072
102 4 1.21822 4.82566 6.05797 15.3048
218 2 0.174386 5.16109 2.75614 15.2949
107 2 0.0178151 6.26676 2.43237 10.471
249 2 0.0302129 7.68407 4.98331 9.20167
114 2 0.0444118 7.10737 2.83285 14.8581
127 1 -0.609778 7.47275 1.07017 15.2115
137 3 -0.834024 5.03549 3.75085 12.3471
292 2 0.155097 7.40546 2.7496 9.39329
139 3 -0.808614 3.96638 4.68094 14.7178
140 3 -0.853615 6.11847 5.83468 16.1904
191 3 -0.817914 8.56158 6.6067 16.8219
187 4 0.66577 8.2066 3.88858 13.7627
188 2 -0.024305 8.73664 2.35729 14.3146
189 2 -0.000333274 8.90144 3.72489 12.121
190 2 0.0513065 6.64456 4.11767 13.2021
186 4 1.24402 9.17496 6.49521 15.3615
192 3 -0.787619 8.7193 5.17405 14.4076
135 3 -0.792722 6.06437 1.21551 12.8549
252 2 0.186172 5.94326 5.82283 12.0353
298 1 -0.655621 9.90691 0.834532 9.65978
251 2 0.126824 8.20066 3.18895 10.6853
242 2 0.129543 11.3678 2.03153 12.1657
243 2 0.181092 11.9249 0.980533 10.8121
244 2 0.117989 12.7049 1.15116 14.5636
245 1 -0.679389 12.1581 1.3368 11.8442
43 1 -0.662401 14.2252 0.22243 9.5573
299 2 0.124704 8.57229 0.735334 15.2995
255 1 -0.650593 7.68255 4.23997 10.7046
250 2 0.16943 6.65969 4.19716 11.1614
247 4 0.742744 7.83108 6.18946 10.7362
241 2 0.107432 13.1529 1.87296 11.9506
138 3 -0.78378 3.29139 6.04058 12.6378
117 2 0.163481 5.58454 4.76081 8.87403
300 2 0.143313 6.75113 0.699443 16.0699
257 3 -0.785904 9.27411 6.56456 11.229
46 1 -0.674885 10.3281 4.0194 8.77902
10 4 1.56865 7.06925 6.14253 17.4923
13 4 1.47946 7.59887 8.14743 1.51903
14 4 0.944841 7.01054 8.07069 6.82426
15 4 1.26278 6.76118 10.7386 5.5998
207 1 -0.667334 8.14124 12.2295 1.56886
201 4 1.14197 8.93824 10.7672 3.01566
158 2 0.109873 9.94729 8.08134 7.18978
34 2 0.187631 4.70878 7.81514 4.71456
38 2 0.155671 5.16527 10.9894 3.49494
262 2 0.0285596 5.69099 11.7464 0.165756
40 2 0.133594 4.46632 11.1875 5.33405
20 2 -0.0368394 6.7488 8.31774 8.49888
47 1 -0.658128 5.28511 11.5352 4.5478
63 3 -0.822185 6.51627 7.79206 2.72735
64 3 -0.891173 8.39144 7.03139 0.792471
65 3 -0.765364 8.89039 9.46538 2.13743
66 3 -0.792571 6.86885 9.20433 0.500883
67 3 -0.812252 8.53005 7.73682 6.58473
68 3 -0.746592 8.07704 10.814 4.33613
69 3 -0.818111 6.31008 9.16143 5.92674
70 3 -0.839445 6.90453 11.7135 6.8058
172 2 0.143565 2.8045 10.4382 3.74404
173 2 0.15184 4.12327 9.05644 3.46818
174 2 0.146011 3.01031 9.08905 5.03866
178 1 -0.641321 3.06834 9.40656 3.90318
6 4 1.2113 5.95578 12.5493 7.98689
224 2 -0.0321625 2.14643 10.4124 5.32739
270 3 -0.81684 4.70511 11.5439 8.67671
263 2 0.165991 4.2738 10.1407 0.874828
222 4 0.616068 1.19761 11.7947 5.6626
233 3 -0.717169 1.10258 12.3022 7.31964
267 2 -0.0556873 4.32929 8.98553 8.16549
60 3 -0.837897 10.001 6.64941 4.31778
17 2 -0.0122293 3.50958 12.0777 0.982503
21 2 -0.0136933 6.01474 6.64829 7.097
285 2 0.176987 7.77368 11.304 1.00836
39 2 0.165397 5.57779 12.6408 4.45499
45 1 -0.666631 4.68385 6.64676 4.57029
115 2 0.0942554 5.22734 6.69616 8.69164
278 2 -0.0396117 4.32096 12.7615 3.27428
141 3 -0.801405 3.81492 6.96877 16.1166
122 2 0.115573 2.83083 8.42323 9.43967
113 2 -0.00632293 5.37763 7.07088 13.9907
307 2 0.123341 2.5479 12.7417 12.3406
123 2 0.00572627 3.4636 9.07513 11.6402
130 1 -0.644843 2.36848 8.25167 10.4406
265 4 0.942166 4.62902 10.1512 9.38044
246 1 -0.652246 5.31926 12.7995 14.9748
308 1 -0.635233 3.01125 11.747 12.7073
248 2 0.0209676 6.69569 7.52355 10.4362
106 2 -0.00414146 1.21392 12.1109 13.2289
227 2 0.152694 1.1598 11.2525 10.6221
256 1 -0.665061 6.10396 6.91581 12.1645
258 4 0.709945 4.35403 10.5031 16.9807
259 2 -0.0284496 5.06144 10.9039 15.4585
260 2 0.0541614 2.66317 9.7846 16.2637
96 4 0.695724 -0.343369 12.9258 13.7904
264 1 -0.636062 2.45336 10.9505 17.3684
303 2 0.144846 6.21577 12.3053 15.4611
254 2 0.145657 6.73372 7.1185 13.0536
284 1 -0.661525 8.72524 8.15403 14.5169
266 4 1.21936 6.67049 10.1953 11.5513
268 2 -0.00142153 3.06667 10.0878 10.1955
269 2 -0.00101911 6.62447 8.75976 12.537
271 3 -0.853739 8.20582 10.3287 11.1231
272 3 -0.824699 5.87373 9.8215 10.235
273 3 -0.800759 5.87656 11.3714 12.3499
281 2 0.132196 7.9285 8.9556 14.8805
282 2 0.173993 8.42861 7.64974 13.5188
240 4 0.868518 4.85749 12.4282 12.9325
253 2 0.171211 5.12098 7.41523 12.2916
304 2 0.114135 4.29782 12.6602 15.4567
305 2 0.0985951 3.07307 11.5498 13.9606
306 2 0.146608 2.95626 10.7886 12.1255
261 2 0.147607 1.5254 11.5058 17.1293
101 4 0.695374 2.43594 7.61205 12.2072
302 2 0.222294 7.54961 11.9579 9.75503
221 4 0.869924 0.98709 12.8439 8.85658
296 2 0.243438 3.49874 12.8583 9.21909
ITEM: TIMESTEP
200
ITEM: NUMBER OF ATOMS
310
ITEM: BOX BOUNDS xy xz yz pp pp pp
-8.9926847999999993e+00 1.5349754400000000e+01 -7.1738891999999996e+00
0.0000000000000000e+00 1.3079499999999999e+01 -1.8187955999999996e+00
0.0000000000000000e+00 1.7503399999999999e+01 3.3839999999999998e-01
ITEM: ATOMS id type q x y z
4 4 1.43366 4.80739 4.23718 1.56709
3 4 1.0798 3.43223 1.84217 2.69213
280 2 0.164096 1.30598 1.30795 6.73872
71 4 0.746909 -1.16837 2.17478 3.86082
23 2 0.147287 3.71778 1.36428 5.15256
24 2 0.155286 5.29987 1.66051 4.31354
25 2 0.166282 0.906531 0.91463 2.64883
26 2 0.153489 1.06509 2.7489 3.01389
27 2 0.148286 1.83803 1.55233 4.30876
41 1 -0.667815 4.31668 1.03941 4.2497
42 1 -0.676029 1.51263 1.76961 3.22562
48 3 -0.753882 3.57188 0.680354 1.25531
49 3 -0.826577 3.87971 3.31084 2.44022
51 3 -0.791745 3.7646 5.77536 0.944044
197 2 0.1452 0.156366 5.91277 0.349523
72 2 -0.00339434 0.348739 2.55102 4.64609
73 2 0.00633835 -1.2711 3.72068 0.636115
74 2 0.141172 -0.901915 4.26678 3.224
152 4 1.41536 -2.16559 6.26693 6.24967
76 1 -0.627536 -1.41513 3.32664 2.50959
275 2 0.0120269 -0.336831 2.3677 1.38652
110 2 -0.0358019 2.11679 5.0451 7.84568
50 3 -0.822132 5.47963 3.33091 0.297617
150 4 0.799832 -0.555122 3.98087 7.88443
159 2 0.0153749 1.00488 5.34078 6.04583
163 2 0.151329 1.91703 3.52385 6.04805
164 2 0.0634288 0.0696577 2.51587 6.58993
165 2 0.146255 1.64426 3.45939 7.95643
175 1 -0.625244 1.16151 3.65484 6.89864
179 3 -0.767181 -3.07661 5.51378 5.04723
180 3 -0.804996 -1.3764 5.10075 7.13556
195 2 0.0464878 -2.42478 5.86212 0.163161
196 2 0.176708 -0.977725 5.07009 1.54845
310 3 -0.814627 6.8974 1.19003 1.03848
198 1 -0.674699 -0.691928 6.11332 1.02847
87 1 -0.679653 1.76587 0.234546 6.80417
33 2 0.171368 3.78302 6.09618 4.15492
291 2 0.152117 5.86169 1.47969 8.57755
212 2 0.0242734 5.52095 0.0670616 3.09633
230 2 0.163296 6.37014 0.146682 4.71491
94 4 0.640193 0.189256 1.97999 11.7149
95 4 1.27449 2.79081 2.24336 10.5245
151 4 0.915272 -4.71401 6.57397 10.8304
219 2 0.191354 3.31693 2.56204 15.6323
103 2 0.0239499 -0.0963831 0.359528 11.3765
104 2 0.00327709 -0.286817 2.45054 10.1266
105 2 -0.0578374 -1.02086 2.36414 12.8726
108 2 -0.00592986 1.17448 5.37731 15.7911
111 2 0.0802186 2.53825 3.52235 12.853
290 1 -0.664395 1.22902 0.828742 16.0002
156 2 0.042959 -1.57507 3.06434 9.08881
132 3 -0.853643 1.89514 1.33925 9.45564
133 3 -0.783241 1.63155 2.35116 12.1633
134 3 -0.831726 4.14862 1.38276 11.247
168 2 0.163153 -1.16243 5.39798 9.79718
136 3 -0.815207 3.27564 3.64173 9.89467
100 4 1.12231 3.85439 4.57296 13.1032
276 2 0.0848274 3.33905 0.761597 12.743
144 2 -0.0656846 -2.19387 5.09674 15.1868
301 2 0.155898 -0.427689 0.973666 9.14987
99 4 0.707093 3.3286 5.03415 9.15491
220 1 -0.659072 4.30057 2.00351 15.7842
289 2 0.157698 0.712423 1.67408 16.6635
120 2 0.137226 0.551305 6.05553 13.3096
288 2 0.133381 2.04995 1.25248 15.3461
97 4 1.10634 5.44381 2.03607 11.7139
167 2 0.11464 -0.653887 4.00232 11.0586
176 1 -0.650999 -0.576311 4.41929 9.942
217 2 0.133552 4.2683 0.994792 15.3754
166 2 0.108091 0.557898 4.65265 9.70787
16 2 0.0273481 3.71855 0.454952 16.8014
98 4 1.02339 2.16205 6.36642 16.8945
142 4 0.709583 -2.95706 6.61196 15.3105
149 3 -0.776272 -4.48797 6.5671 15.3866
109 2 0.0266804 2.91125 6.35919 10.2289
157 2 0.0017568 -3.88548 6.60839 12.3631
208 4 0.948228 -3.89218 9.36885 0.238339
171 2 0.132371 -3.89929 10.4931 7.399
77 4 1.05625 -5.09167 12.7321 8.70733
153 4 0.941737 -4.09661 8.29623 7.99055
154 4 0.938282 0.542651 6.92672 5.37445
155 4 1.0331 2.04783 7.9381 2.97974
22 2 0.147835 -2.64652 12.6698 4.39603
160 2 -0.0683226 1.17019 7.80353 6.64663
83 2 0.154908 -4.55608 12.8028 6.1138
177 1 -0.650439 -3.14195 9.85054 7.9919
169 2 0.169692 -2.09024 9.8774 7.48258
182 3 -0.776401 -3.1355 7.28117 7.16663
183 3 -0.756858 -1.01796 7.17219 5.29401
184 3 -0.83901 1.39043 7.121 4.09943
185 3 -0.810021 1.19504 8.82849 1.9124
193 4 1.07825 -2.45013 7.03628 1.36114
194 2 0.165656 -0.317601 6.98399 1.96567
279 2 0.211785 -6.29314 12.1386 6.69602
234 4 1.01278 0.397992 9.77176 0.914457
161 2 0.10161 2.87164 6.87086 1.9091
200 3 -0.837096 -2.67101 8.45944 0.738973
202 2 0.188571 -4.40433 11.9562 2.93227
203 2 0.183534 -4.03487 10.0984 3.07665
204 2 0.169546 -4.49818 11.0757 4.59613
205 2 0.150536 -6.28621 12.3141 1.12495
206 1 -0.674501 -4.65434 10.972 3.463
211 4 1.00096 -0.282651 12.7293 2.00743
199 3 -0.769109 -3.29639 6.45828 2.56031
80 2 -0.00173748 -3.72296 12.5544 7.65525
214 3 -0.809285 -0.0562091 11.3248 1.38964
229 2 0.00463213 -0.286223 11.2078 5.05548
309 3 -0.808332 -3.57702 10.9096 0.126067
209 2 0.0650027 -5.19895 9.25559 1.23709
238 2 0.0604843 -0.71985 8.81868 0.00685709
147 2 0.126775 -2.21599 6.87544 13.0789
78 4 1.19811 -5.61064 10.5824 10.7708
79 4 0.777129 -4.36594 11.9785 13.2364
210 2 -0.00125125 -6.31759 9.18628 16.2623
170 2 0.160953 -3.11469 10.0788 9.13281
82 2 0.073156 -5.01887 9.03067 10.4527
84 2 0.142552 -2.33812 10.8838 13.5325