ITEM: TIMESTEP
0
ITEM: NUMBER OF ATOMS
310
ITEM: BOX BOUNDS xy xz yz pp pp pp
-9.0288000000000004e+00 1.5411400000000000e+01 -7.2027000000000001e+00
0.0000000000000000e+00 1.3079499999999999e+01 -1.8261000000000001e+00
0.0000000000000000e+00 1.7503399999999999e+01 3.3839999999999998e-01
ITEM: ATOMS id type x y z
1 4 3.33497 0.139016 0.445227
3 4 3.69717 1.92516 3.18458
50 3 5.51902 3.16491 0.824189
195 2 -2.50604 6.25383 0.464713
23 2 5.28571 1.99351 4.89389
196 2 -0.373102 6.1789 1.48541
25 2 1.38333 1.64712 4.08542
26 2 2.0345 3.00307 4.97131
27 2 2.61139 1.22267 5.4579
41 1 5.36667 1.33309 3.95637
42 1 2.229 1.96538 4.67167
48 3 3.28017 0.812146 2.13047
49 3 3.99687 3.42083 2.71912
51 3 4.03921 5.74011 0.843905
71 4 -1.02023 2.51941 3.56375
72 2 -0.384056 1.00812 3.00701
73 2 -0.168644 5.10821 2.36378
74 2 0.280435 3.56773 4.16961
75 2 -1.67727 4.9097 3.46005
76 1 -0.781979 4.37111 2.98718
110 2 3.23437 5.51141 7.2217
4 4 4.90448 4.29768 1.78329
292 2 6.15413 1.02781 7.55493
150 4 -0.0964745 4.87175 8.08396
159 2 0.214868 5.23646 4.43568
163 2 1.60365 4.05188 6.87248
164 2 0.0267778 3.07172 6.17642
165 2 0.829079 2.40811 7.74487
175 1 0.587814 3.31688 7.08619
179 3 -2.7878 5.8164 5.07233
180 3 -1.03878 5.83151 7.07456
287 2 1.26847 1.33672 0.284106
24 2 6.4326 1.39304 3.51276
274 2 -1.57899 3.32475 1.88723
99 4 3.84163 4.62793 8.50266
22 2 4.99375 0.241165 4.2059
156 2 -0.765213 3.24057 8.45575
286 2 0.794895 0.19481 2.26181
94 4 0.149623 2.654 12.3356
95 4 2.33189 2.31627 10.005
97 4 4.76435 2.24114 11.5509
166 2 1.48859 6.53227 8.84108
103 2 -0.846026 1.13327 11.9962
104 2 -0.718171 4.03512 13.037
105 2 1.08579 2.26221 13.7076
108 2 1.7448 5.23679 15.6526
111 2 2.53907 3.41726 14.7008
241 2 -1.86088 3.34759 11.3053
138 3 3.15546 5.46522 13.0599
132 3 1.08371 1.13035 9.15076
133 3 1.25101 3.00259 11.2815
134 3 3.59031 1.59426 10.6023
289 2 0.519678 1.79719 16.2533
136 3 2.95519 3.4237 8.99089
142 4 -2.48875 5.90904 15.7927
290 1 0.0144529 1.09674 17.0277
144 2 -1.72326 4.18649 15.6397
137 3 4.30259 3.15783 12.6635
146 2 -2.0089 5.0457 13.4478
147 2 -0.265771 5.06436 14.3898
148 1 -1.36528 5.281 14.3303
149 3 -4.03415 5.95229 15.5899
294 2 5.86986 0.558024 9.40012
120 2 0.0306865 6.37073 13.4165
16 2 2.81703 1.10504 16.8891
176 1 0.937644 5.7052 9.38864
217 2 4.5323 0.724 16.3234
245 1 -2.03802 2.4727 12.0303
219 2 3.5239 2.06365 15.4509
220 1 4.43043 1.84151 16.1117
276 2 2.48235 0.847412 13.1318
168 2 0.0546121 6.02291 10.0428
301 2 -0.718707 1.20317 8.82992
167 2 1.64765 5.01654 9.89566
242 2 -2.14478 2.8385 13.1169
100 4 3.74927 4.14057 13.7972
143 2 -2.02723 6.27757 17.4731
135 3 5.79785 1.10688 12.2333
114 2 5.90257 0.668362 15.1421
83 2 -4.54709 11.0098 6.78752
87 1 -5.0178 12.0315 6.96579
161 2 3.26598 6.99562 1.46479
153 4 -3.63125 8.35189 8.31929
154 4 0.558171 6.89815 4.5725
155 4 2.18822 8.2445 2.00187
158 2 -4.73051 9.69559 8.02292
152 4 -1.97351 6.81631 6.04614
309 3 -4.01806 11.3286 0.274764
279 2 -6.339 12.0502 6.78482
169 2 -2.62035 10.6178 7.88232
182 3 -2.9613 7.76304 6.96692
183 3 -0.735903 7.52643 5.05493
184 3 1.29053 7.4821 3.34927
185 3 1.40182 9.07322 0.740083
193 4 -2.90832 7.54027 1.54905
194 2 -0.875624 7.94174 2.31775
197 2 -0.610119 7.67224 0.329946
198 1 -0.993678 7.09881 1.32095
199 3 -3.62959 6.98586 2.83192
200 3 -3.32481 8.81997 0.685184
202 2 -4.40249 12.0713 3.24356
203 2 -4.25931 10.275 3.70119
204 2 -4.88658 11.408 4.99503
80 2 -3.85199 12.3072 8.4589
206 1 -4.8345 11.2061 3.88149
211 4 -0.424343 12.3407 1.64979
212 2 -1.88494 12.5782 2.49182
224 2 0.491991 10.111 5.33887
214 3 -0.451693 11.2263 0.659146
228 2 -0.752352 12.0771 5.43851
229 2 -0.579408 11.352 3.74154
160 2 1.63148 6.86436 5.79474
232 1 -0.000155695 11.6293 4.71498
280 2 -4.51853 12.8281 6.20292
234 4 -1.27888 10.4283 17.1581
78 4 -6.28857 10.3279 11.0564
79 4 -5.05863 11.9634 13.5338
300 2 -1.05169 11.4329 14.3618
238 2 -3.18351 9.30563 16.777
82 2 -5.59688 8.73833 10.9358
84 2 -4.65418 9.63819 14.6089
85 2 -4.11072 10.7771 16.1794
86 2 -3.33048 11.403 14.0873
88 1 -4.50354 10.7234 15.0564
89 3 -5.98926 11.1096 9.69891
90 3 -5.62863 11.0687 12.3029
119 2 0.981857 8.16313 13.3171
151 4 -4.67441 6.65247 10.7937
124 2 1.0293 6.93302 14.691
145 2 -1.41092 7.04935 14.6867
236 2 -1.62957 8.09654 16.1034
129 1 0.756052 7.17763 12.7276
131 1 1.061 7.04831 15.9116
283 2 -5.02751 8.35558 14.2513
157 2 -3.8258 6.99401 12.2124
239 1 -2.02628 9.17732 16.1501
81 2 -6.02535 11.65 15.0537
171 2 -3.62274 10.8574 9.38813
237 2 -1.9243 9.74167 15.1269
181 3 -4.17813 7.54551 9.51439
125 2 1.44049 8.21323 16.3224
118 2 0.311491 7.46373 11.7095
210 2 -6.11915 9.90767 15.712
101 4 2.55761 6.7696 12.4076
226 2 -0.316247 10.6582 10.0758
170 2 -2.06683 9.45337 9.39787
77 4 -5.60247 12.4281 8.82244
126 2 0.060748 6.71973 16.422
122 2 2.56379 6.60136 10.4411
277 2 -0.1777 11.4087 11.5774
208 4 -5.99429 10.1773 17.422
288 2 -7.76597 12.9736 16.5743
304 2 -8.45493 12.6167 14.7327
177 1 -3.02659 10.1349 8.78592
235 2 -0.349274 11.47 16.1243
2 4 11.2839 6.0917 4.07044
117 2 6.08978 4.81971 8.19786
5 4 10.508 0.836445 1.52225
61 3 7.42722 6.06735 4.76291
7 4 11.8865 1.95113 5.47934
8 4 9.88718 3.57878 2.72162
17 2 9.0484 0.446063 0.847629
10 4 9.37482 5.5737 0.313057
11 4 10.0883 3.63271 7.1605
12 4 8.74412 6.15904 5.79959
62 3 9.11375 4.60496 6.27063
18 2 10.6102 1.49276 4.40177
19 2 9.16831 2.26278 7.78419
29 2 8.31119 2.66085 4.30865
30 2 7.4389 3.26943 2.72061
31 2 7.92831 4.49876 4.11809
116 2 5.88843 2.94172 8.18013
115 2 5.13218 3.98625 6.65564
44 1 8.1966 3.47698 3.54644
215 4 6.77918 2.30415 0.350417
128 1 5.4156 3.91066 7.82919
52 3 11.4555 1.26722 0.352985
53 3 13.1765 2.32392 4.55145
54 3 11.9181 0.655362 6.26623
55 3 10.395 1.68096 2.83653
56 3 10.7741 4.5457 3.49096
57 3 6.03055 5.09672 2.60724
58 3 9.63588 3.87548 1.12828
59 3 11.4164 3.04791 6.39928
230 2 8.47538 0.17413 4.45515
35 2 11.4793 4.90599 8.47345
28 2 13.1821 2.25059 8.1617
216 2 8.25212 3.18268 0.448331
310 3 7.24155 1.00017 1.12589
33 2 4.08925 6.04266 4.167
293 1 6.56869 1.03465 8.59967
43 1 13.5302 1.3184 8.73639
295 2 10.6645 1.0706 8.70947
46 1 10.4597 4.33566 8.91867
303 2 12.9083 1.40288 15.0596
37 2 9.64363 5.01052 9.27636
308 1 10.3922 0.516301 13.0556
91 4 10.5164 2.03762 16.6578
92 2 9.52335 2.73189 15.3918
291 2 7.24011 2.04892 8.90768
275 2 11.4012 0.833092 15.8636
98 4 2.60627 6.3651 16.7882
102 4 5.38305 5.7553 15.6691
141 3 4.05906 6.53402 16.1486
107 2 5.73232 3.20222 10.5121
109 2 3.99492 5.87803 9.75662
255 1 7.11824 4.43177 11.1852
307 2 10.4708 0.751935 14.2132
297 2 9.43097 2.16712 9.45045
36 2 10.7202 3.42883 9.58333
139 3 4.89546 4.46527 14.8323
140 3 6.38694 5.53838 16.8055
186 4 9.66448 6.14287 15.4243
187 4 8.60322 3.55756 14.1013
188 2 6.93986 3.17037 14.4076
189 2 9.66616 2.29276 13.539
190 2 8.48678 3.57169 12.3254
191 3 8.77614 6.52914 17.029
192 3 9.07521 4.9539 14.5969
218 2 5.4169 2.35126 15.635
306 2 10.2097 1.37863 12.2716
298 1 9.67773 1.07427 9.27243
93 2 11.7226 3.11595 16.9553
106 2 8.50745 0.530811 12.5663
243 2 12.2195 1.76531 11.487
302 2 13.0306 1.17114 9.73844
240 4 12.3825 0.402657 13.0425
252 2 7.39686 6.01025 13.2614
247 4 7.69816 6.35075 11.4295
249 2 7.5592 3.41094 10.9069
250 2 6.58498 4.93204 10.1414
251 2 6.31893 4.26624 12.0175
162 2 11.2862 5.08286 10.5976
257 3 9.20295 6.54079 11.1249
296 2 9.70933 0.429288 10.3354
13 4 8.15659 8.03283 1.57505
14 4 7.34061 8.04464 7.66245
15 4 6.84571 10.4934 5.79258
285 2 7.27865 12.1034 2.3869
60 3 10.0517 6.68916 4.96769
45 1 4.70168 7.0331 4.24076
34 2 4.11033 7.97228 3.71378
38 2 5.17054 9.95357 4.06446
39 2 4.82272 11.5957 5.06764
40 2 4.46166 9.83657 5.86204
278 2 3.74 12.0368 2.05123
47 1 5.02504 10.4762 5.06045
63 3 6.73989 7.71142 2.30061
64 3 8.91938 6.59088 1.46262
65 3 9.01052 9.20741 2.36786
201 4 8.90924 10.6219 3.20153
67 3 8.32332 6.93579 7.22727
68 3 7.92515 10.5708 4.48996
69 3 7.02742 9.19419 6.68774
70 3 6.81161 11.8778 6.82216
172 2 2.99814 9.38269 3.90766
173 2 2.82796 10.5955 2.50079
174 2 4.21933 9.29903 2.28029
178 1 3.21175 9.55627 2.81029
21 2 5.92068 7.39016 8.14904
270 3 4.64218 11.8214 8.56541
222 4 1.59827 11.6271 5.73383
223 2 3.20504 10.937 5.35302
9 4 6.30925 6.50765 3.33219
233 3 1.27523 12.1946 7.24952
267 2 3.62142 9.39393 8.27077
32 2 5.08557 7.29975 5.2701
6 4 5.65716 12.6382 7.65736
205 2 8.40224 11.8477 0.914521
207 1 8.30172 12.1294 2.00191
213 2 0.6916 12.0115 2.94025
221 4 0.95931 12.7446 8.71236
231 1 0.753264 10.9276 9.87486
112 2 3.69736 8.35301 12.4445
265 4 4.14814 10.5808 9.34308
121 2 4.13942 8.10378 10.1425
284 1 9.42596 7.75362 14.4293
130 1 3.94264 7.39615 10.9865
20 2 7.86423 8.54684 9.1785
246 1 5.8804 12.9802 14.8782
227 2 1.33252 11.3242 10.7734
248 2 6.81435 7.73056 10.8923
66 3 6.1753 9.27747 17.4101
254 2 7.33474 8.35407 12.7499
256 1 6.60112 7.53073 12.892
258 4 5.72198 9.66053 15.8682
259 2 6.49427 11.1029 15.3001
260 2 6.24086 8.54427 14.5193
261 2 3.80347 10.8988 15.2835
262 2 3.43989 9.71335 16.8947
113 2 6.40441 6.81502 14.6363
264 1 3.88948 9.83363 15.7894
282 2 8.96011 7.41693 13.4359
266 4 6.11508 10.4312 11.6463
281 2 8.72203 8.21795 15.2476
269 2 5.54247 9.17375 12.6075
271 3 7.59724 10.042 11.258
272 3 5.21845 10.0565 10.3455
273 3 5.61167 11.7961 12.3407
244 2 5.26884 12.3298 15.5305
263 2 3.67761 8.99098 15.0417
268 2 2.69915 10.9653 10.0702
96 4 -0.337533 12.7434 12.6921
253 2 5.59681 7.50075 12.1255
305 2 2.8856 12.1607 12.7492
299 2 0.611403 12.76 14.8087
123 2 4.82599 6.61222 11.0487
127 1 -0.547234 12.6412 14.5731
225 2 1.26297 10.1127 9.31649
209 2 7.77306 9.56133 17.2626
ITEM: TIMESTEP
100
ITEM: NUMBER OF ATOMS
310
ITEM: BOX BOUNDS xy xz yz pp pp pp
-9.0288000000000004e+00 1.5411400000000000e+01 -7.2027000000000001e+00
0.0000000000000000e+00 1.3070748300000000e+01 -1.8261000000000001e+00
0.0000000000000000e+00 1.7503399999999999e+01 3.2964830000000056e-01
ITEM: ATOMS id type x y z
1 4 3.32658 0.14803 0.4387
3 4 3.72973 2.0229 3.24258
50 3 5.61829 3.23601 0.564148
195 2 -2.34042 6.0918 0.825714
23 2 5.09107 1.74876 4.99873
286 2 0.972269 0.260274 2.14882
25 2 1.5308 1.2561 4.26117
26 2 2.1704 3.09875 4.82369
27 2 2.96395 1.52626 5.56982
41 1 5.25554 1.09159 4.04422
42 1 2.39027 1.96966 4.69996
48 3 3.32184 0.929189 2.16287
49 3 3.85244 3.63953 2.7692
51 3 4.05461 5.79971 0.970105
71 4 -1.14763 2.52585 3.4787
72 2 -0.497747 1.02719 2.83277
73 2 -0.440227 5.13082 2.3236
74 2 0.358942 3.58032 4.01037
75 2 -1.67333 4.79417 3.70518
76 1 -0.870221 4.36196 3.00488
110 2 3.01109 5.64192 7.42425
4 4 4.95222 4.28291 1.75168
292 2 6.26306 1.10151 7.68597
150 4 -0.227346 4.93979 8.06873
159 2 0.229301 5.40102 4.20911
163 2 1.63224 4.03896 7.04898
164 2 0.27693 3.12818 6.072
165 2 0.868041 2.54055 7.79698
175 1 0.66594 3.42463 7.14462
179 3 -2.7678 5.88339 5.04177
180 3 -1.00999 5.79 7.10006
287 2 1.39801 1.61486 0.301313
24 2 6.28753 1.15844 3.69825
274 2 -1.78135 3.2541 1.89198
99 4 3.86553 4.59846 8.46396
280 2 2.45706 0.24219 6.3544
156 2 -0.732088 3.25277 8.46648
301 2 -0.715078 1.28019 8.71358
94 4 0.218837 2.59658 12.4024
95 4 2.22189 2.29337 10.1016
97 4 4.8324 2.33304 11.4931
135 3 5.82891 1.26851 12.1735
103 2 -0.70534 1.06805 11.9699
104 2 -0.730535 4.00388 12.9678
105 2 0.78662 2.39779 14.012
108 2 1.5459 5.31497 15.8738
111 2 2.6674 3.21567 14.6469
241 2 -1.8274 2.93641 11.275
138 3 3.03725 5.47421 13.1891
132 3 1.12155 1.18113 9.0043
133 3 1.21084 3.02668 11.2828
134 3 3.5888 1.44727 10.7801
289 2 0.735792 1.72631 16.1997
136 3 2.94377 3.40915 9.05754
142 4 -2.51955 5.9098 15.7841
290 1 0.0627332 1.21042 17.1018
144 2 -1.99509 4.13657 15.4837
137 3 4.33069 3.34647 12.5845
146 2 -1.95601 5.10037 13.3082
147 2 -0.336478 5.14334 14.2824
148 1 -1.44602 5.40642 14.2619
149 3 -4.02389 6.09085 15.5592
294 2 5.65543 0.701205 9.43991
120 2 -0.116462 6.52246 13.2847
16 2 2.89932 1.04333 17.0034
176 1 0.570797 5.82151 9.49214
217 2 4.73481 0.419335 16.3774
245 1 -2.06333 2.27087 12.1392
219 2 3.60407 1.73224 15.6944
220 1 4.60305 1.52821 16.1971
276 2 2.33372 0.701491 13.0947
168 2 -0.373846 5.6646 10.1947
162 2 -3.85379 5.08409 10.5018
167 2 1.52327 5.16779 9.75866
242 2 -2.22142 2.85944 13.0809
100 4 3.80264 4.15687 13.7995
143 2 -2.02567 6.37282 17.4343
288 2 -0.697678 0.462101 16.7103
114 2 5.90646 0.35621 15.1061
83 2 -4.6659 11.1153 6.71127
87 1 -5.13596 12.1196 6.96934
161 2 3.10139 7.0268 1.31292
153 4 -3.65027 8.40321 8.29784
154 4 0.555902 7.06937 4.57313
155 4 2.12439 8.22196 2.03138
158 2 -4.82705 9.65851 8.0024
152 4 -1.92858 6.78749 6.01595
309 3 -3.96171 11.363 0.137418
279 2 -6.38493 12.0771 6.83528
169 2 -2.91238 10.8061 7.76514
182 3 -2.936 7.88046 7.02861
183 3 -0.696781 7.66718 5.17591
184 3 1.24459 7.68307 3.28235
185 3 1.40427 9.19587 0.860259
193 4 -2.86061 7.68527 1.74261
194 2 -1.13437 8.34138 2.51924
197 2 -0.659964 7.73387 0.410465
198 1 -0.975828 7.11162 1.36252
199 3 -3.61587 7.08522 2.96977
200 3 -3.42621 8.72483 0.669001
202 2 -4.37194 12.1227 3.24941
203 2 -4.25286 10.2485 3.76303
204 2 -4.87403 11.5242 5.06945
80 2 -3.74814 12.5505 8.25787
206 1 -4.78433 11.2372 3.88463
211 4 -0.278773 12.3507 1.73439
212 2 -1.77462 12.5536 2.4924
224 2 0.724236 10.2466 5.24377
214 3 -0.390253 11.1841 0.647218
228 2 -0.539931 12.3141 5.65087
229 2 -0.636754 11.6218 3.88568
160 2 1.71672 6.94618 5.71235
232 1 0.0963207 11.8902 4.81481
207 1 -6.93448 12.1229 1.93723
22 2 -2.16396 12.7195 4.234
196 2 -0.176555 6.46914 1.71941
177 1 -3.06502 10.2054 8.72154
234 4 -1.31452 10.4355 17.4086
78 4 -6.16279 10.3512 11.1084
79 4 -4.86806 11.7976 13.4759
300 2 -1.05006 11.1929 14.1015
238 2 -3.20614 9.25831 16.8843
82 2 -5.48326 8.78821 10.8313
84 2 -4.30714 9.87735 15.0505
85 2 -3.95618 11.2442 16.2441
86 2 -3.15089 11.552 14.0499
88 1 -4.42463 10.9696 15.2795
89 3 -5.79467 11.2556 9.76653
90 3 -5.35497 10.923 12.3341
119 2 0.929541 8.16729 13.155
151 4 -4.4883 6.63173 10.7435
124 2 0.901838 7.14114 14.6742
145 2 -1.64667 7.1132 14.6025
236 2 -1.66902 8.27325 16.2097
129 1 0.750966 7.15557 12.6374
131 1 1.02401 7.17103 15.9506
283 2 -4.97439 8.46964 14.5529
157 2 -3.39715 6.80568 11.9746
239 1 -2.21334 9.27606 16.2146
81 2 -6.02902 11.67 15.0061
171 2 -3.7452 10.615 9.4263
237 2 -2.28111 9.96573 15.2462
181 3 -4.15216 7.55183 9.5304
166 2 0.732434 6.94074 9.21118
118 2 0.490936 7.17585 11.4964
210 2 -6.00618 9.88844 15.5745
101 4 2.56366 6.74775 12.3864
226 2 -0.410965 10.6626 9.92498
170 2 -2.03747 9.72723 9.18752
77 4 -5.45605 12.4674 8.88112
126 2 0.107509 7.02833 16.5399
122 2 2.77771 6.64998 10.293
277 2 -0.484931 11.6259 11.4014
208 4 -5.9754 10.1675 17.291
235 2 -0.307039 11.1126 16.1105
304 2 -8.43458 12.685 14.7611
2 4 11.2483 6.05489 4.04797
117 2 6.19682 4.73965 8.31401
5 4 10.5758 0.792381 1.51291
61 3 7.4034 6.14396 4.66306
7 4 11.8844 2.05786 5.54064
8 4 9.81089 3.53988 2.61569
17 2 9.06117 0.696114 0.825545
10 4 9.33801 5.60849 0.29925
11 4 10.0748 3.72156 7.20981
12 4 8.74439 6.13128 5.80959
62 3 9.08434 4.69773 6.47168
18 2 10.5761 1.83677 4.3557
19 2 9.24422 2.32313 7.86267
29 2 8.3121 2.61389 4.28219
30 2 7.41006 3.00827 2.77379
31 2 7.94988 4.39781 3.98444
116 2 5.82403 2.83203 8.28355
115 2 5.24542 3.9394 6.76514
44 1 8.18695 3.40593 3.50736
215 4 6.91792 2.28087 0.203107
128 1 5.48375 3.91522 7.93477
52 3 11.6297 1.0616 0.402209
53 3 13.262 2.34255 4.73362
54 3 12.0129 0.677968 6.33695
55 3 10.5394 1.66783 2.7753
56 3 10.7706 4.55753 3.33126
57 3 6.0514 5.00057 2.65068
58 3 9.5268 3.9084 1.1517
59 3 11.4623 3.29645 6.55149
230 2 8.62658 0.226672 4.35391
35 2 11.3863 4.91882 8.66922
28 2 13.1306 2.28427 8.21215
216 2 8.35338 3.23177 0.208741
310 3 7.1706 1.10392 1.24623
33 2 4.08581 5.8532 4.05357
9 4 6.37714 6.41112 3.41961
43 1 13.5225 1.32503 8.63971
295 2 10.5803 1.15758 8.70251
46 1 10.6165 4.18576 8.99774
303 2 12.9389 1.49521 14.909
37 2 9.79435 4.73151 9.62345
308 1 10.3254 0.566451 12.8397
91 4 10.6259 1.98482 16.6949
92 2 9.72875 2.68119 15.4299
291 2 7.08793 1.93858 9.1303
275 2 11.3917 0.76026 15.7504
141 3 4.04849 6.6167 16.1709
102 4 5.3582 5.85181 15.6926
123 2 4.74287 6.43111 11.05
107 2 5.79654 3.20691 10.3349
109 2 4.37251 5.63632 9.85309
255 1 7.29827 4.45891 10.9535
307 2 10.3532 0.632209 14.0183
297 2 9.17687 2.11391 9.73989
36 2 10.9796 3.18685 9.47021
139 3 4.95435 4.49011 14.8427
140 3 6.34777 5.50221 16.8253
186 4 9.60782 6.25103 15.4104
187 4 8.74197 3.50605 14.0244
188 2 7.32031 2.8308 14.684
189 2 9.94396 2.34282 13.6772
190 2 8.40986 3.57501 12.3492
191 3 8.76938 6.29898 16.8879
192 3 9.07575 4.96989 14.5288
218 2 5.59954 2.04223 15.5915
306 2 9.92671 1.47012 12.2561
298 1 9.6817 1.16698 9.40966
93 2 11.8612 2.98249 17.0433
106 2 8.39158 0.653607 12.5743
243 2 11.8484 1.69171 11.5955
302 2 13.0364 1.06831 9.69952
240 4 12.3628 0.480396 13.0107
252 2 7.48621 6.10751 13.2943
247 4 7.79024 6.28794 11.466
249 2 7.98289 3.67759 10.5354
250 2 6.70223 4.91932 10.0548
251 2 6.58314 4.16252 11.8098
293 1 6.52224 0.975186 8.76697
257 3 9.41507 6.51325 11.1411
296 2 9.87955 0.49333 10.2758
98 4 2.53785 6.36901 16.8272
13 4 8.18157 8.07587 1.59119
14 4 7.4146 8.05047 7.63887
15 4 6.98878 10.4926 5.81159
32 2 5.03192 6.84593 5.36633
60 3 10.023 6.63818 4.92039
45 1 4.69793 6.81348 4.28448
34 2 4.2726 7.7996 3.7902
38 2 5.30211 10.1286 3.87874
39 2 4.99834 11.6057 5.04676
40 2 4.59875 9.78968 5.72008
278 2 3.80381 11.9955 2.03533
47 1 5.18156 10.4729 4.96097
63 3 6.74607 7.86444 2.37123
64 3 8.92811 6.65163 1.53351
65 3 9.07257 9.14832 2.38767
201 4 8.93366 10.6953 3.18753
67 3 8.58433 7.2202 7.00163
68 3 7.94243 10.6172 4.43557
69 3 7.04277 9.17976 6.71584
70 3 6.93317 11.6764 6.79317
172 2 3.1647 9.37736 3.99568
173 2 2.86518 10.3517 2.32094
174 2 4.46631 9.37028 2.74263
178 1 3.35521 9.39385 2.84048
21 2 6.02339 7.13989 7.96322
270 3 4.67817 11.7558 8.5843
222 4 1.75659 11.7502 5.74932
223 2 3.34025 11.007 5.47352
6 4 5.54272 12.6583 7.66669
233 3 1.43364 12.2576 7.28029
267 2 3.46082 9.42947 8.53476
213 2 0.815107 11.8357 2.96241
285 2 7.32247 12.2653 1.96639
205 2 8.69875 11.6314 0.90643
231 1 0.649792 11.0272 9.86861
112 2 3.72791 8.10296 12.5673
265 4 4.10844 10.6359 9.45835
121 2 4.49953 8.0801 10.307
284 1 9.50304 7.8094 14.3098
130 1 4.07091 7.24982 10.9311
20 2 7.74747 8.56561 9.2097
127 1 -0.586499 12.3039 14.457
227 2 1.1016 11.029 10.8989
248 2 6.75417 7.73761 10.9829
66 3 6.24847 9.21326 17.361
254 2 7.37978 8.45839 12.5085
256 1 6.63252 7.56833 12.8486
258 4 5.79557 9.60723 15.776
259 2 6.3865 11.1441 15.2008
260 2 6.44561 8.56328 14.4433
261 2 3.78552 10.7166 15.2909
262 2 3.59721 9.69203 16.7942
113 2 6.25575 6.8219 14.6052
264 1 3.99658 9.75649 15.7997
282 2 9.54929 7.45339 13.2116
266 4 6.17076 10.4465 11.6129
281 2 8.49596 8.20039 14.6534
269 2 5.84938 9.36022 12.9317
271 3 7.72485 10.3482 11.3516
272 3 5.26001 10.0254 10.3848
273 3 5.6715 11.8485 12.3353
244 2 5.50267 12.5051 15.8999
263 2 3.75284 8.75635 15.1391
268 2 2.61863 11.0835 10.2248
96 4 -0.419493 12.8303 12.6665
253 2 5.61657 7.38296 12.1198
305 2 2.58945 12.3795 12.4386
299 2 0.533945 12.3017 14.7698
225 2 1.27545 10.4171 9.119
221 4 0.969897 12.7105 8.76813
246 1 5.87032 13.0062 14.9446
125 2 1.51541 8.32271 16.3064
209 2 7.72511 9.90759 17.3992
ITEM: TIMESTEP
200
ITEM: NUMBER OF ATOMS
310
ITEM: BOX BOUNDS xy xz yz pp pp pp
-9.0288000000000004e+00 1.5411400000000000e+01 -7.2027000000000001e+00
0.0000000000000000e+00 1.3061996599999999e+01 -1.8261000000000001e+00
0.0000000000000000e+00 1.7503399999999999e+01 3.2089659999999931e-01
ITEM: ATOMS id type x y z
1 4 3.16593 0.216725 0.502391
3 4 3.66186 1.89569 3.37006
50 3 5.59801 3.22175 0.608759
195 2 -2.05958 5.98074 0.720017
23 2 5.38831 1.82106 5.20153
22 2 5.10511 0.167682 4.44868
25 2 1.48291 1.69361 4.16031
26 2 2.30967 3.1942 4.95132
27 2 2.6922 1.41377 5.66498
41 1 5.33564 1.24443 4.21865
42 1 2.39636 2.08216 4.75103
48 3 3.21901 0.916818 2.01824
49 3 4.04294 3.38107 2.70256
51 3 3.92283 5.64005 0.804332
71 4 -1.04992 2.53299 3.47099
115 2 4.78997 3.65208 6.56959
73 2 -0.230826 5.01594 2.23511
74 2 0.39557 3.43148 3.97439
75 2 -1.60712 4.87434 3.58581
76 1 -0.860117 4.33616 2.88329
110 2 3.10251 5.73465 7.38637
4 4 4.96631 4.21877 1.67766
292 2 6.39206 0.910086 7.47299
150 4 -0.246274 5.06232 8.05624
159 2 0.173455 5.35842 4.18837
163 2 1.58649 4.37453 6.98911
164 2 0.344067 3.12155 6.13027
165 2 0.883986 2.66158 7.82255
175 1 0.693144 3.49026 7.07382
179 3 -2.69852 5.74439 4.80369
180 3 -1.08067 6.00597 7.04177
287 2 1.89042 2.28776 0.0961886
24 2 6.27054 1.45767 3.61693
274 2 -1.80548 3.37182 1.88062
99 4 3.91489 4.65485 8.42114
280 2 1.84346 0.455571 6.19206
156 2 -0.958842 3.43183 7.96261
72 2 -0.316991 0.976585 2.86456
94 4 0.105023 2.58861 12.4119
95 4 2.14068 2.35225 10.0702
97 4 4.70969 2.22276 11.6509
135 3 5.73978 0.971374 12.194
103 2 -0.916794 1.08598 11.8934
104 2 -0.637224 3.9947 13.0376
105 2 1.03847 1.97767 13.6986
108 2 1.36634 5.56645 15.6057
111 2 2.56583 3.11355 14.6739
241 2 -1.83748 3.29608 11.3708
138 3 2.91379 5.3043 13.3562
132 3 1.16018 1.15278 9.02466
133 3 1.10557 2.94434 11.155
134 3 3.49862 1.58206 10.8953
289 2 0.613408 1.61914 16.1167
136 3 2.87064 3.55358 9.15564
142 4 -2.56371 5.98284 15.7393
290 1 0.0638924 1.56912 17.1262
144 2 -1.93641 4.22887 15.5496
137 3 4.24516 3.15752 12.7738
146 2 -1.98723 5.1135 13.3083
147 2 -0.307837 5.22783 14.1935
148 1 -1.40505 5.35543 14.2768
149 3 -4.13729 6.10388 15.5747
294 2 5.73561 0.721308 9.18723
120 2 -0.109129 6.45925 13.2858
16 2 2.83911 0.889083 17.1964
176 1 0.538604 5.79202 9.52772
162 2 -3.67081 5.08457 10.459
245 1 -2.05997 2.49325 12.0956
219 2 3.44063 1.53669 15.6384
220 1 4.40817 1.46379 16.1485
276 2 2.40542 0.750306 13.2807
168 2 -0.465465 5.61383 10.2088
288 2 -0.891526 1.00727 17.0781
167 2 1.3842 5.075 9.78347
242 2 -2.08374 2.90002 13.207
100 4 3.70309 4.07595 13.9196
143 2 -1.84204 6.28933 17.3634
301 2 -0.685642 1.26996 8.9724
303 2 -2.03141 1.70859 14.5951
98 4 2.46438 6.2877 16.8063
217 2 4.69661 0.394014 16.3726
114 2 5.6697 0.344052 15.0239
83 2 -4.09222 11.7891 6.46702
87 1 -5.05493 12.2313 6.82776
161 2 2.98432 6.99091 1.2659
153 4 -3.59811 8.38282 8.25779
154 4 0.447215 7.00764 4.60297
155 4 2.14635 8.29281 2.07207
158 2 -4.66204 9.78008 8.01824
152 4 -1.89468 6.87506 6.06855
309 3 -4.24442 11.4285 0.316941
279 2 -5.93758 11.445 6.71472
169 2 -2.91879 10.8465 7.75144
182 3 -3.04807 7.81879 6.8919
183 3 -0.804647 7.826 4.95033
184 3 1.27183 7.66504 3.3274
185 3 1.44612 9.21286 0.956374
193 4 -2.77575 7.7724 1.63591
194 2 -1.30659 8.39721 2.4713
197 2 -0.71698 7.73707 0.338482
198 1 -1.02754 6.98541 1.23013
199 3 -3.64731 7.13767 2.74391
200 3 -3.36291 8.85261 0.617469
202 2 -4.46939 12.1157 2.95814
203 2 -4.17891 10.2608 3.61279
204 2 -4.89925 11.6315 4.85665
80 2 -3.86564 12.6327 8.30221
206 1 -4.76456 11.2549 3.75782
211 4 -0.307701 12.4918 1.85269
212 2 -1.73906 12.6669 2.72561
224 2 1.0213 10.2158 5.3499
214 3 -0.383485 11.3474 0.813658
228 2 -0.40263 12.0427 5.87466
229 2 -0.459355 11.3026 4.04728
160 2 1.49737 6.74897 5.89713
232 1 0.220707 11.6892 4.95527
177 1 -2.86766 10.1163 8.63601
170 2 -1.71446 9.5728 8.68892
77 4 -5.49633 12.4943 8.72625
286 2 -6.3225 12.7709 2.15516
196 2 -0.147967 6.43596 1.67323
234 4 -1.31038 10.5884 17.4789
78 4 -6.08413 10.5334 11.0816
79 4 -4.91778 11.8057 13.6992
300 2 -1.16257 11.2052 14.3334
238 2 -3.27785 9.28433 16.6726
82 2 -5.60526 8.93481 10.8824
84 2 -4.32753 9.90049 15.2837
85 2 -4.05455 11.3348 16.515
86 2 -3.2682 11.6841 14.3925
88 1 -4.5941 10.9848 15.5481
89 3 -5.64511 11.3724 9.79717
90 3 -5.31052 10.8435 12.4733
119 2 1.02935 8.24144 13.1008
151 4 -4.3642 6.62993 10.7118
124 2 0.954991 7.36597 14.6879
145 2 -1.70238 7.07252 14.4971
236 2 -1.57977 8.44134 16.1635
129 1 0.802078 7.15032 12.6634
131 1 1.15298 7.37307 15.9269
283 2 -5.38722 8.51628 14.5815
157 2 -3.50894 6.88566 12.0682
239 1 -2.22643 9.41975 16.3057
81 2 -6.1836 11.6637 15.1367
171 2 -3.24062 10.4927 9.66623
237 2 -2.13486 10.0184 15.3118
181 3 -3.93977 7.52347 9.51443
166 2 0.937476 6.91098 9.35228
118 2 0.589676 7.21764 11.5588
210 2 -6.13718 9.84556 15.5323
101 4 2.58599 6.7059 12.5269
226 2 -0.34884 10.9865 9.947
225 2 1.07407 10.1993 9.01132
127 1 -0.716495 12.3098 14.4962
126 2 0.0958894 7.28598 16.4916
122 2 2.8812 6.60021 10.4462
277 2 -0.113024 11.2792 11.6481
208 4 -5.99967 10.1539 17.2852
235 2 -0.370184 11.3536 16.2118
304 2 -8.35244 12.7479 14.4103
2 4 11.3354 6.03785 4.08808
117 2 6.08791 4.65558 7.74019
5 4 10.5845 0.871799 1.44821
61 3 7.47764 5.98072 4.63478
7 4 11.9968 2.04362 5.54052
8 4 9.94861 3.55521 2.62372
17 2 9.08373 0.622256 0.815681
10 4 9.36594 5.56271 0.26705
11 4 10.1326 3.75111 7.33083
12 4 8.88128 6.12065 5.88253
62 3 9.11743 4.73518 6.69111
18 2 10.9436 1.47624 4.33494
19 2 9.34964 2.39457 8.17552
29 2 8.39691 2.61414 4.24964
30 2 7.57516 3.151 2.61458
31 2 8.00998 4.44758 3.91078
116 2 5.80969 2.73215 8.05376
33 2 4.11483 5.95566 4.16757
44 1 8.29963 3.43139 3.45997
215 4 6.83511 2.24675 0.170707
128 1 5.27461 3.77357 7.67628
52 3 11.6611 1.05587 0.259531
53 3 13.3237 2.31487 4.70279
54 3 12.1394 0.781593 6.42751
55 3 10.6209 1.69729 2.80267
56 3 10.6984 4.72427 3.30573
57 3 6.06842 5.09705 2.36135
58 3 9.6685 3.85163 0.910037
59 3 11.3095 3.23755 6.41031
230 2 8.52755 0.228644 4.51464
293 1 6.59996 0.944018 8.58282
28 2 13.0032 2.21928 8.56415
216 2 8.19107 3.25976 0.272367
310 3 7.29653 1.17835 1.25296
9 4 6.38903 6.41222 3.27511
35 2 11.6073 4.74016 8.74377
46 1 10.6232 4.08436 9.18091
43 1 13.4814 1.26533 8.92058
37 2 9.86591 4.72853 9.7254
308 1 10.3145 0.598886 12.8576
91 4 10.598 2.13665 16.6869
92 2 9.62866 2.77816 15.3458
291 2 7.15566 1.91718 8.95612
275 2 11.8048 1.20888 15.833
141 3 3.90195 6.47396 16.2313
102 4 5.29706 5.75684 15.7879
123 2 5.00368 6.46765 11.0331
107 2 5.67546 3.2632 10.6813
109 2 4.23825 6.11754 9.39855
255 1 7.34182 4.26835 10.9511
307 2 10.3781 0.72057 14.0388
297 2 9.35213 2.03615 10.0945
36 2 11.0319 3.24281 9.84433
139 3 4.92924 4.37872 14.975
140 3 6.16849 5.57043 17.0639
186 4 9.60536 6.28478 15.3827
187 4 8.64813 3.44422 14.0184
188 2 7.14799 2.81094 14.4844
189 2 10.0201 2.40532 13.546
190 2 8.37711 3.21456 12.2644
191 3 8.68149 6.35673 16.6887
192 3 9.00751 4.8962 14.3299
218 2 5.27245 2.03055 15.4918
306 2 9.99594 1.48294 12.1977
298 1 9.66864 1.08148 9.62523
93 2 11.229 3.54278 17.3739
106 2 8.3655 0.687115 12.5503
243 2 12.0449 1.98153 11.7352
302 2 13.1035 0.843206 9.88348
240 4 12.3212 0.500146 13.002
252 2 7.42738 6.05242 13.3081
247 4 7.84388 6.16216 11.3784
249 2 8.02379 3.34542 10.8629
250 2 6.80766 4.75369 9.95432
251 2 6.71746 4.28618 11.9671
295 2 10.438 1.27644 8.88354
257 3 9.48598 6.4415 11.0286
296 2 9.86 0.266603 10.3861
246 1 13.3068 0.428746 14.7854
13 4 8.24437 8.0684 1.5202
14 4 7.44158 8.08382 7.6877
15 4 6.91881 10.5192 5.85435
32 2 5.15432 7.18365 5.23874
60 3 10.1656 6.65598 5.03278
45 1 4.76673 6.92237 4.21528
34 2 4.27571 7.84752 3.67897
38 2 5.77142 10.1966 3.80775
39 2 4.99316 11.7508 4.71116
40 2 4.52772 9.91825 5.23202
278 2 3.51354 11.9613 2.01047
47 1 5.30128 10.6167 4.76374
63 3 6.88494 7.72044 2.31472
64 3 8.99565 6.62537 1.32706
65 3 9.02433 9.21717 2.27324
201 4 8.88705 10.624 3.21038
67 3 8.57585 7.22212 7.07487
68 3 8.12255 10.5559 4.5994
69 3 6.93495 9.21333 6.71168
70 3 6.90226 11.8817 6.83689
172 2 3.23277 9.4491 3.80636
173 2 3.55646 10.6977 2.44134
174 2 4.38272 8.94632 2.32891
178 1 3.44031 9.50957 2.70464
21 2 6.12016 7.15695 8.2592
270 3 4.5452 11.6369 8.31487
222 4 1.94809 11.8135 5.86041
223 2 3.51787 11.178 5.50207
6 4 5.62546 12.7363 7.56182
233 3 1.55788 12.3089 7.37959
267 2 3.72456 9.24617 8.43336
213 2 0.804706 11.9703 3.11413
285 2 7.13317 12.3923 2.19423
205 2 8.18597 11.4833 0.975457
207 1 8.1301 12.0057 1.97677
231 1 0.747544 10.8504 9.92328
112 2 3.93255 7.95588 12.6581
265 4 4.21112 10.5934 9.36299
121 2 4.43081 8.15985 10.4785
284 1 9.21597 7.9085 14.4352
130 1 4.13949 7.25019 11.0072
20 2 7.88225 8.63828 9.20174
209 2 7.70077 9.66329 17.2635
227 2 1.22026 10.5414 10.9018
248 2 7.02516 7.59932 10.9645
66 3 6.25591 9.17079 17.2246
254 2 7.34104 8.23948 12.4813
256 1 6.6576 7.5272 12.9631
258 4 5.63637 9.63575 15.6588
259 2 6.12837 11.2519 15.0003
260 2 6.54365 8.80923 14.3503
261 2 3.75602 10.8151 15.1066
262 2 3.37844 9.97059 16.8542
113 2 6.15122 6.80008 14.6269
264 1 3.88265 9.8114 15.7742
282 2 9.21518 7.38204 13.3759
266 4 6.22018 10.5783 11.5333
281 2 8.27901 8.35378 14.7647
269 2 6.06255 9.36848 12.7626
271 3 7.79547 10.6852 11.2341
272 3 5.40805 10.0078 10.3572
273 3 5.59408 11.9073 12.3269
244 2 5.99529 12.9729 15.8737
263 2 3.58791 8.78307 15.1506
268 2 2.70002 11.0006 10.0674
96 4 -0.313927 12.6756 12.6982
253 2 5.67139 7.42251 12.2666
305 2 2.6768 12.3459 12.5304
299 2 0.3972 12.4941 14.8814
125 2 1.71241 8.4465 16.2512
221 4 1.03083 12.6616 8.82131
ITEM: TIMESTEP
300
ITEM: NUMBER OF ATOMS
310
ITEM: BOX BOUNDS xy xz yz pp pp pp
-9.0288000000000004e+00 1.5411400000000000e+01 -7.2027000000000001e+00
0.0000000000000000e+00 1.3053244899999999e+01 -1.8261000000000001e+00
0.0000000000000000e+00 1.7503399999999999e+01 3.1214489999999984e-01
ITEM: ATOMS id type x y z
1 4 3.07091 0.385594 0.459747
3 4 3.78007 1.97967 3.3855
50 3 5.42308 3.28414 0.307092
195 2 -1.92132 5.90998 0.948633
23 2 5.31155 1.48159 5.35584
72 2 -0.187581 0.92113 3.22806
25 2 1.60559 1.69776 4.22337
26 2 2.46695 3.42578 4.66704
27 2 2.60589 1.82082 5.88437
41 1 5.2809 1.10164 4.28751
42 1 2.45609 2.26605 4.72544
48 3 3.13097 0.745 2.03245
49 3 4.12833 3.34695 2.68393
51 3 3.80578 5.47511 0.788846
71 4 -0.991921 2.45778 3.54544
156 2 -1.04314 3.56931 8.30693
73 2 -0.21984 5.10873 2.21525
74 2 0.523495 3.57719 3.9284
75 2 -1.47972 4.87591 3.57913
76 1 -0.688918 4.30949 2.93909
110 2 3.01326 5.83967 7.78663
4 4 4.90707 4.20146 1.62132
292 2 5.88842 0.992687 7.88313
150 4 -0.270389 5.14912 8.10214
159 2 0.244006 5.34271 4.27567
163 2 1.48712 4.16883 7.03355
164 2 0.0862438 3.16039 6.16442
165 2 0.713868 2.65208 7.78305
175 1 0.475702 3.52611 7.13715
179 3 -2.57531 5.69466 4.7098