ITEM: TIMESTEP
0
ITEM: NUMBER OF ATOMS
310
ITEM: BOX BOUNDS xy xz yz pp pp pp
-9.0288000000000004e+00 1.5411400000000000e+01 -7.2027000000000001e+00
0.0000000000000000e+00 1.3079499999999999e+01 -1.8261000000000001e+00
0.0000000000000000e+00 1.7503399999999999e+01 3.3839999999999998e-01
ITEM: ATOMS id type q x y z
26 2 0.125481 0.970152 2.70171 3.34333
72 2 -0.0122485 -0.0427779 3.36785 4.94687
83 2 0.110343 1.16934 0.569529 6.52553
74 2 0.10862 -1.09647 4.14008 1.69858
75 2 0.0339081 -2.03645 4.53411 3.18079
156 2 0.0275113 -1.21422 2.58355 7.56352
150 4 0.792097 -0.409194 4.11978 7.61046
159 2 0.00786127 0.49829 5.21428 5.33439
164 2 0.129355 0.915961 2.62745 6.53764
175 1 -0.623944 1.21325 3.77627 6.43247
179 3 -0.823435 -3.06303 5.69244 4.93898
180 3 -0.811738 -1.24422 5.26002 6.76741
195 2 0.171524 -2.19149 5.67139 1.17816
25 2 0.163991 0.746091 0.698819 2.86172
42 1 -0.666531 1.36169 1.62879 3.4481
71 4 0.725918 -1.57384 3.06881 4.03143
274 2 0.0326212 -1.1971 1.79451 2.86291
275 2 0.0034853 -0.538875 1.86816 1.21498
143 2 -0.0213724 -0.419114 5.10269 0.401821
301 2 0.14997 -0.0457516 1.16483 8.01937
76 1 -0.64519 -1.83869 3.21545 1.75247
35 2 0.189211 -3.7989 5.41405 8.44235
196 2 0.155977 -0.542915 6.17494 2.07855
152 4 1.35372 -2.06889 6.45771 6.06962
43 1 -0.666818 -0.980453 0.992891 8.72606
287 2 0.14599 0.889473 0.91225 0.126408
27 2 0.152932 1.64156 1.34838 4.54478
77 4 0.988845 2.28243 0.392063 8.32325
291 2 0.142571 5.62163 1.78978 8.40006
22 2 0.149051 4.06943 1.59623 5.07867
163 2 0.152177 1.92889 3.90532 5.5893
33 2 0.160968 4.03323 5.55921 4.48892
279 2 0.160113 3.11173 0.251162 5.59962
3 4 1.07679 3.07713 1.83733 2.78771
50 3 -0.814848 5.34683 3.34265 0.682391
41 1 -0.664494 4.3875 0.996038 4.19068
310 3 -0.824122 6.40485 1.0087 1.04954
48 3 -0.765953 3.29776 0.626328 1.55461
165 2 0.14602 1.78744 4.256 7.54847
4 4 1.42224 4.73229 4.29222 1.8968
23 2 0.151591 5.32412 1.4288 3.72297
49 3 -0.804559 3.38068 3.38149 2.43244
161 2 0.0219268 2.12861 6.3412 1.16556
104 2 0.00448923 -0.199957 1.35483 10.5255
105 2 -0.0484022 -0.0404079 1.87768 13.2722
142 4 0.693653 -2.82735 5.25726 16.2826
144 2 0.0196159 -2.12119 3.49155 15.8154
147 2 0.158576 -0.798597 4.57748 14.2722
149 3 -0.769098 -4.33226 5.68691 15.968
162 2 -0.0153069 -3.57368 5.70843 10.6049
166 2 0.13773 -0.78005 4.06559 9.8189
290 1 -0.655718 -0.21088 0.646972 17.0067
145 2 0.0495481 -1.69784 6.43842 15.3018
148 1 -0.621209 -1.80176 4.82239 14.767
289 2 0.108091 0.200641 1.23774 16.0716
28 2 0.134052 -1.40929 1.90581 9.2652
146 2 0.152783 -2.589 4.87068 13.9574
167 2 0.165321 -0.467041 5.92153 9.33551
176 1 -0.655334 -0.0341306 4.8476 9.36104
108 2 0.0832576 0.820493 5.41726 16.6142
122 2 0.171775 1.3758 6.31948 10.0084
168 2 0.206409 0.983415 4.83971 9.80682
94 4 0.644601 0.825836 1.86828 11.8101
133 3 -0.774599 1.5903 3.20226 11.5692
219 2 0.174571 3.10145 2.72 15.837
111 2 0.090585 2.79735 3.6812 12.5157
16 2 0.0135558 2.7562 0.845204 16.5691
220 1 -0.642126 4.07022 2.11154 15.9178
95 4 1.26718 2.9325 2.84869 10.1768
134 3 -0.80605 4.07538 1.79402 10.9416
136 3 -0.813643 3.54363 4.21704 9.55991
217 2 0.168958 4.00801 1.06743 15.4026
132 3 -0.779603 2.2058 2.01943 8.84719
103 2 0.077285 1.90001 0.577192 11.9636
86 2 0.180392 4.06527 0.272151 13.8247
286 2 0.167351 -6.72702 12.3237 1.08843
153 4 0.945649 -3.89522 8.44903 7.85443
182 3 -0.814901 -2.99138 7.40291 7.05319
193 4 1.10664 -2.73414 7.55585 2.33338
212 2 0.0400591 -2.29068 12.4142 2.83926
200 3 -0.830796 -3.13734 8.76933 1.48003
202 2 0.217237 -4.82196 11.7509 2.72279
203 2 0.189394 -4.51146 10.0866 3.5037
204 2 0.181789 -5.04142 11.583 4.60854
280 2 0.168569 -5.13986 11.499 6.24985
206 1 -0.671282 -5.08757 11.0398 3.55674
177 1 -0.671736 -3.16845 10.1076 7.61346
171 2 0.165706 -3.87191 10.962 7.19773
87 1 -0.656549 -4.89746 12.5519 6.40397
208 4 0.976778 -4.11645 9.4528 0.496423
199 3 -0.796373 -3.99639 6.70949 2.75014
169 2 0.174313 -2.29431 9.82091 6.84721
309 3 -0.813649 -3.88559 10.9858 0.216482
1 4 1.01729 -3.86365 12.6218 0.151481
24 2 0.152891 -2.84166 12.6166 4.30103
158 2 0.103584 -5.44789 8.62707 7.18791
80 2 0.0256857 -3.33602 12.6884 7.51808
170 2 0.161185 -2.75956 10.3458 8.65516
197 2 0.158753 -1.09363 7.07418 0.394248
184 3 -0.823102 1.10239 7.20593 3.55455
228 2 0.0486926 0.528075 11.383 4.5763
183 3 -0.7891 -0.904882 7.62257 5.10821
185 3 -0.806681 0.796588 8.65197 1.35798
214 3 -0.823585 -0.561761 11.093 1.21838
234 4 1.03995 -0.0193127 9.74497 0.57004
211 4 0.97671 -0.832962 12.4673 1.88548
194 2 0.080725 -1.89235 8.05053 3.69588
154 4 0.927627 0.472975 6.96116 4.95422
155 4 1.03844 1.75433 7.69867 2.19165
160 2 -0.0537413 1.41547 7.54293 6.24486
198 1 -0.67606 -1.37646 6.51857 1.3949
213 2 -0.0102981 0.287078 12.5332 3.17419
224 2 -0.0627415 1.56827 9.75558 6.55066
78 4 1.16774 -5.77705 11.0822 10.4556
79 4 0.67217 -4.61561 11.0501 13.4664
81 2 -0.0328458 -5.26762 9.5323 14.0624
82 2 0.0727565 -4.97445 9.6028 10.1196
276 2 0.0048758 -4.95836 12.1667 14.8816
88 1 -0.636222 -3.17321 12.0349 14.4182
89 3 -0.843959 -5.36925 11.9999 9.29012
90 3 -0.795957 -5.24641 11.5316 12.119
151 4 0.879106 -4.46719 7.10558 10.8852
157 2 -0.0474391 -3.97028 7.61608 12.4014
181 3 -0.759535 -4.16408 8.20296 9.77053
283 2 0.108977 -4.85668 8.06613 15.1141
210 2 -0.00564566 -6.11432 8.88383 16.5414
236 2 0.103181 -3.33239 8.91235 16.9163
288 2 0.125894 -7.73005 12.2813 16.696
302 2 0.210968 -7.93311 12.8311 9.40746
84 2 0.0278784 -2.71763 10.6377 13.4603
121 2 0.133566 0.851303 7.64259 11.4582
85 2 0.142611 -2.5892 12.1409 15.402
238 2 0.16483 -2.64821 10.4643 15.5328
237 2 0.146836 -1.55964 8.85288 15.702
126 2 0.147352 -0.531023 7.06995 17.0754
226 2 0.157239 -1.35759 12.5799 9.78278
131 1 -0.65947 0.529797 6.86379 16.7269
130 1 -0.62378 1.68952 7.2731 10.6337
277 2 0.00238236 -1.32916 11.628 13.9727
239 1 -0.646914 -2.27814 9.55899 16.232
120 2 0.160603 1.99274 7.54917 13.8352
235 2 0.0109259 -0.683396 10.5193 16.8418
231 1 -0.674019 -0.295831 12.131 9.83337
225 2 0.148867 -0.28559 11.009 9.51872
124 2 0.147916 0.615024 7.27033 15.6623
110 2 -0.029511 2.98992 6.75184 9.25769
123 2 0.0752255 2.06896 8.25192 9.90737
215 4 1.07834 6.43688 2.37855 0.157044
29 2 0.148525 7.98888 1.8768 4.10148
30 2 0.265483 7.33579 3.59677 3.57116
31 2 0.196622 8.71607 3.4966 4.79995
44 1 -0.691558 8.27647 2.971 3.85149
293 1 -0.663436 6.64701 2.07784 7.97287
57 3 -0.807416 5.94816 4.60376 3.1102
62 3 -0.841129 8.98055 5.02237 7.03342
128 1 -0.666964 5.18502 5.02633 7.52293
292 2 0.170252 6.99205 3.09769 8.2533
230 2 0.162875 8.6412 0.876006 4.92832
51 3 -0.845482 4.42721 5.75202 1.19348
115 2 0.2083 6.19317 5.1497 7.13035
221 4 0.873814 7.80077 0.501091 8.67926
61 3 -0.847665 7.17227 6.10011 5.19168
58 3 -0.773906 9.10249 4.03727 1.0723
116 2 0.0731748 4.23642 5.87386 6.89735
294 2 0.177385 6.66521 1.82973 6.89281
12 4 1.45496 8.62085 6.25527 5.98867
216 2 0.12285 7.9978 3.16658 0.431386
9 4 1.33582 6.23896 6.12056 3.90968
10 4 1.52745 8.90845 5.37793 0.0561776
117 2 0.193008 4.80435 4.01943 7.31467
53 3 -0.79068 12.744 2.47462 4.94658
56 3 -0.830813 10.6306 4.30031 3.48803
55 3 -0.817989 10.4362 1.77198 2.38559
91 4 0.664196 13.4005 1.63774 0.281062
2 4 1.53596 10.9575 5.78908 4.06247
5 4 0.895754 11.0542 0.433859 1.79727
8 4 1.26732 9.75529 3.21081 2.73793
7 4 1.32045 11.5987 1.8983 5.9443
11 4 1.08978 10.0424 3.9432 7.59257
54 3 -0.859302 12.2157 1.04555 7.04746
18 2 0.00479851 10.478 0.912906 5.1023
52 3 -0.770594 12.4541 0.673123 1.07833
59 3 -0.839431 10.7586 3.00896 6.57827
73 2 0.205839 12.5337 3.5309 2.01137
93 2 0.0454436 12.6334 3.28267 0.147831
100 4 1.18781 4.15898 4.62201 12.7728
102 4 1.26359 4.92665 5.83 15.3781
107 2 -0.0160343 6.46476 2.45938 9.87806
109 2 0.00277712 5.76591 5.96718 9.84682
114 2 0.0862768 6.83353 2.66078 14.4801
127 1 -0.601489 7.11614 1.14752 15.0622
137 3 -0.827658 5.38559 3.90014 12.0321
138 3 -0.782887 3.86542 6.21083 12.217
139 3 -0.818481 4.40834 4.71681 14.3791
140 3 -0.852997 6.08136 5.20417 16.3355
190 2 0.049259 6.87 4.15829 12.9775
135 3 -0.754508 6.24855 1.24593 12.4813
249 2 0.116233 7.71908 4.22764 10.7184
250 2 0.179753 8.30487 5.33803 9.32963
251 2 0.166918 6.64057 4.5645 9.16698
252 2 0.0774045 7.43462 6.09882 13.2519
255 1 -0.68073 7.41358 4.9986 9.93307
99 4 0.733931 4.21718 5.50338 9.06327
97 4 1.09495 5.55792 2.33298 11.3295
141 3 -0.817368 3.68926 6.58628 16.0087
247 4 0.761309 7.86241 6.40169 11.2265
218 2 0.17691 5.0813 2.70678 15.4248
187 4 0.623249 8.31494 3.73681 13.7638
299 2 0.107487 8.22105 0.749463 15.3132
98 4 1.03022 2.4506 6.59536 17.2288
300 2 0.131681 6.18497 0.561295 15.6053
191 3 -0.801499 8.54965 6.26858 16.8788
303 2 0.160333 13.4807 0.526454 14.5107
192 3 -0.787613 8.90218 4.89526 14.6659
46 1 -0.688581 11.072 4.58843 9.03967
244 2 0.135148 12.1258 1.82022 14.1911
245 1 -0.632408 12.3618 1.14164 11.185
297 2 0.124885 8.9914 2.05126 10.4398
296 2 0.131441 9.6117 0.261016 10.5692
243 2 0.180496 13.2056 1.05357 10.2844
241 2 0.118365 12.5195 2.05912 11.8984
242 2 0.154815 11.1833 1.191 10.7057
298 1 -0.651018 9.3694 1.18564 9.84553
37 2 0.134303 10.2686 5.04679 9.92411
246 1 -0.667934 12.382 0.744432 14.3525
36 2 0.152254 11.7556 3.73836 9.40984
92 2 -0.0206142 11.9577 1.38835 16.153
186 4 1.27136 9.46297 6.11093 15.6385
188 2 -0.00788026 8.64761 2.29596 14.5795
189 2 -0.0712308 9.19094 3.38756 12.3353
295 2 0.182019 10.2822 1.41602 9.22056
19 2 0.00625015 9.40125 2.93558 8.92025
34 2 0.190535 3.94513 7.37554 3.72132
38 2 0.17554 5.31098 10.6882 3.49585
39 2 0.142964 4.51289 11.9859 4.71168
40 2 0.134046 3.82127 10.2233 4.6901
45 1 -0.658512 4.44255 6.62265 4.48202
47 1 -0.663592 4.72151 10.9107 4.49528
172 2 0.156065 3.17802 9.6678 1.74958
173 2 0.175913 4.07129 8.02445 2.19178
174 2 0.159425 3.35342 9.28402 3.57155
178 1 -0.660227 3.21425 8.84822 2.50847
222 4 0.664588 1.76427 11.4416 6.20742
223 2 -0.00207384 3.46614 11.3325 5.98692
233 3 -0.727169 1.2872 12.4757 7.41784
32 2 0.182931 4.64014 7.04051 5.46589
17 2 -0.046401 2.81933 12.3804 0.752926
278 2 -0.0135783 4.06392 11.926 2.95669
232 1 -0.620089 1.67788 12.5363 4.61569
229 2 0.13294 2.3435 12.4316 3.68151
267 2 -0.0594404 3.69994 9.45694 8.553
6 4 1.33036 5.80489 12.6428 7.75852
64 3 -0.861366 8.28147 6.53732 0.830513
207 1 -0.673476 7.98874 11.8959 1.92469
69 3 -0.803639 6.10677 9.0547 6.30026
209 2 0.0825777 9.73179 9.2751 1.05836
21 2 -0.0134341 6.0675 6.78901 7.43395
70 3 -0.815371 6.59587 11.6943 6.61805
285 2 0.173873 7.49884 12.715 2.51905
68 3 -0.820851 7.54952 10.6025 4.37524
205 2 0.171349 7.16987 11.2018 1.43015
13 4 1.49634 7.62302 7.81653 1.58601
14 4 0.944906 6.98617 8.25503 7.30258
15 4 1.31023 6.43538 10.5886 5.49754
201 4 1.07892 8.50972 10.5133 3.16938
60 3 -0.831751 9.70909 6.50134 4.88054
63 3 -0.781688 6.59269 7.32304 2.75811
66 3 -0.772942 6.83283 8.83722 0.415976
65 3 -0.764223 8.74237 8.78493 2.23777
67 3 -0.801976 8.53794 7.79778 7.09425
101 4 0.751459 3.08341 7.65064 11.8262
112 2 0.0107223 3.8455 9.15781 12.3901
106 2 -0.0243769 1.24994 12.1862 13.0544
262 2 0.171227 3.614 10.9279 14.3603
264 1 -0.634449 3.90461 10.5794 15.4521
268 2 -0.0273017 3.36839 10.7553 10.7606
263 2 0.150357 3.00078 10.2666 16.0812
306 2 0.157822 2.7124 10.5125 12.857
308 1 -0.635855 3.02094 11.635 12.5041
119 2 0.17051 2.86635 9.26139 14.2198
305 2 0.111646 2.82261 12.4428 13.3562
265 4 0.927791 4.59521 10.4601 9.57786
129 1 -0.647995 2.25414 8.64157 13.4269
307 2 0.124842 2.41468 11.9784 11.5951
259 2 0.0648143 4.70185 11.7222 16.2155
125 2 0.0276673 1.65898 8.24124 17.3214
96 4 0.677459 -0.251396 12.9727 13.5248
227 2 0.155163 0.260361 12.3471 10.7685
261 2 0.0268586 4.48501 8.80219 15.0563
304 2 0.15395 4.49362 12.9481 15.0378
118 2 0.130057 1.33514 9.18282 12.9713
270 3 -0.837844 5.00879 11.7704 8.83092
269 2 -0.0052552 7.35113 9.03434 12.3225
20 2 0.0565625 6.7516 8.87361 8.83464
260 2 -0.0776725 7.01007 9.79081 16.0055
273 3 -0.781248 6.07199 11.3989 12.3704
253 2 0.214684 5.59335 6.84156 12.2335
284 1 -0.654427 9.29579 7.92372 14.824
254 2 0.140521 6.34349 8.0267 13.3257
258 4 0.683188 5.32053 9.73841 16.4062
248 2 0.0386511 6.81253 7.78744 10.8085
240 4 0.872709 4.97469 12.5826 12.5513
113 2 -0.00770687 5.79542 6.96352 14.3927
272 3 -0.821013 5.68551 9.45766 10.0175
282 2 0.143156 9.24724 7.4114 13.7599
266 4 1.07138 6.83923 10.3751 11.3222
271 3 -0.83435 8.11049 10.9956 10.5589
281 2 0.139072 8.7879 8.86659 14.7604
256 1 -0.664342 6.58496 7.25698 12.5987
257 3 -0.812592 9.36892 6.84368 11.0697
ITEM: TIMESTEP
100
ITEM: NUMBER OF ATOMS
310
ITEM: BOX BOUNDS xy xz yz pp pp pp
-9.0288000000000004e+00 1.5411400000000000e+01 -7.2027000000000001e+00
0.0000000000000000e+00 1.3079499999999999e+01 -1.8261000000000001e+00
0.0000000000000000e+00 1.7468393199999998e+01 3.3839999999999998e-01
ITEM: ATOMS id type q x y z
26 2 0.124967 1.05589 2.62752 2.95514
72 2 -0.0186532 -0.209804 3.61514 4.97353
83 2 0.131823 1.31546 0.415016 6.38395
74 2 0.135384 -0.823927 3.8537 1.54988
75 2 0.0537581 -2.09352 4.42616 3.17147
156 2 0.00945183 -1.39147 2.55483 7.68917
150 4 0.789702 -0.415943 4.01653 7.60707
159 2 0.00960023 0.490619 5.32906 5.34155
164 2 0.125032 0.853726 2.69968 6.39519
175 1 -0.627999 1.17328 3.83593 6.38398
179 3 -0.846968 -2.91769 5.69293 4.9967
180 3 -0.790543 -1.24789 5.2564 6.86815
195 2 0.19591 -1.98912 5.526 0.974624
25 2 0.175974 0.756293 0.609923 2.69901
42 1 -0.646653 1.45051 1.49776 3.16959
71 4 0.72335 -1.5642 3.01236 4.06593
274 2 0.0269534 -0.865863 1.74941 2.97144
275 2 0.0102113 -0.421993 1.61726 1.26273
143 2 -0.0199559 -0.307542 5.13388 0.31868
301 2 0.153455 -0.0677803 1.40822 8.04069
76 1 -0.666315 -1.54426 3.1149 1.83676
132 3 -0.787059 2.21235 2.03572 8.65042
196 2 0.144058 -0.755058 5.89568 2.34099
152 4 1.38711 -2.05704 6.44401 6.15655
43 1 -0.682324 -0.857774 0.858633 8.64796
198 1 -0.699634 -1.35489 6.30209 1.48783
27 2 0.130392 1.67307 1.27143 4.32307
77 4 0.980071 2.30673 0.320002 8.30957
291 2 0.160742 5.70082 1.85965 8.64724
22 2 0.150368 4.16169 1.49822 5.23003
163 2 0.156712 1.85366 4.0294 5.52064
33 2 0.168313 3.96155 5.80667 4.52986
279 2 0.147164 3.16655 0.126551 5.548
3 4 1.0797 3.2243 1.75949 2.79271
50 3 -0.81898 5.4501 3.46863 0.742182
41 1 -0.656913 4.50027 0.944941 4.25483
310 3 -0.845781 6.42035 0.987191 0.839505
48 3 -0.780222 3.30038 0.891069 1.46041
165 2 0.165991 1.74982 4.2121 7.48981
4 4 1.48584 4.83848 4.37367 1.92217
23 2 0.149565 5.47822 1.35751 3.88595
49 3 -0.761926 3.63203 3.48584 2.61854
51 3 -0.840416 4.19034 5.82891 1.17045
35 2 0.186517 -3.66062 5.19987 8.60669
161 2 0.0244563 1.85095 6.36733 0.923419
104 2 -0.00449389 -0.318732 1.5886 10.3649
105 2 -0.0552191 -0.0793659 2.16991 13.1958
142 4 0.706176 -2.7442 5.40163 16.1578
144 2 0.0177001 -2.03225 3.64932 15.7269
147 2 0.159901 -1.21585 4.60626 13.8467
149 3 -0.773021 -4.24343 5.69796 16.1091
162 2 0.00408501 -3.64589 5.71246 10.443
166 2 0.146328 0.078257 3.66581 9.71411
290 1 -0.656758 -0.294029 0.436505 16.9197
145 2 0.0423673 -1.83505 6.4785 14.8577
148 1 -0.631044 -2.03962 4.8543 14.4771
289 2 0.0924397 0.162262 0.526258 15.7451
28 2 0.125802 -1.58839 1.60317 9.20919
146 2 0.157645 -3.0074 4.82417 13.8657
167 2 0.166919 -1.32655 4.957 9.69845
176 1 -0.635887 -0.292373 4.73029 9.33689
108 2 0.100526 0.769922 5.44266 16.2455
122 2 0.164502 1.72315 6.28351 9.96464
168 2 0.169946 0.512104 5.54631 9.67105
94 4 0.624781 0.701182 1.85382 11.7741
133 3 -0.777984 1.71481 2.97399 11.4628
219 2 0.181843 3.03545 2.90163 15.7567
111 2 0.0857952 2.69324 3.76838 12.6406
16 2 0.0288566 2.66558 0.923294 16.5234
220 1 -0.63334 3.93376 2.19053 15.8519
95 4 1.3275 2.92473 2.69757 10.0112
134 3 -0.841406 4.07441 1.77886 10.6763
136 3 -0.781704 3.43759 4.20204 9.43473
217 2 0.175511 3.87718 1.16369 15.2616
103 2 0.0648281 1.40966 0.315135 12.0777
287 2 0.141545 -0.654397 1.42168 17.333
286 2 0.150488 -6.83434 12.2471 0.985301
153 4 0.967058 -3.92776 8.39589 7.86687
182 3 -0.817577 -2.96028 7.3149 7.20066
193 4 1.06195 -2.59849 7.58978 2.29768
212 2 0.0127793 -2.05309 12.4275 2.88471
200 3 -0.821068 -2.7312 8.91679 1.38158
202 2 0.213504 -4.82208 11.9989 2.62734
203 2 0.180354 -4.46067 10.2616 3.21798
204 2 0.176298 -4.99206 11.6297 4.58885
280 2 0.158342 -5.10932 11.2706 6.229
206 1 -0.663881 -5.03754 11.2169 3.40493
177 1 -0.676961 -3.21414 10.0609 7.77003
171 2 0.164993 -3.8214 10.9333 7.25028
87 1 -0.651051 -4.89026 12.4072 6.41758
208 4 0.952922 -3.83501 9.47568 0.451786
199 3 -0.777675 -3.88052 6.84888 2.82704
169 2 0.173536 -2.19785 9.78154 7.22139
309 3 -0.811905 -3.90386 11.0491 0.150246
1 4 1.01008 -3.94761 12.6457 0.101785
24 2 0.142485 -2.57852 12.5579 4.47336
158 2 0.109074 -5.42255 8.49049 6.94868
160 2 -0.05265 1.41886 7.73777 6.11082
224 2 -0.0489987 1.21749 9.79498 6.17773
197 2 0.172791 -0.813239 7.02068 0.884357
184 3 -0.780319 1.0927 7.31971 3.53584
155 4 0.989974 1.76086 7.78616 1.97604
183 3 -0.789137 -0.932907 7.62743 5.13187
185 3 -0.821006 0.973981 8.87749 1.15191
214 3 -0.809287 -0.465574 11.1402 1.0648
234 4 1.07372 0.194031 9.94607 0.328253
211 4 0.971544 -0.739705 12.5142 1.76438
194 2 0.117104 -1.61852 7.91427 3.69297
154 4 0.908549 0.497798 7.04444 4.96326
80 2 0.0234295 -3.34655 12.659 7.53075
78 4 1.13399 -5.81109 11.0129 10.4579
79 4 0.640459 -4.72403 10.9825 13.5943
81 2 -0.0341449 -5.37032 9.49386 14.057
82 2 0.0709465 -5.09984 9.53138 9.97554
276 2 0.0207052 -4.88813 12.2796 15.0695
88 1 -0.627427 -3.33431 12.2067 14.2656
89 3 -0.836795 -5.41451 12.0111 9.35887
90 3 -0.785592 -5.21221 11.4036 12.0899
151 4 0.891982 -4.46572 7.15745 10.9091
157 2 -0.0535139 -3.64909 7.4089 12.2852
181 3 -0.767275 -4.21119 8.17279 9.74106
283 2 0.14502 -4.7794 7.90283 15.2811
210 2 -0.0302475 -5.82287 8.84538 16.5943
236 2 0.136305 -3.25967 9.07881 16.6329
288 2 0.139907 -8.26829 12.3746 17.1139
170 2 0.168618 -3.077 10.3229 8.89066
84 2 0.0158548 -2.92813 10.5052 13.6634
121 2 0.123243 0.810095 7.57513 11.0396
85 2 0.141264 -2.56154 12.5684 15.0141
238 2 0.150176 -2.74038 10.6906 15.3943
237 2 0.137111 -1.5946 9.03174 15.6657
126 2 0.136551 -0.601264 6.86351 16.6864
226 2 0.182253 -1.64497 12.4087 9.55289
131 1 -0.667899 0.468602 6.77114 16.5414
130 1 -0.671096 1.79704 7.35834 10.3225
277 2 -0.00644588 -1.51353 11.7963 13.713
239 1 -0.657068 -2.32031 9.73231 16.1643
120 2 0.133886 1.86512 7.77666 13.8861
235 2 -0.00856173 -0.784568 10.9311 16.4674
231 1 -0.68474 -0.639721 12.0779 9.75309
225 2 0.157486 -0.376532 11.0428 9.37371
124 2 0.129483 0.744118 7.364 15.5719
123 2 0.129183 1.97309 8.10594 9.50156
302 2 0.240187 -7.69207 12.7072 9.32524
86 2 0.183357 -3.36288 12.8554 13.2702
227 2 0.15139 -0.307685 12.2306 10.8231
215 4 1.10163 6.40454 2.37334 0.114632
29 2 0.140895 7.96526 1.95318 4.04987
30 2 0.266693 7.45489 3.64243 3.44601
31 2 0.201822 8.81494 3.57153 4.82033
44 1 -0.695024 8.37003 3.03082 3.88275
293 1 -0.6624 6.68392 1.9963 8.11219
57 3 -0.801214 5.9284 4.58336 3.07533
62 3 -0.855294 9.07547 5.08412 7.07926
128 1 -0.648786 5.17985 5.0617 7.4268
292 2 0.16115 7.27121 2.87843 8.40367
230 2 0.160593 8.86316 0.915961 4.33396
60 3 -0.866107 9.91346 6.34419 5.05693
115 2 0.234865 5.89905 5.08601 6.53136
221 4 0.847312 7.72852 0.352201 8.72002
61 3 -0.811753 7.24954 5.86503 5.225
58 3 -0.741365 9.05845 3.96464 1.13583
116 2 0.0609943 3.96706 5.83055 7.08157
294 2 0.178426 6.74277 1.83348 7.00107
12 4 1.45962 8.72016 6.21358 6.03891
216 2 0.109672 8.04499 2.95768 0.395346
9 4 1.32844 6.24207 6.2103 3.91773
10 4 1.48443 8.7564 5.45914 0.061158
93 2 0.0294783 13.017 3.26823 0.158651
53 3 -0.809031 12.7274 2.34738 4.96861
56 3 -0.818134 10.7759 4.27382 3.32772
55 3 -0.819933 10.4166 1.7623 2.27162
91 4 0.681124 13.484 1.54015 0.38281
2 4 1.4921 11.1034 5.75924 4.15379
5 4 0.951935 10.9922 0.467966 1.75409
8 4 1.27705 9.77408 3.24693 2.69168
7 4 1.3001 11.5837 1.89479 5.95743
11 4 1.11087 10.0353 3.96392 7.65437
54 3 -0.845247 12.2007 0.858513 6.95872
18 2 0.0167547 10.3616 1.02798 5.11575
52 3 -0.781159 12.2938 0.666966 0.95048
59 3 -0.858521 10.7425 2.97792 6.74716
73 2 0.185398 12.762 3.56718 1.81334
117 2 0.197032 4.91485 3.97929 7.59442
100 4 1.23778 4.12977 4.6386 12.8417
102 4 1.23763 4.84165 5.91269 15.4128
107 2 -0.0168653 6.61708 2.49528 10.0394
109 2 0.0206274 5.49116 5.99599 10.1294
114 2 0.0722577 6.92697 2.79941 14.6919
127 1 -0.611562 7.16692 1.18543 15.1562
137 3 -0.825977 5.29779 3.96551 12.0594
138 3 -0.807632 3.74401 6.13854 12.3145
139 3 -0.810321 4.39432 4.64116 14.3778
140 3 -0.872902 5.96949 5.35287 16.3794
190 2 0.0544109 6.77908 4.09598 13.0123
135 3 -0.794959 6.23085 1.40282 12.4586
249 2 0.121749 7.22236 4.38166 10.4466
250 2 0.193192 8.26598 5.47736 9.30465
251 2 0.171601 6.47537 5.19996 8.84105
252 2 0.0709848 7.57308 6.24568 13.2757
255 1 -0.669371 7.24894 5.33307 9.77218
99 4 0.709339 4.18542 5.53235 9.03182
97 4 1.10805 5.47318 2.30151 11.3352
141 3 -0.838262 3.53432 6.37838 16.1634
247 4 0.733004 7.85718 6.33182 11.4264
218 2 0.181118 4.95798 2.73984 15.3793
187 4 0.622063 8.30056 3.77428 13.7958
299 2 0.118873 8.19576 0.668338 15.3573
98 4 1.06882 2.34117 6.66369 17.2049
300 2 0.128451 6.26289 0.647041 15.7366
191 3 -0.820478 8.49402 6.17138 17.0358
303 2 0.153368 13.4517 0.339714 14.9102
192 3 -0.792869 8.92625 4.97982 14.6275
46 1 -0.69946 11.1458 4.40295 9.16538
244 2 0.145935 12.6321 1.95307 14.2714
245 1 -0.662958 12.1983 1.00205 11.1864
297 2 0.127871 8.70429 2.12411 10.3206
296 2 0.135615 9.53402 0.430871 10.6863
243 2 0.201074 12.9871 0.561016 10.4606
241 2 0.116992 12.5543 1.99878 11.6417
242 2 0.187577 11.1639 1.12202 10.7473
298 1 -0.649571 9.27466 1.26342 9.89114
37 2 0.147166 10.4439 4.7828 9.97921
246 1 -0.663281 12.5259 0.843019 14.4219
36 2 0.157499 11.7775 3.44739 9.35488
92 2 -0.00994959 12.1135 1.36857 16.2988
186 4 1.26518 9.45062 5.98754 15.8212
188 2 -0.00132695 8.69165 2.18471 14.5195
189 2 -0.0624503 9.15874 3.3045 12.437
295 2 0.182866 10.1277 1.54614 9.23137
19 2 -0.000263021 9.27639 3.05834 8.99513
96 4 0.679128 6.80546 0.364113 13.5527
304 2 0.129892 11.465 0.463834 14.8466
34 2 0.179911 4.0485 7.55637 3.86332
38 2 0.150215 5.27161 10.926 3.46917
39 2 0.146916 4.1424 11.9078 4.67138
40 2 0.137775 4.04156 9.99833 4.51151
45 1 -0.657847 4.55144 6.75273 4.60966
47 1 -0.665734 4.73325 10.907 4.53153
172 2 0.169902 3.26247 9.61742 1.72305
173 2 0.174305 4.01523 7.92046 2.09336
174 2 0.148517 3.49183 9.13814 3.52694
178 1 -0.657921 3.27509 8.82515 2.42209
222 4 0.642517 1.72898 11.3567 6.02238
223 2 0.00752126 3.45495 11.0512 5.97678
233 3 -0.704813 1.16939 12.2407 7.40552
32 2 0.182204 4.77779 7.12748 5.68695
17 2 -0.043548 2.80353 12.3122 0.738291
278 2 -0.0213124 4.1602 12.1343 2.99798
232 1 -0.651315 1.80469 12.5236 4.44104
229 2 0.126301 2.48452 12.1954 3.63062
267 2 -0.0490987 3.41782 9.84866 8.6793
6 4 1.34533 5.84104 12.6139 7.75689
64 3 -0.870222 8.12807 6.64339 0.921269
207 1 -0.664923 7.83191 11.8941 1.89879
69 3 -0.802095 6.19038 8.93304 6.18479
209 2 0.101746 10.1022 9.12267 1.15076
21 2 -0.0223712 6.04277 6.80154 7.80052
70 3 -0.81477 6.47472 11.5199 6.7326
285 2 0.161837 7.2322 12.6947 2.50447
68 3 -0.764461 7.76539 10.4867 4.42463
205 2 0.174021 7.09087 11.0826 1.42514
13 4 1.5329 7.61441 7.86421 1.68709
14 4 0.942565 6.9808 8.23241 7.36698
15 4 1.27406 6.37078 10.4709 5.53685
201 4 1.06283 8.59622 10.5989 3.12179
228 2 0.0832271 0.731195 11.7817 4.42863
63 3 -0.843389 6.68157 7.29059 2.92178
66 3 -0.77068 6.83271 8.80935 0.535692
65 3 -0.767524 8.81073 8.93787 2.1187
67 3 -0.796284 8.51959 7.8237 7.1341
213 2 -0.0239349 0.438163 12.6825 2.99126
101 4 0.761449 2.89094 7.54164 11.9019
112 2 0.0220261 3.86922 8.95925 12.1511
106 2 -0.0165479 1.06543 12.3258 12.9938
262 2 0.16801 3.42681 11.0583 14.5491
264 1 -0.627559 3.76125 10.6184 15.5819
268 2 -0.00874225 3.52474 10.9188 11.0792
263 2 0.15366 2.91581 10.552 16.2943
306 2 0.161143 2.74169 10.707 12.8823
308 1 -0.631578 2.93548 11.8546 12.7265
119 2 0.170878 2.87214 9.39155 14.1654
305 2 0.116073 2.81009 12.4897 13.7103
265 4 0.934902 4.55116 10.6085 9.7366
129 1 -0.669902 2.34414 8.73446 13.3524
307 2 0.127461 2.39731 12.2432 11.7779
259 2 0.0463105 4.97576 11.6209 16.2853
125 2 0.00357262 1.54909 8.25267 17.0985
110 2 -0.0372639 3.31892 7.03196 9.1576
256 1 -0.65354 6.53071 7.32531 12.691
261 2 0.0215242 4.12413 8.85168 15.2222
118 2 0.127724 1.58207 9.36048 12.7996
257 3 -0.799493 9.39628 6.77113 11.1395
270 3 -0.811283 4.91619 11.8874 8.91757
269 2 -0.0149479 7.48668 8.88573 12.0381
20 2 0.0578525 6.68538 9.06862 8.76275
260 2 -0.0784478 6.76909 9.4044 15.7763
273 3 -0.769328 5.97081 11.3245 12.3298
253 2 0.20993 5.46829 6.88923 12.5234
284 1 -0.668301 9.54415 7.74671 14.9028
254 2 0.129 6.46446 8.23331 13.3732
258 4 0.658925 5.23243 9.68261 16.4421
248 2 0.0478548 6.79819 7.65474 10.8522
240 4 0.841233 4.97507 12.6816 12.7335
113 2 -0.0249271 5.46711 7.13864 14.3375
272 3 -0.797456 5.66925 9.54698 10.1007
282 2 0.159025 9.39802 7.60909 13.778
266 4 1.08343 6.88173 10.3721 11.3518
271 3 -0.839282 8.00261 11.0371 10.4953
281 2 0.135826 8.70127 8.27338 15.3696
ITEM: TIMESTEP
200
ITEM: NUMBER OF ATOMS
310
ITEM: BOX BOUNDS xy xz yz pp pp pp
-9.0288000000000004e+00 1.5411400000000000e+01 -7.2027000000000001e+00
0.0000000000000000e+00 1.3079499999999999e+01 -1.8261000000000001e+00
0.0000000000000000e+00 1.7433386400000000e+01 3.3839999999999998e-01
ITEM: ATOMS id type q x y z
26 2 0.14759 1.04741 2.60083 3.02705
72 2 -0.0205313 0.0092349 3.00498 4.96958
83 2 0.114031 1.29881 0.223021 6.4613
74 2 0.121212 -0.621923 3.83421 1.73104
75 2 0.0352365 -1.80125 4.31683 3.27038
156 2 0.0238142 -1.59863 2.66432 7.87829
150 4 0.800295 -0.511687 4.04641 7.62646
159 2 -0.00283415 0.38446 5.32103 5.31665
164 2 0.13104 0.939976 2.66228 6.54953
175 1 -0.6442 1.09461 3.84234 6.39254
179 3 -0.820781 -2.90514 5.68775 4.94706
180 3 -0.801859 -1.2789 5.30931 6.98592
195 2 0.195452 -1.98593 5.50687 1.19167
25 2 0.163895 0.914223 0.603505 2.76474
42 1 -0.669705 1.45915 1.59866 3.29614
71 4 0.720232 -1.50231 2.80286 4.10403
51 3 -0.858248 4.14672 5.59806 1.23127
275 2 0.0204606 -0.540523 1.35871 1.23811
143 2 -0.0196068 -0.194633 5.36972 0.17411
301 2 0.14615 -0.427163 1.38429 7.93953
76 1 -0.662762 -1.41501 2.98763 1.87593
279 2 0.154187 3.25658 0.169006 5.57982
196 2 0.12257 -0.543171 6.18301 2.26208
152 4 1.37845 -2.06106 6.42152 6.14905
43 1 -0.657396 -1.17254 0.917648 8.63272
274 2 0.0226461 -0.989938 1.50954 2.98845
27 2 0.13505 1.70829 1.49736 4.47487
77 4 1.02279 2.3833 0.236017 8.34417
291 2 0.179578 5.6296 1.78312 8.39064
22 2 0.153346 4.37429 1.26924 5.08766
163 2 0.146412 1.69387 4.01476 5.3964
287 2 0.160905 1.13735 0.945744 0.0265877
49 3 -0.765232 3.60525 3.26271 2.78017
3 4 1.10483 3.15894 1.73568 2.73587
50 3 -0.815277 5.29465 3.44019 0.615042
41 1 -0.637599 4.52222 0.729206 4.05009
310 3 -0.843225 6.55994 1.08911 1.00983
48 3 -0.786729 3.20135 0.838143 1.28381
165 2 0.159638 1.74149 4.19928 7.28545
4 4 1.45129 4.81076 4.30348 1.88842
23 2 0.125762 5.63652 0.828588 3.69267
116 2 0.10062 4.00045 5.04055 6.94474
104 2 6.52138e-05 -0.369681 1.16315 10.4127
105 2 -0.0439234 -0.512135 2.02163 12.8423
142 4 0.703457 -2.75255 5.50843 16.0387
144 2 0.0225571 -2.11615 3.75458 15.6218
147 2 0.154859 -1.31434 4.51661 13.6422
149 3 -0.775909 -4.26911 5.78753 16.0852
162 2 -0.00513058 -3.61047 5.58617 10.7128
166 2 0.190038 0.839225 4.02071 9.46022
290 1 -0.650756 -0.210635 0.621958 16.7127
145 2 0.0424874 -1.71435 6.52034 14.7125
148 1 -0.619167 -2.13873 4.89682 14.3394
289 2 0.0968636 0.329643 1.22314 15.7649
28 2 0.133185 -1.7657 1.64521 9.35982
146 2 0.156897 -3.16767 4.75295 13.8828
167 2 0.159623 -0.87856 4.38128 10.2318
176 1 -0.645753 -0.144507 4.64834 9.40171
108 2 0.104348 0.766073 5.55814 16.1998
122 2 0.166772 1.33177 6.27642 9.83855
168 2 0.169158 0.0378371 5.79047 9.33915
94 4 0.652772 0.661084 1.68784 11.7131
133 3 -0.779641 1.64284 2.84252 11.5202
219 2 0.193554 3.1802 2.82756 15.6573
111 2 0.0786104 2.87097 3.47053 12.5856
16 2 0.014522 2.84992 0.904322 16.5099
220 1 -0.662144 4.10929 2.22503 15.7458
95 4 1.34534 2.91702 2.68325 10.0699
134 3 -0.855986 4.2362 2.01794 10.5725
136 3 -0.807992 3.28231 4.12545 9.49615
217 2 0.172321 3.9562 1.21436 15.248
103 2 0.0216399 1.44114 0.333535 12.256
132 3 -0.79546 2.147 1.80236 8.74395
286 2 0.17178 -6.63267 12.3301 0.936849
153 4 0.952547 -3.9228 8.34246 7.85259
182 3 -0.809691 -3.00769 7.27517 7.14059
193 4 1.05636 -2.32038 7.68621 2.47734
212 2 0.0157221 -2.07445 12.306 2.51587
200 3 -0.811204 -2.62124 8.85969 1.40795
202 2 0.185464 -4.69472 11.6819 2.61104
203 2 0.178738 -4.51515 9.9282 3.57354
204 2 0.180022 -4.81499 11.5711 4.58892
280 2 0.152729 -4.82876 11.2436 6.20601
206 1 -0.676423 -4.9086 11.0192 3.5443
177 1 -0.675552 -3.01723 9.92 7.63661
171 2 0.170566 -3.6011 10.8149 7.19051
87 1 -0.651118 -4.64949 12.3745 6.44921
208 4 0.953337 -3.78325 9.49933 0.599094
199 3 -0.767535 -3.70429 7.01943 2.90728
169 2 0.194273 -2.07415 9.6054 7.05078
309 3 -0.805356 -3.80469 11.0666 0.233978
80 2 0.0314709 -3.24553 12.5917 7.65454
24 2 0.155857 -3.05875 12.3902 4.09604
161 2 0.0289918 1.95707 6.45182 1.05737
160 2 -0.0562263 1.68281 7.30763 6.06902
224 2 -0.0515626 1.34165 9.65894 6.29356
197 2 0.167424 -0.929931 6.89537 0.510884
184 3 -0.794965 1.1096 7.48165 3.51016
155 4 0.994008 1.80522 7.90664 2.03505
183 3 -0.780007 -0.880363 7.76453 5.32602
185 3 -0.793757 1.05871 8.96069 1.08595
214 3 -0.801451 -0.139092 11.3653 0.933732
234 4 1.02033 0.310152 10.0523 0.125436
211 4 0.982355 -0.617047 12.5287 1.80287
194 2 0.0918969 -1.44133 8.28369 3.86309
154 4 0.864164 0.487938 7.05191 4.94929
158 2 0.10696 -5.42832 8.47902 7.06381
198 1 -0.661466 -1.34163 6.40679 1.42272
1 4 1.00954 -3.90308 12.7159 0.00677705
78 4 1.2338 -5.84867 10.9609 10.456
79 4 0.658686 -4.85443 10.953 13.412
81 2 -0.0263558 -5.26919 9.46664 14.1343
82 2 0.094804 -5.18764 9.45462 9.91231
276 2 0.010904 -5.02884 12.2871 14.8025
88 1 -0.637029 -3.41615 12.2278 14.1633
89 3 -0.85916 -5.19355 11.9259 9.43182