ITEM: TIMESTEP
0
ITEM: NUMBER OF ATOMS
310
ITEM: BOX BOUNDS xy xz yz pp pp pp
-9.0288000000000004e+00 1.5411400000000000e+01 -7.2027000000000001e+00
0.0000000000000000e+00 1.3079499999999999e+01 -1.8261000000000001e+00
0.0000000000000000e+00 1.7503399999999999e+01 3.3839999999999998e-01
ITEM: ATOMS id type q x y z
4 4 1.45856 4.87283 4.46226 1.69419
3 4 1.11116 3.47572 1.77983 2.54103
280 2 0.149494 2.13578 0.930474 6.60399
71 4 0.806111 -1.28356 2.04886 3.69598
23 2 0.154763 3.69377 0.864288 4.94496
24 2 0.132415 5.27824 1.39934 3.85044
25 2 0.157841 0.910854 1.01355 2.55489
26 2 0.161009 1.06671 2.93362 3.17507
27 2 0.128062 1.89091 1.5407 4.18537
41 1 -0.655446 4.24213 0.69609 3.95964
42 1 -0.627898 1.58424 1.91067 3.08339
48 3 -0.766106 3.37578 0.730783 1.14162
49 3 -0.794662 3.90822 3.28857 2.45074
51 3 -0.804595 4.07194 5.84369 1.00966
75 2 0.20627 -2.08235 3.80925 2.58367
72 2 0.00218088 0.268662 2.20085 4.57428
73 2 0.00867509 -1.67465 3.68341 0.770465
74 2 0.13812 -0.223458 4.01053 3.25513
152 4 1.40481 -2.07869 6.21181 6.12567
76 1 -0.646752 -0.981325 3.41799 2.56678
275 2 0.0168823 -0.427048 2.42405 1.16089
110 2 -0.0371768 2.02218 4.99208 7.39211
50 3 -0.808169 5.42677 3.47059 0.487757
150 4 0.803037 -0.668153 3.92029 7.82762
159 2 0.0155198 0.890117 5.00512 5.61544
163 2 0.145698 1.46371 3.2968 5.83099
164 2 0.078733 -0.319188 2.35301 6.63774
165 2 0.155399 1.54684 3.32906 7.70993
175 1 -0.634152 0.873848 3.50151 6.77791
179 3 -0.80277 -2.86311 5.55323 4.88479
180 3 -0.808362 -1.35974 5.13981 7.09184
195 2 0.0591915 -1.98275 6.07875 0.262784
196 2 0.17849 -0.712818 5.26076 1.82439
310 3 -0.818676 6.80771 1.17559 1.07131
94 4 0.637971 -0.0143294 2.06987 11.9066
95 4 1.27553 2.5982 2.3333 10.69
147 2 0.0981394 -2.04843 6.34077 13.2724
219 2 0.158784 3.3943 2.46096 15.8582
103 2 0.0287733 -0.331242 0.481852 11.4499
104 2 0.00137912 -0.667556 2.53757 10.3278
105 2 -0.0582736 -1.07772 2.50688 13.0933
108 2 0.0234393 1.39235 5.47128 15.8337
111 2 0.0713534 2.35978 3.43851 13.258
290 1 -0.660541 0.421072 0.450714 15.9932
156 2 0.0507759 -1.81908 3.13286 9.0651
132 3 -0.829222 1.94176 1.36664 9.50884
133 3 -0.797502 1.43102 2.49047 12.1931
134 3 -0.827709 3.87234 1.53301 11.3861
168 2 0.169339 -1.4174 5.45112 9.87787
136 3 -0.76056 2.95672 3.8339 9.6945
100 4 1.1665 3.68069 4.50619 13.165
276 2 0.0448249 3.17092 0.617246 13.169
144 2 -0.0521931 -2.44399 4.75007 15.0723
301 2 0.136491 -0.624739 1.27914 9.15074
99 4 0.693909 3.0634 5.0842 8.77105
220 1 -0.657298 4.52722 2.0964 15.9416
289 2 0.145133 -0.323279 1.05385 16.6522
120 2 0.148192 0.595903 5.99299 12.9982
288 2 0.101991 1.14777 1.18043 15.3648
157 2 -0.00377799 -3.55976 6.46128 12.4178
167 2 0.109237 -0.983555 4.05275 11.1199
176 1 -0.642544 -0.898256 4.43183 9.98165
217 2 0.156389 4.59995 1.03644 15.7034
166 2 0.129994 0.229031 4.58905 9.80798
16 2 0.009929 3.35723 0.701933 16.6637
98 4 0.972951 2.288 6.65728 16.8746
142 4 0.688965 -2.90789 6.35799 15.3219
149 3 -0.789564 -4.49552 6.28649 15.4225
151 4 0.841689 -4.52507 6.51502 11.0007
97 4 1.1175 5.23783 2.12518 11.8817
291 2 0.130567 6.07175 1.10184 9.15809
208 4 0.950006 -3.8677 9.49643 0.107748
171 2 0.146636 -4.07003 10.4287 7.51911
230 2 0.164779 -0.808617 12.785 4.66043
153 4 0.92223 -3.91648 8.24613 8.0833
154 4 0.929563 0.6949 6.77014 5.35494
155 4 1.00689 2.31026 8.10275 2.95243
22 2 0.162537 -2.74305 12.3179 3.82199
160 2 -0.0694812 1.40182 7.13568 6.83879
83 2 0.151884 -4.602 11.8482 6.12799
177 1 -0.645056 -3.10371 9.90077 7.96598
169 2 0.179896 -2.25216 9.55685 7.19367
182 3 -0.777039 -3.07668 7.29391 7.16855
183 3 -0.762394 -0.770042 7.1276 5.27877
184 3 -0.804892 1.59401 7.25321 4.09414
185 3 -0.786253 1.38339 8.81099 1.8102
193 4 1.06919 -2.43797 7.34361 1.60271
194 2 0.150367 -0.619537 7.34926 2.38003
279 2 0.188933 -6.39227 12.3284 6.9678
234 4 1.02486 0.585455 9.83203 0.812009
161 2 0.0869479 3.30095 6.97604 2.04348
200 3 -0.841082 -2.71478 8.7218 0.835594
202 2 0.175918 -4.66081 12.0785 2.93244
203 2 0.198619 -4.29936 10.1641 3.28559
204 2 0.161549 -4.62616 11.3632 4.8229
205 2 0.168485 -6.05851 12.4183 1.23747
206 1 -0.626432 -4.81802 11.1203 3.63184
211 4 0.966066 -0.128632 12.6751 2.01291
199 3 -0.843645 -3.34688 6.57046 2.57487
80 2 0.0360489 -3.55389 12.5595 7.94211
214 3 -0.813845 0.235684 11.2852 1.26553
229 2 0.003093 -0.299054 11.2646 4.96067
212 2 0.00886359 -1.54065 12.5149 3.06256
87 1 -0.664408 -5.1487 12.5692 6.91269
197 2 0.175023 0.385121 6.55268 0.774102
198 1 -0.634032 -0.551919 6.42527 1.34275
77 4 1.0646 -5.13051 12.6823 8.85933
78 4 1.2667 -5.63497 10.5059 10.861
79 4 0.754595 -4.49438 11.7507 13.519
210 2 -0.0156806 -6.09363 9.03954 16.1233
170 2 0.162889 -2.7804 10.1511 9.07528
82 2 0.100559 -4.86941 8.94634 10.4631
84 2 0.164977 -2.20641 10.0966 13.6427
85 2 0.129213 -3.76594 10.0301 14.7977
86 2 0.0984011 -2.61859 11.614 14.8296
88 1 -0.638969 -3.05002 10.7204 14.1378
89 3 -0.867464 -5.46945 11.3635 9.61621
90 3 -0.787228 -4.95206 11.0844 12.2004
119 2 0.174807 -0.505203 7.49746 13.2665
277 2 -0.0114546 -1.20134 11.3579 13.7608
121 2 0.134731 1.45714 8.69504 10.3978
146 2 0.185624 -3.24345 8.02708 13.2635
148 1 -0.638951 -2.49385 7.42169 13.8525
145 2 0.134716 -1.64387 8.02211 14.359
118 2 0.108993 0.310871 7.42888 11.4696
101 4 0.763094 2.41525 7.34909 12.0731
236 2 0.15971 -0.440189 9.00809 16.1947
239 1 -0.663152 -0.957328 10.0438 16.464
129 1 -0.626993 0.457592 7.11965 12.7796
283 2 0.160701 -5.95372 8.90863 14.1786
226 2 0.154453 -0.827642 11.307 9.76685
181 3 -0.743473 -4.0088 7.74508 9.96773
287 2 0.156258 -7.33298 12.4393 15.3341
237 2 0.163603 -1.87686 10.3051 15.7161
309 3 -0.813673 -5.44827 11.3748 17.4814
238 2 0.0568076 -2.61957 9.55923 17.4066
81 2 -0.0223978 -5.84241 12.1624 14.5375
131 1 -0.67694 0.655476 7.21987 16.0293
124 2 0.164481 0.592137 7.18173 14.8516
125 2 0.0999141 1.2297 8.45779 16.4347
1 4 1.00683 -5.43 12.9401 17.3075
112 2 0.0286708 1.64716 8.09834 13.6812
235 2 0.126956 -0.10815 10.987 16.5153
109 2 0.00499672 2.35015 6.62116 9.39368
126 2 0.143001 -0.251021 7.16965 16.6318
231 1 -0.648363 0.295705 11.4562 9.85103
143 2 -0.018708 -2.21895 6.81192 16.8803
2 4 1.56628 11.414 5.74126 3.7128
9 4 1.42158 6.44012 6.33603 3.58
5 4 0.907502 10.9938 0.687172 1.62262
61 3 -0.851588 7.50412 6.05432 4.64187
7 4 1.18973 11.8617 1.56065 6.02668
8 4 1.27379 9.75526 3.34842 2.38966
62 3 -0.856404 9.39273 4.96999 6.28116
215 4 1.11126 6.65003 2.499 0.199999
11 4 1.09158 9.72304 3.585 6.95384
19 2 0.00495043 8.28067 2.97349 7.82384
294 2 0.15938 6.66237 2.08141 7.50284
228 2 0.1574 7.59497 1.25891 5.16271
128 1 -0.636996 4.87861 5.54892 8.32165
29 2 0.175711 7.9027 2.23792 3.88086
30 2 0.249324 7.53338 3.94799 3.14818
31 2 0.2186 8.7946 3.64233 4.53932
221 4 0.858577 8.11383 0.228378 8.74835
116 2 0.109931 4.66458 5.06812 7.15937
44 1 -0.691631 8.36209 3.2719 3.63919
213 2 0.0489802 8.44262 0.388795 2.96436
12 4 1.47919 8.96317 6.2744 5.38402
52 3 -0.793725 12.3123 1.24156 0.985325
53 3 -0.791356 13.0501 1.96824 4.75823
54 3 -0.81678 12.6557 1.30798 7.40487
55 3 -0.823252 9.85655 1.80367 1.93639
56 3 -0.814733 10.937 4.26497 3.06394
57 3 -0.854843 6.06202 5.05093 2.59268
58 3 -0.776415 9.01737 4.40189 0.936324
59 3 -0.824148 10.5257 2.45825 6.2239
232 1 -0.670811 7.38862 0.317706 4.51168
293 1 -0.629045 6.84742 1.85234 8.61299
274 2 0.0227805 14.5411 0.454211 3.02377
35 2 0.1761 10.996 4.97374 8.33511
33 2 0.158247 3.89768 6.27752 4.20767
91 4 0.593729 13.4718 2.00877 0.179691
286 2 0.13331 14.7937 0.399474 1.12016
216 2 0.135811 8.18305 3.34909 0.124877
223 2 0.00129746 9.27973 0.123077 4.50138
46 1 -0.662511 10.5415 3.93393 8.62495
32 2 0.157742 5.03143 6.34022 5.71906
28 2 0.169376 13.3989 0.743968 10.491
36 2 0.175983 11.387 3.1821 8.93728
37 2 0.13066 9.4752 4.12102 9.4103
297 2 0.113396 9.40179 0.796966 10.6018
162 2 -0.0113281 11.0522 5.00143 10.2643
92 2 -0.0275769 12.6318 1.57219 16.4416
93 2 -0.0210549 11.0719 3.44983 16.4512
10 4 1.50856 7.14459 6.05435 17.4196
295 2 0.177357 10.0834 1.96523 9.18445
102 4 1.24544 4.85131 6.0468 15.3435
218 2 0.190732 5.17693 2.84051 15.3965
107 2 -0.00689489 6.22024 2.23433 10.4737
249 2 0.0406375 7.91775 5.50388 9.01767
114 2 0.066875 7.13028 2.53217 15.0116
127 1 -0.603737 7.68158 0.868938 15.0727
137 3 -0.837883 4.91021 3.74717 12.5513
292 2 0.16243 7.12988 2.87226 9.20388
139 3 -0.834444 4.04106 4.83462 14.6901
140 3 -0.854439 6.04014 5.54006 16.3327
191 3 -0.824715 8.669 6.3655 16.8539
187 4 0.66365 7.8315 3.85983 13.8075
188 2 -0.0057125 8.50581 2.24793 13.9754
189 2 -0.00701768 8.36627 3.86853 12.0693
190 2 0.0633956 6.21151 4.26946 13.69
186 4 1.25895 9.33343 6.34093 15.4056
192 3 -0.779035 8.59634 4.92566 14.5861
135 3 -0.797413 6.11804 1.20643 12.8913
252 2 0.192992 5.52924 6.08592 12.0926
298 1 -0.652618 9.79677 0.870886 9.47049
251 2 0.140584 8.339 3.46808 10.3053
242 2 0.131462 11.1716 1.85728 12.3502
243 2 0.167869 11.8301 0.799149 10.8954
244 2 0.115637 12.3452 1.36085 14.551
245 1 -0.662152 12.0613 1.25391 11.9432
43 1 -0.689648 14.1803 0.421739 9.6752
299 2 0.114235 8.81356 0.660229 14.8646
255 1 -0.657695 7.73133 4.39652 10.352
250 2 0.13899 6.65408 4.19947 10.6151
247 4 0.731379 7.87771 6.23001 10.8789
241 2 0.11395 13.0474 1.81561 11.9657
138 3 -0.776555 3.17102 6.01463 12.3706
117 2 0.16835 5.32984 4.81609 9.16285
13 4 1.50065 7.71862 8.28236 1.5316
14 4 0.949999 7.00145 8.12817 6.88755
15 4 1.22507 6.59879 10.7387 5.46165
207 1 -0.668962 8.25276 12.2965 1.53623
201 4 1.07251 8.77357 10.8301 3.05041
158 2 0.0693126 9.95351 8.15731 7.36308
34 2 0.189847 4.78888 7.90622 4.66193
38 2 0.15732 5.36283 11.0312 3.37964
262 2 0.0677534 5.28478 11.519 0.463316
40 2 0.12906 4.33524 11.1224 5.11045
20 2 -0.0338462 6.86057 8.74681 8.45294
47 1 -0.672291 5.19477 11.5851 4.40846
63 3 -0.814551 6.80964 7.64524 2.7795
64 3 -0.819852 8.38393 7.08639 0.678511
65 3 -0.773032 8.9255 9.3296 2.23475
66 3 -0.813105 6.90441 9.17673 0.452546
67 3 -0.793229 8.46586 7.69157 6.56414
68 3 -0.76848 7.82946 10.9895 4.37933
69 3 -0.809871 6.30202 9.17524 5.90032
70 3 -0.795061 6.85944 11.7775 6.95923
172 2 0.131236 2.83014 10.6441 3.67662
173 2 0.149004 4.20592 9.44556 3.13182
174 2 0.142298 3.27762 9.16351 4.80465
178 1 -0.665257 3.24873 9.57038 3.74647
6 4 1.19815 6.02811 12.65 8.04172
224 2 -0.0390021 2.1787 10.4017 5.19675
278 2 -0.0274593 4.18684 12.6507 3.0373
263 2 0.163337 3.5696 10.2998 0.856917
222 4 0.655996 1.27245 11.7708 5.68319
233 3 -0.723498 1.13913 12.3183 7.19832
267 2 -0.0490178 4.56586 9.14044 8.19268
60 3 -0.806063 10.0732 6.59733 4.32765
17 2 -0.0074029 3.1607 12.0586 0.85121
21 2 -0.0085579 6.07348 6.73599 7.28654
285 2 0.150638 7.80479 11.3047 1.04017
39 2 0.158935 5.3504 12.7304 4.38166
45 1 -0.668168 4.83664 6.72451 4.69438
18 2 -0.019297 4.03435 12.8241 5.50444
270 3 -0.807528 4.54209 11.6579 8.65997
115 2 0.100931 4.64785 6.69855 8.63726
209 2 0.0664723 10.0498 9.28414 0.831281
141 3 -0.807297 3.79487 6.97262 16.0187
122 2 0.119355 2.88951 8.52403 9.23652
113 2 -0.0117181 5.49559 6.91792 13.9452
307 2 0.133235 2.6171 12.5307 12.0743
123 2 0.0440413 3.48101 8.84887 11.4285
130 1 -0.633098 2.50829 8.31153 10.2616
265 4 0.939428 4.61883 10.3091 9.39217
246 1 -0.646856 5.1298 12.9539 15.0227
308 1 -0.661415 3.01951 11.6857 12.7564
248 2 0.0202774 6.88318 7.63853 10.4692
106 2 -0.018975 1.09564 12.0239 12.7104
257 3 -0.786579 9.33274 6.70976 11.3395
256 1 -0.66631 6.11079 7.07421 12.1126
258 4 0.703116 4.18168 10.3792 16.9655
259 2 -0.0163524 5.18272 11.0951 15.6773
260 2 0.0201074 2.70922 9.55046 16.2587
96 4 0.687886 -0.234708 12.7901 13.621
264 1 -0.655662 2.37166 10.9309 17.4781
303 2 0.15623 6.07034 12.7115 15.5619
254 2 0.123918 6.89588 7.03497 12.9483
284 1 -0.67953 8.81957 7.99127 14.5044
266 4 1.22955 6.76388 10.1966 11.5999
268 2 0.00737765 3.12867 10.1591 10.2888
269 2 0.00741463 6.82322 8.85604 12.651
271 3 -0.844312 8.26799 10.3481 11.2007
272 3 -0.846398 5.73019 9.89963 10.4343
273 3 -0.77106 6.15056 11.3287 12.5969
281 2 0.134828 7.96617 8.28072 15.1154
282 2 0.166322 8.45976 7.36885 13.5655
240 4 0.843812 4.88938 12.3852 13.0441
253 2 0.157794 5.44839 7.98847 11.9995
302 2 0.216797 7.56059 12.239 9.91364
305 2 0.127573 2.6455 11.6715 13.804
306 2 0.147114 3.14997 10.7436 12.2013
261 2 0.134191 1.79978 11.4852 16.7016
300 2 0.149226 0.109227 12.9919 15.907
296 2 0.269344 3.39636 12.8723 9.20006
227 2 0.141766 0.662298 11.4232 10.9382
225 2 0.15467 0.863481 10.6678 9.14566
304 2 0.118836 4.1604 12.7545 15.5966
ITEM: TIMESTEP
100
ITEM: NUMBER OF ATOMS
310
ITEM: BOX BOUNDS xy xz yz pp pp pp
-9.0468576000000009e+00 1.5442222800000000e+01 -7.2171054000000012e+00
0.0000000000000000e+00 1.3079499999999999e+01 -1.8297521999999997e+00
0.0000000000000000e+00 1.7503399999999999e+01 3.3839999999999998e-01
ITEM: ATOMS id type q x y z
4 4 1.46691 4.843 4.28804 1.66584
3 4 1.13585 3.571 1.78521 2.58836
280 2 0.1597 1.93443 1.03914 6.23228
71 4 0.749074 -1.19313 2.14634 3.79983
23 2 0.146787 3.59825 1.11524 4.81141
24 2 0.15861 5.31144 1.1874 4.3968
25 2 0.148508 0.967613 1.04985 2.38706
26 2 0.158446 1.32628 2.89972 3.07239
27 2 0.125852 1.75648 1.39247 4.28212
41 1 -0.686064 4.34554 0.802219 4.01105
42 1 -0.629374 1.66004 1.79673 3.13017
48 3 -0.760682 3.6028 0.807958 1.17595
49 3 -0.82263 3.86154 3.29898 2.52342
51 3 -0.793281 3.88984 5.79966 0.991163
230 2 0.154637 6.25407 0.194117 4.6094
72 2 -0.00992464 0.413817 2.47678 4.53532
73 2 0.00446836 -1.70303 3.74888 0.719814
74 2 0.148276 -0.734178 4.24867 3.10201
152 4 1.44422 -2.16749 6.32358 6.03244
76 1 -0.644859 -1.32994 3.42283 2.59812
275 2 0.00267497 -0.5001 2.56838 1.16318
110 2 -0.0302892 2.166 5.08359 7.59923
50 3 -0.852831 5.5238 3.50357 0.449077
150 4 0.791291 -0.753432 3.87854 7.86759
159 2 0.0125246 0.855758 5.17408 5.87787
163 2 0.153439 1.78332 3.56149 6.28004
164 2 0.0680892 -0.078761 2.37641 6.78356
165 2 0.181213 1.47838 3.32691 8.05816
175 1 -0.628571 1.0127 3.63194 7.04841
179 3 -0.79113 -3.17942 5.54368 4.99067
180 3 -0.753066 -1.41505 5.10405 7.03304
195 2 0.0325667 -2.18156 5.92623 0.264614
196 2 0.165365 -0.804412 5.23582 1.76649
310 3 -0.84485 6.88294 1.14099 0.997455
198 1 -0.65951 -0.499401 6.28262 1.25565
197 2 0.156175 0.472948 6.12526 0.696108
33 2 0.173465 3.78111 6.24321 3.91488
94 4 0.626672 0.150794 1.99341 12.0541
95 4 1.23155 2.66171 2.23866 10.613
147 2 0.0938109 -2.20169 6.2983 13.2138
219 2 0.176293 3.27358 2.48575 15.7494
103 2 0.0225566 -0.246673 0.457366 11.3085
104 2 0.00616741 -0.524962 2.38996 10.5336
105 2 -0.058365 -0.785347 2.10155 13.4437
108 2 0.023025 1.29967 5.31841 16.053
111 2 0.0773477 2.24764 3.65267 12.9717
290 1 -0.661553 0.666194 0.587236 16.0456
156 2 0.040673 -1.76368 3.08545 9.23178
132 3 -0.815699 1.83799 1.38453 9.35048
133 3 -0.804322 1.61776 2.30968 12.2712
134 3 -0.813542 3.97134 1.37069 11.2142
168 2 0.156724 -1.07382 5.24074 9.83549
136 3 -0.775461 3.15155 3.74314 9.80361
100 4 1.14974 3.6742 4.60975 13.1284
276 2 0.0731584 3.26118 0.757145 12.8507
144 2 -0.0688094 -2.20712 4.89097 15.2483
301 2 0.1576 -0.556678 1.02177 9.0432
99 4 0.712833 3.29589 5.04909 8.92795
220 1 -0.647065 4.32451 2.02467 15.8123
289 2 0.156203 -0.00367784 1.28824 16.5466
120 2 0.150756 0.721016 6.00541 13.0391
288 2 0.0978789 1.48489 1.20535 15.3352
97 4 1.13984 5.23415 2.23225 11.8401
167 2 0.0858352 -0.689004 3.91842 11.2739
176 1 -0.639616 -0.541599 4.26517 9.98628
217 2 0.124176 4.42631 1.04078 15.1854
166 2 0.138859 0.567123 4.37781 9.6913
16 2 0.0265767 3.63269 0.468801 16.7243
98 4 0.992086 2.33135 6.49464 16.957
142 4 0.681565 -2.88298 6.43255 15.3306
149 3 -0.753657 -4.4422 6.50207 15.3704
151 4 0.887559 -4.60501 6.55936 10.9078
291 2 0.113611 6.23026 0.963939 9.42619
109 2 0.0245398 2.80742 6.51042 9.90264
208 4 0.952866 -3.8467 9.43591 0.149162
171 2 0.147631 -4.08182 10.4492 7.37964
209 2 0.101353 -5.26498 9.44987 1.08349
153 4 0.936558 -3.91619 8.17617 8.00999
154 4 0.905664 0.665855 6.84235 5.50148
155 4 1.00047 2.18044 8.09766 2.81687
22 2 0.160436 -2.87294 12.4073 3.93256
160 2 -0.057305 1.33919 7.53348 6.86112
83 2 0.145106 -4.82918 11.9735 6.34594
177 1 -0.650792 -3.25276 9.88193 8.02425
169 2 0.177354 -2.21888 9.69359 7.52752
182 3 -0.803059 -2.96775 7.26752 7.07858
183 3 -0.7767 -0.823171 7.19171 5.45677
184 3 -0.761777 1.45148 7.34483 4.08652
185 3 -0.806557 1.32905 8.9368 1.72983
193 4 1.09159 -2.40186 7.12795 1.49564
194 2 0.167159 -0.283057 7.2824 2.11126
279 2 0.207086 -6.53576 12.5156 6.9217
234 4 1.05309 0.458007 9.88244 0.839513
161 2 0.0827219 3.14349 7.07402 1.89658
200 3 -0.840059 -2.7522 8.48673 0.806667
202 2 0.164153 -4.31054 11.5072 2.6228
203 2 0.201214 -4.23044 9.73913 3.43575
204 2 0.164439 -4.53963 11.2878 4.55222
205 2 0.154462 -6.27741 12.5289 1.12084
206 1 -0.653368 -4.68978 10.8084 3.51498
211 4 0.996766 -0.087264 12.7388 1.9963
199 3 -0.845093 -3.23996 6.58135 2.64806
80 2 0.0243131 -3.66612 12.6623 7.67285
214 3 -0.825097 -0.0717432 11.2244 1.40712
229 2 0.0188407 -0.425434 11.3179 4.91077
212 2 0.0446838 -1.61442 12.635 2.77871
87 1 -0.6701 -5.40476 12.8388 6.83399
157 2 0.00785627 -3.65686 6.85015 12.2948
78 4 1.22714 -5.70488 10.5265 10.8635
79 4 0.734791 -4.37601 11.952 13.3766
210 2 0.00135194 -6.18086 9.21615 16.1011
170 2 0.198194 -3.23806 10.1358 9.14705
82 2 0.102081 -5.14622 8.94929 10.5335
84 2 0.151942 -2.56586 10.5855 13.2515
85 2 0.153185 -3.58733 9.95009 14.8904
86 2 0.0885341 -2.76493 11.8448 15.0328
88 1 -0.637765 -3.1379 10.8694 14.3118
89 3 -0.836224 -5.19713 11.3158 9.49589
90 3 -0.790543 -4.95446 11.0907 12.1578
119 2 0.175288 -0.58311 7.31493 13.1126
277 2 -0.00475895 -1.31414 11.4945 14.0745
121 2 0.148091 1.29719 8.46323 10.4294
146 2 0.177902 -3.47692 8.05285 13.5558
148 1 -0.613713 -2.53222 7.4174 13.7935
145 2 0.123992 -1.60466 8.02858 14.3878
118 2 0.130785 0.390293 7.19854 11.4366
225 2 0.171257 0.0153586 10.4566 9.3042
236 2 0.168371 -0.389639 8.85452 16.2402
239 1 -0.660567 -0.952658 9.9113 16.4909
129 1 -0.627317 0.467262 7.04676 12.6861
283 2 0.153217 -5.61645 8.66917 14.3451
226 2 0.133722 -0.629723 12.0382 10.2711
181 3 -0.769749 -4.28477 7.70924 9.83935
287 2 0.157225 -7.09609 12.5336 15.5219
237 2 0.17778 -1.80899 10.1803 15.8741
235 2 0.108152 -0.149822 10.9681 16.6101
238 2 0.047685 -2.57288 9.34713 17.3845
81 2 -0.0207036 -5.5093 12.3515 14.65
131 1 -0.649687 0.666352 7.09603 15.9923
124 2 0.155073 0.535867 6.94855 14.8128
125 2 0.109927 1.3613 8.27399 16.2163
1 4 0.989796 -5.19202 12.9095 17.321
112 2 0.0340158 1.32556 8.23688 13.6408
231 1 -0.647224 0.306336 11.391 9.88063
77 4 1.05191 -5.06668 12.7003 8.75381
126 2 0.12981 -0.300361 7.06267 16.6429
309 3 -0.813986 -5.42158 11.3262 17.4719
143 2 -0.000238291 -2.35535 7.08447 16.9217
2 4 1.51408 11.2545 5.80193 3.74337
223 2 -0.0120873 9.30686 0.208645 4.67878
5 4 0.909118 11.1545 0.758335 1.82861
61 3 -0.87004 7.43587 5.91307 4.59561
7 4 1.27267 11.8341 1.65864 6.02048
8 4 1.27212 9.66294 3.38307 2.35651
62 3 -0.830819 9.26411 4.90459 6.26763
215 4 1.0921 6.63868 2.43405 0.0828273
11 4 1.10168 9.70428 3.60223 7.02049
19 2 0.00595255 8.39912 2.84419 7.92109
294 2 0.171862 6.66003 2.00206 7.74821
228 2 0.149387 7.73881 1.2114 4.96
128 1 -0.673782 4.95383 5.55612 8.32048
29 2 0.178145 7.90321 2.13408 3.81387
30 2 0.252732 7.49654 3.88284 3.078
31 2 0.226482 8.58465 3.69835 4.48978
32 2 0.152029 4.79697 6.04413 5.48466
116 2 0.120503 4.77017 5.30894 7.16621
44 1 -0.693076 8.25797 3.2058 3.55204
75 2 0.231725 12.9019 3.5744 2.64444
12 4 1.42786 8.85175 6.26869 5.34065
52 3 -0.779761 12.345 1.37989 1.02278
53 3 -0.782142 12.9464 1.97814 4.88457
54 3 -0.814379 12.611 1.27625 7.36601
55 3 -0.80443 9.95121 1.80179 1.94236
56 3 -0.80385 10.7739 4.11222 3.13114
57 3 -0.800666 5.89967 4.94177 2.57969
58 3 -0.816383 8.97482 4.45572 0.850553
59 3 -0.836458 10.649 2.60775 6.31059
232 1 -0.674317 7.35708 0.306331 4.38982
18 2 -0.0224224 11.2972 0.142538 5.41906
274 2 0.010877 14.5996 0.628774 2.98722
35 2 0.166665 10.7745 5.07421 8.41256
9 4 1.317 6.33353 6.41739 3.60979
91 4 0.590498 13.4676 2.10492 0.161376
286 2 0.149515 14.5944 0.259891 1.37825
216 2 0.105836 8.08767 3.31844 0.0411975
213 2 0.0301891 8.5948 0.197453 2.95039
28 2 0.16917 13.4544 0.631688 10.4723
36 2 0.164848 11.0986 3.26564 9.17737
37 2 0.150053 9.33146 4.1342 9.51812
297 2 0.140844 9.85446 0.738995 10.7788
162 2 -0.0158632 11.3072 5.04333 10.2863
92 2 -0.0178338 12.3676 1.35265 16.4465
93 2 -0.0408 11.0632 3.34811 16.3217
293 1 -0.626032 7.01306 1.78985 8.76149
295 2 0.163508 10.0844 1.98239 9.3406
102 4 1.21821 4.82565 6.05786 15.3049
218 2 0.174415 5.16181 2.75567 15.2947
107 2 0.0176053 6.26741 2.43238 10.4733
249 2 0.0301962 7.68488 4.98369 9.20179
114 2 0.0443679 7.1058 2.83262 14.8575
127 1 -0.609763 7.4741 1.06966 15.2115
137 3 -0.833917 5.03534 3.75099 12.347
292 2 0.155194 7.40288 2.75024 9.39443
139 3 -0.808604 3.9666 4.6806 14.7179
140 3 -0.853079 6.11855 5.83471 16.1902
191 3 -0.818455 8.56167 6.60673 16.8222
187 4 0.665774 8.20652 3.88876 13.7627
188 2 -0.0244206 8.73663 2.35764 14.312
189 2 -0.000333851 8.90231 3.72529 12.1216
190 2 0.0512242 6.64457 4.11844 13.2031
186 4 1.2441 9.17502 6.49522 15.3613
192 3 -0.787714 8.7192 5.17453 14.4076
135 3 -0.792809 6.06448 1.2154 12.8552
252 2 0.18618 5.9435 5.82308 12.0352
298 1 -0.654678 9.90421 0.834056 9.65975
251 2 0.126776 8.20078 3.18863 10.6861
242 2 0.129484 11.3686 2.0321 12.1672
243 2 0.181074 11.9234 0.981639 10.8127
244 2 0.118021 12.7046 1.15132 14.5645
245 1 -0.679401 12.1583 1.33722 11.8443
43 1 -0.661914 14.2253 0.220853 9.55839
299 2 0.124963 8.57285 0.735859 15.2994
255 1 -0.650565 7.68273 4.24 10.7048
250 2 0.169457 6.66023 4.19758 11.1618
247 4 0.742692 7.83114 6.18962 10.7362
241 2 0.107464 13.1533 1.87271 11.9501
138 3 -0.783801 3.2914 6.04059 12.6379
117 2 0.16353 5.58458 4.76089 8.8739
300 2 0.143205 6.75033 0.699617 16.0697
257 3 -0.785887 9.27416 6.56462 11.229
46 1 -0.674786 10.3278 4.01876 8.7792
10 4 1.56864 7.07136 6.14286 17.4925
13 4 1.47941 7.59889 8.14728 1.51895
14 4 0.944857 7.01048 8.07064 6.82424
15 4 1.26276 6.76129 10.7385 5.5998
207 1 -0.667394 8.14168 12.2292 1.56944
201 4 1.14196 8.93822 10.7672 3.01568
158 2 0.10989 9.94724 8.08132 7.18978
34 2 0.187635 4.70885 7.81516 4.71472
38 2 0.15566 5.16564 10.9898 3.49404
262 2 0.0285278 5.69098 11.7465 0.165769
40 2 0.133646 4.46619 11.1872 5.33327
20 2 -0.0368283 6.74863 8.31761 8.49885
47 1 -0.65812 5.28528 11.5347 4.5474
63 3 -0.822154 6.51628 7.79211 2.72741
64 3 -0.891078 8.39162 7.03118 0.792383
65 3 -0.765405 8.89039 9.46529 2.13711
66 3 -0.792559 6.86882 9.20425 0.500921
67 3 -0.812253 8.53001 7.7368 6.58475
68 3 -0.746649 8.07705 10.8139 4.33614
69 3 -0.818104 6.31012 9.16139 5.92674
70 3 -0.839401 6.90432 11.7134 6.8058
172 2 0.143569 2.80444 10.4382 3.74453
173 2 0.15186 4.1233 9.05644 3.46811
174 2 0.146032 3.01045 9.08882 5.03864
178 1 -0.641312 3.06841 9.40653 3.90324
6 4 1.21089 5.95585 12.5495 7.98718
224 2 -0.0321712 2.14681 10.4128 5.3272
270 3 -0.816587 4.704 11.544 8.67659
263 2 0.165988 4.27373 10.1407 0.87486
222 4 0.616155 1.19803 11.7948 5.66271
233 3 -0.716727 1.09789 12.3012 7.31982
267 2 -0.0556609 4.32918 8.98538 8.16562
60 3 -0.837897 10.001 6.64942 4.31777
17 2 -0.0122597 3.51006 12.0772 0.983617
21 2 -0.0136929 6.01493 6.64811 7.09684
285 2 0.17683 7.77476 11.3022 1.00793
39 2 0.165385 5.57968 12.6397 4.45571
45 1 -0.66664 4.6839 6.64678 4.57039
115 2 0.0942458 5.22722 6.69624 8.69164
278 2 -0.0395597 4.32059 12.761 3.27482
141 3 -0.801381 3.81496 6.96868 16.1165
122 2 0.115613 2.83064 8.42314 9.43965
113 2 -0.00629681 5.37719 7.07084 13.9907
307 2 0.123294 2.54801 12.742 12.3394
123 2 0.00569623 3.46361 9.07513 11.6403
130 1 -0.64483 2.36837 8.25157 10.4407
265 4 0.942212 4.62889 10.1512 9.38037
246 1 -0.652333 5.31918 12.7996 14.9749
308 1 -0.635058 3.01114 11.7471 12.707
248 2 0.0209647 6.69578 7.52374 10.4364
106 2 -0.00405197 1.21387 12.1105 13.2276
227 2 0.152502 1.16026 11.2555 10.6216
256 1 -0.665083 6.10379 6.91589 12.1646
258 4 0.709913 4.35402 10.5031 16.9807
259 2 -0.0284603 5.06149 10.9041 15.4585
260 2 0.0541748 2.66319 9.78471 16.2638
96 4 0.695719 -0.343357 12.9256 13.7904
264 1 -0.636041 2.45337 10.9505 17.3684
303 2 0.144831 6.21564 12.3055 15.4613
254 2 0.145653 6.73353 7.11864 13.0536
284 1 -0.661453 8.72524 8.15381 14.5164
266 4 1.21935 6.67046 10.1954 11.5512
268 2 -0.00131276 3.06669 10.0877 10.1956
269 2 -0.00102074 6.62417 8.75989 12.537
271 3 -0.853854 8.20581 10.3287 11.1231
272 3 -0.824624 5.87369 9.82167 10.2349
273 3 -0.8007 5.87649 11.3717 12.3499
281 2 0.132184 7.92861 8.95549 14.8798
282 2 0.173998 8.42812 7.64888 13.5184
240 4 0.868486 4.85732 12.4283 12.9326
253 2 0.171229 5.12073 7.4152 12.2915
304 2 0.114132 4.29777 12.6599 15.4564
305 2 0.098377 3.07341 11.5506 13.9618
306 2 0.146621 2.95654 10.7884 12.1258
261 2 0.147635 1.52546 11.506 17.1294
101 4 0.695359 2.43595 7.61204 12.2073
302 2 0.222405 7.55615 11.9597 9.76101
221 4 0.869875 0.97919 12.8432 8.85696
296 2 0.243402 3.49611 12.8567 9.21704
ITEM: TIMESTEP
200
ITEM: NUMBER OF ATOMS
310
ITEM: BOX BOUNDS xy xz yz pp pp pp
-9.0649152000000015e+00 1.5473045600000001e+01 -7.2315108000000006e+00
0.0000000000000000e+00 1.3079499999999999e+01 -1.8334044000000009e+00
0.0000000000000000e+00 1.7503399999999999e+01 3.3839999999999998e-01
ITEM: ATOMS id type q x y z
4 4 1.43623 4.8163 4.25066 1.56225
3 4 1.07301 3.42732 1.82804 2.70411
280 2 0.163249 1.37714 1.30576 6.7595
71 4 0.727361 -1.16394 2.15897 3.85104
23 2 0.144604 3.76457 1.33637 5.21111
24 2 0.150644 5.23978 1.72959 4.15795
25 2 0.15923 0.854413 0.89798 2.67067
26 2 0.147579 1.13785 2.79676 2.94961
27 2 0.136182 1.87216 1.55418 4.42003
41 1 -0.662539 4.29588 1.02103 4.238
42 1 -0.657272 1.50808 1.74505 3.23201
48 3 -0.752807 3.58101 0.674215 1.26038
49 3 -0.82044 3.88493 3.30793 2.43469
51 3 -0.794739 3.77785 5.7674 0.944906
197 2 0.143453 0.125139 5.88829 0.369462
72 2 0.00060621 0.367954 2.56836 4.57501
73 2 0.000845876 -1.32745 3.69893 0.614091
74 2 0.144859 -0.915315 4.28175 3.19802
152 4 1.4172 -2.18538 6.27063 6.2465
76 1 -0.620368 -1.43478 3.33793 2.52598
275 2 0.0113622 -0.465845 2.35161 1.34864
110 2 -0.0352114 2.13606 5.04505 7.83945
50 3 -0.820614 5.48013 3.3322 0.303824
150 4 0.800188 -0.565148 3.98562 7.87909
159 2 0.0154972 1.0036 5.3432 6.04288
163 2 0.150128 1.92364 3.53763 6.05688
164 2 0.064336 0.0837016 2.51433 6.57714
165 2 0.144912 1.63511 3.46513 7.96853
175 1 -0.624773 1.15983 3.66102 6.90109
179 3 -0.755888 -3.11118 5.51485 5.07175
180 3 -0.803128 -1.38782 5.09488 7.11727
195 2 0.0446313 -2.42963 5.84315 0.160892
196 2 0.176136 -1.01048 5.05095 1.57264
310 3 -0.815742 6.90088 1.1908 1.04037
198 1 -0.676608 -0.725212 6.10627 1.04697
87 1 -0.691747 1.77887 0.204389 6.80876
33 2 0.169887 3.80433 6.09412 4.14598
230 2 0.1639 6.37445 0.189964 4.70615
212 2 0.0228675 5.54671 0.0839821 3.0701
291 2 0.148681 5.9188 1.38796 8.65998
94 4 0.644045 0.18227 1.98827 11.7028
95 4 1.27182 2.78612 2.23662 10.5271
157 2 0.000835734 -3.88449 6.58572 12.3182
219 2 0.193298 3.33693 2.55728 15.6206
103 2 0.0233655 -0.154617 0.395929 11.3316
104 2 0.00434187 -0.274922 2.46767 10.1154
105 2 -0.0548804 -1.0433 2.36795 12.8642
108 2 -0.00583753 1.17991 5.37311 15.7903
111 2 0.0812839 2.52509 3.50929 12.8731
290 1 -0.664847 1.25049 0.833249 15.9846
156 2 0.0420679 -1.5805 3.05646 9.08216
132 3 -0.851694 1.88169 1.33283 9.46375
133 3 -0.783427 1.61953 2.35322 12.1611
134 3 -0.833623 4.15317 1.38024 11.2484
168 2 0.162553 -1.17288 5.40042 9.80065
136 3 -0.816377 3.26328 3.63929 9.89747
100 4 1.12569 3.85647 4.56776 13.1043
276 2 0.0844407 3.36325 0.741287 12.7302
144 2 -0.0670146 -2.23884 5.08336 15.1737
301 2 0.151611 -0.489335 1.06468 9.09918
99 4 0.704988 3.33178 5.03111 9.15814
220 1 -0.658533 4.30839 2.00788 15.7826
289 2 0.154796 0.72477 1.68635 16.659
120 2 0.138053 0.54289 6.05684 13.3109
288 2 0.139576 2.02108 1.27515 15.3172
97 4 1.11139 5.44017 2.04969 11.7168
167 2 0.10517 -0.678782 3.9842 11.0892
176 1 -0.645431 -0.586047 4.42481 9.92303
217 2 0.134356 4.28154 0.991934 15.3752
166 2 0.108184 0.552469 4.66156 9.70182
16 2 0.0276643 3.69359 0.45426 16.7892
98 4 1.02446 2.16266 6.36499 16.8954
142 4 0.710439 -3.01524 6.60333 15.3119
149 3 -0.784616 -4.54495 6.57017 15.3925
109 2 0.0284766 2.92558 6.36802 10.2353
208 4 0.950895 -3.92389 9.3604 0.271411
171 2 0.127632 -3.96812 10.4791 7.41314
77 4 1.05586 -5.13299 12.7193 8.71588
153 4 0.94111 -4.13883 8.28656 7.98769
154 4 0.938946 0.526024 6.92417 5.37114
155 4 1.0317 2.0434 7.93448 2.98614
22 2 0.15094 -2.614 12.6725 4.39938
160 2 -0.0682118 1.12962 7.81105 6.64767
83 2 0.155453 -4.55 12.7802 6.15104
177 1 -0.651691 -3.17844 9.82418 7.997
169 2 0.173461 -2.16035 9.87017 7.47419
182 3 -0.775746 -3.16855 7.27065 7.16488
183 3 -0.757317 -1.03798 7.15111 5.2733
184 3 -0.839944 1.37816 7.12716 4.10451
185 3 -0.808091 1.19178 8.83041 1.91277
193 4 1.08338 -2.47968 7.03735 1.37101
194 2 0.168565 -0.324208 6.94775 1.95654
279 2 0.215246 -6.24444 12.1687 6.7095
234 4 1.01445 0.395744 9.77758 0.917638
161 2 0.0971714 2.86576 6.86953 1.9229
200 3 -0.839904 -2.70677 8.45646 0.769294
202 2 0.175768 -4.64696 12.0468 2.93746
203 2 0.183551 -4.0148 10.1801 3.03068
204 2 0.169944 -4.58021 11.0518 4.63945
205 2 0.142771 -6.26658 12.3033 1.20265
206 1 -0.658138 -4.71791 10.9715 3.47819
211 4 1.00203 -0.303057 12.724 1.99913
199 3 -0.770393 -3.33484 6.45491 2.56367
80 2 -0.001685 -3.74495 12.5371 7.67617
214 3 -0.811755 -0.0592459 11.3239 1.38844
229 2 0.00763558 -0.30988 11.2396 5.02968
309 3 -0.807874 -3.59972 10.8939 0.145347
209 2 0.0713365 -5.24854 9.25715 1.25735
238 2 0.0575322 -0.723511 8.85009 0.0379229
1 4 1.01567 -3.24056 12.4955 0.0139156
302 2 0.251363 -7.76254 12.0778 10.0274
78 4 1.20431 -5.68593 10.5716 10.7865
79 4 0.777833 -4.39432 11.9564 13.2248
210 2 -0.00130689 -6.34848 9.15302 16.2926
170 2 0.162845 -3.12338 10.0687 9.1235
82 2 0.0734096 -5.09215 9.02925 10.4409
84 2 0.139489 -2.35812 10.9026 13.4901