ITEM: TIMESTEP
0
ITEM: NUMBER OF ATOMS
310
ITEM: BOX BOUNDS xy xz yz pp pp pp
-9.0288000000000004e+00 1.5411400000000000e+01 -7.2027000000000001e+00
0.0000000000000000e+00 1.3079499999999999e+01 -1.8261000000000001e+00
0.0000000000000000e+00 1.7503399999999999e+01 3.3839999999999998e-01
ITEM: ATOMS id type q x y z
4 4 1.46686 4.81013 4.22831 1.53647
3 4 1.10678 3.51928 1.70571 2.52847
280 2 0.17812 0.805078 0.897903 6.6672
71 4 0.789865 -1.09636 2.04579 3.84759
23 2 0.153463 4.38652 1.19941 4.90235
24 2 0.129341 5.85628 1.04006 3.76899
25 2 0.157725 1.05038 0.756932 2.69364
26 2 0.147601 1.49902 2.7126 3.11682
27 2 0.133697 2.21867 1.32611 4.40007
41 1 -0.666602 4.73366 0.747364 3.93008
42 1 -0.638869 1.75485 1.56281 3.32078
48 3 -0.789714 3.2523 0.798606 1.26298
49 3 -0.807224 3.7937 3.33452 2.40547
51 3 -0.82115 3.98156 5.78204 0.781941
152 4 1.41461 -2.21025 6.27117 6.23071
72 2 -0.00528475 0.468838 2.00961 4.70973
73 2 0.00616653 -1.39973 3.51629 0.722142
74 2 0.124311 -0.570823 4.10445 3.23332
310 3 -0.840372 6.97383 0.971688 0.750178
76 1 -0.628763 -1.29344 3.28356 2.63854
275 2 0.00689504 -0.487634 2.22211 1.42122
110 2 -0.00816454 1.74832 5.24428 7.60082
50 3 -0.825103 5.38137 3.29178 0.381547
150 4 0.830269 -0.677467 4.10411 7.97612
159 2 -0.00876072 0.8211 4.93047 5.70352
163 2 0.149725 1.5034 3.47257 6.24261
164 2 0.0603916 -0.572651 2.54287 7.08332
165 2 0.233699 1.25565 2.93343 8.03735
175 1 -0.657329 0.966532 3.68108 7.2116
179 3 -0.787676 -3.16577 5.46376 5.04835
180 3 -0.825639 -1.42992 5.20459 7.17727
195 2 0.0400891 -2.25792 5.80817 0.317951
196 2 0.176881 -0.893432 5.14451 1.83982
198 1 -0.643672 -0.766791 6.22961 1.32501
77 4 1.04954 2.06383 0.220252 8.66774
197 2 0.161952 0.262125 6.28868 0.796219
94 4 0.644621 0.320079 1.86056 12.0007
95 4 1.28219 2.76754 2.47599 10.479
98 4 1.08724 2.13318 6.63287 16.8489
219 2 0.163708 3.41464 2.20045 15.5242
103 2 0.0562581 0.184037 0.369579 11.1321
104 2 -0.0221591 -0.770736 2.85803 11.0766
105 2 -0.0456706 -0.456154 1.66482 13.4502
108 2 0.104307 0.572481 5.41099 15.8541
111 2 0.0718916 2.56781 3.4709 13.0946
290 1 -0.658284 0.591627 0.727716 15.951
43 1 -0.688167 -1.10239 0.406623 9.60378
132 3 -0.832716 1.74381 1.64435 9.1647
133 3 -0.793822 1.78807 2.31157 12.1248
134 3 -0.828769 4.11174 1.62908 10.9302
168 2 0.153253 -0.508591 5.57333 9.69691
136 3 -0.78244 3.11745 3.85896 9.72713
143 2 -0.0198035 -2.33177 6.44384 16.8889
147 2 0.111807 -1.98898 6.44221 13.3346
144 2 -0.063364 -2.5444 4.55044 15.1319
301 2 0.172977 -0.404045 1.27905 9.39165
156 2 0.049525 -1.75345 3.51854 9.39878
220 1 -0.647456 4.44241 1.75556 15.6899
289 2 0.138576 -0.361135 1.02645 16.656
149 3 -0.770477 -4.61578 6.23091 15.3289
288 2 0.139361 0.832492 1.51683 15.1512
142 4 0.706888 -3.09614 6.12808 15.353
167 2 0.147861 -0.779531 4.72376 11.1545
176 1 -0.680126 -0.473213 4.57713 10.1206
217 2 0.15537 4.61207 0.743432 15.4713
166 2 0.149527 0.590957 4.16643 10.0702
16 2 0.0132835 3.11072 0.647136 16.5534
99 4 0.701286 3.14095 5.22974 8.8473
276 2 0.0525551 3.96131 0.686479 12.9353
162 2 -0.0115415 -3.82946 5.50144 10.1794
100 4 1.15145 3.88079 4.53285 13.0469
109 2 0.0101782 2.69614 6.5353 9.88746
208 4 0.944047 -3.99883 9.40995 0.190469
171 2 0.15334 -4.35021 10.4692 6.94142
230 2 0.155654 -0.0712534 10.7716 3.76173
153 4 0.943019 -3.98382 8.357 7.98575
154 4 0.937584 0.456448 6.5941 5.28607
155 4 0.995949 2.0192 7.76271 2.70729
22 2 0.167307 -2.71047 12.3801 3.96547
160 2 -0.059174 1.33257 7.18599 6.5727
279 2 0.195479 -6.20862 11.8078 6.96392
177 1 -0.664013 -3.50096 10.0895 7.5994
169 2 0.186706 -2.50293 10.0984 7.14505
182 3 -0.804319 -3.12911 7.39749 7.1804
183 3 -0.77587 -0.947914 7.13484 5.39263
184 3 -0.794056 1.28633 7.00483 3.93414
185 3 -0.822954 1.05514 8.55122 1.61579
193 4 1.02779 -2.52158 7.1367 1.41119
194 2 0.170141 -0.658636 7.25774 2.38007
232 1 -0.655506 0.0195866 11.635 4.52042
234 4 1.07055 0.403802 9.57872 0.694654
199 3 -0.771031 -3.41489 6.65552 2.64599
200 3 -0.815409 -2.70724 8.64958 0.705544
202 2 0.159371 -4.71347 11.8315 3.2239
203 2 0.187104 -4.66634 10.0321 3.96161
204 2 0.179198 -5.08044 11.5711 5.13152
161 2 0.0833973 3.05884 6.72681 1.82282
206 1 -0.669899 -5.02908 11.1342 4.08111
211 4 0.963865 -0.253121 12.4112 1.64859
212 2 0.000821692 -1.74469 12.3312 2.48038
205 2 0.152841 -6.12668 12.2116 1.5782
214 3 -0.852704 0.122795 11.0634 1.0832
228 2 0.164006 -0.773742 12.3875 4.28737
229 2 0.0556344 -0.777942 10.5561 5.6516
83 2 0.144452 -5.01888 12.7879 5.77597
87 1 -0.669532 -5.65242 12.8045 6.78415
80 2 0.0121773 -3.79985 12.8141 7.63757
151 4 0.907693 -4.36991 6.93119 10.9135
78 4 1.2239 -5.65442 10.8273 10.8789
79 4 0.758541 -4.1373 12.0798 13.4124
287 2 0.142466 -6.87998 12.4691 15.3448
235 2 0.134706 0.0671496 10.5307 16.6461
82 2 0.084942 -4.90477 9.30464 10.5448
84 2 0.160003 -2.54337 10.3975 13.1922
85 2 0.139106 -3.79735 10.2615 14.7275
86 2 0.134669 -2.21771 11.3019 14.9862
88 1 -0.674545 -2.91645 10.877 14.2161
89 3 -0.854548 -5.43582 11.6535 9.56834
90 3 -0.782562 -4.86843 11.5508 12.1615
119 2 0.160507 -0.06655 8.39694 13.4677
277 2 -0.0150999 -1.1607 11.7509 13.8555
210 2 -0.0164177 -6.4322 9.00922 16.2941
146 2 0.187894 -3.10701 8.01591 13.6014
148 1 -0.647201 -2.41687 7.34172 14.0417
145 2 0.148768 -1.60287 7.79519 14.7428
118 2 0.130516 0.620765 7.83033 11.5894
1 4 0.966997 -5.54204 12.9109 17.3688
236 2 0.164027 -0.320783 8.65572 16.0652
239 1 -0.662321 -0.815133 9.66056 16.4033
129 1 -0.618593 0.672985 7.67927 12.8501
283 2 0.146862 -5.66702 8.72109 14.8454
231 1 -0.663426 -0.45129 12.222 9.79455
181 3 -0.777876 -3.98168 8.08226 9.97419
238 2 0.0496308 -2.51633 9.06018 17.1239
237 2 0.163756 -1.54688 10.0833 15.5512
126 2 0.135158 -0.417996 6.94083 16.535
225 2 0.17101 -0.597827 11.2103 9.33213
125 2 0.0378819 1.29561 8.21916 16.7568
81 2 -0.0151866 -5.31804 12.7433 14.524
124 2 0.169138 0.534101 7.05816 14.775
226 2 0.180396 -1.38359 12.7688 9.85447
157 2 -0.00536892 -3.45085 6.92486 12.3099
309 3 -0.815745 -5.65296 11.2705 17.4405
131 1 -0.689214 0.47328 6.69258 15.9008
120 2 0.160299 0.50501 6.63164 13.1254
170 2 0.159532 -3.51159 10.479 8.77728
2 4 1.5724 11.1836 5.73673 3.92465
9 4 1.32174 6.40427 6.16982 3.46412
5 4 0.906726 10.9316 0.695804 1.72105
61 3 -0.848276 7.51329 6.0199 4.61801
7 4 1.24182 12.0825 1.71663 6.06134
8 4 1.31823 9.68558 3.35511 2.62381
62 3 -0.845717 9.2226 5.01092 6.44248
35 2 0.170381 11.1074 5.40143 8.50432
11 4 1.0893 10.0354 3.84194 7.10241
19 2 -0.00852992 8.8789 2.96194 8.05458
294 2 0.163703 7.34032 2.60886 7.08509
18 2 -0.0216868 11.252 0.276403 5.59755
128 1 -0.644065 4.88267 5.45514 8.2522
29 2 0.148508 8.00827 2.02151 3.6927
30 2 0.270989 7.20336 3.74711 3.20039
31 2 0.205646 8.45889 3.56752 4.66744
216 2 0.1215 8.11454 3.22622 0.199588
116 2 0.101157 4.52799 5.96032 7.19466
44 1 -0.691556 8.13509 3.15224 3.66818
286 2 0.129865 14.8247 0.287151 1.18413
291 2 0.159882 5.87059 2.34104 7.98454
52 3 -0.74098 12.2746 1.20415 0.87775
53 3 -0.797301 13.1489 2.05619 4.84914
54 3 -0.808579 12.8251 1.46172 7.49404
55 3 -0.835603 10.1989 1.91512 2.32369
56 3 -0.855315 10.6264 4.42745 3.27078
57 3 -0.836934 5.98507 4.67233 2.4814
58 3 -0.768931 9.15585 4.13875 0.857895
59 3 -0.800764 11.0595 2.84035 6.31608
75 2 0.230806 12.9664 3.46109 2.74616
293 1 -0.649248 7.01133 2.37885 8.09789
91 4 0.585961 13.5597 1.89702 0.170414
274 2 0.0285598 14.5175 0.447767 2.99048
12 4 1.47045 8.7534 6.34452 5.5711
221 4 0.897621 7.98111 0.511822 8.62498
10 4 1.49044 8.90878 5.62025 0.0577545
45 1 -0.636202 4.82114 6.29106 4.57906
117 2 0.185441 5.51588 4.50419 8.1816
32 2 0.157005 5.25753 6.45534 5.66812
33 2 0.178382 4.35087 5.27893 4.43084
28 2 0.174544 13.5406 0.741638 10.4371
36 2 0.170725 11.4408 3.66963 9.26899
37 2 0.131247 9.56339 4.46797 9.46427
297 2 0.122705 9.27802 0.645127 10.4957
138 3 -0.79517 3.28583 5.90914 12.6388
92 2 -0.0264776 12.75 1.3129 16.5984
93 2 -0.0299872 11.288 3.44309 16.5533
46 1 -0.678027 10.7256 4.35296 8.77843
295 2 0.137772 9.94614 1.70965 8.94277
102 4 1.26971 4.77398 5.93901 15.3167
218 2 0.160703 5.38213 2.55514 15.3058
107 2 -0.00648174 6.40419 2.36941 9.99769
249 2 0.052861 7.90094 5.53193 9.13643
114 2 0.0611405 7.25958 2.73366 14.8484
127 1 -0.604353 7.64983 1.10402 15.0972
137 3 -0.797869 5.22869 3.80897 11.9914
299 2 0.111682 8.7777 0.73891 15.0653
139 3 -0.840069 4.49092 4.54318 14.5493
140 3 -0.856953 5.92339 5.9247 16.3684
186 4 1.2397 9.1482 6.51514 15.4587
187 4 0.645892 8.09022 3.91889 13.6717
188 2 -0.00909154 8.76721 2.36852 14.1324
189 2 -0.0116632 8.62172 3.74065 12.0095
190 2 0.0961547 6.44312 4.03096 13.076
191 3 -0.818058 8.55883 6.51785 16.9808
192 3 -0.753644 8.60177 5.17349 14.5167
135 3 -0.782586 6.41335 1.40736 12.5578
252 2 0.157879 6.55231 5.76359 12.5833
298 1 -0.659944 9.68074 0.648535 9.42997
251 2 0.122943 8.65196 3.60231 10.275
242 2 0.126484 11.469 2.0355 12.3756
243 2 0.177415 11.8195 1.03022 10.8483
292 2 0.15042 7.4032 3.1658 8.91993
245 1 -0.671061 12.2286 1.3936 11.8242
97 4 1.12595 5.47766 2.29585 11.4056
244 2 0.125936 13.0349 1.26179 14.5924
255 1 -0.653633 7.86291 4.48322 10.3996
250 2 0.173459 6.8024 4.10139 10.4891
247 4 0.777487 8.09228 6.33676 10.9869
96 4 0.67689 7.12694 0.330797 13.5474
300 2 0.142725 6.95224 0.496912 15.8337
141 3 -0.835338 3.43872 6.60993 15.9506
215 4 1.04717 4.80012 2.61678 17.4398
115 2 0.116829 5.21897 6.22622 9.12549
241 2 0.12877 13.185 1.87085 11.6792
13 4 1.4373 7.61577 8.11906 1.672
14 4 0.962728 6.90727 8.29745 7.11294
15 4 1.28416 6.52872 10.8001 5.68584
39 2 0.150533 5.39112 12.6064 4.39323
201 4 1.05844 8.67021 10.7587 3.28648
285 2 0.174557 7.69927 11.1372 1.21265
34 2 0.178548 4.23068 7.29047 4.21138
38 2 0.180358 4.83063 10.8884 3.66087
158 2 0.0857909 9.86366 8.14521 7.3537
40 2 0.131099 4.2536 11.2775 5.46334
6 4 1.21151 6.09416 12.7034 8.0402
47 1 -0.659304 4.95561 11.5364 4.58245
63 3 -0.809293 6.45587 7.61406 2.76063
64 3 -0.825532 8.37471 6.80234 1.03636
65 3 -0.771362 8.6984 9.23638 2.38405
66 3 -0.771207 6.82056 9.09165 0.407296
67 3 -0.830696 8.34183 7.71466 6.8661
68 3 -0.78494 7.55058 10.8253 4.43851
69 3 -0.841105 6.13993 9.32288 6.26766
70 3 -0.839791 6.88747 11.9027 6.89256
172 2 0.138676 2.88838 9.97983 3.10424
173 2 0.199302 4.3267 8.68661 3.11379
174 2 0.150336 3.19491 8.75349 4.65228
178 1 -0.677652 3.29464 8.92841 3.5016
20 2 -0.00568436 6.75112 8.71094 8.7284
224 2 -0.0574131 1.91446 9.91414 6.2343
209 2 0.0698556 10.0946 9.18573 1.24234
223 2 0.0285907 1.67811 12.1149 4.48619
222 4 0.678696 0.928956 11.326 6.07035
233 3 -0.746362 0.890088 12.3802 7.37651
267 2 -0.0512954 4.45936 8.92887 8.42587
60 3 -0.800892 9.97623 6.68551 4.62834
21 2 -0.0251194 5.87222 7.01648 7.52783
263 2 0.155896 3.60623 9.35452 0.168359
278 2 -0.0286693 4.23959 12.2819 2.78116
207 1 -0.655823 8.15286 12.1326 1.71388
17 2 -0.0243379 2.72743 12.5642 0.735795
270 3 -0.79635 4.64831 11.6655 8.69476
213 2 -0.00803788 0.702098 12.7075 3.01423
296 2 0.26437 3.31827 12.6067 9.11884
122 2 0.11016 3.05449 8.30681 9.49091
113 2 -0.00780747 5.487 7.00707 14.0906
271 3 -0.859629 8.28225 10.5894 11.2985
123 2 0.0255683 4.06599 8.7549 11.627
130 1 -0.637298 2.74623 8.33309 10.58
265 4 0.904066 4.7201 10.2043 9.44712
246 1 -0.646501 5.46561 12.9471 14.937
308 1 -0.642833 3.23924 11.6512 13.095
248 2 0.0143677 6.86757 7.60108 10.7011
106 2 -0.0142709 1.39829 12.3092 13.03
254 2 0.165143 7.41686 7.35839 13.2946
256 1 -0.659864 6.62722 6.9325 12.4972
258 4 0.7102 4.23262 10.2519 16.7971
259 2 -0.0294569 5.07379 11.1169 15.4955
260 2 0.0966569 2.59105 9.26573 15.8018
261 2 0.123586 1.81977 10.988 16.2233
264 1 -0.652202 2.40114 10.1258 16.7768
303 2 0.149465 6.30915 12.2886 15.3548
112 2 0.00404058 2.10993 8.55846 13.7166
284 1 -0.703171 8.85459 8.14564 14.487
266 4 1.21674 6.81671 10.2759 11.5781
268 2 0.00198591 3.32594 10.2015 10.5236
269 2 -0.00306231 6.90353 8.8349 12.6489
304 2 0.113714 4.50104 12.9158 15.5999
272 3 -0.853821 5.97782 9.82524 10.2812
273 3 -0.795795 6.13382 11.493 12.4743
281 2 0.135476 7.90905 8.65853 14.6944
282 2 0.194503 9.01425 7.9045 13.3682
240 4 0.881904 5.04671 12.4385 13.029
253 2 0.141499 5.62739 7.43333 12.4715
257 3 -0.815693 9.50124 6.87905 11.2978
305 2 0.112619 2.94711 12.2649 14.0874
306 2 0.132691 3.1857 10.5223 13.1579
101 4 0.717915 2.70323 7.56656 12.3286
227 2 0.143292 0.149821 12.2706 10.7313
302 2 0.223152 7.58986 12.1456 9.85354
121 2 0.130218 1.84116 9.02586 10.7376
307 2 0.124169 2.96525 12.2057 12.0662
262 2 0.0075386 3.44893 11.6887 17.4071
ITEM: TIMESTEP
100
ITEM: NUMBER OF ATOMS
310
ITEM: BOX BOUNDS xy xz yz pp pp pp
-9.0288000000000004e+00 1.5411400000000000e+01 -7.2027000000000001e+00
0.0000000000000000e+00 1.3079499999999999e+01 -1.8261000000000001e+00
0.0000000000000000e+00 1.7509234466666665e+01 3.3839999999999998e-01
ITEM: ATOMS id type q x y z
4 4 1.45355 4.93902 4.1621 1.47687
3 4 1.1053 3.41903 1.68123 2.52504
280 2 0.150766 1.50582 1.24542 6.41982
71 4 0.762627 -1.03528 2.12333 3.96018
23 2 0.152058 4.42114 1.40014 4.76256
24 2 0.145255 5.85253 1.13394 3.61077
25 2 0.160652 0.942232 0.914254 2.68662
26 2 0.173075 1.33811 2.76567 2.91911
27 2 0.128929 2.00079 1.48021 4.33049
41 1 -0.667246 4.81038 0.816327 3.88224
42 1 -0.672143 1.6345 1.716 3.20078
48 3 -0.786502 3.40145 0.775817 1.17813
49 3 -0.779734 3.80826 3.2402 2.28613
51 3 -0.788047 4.00801 5.65946 0.805577
152 4 1.40528 -2.13192 6.31066 6.23949
72 2 -0.0165472 0.555265 2.48336 4.63361
73 2 0.0182638 -1.38128 3.46789 0.787356
74 2 0.135833 -0.32686 4.0568 3.06717
310 3 -0.847845 6.89136 1.11319 0.880715
76 1 -0.640878 -1.01645 3.24577 2.59659
275 2 0.0117114 -0.407564 2.12009 1.21545
110 2 -0.00834173 1.79993 5.2836 7.75582
50 3 -0.817437 5.44876 3.33691 0.210661
150 4 0.783882 -0.730475 3.95353 7.97624
159 2 -0.00197622 0.689758 4.91294 5.76428
163 2 0.132824 1.03233 3.28635 6.16543
164 2 0.0329485 -0.386654 2.48378 6.9962
165 2 0.201607 1.55773 3.01183 7.9535
175 1 -0.64909 1.02325 3.67449 7.22959
179 3 -0.807555 -2.92367 5.54309 5.07887
180 3 -0.801806 -1.53763 5.14593 7.26021
195 2 0.0557294 -2.19755 6.09628 0.240621
196 2 0.187775 -0.850696 5.13692 1.79906
198 1 -0.658507 -0.736741 6.12517 1.2258
197 2 0.164747 0.210272 6.20175 0.674433
33 2 0.182112 4.18 5.43474 4.29964
75 2 0.194373 -2.15299 3.6095 2.72246
87 1 -0.683647 1.71432 0.167688 6.70842
94 4 0.628199 0.247139 1.94646 12.1378
95 4 1.33532 2.75747 2.36367 10.5929
98 4 1.08291 2.14162 6.55172 16.8
219 2 0.187362 3.26515 2.50618 15.6281
103 2 0.0275676 -0.150947 0.526988 11.3514
104 2 -0.0218601 -0.664703 3.08198 11.2908
105 2 -0.0457454 -0.474229 1.72456 13.6075
108 2 0.0963155 0.504334 5.32434 15.8463
111 2 0.0789434 2.72458 3.4535 12.9966
290 1 -0.665915 0.715174 0.817033 15.8073
226 2 0.166108 5.98831 0.451645 9.71324
132 3 -0.840831 1.97701 1.47911 9.49188
133 3 -0.788578 1.76252 2.30688 12.2637
134 3 -0.81988 4.23887 1.64159 11.0357
168 2 0.150887 -0.545216 5.69543 9.65566
136 3 -0.804056 2.89424 3.85172 9.94332
143 2 -0.0155196 -2.24067 6.32188 16.823
241 2 0.101112 -2.16212 1.87256 11.9633
144 2 -0.0594162 -2.72202 4.71649 14.5598
301 2 0.1536 -0.472643 1.20951 9.21841
156 2 0.0336735 -1.48945 3.41973 9.55713
220 1 -0.634508 4.20148 1.88601 15.705
289 2 0.131297 -0.0702315 1.45138 16.5234
149 3 -0.786447 -4.62465 6.42707 15.4031
288 2 0.134116 1.50109 1.6109 15.4708
142 4 0.682765 -3.0621 6.24672 15.234
167 2 0.133658 -0.587338 4.77525 11.347
176 1 -0.642413 -0.378155 4.67998 10.2082
217 2 0.103408 3.97113 0.767264 15.3259
166 2 0.172211 0.694939 4.34409 10.1398
16 2 0.0193094 3.25663 0.46468 16.6304
99 4 0.724747 3.07464 5.2105 9.1013
276 2 0.0635345 3.75369 0.816874 12.881
162 2 0.000379214 -3.7182 5.46643 10.2507
109 2 -0.00188976 2.15974 6.55242 9.72575
120 2 0.148662 0.342009 6.60735 13.1366
131 1 -0.678782 0.439474 6.65719 15.8653
208 4 0.99796 -4.10806 9.46852 0.252112
171 2 0.138932 -4.23218 10.5823 7.24217
230 2 0.154354 0.0844364 10.713 3.56583
153 4 0.950779 -4.01513 8.40977 7.92423
154 4 0.900511 0.634246 6.66183 5.38111
155 4 1.03093 2.07091 7.70163 2.78636
22 2 0.159155 -2.46711 12.447 4.04145
160 2 -0.059714 1.56516 7.42312 6.5391
279 2 0.196481 -6.4599 12.2582 6.90107
177 1 -0.648347 -3.26883 10.0209 7.62716
169 2 0.182908 -2.40323 10.2105 6.87055
182 3 -0.777786 -3.18578 7.38864 7.08098
183 3 -0.74693 -0.80793 7.28749 5.45898
184 3 -0.791925 1.33426 6.96096 3.9552
185 3 -0.77892 1.32877 8.64584 1.76458
193 4 1.04371 -2.58719 7.23933 1.57065
194 2 0.138236 -0.709344 7.14647 2.08148
232 1 -0.630795 -0.0806557 11.3619 4.54513
234 4 0.961995 0.552863 9.70501 0.5696
199 3 -0.821629 -3.4365 6.66523 2.69155
200 3 -0.8469 -3.02966 8.70278 0.874525
202 2 0.145453 -4.77436 11.8165 2.86843
203 2 0.201763 -4.65956 9.9743 3.73635
204 2 0.167685 -4.94016 11.5136 4.94447
161 2 0.0804465 3.07913 6.65811 1.8529
206 1 -0.637791 -5.03388 11.0443 3.81044
211 4 0.95734 -0.335581 12.5438 1.64075
212 2 0.0175209 -1.83694 12.4081 2.34462
205 2 0.15998 -6.30938 12.554 1.44437
214 3 -0.825347 0.0402253 11.1651 0.944727
228 2 0.162183 -0.85386 12.2154 4.43572
229 2 0.100711 -0.64505 10.2539 5.53953
83 2 0.140581 -4.67806 12.3558 6.03292
77 4 1.04304 -5.10452 12.8641 8.63821
80 2 0.0211978 -3.7744 12.6196 7.42115
170 2 0.173368 -2.98347 10.3017 8.7051
151 4 0.913476 -4.39988 6.92534 10.848
78 4 1.272 -5.5051 10.8253 10.8357
79 4 0.749524 -4.16538 12.085 13.3768
147 2 0.113203 -2.02382 6.64599 13.2908
235 2 0.132871 0.010904 10.5863 16.3332
82 2 0.0919268 -4.7716 9.29781 10.4771
84 2 0.16175 -2.15174 10.2404 13.7332
85 2 0.144264 -3.77526 10.301 14.7452
86 2 0.121029 -2.49935 11.5925 14.9919
88 1 -0.672744 -2.94796 10.8872 14.2374
89 3 -0.866096 -5.29606 11.563 9.45455
90 3 -0.805549 -4.82215 11.3854 12.0905
119 2 0.188701 -0.376876 8.218 13.1345
277 2 -0.00107955 -1.26373 11.611 13.5329
271 3 -0.862947 -6.99498 10.5574 11.2145
146 2 0.169053 -3.22176 8.34065 13.4374
148 1 -0.632648 -2.52076 7.51004 13.946
145 2 0.137606 -1.80063 8.05723 14.7083
118 2 0.132002 0.477219 7.59558 11.6445
1 4 0.996028 -5.54366 12.8932 17.3229
236 2 0.164546 -0.23777 8.55458 16.1101
239 1 -0.670379 -0.805234 9.6139 16.3355
129 1 -0.645599 0.457192 7.65127 12.8288
283 2 0.15036 -5.7177 8.72019 14.9753
231 1 -0.648761 -0.318234 12.3623 9.88492
181 3 -0.778271 -3.93636 8.06265 9.89058
238 2 0.0320083 -2.59731 9.46418 17.1344
237 2 0.166683 -1.57206 9.81943 15.5432
126 2 0.127482 -0.544236 6.9669 16.3654
225 2 0.166993 -0.582104 11.2963 9.56212
125 2 0.0402505 1.29512 8.07331 16.8736
81 2 -0.0188945 -5.18026 12.9589 14.4364
124 2 0.169728 0.396707 6.94622 14.734
309 3 -0.838791 -5.91717 11.3421 17.4255
157 2 0.00178851 -3.71778 7.00841 12.3893
287 2 0.167832 -7.01761 12.9912 15.0708
2 4 1.49335 11.3465 5.89319 3.96723
9 4 1.27206 6.30067 6.22554 3.57579
5 4 0.906302 11.0755 0.627972 1.71866
61 3 -0.857905 7.49153 6.00633 4.56299
7 4 1.27071 12.0395 1.76004 6.17999
8 4 1.30669 9.73481 3.29815 2.51489
62 3 -0.842875 9.26867 5.04103 6.25075
35 2 0.169641 11.148 5.50185 8.47557
11 4 1.09374 10.042 3.93377 7.18674
19 2 -0.00209938 8.79957 3.09229 8.13187
294 2 0.156756 7.41742 2.40461 7.25735
18 2 -0.00268542 11.257 0.294629 5.69062
128 1 -0.647277 4.74283 5.36179 8.28946
29 2 0.147309 8.14403 2.05271 3.73327
30 2 0.291404 7.40837 3.77455 3.28204
31 2 0.230654 8.69 3.67193 4.68304
117 2 0.177459 5.3664 4.42438 8.471
116 2 0.123145 4.33919 5.48412 7.1877
44 1 -0.673337 8.28109 3.18408 3.69571
286 2 0.154887 14.5552 0.298722 1.54386
291 2 0.153512 5.91817 2.10892 8.44932
52 3 -0.777343 12.342 1.16971 0.89079
53 3 -0.796437 13.1352 2.05246 5.02544
54 3 -0.827054 12.6957 1.25089 7.50254
55 3 -0.838316 10.3082 1.8437 2.30112
56 3 -0.780294 10.5983 4.37454 3.24227
57 3 -0.794533 6.07178 4.61426 2.52906
58 3 -0.770848 8.99522 4.23847 0.996086
59 3 -0.826482 10.926 2.86399 6.52984
32 2 0.156827 5.17787 6.32825 5.67537
293 1 -0.661527 7.0309 2.28922 8.31276
91 4 0.605714 13.5386 1.81725 0.161582
274 2 0.0268778 14.6826 0.475345 3.27509
12 4 1.48586 8.84812 6.32557 5.37868
221 4 0.848176 7.98773 0.474316 8.62274
10 4 1.56225 8.86976 5.70199 0.0564876
45 1 -0.678348 4.72913 6.3253 4.59958
216 2 0.101352 8.16785 3.27891 0.0546903
28 2 0.178772 13.4912 0.72291 10.488
36 2 0.164764 11.4239 3.8851 9.41413
37 2 0.164284 9.57079 4.6084 9.48685
297 2 0.131118 9.38328 0.840295 10.5011
138 3 -0.797739 3.30227 6.03433 12.6023
92 2 -0.0196051 12.7068 1.11145 16.6667
93 2 -0.0508498 11.2533 2.95867 16.2256
46 1 -0.691484 10.6492 4.49178 8.89887
295 2 0.168664 10.0002 1.8053 9.05581
102 4 1.27963 4.81212 6.06764 15.3576
218 2 0.170632 5.09925 2.40481 15.1442
107 2 0.00262222 6.53743 2.49179 10.1905
249 2 0.0264828 7.64383 5.66207 9.09929
114 2 0.0398018 6.81658 2.88379 14.8113
127 1 -0.626474 7.2696 1.16634 15.1296
137 3 -0.861925 5.21426 3.90245 12.1268
299 2 0.115429 8.36302 0.863502 15.3923
139 3 -0.825791 4.50884 4.64752 14.5392
140 3 -0.878196 5.93437 5.85597 16.4152
186 4 1.26911 9.15694 6.43067 15.4777
187 4 0.659131 7.9845 3.96598 13.7843
188 2 -0.0184967 8.59376 2.37665 14.3177
189 2 -1.18601e-06 8.48441 4.01177 12.1359
190 2 0.0770954 6.31314 4.11087 13.6136
191 3 -0.834621 8.43076 6.55499 16.9775
192 3 -0.801331 8.5508 5.14447 14.6008
135 3 -0.790503 6.29187 1.31621 12.4937
252 2 0.175985 6.3632 5.93414 12.6661
298 1 -0.664709 9.73733 0.820991 9.41757
251 2 0.137769 8.40877 3.65903 10.2426
242 2 0.112412 11.4731 1.7851 12.633
243 2 0.173371 11.7769 1.1183 10.8803
292 2 0.154215 7.34434 3.21854 8.91866
245 1 -0.642732 12.2218 1.28017 11.9453
97 4 1.17584 5.50392 2.40662 11.5817
244 2 0.113554 12.9461 1.07879 14.5903
255 1 -0.647818 7.81029 4.57705 10.4321
250 2 0.161173 6.74845 4.24697 10.5514
247 4 0.766897 7.971 6.41692 10.8263
96 4 0.67181 7.02929 0.302706 13.5739
300 2 0.147202 6.45304 0.654881 15.7801
141 3 -0.84799 3.46028 6.61977 15.9882
215 4 1.06919 4.89659 2.72736 17.4222
115 2 0.0761407 4.91386 6.42581 9.12109
100 4 1.17742 3.96341 4.60219 13.0177
43 1 -0.678512 14.3015 0.3603 9.62183
13 4 1.52796 7.51121 8.08254 1.51058
14 4 0.918995 6.94773 8.12567 7.21995
15 4 1.27255 6.48481 10.7611 5.54342
39 2 0.147046 5.27798 12.5716 4.37537
201 4 1.02932 8.63948 10.7601 3.11623
285 2 0.143831 7.71488 11.2057 1.0843
34 2 0.178277 4.18464 7.34774 4.39961
38 2 0.146341 4.97839 10.6755 3.7998
158 2 0.081357 9.73188 8.35273 7.4305
40 2 0.130664 3.84768 11.5912 5.08799
6 4 1.23316 6.02387 12.551 8.0537
47 1 -0.672037 4.90012 11.5117 4.7056
63 3 -0.787156 6.29192 7.6248 2.50309
64 3 -0.835702 8.37148 6.83548 1.04356
65 3 -0.78194 8.54765 9.09157 2.16577
66 3 -0.774547 6.7973 8.94281 0.227568
67 3 -0.769065 8.39369 7.62736 6.73567
68 3 -0.771111 7.66519 10.8324 4.40524
69 3 -0.778564 6.37384 9.17148 6.23242
70 3 -0.822449 6.73515 11.7398 6.84376
172 2 0.142881 2.42454 9.94622 3.60091
173 2 0.159878 4.03967 8.87225 3.11739
174 2 0.147053 3.2822 8.81112 4.90608
178 1 -0.651151 3.09564 8.95843 3.7977
270 3 -0.791596 4.59955 11.5756 8.71554
224 2 -0.047959 2.46039 10.1663 6.19873
213 2 -0.0209022 0.432866 12.6969 3.15432
223 2 -0.000497126 1.64768 12.0515 4.37562
222 4 0.692364 1.15559 11.2034 5.95859
233 3 -0.714682 0.870089 12.1458 7.20583
267 2 -0.0578332 4.48383 8.91189 8.40016
60 3 -0.782726 10.1439 6.92731 4.65032
21 2 -0.025778 5.85775 6.83643 7.52818
263 2 0.167515 3.96748 9.47328 0.188482
278 2 -0.0252551 4.23943 12.2296 2.9858
207 1 -0.673412 8.09029 12.2329 1.73393
17 2 -0.0364028 2.93487 12.4636 0.672349
209 2 0.100386 9.90325 9.25155 1.22462
20 2 -0.0107523 7.03555 8.78459 8.73061
296 2 0.262951 3.36021 12.7463 9.14896
122 2 0.114539 3.24994 8.15858 9.4659
113 2 -0.0117241 5.4042 7.28554 14.1852
307 2 0.107091 2.87844 12.5161 12.2012
123 2 0.0160008 4.00562 8.71396 11.7113
130 1 -0.646881 2.81051 8.1575 10.4776
265 4 0.923166 4.80046 10.1563 9.4929
246 1 -0.658959 5.51972 12.7307 15.0119
308 1 -0.642712 3.13929 11.6141 13.0956
248 2 0.0101581 6.83913 7.78133 10.8946
106 2 -0.0181425 1.30273 12.2469 12.9932
254 2 0.161579 7.4083 7.3627 13.4211
256 1 -0.658628 6.54534 7.03139 12.6288
258 4 0.688201 4.2753 10.253 16.5705
259 2 -0.0218356 5.46572 10.8023 15.4915
260 2 0.0696649 2.79171 9.25812 15.5237
261 2 0.1222 2.05249 11.2573 16.432
264 1 -0.638093 2.46883 10.2393 16.7036
303 2 0.151934 6.47231 12.2163 15.3931
112 2 0.0270255 1.86147 8.3357 13.746
284 1 -0.677295 8.72999 8.14251 14.6925
266 4 1.21713 6.89984 10.3296 11.5258
268 2 0.0044479 3.47446 9.98311 10.612
269 2 0.00197775 6.99923 8.94002 12.619
304 2 0.109031 4.58073 12.7038 15.6531
272 3 -0.861047 6.10536 9.86673 10.2664
273 3 -0.786414 5.87866 11.3664 12.3674
281 2 0.13748 7.83003 8.69453 15.0638
282 2 0.159865 8.70365 8.01698 13.5524
240 4 0.881014 4.90159 12.3517 13.1024
253 2 0.136014 5.60708 7.68818 12.4234
257 3 -0.810067 9.46079 6.7294 11.0519
305 2 0.119356 2.68739 11.8151 14.1307
306 2 0.14686 2.86981 10.6213 12.6904
101 4 0.729918 2.63671 7.53271 12.2577
227 2 0.170341 0.0416839 12.3705 10.9025
121 2 0.128662 1.86328 8.78349 10.4747
302 2 0.214527 7.63727 12.1221 9.78741
262 2 -0.000795918 3.51596 11.7333 17.2507
210 2 0.00162009 8.74187 8.95999 16.4944
ITEM: TIMESTEP
200
ITEM: NUMBER OF ATOMS
310
ITEM: BOX BOUNDS xy xz yz pp pp pp
-9.0288000000000004e+00 1.5411400000000000e+01 -7.2027000000000001e+00
0.0000000000000000e+00 1.3079499999999999e+01 -1.8261000000000001e+00
0.0000000000000000e+00 1.7515068933333332e+01 3.3839999999999998e-01
ITEM: ATOMS id type q x y z
4 4 1.47921 4.89251 4.18011 1.50534
3 4 1.05038 3.49299 1.63054 2.52072
280 2 0.131743 2.79957 1.20899 6.58935
71 4 0.785478 -1.11112 2.1456 3.98416
23 2 0.149685 4.39415 1.16269 4.81589
24 2 0.125218 5.82079 0.926965 3.48182
25 2 0.162205 0.954848 0.826615 2.70696
26 2 0.153436 1.54147 2.68827 3.27315
27 2 0.147321 2.12922 1.15749 4.29818
41 1 -0.658119 4.7142 0.66091 3.82785
42 1 -0.663087 1.72523 1.54549 3.2503
48 3 -0.762897 3.46355 0.694275 1.04531
49 3 -0.777545 3.87991 3.30318 2.35862
51 3 -0.795168 3.89428 5.64351 0.873842
152 4 1.4593 -2.0196 6.3979 6.15735
72 2 -0.0108295 0.489228 2.13012 4.67937
73 2 0.0248021 -1.47907 3.48027 0.791017
74 2 0.135565 -0.445686 4.11247 3.13542
310 3 -0.835429 6.70402 1.01155 0.647384
76 1 -0.626472 -1.22971 3.33496 2.65136
275 2 0.0102357 -0.370237 2.2151 1.39385
110 2 0.0029393 2.07429 4.97351 7.51338
50 3 -0.822879 5.60308 3.31128 0.37648
150 4 0.794884 -0.706276 4.0501 8.15563
159 2 0.00240848 1.0898 5.19382 6.11306
163 2 0.153382 0.920921 3.41642 6.15843
164 2 0.0412999 -0.610615 2.42823 7.37728
165 2 0.196189 1.23442 2.77958 7.84859
175 1 -0.632612 0.879933 3.6019 7.23387
179 3 -0.814915 -2.92607 5.75168 5.02284
180 3 -0.765139 -1.29387 5.15088 7.2118
195 2 0.0803837 -2.054 6.12412 0.0765889
196 2 0.197959 -1.012 5.21382 1.81416
198 1 -0.630496 -0.835765 6.18732 1.18761
197 2 0.150423 0.19845 6.14293 0.630593
33 2 0.163879 4.14163 5.41515 4.70456
205 2 0.143936 0.494588 0.288704 1.33233
87 1 -0.66219 2.14566 0.227584 6.7649
279 2 0.168079 1.01295 0.481756 6.80884
80 2 0.00965336 3.80437 0.29868 7.74709
94 4 0.625558 0.247958 1.98995 12.1262
95 4 1.27114 2.70279 2.29539 10.6891
98 4 1.05326 2.20164 6.61571 16.9108
219 2 0.157693 3.17385 2.10948 15.5486
103 2 0.0283254 0.116108 0.687667 11.0738
104 2 -0.0219775 -0.711801 3.14252 11.248
105 2 -0.0489516 -0.664866 1.65735 13.5318
108 2 0.105372 0.937267 5.27503 15.795
111 2 0.0894245 2.75465 3.40952 13.2846
290 1 -0.66031 0.712212 0.831105 15.7951
109 2 0.00296745 1.99343 6.53487 9.77738
132 3 -0.826788 1.91527 1.41781 9.48324
133 3 -0.793717 1.67089 2.49037 12.377
134 3 -0.846127 4.13166 1.55086 11.1449
168 2 0.158811 -0.497997 5.8479 9.76009
136 3 -0.76182 2.86779 3.76945 9.84727
143 2 -0.0212533 -2.28085 6.44217 16.7558
131 1 -0.650727 0.521843 6.6005 15.9368
144 2 -0.0649683 -2.35543 5.03017 14.5116
301 2 0.155804 -0.43603 1.0621 9.05162
156 2 0.0389025 -1.86998 3.86362 9.71451
220 1 -0.67256 4.26958 1.93753 15.635
289 2 0.136544 -0.132738 1.3255 16.5285
149 3 -0.781678 -4.62096 6.44476 15.2381
288 2 0.139257 1.41528 1.53636 15.3104
142 4 0.67425 -2.99975 6.41598 15.122
167 2 0.149822 -0.620486 5.00616 11.3423
176 1 -0.66479 -0.518942 4.83544 10.2514
217 2 0.153543 4.65664 0.946476 15.559
166 2 0.151792 0.463595 4.31013 10.0892
16 2 0.0123977 3.34043 0.404606 16.4537
99 4 0.729029 2.9956 5.19424 9.10993
276 2 0.0615375 3.82484 0.805178 13.0053
120 2 0.150806 0.346689 6.44529 12.894
208 4 0.952892 -4.24954 9.47851 0.255603
171 2 0.168917 -4.11081 10.5203 7.22758
230 2 0.18096 -0.0260526 10.5064 3.82221
153 4 0.964141 -3.88455 8.31892 8.00709
154 4 0.902381 0.776219 6.77596 5.4397
155 4 0.984452 2.089 7.86625 2.83106
22 2 0.156898 -2.65772 12.2689 3.88045
160 2 -0.0708423 1.83268 7.52159 6.48404
83 2 0.160204 -4.78664 12.0376 6.09353
177 1 -0.652861 -3.20867 9.98405 7.64039
169 2 0.182338 -2.25281 10.0965 7.03141
182 3 -0.786041 -2.98939 7.30828 7.21573
183 3 -0.783412 -0.785219 7.28535 5.69044
184 3 -0.783777 1.2646 6.90496 3.96699
185 3 -0.796081 1.36922 8.81363 1.7845
193 4 1.02695 -2.46748 7.36633 1.61532
194 2 0.0920155 -0.719581 7.52185 2.14727
232 1 -0.646786 -0.0241077 11.4035 4.44295
234 4 1.004 0.568206 9.69059 0.617217
199 3 -0.831091 -3.32748 6.62818 2.67631
200 3 -0.807447 -3.03872 8.79503 0.865092
202 2 0.17881 -4.65505 11.7414 2.75607
203 2 0.185503 -4.78927 10.0586 3.66561
204 2 0.167572 -4.8476 11.8102 4.71047
161 2 0.0900779 2.95226 6.70531 1.88884
206 1 -0.659277 -5.06105 11.2033 3.68121
211 4 0.966952 -0.374723 12.4408 1.57694
212 2 0.021018 -1.88409 12.2264 2.33455
77 4 1.0215 -4.9387 12.7925 8.67931
214 3 -0.848097 0.0853232 11.1006 1.09421
228 2 0.159283 -0.955623 12.0892 4.26167
229 2 0.0475528 -0.429561 10.3192 5.85035
309 3 -0.798949 -3.97196 11.0345 0.0169126
151 4 0.910895 -4.44822 6.79231 10.8384
78 4 1.23308 -5.44703 10.7503 10.791
79 4 0.76483 -4.17215 12.0603 13.3262
147 2 0.120911 -2.11725 7.16743 13.1251
235 2 0.126164 0.0671368 10.4454 16.3482
82 2 0.0902568 -4.79988 9.19535 10.5396
84 2 0.170799 -2.62818 10.2607 13.4459
85 2 0.143122 -4.08764 10.293 14.694
86 2 0.131472 -2.35624 11.0439 15.174