ITEM: TIMESTEP
0
ITEM: NUMBER OF ATOMS
310
ITEM: BOX BOUNDS xy xz yz pp pp pp
-9.0288000000000004e+00 1.5411400000000000e+01 -7.2027000000000001e+00
0.0000000000000000e+00 1.3079499999999999e+01 -1.8261000000000001e+00
0.0000000000000000e+00 1.7503399999999999e+01 3.3839999999999998e-01
ITEM: ATOMS id type q x y z
26 2 0.125481 0.970152 2.70171 3.34333
72 2 -0.0122485 -0.0427779 3.36785 4.94687
83 2 0.110343 1.16934 0.569529 6.52553
74 2 0.10862 -1.09647 4.14008 1.69858
75 2 0.0339081 -2.03645 4.53411 3.18079
156 2 0.0275113 -1.21422 2.58355 7.56352
150 4 0.792097 -0.409194 4.11978 7.61046
159 2 0.00786127 0.49829 5.21428 5.33439
164 2 0.129355 0.915961 2.62745 6.53764
175 1 -0.623944 1.21325 3.77627 6.43247
179 3 -0.823435 -3.06303 5.69244 4.93898
180 3 -0.811738 -1.24422 5.26002 6.76741
195 2 0.171524 -2.19149 5.67139 1.17816
25 2 0.163991 0.746091 0.698819 2.86172
42 1 -0.666531 1.36169 1.62879 3.4481
71 4 0.725918 -1.57384 3.06881 4.03143
274 2 0.0326212 -1.1971 1.79451 2.86291
275 2 0.0034853 -0.538875 1.86816 1.21498
143 2 -0.0213724 -0.419114 5.10269 0.401821
301 2 0.14997 -0.0457516 1.16483 8.01937
76 1 -0.64519 -1.83869 3.21545 1.75247
35 2 0.189211 -3.7989 5.41405 8.44235
196 2 0.155977 -0.542915 6.17494 2.07855
152 4 1.35372 -2.06889 6.45771 6.06962
43 1 -0.666818 -0.980453 0.992891 8.72606
287 2 0.14599 0.889473 0.91225 0.126408
27 2 0.152932 1.64156 1.34838 4.54478
77 4 0.988845 2.28243 0.392063 8.32325
291 2 0.142571 5.62163 1.78978 8.40006
22 2 0.149051 4.06943 1.59623 5.07867
163 2 0.152177 1.92889 3.90532 5.5893
33 2 0.160968 4.03323 5.55921 4.48892
279 2 0.160113 3.11173 0.251162 5.59962
3 4 1.07679 3.07713 1.83733 2.78771
50 3 -0.814848 5.34683 3.34265 0.682391
41 1 -0.664494 4.3875 0.996038 4.19068
310 3 -0.824122 6.40485 1.0087 1.04954
48 3 -0.765953 3.29776 0.626328 1.55461
165 2 0.14602 1.78744 4.256 7.54847
4 4 1.42224 4.73229 4.29222 1.8968
23 2 0.151591 5.32412 1.4288 3.72297
49 3 -0.804559 3.38068 3.38149 2.43244
161 2 0.0219268 2.12861 6.3412 1.16556
104 2 0.00448923 -0.199957 1.35483 10.5255
105 2 -0.0484022 -0.0404079 1.87768 13.2722
142 4 0.693653 -2.82735 5.25726 16.2826
144 2 0.0196159 -2.12119 3.49155 15.8154
147 2 0.158576 -0.798597 4.57748 14.2722
149 3 -0.769098 -4.33226 5.68691 15.968
162 2 -0.0153069 -3.57368 5.70843 10.6049
166 2 0.13773 -0.78005 4.06559 9.8189
290 1 -0.655718 -0.21088 0.646972 17.0067
145 2 0.0495481 -1.69784 6.43842 15.3018
148 1 -0.621209 -1.80176 4.82239 14.767
289 2 0.108091 0.200641 1.23774 16.0716
28 2 0.134052 -1.40929 1.90581 9.2652
146 2 0.152783 -2.589 4.87068 13.9574
167 2 0.165321 -0.467041 5.92153 9.33551
176 1 -0.655334 -0.0341306 4.8476 9.36104
108 2 0.0832576 0.820493 5.41726 16.6142
122 2 0.171775 1.3758 6.31948 10.0084
168 2 0.206409 0.983415 4.83971 9.80682
94 4 0.644601 0.825836 1.86828 11.8101
133 3 -0.774599 1.5903 3.20226 11.5692
219 2 0.174571 3.10145 2.72 15.837
111 2 0.090585 2.79735 3.6812 12.5157
16 2 0.0135558 2.7562 0.845204 16.5691
220 1 -0.642126 4.07022 2.11154 15.9178
95 4 1.26718 2.9325 2.84869 10.1768
134 3 -0.80605 4.07538 1.79402 10.9416
136 3 -0.813643 3.54363 4.21704 9.55991
217 2 0.168958 4.00801 1.06743 15.4026
132 3 -0.779603 2.2058 2.01943 8.84719
103 2 0.077285 1.90001 0.577192 11.9636
86 2 0.180392 4.06527 0.272151 13.8247
286 2 0.167351 -6.72702 12.3237 1.08843
153 4 0.945649 -3.89522 8.44903 7.85443
182 3 -0.814901 -2.99138 7.40291 7.05319
193 4 1.10664 -2.73414 7.55585 2.33338
212 2 0.0400591 -2.29068 12.4142 2.83926
200 3 -0.830796 -3.13734 8.76933 1.48003
202 2 0.217237 -4.82196 11.7509 2.72279
203 2 0.189394 -4.51146 10.0866 3.5037
204 2 0.181789 -5.04142 11.583 4.60854
280 2 0.168569 -5.13986 11.499 6.24985
206 1 -0.671282 -5.08757 11.0398 3.55674
177 1 -0.671736 -3.16845 10.1076 7.61346
171 2 0.165706 -3.87191 10.962 7.19773
87 1 -0.656549 -4.89746 12.5519 6.40397
208 4 0.976778 -4.11645 9.4528 0.496423
199 3 -0.796373 -3.99639 6.70949 2.75014
169 2 0.174313 -2.29431 9.82091 6.84721
309 3 -0.813649 -3.88559 10.9858 0.216482
1 4 1.01729 -3.86365 12.6218 0.151481
24 2 0.152891 -2.84166 12.6166 4.30103
158 2 0.103584 -5.44789 8.62707 7.18791
80 2 0.0256857 -3.33602 12.6884 7.51808
170 2 0.161185 -2.75956 10.3458 8.65516
197 2 0.158753 -1.09363 7.07418 0.394248
184 3 -0.823102 1.10239 7.20593 3.55455
228 2 0.0486926 0.528075 11.383 4.5763
183 3 -0.7891 -0.904882 7.62257 5.10821
185 3 -0.806681 0.796588 8.65197 1.35798
214 3 -0.823585 -0.561761 11.093 1.21838
234 4 1.03995 -0.0193127 9.74497 0.57004
211 4 0.97671 -0.832962 12.4673 1.88548
194 2 0.080725 -1.89235 8.05053 3.69588
154 4 0.927627 0.472975 6.96116 4.95422
155 4 1.03844 1.75433 7.69867 2.19165
160 2 -0.0537413 1.41547 7.54293 6.24486
198 1 -0.67606 -1.37646 6.51857 1.3949
213 2 -0.0102981 0.287078 12.5332 3.17419
224 2 -0.0627415 1.56827 9.75558 6.55066
78 4 1.16774 -5.77705 11.0822 10.4556
79 4 0.67217 -4.61561 11.0501 13.4664
81 2 -0.0328458 -5.26762 9.5323 14.0624
82 2 0.0727565 -4.97445 9.6028 10.1196
276 2 0.0048758 -4.95836 12.1667 14.8816
88 1 -0.636222 -3.17321 12.0349 14.4182
89 3 -0.843959 -5.36925 11.9999 9.29012
90 3 -0.795957 -5.24641 11.5316 12.119
151 4 0.879106 -4.46719 7.10558 10.8852
157 2 -0.0474391 -3.97028 7.61608 12.4014
181 3 -0.759535 -4.16408 8.20296 9.77053
283 2 0.108977 -4.85668 8.06613 15.1141
210 2 -0.00564566 -6.11432 8.88383 16.5414
236 2 0.103181 -3.33239 8.91235 16.9163
288 2 0.125894 -7.73005 12.2813 16.696
302 2 0.210968 -7.93311 12.8311 9.40746
84 2 0.0278784 -2.71763 10.6377 13.4603
121 2 0.133566 0.851303 7.64259 11.4582
85 2 0.142611 -2.5892 12.1409 15.402
238 2 0.16483 -2.64821 10.4643 15.5328
237 2 0.146836 -1.55964 8.85288 15.702
126 2 0.147352 -0.531023 7.06995 17.0754
226 2 0.157239 -1.35759 12.5799 9.78278
131 1 -0.65947 0.529797 6.86379 16.7269
130 1 -0.62378 1.68952 7.2731 10.6337
277 2 0.00238236 -1.32916 11.628 13.9727
239 1 -0.646914 -2.27814 9.55899 16.232
120 2 0.160603 1.99274 7.54917 13.8352
235 2 0.0109259 -0.683396 10.5193 16.8418
231 1 -0.674019 -0.295831 12.131 9.83337
225 2 0.148867 -0.28559 11.009 9.51872
124 2 0.147916 0.615024 7.27033 15.6623
110 2 -0.029511 2.98992 6.75184 9.25769
123 2 0.0752255 2.06896 8.25192 9.90737
215 4 1.07834 6.43688 2.37855 0.157044
29 2 0.148525 7.98888 1.8768 4.10148
30 2 0.265483 7.33579 3.59677 3.57116
31 2 0.196622 8.71607 3.4966 4.79995
44 1 -0.691558 8.27647 2.971 3.85149
293 1 -0.663436 6.64701 2.07784 7.97287
57 3 -0.807416 5.94816 4.60376 3.1102
62 3 -0.841129 8.98055 5.02237 7.03342
128 1 -0.666964 5.18502 5.02633 7.52293
292 2 0.170252 6.99205 3.09769 8.2533
230 2 0.162875 8.6412 0.876006 4.92832
51 3 -0.845482 4.42721 5.75202 1.19348
115 2 0.2083 6.19317 5.1497 7.13035
221 4 0.873814 7.80077 0.501091 8.67926
61 3 -0.847665 7.17227 6.10011 5.19168
58 3 -0.773906 9.10249 4.03727 1.0723
116 2 0.0731748 4.23642 5.87386 6.89735
294 2 0.177385 6.66521 1.82973 6.89281
12 4 1.45496 8.62085 6.25527 5.98867
216 2 0.12285 7.9978 3.16658 0.431386
9 4 1.33582 6.23896 6.12056 3.90968
10 4 1.52745 8.90845 5.37793 0.0561776
117 2 0.193008 4.80435 4.01943 7.31467
53 3 -0.79068 12.744 2.47462 4.94658
56 3 -0.830813 10.6306 4.30031 3.48803
55 3 -0.817989 10.4362 1.77198 2.38559
91 4 0.664196 13.4005 1.63774 0.281062
2 4 1.53596 10.9575 5.78908 4.06247
5 4 0.895754 11.0542 0.433859 1.79727
8 4 1.26732 9.75529 3.21081 2.73793
7 4 1.32045 11.5987 1.8983 5.9443
11 4 1.08978 10.0424 3.9432 7.59257
54 3 -0.859302 12.2157 1.04555 7.04746
18 2 0.00479851 10.478 0.912906 5.1023
52 3 -0.770594 12.4541 0.673123 1.07833
59 3 -0.839431 10.7586 3.00896 6.57827
73 2 0.205839 12.5337 3.5309 2.01137
93 2 0.0454436 12.6334 3.28267 0.147831
100 4 1.18781 4.15898 4.62201 12.7728
102 4 1.26359 4.92665 5.83 15.3781
107 2 -0.0160343 6.46476 2.45938 9.87806
109 2 0.00277712 5.76591 5.96718 9.84682
114 2 0.0862768 6.83353 2.66078 14.4801
127 1 -0.601489 7.11614 1.14752 15.0622
137 3 -0.827658 5.38559 3.90014 12.0321
138 3 -0.782887 3.86542 6.21083 12.217
139 3 -0.818481 4.40834 4.71681 14.3791
140 3 -0.852997 6.08136 5.20417 16.3355
190 2 0.049259 6.87 4.15829 12.9775
135 3 -0.754508 6.24855 1.24593 12.4813
249 2 0.116233 7.71908 4.22764 10.7184
250 2 0.179753 8.30487 5.33803 9.32963
251 2 0.166918 6.64057 4.5645 9.16698
252 2 0.0774045 7.43462 6.09882 13.2519
255 1 -0.68073 7.41358 4.9986 9.93307
99 4 0.733931 4.21718 5.50338 9.06327
97 4 1.09495 5.55792 2.33298 11.3295
141 3 -0.817368 3.68926 6.58628 16.0087
247 4 0.761309 7.86241 6.40169 11.2265
218 2 0.17691 5.0813 2.70678 15.4248
187 4 0.623249 8.31494 3.73681 13.7638
299 2 0.107487 8.22105 0.749463 15.3132
98 4 1.03022 2.4506 6.59536 17.2288
300 2 0.131681 6.18497 0.561295 15.6053
191 3 -0.801499 8.54965 6.26858 16.8788
303 2 0.160333 13.4807 0.526454 14.5107
192 3 -0.787613 8.90218 4.89526 14.6659
46 1 -0.688581 11.072 4.58843 9.03967
244 2 0.135148 12.1258 1.82022 14.1911
245 1 -0.632408 12.3618 1.14164 11.185
297 2 0.124885 8.9914 2.05126 10.4398
296 2 0.131441 9.6117 0.261016 10.5692
243 2 0.180496 13.2056 1.05357 10.2844
241 2 0.118365 12.5195 2.05912 11.8984
242 2 0.154815 11.1833 1.191 10.7057
298 1 -0.651018 9.3694 1.18564 9.84553
37 2 0.134303 10.2686 5.04679 9.92411
246 1 -0.667934 12.382 0.744432 14.3525
36 2 0.152254 11.7556 3.73836 9.40984
92 2 -0.0206142 11.9577 1.38835 16.153
186 4 1.27136 9.46297 6.11093 15.6385
188 2 -0.00788026 8.64761 2.29596 14.5795
189 2 -0.0712308 9.19094 3.38756 12.3353
295 2 0.182019 10.2822 1.41602 9.22056
19 2 0.00625015 9.40125 2.93558 8.92025
34 2 0.190535 3.94513 7.37554 3.72132
38 2 0.17554 5.31098 10.6882 3.49585
39 2 0.142964 4.51289 11.9859 4.71168
40 2 0.134046 3.82127 10.2233 4.6901
45 1 -0.658512 4.44255 6.62265 4.48202
47 1 -0.663592 4.72151 10.9107 4.49528
172 2 0.156065 3.17802 9.6678 1.74958
173 2 0.175913 4.07129 8.02445 2.19178
174 2 0.159425 3.35342 9.28402 3.57155
178 1 -0.660227 3.21425 8.84822 2.50847
222 4 0.664588 1.76427 11.4416 6.20742
223 2 -0.00207384 3.46614 11.3325 5.98692
233 3 -0.727169 1.2872 12.4757 7.41784
32 2 0.182931 4.64014 7.04051 5.46589
17 2 -0.046401 2.81933 12.3804 0.752926
278 2 -0.0135783 4.06392 11.926 2.95669
232 1 -0.620089 1.67788 12.5363 4.61569
229 2 0.13294 2.3435 12.4316 3.68151
267 2 -0.0594404 3.69994 9.45694 8.553
6 4 1.33036 5.80489 12.6428 7.75852
64 3 -0.861366 8.28147 6.53732 0.830513
207 1 -0.673476 7.98874 11.8959 1.92469
69 3 -0.803639 6.10677 9.0547 6.30026
209 2 0.0825777 9.73179 9.2751 1.05836
21 2 -0.0134341 6.0675 6.78901 7.43395
70 3 -0.815371 6.59587 11.6943 6.61805
285 2 0.173873 7.49884 12.715 2.51905
68 3 -0.820851 7.54952 10.6025 4.37524
205 2 0.171349 7.16987 11.2018 1.43015
13 4 1.49634 7.62302 7.81653 1.58601
14 4 0.944906 6.98617 8.25503 7.30258
15 4 1.31023 6.43538 10.5886 5.49754
201 4 1.07892 8.50972 10.5133 3.16938
60 3 -0.831751 9.70909 6.50134 4.88054
63 3 -0.781688 6.59269 7.32304 2.75811
66 3 -0.772942 6.83283 8.83722 0.415976
65 3 -0.764223 8.74237 8.78493 2.23777
67 3 -0.801976 8.53794 7.79778 7.09425
101 4 0.751459 3.08341 7.65064 11.8262
112 2 0.0107223 3.8455 9.15781 12.3901
106 2 -0.0243769 1.24994 12.1862 13.0544
262 2 0.171227 3.614 10.9279 14.3603
264 1 -0.634449 3.90461 10.5794 15.4521
268 2 -0.0273017 3.36839 10.7553 10.7606
263 2 0.150357 3.00078 10.2666 16.0812
306 2 0.157822 2.7124 10.5125 12.857
308 1 -0.635855 3.02094 11.635 12.5041
119 2 0.17051 2.86635 9.26139 14.2198
305 2 0.111646 2.82261 12.4428 13.3562
265 4 0.927791 4.59521 10.4601 9.57786
129 1 -0.647995 2.25414 8.64157 13.4269
307 2 0.124842 2.41468 11.9784 11.5951
259 2 0.0648143 4.70185 11.7222 16.2155
125 2 0.0276673 1.65898 8.24124 17.3214
96 4 0.677459 -0.251396 12.9727 13.5248
227 2 0.155163 0.260361 12.3471 10.7685
261 2 0.0268586 4.48501 8.80219 15.0563
304 2 0.15395 4.49362 12.9481 15.0378
118 2 0.130057 1.33514 9.18282 12.9713
270 3 -0.837844 5.00879 11.7704 8.83092
269 2 -0.0052552 7.35113 9.03434 12.3225
20 2 0.0565625 6.7516 8.87361 8.83464
260 2 -0.0776725 7.01007 9.79081 16.0055
273 3 -0.781248 6.07199 11.3989 12.3704
253 2 0.214684 5.59335 6.84156 12.2335
284 1 -0.654427 9.29579 7.92372 14.824
254 2 0.140521 6.34349 8.0267 13.3257
258 4 0.683188 5.32053 9.73841 16.4062
248 2 0.0386511 6.81253 7.78744 10.8085
240 4 0.872709 4.97469 12.5826 12.5513
113 2 -0.00770687 5.79542 6.96352 14.3927
272 3 -0.821013 5.68551 9.45766 10.0175
282 2 0.143156 9.24724 7.4114 13.7599
266 4 1.07138 6.83923 10.3751 11.3222
271 3 -0.83435 8.11049 10.9956 10.5589
281 2 0.139072 8.7879 8.86659 14.7604
256 1 -0.664342 6.58496 7.25698 12.5987
257 3 -0.812592 9.36892 6.84368 11.0697
ITEM: TIMESTEP
100
ITEM: NUMBER OF ATOMS
310
ITEM: BOX BOUNDS xy xz yz pp pp pp
-9.0288000000000004e+00 1.5411400000000000e+01 -7.2027000000000001e+00
0.0000000000000000e+00 1.3105658999999999e+01 -1.8261000000000001e+00
0.0000000000000000e+00 1.7503399999999999e+01 3.3907679999999907e-01
ITEM: ATOMS id type q x y z
26 2 0.124965 1.05587 2.62749 2.95514
72 2 -0.0186498 -0.209822 3.61516 4.97359
83 2 0.131863 1.31515 0.414671 6.38399
74 2 0.135379 -0.823841 3.85366 1.54987
75 2 0.0537571 -2.09348 4.42619 3.17151
156 2 0.00949225 -1.39165 2.55463 7.6889
150 4 0.78968 -0.415942 4.01651 7.60707
159 2 0.00960298 0.490637 5.32909 5.3416
164 2 0.125011 0.853754 2.69963 6.39512
175 1 -0.627995 1.17329 3.83593 6.384
179 3 -0.846964 -2.91767 5.69293 4.99671
180 3 -0.790532 -1.24789 5.2564 6.86815
195 2 0.195919 -1.98909 5.52598 0.974594
25 2 0.175962 0.756287 0.609908 2.699
42 1 -0.646662 1.45051 1.49776 3.16957
71 4 0.723341 -1.56419 3.01236 4.06596
274 2 0.026951 -0.865815 1.74945 2.97149
275 2 0.0101863 -0.421954 1.61728 1.26274
143 2 -0.0199537 -0.307557 5.13388 0.318681
301 2 0.153424 -0.0672226 1.4088 8.04173
76 1 -0.666318 -1.54422 3.11495 1.8368
132 3 -0.787095 2.21302 2.03547 8.65077
196 2 0.144057 -0.755074 5.89564 2.341
152 4 1.38711 -2.05704 6.44401 6.15657
43 1 -0.682291 -0.857898 0.858598 8.64772
198 1 -0.699628 -1.35489 6.30208 1.48784
27 2 0.130393 1.67307 1.27141 4.32306
77 4 0.980062 2.30688 0.320244 8.30972
291 2 0.160835 5.70063 1.85939 8.64816
22 2 0.150382 4.16166 1.49819 5.23005
163 2 0.156714 1.8537 4.0294 5.52068
33 2 0.168315 3.96157 5.80671 4.52986
279 2 0.147177 3.16641 0.126441 5.54763
3 4 1.07969 3.22431 1.75948 2.79271
50 3 -0.818957 5.45008 3.46864 0.742144
41 1 -0.656911 4.50028 0.944923 4.25485
310 3 -0.845741 6.42036 0.987159 0.839549
48 3 -0.78024 3.30041 0.891108 1.4604
165 2 0.16598 1.74989 4.21208 7.48986
4 4 1.48584 4.83849 4.37369 1.92217
23 2 0.149566 5.47819 1.35756 3.886
49 3 -0.761919 3.63206 3.48585 2.61855
51 3 -0.840402 4.19032 5.82891 1.17045
35 2 0.186529 -3.6606 5.19983 8.60673
161 2 0.024456 1.85094 6.36735 0.923423
104 2 -0.00448631 -0.31914 1.58793 10.3649
105 2 -0.0552427 -0.0791163 2.17026 13.1955
142 4 0.706198 -2.7442 5.40165 16.1578
144 2 0.0177073 -2.03222 3.64934 15.7268
147 2 0.159908 -1.21589 4.60628 13.8466
149 3 -0.773001 -4.24336 5.69799 16.1091
162 2 0.00408221 -3.64592 5.71247 10.443
166 2 0.146339 0.0784073 3.66576 9.71412
290 1 -0.656821 -0.294046 0.436495 16.9198
145 2 0.0423662 -1.83509 6.47851 14.8576
148 1 -0.631035 -2.03964 4.85431 14.477
289 2 0.0924121 0.16228 0.526794 15.7452
28 2 0.125712 -1.5878 1.60418 9.2092
146 2 0.157615 -3.00744 4.82417 13.8657
167 2 0.166918 -1.32656 4.95684 9.69853
176 1 -0.635869 -0.292398 4.73029 9.33691
108 2 0.100522 0.76999 5.44266 16.2455
122 2 0.164515 1.72328 6.28356 9.96476
168 2 0.169964 0.511984 5.54632 9.67107
94 4 0.624704 0.701493 1.85366 11.774
133 3 -0.777981 1.71517 2.9739 11.4623
219 2 0.181814 3.03573 2.9017 15.7564
111 2 0.0857437 2.69324 3.76853 12.6409
16 2 0.0288896 2.66579 0.923527 16.5237
220 1 -0.633144 3.93389 2.19034 15.8519
95 4 1.32778 2.92556 2.69726 10.0118
134 3 -0.84147 4.07503 1.77916 10.6773
136 3 -0.781601 3.43774 4.20188 9.43497
217 2 0.175318 3.87716 1.16225 15.2613
103 2 0.0648924 1.40956 0.314549 12.0771
287 2 0.141609 -0.653473 1.42106 17.3355
286 2 0.150463 -6.83436 12.247 0.98529
153 4 0.967029 -3.92776 8.39589 7.86686
182 3 -0.81758 -2.96028 7.31488 7.20068
193 4 1.06195 -2.59848 7.58979 2.29766
212 2 0.012775 -2.05301 12.4275 2.88471
200 3 -0.821063 -2.73117 8.91682 1.38157
202 2 0.213511 -4.82205 11.9989 2.62727
203 2 0.18037 -4.46069 10.2615 3.21784
204 2 0.176296 -4.99202 11.6296 4.58879
280 2 0.158311 -5.10933 11.2706 6.23002
206 1 -0.663863 -5.03748 11.2169 3.4048
177 1 -0.676899 -3.21408 10.061 7.77007
171 2 0.164943 -3.82174 10.9332 7.25005
87 1 -0.651022 -4.89036 12.4073 6.41757
208 4 0.952892 -3.83497 9.47558 0.451702
199 3 -0.777666 -3.8805 6.8489 2.82704
169 2 0.17352 -2.19772 9.78129 7.22136
309 3 -0.811887 -3.90389 11.0491 0.150184
1 4 1.01002 -3.94764 12.6457 0.101765
24 2 0.142481 -2.57838 12.5578 4.47335
158 2 0.109061 -5.42252 8.49049 6.94867
160 2 -0.0526569 1.41884 7.73783 6.1108
224 2 -0.049006 1.21744 9.795 6.17759
197 2 0.172785 -0.813229 7.0207 0.884406
184 3 -0.780306 1.09269 7.31972 3.53584
155 4 0.98996 1.76087 7.78617 1.976
183 3 -0.789143 -0.932909 7.62743 5.13188
185 3 -0.821012 0.974004 8.87752 1.15188
214 3 -0.80928 -0.465578 11.1402 1.06477
234 4 1.0737 0.194063 9.94608 0.328234
211 4 0.971555 -0.739645 12.5142 1.76441
194 2 0.117109 -1.6185 7.91425 3.69297
154 4 0.908548 0.497801 7.04445 4.96326
80 2 0.0234083 -3.34701 12.6575 7.53247
78 4 1.13414 -5.81111 11.013 10.4579
79 4 0.640405 -4.72603 10.9825 13.5945
81 2 -0.0341861 -5.3783 9.49635 14.0583
82 2 0.0709562 -5.09979 9.53141 9.9755
276 2 0.0206127 -4.8895 12.2814 15.0699
88 1 -0.627322 -3.33523 12.2056 14.2658
89 3 -0.836779 -5.41458 12.011 9.35897
90 3 -0.785655 -5.21219 11.4038 12.0894
151 4 0.891922 -4.46572 7.15746 10.9091
157 2 -0.0535313 -3.64905 7.40888 12.2852
181 3 -0.767252 -4.21119 8.1728 9.74104
283 2 0.14526 -4.7811 7.90339 15.2803
210 2 -0.0302511 -5.82308 8.84508 16.5947
236 2 0.136301 -3.25958 9.07856 16.6331
288 2 0.139926 -8.26817 12.3745 17.1139
170 2 0.168645 -3.07694 10.3228 8.89074
84 2 0.0158933 -2.93192 10.5026 13.6645
121 2 0.123227 0.810127 7.57514 11.0398
85 2 0.141236 -2.56295 12.5674 15.0152
238 2 0.150288 -2.74079 10.6908 15.3954
237 2 0.137124 -1.59468 9.03163 15.6656
126 2 0.136547 -0.601256 6.86348 16.6863
226 2 0.182313 -1.64506 12.4082 9.55219
131 1 -0.667901 0.468609 6.77114 16.5414
130 1 -0.671093 1.7971 7.35837 10.3225
277 2 -0.0067196 -1.51142 11.7903 13.712
239 1 -0.657107 -2.3203 9.73224 16.1642
120 2 0.133894 1.86523 7.77634 13.8861
235 2 -0.00857162 -0.784623 10.9311 16.4674
231 1 -0.684674 -0.63982 12.0779 9.75308
225 2 0.157428 -0.376019 11.0427 9.37421
124 2 0.129482 0.744139 7.364 15.5719
123 2 0.129179 1.97308 8.10594 9.50156
302 2 0.240179 -7.69259 12.7067 9.32477
86 2 0.183491 -3.3625 12.855 13.2706
227 2 0.151752 -0.30855 12.2312 10.8233
215 4 1.1016 6.4045 2.37329 0.114512
29 2 0.140874 7.9651 1.9531 4.04984
30 2 0.26668 7.45491 3.64243 3.446
31 2 0.201813 8.81495 3.57157 4.82037
44 1 -0.695015 8.37006 3.0308 3.88275
293 1 -0.662458 6.68371 1.99666 8.11341
57 3 -0.801219 5.92839 4.58337 3.07532
62 3 -0.855308 9.07548 5.08413 7.07928
128 1 -0.648799 5.17988 5.06173 7.42681
292 2 0.161141 7.27048 2.87868 8.40577
230 2 0.160568 8.86298 0.916233 4.33419
60 3 -0.86611 9.91348 6.34419 5.05695
115 2 0.234872 5.89905 5.08611 6.53131
221 4 0.84732 7.72847 0.352262 8.72019
61 3 -0.811751 7.24954 5.865 5.22501
58 3 -0.741325 9.05847 3.96468 1.13581
116 2 0.0609809 3.96687 5.83053 7.08154
294 2 0.178424 6.74278 1.8348 7.00222
12 4 1.45963 8.72018 6.21358 6.03891
216 2 0.109684 8.04491 2.95776 0.395487
9 4 1.32842 6.24206 6.2103 3.91774
10 4 1.48449 8.75634 5.45916 0.0610773
93 2 0.0295031 13.0169 3.26825 0.15871
53 3 -0.809016 12.7273 2.34734 4.96861
56 3 -0.818133 10.7759 4.27382 3.32771
55 3 -0.819913 10.4166 1.76229 2.2716
91 4 0.681163 13.484 1.54018 0.382824
2 4 1.49208 11.1034 5.75924 4.1538
5 4 0.951985 10.9922 0.467964 1.75403
8 4 1.27706 9.77408 3.24694 2.69168
7 4 1.30012 11.5836 1.89477 5.95744
11 4 1.11085 10.0353 3.96386 7.65441
54 3 -0.845235 12.2007 0.858528 6.95866
18 2 0.0167174 10.3618 1.02814 5.11629
52 3 -0.781138 12.2938 0.666946 0.950537
59 3 -0.858515 10.7426 2.97791 6.74717
73 2 0.185402 12.7621 3.56734 1.81331
117 2 0.197064 4.91494 3.97944 7.5945
100 4 1.23748 4.13021 4.6378 12.8416
102 4 1.23767 4.84159 5.91254 15.4127
107 2 -0.0167426 6.61763 2.49273 10.0414
109 2 0.020557 5.4912 5.99609 10.1296
114 2 0.0720369 6.92779 2.79364 14.6888
127 1 -0.611929 7.16796 1.17928 15.1547
137 3 -0.826495 5.29822 3.96208 12.06
138 3 -0.807543 3.7444 6.1383 12.3143
139 3 -0.810379 4.39444 4.64111 14.3776
140 3 -0.87286 5.96939 5.35293 16.3795
190 2 0.0541839 6.77917 4.09663 13.0117
135 3 -0.795144 6.2281 1.39733 12.4544
249 2 0.121794 7.22205 4.38175 10.4459
250 2 0.19309 8.26641 5.47644 9.30289
251 2 0.171539 6.47469 5.20004 8.84121
252 2 0.0708152 7.57306 6.24591 13.2756
255 1 -0.669267 7.24878 5.33298 9.77227
99 4 0.709301 4.18544 5.53229 9.03187
97 4 1.11015 5.47382 2.2994 11.3377
141 3 -0.838243 3.53437 6.3783 16.1634
247 4 0.732896 7.85708 6.3319 11.4265
218 2 0.180982 4.9584 2.7393 15.3793
187 4 0.62166 8.30075 3.77379 13.7944
299 2 0.119155 8.19633 0.664413 15.3513
98 4 1.06879 2.34118 6.66368 17.2049
300 2 0.128588 6.26692 0.639676 15.7349
191 3 -0.820419 8.494 6.17147 17.0359
303 2 0.15336 13.4531 0.341029 14.91
192 3 -0.792739 8.92552 4.9778 14.6291
46 1 -0.69947 11.1458 4.40292 9.16539
244 2 0.145923 12.6299 1.95302 14.2728
245 1 -0.662918 12.1985 1.00232 11.1866
297 2 0.127841 8.70477 2.12359 10.3213
296 2 0.135571 9.5346 0.429744 10.686
243 2 0.201091 12.9871 0.561406 10.4605
241 2 0.116969 12.5545 1.99943 11.6416
242 2 0.187572 11.1639 1.12237 10.7475
298 1 -0.649503 9.27488 1.26315 9.89111
37 2 0.147152 10.4439 4.78277 9.97921
246 1 -0.66326 12.526 0.842513 14.4222
36 2 0.157497 11.7775 3.44737 9.35487
92 2 -0.00994638 12.1131 1.36863 16.299
186 4 1.26513 9.45045 5.98701 15.8214
188 2 -0.00118759 8.68935 2.1834 14.5187
189 2 -0.0625507 9.16041 3.30614 12.4352
295 2 0.182869 10.1277 1.54628 9.23119
19 2 -0.000295864 9.27637 3.05823 8.99504
96 4 0.678058 6.80413 0.357392 13.5531
304 2 0.129939 11.466 0.460441 14.8477
34 2 0.179905 4.04851 7.55639 3.86333
38 2 0.150204 5.27166 10.926 3.46914
39 2 0.146904 4.14239 11.9077 4.67136
40 2 0.137772 4.04163 9.99828 4.5115
45 1 -0.657854 4.55144 6.75276 4.60968
47 1 -0.665741 4.73327 10.907 4.53154
172 2 0.169902 3.26246 9.61739 1.72304
173 2 0.174304 4.01521 7.92046 2.09337
174 2 0.148518 3.49185 9.13816 3.52691
178 1 -0.65793 3.27509 8.82516 2.42207
222 4 0.642507 1.729 11.3567 6.02231
223 2 0.00750875 3.45497 11.0511 5.97674
233 3 -0.704771 1.16933 12.2407 7.40549
32 2 0.182208 4.77781 7.12749 5.68698
17 2 -0.0434885 2.80362 12.3122 0.738163
278 2 -0.021318 4.16023 12.1343 2.99792
232 1 -0.651267 1.80449 12.5237 4.44115
229 2 0.126297 2.48458 12.1954 3.63097
267 2 -0.0491086 3.41879 9.84835 8.67821
6 4 1.34533 5.84107 12.614 7.75687
64 3 -0.870206 8.12805 6.64337 0.92126
207 1 -0.664925 7.83189 11.8941 1.89878
69 3 -0.80212 6.19038 8.93304 6.18478
209 2 0.101763 10.1023 9.12273 1.15084
21 2 -0.0223622 6.04278 6.8016 7.80053
70 3 -0.814751 6.47475 11.5199 6.73256
285 2 0.161839 7.23214 12.6947 2.50441
68 3 -0.764469 7.76541 10.4867 4.42464
205 2 0.174017 7.09087 11.0826 1.42509
13 4 1.53291 7.61441 7.8642 1.68709
14 4 0.94259 6.98081 8.23242 7.36696
15 4 1.27407 6.37078 10.4708 5.5368
201 4 1.06283 8.59621 10.5989 3.12178
228 2 0.0831926 0.730715 11.7817 4.42857
63 3 -0.843398 6.68158 7.29059 2.9218
66 3 -0.770692 6.83274 8.80935 0.535722
65 3 -0.767518 8.81074 8.93789 2.11869
67 3 -0.796285 8.51959 7.82368 7.13409
213 2 -0.0238993 0.438576 12.6825 2.99129
101 4 0.761373 2.89094 7.54154 11.9019
112 2 0.0220493 3.8692 8.95904 12.1509
106 2 -0.0163446 1.06724 12.3264 12.9925
262 2 0.16797 3.42698 11.0581 14.5486
264 1 -0.627564 3.76129 10.6185 15.5817
268 2 -0.00880719 3.52367 10.9172 11.0777
263 2 0.153664 2.91587 10.5521 16.2941
306 2 0.161172 2.74219 10.7063 12.8817
308 1 -0.631542 2.93651 11.8536 12.7255
119 2 0.17088 2.87217 9.39145 14.1656
305 2 0.116082 2.811 12.4889 13.7092
265 4 0.935007 4.55145 10.6082 9.73606
129 1 -0.669886 2.34433 8.73413 13.3527
307 2 0.127432 2.3984 12.2424 11.7767
259 2 0.0463344 4.97571 11.6209 16.2851
125 2 0.00356689 1.54911 8.25266 17.0985
110 2 -0.0372629 3.31894 7.03182 9.15752
256 1 -0.653597 6.5308 7.32517 12.6908
261 2 0.0215084 4.12436 8.85178 15.2221
118 2 0.12768 1.58236 9.36017 12.7996
257 3 -0.799469 9.39623 6.77117 11.1396
270 3 -0.811304 4.91619 11.8875 8.91757
269 2 -0.014983 7.48686 8.88573 12.0381
20 2 0.0578551 6.6855 9.06869 8.7627
260 2 -0.0784489 6.76882 9.40448 15.7764
273 3 -0.769311 5.97111 11.3246 12.3298
253 2 0.209881 5.46827 6.88906 12.5237
284 1 -0.668691 9.54409 7.74652 14.9029
254 2 0.128989 6.4647 8.2332 13.373
258 4 0.65894 5.23237 9.68258 16.4421
248 2 0.0479377 6.79799 7.65531 10.8524
240 4 0.841329 4.9755 12.6816 12.7335
113 2 -0.0249378 5.46713 7.13831 14.3374
272 3 -0.797506 5.66941 9.54687 10.1007
282 2 0.158952 9.39782 7.6086 13.7783
266 4 1.08345 6.88182 10.372 11.3518
271 3 -0.839306 8.00252 11.0371 10.4952
281 2 0.135952 8.70129 8.27249 15.3694
ITEM: TIMESTEP
200
ITEM: NUMBER OF ATOMS
310
ITEM: BOX BOUNDS xy xz yz pp pp pp
-9.0288000000000004e+00 1.5411400000000000e+01 -7.2027000000000001e+00
0.0000000000000000e+00 1.3131817999999999e+01 -1.8261000000000001e+00
0.0000000000000000e+00 1.7503399999999999e+01 3.3975359999999988e-01
ITEM: ATOMS id type q x y z
26 2 0.147892 1.07103 2.5924 3.02828
72 2 -0.0207964 -0.000410364 3.0394 4.9457
83 2 0.11479 1.32798 0.201484 6.50222
74 2 0.12053 -0.60499 3.80499 1.72182
75 2 0.0364763 -1.83414 4.29473 3.25096
156 2 0.0238108 -1.5974 2.64887 7.85856
150 4 0.798545 -0.514971 4.04215 7.62767
159 2 -0.00268586 0.38365 5.322 5.31785
164 2 0.129488 0.917632 2.65528 6.53016
175 1 -0.643665 1.08714 3.83482 6.38766
179 3 -0.819253 -2.90449 5.6855 4.94546
180 3 -0.801996 -1.28258 5.30619 6.98666
195 2 0.193499 -1.94212 5.48362 1.15647
25 2 0.163163 0.904498 0.584321 2.74996
42 1 -0.670039 1.47041 1.58549 3.28937
71 4 0.721342 -1.50606 2.7846 4.08851
49 3 -0.764592 3.60361 3.26043 2.75923
275 2 0.0198332 -0.530292 1.34805 1.23136
143 2 -0.0229426 -0.206422 5.3203 0.157117
301 2 0.146055 -0.404531 1.36215 7.96483
76 1 -0.663147 -1.41574 2.97542 1.85632
132 3 -0.796731 2.15598 1.77817 8.74282
196 2 0.11762 -0.564743 6.21558 2.25204
152 4 1.37511 -2.0604 6.422 6.14679
43 1 -0.667347 -1.17464 0.907651 8.64048
274 2 0.0216964 -1.00435 1.49866 2.97087
27 2 0.135246 1.71814 1.47307 4.46621
77 4 1.02724 2.37658 0.219307 8.34619
291 2 0.178649 5.63876 1.77566 8.42883
22 2 0.15307 4.36775 1.28561 5.06662
163 2 0.145688 1.68662 4.00516 5.39134
51 3 -0.850216 4.16723 5.58793 1.2346
279 2 0.149593 3.2836 0.174853 5.53501
3 4 1.105 3.15728 1.7256 2.72358
50 3 -0.815194 5.27998 3.42616 0.612549
41 1 -0.639145 4.51622 0.713969 4.03676
310 3 -0.842258 6.565 1.08776 0.993416
48 3 -0.787168 3.21644 0.826282 1.2791
165 2 0.159857 1.75002 4.17329 7.2806
4 4 1.45412 4.82058 4.28719 1.87977
23 2 0.124338 5.63909 0.783093 3.68073
116 2 0.0859266 3.86908 5.01268 6.81419
104 2 -2.9595e-05 -0.326415 1.1197 10.4147
105 2 -0.0439835 -0.533225 1.98997 12.8183
142 4 0.706437 -2.76342 5.51495 16.053
144 2 0.0218257 -2.12748 3.74383 15.647
147 2 0.155643 -1.3052 4.51825 13.6817
149 3 -0.774753 -4.2785 5.79101 16.0929
162 2 -0.00508778 -3.60948 5.59326 10.699
166 2 0.192642 0.850913 4.04518 9.4554
290 1 -0.647313 -0.197887 0.612802 16.7512
145 2 0.0423713 -1.72231 6.52645 14.732
148 1 -0.619209 -2.13953 4.90569 14.3641
289 2 0.0936146 0.366482 1.21847 15.788
28 2 0.141746 -1.75803 1.62097 9.33019
146 2 0.156788 -3.16539 4.7536 13.8969
167 2 0.160643 -0.876389 4.36477 10.2328
176 1 -0.645479 -0.146858 4.6444 9.4018
108 2 0.107395 0.750047 5.56475 16.233
122 2 0.163861 1.31922 6.3801 9.67341
168 2 0.172086 -0.0290123 5.78778 9.32142
94 4 0.653934 0.668745 1.67091 11.7164
133 3 -0.775287 1.64289 2.83012 11.5202
219 2 0.19318 3.19633 2.83156 15.6559
111 2 0.0770649 2.87954 3.45873 12.6009
16 2 0.0177302 2.88838 0.892338 16.5617
220 1 -0.661594 4.12178 2.21406 15.7728
95 4 1.34431 2.92129 2.67815 10.0612
134 3 -0.855087 4.2405 2.01188 10.5723
136 3 -0.808607 3.28094 4.11982 9.48945
217 2 0.174495 3.98418 1.24473 15.2438
103 2 0.022433 1.45882 0.322658 12.2643
287 2 0.163478 -0.686987 1.27977 17.4885
286 2 0.176452 -6.68302 12.3508 0.946181
153 4 0.950705 -3.92343 8.34615 7.85561
182 3 -0.809182 -3.00874 7.28007 7.14026
193 4 1.0512 -2.31634 7.68136 2.46978
212 2 0.0151513 -2.1163 12.329 2.49383
200 3 -0.807533 -2.61523 8.84997 1.37709
202 2 0.186376 -4.70027 11.6858 2.60143
203 2 0.175437 -4.53727 9.93157 3.56231
204 2 0.179168 -4.81542 11.5961 4.60151
280 2 0.153575 -4.8096 11.2605 6.23953
206 1 -0.674642 -4.91706 11.0377 3.5388
177 1 -0.673303 -3.01708 9.92589 7.63878
171 2 0.170089 -3.57922 10.8457 7.19178
87 1 -0.648916 -4.64229 12.3888 6.4567
208 4 0.954121 -3.78536 9.50574 0.597865
199 3 -0.76763 -3.70253 7.01303 2.90567
169 2 0.195266 -2.07322 9.58736 7.06367
309 3 -0.810576 -3.82156 11.0735 0.242854
80 2 0.0333708 -3.21747 12.6006 7.65523
24 2 0.158765 -3.07985 12.4242 4.066
161 2 0.029784 1.97307 6.44259 1.00761
160 2 -0.0550077 1.67841 7.31067 6.05987
224 2 -0.0497507 1.35205 9.68686 6.27995
197 2 0.165334 -0.87333 6.85116 0.480764
184 3 -0.793098 1.10602 7.48197 3.50667
155 4 0.987573 1.7992 7.90194 2.02163
183 3 -0.779736 -0.884336 7.76161 5.31984
185 3 -0.789369 1.0638 8.98063 1.08178
214 3 -0.808895 -0.141005 11.3758 0.937972
234 4 1.0259 0.312867 10.08 0.123697
211 4 0.982239 -0.644346 12.5251 1.78547
194 2 0.0892878 -1.47149 8.29532 3.85933
154 4 0.865064 0.483312 7.0509 4.94147
158 2 0.107259 -5.43011 8.48261 7.07185
198 1 -0.653275 -1.34931 6.41328 1.38342
1 4 1.0124 -3.88852 12.7127 0.0120095
78 4 1.23277 -5.84552 10.9738 10.4693
79 4 0.663082 -4.86673 10.9613 13.413
81 2 -0.0263099 -5.29829 9.45241 14.0955
82 2 0.0961275 -5.16898 9.47532 9.9164
276 2 0.0109606 -5.06357 12.2701 14.7982
88 1 -0.631534 -3.44753 12.2366 14.1901
89 3 -0.859623 -5.20735 11.9473 9.43853
90 3 -0.836189 -5.38401 11.1721 11.9257
151 4 0.895195 -4.53682 7.06029 10.9661