ITEM: TIMESTEP
0
ITEM: NUMBER OF ATOMS
365
ITEM: BOX BOUNDS xy xz yz pp pp pp
-6.9345999999999997e+00 1.9702400000000001e+01 -6.9345999999999997e+00
0.0000000000000000e+00 1.5863300000000001e+01 2.0880000000000001e+00
0.0000000000000000e+00 1.7464200000000002e+01 8.7949999999999995e-01
ITEM: ATOMS id type q x y z
8 4 0.237448 -0.60163 4.53887 1.2653
68 1 -0.144342 -0.21301 6.78696 6.57925
105 3 -0.649684 0.97646 4.10921 0.87113
108 3 -0.64107 -1.59955 7.02649 3.99704
191 2 -0.00827514 1.37795 4.10036 4.73516
193 2 -0.0518885 1.0876 1.52629 0.75335
194 2 0.00584204 -2.59161 7.69263 1.79872
206 2 0.0380893 -0.51692 5.73004 2.12944
222 2 0.0577836 -0.38714 2.68233 2.81639
223 2 0.0385744 -2.42699 5.61278 0.01217
224 2 0.0489882 0.33462 5.89456 6.26303
225 2 0.010956 -1.06558 6.48341 7.19219
226 2 0.0704709 0.48673 7.38531 7.1784
254 2 0.0388582 0.93235 6.96667 2.19345
342 2 0.0344148 -0.95712 4.60612 4.76581
343 2 0.00509231 -0.27098 3.58002 6.86065
1 4 0.999557 3.19128 1.14967 2.94275
2 4 1.01078 1.88371 2.75697 0.83493
4 4 0.690548 2.34568 3.71717 5.79052
10 4 1.09789 1.81792 4.86868 8.59444
20 4 0.493047 7.74729 0.15003 2.44692
21 4 1.50637 5.01555 2.77635 4.73804
22 4 1.55739 6.70545 2.40518 0.38605
25 4 0.701515 7.1223 3.03539 6.82337
29 4 1.12404 6.27862 4.60315 2.54172
32 4 1.61853 5.95571 5.74164 8.08316
34 4 1.59841 4.84816 7.48817 5.83163
74 1 -0.0896262 8.02108 0.9547 4.08455
78 1 -0.128381 1.83384 6.62914 2.71653
79 1 -0.114015 4.73119 5.50941 2.25132
102 3 -0.711529 2.79263 2.58294 2.20429
107 3 -0.647891 2.23011 4.78858 7.02159
112 3 -0.562653 1.86077 0.57304 3.72935
119 3 -0.773268 4.33482 1.46106 4.07521
120 3 -0.696448 3.85931 3.84573 5.16162
121 3 -0.719319 7.02759 1.17383 1.37226
123 3 -0.750073 5.85557 2.2996 6.05407
129 3 -0.81273 6.04266 3.46595 3.69501
130 3 -0.802679 6.84239 3.8288 1.20304
133 3 -0.760534 6.61524 4.50161 7.31463
135 3 -0.760894 3.45179 7.45064 4.95722
136 3 -0.772302 4.84366 6.39488 7.06649
192 2 -0.00215773 2.10763 2.3344 6.28126
204 2 0.00330444 7.47355 2.18961 7.98323
240 2 0.0678132 8.02092 2.03597 3.94639
241 2 0.0403659 9.00269 0.66184 4.48156
242 2 0.102268 7.25929 0.70695 4.83081
252 2 0.0546672 1.58787 5.69077 3.22916
253 2 0.0587117 2.60478 6.42869 1.97745
255 2 0.092317 4.35406 5.83378 3.22865
256 2 0.081797 3.97904 4.84631 1.81318
257 2 0.0687839 4.85775 6.39403 1.61867
349 2 0.127907 4.71864 0.19236 1.25676
356 2 0.109576 4.21079 0.85582 6.88961
11 4 0.991978 -0.66845 7.82451 5.13048
14 4 0.490461 -5.34386 13.1674 4.339
15 4 0.662405 -1.90147 9.78242 7.12672
17 4 1.06125 -2.71539 12.6196 6.03037
37 4 1.11078 -0.3553 12.0301 4.01641
71 1 -0.135724 -0.29349 10.0887 7.99668
72 1 -0.150568 -3.12438 13.9935 7.2113
75 1 -0.130479 -0.18833 13.6656 8.14104
113 3 -0.62337 -1.58907 9.08741 5.648
114 3 -0.647035 -3.96147 12.5817 4.97439
115 3 -0.666133 -2.69892 11.1935 6.83566
131 3 -0.684503 0.79658 8.3669 4.56235
140 3 -0.584573 -0.21775 12.9678 2.67862
141 3 -0.71403 -1.31636 12.7285 5.16026
145 3 -0.76694 1.14454 11.8064 4.64225
209 2 0.0153552 -0.92279 10.7417 3.58665
232 2 0.0980913 0.47448 10.4883 7.3249
233 2 0.0157537 0.09934 9.1538 8.41537
235 2 0.00323433 -2.76502 13.8101 8.22843
236 2 0.0411758 -4.22129 14.0696 7.24209
244 2 0.0179538 -0.79519 12.7544 8.11517
245 2 0.0793824 -0.41196 14.2418 7.23739
327 1 -0.0752211 -3.15899 14.0122 1.73145
328 2 0.0411931 -3.92379 13.9111 0.95222
329 2 0.0754469 -3.01598 13.0337 2.20651
357 2 0.0136304 -3.94045 11.6845 0.59796
359 2 0.0300166 0.83044 8.66041 0.05166
23 4 0.639224 1.5973 13.2169 8.19347
30 4 1.08289 2.25872 7.96367 3.89519
36 4 1.05286 3.63289 9.64966 1.69088
39 4 1.5736 3.66953 9.68934 7.30774
40 4 1.59904 2.46477 11.9943 5.56092
138 3 -0.701717 2.83972 9.29182 3.08979
139 3 -0.700556 3.65718 8.33269 0.72873
142 3 -0.673267 2.9423 10.9042 0.90389
143 3 -0.785062 2.69399 8.51412 7.8979
144 3 -0.845803 4.9207 8.97462 6.52394
146 3 -0.872848 2.77613 10.5581 6.26827
147 3 -0.748797 2.20276 13.1662 6.66191
181 3 -0.75211 4.25609 10.5831 8.51264
336 1 -0.000618955 2.45432 13.8051 1.77404
337 2 0.126938 2.49749 13.7517 0.68432
338 2 0.177706 2.82274 12.8744 2.20888
3 4 1.02732 1.71907 2.21625 10.1084
12 4 1.01746 1.71266 5.10325 13.7149
13 4 0.647474 1.17294 8.00383 12.7775
67 1 -0.101091 0.57217 5.95554 17.1859
106 3 -0.719743 2.36677 3.49808 9.3097
109 3 -0.541202 0.56379 4.07807 14.2403
110 3 -0.753427 2.4682 4.37707 12.4397
111 3 -0.67465 0.92152 6.4425 13.1956
190 2 -0.0495393 1.71205 1.00828 9.26686
195 2 -0.0696292 0.35764 4.95404 8.77237
330 1 -0.00539685 1.53128 2.28975 16.2539
332 2 0.0326216 1.34126 2.88073 17.1565
345 2 0.167988 -0.42903 4.6647 11.8896
353 2 0.0718171 0.27553 5.14566 16.5124
354 2 0.0433434 1.18632 6.66812 16.6208
5 4 0.855227 4.60556 1.18379 14.4453
7 4 1.51714 3.44433 3.07647 12.314
24 4 1.14356 5.693 3.64288 10.226
26 4 1.06494 9.34936 0.92244 13.525
27 4 1.09329 6.16781 3.20345 16.1404
28 4 1.10487 8.71565 3.08701 11.3124
33 4 1.1285 2.68505 7.79646 9.37015
69 1 -0.143445 2.997 5.56443 14.9556
77 1 -0.143294 6.80767 4.28222 14.7885
80 1 -0.12626 5.57894 6.82458 16.7085
82 1 -0.125817 5.07399 6.8079 12.3674
103 3 -0.769548 2.69153 1.93789 11.4046
104 3 -0.775029 3.77635 2.46576 13.7907
122 3 -0.803698 4.82733 3.55226 11.6056
124 3 -0.692206 5.74965 1.76132 15.4726
125 3 -0.801052 7.28755 3.01181 17.3102
126 3 -0.737182 4.86186 3.78047 16.9414
127 3 -0.751784 7.24768 3.39891 10.6675
128 3 -0.752795 8.59854 2.05233 12.5957
132 3 -0.745877 5.42367 5.11673 9.51812
134 3 -0.69979 2.50371 6.18206 9.25817
137 3 -0.712331 4.08913 8.13655 10.0924
203 2 -0.0271507 5.29312 2.56973 9.29423
216 2 -0.0243191 6.68534 7.45253 14.2241
227 2 0.0158082 3.07653 6.6559 15.0339
228 2 0.05027 3.96925 5.17465 14.6383
229 2 0.0774141 2.8088 5.17584 15.9587
249 2 0.0790518 7.57131 3.70573 14.2476
250 2 0.0124794 7.27274 5.19955 15.163
251 2 0.0510879 6.02956 4.5489 14.0614
258 2 0.0187753 5.35865 6.41462 15.7193
259 2 0.0879349 4.96538 6.26832 17.4241
260 2 0.0345557 6.6339 6.63206 16.9331
261 2 0.0246032 2.88967 7.79367 17.2294
263 2 0.0614195 6.03377 6.28393 12.4531
264 2 0.124782 4.34915 6.1124 11.9293
265 2 0.0024583 4.73896 7.07505 13.3749
331 2 0.125602 2.5223 2.54763 15.8752
358 2 0.0821824 6.1127 0.7521 12.5562
16 4 0.216238 -3.40776 12.1095 10.417
18 4 0.996024 -0.19256 10.0729 14.5319
19 4 0.606392 -1.87856 9.91591 11.8532
42 4 0.636172 1.36425 12.7919 15.2223
73 1 -0.150013 -0.83489 9.37877 16.1193
83 1 -0.131302 0.95087 12.6924 11.2801
116 3 -0.684633 0.99692 9.05172 14.0304
117 3 -0.566791 -3.13605 10.9416 11.5643
118 3 -0.671349 -1.37426 10.1084 13.3994
149 3 -0.675774 0.36025 11.6123 14.6671
150 3 -0.526431 1.25608 14.1686 14.3184
154 3 -0.53181 2.39373 14.3133 9.10371
196 2 -0.0331756 0.15049 8.31716 11.7513
198 2 -0.00651421 -2.09494 12.4757 9.8238
199 2 0.0355329 -4.00748 13.3067 11.0591
200 2 -0.0417572 -0.78897 10.2567 10.9063
202 2 0.00576267 1.84631 11.8748 8.76178
207 2 -0.0935685 1.52818 8.33749 10.103
213 2 -0.0156307 0.99088 13.1096 16.6152
234 2 -0.00122306 -0.42809 10.7781 8.83871
237 2 0.0111146 -0.14168 9.55962 16.9537
238 2 0.0567379 -0.93797 8.29079 16.0025
239 2 0.0313164 -1.81603 9.78005 16.3921
243 2 0.0205647 -0.49777 14.2553 9.01225
266 2 0.0933528 0.41867 12.499 12.2197
267 2 0.00548644 0.65789 11.9087 10.5727
268 2 0.0453687 0.62465 13.6644 10.8989
320 4 0.327391 -3.37395 12.9422 16.1171
321 1 -0.117698 -1.74895 12.6884 16.9799
323 3 -0.500069 -3.37446 14.4052 15.3462
324 2 0.0314933 -1.24329 11.8001 16.5936
325 2 0.0692543 -1.08396 13.5423 16.812
326 2 0.138425 -3.05842 11.6885 14.0185
333 1 -0.0577023 -1.62357 14.3005 13.0586
334 2 0.0531017 -2.42103 14.0928 12.3312
335 2 0.115976 -1.20834 13.3468 13.4044
31 4 0.588955 5.12613 8.61468 16.7872
35 4 1.14309 5.20542 8.29585 11.2765
38 4 0.664257 4.31334 12.2641 16.9655
41 4 1.1395 4.28405 10.6456 13.2056
43 4 1.08331 2.75475 12.6188 11.6758
81 1 -0.144289 3.25763 8.75019 16.8328
148 3 -0.720721 4.98278 9.71456 12.058
151 3 -0.720835 2.89042 11.2988 12.6427
152 3 -0.531527 3.19084 13.9873 12.5202
173 3 -0.609357 5.91063 9.41613 15.5429
182 3 -0.656259 3.84722 12.3541 10.4924
208 2 -0.0127863 2.56408 8.16136 12.3038
210 2 -0.0287167 3.87876 9.81579 14.3333
211 2 0.0196696 2.75061 12.304 15.0972
212 2 -0.0121969 3.92937 11.0356 16.2506
262 2 0.0480022 2.78627 8.91899 15.8566
341 2 0.00135857 3.15129 13.0844 17.3613
52 4 1.53028 7.56947 6.98947 4.04973
76 1 -0.114835 8.52076 3.52271 5.75636
89 1 -0.11535 9.98405 3.79329 2.90031
164 3 -0.787048 7.40896 5.64472 3.13387
165 3 -0.868872 6.19269 7.24946 4.90837
168 3 -0.79871 7.07598 6.88034 8.38767
171 3 -0.78182 8.90694 6.79208 4.98048
176 3 -0.67819 8.3577 7.352 0.6821
246 2 0.117388 8.11644 4.02512 4.87383
247 2 -0.0011765 9.22034 2.75374 5.43781
248 2 0.0423901 9.04757 4.28577 6.33381
283 2 0.0824015 9.10956 3.34107 2.41683
284 2 0.0980403 9.64331 4.55768 3.60085
287 2 0.0130568 10.1332 2.42744 7.05349
290 2 0.0962314 9.49323 5.55786 8.03751
360 2 0.0736117 10.0819 0.4923 2.09133
9 4 0.459331 14.7319 6.8494 2.97427
47 4 0.280599 14.106 3.82947 5.94012
51 4 1.03227 11.1085 4.48102 1.63639
54 4 0.63482 11.4434 5.18392 6.62447
56 4 1.00374 10.398 7.5327 5.06904
66 1 -0.114258 16.387 3.08779 2.23588
85 1 -0.110955 13.4702 2.17865 5.39412
90 1 -0.132326 10.9441 1.92005 7.57647
91 1 -0.105736 10.503 5.16157 8.21306
162 3 -0.796288 11.5542 3.17694 0.71966
163 3 -0.497613 12.3454 5.30469 2.41383
166 3 -0.644035 10.4394 5.59993 0.63865
167 3 -0.574604 13.0152 4.73324 6.8083
170 3 -0.472764 11.2313 7.34519 3.65787
172 3 -0.639166 11.3177 6.7699 6.18093
214 2 -0.00186335 10.9603 4.36591 5.49094
270 2 0.0436722 13.2466 1.53169 6.24604
271 2 0.0398489 14.2705 1.69766 4.81375
272 2 0.0429589 12.5755 2.22612 4.76026
282 2 0.0133028 10.5079 3.00894 3.46409
285 2 0.0515393 11.202 1.02053 6.9982
286 2 0.0305577 11.819 2.57771 7.5983
339 3 -0.67281 12.1638 0.56748 0.56385
351 2 0.0626273 13.9114 2.2948 1.59331
352 2 0.0685104 13.5118 3.37327 2.93457
361 2 0.0405893 15.3306 0.36862 1.39511
362 2 0.0548804 14.4456 0.6677 2.91774
44 4 0.857367 6.05598 13.5266 1.40637
59 4 1.05057 8.5563 8.67029 1.64149
60 4 1.04869 5.30384 12.3686 4.20175
61 4 0.974398 7.49548 11.1511 0.04859
63 4 0.579349 7.58101 13.0342 6.1942
84 1 -0.082219 7.66136 14.0709 2.09434
92 1 -0.135685 10.1089 9.29441 5.53418
98 1 -0.117774 5.99778 10.6607 4.20909
175 3 -0.791216 7.89662 8.27624 3.09381
177 3 -0.686508 5.21119 13.0573 2.72273
178 3 -0.784099 3.75636 12.4661 4.71258
179 3 -0.73756 7.6861 9.99475 1.19713
180 3 -0.67731 6.29784 12.1894 0.46009
183 3 -0.498499 9.00834 13.3655 5.46497
184 3 -0.668562 6.28898 13.2522 5.19759
217 2 0.0135177 5.01951 10.0075 1.97818
218 2 0.0140111 4.63818 13.0157 8.15503
219 2 -0.0141514 7.44415 13.9727 7.33756
220 2 -0.0283026 7.61641 11.6236 6.66876
269 2 0.0822913 8.07805 13.1586 2.52677
292 2 0.0325216 9.6927 9.33355 6.55218
293 2 0.0396661 9.36379 9.74055 4.86382
308 2 0.062137 6.49986 10.4569 5.16302
309 2 0.0875751 6.72111 10.5278 3.39634
310 2 0.0914151 5.22376 9.90127 4.08202
363 2 0.080039 8.83051 11.3698 3.23939
70 1 -0.102597 14.6209 8.76581 8.24355
96 1 -0.129168 10.3484 9.11288 1.51627
97 1 -0.0932675 11.8788 11.8744 3.07643
230 2 0.0279182 15.082 7.79024 8.45342
291 2 0.0592733 11.0155 9.90999 5.51202
303 2 0.0232752 10.442 9.95638 0.82316
304 2 0.0911559 10.9149 8.26988 1.10756
305 2 0.0615524 10.826 9.39351 2.45511
306 2 0.0788853 12.6688 11.1262 3.18489
307 2 0.0336916 11.8985 12.238 2.04437
355 2 0.098275 11.5311 8.58702 7.84221
46 4 0.475901 10.4759 1.36743 9.27331
49 4 1.12112 10.9532 2.80607 15.6036
53 4 0.650921 11.2975 7.14959 17.2493
55 4 1.15129 7.78786 7.74081 9.58232
58 4 0.633697 9.76746 7.12675 11.6956
95 1 -0.144852 9.21032 6.46482 13.3339
155 3 -0.685858 9.7281 2.54362 10.1701
157 3 -0.699068 10.3325 1.60302 14.6434
159 3 -0.81016 9.74022 3.3998 16.5334
174 3 -0.675632 8.73747 6.72289 10.4556
205 2 -0.0436989 9.27463 4.34104 11.8127
273 2 0.0173128 10.9549 4.40467 13.7347
288 2 0.0580974 11.0009 5.87685 8.8803
289 2 0.0629274 10.4118 4.2088 8.73602
295 2 0.028719 8.6353 7.39333 16.2712
300 2 0.0196799 9.35018 5.38664 13.4336
301 2 0.0322677 8.14698 6.66192 13.5035
302 2 0.00159212 9.79225 6.9452 14.1339
346 2 0.030371 10.3732 6.08993 16.796
6 4 0.799219 15.7433 2.7066 15.0565
45 4 1.46378 13.5709 2.71033 17.241
48 4 0.810336 14.2188 1.12207 12.966
50 4 0.311864 14.5241 3.49473 11.1928
86 1 -0.134565 11.67 4.10794 14.5094
87 1 -0.0914658 12.0416 0.93397 10.1622
88 1 -0.113913 13.4027 4.0352 9.82535
94 1 -0.133791 11.4883 6.51928 11.3792
153 3 -0.757919 14.3814 3.06013 15.8823
156 3 -0.631753 15.439 1.48021 14.0088
158 3 -0.760397 12.0719 2.30648 16.718
160 3 -0.547755 17.8099 2.55048 10.5567
161 3 -0.610248 13.7252 2.54073 12.2932
274 2 0.110123 12.5634 3.72273 14.0046
275 2 0.0309592 11.9567 5.00368 15.077
276 2 0.0662922 12.4766 1.893 10.4522
279 2 0.052878 12.3467 4.02311 10.1152
280 2 0.0422665 13.525 3.39086 8.94762
281 2 0.0431219 13.6546 5.05885 9.51866
297 2 0.0491786 11.9711 6.9664 10.5019
298 2 0.0256805 11.4575 5.43004 11.2504
299 2 0.0251497 12.1141 6.72572 12.2599
347 2 -0.0233714 11.9177 7.8577 16.0926
350 2 0.0663143 17.0682 1.23086 16.5292
57 4 0.571996 7.20492 8.71596 14.7707
62 4 0.734134 4.78594 11.9728 9.20557
64 4 0.605709 9.20356 9.93726 12.7908
65 4 1.07488 6.0201 13.0266 14.4983
93 1 -0.123563 8.5494 8.45722 16.0153
99 1 -0.112361 6.54737 11.746 9.70696
100 1 -0.115215 9.10315 11.5258 11.84
101 1 -0.115306 7.78177 12.6117 14.7651
169 3 -0.709859 6.66503 8.42673 10.5451
185 3 -0.586097 7.73548 9.60598 13.4921
186 3 -0.626447 9.69027 8.7758 11.7345
187 3 -0.70101 5.28901 11.8848 13.5779
188 3 -0.560084 6.02088 14.5007 13.7309
189 3 -0.642053 5.26162 13.1535 15.9546
215 2 -0.033805 8.57928 8.8029 8.93009
221 2 -0.0334142 10.1899 9.91543 13.8904
277 2 0.0122171 5.82606 15.4289 9.49186
278 2 0.117093 4.98497 15.3327 11.0759
294 2 0.0186695 9.5237 8.80253 15.6471
296 2 0.0984673 8.32849 8.99944 16.9417
311 2 0.0182146 7.1338 11.3608 8.86075
312 2 0.137173 6.60845 11.0136 10.5198
313 2 0.0116948 7.00082 12.6867 10.0435
314 2 0.0575262 8.10089 11.9595 11.8989
315 2 0.044635 9.32286 11.3334 10.7814
316 2 0.0255963 9.81923 12.2704 12.2125
317 2 0.028275 8.37703 12.7222 13.8543
318 2 0.0618409 7.86939 11.5826 15.1144
319 2 0.0861132 8.19198 13.2874 15.5223
340 3 -0.56219 10.9415 12.9251 17.2614
344 2 0.0214853 7.82714 14.3162 11.9393
348 2 -0.0495833 9.2639 11.2752 16.3053
365 2 0.041142 10.762 11.9244 14.4192
197 2 0.0332911 13.2937 11.5932 9.36241
201 2 -0.00827879 15.2644 8.52852 11.6844
231 2 0.0296838 14.5089 9.29542 9.20181
322 1 -0.0400724 13.8335 11.6826 14.8404
364 2 0.0352371 11.6994 10.6586 15.2348
ITEM: TIMESTEP
1
ITEM: NUMBER OF ATOMS
365
ITEM: BOX BOUNDS xy xz yz pp pp pp
-6.9345999999999997e+00 1.9702400000000001e+01 -6.9345999999999997e+00
0.0000000000000000e+00 1.5863300000000001e+01 2.0880000000000001e+00
0.0000000000000000e+00 1.7464200000000002e+01 8.7949999999999995e-01
ITEM: ATOMS id type q x y z
8 4 0.251414 -0.601349 4.48659 1.23435
68 1 -0.141912 -0.20733 6.77667 6.59327
105 3 -0.672325 0.97176 4.11209 0.871461
108 3 -0.653095 -1.59993 7.02413 3.99607
191 2 -0.0100052 1.34303 4.11323 4.69813
193 2 -0.0379606 1.05176 1.47214 0.749299
194 2 0.0106068 -2.58106 7.7248 1.75342
206 2 0.0414676 -0.514317 5.77505 2.16282
222 2 0.0569058 -0.389532 2.68278 2.81527
223 2 0.0382609 -2.42489 5.61098 0.0140455
224 2 0.0493506 0.333242 5.89647 6.26136
225 2 0.0110208 -1.06576 6.4851 7.18971
226 2 0.0701752 0.485108 7.38534 7.17664
254 2 0.0378 0.93421 6.96774 2.19488
342 2 0.0329811 -0.957401 4.60621 4.76556
343 2 0.00534631 -0.271172 3.57977 6.86076
1 4 1.01378 3.19089 1.14402 2.95356
2 4 1.04522 1.91694 2.8149 0.84107
4 4 0.747095 2.39746 3.75344 5.81034
10 4 1.16288 1.88571 4.87038 8.58311
20 4 0.493221 7.74241 0.142567 2.4492
21 4 1.50605 5.00171 2.77623 4.72912
22 4 1.55462 6.70389 2.40889 0.387017
25 4 0.720485 7.11271 3.07272 6.78639
29 4 1.13181 6.28977 4.6017 2.54716
32 4 1.62871 5.95895 5.75454 8.07543
34 4 1.59882 4.85523 7.47931 5.82444
74 1 -0.0898767 8.02389 0.95687 4.0905
78 1 -0.128749 1.82876 6.61872 2.70753
79 1 -0.113974 4.71988 5.5151 2.25028
102 3 -0.728233 2.79294 2.5781 2.20328
107 3 -0.69615 2.22643 4.78639 7.01867
112 3 -0.568059 1.86544 0.569906 3.72687
119 3 -0.782714 4.33309 1.45962 4.07284
120 3 -0.726265 3.85666 3.84429 5.16183
121 3 -0.716274 7.03054 1.16957 1.37321
123 3 -0.75056 5.8589 2.29992 6.05494
129 3 -0.815406 6.04312 3.46676 3.69396
130 3 -0.807408 6.8406 3.82932 1.20274
133 3 -0.770174 6.61583 4.49945 7.3162
135 3 -0.765093 3.44878 7.4499 4.95348
136 3 -0.780576 4.84592 6.3932 7.06942
192 2 -0.00370017 2.09925 2.28649 6.2977
204 2 0.0103684 7.48709 2.15877 8.02658
240 2 0.0683756 8.01986 2.03435 3.94425
241 2 0.0401396 9.00117 0.660826 4.4793
242 2 0.100977 7.25896 0.705659 4.82797
252 2 0.0524908 1.58918 5.69346 3.23012
253 2 0.0575439 2.60502 6.43106 1.97918
255 2 0.0903507 4.35599 5.8329 3.22827
256 2 0.0783814 3.98157 4.84538 1.81351
257 2 0.0685853 4.85994 6.39245 1.6193
349 2 0.126472 4.71512 0.178396 1.264
356 2 0.108365 4.21117 0.851454 6.88872
11 4 0.999315 -0.671949 7.82764 5.11692
14 4 0.493134 -5.34294 13.163 4.32965
15 4 0.670785 -1.9027 9.79088 7.11817
17 4 1.07675 -2.71218 12.6076 6.01706
37 4 1.14788 -0.330385 12.0877 4.03342
71 1 -0.13363 -0.281394 10.0904 8.00478
72 1 -0.147528 -3.13185 14.0114 7.22802
75 1 -0.135706 -0.196039 13.6665 8.14112
113 3 -0.62972 -1.58969 9.08765 5.65028
114 3 -0.653469 -3.96188 12.5838 4.9754
115 3 -0.675971 -2.69854 11.1935 6.83813
131 3 -0.689816 0.7971 8.36629 4.56177
140 3 -0.603025 -0.216252 12.9703 2.68313
141 3 -0.73769 -1.31456 12.7284 5.15877
145 3 -0.779823 1.14064 11.8063 4.6401
209 2 0.0289714 -0.944528 10.6916 3.57078
232 2 0.100494 0.471339 10.4877 7.32388
233 2 0.0181879 0.0965177 9.15461 8.41354
235 2 0.00410457 -2.76205 13.8087 8.22546
236 2 0.0421843 -4.21997 14.0688 7.23868
244 2 0.0182842 -0.792205 12.7549 8.11502
245 2 0.0767585 -0.409311 14.2409 7.2381
327 1 -0.0766952 -3.16281 14.0292 1.71922
328 2 0.0416893 -3.92404 13.9119 0.954864
329 2 0.0755496 -3.00855 13.0385 2.21002
357 2 0.0146079 -3.94317 11.6846 0.595732
359 2 0.0273435 0.833707 8.65943 0.0507018
23 4 0.652311 1.59004 13.2743 8.17679
30 4 1.0943 2.26303 7.96941 3.90396
36 4 1.08717 3.56717 9.63811 1.67722
39 4 1.58603 3.69954 9.78934 7.23428
40 4 1.60572 2.47466 11.9754 5.56458
138 3 -0.721499 2.84068 9.2904 3.08932
139 3 -0.716564 3.65848 8.33192 0.72975
142 3 -0.710579 2.9413 10.9059 0.901528
143 3 -0.706587 2.69471 8.51808 7.89876
144 3 -0.849243 4.91696 8.97879 6.52624
146 3 -0.931274 2.77899 10.5577 6.27183
147 3 -0.752572 2.20158 13.1666 6.66475
181 3 -0.769806 4.25551 10.5853 8.51176
336 1 -0.00154725 2.45898 13.8127 1.76566
337 2 0.124777 2.49492 13.7525 0.685054
338 2 0.176663 2.82129 12.8771 2.21474
3 4 1.05924 1.70365 2.25936 10.1356
12 4 1.02867 1.70348 5.10305 13.7085
13 4 0.686746 1.15938 7.98023 12.8345
67 1 -0.102701 0.566228 5.96012 17.1786
106 3 -0.753754 2.36547 3.49689 9.30741
109 3 -0.546346 0.566923 4.08017 14.2417
110 3 -0.757346 2.46703 4.38048 12.4419
111 3 -0.69895 0.922539 6.44461 13.1953
190 2 -0.0377368 1.71195 0.95371 9.22821
195 2 -0.0588586 0.293779 4.95787 8.7796
330 1 -0.00550965 1.53609 2.29536 16.2574
332 2 0.0319693 1.33838 2.87805 17.1547
345 2 0.165367 -0.428701 4.6645 11.8898
353 2 0.0708239 0.277481 5.14492 16.5153
354 2 0.0432651 1.18665 6.66603 16.6233
5 4 0.861243 4.59798 1.17258 14.4528
7 4 1.51289 3.4602 3.0805 12.331
24 4 1.19124 5.70945 3.67882 10.2778
26 4 1.06851 9.34542 0.896357 13.5232
27 4 1.10277 6.16883 3.19542 16.1425
28 4 1.14233 8.68967 3.02398 11.2907
33 4 1.15097 2.70072 7.70325 9.41173
69 1 -0.14253 3.00735 5.56828 14.9655
77 1 -0.141832 6.81282 4.28989 14.7779
80 1 -0.12406 5.58141 6.8068 16.7082
82 1 -0.128105 5.0733 6.79518 12.3771
103 3 -0.767227 2.69183 1.93502 11.4036
104 3 -0.780427 3.77844 2.46124 13.793
122 3 -0.832256 4.82995 3.55144 11.6029
124 3 -0.69498 5.74921 1.76015 15.4716
125 3 -0.804531 7.28724 3.01243 17.3095
126 3 -0.751905 4.86241 3.78079 16.9388
127 3 -0.789987 7.24763 3.39913 10.666
128 3 -0.76676 8.60002 2.05202 12.5956
132 3 -0.763172 5.4258 5.11436 9.5158
134 3 -0.767748 2.50112 6.18422 9.26029
137 3 -0.723666 4.08838 8.13707 10.0958
203 2 -0.0146187 5.27724 2.52794 9.25867
216 2 -0.0182361 6.66394 7.39917 14.2009
227 2 0.014545 3.07458 6.65393 15.032
228 2 0.0499548 3.96637 5.17414 14.637
229 2 0.0773398 2.8068 5.17502 15.9564
249 2 0.0793841 7.56977 3.70541 14.2498
250 2 0.0132995 7.27136 5.19705 15.1648
251 2 0.049768 6.02949 4.54708 14.0643
258 2 0.0195905 5.35865 6.41765 15.7206
259 2 0.0851054 4.96551 6.27073 17.4234
260 2 0.0350586 6.63209 6.63496 16.933
261 2 0.0250349 2.89228 7.79522 17.2286
263 2 0.0573061 6.03291 6.2865 12.4511
264 2 0.11873 4.34985 6.11441 11.9284
265 2 0.00317843 4.73929 7.07701 13.3723
331 2 0.126513 2.52011 2.5449 15.8729
358 2 0.0805925 6.11082 0.740256 12.561
16 4 0.248361 -3.39722 12.0672 10.4557
18 4 1.01033 -0.188719 10.0819 14.5206
19 4 0.651587 -1.90332 9.96256 11.8954
42 4 0.678259 1.32351 12.8021 15.1672
73 1 -0.147801 -0.842808 9.36911 16.14
83 1 -0.12952 0.928049 12.6921 11.2764
116 3 -0.703161 0.99885 9.04896 14.0285
117 3 -0.599294 -3.13592 10.9416 11.5622
118 3 -0.696528 -1.37659 10.1075 13.3964
149 3 -0.700648 0.362055 11.6163 14.67
150 3 -0.549396 1.2661 14.1802 14.3154
154 3 -0.543241 2.39852 14.3253 9.10193
196 2 -0.0343586 0.115209 8.32834 11.7139
198 2 -0.011657 -2.04954 12.4892 9.8026
199 2 0.0329154 -4.02892 13.3491 11.0821
200 2 -0.0429761 -0.750043 10.2676 10.8733
202 2 0.0161964 1.85526 11.8253 8.78374
207 2 -0.0837902 1.48067 8.36048 10.134
213 2 -0.0146345 0.978266 13.121 16.667
234 2 -0.000588053 -0.430172 10.777 8.83598
237 2 0.0115518 -0.141698 9.5606 16.9503
238 2 0.0563403 -0.937229 8.2932 16.0007
239 2 0.0314597 -1.81441 9.78069 16.3896
243 2 0.0187898 -0.494781 14.2544 9.01138
266 2 0.0904227 0.421111 12.4992 12.219
267 2 0.00707458 0.660771 11.9098 10.5739
268 2 0.0437372 0.627776 13.6637 10.8996
320 4 0.328801 -3.37882 12.9419 16.0989
321 1 -0.117223 -1.73633 12.685 16.9876
323 3 -0.503555 -3.3688 14.4165 15.3442
324 2 0.0313012 -1.24594 11.8012 16.5926
325 2 0.0680464 -1.08709 13.5421 16.8106
326 2 0.135393 -3.05968 11.6884 14.0199
333 1 -0.0605522 -1.62662 14.3114 13.0476
334 2 0.052325 -2.42105 14.0942 12.3338
335 2 0.1125 -1.20359 13.3518 13.4082
31 4 0.591209 5.12529 8.62008 16.7922
35 4 1.15969 5.20526 8.30364 11.2677
38 4 0.712815 4.37886 12.279 16.9801
41 4 1.17952 4.30979 10.6797 13.1559
43 4 1.07727 2.76536 12.6308 11.6762
81 1 -0.145175 3.23912 8.7503 16.8334
148 3 -0.745521 4.98114 9.71269 12.0597
151 3 -0.731721 2.89099 11.2967 12.6443
152 3 -0.541492 3.18325 14.0007 12.5255
173 3 -0.61828 5.90976 9.41494 15.5422
182 3 -0.669738 3.84882 12.3547 10.4873
208 2 -0.0134935 2.6149 8.16748 12.2853
210 2 -0.0135707 3.86089 9.77702 14.387
211 2 0.019623 2.80183 12.286 15.0929
212 2 -0.0138711 3.91351 10.9894 16.2234
262 2 0.0476506 2.78973 8.91863 15.8575
341 2 0.00270269 3.1076 13.1145 17.3751
52 4 1.54652 7.54602 6.98307 4.03733
76 1 -0.119963 8.52469 3.52515 5.75318
89 1 -0.115421 9.97742 3.78906 2.90741
164 3 -0.803912 7.40799 5.64669 3.13543
165 3 -0.883502 6.19715 7.24883 4.9044
168 3 -0.826712 7.07634 6.88018 8.3876
171 3 -0.768017 8.90285 6.79231 4.97889
176 3 -0.701792 8.35802 7.35139 0.678603
246 2 0.114619 8.11483 4.02405 4.87523
247 2 -0.000889813 9.21798 2.75271 5.43967
248 2 0.0415244 9.04604 4.28433 6.33387
283 2 0.0815853 9.11145 3.34257 2.41567
284 2 0.097877 9.64487 4.55881 3.59851
287 2 0.0134439 10.1332 2.42639 7.05693
290 2 0.0959863 9.49534 5.55699 8.03601
360 2 0.0744088 10.0812 0.485621 2.09227
9 4 0.467623 14.7251 6.81932 3.02328
47 4 0.282962 14.1011 3.82983 5.94064
51 4 1.04671 11.1144 4.48599 1.63055
54 4 0.652255 11.4702 5.21243 6.66735
56 4 1.00968 10.4174 7.52641 5.0636
66 1 -0.118106 16.3889 3.09177 2.23478
85 1 -0.110722 13.4698 2.17331 5.39201
90 1 -0.132088 10.9473 1.92127 7.566
91 1 -0.109457 10.497 5.16309 8.22325
162 3 -0.799675 11.5544 3.1784 0.721411
163 3 -0.506446 12.3411 5.29722 2.40967
166 3 -0.669832 10.4367 5.59945 0.637903
167 3 -0.585309 13.0155 4.73139 6.80853
170 3 -0.482566 11.2288 7.34816 3.66052
172 3 -0.651926 11.3197 6.76827 6.18326
214 2 0.00438474 10.9409 4.33417 5.44749
270 2 0.0432036 13.2477 1.53438 6.24632
271 2 0.0393866 14.2701 1.70007 4.81525
272 2 0.0429977 12.577 2.22885 4.76186
282 2 0.0138173 10.5085 3.01072 3.46192
285 2 0.0502744 11.201 1.02117 7.00074
286 2 0.0311986 11.8174 2.57666 7.60056
339 3 -0.67179 12.1683 0.555605 0.568346
351 2 0.0618488 13.9112 2.29507 1.59295
352 2 0.0678076 13.5114 3.37426 2.9343
361 2 0.0404853 15.3265 0.35581 1.39998
362 2 0.05489 14.4457 0.661505 2.91697
44 4 0.855967 6.06314 13.5374 1.40628
59 4 1.06254 8.54346 8.66446 1.64395
60 4 1.05179 5.29862 12.3809 4.20102
61 4 1.01166 7.51348 11.1885 0.10729
63 4 0.618718 7.5895 13.0523 6.13341
84 1 -0.0867901 7.65357 14.0823 2.08544
92 1 -0.133034 10.1046 9.31642 5.54091
98 1 -0.117812 6.00437 10.643 4.20853
175 3 -0.798167 7.89753 8.27417 3.09763
177 3 -0.687408 5.21011 13.0572 2.71883
178 3 -0.793306 3.75656 12.4652 4.71266
179 3 -0.756075 7.68632 9.99629 1.19553
180 3 -0.691253 6.29599 12.1908 0.45925
183 3 -0.516245 9.00317 13.3637 5.46762
184 3 -0.68959 6.29046 13.2517 5.19926
217 2 0.0299427 5.08362 10.024 1.99131
218 2 0.0180759 4.63355 13.0521 8.12005
219 2 -0.0149002 7.43887 14.0045 7.37767
220 2 -0.0291366 7.6176 11.5763 6.68547
269 2 0.0783685 8.08239 13.1633 2.52711
292 2 0.0339749 9.69381 9.33146 6.55006
293 2 0.0407424 9.3653 9.73783 4.86381
308 2 0.0584669 6.4984 10.4591 5.1618
309 2 0.0854985 6.71975 10.5301 3.3971
310 2 0.0891824 5.2229 9.904 4.08254
363 2 0.0772304 8.83077 11.3697 3.23937
70 1 -0.104466 14.6208 8.75763 8.25811
96 1 -0.128007 10.3657 9.11721 1.5152
97 1 -0.0944847 11.8862 11.8823 3.07716
230 2 0.0279505 15.0802 7.79013 8.44861
291 2 0.0582486 11.0153 9.90681 5.51112
303 2 0.023402 10.44 9.95509 0.824101
304 2 0.0887938 10.9122 8.26981 1.1082
305 2 0.0617625 10.8227 9.39263 2.45548
306 2 0.0783081 12.6662 11.1246 3.18847
307 2 0.0337451 11.8939 12.2404 2.04629
355 2 0.0978299 11.5314 8.58678 7.84221
46 4 0.480903 10.4618 1.35664 9.28038
49 4 1.12775 10.9388 2.79622 15.6032
53 4 0.697293 11.3155 7.16442 17.3129
55 4 1.19089 7.7435 7.69126 9.60046
58 4 0.639723 9.76491 7.13163 11.6928
95 1 -0.145195 9.20425 6.45753 13.3526
155 3 -0.703857 9.72781 2.54298 10.1678
157 3 -0.700721 10.332 1.60269 14.6424
159 3 -0.813047 9.74081 3.40088 16.532
174 3 -0.692553 8.73798 6.72282 10.4545
205 2 -0.0289001 9.29839 4.39474 11.8337
273 2 0.0178616 10.955 4.40239 13.7371
288 2 0.0556305 11.0012 5.8754 8.87776
289 2 0.0632063 10.4133 4.20874 8.73313
295 2 0.0287796 8.63347 7.39516 16.2692
300 2 0.0200205 9.35068 5.38882 13.4311
301 2 0.0318883 8.14959 6.66254 13.5005
302 2 0.00201209 9.79193 6.94538 14.1305
346 2 0.0330153 10.3392 6.05071 16.779
6 4 0.802433 15.7398 2.70267 15.0494
45 4 1.45119 13.5783 2.7085 17.2524
48 4 0.817243 14.2095 1.11698 12.9791
50 4 0.315749 14.5217 3.49287 11.1938
86 1 -0.131308 11.6765 4.1203 14.4993
87 1 -0.092021 12.0525 0.932655 10.1654
88 1 -0.113238 13.3999 4.03695 9.82104
94 1 -0.132998 11.5074 6.51183 11.3771
153 3 -0.75354 14.3844 3.06096 15.8805
156 3 -0.63517 15.4391 1.47934 14.0088
158 3 -0.75334 12.0711 2.30696 16.7176
160 3 -0.565959 17.8108 2.54961 10.5556
161 3 -0.610242 13.7254 2.53969 12.2914
274 2 0.110394 12.562 3.72135 14.0064
275 2 0.0319505 11.9554 5.00079 15.0778
276 2 0.0671494 12.4747 1.89214 10.4515
279 2 0.0535626 12.3493 4.02201 10.117
280 2 0.0429057 13.5264 3.39062 8.95012
281 2 0.0421717 13.6558 5.05718 9.52073
297 2 0.0490561 11.9679 6.9672 10.5033
298 2 0.026248 11.4554 5.43249 11.2508
299 2 0.0248715 12.1111 6.72648 12.2588
347 2 -0.0239731 11.9376 7.88088 16.0536
350 2 0.0662916 17.0684 1.23019 16.5295
57 4 0.591688 7.22875 8.77334 14.7829
62 4 0.759538 4.7828 11.9216 9.23305
64 4 0.628126 9.16343 9.93545 12.75
65 4 1.08489 6.0096 13.034 14.4953
93 1 -0.126736 8.56021 8.45445 16.0251
99 1 -0.119132 6.5542 11.7456 9.70805
100 1 -0.120318 9.10308 11.5355 11.8345
101 1 -0.114019 7.79627 12.6086 14.7675
169 3 -0.733477 6.6663 8.42649 10.5453
185 3 -0.606791 7.73832 9.60632 13.4914
186 3 -0.636298 9.69176 8.77802 11.736
187 3 -0.728441 5.28995 11.8839 13.5801
188 3 -0.568382 6.03372 14.5113 13.7255
189 3 -0.665942 5.26004 13.1523 15.9565
215 2 -0.0181471 8.61195 8.84651 8.90385
221 2 -0.0284083 10.2281 9.91555 13.932
277 2 0.0124653 5.8229 15.4292 9.49168
278 2 0.115913 4.98212 15.3327 11.0741
294 2 0.0177009 9.5205 8.80244 15.6459
296 2 0.0972624 8.32689 8.99936 16.9393
311 2 0.0172521 7.13084 11.3617 8.86139
312 2 0.132659 6.60589 11.0143 10.5188
313 2 0.0116637 6.99778 12.6861 10.0423
314 2 0.055628 8.1019 11.9567 11.9004
315 2 0.0435247 9.32293 11.3317 10.784
316 2 0.0258651 9.8187 12.2672 12.2131
317 2 0.0284192 8.37411 12.7228 13.8549
318 2 0.0602039 7.8669 11.5834 15.1135
319 2 0.0872077 8.18979 13.2875 15.5215
340 3 -0.580063 10.9368 12.9206 17.2616
344 2 0.0230491 7.82784 14.314 11.9378
348 2 -0.0370772 9.24972 11.2439 16.2524
365 2 0.0421243 10.7622 11.9249 14.4193
197 2 0.0301026 13.262 11.5748 9.32564
201 2 -0.00965655 15.2467 8.47641 11.6772
231 2 0.0286875 14.5059 9.2977 9.19835
322 1 -0.0436554 13.837 11.6886 14.8491
364 2 0.0354539 11.6997 10.6585 15.2351
ITEM: TIMESTEP
2
ITEM: NUMBER OF ATOMS
365
ITEM: BOX BOUNDS xy xz yz pp pp pp
-6.9345999999999997e+00 1.9702400000000001e+01 -6.9345999999999997e+00
0.0000000000000000e+00 1.5863300000000001e+01 2.0880000000000001e+00
0.0000000000000000e+00 1.7464200000000002e+01 8.7949999999999995e-01
ITEM: ATOMS id type q x y z
8 4 0.265258 -0.600204 4.42644 1.22027
68 1 -0.136969 -0.196524 6.75748 6.61955
105 3 -0.68908 0.963078 4.11984 0.870548
108 3 -0.670343 -1.59777 7.0188 3.99701
191 2 -0.0108317 1.30631 4.12483 4.6606
193 2 -0.0250369 1.01866 1.42341 0.745194
194 2 0.0140324 -2.5734 7.75299 1.71217
206 2 0.0450497 -0.51402 5.81364 2.19222