LAMMPS (2 Aug 2023 - Update 2)
OMP_NUM_THREADS environment is not set. Defaulting to 1 thread. (src/comm.cpp:98)
  using 1 OpenMP thread(s) per MPI task
Reading data file ...
  triclinic box = (0 0 0) to (17.6144 14.9838 17.4642) with tilt (-6.9346 2.088 0.8795)
  2 by 2 by 2 MPI processor grid
  reading atoms ...
  365 atoms
Finding 1-2 1-3 1-4 neighbors ...
  special bond factors lj:    0        0        0       
  special bond factors coul:  0        0        0       
     0 = max # of 1-2 neighbors
     0 = max # of 1-3 neighbors
     0 = max # of 1-4 neighbors
     1 = max # of special neighbors
  special bonds CPU = 0.001 seconds
  read_data CPU = 0.012 seconds
*****Minimization starts.*****
Setting up cg style minimization ...
  Unit style    : real
  Current step  : 0
WARNING: No pairwise cutoff or binsize set. Atom sorting therefore disabled. (src/atom.cpp:2366)
WARNING: Communication cutoff is 0.0. No ghost atoms will be generated. Atoms may get lost. (src/comm_brick.cpp:210)
Per MPI rank memory allocation (min/avg/max) = 6.365 | 6.365 | 6.365 Mbytes
   Step          Temp          E_pair         E_mol          TotEng         Press     
         0   0              0              0              0              0            
         1   0              0              0              0              0            
Loop time of 9.45036e-05 on 8 procs for 1 steps with 365 atoms

49.9% CPU use with 8 MPI tasks x 1 OpenMP threads

Minimization stats:
  Stopping criterion = search direction is not downhill
  Energy initial, next-to-last, final = 
                     0                  0                  0
  Force two-norm initial, final = 0 0
  Force max component initial, final = 0 0
  Final line search alpha, max atom move = 0 0
  Iterations, force evaluations = 1 0

MPI task timing breakdown:
Section |  min time  |  avg time  |  max time  |%varavg| %total
---------------------------------------------------------------
Pair    | 0          | 0          | 0          |   0.0 |  0.00
Bond    | 1.048e-06  | 2.3659e-06 | 3.003e-06  |   0.0 |  2.50
Neigh   | 0          | 0          | 0          |   0.0 |  0.00
Comm    | 4.19e-06   | 6.1986e-06 | 7.543e-06  |   0.0 |  6.56
Output  | 0          | 0          | 0          |   0.0 |  0.00
Modify  | 0          | 0          | 0          |   0.0 |  0.00
Other   |            | 8.594e-05  |            |       | 90.94

Nlocal:         45.625 ave          54 max          36 min
Histogram: 1 1 0 1 2 0 0 0 0 3
Nghost:              0 ave           0 max           0 min
Histogram: 8 0 0 0 0 0 0 0 0 0
Neighs:              0 ave           0 max           0 min
Histogram: 8 0 0 0 0 0 0 0 0 0

Total # of neighbors = 0
Ave neighs/atom = 0
Ave special neighs/atom = 0
Neighbor list builds = 0
Dangerous builds = 0
System init for write_data ...
WARNING: Communication cutoff is 0.0. No ghost atoms will be generated. Atoms may get lost. (src/comm_brick.cpp:210)
WARNING: New thermo_style command, previous thermo_modify settings will be lost (src/output.cpp:903)

CITE-CITE-CITE-CITE-CITE-CITE-CITE-CITE-CITE-CITE-CITE-CITE-CITE

Your simulation uses code contributions which should be cited:
- pair reaxff command: doi:10.1016/j.parco.2011.08.005
- fix qeq/reaxff command: doi:10.1016/j.parco.2011.08.005
The log file lists these citations in BibTeX format.

CITE-CITE-CITE-CITE-CITE-CITE-CITE-CITE-CITE-CITE-CITE-CITE-CITE

WARNING: Fix qeq/reaxff group is not charge neutral, net charge = -6.56 (src/REAXFF/fix_qeq_reaxff.cpp:392)
Neighbor list info ...
  update: every = 10 steps, delay = 0 steps, check = no
  max neighbors/atom: 2000, page size: 100000
  master list distance cutoff = 12
  ghost atom cutoff = 12
  binsize = 6, bins = 5 3 3
  2 neighbor lists, perpetual/occasional/extra = 2 0 0
  (1) pair reaxff, perpetual
      attributes: half, newton off, ghost
      pair build: half/bin/newtoff/ghost
      stencil: full/ghost/bin/3d
      bin: standard
  (2) fix qeq/reaxff, perpetual, copy from (1)
      attributes: half, newton off
      pair build: copy
      stencil: none
      bin: none
Setting up Verlet run ...
  Unit style    : real
  Current step  : 0
  Time step     : 0.5
Per MPI rank memory allocation (min/avg/max) = 112.1 | 112.9 | 113.7 Mbytes
   Step          Temp          PotEng         Press        f_avgp[1]       Density         Volume    
         0   300           -38406.192      65843.638      0              1.4343051      4609.3376    
       100   1239.8042     -40400.919     -16184.425     -1359.7609      1.4343051      4609.3376    
       200   949.78382     -41198.956      533.52401      506.25112      1.4343051      4609.3376    
       300   604.0002      -41573.279      6882.4478     -5965.2446      1.4343051      4609.3376    
       400   423.79727     -41803.342      5640.8422     -6095.7464      1.4343051      4609.3376    
       500   344.34292     -41970.58       1673.3306     -4113.2499      1.4343051      4609.3376    
       600   280.27049     -42048.615     -18313.475     -7011.0639      1.4343051      4609.3376    
       700   266.31702     -42090.755     -10996.757     -3527.3488      1.4343051      4609.3376    
       800   260.23505     -42080.09      -5942.2738     -4379.6596      1.4343051      4609.3376    
       900   320.13798     -42089.979     -2806.5149     -1681.9034      1.4343051      4609.3376    
      1000   315.83177     -42049.896     -13377.794     -9708.4253      1.4343051      4609.3376    
      1100   327.21092     -42093.907     -8441.221      -9346.1532      1.4343051      4609.3376    
      1200   288.18983     -42124.473     -7454.7223     -3749.7363      1.4343051      4609.3376    
      1300   283.51922     -42166.998     -7036.9822     -6283.0983      1.4343051      4609.3376    
      1400   275.17581     -42173.297     -7412.931      -6456.6054      1.4343051      4609.3376    
      1500   289.91792     -42161.055     -8698.8837     -5599.004       1.4343051      4609.3376    
      1600   330.48191     -42160.348     -7131.9216     -6736.6867      1.4343051      4609.3376    
      1700   318.41557     -42135.781     -10813.812     -10437.243      1.4343051      4609.3376    
      1800   300.04543     -42146.337     -4575.8071     -10413.197      1.4343051      4609.3376    
      1900   292.56824     -42176.782     -9687.8017     -5267.883       1.4343051      4609.3376    
      2000   275.11145     -42189.93      -4060.3449     -6290.9629      1.4343051      4609.3376    
      2100   281.44804     -42195.965      2729.4604     -5213.045       1.4343051      4609.3376    
      2200   344.22804     -42262.661     -5220.4212     -10624.633      1.4343051      4609.3376    
      2300   301.61721     -42252.48       956.67416     -11393.789      1.4343051      4609.3376    
      2400   294.91018     -42271.975     -7458.1685     -11908.089      1.4343051      4609.3376    
      2500   289.93625     -42269.146     -14100.777     -11589.955      1.4343051      4609.3376    
      2600   303.05        -42262.253     -8426.8815     -4858.6364      1.4343051      4609.3376    
      2700   287.21314     -42224.676     -7263.8834     -8765.4923      1.4343051      4609.3376    
      2800   326.64143     -42256.523     -10107.139     -13364.614      1.4343051      4609.3376    
      2900   285.37349     -42235.063     -14489.637     -9105.5532      1.4343051      4609.3376    
      3000   289.52988     -42262.091      1081.3661     -9206.432       1.4343051      4609.3376    
Loop time of 113.315 on 8 procs for 3000 steps with 365 atoms

Performance: 1.144 ns/day, 20.984 hours/ns, 26.475 timesteps/s, 9.663 katom-step/s
98.7% CPU use with 8 MPI tasks x 1 OpenMP threads

MPI task timing breakdown:
Section |  min time  |  avg time  |  max time  |%varavg| %total
---------------------------------------------------------------
Pair    | 61.25      | 74.314     | 93.34      | 153.8 | 65.58
Bond    | 0.0074802  | 0.0079352  | 0.0086037  |   0.4 |  0.01
Neigh   | 5.4746     | 6.3682     | 7.7498     |  41.6 |  5.62
Comm    | 1.0885     | 20.119     | 33.194     | 295.6 | 17.75
Output  | 0.0015844  | 0.0017353  | 0.0023435  |   0.6 |  0.00
Modify  | 11.05      | 12.443     | 13.359     |  29.9 | 10.98
Other   |            | 0.06093    |            |       |  0.05

Nlocal:         45.625 ave          54 max          37 min
Histogram: 1 1 1 0 1 1 1 0 0 2
Nghost:        2869.88 ave        2903 max        2840 min
Histogram: 2 0 0 1 1 1 2 0 0 1
Neighs:        25014.1 ave       29464 max       20395 min
Histogram: 1 0 2 0 1 1 1 0 0 2

Total # of neighbors = 200113
Ave neighs/atom = 548.25479
Ave special neighs/atom = 0
Neighbor list builds = 300
Dangerous builds not checked
System init for write_data ...
System init for write_restart ...
OMP_NUM_THREADS environment is not set. Defaulting to 1 thread. (src/comm.cpp:98)
  using 1 OpenMP thread(s) per MPI task
Reading restart file ...
  restart file = 2 Aug 2023, LAMMPS = 2 Aug 2023
  restoring atom style full from restart
  triclinic box = (0 0 0) to (17.6144 14.9838 17.4642) with tilt (-6.9346 2.088 0.8795)
  2 by 2 by 2 MPI processor grid
  pair style reaxff stores no restart info
  365 atoms
Finding 1-2 1-3 1-4 neighbors ...
  special bond factors lj:    0        0        0       
  special bond factors coul:  0        0        0       
     0 = max # of 1-2 neighbors
     0 = max # of 1-3 neighbors
     0 = max # of 1-4 neighbors
     1 = max # of special neighbors
  special bonds CPU = 0.000 seconds
  read_restart CPU = 0.003 seconds
*****Negative-change 1 starts.*****
Resetting global fix info from restart file:
  fix style: nvt, fix ID: 4
Changing box ...
  triclinic box = (0 0 0) to (17.438256 14.9838 17.4642) with tilt (-6.9346 2.088 0.8795)
  triclinic box = (0 0 0) to (17.438256 14.9838 17.4642) with tilt (-6.865254 2.088 0.8795)
  triclinic box = (0 0 0) to (17.438256 14.9838 17.4642) with tilt (-6.865254 2.06712 0.8795)
All restart file global fix info was re-assigned
Neighbor list info ...
  update: every = 10 steps, delay = 0 steps, check = no
  max neighbors/atom: 2000, page size: 100000
  master list distance cutoff = 12
  ghost atom cutoff = 12
  binsize = 6, bins = 5 3 3
  2 neighbor lists, perpetual/occasional/extra = 2 0 0
  (1) pair reaxff, perpetual
      attributes: half, newton off, ghost
      pair build: half/bin/newtoff/ghost
      stencil: full/ghost/bin/3d
      bin: standard
  (2) fix qeq/reaxff, perpetual, copy from (1)
      attributes: half, newton off
      pair build: copy
      stencil: none
      bin: none
Setting up Verlet run ...
  Unit style    : real
  Current step  : 0
  Time step     : 0.5
Per MPI rank memory allocation (min/avg/max) = 112.2 | 113 | 113.8 Mbytes
   Step          Temp          PotEng         Press        f_avgp[1]        Volume    
         0   289.52988     -42247.459      42462.161      0              4563.2442    
       100   302.74339     -42274.683     -4562.7848      736.05592      4563.2442    
       200   286.74425     -42264.018     -13360.698     -9272.6503      4563.2442    
       300   309.00935     -42282.39      -6321.8876     -3642.2183      4563.2442    
       400   302.96642     -42260.052     -12463.985     -6650.0746      4563.2442    
       500   322.21608     -42273.945     -3929.3342     -6951.2673      4563.2442    
       600   290.22323     -42252.294     -5767.2573     -3843.0955      4563.2442    
       700   290.11565     -42257.935     -20916.539     -11075.476      4563.2442    
       800   300.83885     -42266.234     -4492.5899     -5867.3114      4563.2442    
       900   305.32921     -42270.478     -3078.6054     -9143.8734      4563.2442    
      1000   308.57949     -42286.606     -484.95867     -8741.8723      4563.2442    
      1100   301.32642     -42289.298     -1331.9034     -9553.9868      4563.2442    
      1200   280.12226     -42274.509     -4514.9045     -9225.5953      4563.2442    
      1300   289.75399     -42276.609     -7181.7101     -8685.7799      4563.2442    
      1400   295.8232      -42264.993      879.42685     -9273.8461      4563.2442    
      1500   320.45315     -42274.652      4184.8469     -3188.4504      4563.2442    
      1600   318.99482     -42280.975     -9242.5831     -7632.7535      4563.2442    
      1700   298.43139     -42283.456     -16436.918     -7119.2497      4563.2442    
      1800   304.38072     -42303.515     -9475.277      -8007.8695      4563.2442    
      1900   287.14921     -42295.033     -15368.11      -7286.7176      4563.2442    
      2000   276.0567      -42273.856     -15408.345     -11151.341      4563.2442    
      2100   311.50495     -42287.005     -10742.646     -14333.479      4563.2442    
      2200   322.27385     -42278.704     -6163.5551     -7798.6253      4563.2442    
      2300   318.68004     -42290.645     -15636.749     -9404.3056      4563.2442    
      2400   308.71667     -42318.984     -3884.3668     -10292.928      4563.2442    
      2500   280.11308     -42315.02      -10869.185     -10962.7        4563.2442    
      2600   277.25602     -42307.069      6818.9002     -11186.452      4563.2442    
      2700   306.66472     -42302.704     -10458.543     -8474.0223      4563.2442    
      2800   326.6164      -42297.712     -14230.349     -8954.3867      4563.2442    
      2900   315.5851      -42305.405      2962.2943     -11774.726      4563.2442    
      3000   283.05922     -42312.019     -13525.976     -12566.089      4563.2442    
Loop time of 116.112 on 8 procs for 3000 steps with 365 atoms

Performance: 1.116 ns/day, 21.502 hours/ns, 25.837 timesteps/s, 9.431 katom-step/s
98.8% CPU use with 8 MPI tasks x 1 OpenMP threads

MPI task timing breakdown:
Section |  min time  |  avg time  |  max time  |%varavg| %total
---------------------------------------------------------------
Pair    | 62.864     | 78.536     | 95.89      | 162.6 | 67.64
Bond    | 0.0078304  | 0.0082808  | 0.0091148  |   0.6 |  0.01
Neigh   | 5.4655     | 6.6469     | 7.8597     |  42.1 |  5.72
Comm    | 1.0725     | 18.428     | 34.092     | 335.7 | 15.87
Output  | 0.006705   | 0.0080189  | 0.0089362  |   0.9 |  0.01
Modify  | 11.209     | 12.423     | 13.612     |  30.8 | 10.70
Other   |            | 0.06122    |            |       |  0.05

Nlocal:         45.625 ave          55 max          35 min
Histogram: 1 1 0 1 0 1 0 3 0 1
Nghost:        2883.38 ave        2911 max        2860 min
Histogram: 1 1 2 0 1 0 1 0 1 1
Neighs:        25283.4 ave       30027 max       19561 min
Histogram: 1 1 0 1 0 1 0 3 0 1

Total # of neighbors = 202267
Ave neighs/atom = 554.15616
Ave special neighs/atom = 0
Neighbor list builds = 300
Dangerous builds not checked
*****Equilibration neg1 starts.*****
WARNING: New thermo_style command, previous thermo_modify settings will be lost (src/output.cpp:903)
Neighbor list info ...
  update: every = 10 steps, delay = 0 steps, check = no
  max neighbors/atom: 2000, page size: 100000
  master list distance cutoff = 12
  ghost atom cutoff = 12
  binsize = 6, bins = 5 3 3
  2 neighbor lists, perpetual/occasional/extra = 2 0 0
  (1) pair reaxff, perpetual
      attributes: half, newton off, ghost
      pair build: half/bin/newtoff/ghost
      stencil: full/ghost/bin/3d
      bin: standard
  (2) fix qeq/reaxff, perpetual, copy from (1)
      attributes: half, newton off
      pair build: copy
      stencil: none
      bin: none
Setting up Verlet run ...
  Unit style    : real
  Current step  : 0
  Time step     : 0.5
Per MPI rank memory allocation (min/avg/max) = 112.3 | 113 | 113.8 Mbytes
   Step          Temp          PotEng         Press        f_avgp[1]        Volume    
         0   283.05922     -42312.019     -13526.026      0              4563.2442    
       100   307.12852     -42325.878     -12326.204     -6139.628       4563.2442    
       200   299.98187     -42289.264     -7108.3337     -5623.1014      4563.2442    
       300   309.16374     -42282.337     -15854.953     -8726.0962      4563.2442    
       400   303.08001     -42287.35       1766.8571     -9650.9802      4563.2442    
       500   300.85718     -42292.124      581.88753     -6231.2278      4563.2442    
       600   314.09041     -42322.48      -7135.1883     -9908.7002      4563.2442    
       700   291.18047     -42314.134      355.69677     -10618.357      4563.2442    
       800   288.8441      -42316.304     -4001.7146     -10057.566      4563.2442    
       900   295.29549     -42300.483     -7235.1289     -3453.2483      4563.2442    
      1000   305.11106     -42280.462     -9110.234      -8627.0167      4563.2442    
      1100   278.22955     -42256.37      -11574.4       -7153.0729      4563.2442    
      1200   312.77209     -42313.307     -9589.0829     -12696.74       4563.2442    
      1300   286.22856     -42310.152     -16326.844     -11679.531      4563.2442    
      1400   304.20559     -42331.516     -7359.5826     -11578.894      4563.2442    
      1500   295.41088     -42317.302     -10761.19      -11699.303      4563.2442    
      1600   296.36816     -42303.129     -13948.328     -14964.017      4563.2442    
      1700   314.80935     -42295.933     -15718.106     -13042.564      4563.2442    
      1800   302.73868     -42291.748     -9018.2464     -6141.6695      4563.2442    
      1900   294.40027     -42323.765     -20291.703     -12304.891      4563.2442    
      2000   304.67612     -42339.297     -8232.6404     -7942.9392      4563.2442    
      2100   295.27413     -42326.643     -20067.294     -8671.8402      4563.2442    
      2200   301.89881     -42312.575     -7591.5001     -13475.431      4563.2442    
      2300   294.43968     -42282.39      -2238.0294     -13704.048      4563.2442    
      2400   343.83206     -42324.975     -20955.442     -7587.1093      4563.2442    
      2500   320.2996      -42346.775     -11266.741     -11711.639      4563.2442    
      2600   303.88245     -42340.058     -4930.601      -11375.638      4563.2442    
      2700   294.99416     -42321.023     -21749.054     -20773.006      4563.2442    
      2800   311.92948     -42315.469     -686.15617     -10589.033      4563.2442    
      2900   311.7696      -42320.234     -15532.409     -9503.9997      4563.2442    
      3000   281.09282     -42314.666     -5525.0092     -6695.5072      4563.2442    
Loop time of 117.159 on 8 procs for 3000 steps with 365 atoms

Performance: 1.106 ns/day, 21.696 hours/ns, 25.606 timesteps/s, 9.346 katom-step/s
98.7% CPU use with 8 MPI tasks x 1 OpenMP threads

MPI task timing breakdown:
Section |  min time  |  avg time  |  max time  |%varavg| %total
---------------------------------------------------------------
Pair    | 62.737     | 79.794     | 96.704     | 169.4 | 68.11
Bond    | 0.0077461  | 0.0083388  | 0.0091302  |   0.6 |  0.01
Neigh   | 5.485      | 6.7143     | 7.9142     |  43.7 |  5.73
Comm    | 1.0971     | 18.007     | 35.056     | 356.6 | 15.37
Output  | 0.0012823  | 0.0014221  | 0.00207    |   0.7 |  0.00
Modify  | 11.371     | 12.572     | 13.807     |  32.0 | 10.73
Other   |            | 0.06124    |            |       |  0.05

Nlocal:         45.625 ave          56 max          35 min
Histogram: 1 1 1 0 1 0 1 2 0 1
Nghost:        2890.12 ave        2934 max        2853 min
Histogram: 2 1 0 1 0 0 2 0 1 1
Neighs:          25278 ave       30606 max       19506 min
Histogram: 1 0 2 0 1 0 1 2 0 1

Total # of neighbors = 202224
Ave neighs/atom = 554.03836
Ave special neighs/atom = 0
Neighbor list builds = 300
Dangerous builds not checked
OMP_NUM_THREADS environment is not set. Defaulting to 1 thread. (src/comm.cpp:98)
  using 1 OpenMP thread(s) per MPI task
Reading restart file ...
  restart file = 2 Aug 2023, LAMMPS = 2 Aug 2023
  restoring atom style full from restart
  triclinic box = (0 0 0) to (17.6144 14.9838 17.4642) with tilt (-6.9346 2.088 0.8795)
  2 by 2 by 2 MPI processor grid
  pair style reaxff stores no restart info
  365 atoms
Finding 1-2 1-3 1-4 neighbors ...
  special bond factors lj:    0        0        0       
  special bond factors coul:  0        0        0       
     0 = max # of 1-2 neighbors
     0 = max # of 1-3 neighbors
     0 = max # of 1-4 neighbors
     1 = max # of special neighbors
  special bonds CPU = 0.000 seconds
  read_restart CPU = 0.003 seconds
*****Positive-change 1 starts.*****
Resetting global fix info from restart file:
  fix style: nvt, fix ID: 4
Changing box ...
  triclinic box = (0 0 0) to (17.790544 14.9838 17.4642) with tilt (-6.9346 2.088 0.8795)
  triclinic box = (0 0 0) to (17.790544 14.9838 17.4642) with tilt (-7.003946 2.088 0.8795)
  triclinic box = (0 0 0) to (17.790544 14.9838 17.4642) with tilt (-7.003946 2.10888 0.8795)
All restart file global fix info was re-assigned
Neighbor list info ...
  update: every = 10 steps, delay = 0 steps, check = no
  max neighbors/atom: 2000, page size: 100000
  master list distance cutoff = 12
  ghost atom cutoff = 12
  binsize = 6, bins = 5 3 3
  2 neighbor lists, perpetual/occasional/extra = 2 0 0
  (1) pair reaxff, perpetual
      attributes: half, newton off, ghost
      pair build: half/bin/newtoff/ghost
      stencil: full/ghost/bin/3d
      bin: standard
  (2) fix qeq/reaxff, perpetual, copy from (1)
      attributes: half, newton off
      pair build: copy
      stencil: none
      bin: none
Setting up Verlet run ...
  Unit style    : real
  Current step  : 0
  Time step     : 0.5
Per MPI rank memory allocation (min/avg/max) = 110.8 | 111.5 | 112.4 Mbytes
   Step          Temp          PotEng         Press        f_avgp[1]        Volume    
         0   289.52988     -42236.771     -42455.904      0              4655.431     
       100   305.09515     -42266.82      -7943.1932     -6077.9597      4655.431     
       200   289.82807     -42252.22      -11352.114     -13486.221      4655.431     
       300   318.84335     -42274.193     -12512.219     -5300.8983      4655.431     
       400   285.60858     -42233.891     -7679.7261     -8477.21        4655.431     
       500   295.96679     -42245.125     -11872.919     -7053.854       4655.431     
       600   295.30677     -42251.125     -10728.568     -10918.356      4655.431     
       700   302.0369      -42263.301     -6449.9235     -6396.6446      4655.431     
       800   297.35485     -42253.706     -16532.986     -6901.1684      4655.431     
       900   304.46205     -42253.293     -11032.438     -11325.545      4655.431     
      1000   324.14699     -42280.489     -8133.079      -7614.0279      4655.431     
      1100   291.06512     -42261.624     -11126.604     -9163.7454      4655.431     
      1200   284.57558     -42254.907     -2506.7538     -13653.704      4655.431     
      1300   288.93584     -42245.441     -3391.3721     -12926.519      4655.431     
      1400   312.2184      -42249.691     -8588.0699     -11772.735      4655.431     
      1500   310.77522     -42246.045     -4987.8209     -9474.0093      4655.431     
      1600   297.90742     -42246.197     -1164.7414     -9822.5601      4655.431     
      1700   310.75791     -42277.628     -7641.3954     -8029.6832      4655.431     
      1800   287.39878     -42259.085     -11292.625     -10098.503      4655.431     
      1900   293.95852     -42258.525     -14351.322     -14550.328      4655.431     
      2000   308.17661     -42261.243     -3058.1849     -4723.2003      4655.431     
      2100   316.3556      -42275.33      -5303.1253     -6507.3245      4655.431     
      2200   300.96087     -42272.05      -6556.6437     -11488.777      4655.431     
      2300   301.90143     -42274.33      -5240.9174     -4585.5711      4655.431     
      2400   287.90999     -42254.063      7117.0624     -2017.0695      4655.431     
      2500   304.1315      -42262.755     -6549.1222     -4349.4361      4655.431     
      2600   314.91806     -42269.311     -12838.769     -6864.5705      4655.431     
      2700   307.63159     -42266.418     -12101.774     -7191.6916      4655.431     
      2800   306.59786     -42274.139     -14259.178     -11228.188      4655.431     
      2900   290.72327     -42270.596     -13083.096     -7617.4773      4655.431     
      3000   290.91502     -42274.321     -1082.8546     -6936.2508      4655.431     
Loop time of 113.481 on 8 procs for 3000 steps with 365 atoms

Performance: 1.142 ns/day, 21.015 hours/ns, 26.436 timesteps/s, 9.649 katom-step/s
98.7% CPU use with 8 MPI tasks x 1 OpenMP threads

MPI task timing breakdown:
Section |  min time  |  avg time  |  max time  |%varavg| %total
---------------------------------------------------------------
Pair    | 61.179     | 77.039     | 93.8       | 165.9 | 67.89
Bond    | 0.0076601  | 0.0082492  | 0.00925    |   0.6 |  0.01
Neigh   | 5.3484     | 6.579      | 7.7278     |  43.6 |  5.80
Comm    | 0.95542    | 17.714     | 33.564     | 346.0 | 15.61
Output  | 0.006607   | 0.0079605  | 0.0089138  |   0.9 |  0.01
Modify  | 10.918     | 12.071     | 13.302     |  32.3 | 10.64
Other   |            | 0.06149    |            |       |  0.05

Nlocal:         45.625 ave          54 max          34 min
Histogram: 1 0 1 1 0 0 1 1 1 2
Nghost:        2865.38 ave        2904 max        2824 min
Histogram: 2 0 0 0 0 2 2 0 1 1
Neighs:        24766.9 ave       29249 max       18619 min
Histogram: 1 0 1 1 0 0 2 1 0 2

Total # of neighbors = 198135
Ave neighs/atom = 542.83562
Ave special neighs/atom = 0
Neighbor list builds = 300
Dangerous builds not checked
*****Equilibration pos1 starts.*****
WARNING: New thermo_style command, previous thermo_modify settings will be lost (src/output.cpp:903)
Neighbor list info ...
  update: every = 10 steps, delay = 0 steps, check = no
  max neighbors/atom: 2000, page size: 100000
  master list distance cutoff = 12
  ghost atom cutoff = 12
  binsize = 6, bins = 5 3 3
  2 neighbor lists, perpetual/occasional/extra = 2 0 0
  (1) pair reaxff, perpetual
      attributes: half, newton off, ghost
      pair build: half/bin/newtoff/ghost
      stencil: full/ghost/bin/3d
      bin: standard
  (2) fix qeq/reaxff, perpetual, copy from (1)
      attributes: half, newton off
      pair build: copy
      stencil: none
      bin: none
Setting up Verlet run ...
  Unit style    : real
  Current step  : 0
  Time step     : 0.5
Per MPI rank memory allocation (min/avg/max) = 110.8 | 111.5 | 112.4 Mbytes
   Step          Temp          PotEng         Press        f_avgp[1]        Volume    
         0   290.91502     -42274.321     -1082.8514      0              4655.431     
       100   289.15631     -42264.171     -3645.657      -5879.2006      4655.431     
       200   300.56351     -42249.182     -5508.046      -8128.6456      4655.431     
       300   318.05347     -42245.494     -17581.239     -6832.4144      4655.431     
       400   305.67846     -42256.209     -4453.9181     -4748.1859      4655.431     
       500   313.18072     -42288.219     -14832.93      -8066.9898      4655.431     
       600   318.41407     -42294.375     -12142.138     -3284.9348      4655.431     
       700   299.57741     -42270.962     -9330.9775     -8997.6805      4655.431     
       800   311.1874      -42280.38      -5612.3126     -7649.305       4655.431     
       900   306.04851     -42274.44      -23736.732     -6506.7589      4655.431     
      1000   304.29571     -42268.056     -15099.933     -6621.2191      4655.431     
      1100   303.48146     -42279.132     -2039.8527     -5585.3731      4655.431     
      1200   295.44758     -42295.67      -3006.4207     -6452.317       4655.431     
      1300   284.96314     -42287.209     -2311.4408     -9753.9447      4655.431     
      1400   310.21851     -42288.696     -1471.3233     -5061.679       4655.431     
      1500   308.52952     -42258.602     -11641.023     -6722.5961      4655.431     
      1600   309.20492     -42263.134     -4020.6602     -2546.3661      4655.431     
      1700   318.13191     -42290.118     -10309.064     -2741.6794      4655.431     
      1800   296.36312     -42290.335     -9144.0597     -6693.8072      4655.431     
      1900   295.0246      -42294.878     -174.01792     -5811.9933      4655.431     
      2000   295.6686      -42288.023     -4683.5622     -4293.2442      4655.431     
      2100   292.94029     -42275.622     -673.62938     -4863.5131      4655.431     
      2200   284.65765     -42255.095     -1671.0402     -5316.0978      4655.431     
      2300   300.93126     -42267.701     -11531.396     -7762.1575      4655.431     
      2400   297.87973     -42267.581      7259.5824     -5753.4309      4655.431     
      2500   295.67527     -42287.658     -2075.4423     -5509.5707      4655.431     
      2600   271.50224     -42269.628     -7254.5287     -3590.3755      4655.431     
      2700   304.39742     -42293.035     -9683.6961     -6124.2557      4655.431     
      2800   309.21676     -42270.16      -7962.8664     -1729.1809      4655.431     
      2900   293.42536     -42257.409     -11356.045     -9897.9006      4655.431     
      3000   299.41858     -42300.306     -8692.0553     -12742.308      4655.431     
Loop time of 113.497 on 8 procs for 3000 steps with 365 atoms

Performance: 1.142 ns/day, 21.018 hours/ns, 26.432 timesteps/s, 9.648 katom-step/s
98.7% CPU use with 8 MPI tasks x 1 OpenMP threads

MPI task timing breakdown:
Section |  min time  |  avg time  |  max time  |%varavg| %total
---------------------------------------------------------------
Pair    | 61.099     | 77.121     | 93.893     | 166.0 | 67.95
Bond    | 0.0076443  | 0.0082257  | 0.0091437  |   0.5 |  0.01
Neigh   | 5.3253     | 6.563      | 7.7506     |  43.8 |  5.78
Comm    | 0.91888    | 17.687     | 33.699     | 346.6 | 15.58
Output  | 0.0012006  | 0.0013406  | 0.0019479  |   0.6 |  0.00
Modify  | 10.867     | 12.055     | 13.292     |  32.4 | 10.62
Other   |            | 0.06118    |            |       |  0.05

Nlocal:         45.625 ave          56 max          34 min
Histogram: 1 0 1 1 1 1 1 0 0 2
Nghost:        2846.38 ave        2868 max        2820 min
Histogram: 1 1 0 0 1 1 1 1 1 1
Neighs:        24737.9 ave       29954 max       18599 min
Histogram: 1 0 1 1 1 0 1 1 1 1

Total # of neighbors = 197903
Ave neighs/atom = 542.2
Ave special neighs/atom = 0
Neighbor list builds = 300
Dangerous builds not checked
OMP_NUM_THREADS environment is not set. Defaulting to 1 thread. (src/comm.cpp:98)
  using 1 OpenMP thread(s) per MPI task
Reading restart file ...
  restart file = 2 Aug 2023, LAMMPS = 2 Aug 2023
  restoring atom style full from restart
  triclinic box = (0 0 0) to (17.6144 14.9838 17.4642) with tilt (-6.9346 2.088 0.8795)
  2 by 2 by 2 MPI processor grid
  pair style reaxff stores no restart info
  365 atoms
Finding 1-2 1-3 1-4 neighbors ...
  special bond factors lj:    0        0        0       
  special bond factors coul:  0        0        0       
     0 = max # of 1-2 neighbors
     0 = max # of 1-3 neighbors
     0 = max # of 1-4 neighbors
     1 = max # of special neighbors
  special bonds CPU = 0.000 seconds
  read_restart CPU = 0.003 seconds
*****Negative-change 2 starts.*****
Resetting global fix info from restart file:
  fix style: nvt, fix ID: 4
Changing box ...
  triclinic box = (0 0 0) to (17.6144 14.833962 17.4642) with tilt (-6.9346 2.088 0.8795)
  triclinic box = (0 0 0) to (17.6144 14.833962 17.4642) with tilt (-6.9346 2.088 0.870705)
All restart file global fix info was re-assigned
Neighbor list info ...
  update: every = 10 steps, delay = 0 steps, check = no
  max neighbors/atom: 2000, page size: 100000
  master list distance cutoff = 12
  ghost atom cutoff = 12
  binsize = 6, bins = 5 3 3
  2 neighbor lists, perpetual/occasional/extra = 2 0 0
  (1) pair reaxff, perpetual
      attributes: half, newton off, ghost
      pair build: half/bin/newtoff/ghost
      stencil: full/ghost/bin/3d
      bin: standard
  (2) fix qeq/reaxff, perpetual, copy from (1)
      attributes: half, newton off
      pair build: copy
      stencil: none
      bin: none
Setting up Verlet run ...
  Unit style    : real
  Current step  : 0
  Time step     : 0.5
Per MPI rank memory allocation (min/avg/max) = 112.8 | 113.2 | 113.6 Mbytes
   Step          Temp          PotEng         Press        f_avgp[1]        Volume    
         0   289.52988     -42244.074      42199.485      0              4563.2442    
       100   300.71354     -42269.845     -10356.065     -2628.9703      4563.2442    
       200   287.37144     -42263.313     -6022.3766     -10290.616      4563.2442    
       300   306.46861     -42275.899     -5525.5981     -3750.452       4563.2442    
       400   313.32787     -42271.644     -8402.1925     -6418.9979      4563.2442    
       500   317.88294     -42274.172     -738.22656     -6519.4794      4563.2442    
       600   298.86139     -42269.628      4226.6799     -5226.5504      4563.2442    
       700   294.24815     -42265.61      -3382.3935     -6341.1734      4563.2442    
       800   291.565       -42249.034     -6169.9666     -6064.1575      4563.2442    
       900   294.94194     -42241.117     -2912.6669     -10290.845      4563.2442    
      1000   296.66626     -42260.318     -9120.4134     -7635.243       4563.2442    
      1100   274.46948     -42259.896     -8781.4684     -11280.721      4563.2442    
      1200   307.28602     -42297.431      173.63293     -8998.2076      4563.2442    
      1300   286.30086     -42269.366      3130.0245     -6686.1813      4563.2442    
      1400   303.81769     -42277.447     -6210.0391     -8906.8268      4563.2442    
      1500   313.4433      -42280.683     -4197.7052     -8223.9203      4563.2442    
      1600   317.35427     -42288.926     -553.20496     -9092.8012      4563.2442    
      1700   307.24863     -42296.621      126.58472     -10118.37       4563.2442    
      1800   296.10184     -42309.239     -20783.546     -9834.6104      4563.2442    
      1900   287.28732     -42297.821     -8925.497      -9463.4335      4563.2442    
      2000   304.88875     -42287.92      -1539.4671     -6718.7541      4563.2442    
      2100   303.99402     -42262.073     -5671.6571     -7672.9122      4563.2442    
      2200   295.13649     -42249.208     -3848.0311     -9063.3928      4563.2442    
      2300   307.43684     -42290.686     -5324.5015     -5031.4111      4563.2442    
      2400   284.70043     -42292.298     -9001.8247     -7148.7023      4563.2442    
      2500   303.37842     -42310.001     -8676.3962     -13088.007      4563.2442    
      2600   304.04516     -42290.892      746.08687     -12794.391      4563.2442    
      2700   301.8018      -42268.936     -10450.916     -9524.4759      4563.2442    
      2800   316.32583     -42274.796      1006.2132      1028.0181      4563.2442    
      2900   304.08769     -42282.199     -1576.4668     -4823.297       4563.2442    
      3000   299.33175     -42311.02      -14481.931     -12009.58       4563.2442    
Loop time of 116.528 on 8 procs for 3000 steps with 365 atoms

Performance: 1.112 ns/day, 21.579 hours/ns, 25.745 timesteps/s, 9.397 katom-step/s
98.8% CPU use with 8 MPI tasks x 1 OpenMP threads

MPI task timing breakdown:
Section |  min time  |  avg time  |  max time  |%varavg| %total
---------------------------------------------------------------
Pair    | 62.708     | 79.228     | 96.203     | 167.1 | 67.99
Bond    | 0.0076776  | 0.0081808  | 0.0091215  |   0.6 |  0.01
Neigh   | 5.4828     | 6.752      | 7.9306     |  44.4 |  5.79
Comm    | 1.058      | 18.033     | 34.543     | 350.2 | 15.48
Output  | 0.0064313  | 0.0078067  | 0.0087522  |   0.9 |  0.01
Modify  | 11.259     | 12.438     | 13.709     |  32.8 | 10.67
Other   |            | 0.06114    |            |       |  0.05

Nlocal:         45.625 ave          56 max          35 min
Histogram: 1 2 0 1 0 0 1 1 0 2
Nghost:        2871.38 ave        2913 max        2832 min
Histogram: 1 2 0 0 1 1 1 1 0 1
Neighs:        25237.9 ave       30837 max       19595 min
Histogram: 1 2 0 1 0 0 1 1 0 2

Total # of neighbors = 201903
Ave neighs/atom = 553.1589
Ave special neighs/atom = 0
Neighbor list builds = 300
Dangerous builds not checked
*****Equilibration neg2 starts.*****
WARNING: New thermo_style command, previous thermo_modify settings will be lost (src/output.cpp:903)
Neighbor list info ...
  update: every = 10 steps, delay = 0 steps, check = no
  max neighbors/atom: 2000, page size: 100000
  master list distance cutoff = 12
  ghost atom cutoff = 12
  binsize = 6, bins = 5 3 3
  2 neighbor lists, perpetual/occasional/extra = 2 0 0
  (1) pair reaxff, perpetual
      attributes: half, newton off, ghost
      pair build: half/bin/newtoff/ghost
      stencil: full/ghost/bin/3d
      bin: standard
  (2) fix qeq/reaxff, perpetual, copy from (1)
      attributes: half, newton off
      pair build: copy
      stencil: none
      bin: none
Setting up Verlet run ...
  Unit style    : real
  Current step  : 0
  Time step     : 0.5
Per MPI rank memory allocation (min/avg/max) = 112.9 | 113.1 | 113.7 Mbytes
   Step          Temp          PotEng         Press        f_avgp[1]        Volume    
         0   299.33175     -42311.02      -14481.905      0              4563.2442    
       100   307.14529     -42320.676     -18887.264     -12541.098      4563.2442    
       200   289.68691     -42331.323     -1460.9526     -2711.248       4563.2442    
       300   284.47301     -42331.133     -12335.848     -8599.2907      4563.2442    
       400   290.77772     -42323.048     -7016.9031     -10866.951      4563.2442    
       500   303.01665     -42317.613     -13330.832     -10472.963      4563.2442    
       600   295.43641     -42302.903     -2937.0687     -10860.117      4563.2442    
       700   299.89144     -42305.678     -8870.1593     -7486.5663      4563.2442    
       800   317.45208     -42333.234     -10911.602     -12056.957      4563.2442    
       900   292.68128     -42343.085     -14652.008     -11332.15       4563.2442    
      1000   282.37797     -42335.508     -6819.4625     -8496.8734      4563.2442    
      1100   300.26319     -42333.857     -6291.3209     -2722.1185      4563.2442    
      1200   290.50134     -42301.244      8713.8058     -2469.5964      4563.2442    
      1300   298.09338     -42307.863     -2338.8374     -9061.1977      4563.2442    
      1400   323.00821     -42345.991     -12993.093     -12232.111      4563.2442    
      1500   291.01095     -42329.116     -10362.923     -12107.856      4563.2442    
      1600   287.60995     -42323.065     -4471.0637     -12532.56       4563.2442    
      1700   301.84951     -42318.056     -1958.2181     -7634.6328      4563.2442    
      1800   309.73739     -42325.31      -11028.542     -11690.927      4563.2442    
      1900   305.043       -42330.802     -2834.7696     -7787.7116      4563.2442    
      2000   284.88347     -42322.046     -1829.8821     -6609.0961      4563.2442    
      2100   290.53646     -42328.815     -4439.1484     -9946.7298      4563.2442    
      2200   295.47563     -42318.433     -2835.9746     -13529.224      4563.2442    
      2300   325.62635     -42309.579     -4260.9612     -10161.428      4563.2442    
      2400   322.75185     -42319.338     -4518.3707     -8284.4531      4563.2442    
      2500   305.26112     -42321.727     -12461.186     -8779.9744      4563.2442    
      2600   314.47539     -42344.333      604.3288      -8605.445       4563.2442    
      2700   287.0567      -42343.688     -5114.6861     -7978.1088      4563.2442    
      2800   288.10293     -42356.469     -1980.628      -5575.3208      4563.2442    
      2900   298.42457     -42355.096     -7042.2455     -8839.5284      4563.2442    
      3000   297.40237     -42334.052      462.30175     -7155.5938      4563.2442    
Loop time of 117.097 on 8 procs for 3000 steps with 365 atoms

Performance: 1.107 ns/day, 21.685 hours/ns, 25.620 timesteps/s, 9.351 katom-step/s
98.8% CPU use with 8 MPI tasks x 1 OpenMP threads

MPI task timing breakdown:
Section |  min time  |  avg time  |  max time  |%varavg| %total
---------------------------------------------------------------
Pair    | 63.156     | 79.46      | 96.8       | 166.4 | 67.86
Bond    | 0.0076201  | 0.0081233  | 0.0089898  |   0.6 |  0.01
Neigh   | 5.4646     | 6.7385     | 7.9768     |  44.4 |  5.75
Comm    | 1.0451     | 18.389     | 34.683     | 346.0 | 15.70
Output  | 0.0012003  | 0.001367   | 0.0019753  |   0.6 |  0.00
Modify  | 11.208     | 12.44      | 13.714     |  32.8 | 10.62
Other   |            | 0.06083    |            |       |  0.05

Nlocal:         45.625 ave          57 max          37 min
Histogram: 1 1 1 1 0 2 0 1 0 1
Nghost:        2886.38 ave        2933 max        2839 min
Histogram: 1 1 0 0 1 3 0 1 0 1
Neighs:        25291.5 ave       31391 max       20740 min
Histogram: 1 1 1 1 1 1 1 0 0 1

Total # of neighbors = 202332
Ave neighs/atom = 554.33425
Ave special neighs/atom = 0
Neighbor list builds = 300
Dangerous builds not checked
OMP_NUM_THREADS environment is not set. Defaulting to 1 thread. (src/comm.cpp:98)
  using 1 OpenMP thread(s) per MPI task
Reading restart file ...
  restart file = 2 Aug 2023, LAMMPS = 2 Aug 2023
  restoring atom style full from restart
  triclinic box = (0 0 0) to (17.6144 14.9838 17.4642) with tilt (-6.9346 2.088 0.8795)
  2 by 2 by 2 MPI processor grid
  pair style reaxff stores no restart info
  365 atoms
Finding 1-2 1-3 1-4 neighbors ...
  special bond factors lj:    0        0        0       
  special bond factors coul:  0        0        0       
     0 = max # of 1-2 neighbors
     0 = max # of 1-3 neighbors
     0 = max # of 1-4 neighbors
     1 = max # of special neighbors
  special bonds CPU = 0.000 seconds
  read_restart CPU = 0.003 seconds
*****Positive-change 2 starts.*****
Resetting global fix info from restart file:
  fix style: nvt, fix ID: 4
Changing box ...
  triclinic box = (0 0 0) to (17.6144 15.133638 17.4642) with tilt (-6.9346 2.088 0.8795)
  triclinic box = (0 0 0) to (17.6144 15.133638 17.4642) with tilt (-6.9346 2.088 0.888295)
All restart file global fix info was re-assigned
Neighbor list info ...
  update: every = 10 steps, delay = 0 steps, check = no
  max neighbors/atom: 2000, page size: 100000
  master list distance cutoff = 12
  ghost atom cutoff = 12
  binsize = 6, bins = 5 3 3
  2 neighbor lists, perpetual/occasional/extra = 2 0 0
  (1) pair reaxff, perpetual
      attributes: half, newton off, ghost
      pair build: half/bin/newtoff/ghost
      stencil: full/ghost/bin/3d
      bin: standard
  (2) fix qeq/reaxff, perpetual, copy from (1)
      attributes: half, newton off
      pair build: copy
      stencil: none
      bin: none
Setting up Verlet run ...
  Unit style    : real
  Current step  : 0
  Time step     : 0.5
Per MPI rank memory allocation (min/avg/max) = 110.6 | 111.2 | 111.7 Mbytes
   Step          Temp          PotEng         Press        f_avgp[1]        Volume    
         0   289.52988     -42243.516     -39067.4        0              4655.431     
       100   304.44644     -42270.208     -7981.9686     -3196.5863      4655.431     
       200   280.68261     -42241.638     -14387.627     -10989.654      4655.431     
       300   308.09007     -42259.54      -5671.2084     -4997.4015      4655.431     
       400   289.96517     -42238.994     -13859.608     -9828.346       4655.431     
       500   303.11452     -42255.528     -9202.185      -11377.778      4655.431     
       600   292.18998     -42257.388     -5035.2896     -9551.9928      4655.431     
       700   308.6201      -42277.894     -13737.802     -9576.757       4655.431     
       800   304.51618     -42270.357     -11540.545     -6579.9049      4655.431     
       900   314.77792     -42272.135     -3032.836      -5283.3566      4655.431     
      1000   305.16531     -42260.714      277.27705     -8058.9309      4655.431     
      1100   301.15888     -42254.635     -5463.9496     -13334.83       4655.431     
      1200   300.66082     -42253.342     -1157.4027     -14340.762      4655.431     
      1300   287.09951     -42243.733     -4885.5004     -12296.786      4655.431     
      1400   286.53583     -42244.161     -16381.971     -10519.598      4655.431     
      1500   312.63552     -42257.532     -9006.342      -7378.4291      4655.431     
      1600   312.17067     -42251.218     -10541.707     -7387.3721      4655.431     
      1700   302.60337     -42259.933     -4015.7682     -10387.632      4655.431     
      1800   294.19837     -42269.36      -19242.789     -12425.846      4655.431     
      1900   280.86829     -42261.3       -3161.4667     -8493.3746      4655.431     
      2000   305.51634     -42268.006     -7935.0603     -9276.2879      4655.431     
      2100   300.18762     -42242.95      -6448.5906     -8587.3258      4655.431     
      2200   311.47492     -42250.832     -15743.217     -12647.969      4655.431     
      2300   306.75241     -42263.893     -1175.378      -8186.2389      4655.431     
      2400   304.65404     -42288.152     -3591.6656     -7500.2055      4655.431     
      2500   279.23437     -42279.873     -14196.742     -11252.802      4655.431     
      2600   280.46083     -42280.836     -7627.4072     -6239.7269      4655.431     
      2700   300.42215     -42284.151      5645.563      -11151.064      4655.431     
      2800   307.60664     -42281.004     -4571.5185     -7566.9497      4655.431     
      2900   302.63253     -42280.703     -8924.2484     -9997.0319      4655.431     
      3000   306.45594     -42299.9       -5246.1342     -7228.7909      4655.431     
Loop time of 113.243 on 8 procs for 3000 steps with 365 atoms

Performance: 1.144 ns/day, 20.971 hours/ns, 26.492 timesteps/s, 9.669 katom-step/s
98.8% CPU use with 8 MPI tasks x 1 OpenMP threads

MPI task timing breakdown:
Section |  min time  |  avg time  |  max time  |%varavg| %total
---------------------------------------------------------------
Pair    | 60.645     | 76.583     | 92.919     | 165.9 | 67.63
Bond    | 0.0075381  | 0.0080313  | 0.0086338  |   0.5 |  0.01
Neigh   | 5.3415     | 6.5395     | 7.7002     |  43.3 |  5.77
Comm    | 1.6427     | 17.979     | 33.909     | 342.4 | 15.88
Output  | 0.0064701  | 0.0078367  | 0.0088537  |   0.9 |  0.01
Modify  | 10.91      | 12.065     | 13.267     |  32.0 | 10.65
Other   |            | 0.06077    |            |       |  0.05

Nlocal:         45.625 ave          55 max          38 min
Histogram: 2 1 0 1 0 2 0 0 1 1
Nghost:        2837.38 ave        2859 max        2820 min
Histogram: 1 1 1 1 0 2 0 1 0 1
Neighs:        24762.5 ave       29465 max       21046 min
Histogram: 2 1 0 1 0 2 0 0 1 1

Total # of neighbors = 198100
Ave neighs/atom = 542.73973
Ave special neighs/atom = 0
Neighbor list builds = 300
Dangerous builds not checked
*****Equilibration pos2 starts.*****
WARNING: New thermo_style command, previous thermo_modify settings will be lost (src/output.cpp:903)
Neighbor list info ...
  update: every = 10 steps, delay = 0 steps, check = no
  max neighbors/atom: 2000, page size: 100000
  master list distance cutoff = 12
  ghost atom cutoff = 12
  binsize = 6, bins = 5 3 3
  2 neighbor lists, perpetual/occasional/extra = 2 0 0
  (1) pair reaxff, perpetual
      attributes: half, newton off, ghost
      pair build: half/bin/newtoff/ghost
      stencil: full/ghost/bin/3d
      bin: standard
  (2) fix qeq/reaxff, perpetual, copy from (1)
      attributes: half, newton off
      pair build: copy
      stencil: none
      bin: none
Setting up Verlet run ...
  Unit style    : real
  Current step  : 0
  Time step     : 0.5
Per MPI rank memory allocation (min/avg/max) = 110.6 | 111.2 | 111.8 Mbytes
   Step          Temp          PotEng         Press        f_avgp[1]        Volume    
         0   306.45594     -42299.9       -5246.1395      0              4655.431     
       100   295.5939      -42282.442     -12147.925     -8192.2092      4655.431     
       200   282.25989     -42249.667     -8256.3563     -11691.087      4655.431     
       300   308.60089     -42249.286     -7428.369      -9071.4013      4655.431     
       400   312.29749     -42261.387     -10886.757     -5774.4444      4655.431     
       500   301.72402     -42282.344      7992.6447     -6531.6194      4655.431     
       600   287.08854     -42273.12      -3152.6286     -8976.7249      4655.431     
       700   307.75396     -42294.765     -14339.502     -14559.713      4655.431     
       800   302.60521     -42290.936     -8385.5004     -12721.477      4655.431     
       900   302.27319     -42296.267     -348.98078     -6060.9873      4655.431     
      1000   278.12246     -42270.983     -7719.8074     -12659.185      4655.431     
      1100   297.01101     -42285.658      1036.5627     -10282.804      4655.431     
      1200   315.26984     -42298.555     -12992.508     -9233.7997      4655.431     
      1300   296.58627     -42260.524     -17922.704     -11395.47       4655.431     
      1400   306.88926     -42265.885     -9727.3083     -11081.971      4655.431     
      1500   300.7041      -42275.573      3472.1275     -2968.2689      4655.431     
      1600   287.45316     -42289.816     -4116.9028     -5849.024       4655.431     
      1700   281.4266      -42290.6       -17482.757     -9910.9042      4655.431     
      1800   310.20985     -42301.947      3104.749      -12199.854      4655.431     
      1900   318.11588     -42283.635      77.579208     -11384.96       4655.431     
      2000   346.20629     -42297.415     -7168.2312     -13832.378      4655.431     
      2100   314.50079     -42286.565      987.08493     -12935.626      4655.431     
      2200   304.10633     -42306.842     -14620.569     -12262.363      4655.431     
      2300   305.88058     -42324.401     -23091.823     -15465.231      4655.431     
      2400   302.49872     -42338.427     -1601.4861     -13086.992      4655.431     
      2500   292.25375     -42336.536     -15875.283     -14110.628      4655.431     
      2600   285.01625     -42295.037     -21794.543     -13528.044      4655.431     
      2700   302.53477     -42298.981     -3685.4616     -13238.077      4655.431     
      2800   302.39348     -42305.493     -4468.5782     -13738.265      4655.431     
      2900   280.74757     -42304.79      -8951.8321     -14210.968      4655.431     
      3000   290.79993     -42319.332     -15904.927     -12854.092      4655.431     
Loop time of 114.104 on 8 procs for 3000 steps with 365 atoms

Performance: 1.136 ns/day, 21.130 hours/ns, 26.292 timesteps/s, 9.596 katom-step/s
98.7% CPU use with 8 MPI tasks x 1 OpenMP threads

MPI task timing breakdown:
Section |  min time  |  avg time  |  max time  |%varavg| %total
---------------------------------------------------------------
Pair    | 60.873     | 77.171     | 93.326     | 166.8 | 67.63
Bond    | 0.0075062  | 0.0079671  | 0.0086086  |   0.5 |  0.01
Neigh   | 5.3545     | 6.5346     | 7.6973     |  43.3 |  5.73
Comm    | 1.803      | 17.952     | 34.237     | 345.7 | 15.73
Output  | 0.0012557  | 0.0013979  | 0.0020327  |   0.6 |  0.00
Modify  | 11.209     | 12.376     | 13.56      |  31.6 | 10.85
Other   |            | 0.06082    |            |       |  0.05

Nlocal:         45.625 ave          58 max          34 min
Histogram: 1 0 2 0 0 3 0 1 0 1
Nghost:        2840.88 ave        2871 max        2820 min
Histogram: 3 0 0 0 2 1 0 1 0 1
Neighs:        24715.5 ave       31055 max       18575 min
Histogram: 1 0 1 1 0 3 0 1 0 1

Total # of neighbors = 197724
Ave neighs/atom = 541.70959
Ave special neighs/atom = 0
Neighbor list builds = 300
Dangerous builds not checked
OMP_NUM_THREADS environment is not set. Defaulting to 1 thread. (src/comm.cpp:98)
  using 1 OpenMP thread(s) per MPI task
Reading restart file ...
  restart file = 2 Aug 2023, LAMMPS = 2 Aug 2023
  restoring atom style full from restart
  triclinic box = (0 0 0) to (17.6144 14.9838 17.4642) with tilt (-6.9346 2.088 0.8795)
  2 by 2 by 2 MPI processor grid
  pair style reaxff stores no restart info
  365 atoms
Finding 1-2 1-3 1-4 neighbors ...
  special bond factors lj:    0        0        0       
  special bond factors coul:  0        0        0       
     0 = max # of 1-2 neighbors
     0 = max # of 1-3 neighbors
     0 = max # of 1-4 neighbors
     1 = max # of special neighbors
  special bonds CPU = 0.000 seconds
  read_restart CPU = 0.003 seconds
*****Negative-change 3 starts.*****
Resetting global fix info from restart file:
  fix style: nvt, fix ID: 4
Changing box ...
  triclinic box = (0 0 0) to (17.6144 14.9838 17.289558) with tilt (-6.9346 2.088 0.8795)
All restart file global fix info was re-assigned
Neighbor list info ...
  update: every = 10 steps, delay = 0 steps, check = no
  max neighbors/atom: 2000, page size: 100000
  master list distance cutoff = 12
  ghost atom cutoff = 12
  binsize = 6, bins = 5 3 3
  2 neighbor lists, perpetual/occasional/extra = 2 0 0
  (1) pair reaxff, perpetual
      attributes: half, newton off, ghost
      pair build: half/bin/newtoff/ghost
      stencil: full/ghost/bin/3d
      bin: standard
  (2) fix qeq/reaxff, perpetual, copy from (1)
      attributes: half, newton off
      pair build: copy
      stencil: none
      bin: none
Setting up Verlet run ...
  Unit style    : real
  Current step  : 0
  Time step     : 0.5
Per MPI rank memory allocation (min/avg/max) = 112.2 | 113.1 | 114.1 Mbytes
   Step          Temp          PotEng         Press        f_avgp[1]        Volume    
         0   289.52988     -42242.991      42392.516      0              4563.2442    
       100   301.25622     -42270.417     -2174.9457     -2475.8996      4563.2442    
       200   278.58111     -42254.843     -8629.0502     -10554.416      4563.2442    
       300   304.91442     -42274.502     -10855.31      -4792.1048      4563.2442    
       400   307.00397     -42259.739     -850.81754     -6672.4826      4563.2442    
       500   307.16064     -42254.721     -4471.3939     -8083.8299      4563.2442    
       600   300.61474     -42257.783     -3163.0791     -3999.3774      4563.2442    
       700   286.5523      -42253.413     -11098.238     -7285.9975      4563.2442    
       800   295.67165     -42269.44      -5539.6065     -8238.9585      4563.2442    
       900   315.12438     -42289.671     -1058.9004     -5316.5781      4563.2442    
      1000   307.14227     -42280.244     -12528.07      -8601.4404      4563.2442    
      1100   300.84228     -42271.508     -10135.484     -8779.9523      4563.2442    
      1200   300.94017     -42266.887      1708.811      -7064.8407      4563.2442    
      1300   285.34494     -42243.775     -7034.3196     -8947.5013      4563.2442    
      1400   309.08935     -42261.248     -2042.03       -10992.176      4563.2442    
      1500   293.36004     -42240.491      163.12966     -11567.621      4563.2442    
      1600   299.13626     -42252.689     -2742.9835     -4826.7052      4563.2442    
      1700   278.01242     -42237.226     -4453.463      -6915.1317      4563.2442    
      1800   306.9033      -42264.74      -2785.9592     -11609.711      4563.2442    
      1900   315.23932     -42277.042     -8156.8102     -12909.716      4563.2442    
      2000   293.9318      -42264.172     -7154.5261     -9096.8508      4563.2442    
      2100   291.32888     -42271.054     -6194.6199     -8156.6753      4563.2442    
      2200   309.45026     -42292.671     -12960.319     -14119.39       4563.2442    
      2300   296.47324     -42279.072     -6172.789      -7739.7406      4563.2442    
      2400   289.57746     -42258.572      2587.3175     -5454.4546      4563.2442    
      2500   332.25633     -42287.051     -15053.67      -8887.1953      4563.2442    
      2600   306.06873     -42270.53      -15974.414     -15266.608      4563.2442    
      2700   294.84953     -42284.838     -14241.256     -10806.224      4563.2442    
      2800   293.82528     -42293.099     -10992.773     -11147.209      4563.2442    
      2900   303.1473      -42293.305     -11470.334     -9282.1337      4563.2442    
      3000   329.32734     -42315.19      -11583.065     -9309.8124      4563.2442    
Loop time of 116.649 on 8 procs for 3000 steps with 365 atoms

Performance: 1.111 ns/day, 21.602 hours/ns, 25.718 timesteps/s, 9.387 katom-step/s
98.8% CPU use with 8 MPI tasks x 1 OpenMP threads

MPI task timing breakdown:
Section |  min time  |  avg time  |  max time  |%varavg| %total
---------------------------------------------------------------
Pair    | 62.561     | 78.849     | 95.53      | 167.6 | 67.60
Bond    | 0.0074394  | 0.0079631  | 0.0087791  |   0.5 |  0.01
Neigh   | 5.4759     | 6.7341     | 7.9129     |  44.4 |  5.77
Comm    | 1.7121     | 18.388     | 34.664     | 347.1 | 15.76
Output  | 0.0068975  | 0.0084461  | 0.0094984  |   1.0 |  0.01
Modify  | 11.419     | 12.6       | 13.865     |  32.6 | 10.80
Other   |            | 0.06141    |            |       |  0.05

Nlocal:         45.625 ave          54 max          33 min
Histogram: 1 0 1 1 0 0 1 1 1 2
Nghost:        2896.75 ave        2925 max        2869 min
Histogram: 1 1 0 0 1 3 1 0 0 1
Neighs:        25277.5 ave       29553 max       18561 min
Histogram: 1 0 1 0 1 0 1 1 1 2

Total # of neighbors = 202220
Ave neighs/atom = 554.0274
Ave special neighs/atom = 0
Neighbor list builds = 300
Dangerous builds not checked
*****Equilibration neg3 starts.*****
WARNING: New thermo_style command, previous thermo_modify settings will be lost (src/output.cpp:903)
Neighbor list info ...
  update: every = 10 steps, delay = 0 steps, check = no
  max neighbors/atom: 2000, page size: 100000
  master list distance cutoff = 12
  ghost atom cutoff = 12
  binsize = 6, bins = 5 3 3
  2 neighbor lists, perpetual/occasional/extra = 2 0 0
  (1) pair reaxff, perpetual
      attributes: half, newton off, ghost
      pair build: half/bin/newtoff/ghost
      stencil: full/ghost/bin/3d
      bin: standard
  (2) fix qeq/reaxff, perpetual, copy from (1)
      attributes: half, newton off
      pair build: copy
      stencil: none
      bin: none
Setting up Verlet run ...
  Unit style    : real
  Current step  : 0
  Time step     : 0.5
Per MPI rank memory allocation (min/avg/max) = 112.2 | 113.1 | 114.1 Mbytes
   Step          Temp          PotEng         Press        f_avgp[1]        Volume    
         0   329.32734     -42315.19      -11583.066      0              4563.2442    
       100   304.98531     -42298.72      -14136.06      -11103.744      4563.2442    
       200   290.27653     -42295.504     -2779.3487     -6141.7455      4563.2442    
       300   291.05035     -42315.301     -7493.9958     -6507.7117      4563.2442    
       400   278.59541     -42311.679     -2714.1212     -6863.5221      4563.2442    
       500   291.12536     -42304.991     -13161.375     -9983.7431      4563.2442    
       600   293.20433     -42275.818     -7437.8697     -12873.935      4563.2442    
       700   309.9638      -42284.926     -17349.115     -10772.149      4563.2442    
       800   317.45429     -42308.909     -10626.318     -9146.6148      4563.2442    
       900   295.98425     -42309.423      3395.9621     -11298.446      4563.2442    
      1000   293.56413     -42319.075     -13388.574     -7924.9751      4563.2442    
      1100   284.71083     -42330.672     -13291.461     -11676.5        4563.2442    
      1200   278.74641     -42353.381     -13767.603     -9045.1445      4563.2442    
      1300   300.8539      -42363.103     -2834.3297     -7133.7133      4563.2442    
      1400   297.48449     -42332.325     -6778.084      -8533.0085      4563.2442    
      1500   312.49569     -42336.5       -2309.5433     -8880.8269      4563.2442    
      1600   301.73629     -42328.367     -3800.8713     -13565.8        4563.2442    
      1700   288.81948     -42320.366     -9234.4177     -14314.13       4563.2442    
      1800   282.37468     -42334.081     -5763.7612     -11697.03       4563.2442    
      1900   290.62004     -42350.596     -20590.533     -9741.0201      4563.2442    
      2000   284.1053      -42321.716     -12916.272     -9079.4324      4563.2442    
      2100   305.0422      -42320.177     -4540.8287     -11467.146      4563.2442    
      2200   304.25511     -42322.497     -9877.601      -11811.769      4563.2442    
      2300   298.3322      -42323.319     -13947.282     -9650.0284      4563.2442    
      2400   301.22143     -42344.96      -17067.146     -12439.464      4563.2442    
      2500   290.96786     -42368.415     -16918.2       -12310.173      4563.2442    
      2600   283.05775     -42346.637     -12792.064     -12173.479      4563.2442    
      2700   299.947       -42335.376     -2473.6208     -10814.269      4563.2442    
      2800   311.55982     -42336.501     -10895         -13167.228      4563.2442    
      2900   317.18908     -42351.306     -15959.97      -14164.339      4563.2442    
      3000   293.99556     -42346.414     -11214.857     -10186.287      4563.2442    
Loop time of 117.096 on 8 procs for 3000 steps with 365 atoms

Performance: 1.107 ns/day, 21.684 hours/ns, 25.620 timesteps/s, 9.351 katom-step/s
98.8% CPU use with 8 MPI tasks x 1 OpenMP threads

MPI task timing breakdown:
Section |  min time  |  avg time  |  max time  |%varavg| %total
---------------------------------------------------------------
Pair    | 63.144     | 79.434     | 95.923     | 169.5 | 67.84
Bond    | 0.007374   | 0.0079675  | 0.0087895  |   0.6 |  0.01
Neigh   | 5.4626     | 6.7173     | 8.0352     |  44.3 |  5.74
Comm    | 1.8336     | 18.316     | 34.595     | 352.9 | 15.64
Output  | 0.0013075  | 0.0014574  | 0.0021438  |   0.7 |  0.00
Modify  | 11.228     | 12.558     | 13.818     |  32.6 | 10.72
Other   |            | 0.06103    |            |       |  0.05

Nlocal:         45.625 ave          55 max          34 min
Histogram: 1 1 0 1 1 0 0 2 0 2
Nghost:        2894.88 ave        2916 max        2877 min
Histogram: 2 0 1 0 1 1 1 1 0 1
Neighs:        25269.5 ave       30003 max       19138 min
Histogram: 1 0 1 0 2 0 0 2 0 2

Total # of neighbors = 202156
Ave neighs/atom = 553.85205
Ave special neighs/atom = 0
Neighbor list builds = 300
Dangerous builds not checked
OMP_NUM_THREADS environment is not set. Defaulting to 1 thread. (src/comm.cpp:98)
  using 1 OpenMP thread(s) per MPI task
Reading restart file ...
  restart file = 2 Aug 2023, LAMMPS = 2 Aug 2023
  restoring atom style full from restart
  triclinic box = (0 0 0) to (17.6144 14.9838 17.4642) with tilt (-6.9346 2.088 0.8795)
  2 by 2 by 2 MPI processor grid
  pair style reaxff stores no restart info
  365 atoms
Finding 1-2 1-3 1-4 neighbors ...
  special bond factors lj:    0        0        0       
  special bond factors coul:  0        0        0       
     0 = max # of 1-2 neighbors
     0 = max # of 1-3 neighbors
     0 = max # of 1-4 neighbors
     1 = max # of special neighbors
  special bonds CPU = 0.000 seconds
  read_restart CPU = 0.002 seconds
*****Positive-change 3 starts.*****
Resetting global fix info from restart file:
  fix style: nvt, fix ID: 4
Changing box ...
  triclinic box = (0 0 0) to (17.6144 14.9838 17.638842) with tilt (-6.9346 2.088 0.8795)
All restart file global fix info was re-assigned
Neighbor list info ...
  update: every = 10 steps, delay = 0 steps, check = no
  max neighbors/atom: 2000, page size: 100000
  master list distance cutoff = 12
  ghost atom cutoff = 12
  binsize = 6, bins = 5 3 3
  2 neighbor lists, perpetual/occasional/extra = 2 0 0
  (1) pair reaxff, perpetual
      attributes: half, newton off, ghost
      pair build: half/bin/newtoff/ghost
      stencil: full/ghost/bin/3d
      bin: standard
  (2) fix qeq/reaxff, perpetual, copy from (1)
      attributes: half, newton off
      pair build: copy
      stencil: none
      bin: none
Setting up Verlet run ...
  Unit style    : real
  Current step  : 0
  Time step     : 0.5
Per MPI rank memory allocation (min/avg/max) = 110.8 | 111.6 | 112.7 Mbytes
   Step          Temp          PotEng         Press        f_avgp[1]        Volume    
         0   289.52988     -42243.967     -38338.047      0              4655.431     
       100   307.27895     -42273.376     -12548.351     -3812.9775      4655.431     
       200   298.26174     -42261.167     -6075.2493     -11826.867      4655.431     
       300   309.29111     -42261.982     -3335.5832     -4690.3343      4655.431     
       400   283.93266     -42235.396      2208.3984     -8704.3681      4655.431     
       500   301.1125      -42268.573     -9358.6776     -11348.013      4655.431     
       600   285.66781     -42265.49       6803.1451     -5823.9023      4655.431     
       700   294.86572     -42276.969     -14726.538     -9268.8567      4655.431     
       800   305.0676      -42276.704     -17408.312     -8500.5628      4655.431     
       900   308.12539     -42262.735     -1804.0399     -4863.2614      4655.431     
      1000   311.25615     -42261.92      -5761.8188     -7353.3859      4655.431     
      1100   303.40716     -42259.144     -6498.8669     -10794.322      4655.431     
      1200   303.96303     -42256.596     -6511.2044     -9483.3434      4655.431     
      1300   296.66378     -42250.146     -12306.777     -8759.4651      4655.431     
      1400   291.63154     -42247.076     -13305.891     -7369.2407      4655.431     
      1500   305.67514     -42264.014     -5911.0954     -11411.702      4655.431     
      1600   307.75664     -42272.594     -14062.508     -7606.8169      4655.431     
      1700   299.60313     -42276.008     -2550.9933     -8690.4223      4655.431     
      1800   287.25428     -42278.231     -11282.547     -12377.619      4655.431     
      1900   285.66457     -42272.895     -3789.9117     -11154.637      4655.431     
      2000   313.03384     -42278.348     -2829.4958     -6522.4015      4655.431     
      2100   301.18797     -42258.759     -15320.141     -8574.3363      4655.431     
      2200   283.89013     -42249.983     -11122.356     -13333.776      4655.431     
      2300   302.63554     -42287.965     -1873.0604     -8488.6084      4655.431     
      2400   306.64387     -42303.277     -9055.5221     -9504.7568      4655.431     
      2500   283.88049     -42274.355     -2786.1762     -9727.916       4655.431     
      2600   305.46489     -42274.326     -13917.272     -7627.5662      4655.431     
      2700   308.99022     -42260.644     -9400.2516     -5463.4873      4655.431     
      2800   322.77359     -42280.652     -7914.6621     -11421.899      4655.431     
      2900   309.41861     -42288.962     -690.30407     -8375.27        4655.431     
      3000   303.55394     -42294.503     -3543.2076     -9124.1478      4655.431     
Loop time of 113.737 on 8 procs for 3000 steps with 365 atoms

Performance: 1.139 ns/day, 21.062 hours/ns, 26.377 timesteps/s, 9.628 katom-step/s
98.7% CPU use with 8 MPI tasks x 1 OpenMP threads

MPI task timing breakdown:
Section |  min time  |  avg time  |  max time  |%varavg| %total
---------------------------------------------------------------
Pair    | 60.975     | 76.876     | 93.45      | 166.8 | 67.59
Bond    | 0.0076044  | 0.008037   | 0.0088087  |   0.5 |  0.01
Neigh   | 5.3632     | 6.6119     | 7.9046     |  44.5 |  5.81
Comm    | 1.4383     | 18.009     | 33.901     | 344.6 | 15.83
Output  | 0.0066139  | 0.0080158  | 0.009003   |   1.0 |  0.01
Modify  | 10.86      | 12.162     | 13.415     |  32.9 | 10.69
Other   |            | 0.06101    |            |       |  0.05

Nlocal:         45.625 ave          60 max          30 min
Histogram: 1 0 0 2 1 0 2 0 1 1
Nghost:        2846.38 ave        2880 max        2817 min
Histogram: 2 0 0 0 2 2 1 0 0 1
Neighs:          24703 ave       31990 max       16420 min
Histogram: 1 0 0 2 1 1 1 0 1 1

Total # of neighbors = 197624
Ave neighs/atom = 541.43562
Ave special neighs/atom = 0
Neighbor list builds = 300
Dangerous builds not checked
*****Equilibration pos3 starts.*****
WARNING: New thermo_style command, previous thermo_modify settings will be lost (src/output.cpp:903)
Neighbor list info ...
  update: every = 10 steps, delay = 0 steps, check = no
  max neighbors/atom: 2000, page size: 100000
  master list distance cutoff = 12
  ghost atom cutoff = 12
  binsize = 6, bins = 5 3 3
  2 neighbor lists, perpetual/occasional/extra = 2 0 0
  (1) pair reaxff, perpetual
      attributes: half, newton off, ghost
      pair build: half/bin/newtoff/ghost
      stencil: full/ghost/bin/3d
      bin: standard
  (2) fix qeq/reaxff, perpetual, copy from (1)
      attributes: half, newton off
      pair build: copy
      stencil: none
      bin: none
Setting up Verlet run ...
  Unit style    : real
  Current step  : 0
  Time step     : 0.5
Per MPI rank memory allocation (min/avg/max) = 110.8 | 111.6 | 112.8 Mbytes
   Step          Temp          PotEng         Press        f_avgp[1]        Volume    
         0   303.55394     -42294.503     -3543.1848      0              4655.431     
       100   294.09503     -42274.542     -17146.981     -7748.607       4655.431     
       200   302.65957     -42256.758     -6421.0139     -10180.78       4655.431     
       300   316.79184     -42247.562     -8356.9694     -7924.7501      4655.431     
       400   287.09236     -42248.649     -842.37146     -8106.1899      4655.431     
       500   300.71891     -42284.294     -4041.2936     -12715.669      4655.431     
       600   300.66123     -42292.708     -2127.1678     -10358.097      4655.431     
       700   301.59888     -42302.001     -18097.875     -10291.474      4655.431     
       800   297.42252     -42280.433     -6153.2523     -11291.296      4655.431     
       900   303.66943     -42257.833     -8505.8933     -6194.3465      4655.431     
      1000   307.89454     -42265.408     -6158.9508     -12063.778      4655.431     
      1100   294.0763      -42269.665     -6888.6216     -10660.338      4655.431     
      1200   288.8041      -42270.841     -12803.8       -7904.6165      4655.431     
      1300   281.91206     -42266.71      -11958.211     -6655.4933      4655.431     
      1400   309.9345      -42286.957      2256.0613     -5475.255       4655.431     
      1500   315.47118     -42265.321     -8179.2294     -5487.1188      4655.431     
      1600   308.4391      -42245.108     -1804.2263     -4155.9267      4655.431     
      1700   302.63089     -42263.832     -6837.4623     -9220.0559      4655.431     
      1800   283.16445     -42273.444     -2134.5805     -8967.2315      4655.431     
      1900   284.20162     -42271.206     -4375.5962     -7207.7143      4655.431     
      2000   295.82654     -42265.485     -5333.7235     -7600.2862      4655.431     
      2100   309.02018     -42268.54       4052.5273     -7004.6875      4655.431     
      2200   289.15128     -42259.932     -7266.4804     -4494.8389      4655.431     
      2300   295.46926     -42303.399     -3876.801      -2040.0652      4655.431     
      2400   288.74925     -42312.439     -22538.53      -6468.7995      4655.431     
      2500   297.34467     -42310.314     -10685.806     -6277.6898      4655.431     
      2600   304.35387     -42287.598     -12427.542     -8066.6429      4655.431     
      2700   297.77757     -42269.41      -14304.828     -12561.79       4655.431     
      2800   304.3504      -42273.034     -6958.1065     -10703.258      4655.431     
      2900   290.91734     -42270.826     -1114.0996     -5014.3486      4655.431     
      3000   286.32542     -42290.529     -3670.22       -5233.5242      4655.431     
Loop time of 113.544 on 8 procs for 3000 steps with 365 atoms

Performance: 1.141 ns/day, 21.027 hours/ns, 26.421 timesteps/s, 9.644 katom-step/s
98.7% CPU use with 8 MPI tasks x 1 OpenMP threads

MPI task timing breakdown:
Section |  min time  |  avg time  |  max time  |%varavg| %total
---------------------------------------------------------------
Pair    | 61.186     | 77.022     | 93.09      | 165.6 | 67.83
Bond    | 0.0076115  | 0.0081731  | 0.0087761  |   0.5 |  0.01
Neigh   | 5.3488     | 6.584      | 7.8561     |  43.7 |  5.80
Comm    | 1.7954     | 17.862     | 33.701     | 343.9 | 15.73
Output  | 0.0012282  | 0.0014022  | 0.0020971  |   0.7 |  0.00
Modify  | 10.737     | 12.006     | 13.246     |  32.4 | 10.57
Other   |            | 0.06105    |            |       |  0.05

Nlocal:         45.625 ave          56 max          33 min
Histogram: 1 0 0 2 1 0 2 0 0 2
Nghost:        2853.25 ave        2892 max        2808 min
Histogram: 2 0 0 1 0 1 0 1 2 1
Neighs:        24734.4 ave       30193 max       18022 min
Histogram: 1 0 0 2 1 0 1 1 0 2

Total # of neighbors = 197875
Ave neighs/atom = 542.12329
Ave special neighs/atom = 0
Neighbor list builds = 300
Dangerous builds not checked
OMP_NUM_THREADS environment is not set. Defaulting to 1 thread. (src/comm.cpp:98)
  using 1 OpenMP thread(s) per MPI task
Reading restart file ...
  restart file = 2 Aug 2023, LAMMPS = 2 Aug 2023
  restoring atom style full from restart
  triclinic box = (0 0 0) to (17.6144 14.9838 17.4642) with tilt (-6.9346 2.088 0.8795)
  2 by 2 by 2 MPI processor grid
  pair style reaxff stores no restart info
  365 atoms
Finding 1-2 1-3 1-4 neighbors ...
  special bond factors lj:    0        0        0       
  special bond factors coul:  0        0        0       
     0 = max # of 1-2 neighbors
     0 = max # of 1-3 neighbors
     0 = max # of 1-4 neighbors
     1 = max # of special neighbors
  special bonds CPU = 0.000 seconds
  read_restart CPU = 0.003 seconds
*****Negative-change 4 starts.*****
Resetting global fix info from restart file:
  fix style: nvt, fix ID: 4
Changing box ...
  triclinic box = (0 0 0) to (17.6144 14.9838 17.4642) with tilt (-6.9346 2.088 0.704858)
All restart file global fix info was re-assigned
Neighbor list info ...
  update: every = 10 steps, delay = 0 steps, check = no
  max neighbors/atom: 2000, page size: 100000
  master list distance cutoff = 12
  ghost atom cutoff = 12
  binsize = 6, bins = 5 3 3
  2 neighbor lists, perpetual/occasional/extra = 2 0 0
  (1) pair reaxff, perpetual
      attributes: half, newton off, ghost
      pair build: half/bin/newtoff/ghost
      stencil: full/ghost/bin/3d
      bin: standard
  (2) fix qeq/reaxff, perpetual, copy from (1)
      attributes: half, newton off
      pair build: copy
      stencil: none
      bin: none
Setting up Verlet run ...
  Unit style    : real
  Current step  : 0
  Time step     : 0.5
Per MPI rank memory allocation (min/avg/max) = 111.5 | 112.3 | 113.1 Mbytes
   Step          Temp          PotEng         Press        f_avgp[1]        Volume    
         0   289.52988     -42255.541     -114.61591      0              4609.3376    
       100   296.85881     -42269.738     -8172.3732     -3483.5122      4609.3376    
       200   294.69952     -42261.03      -11597.178     -10300.946      4609.3376    
       300   317.46011     -42269.972     -7486.1587     -4415.1822      4609.3376    
       400   310.11867     -42256.896     -13667.388     -9678.3938      4609.3376    
       500   301.91726     -42261.46       418.8013      -7392.0769      4609.3376    
       600   295.80823     -42273.1       -2728.5372     -5253.8059      4609.3376    
       700   289.28348     -42257.024     -2146.1461     -8364.5918      4609.3376    
       800   303.67448     -42247.405     -13028.113     -5118.1908      4609.3376    
       900   325.20285     -42251.39      -1863.9577     -6103.3387      4609.3376    
      1000   318.17486     -42263.2       -9712.5881     -7725.3629      4609.3376    
      1100   294.11492     -42269.148     -3942.5798     -10028.852      4609.3376    
      1200   277.11783     -42264.284     -8193.7873     -12234.296      4609.3376    
      1300   292.82181     -42277.385     -15137.292     -12668.912      4609.3376    
      1400   290.94331     -42272.269     -13224.505     -13070.022      4609.3376    
      1500   291.74228     -42262.509     -3105.2274     -5645.4363      4609.3376    
      1600   298.68602     -42257.459     -4015.5877     -7554.1672      4609.3376    
      1700   308.55142     -42262.971     -12134.557     -12146.915      4609.3376    
      1800   305.39457     -42277.451     -19967.915     -15287.294      4609.3376    
      1900   299.32761     -42292.156     -12764.179     -14800.287      4609.3376    
      2000   311.41411     -42312.993     -6468.594      -8124.6033      4609.3376    
      2100   294.68154     -42293.702     -9573.9503     -10870.914      4609.3376    
      2200   295.76824     -42277.883     -4506.0886     -8218.1194      4609.3376    
      2300   295.33669     -42263.71      -4793.9005     -8922.807       4609.3376    
      2400   307.96909     -42275.474     -16538.774     -6241.7999      4609.3376    
      2500   317.31414     -42297.961     -16863.247     -12217.469      4609.3376    
      2600   308.07628     -42317.767     -18190.122     -9609.0681      4609.3376    
      2700   289.04077     -42320.573     -8029.9834     -10664.296      4609.3376    
      2800   287.85425     -42314.102     -5211.6828     -11966.557      4609.3376    
      2900   312.94578     -42306.809     -12183.684     -8817.0507      4609.3376    
      3000   325.66129     -42292.264     -14548.77      -15780.847      4609.3376    
Loop time of 114.711 on 8 procs for 3000 steps with 365 atoms

Performance: 1.130 ns/day, 21.243 hours/ns, 26.153 timesteps/s, 9.546 katom-step/s
98.8% CPU use with 8 MPI tasks x 1 OpenMP threads

MPI task timing breakdown:
Section |  min time  |  avg time  |  max time  |%varavg| %total
---------------------------------------------------------------
Pair    | 61.631     | 77.79      | 94.421     | 166.1 | 67.81
Bond    | 0.0075216  | 0.0079812  | 0.0085132  |   0.4 |  0.01
Neigh   | 5.3706     | 6.5985     | 7.7282     |  43.4 |  5.75
Comm    | 1.4719     | 18.099     | 34.248     | 344.3 | 15.78
Output  | 0.0066701  | 0.0079655  | 0.0089245  |   0.9 |  0.01
Modify  | 11.014     | 12.146     | 13.376     |  32.1 | 10.59
Other   |            | 0.06131    |            |       |  0.05

Nlocal:         45.625 ave          53 max          37 min
Histogram: 2 1 0 0 0 0 2 0 1 2
Nghost:        2877.88 ave        2907 max        2856 min
Histogram: 2 1 0 1 1 0 1 0 1 1
Neighs:        24967.5 ave       28520 max       20370 min
Histogram: 2 0 1 0 0 0 0 2 1 2

Total # of neighbors = 199740
Ave neighs/atom = 547.23288
Ave special neighs/atom = 0
Neighbor list builds = 300
Dangerous builds not checked
*****Equilibration neg4 starts.*****
WARNING: New thermo_style command, previous thermo_modify settings will be lost (src/output.cpp:903)
Neighbor list info ...
  update: every = 10 steps, delay = 0 steps, check = no
  max neighbors/atom: 2000, page size: 100000
  master list distance cutoff = 12
  ghost atom cutoff = 12
  binsize = 6, bins = 5 3 3
  2 neighbor lists, perpetual/occasional/extra = 2 0 0
  (1) pair reaxff, perpetual
      attributes: half, newton off, ghost
      pair build: half/bin/newtoff/ghost
      stencil: full/ghost/bin/3d
      bin: standard
  (2) fix qeq/reaxff, perpetual, copy from (1)
      attributes: half, newton off
      pair build: copy
      stencil: none
      bin: none
Setting up Verlet run ...
  Unit style    : real
  Current step  : 0
  Time step     : 0.5
Per MPI rank memory allocation (min/avg/max) = 111.6 | 112.3 | 113.1 Mbytes
   Step          Temp          PotEng         Press        f_avgp[1]        Volume    
         0   325.66129     -42292.264     -14548.763      0              4609.3376    
[...]
  (1) pair reaxff, perpetual
      attributes: half, newton off, ghost
      pair build: half/bin/newtoff/ghost
      stencil: full/ghost/bin/3d
      bin: standard
  (2) fix qeq/reaxff, perpetual, copy from (1)
      attributes: half, newton off
      pair build: copy
      stencil: none
      bin: none
Setting up Verlet run ...
  Unit style    : real
  Current step  : 0
  Time step     : 0.5
Per MPI rank memory allocation (min/avg/max) = 111.9 | 112.7 | 113.6 Mbytes
   Step          Temp          PotEng         Press        f_avgp[1]        Volume    
         0   289.52988     -42257.93       3327.4458      0              4609.3376    
       100   293.5316      -42268.483     -5334.3591     -2559.7447      4609.3376    
       200   297.92061     -42264.116     -3468.7614     -10444.724      4609.3376    
       300   315.11761     -42264.971     -8125.6274     -3582.8104      4609.3376    
       400   305.17191     -42244.808     -6233.8847     -7592.587       4609.3376    
       500   304.32916     -42252.626      1273.2197     -5465.4578      4609.3376    
       600   277.79357     -42246.193     -6071.2801     -8731.9283      4609.3376    
       700   301.31313     -42272.264     -7874.2228     -6932.8694      4609.3376    
       800   302.28435     -42256.178     -8935.1677     -7011.0183      4609.3376    
       900   308.40009     -42252.249     -11186.651     -8558.4905      4609.3376    
      1000   315.14549     -42264.48      -7631.7688     -6674.4947      4609.3376    
      1100   295.36876     -42263.271     -5763.4893     -8412.9095      4609.3376    
      1200   294.96241     -42271.802     -2224.3773     -13228.745      4609.3376    
      1300   287.04412     -42260.932     -20306.25      -12738.294      4609.3376    
      1400   300.51475     -42263.568     -6125.6489     -12353.717      4609.3376    
      1500   314.65145     -42268.388     -1792.6172     -9058.9559      4609.3376    
      1600   300.85818     -42257.219     -5472.4479     -6811.493       4609.3376    
      1700   306.76994     -42280.578     -9448.6255     -13966.087      4609.3376    
      1800   282.97328     -42274.884     -3780.2375     -13541.194      4609.3376    
      1900   282.11189     -42278.106     -9269.9309     -7550.7962      4609.3376    
      2000   290.76304     -42271.355     -18179.364     -15300.272      4609.3376    
      2100   313.39263     -42267.35      -8840.4964     -9898.5287      4609.3376    
      2200   306.75778     -42251.118     -7488.7547     -12354.944      4609.3376    
      2300   306.16425     -42265.695     -5502.6096     -11556.351      4609.3376    
      2400   277.0262      -42267.977     -19991.28      -9127.6297      4609.3376    
      2500   278.15328     -42280.993     -6650.827      -8955.8573      4609.3376    
      2600   293.45136     -42280.37      -14046.925     -12521.632      4609.3376    
      2700   298.29191     -42263.963     -18861.712     -9042.2927      4609.3376    
      2800   301.80877     -42256.568     -7895.1147     -10761.196      4609.3376    
      2900   294.64732     -42257.933     -14535.444     -9472.0695      4609.3376    
      3000   303.84069     -42286.204     -7263.5591     -12722.049      4609.3376    
Loop time of 115.247 on 8 procs for 3000 steps with 365 atoms

Performance: 1.125 ns/day, 21.342 hours/ns, 26.031 timesteps/s, 9.501 katom-step/s
98.8% CPU use with 8 MPI tasks x 1 OpenMP threads

MPI task timing breakdown:
Section |  min time  |  avg time  |  max time  |%varavg| %total
---------------------------------------------------------------
Pair    | 61.948     | 78.877     | 94.924     | 161.2 | 68.44
Bond    | 0.0077049  | 0.008257   | 0.0090014  |   0.5 |  0.01
Neigh   | 5.5559     | 6.7323     | 7.8663     |  41.8 |  5.84
Comm    | 1.3564     | 17.398     | 34.313     | 343.3 | 15.10
Output  | 0.0066247  | 0.0080695  | 0.0090518  |   1.0 |  0.01
Modify  | 11.028     | 12.163     | 13.331     |  31.3 | 10.55
Other   |            | 0.0615     |            |       |  0.05

Nlocal:         45.625 ave          54 max          35 min
Histogram: 1 1 0 1 1 0 0 1 1 2
Nghost:        2867.88 ave        2899 max        2841 min
Histogram: 2 2 0 0 0 0 1 0 1 2
Neighs:        25012.9 ave       29314 max       19395 min
Histogram: 1 1 0 1 1 0 0 1 1 2

Total # of neighbors = 200103
Ave neighs/atom = 548.2274
Ave special neighs/atom = 0
Neighbor list builds = 300
Dangerous builds not checked
*****Equilibration neg6 starts.*****
WARNING: New thermo_style command, previous thermo_modify settings will be lost (src/output.cpp:903)
Neighbor list info ...
  update: every = 10 steps, delay = 0 steps, check = no
  max neighbors/atom: 2000, page size: 100000
  master list distance cutoff = 12
  ghost atom cutoff = 12
  binsize = 6, bins = 5 3 3
  2 neighbor lists, perpetual/occasional/extra = 2 0 0
  (1) pair reaxff, perpetual
      attributes: half, newton off, ghost
      pair build: half/bin/newtoff/ghost
      stencil: full/ghost/bin/3d
      bin: standard
  (2) fix qeq/reaxff, perpetual, copy from (1)
      attributes: half, newton off
      pair build: copy
      stencil: none
      bin: none
Setting up Verlet run ...
  Unit style    : real
  Current step  : 0
  Time step     : 0.5
Per MPI rank memory allocation (min/avg/max) = 111.9 | 112.7 | 113.6 Mbytes
   Step          Temp          PotEng         Press        f_avgp[1]        Volume    
         0   303.84069     -42286.204     -7263.5559      0              4609.3376    
       100   289.18957     -42270.593     -4402.654      -13619.664      4609.3376    
       200   287.39846     -42267.79      -16963.491     -9767.1693      4609.3376    
       300   301.49675     -42258.681     -1699.9504     -9132.3064      4609.3376    
       400   319.42604     -42263.853     -954.77711     -7384.4115      4609.3376    
       500   310.74272     -42274.276     -5891.1958     -3178.5835      4609.3376    
       600   298.22671     -42291.722      1651.4054     -7722.7075      4609.3376    
       700   290.37298     -42284.676     -10724.037     -9462.4521      4609.3376    
       800   296.63458     -42272.691     -10299.147     -9394.0594      4609.3376    
       900   315.63642     -42276.219     -19917.745     -11962.365      4609.3376    
      1000   299.91442     -42279.192     -14301.311     -10637.075      4609.3376    
      1100   278.26712     -42283.754      1644.7882     -12329.25       4609.3376    
      1200   315.10694     -42322.66      -8522.524      -13987.797      4609.3376    
      1300   318.47596     -42317.505     -16044.626     -11813.613      4609.3376    
      1400   291.98334     -42281.486     -6292.0021     -7504.9322      4609.3376    
      1500   301.20284     -42275.24      -13440.733     -10513.752      4609.3376    
      1600   315.067       -42268.737     -15229.516     -9893.3511      4609.3376    
      1700   303.67903     -42268.287     -7748.1353     -9713.0996      4609.3376    
      1800   277.53519     -42273.511     -14577.791     -13573.438      4609.3376    
      1900   306.11121     -42299.478     -4308.4707     -9743.3029      4609.3376    
      2000   298.09903     -42285.718     -5144.817      -12884.703      4609.3376    
      2100   299.01053     -42291.347     -3482.0008     -10139.932      4609.3376    
      2200   292.56002     -42299.06      -1210.6748     -10418.058      4609.3376    
      2300   295.95469     -42315.876     -1207.2519     -12426.613      4609.3376    
      2400   305.93205     -42318.431     -13145.045     -17096.029      4609.3376    
      2500   305.49623     -42283.538     -9619.9569     -9629.4514      4609.3376    
      2600   314.89961     -42288.403     -10875.906     -6291.9058      4609.3376    
      2700   319.73893     -42308.439     -12200.183     -10650.1        4609.3376    
      2800   287.62848     -42288.388     -14510.515     -11134.201      4609.3376    
      2900   293.11967     -42288.93      -7953.3411     -11078.144      4609.3376    
      3000   300.72435     -42291.086     -13162.638     -12231.521      4609.3376    
Loop time of 116.118 on 8 procs for 3000 steps with 365 atoms

Performance: 1.116 ns/day, 21.503 hours/ns, 25.836 timesteps/s, 9.430 katom-step/s
98.8% CPU use with 8 MPI tasks x 1 OpenMP threads

MPI task timing breakdown:
Section |  min time  |  avg time  |  max time  |%varavg| %total
---------------------------------------------------------------
Pair    | 61.753     | 82.331     | 95.331     | 163.6 | 70.90
Bond    | 0.0077722  | 0.0083847  | 0.0093586  |   0.5 |  0.01
Neigh   | 5.5662     | 7.0063     | 7.9268     |  39.5 |  6.03
Comm    | 1.5007     | 14.502     | 35.074     | 389.8 | 12.49
Output  | 0.0012666  | 0.0014338  | 0.0022722  |   0.8 |  0.00
Modify  | 11.282     | 12.206     | 13.645     |  30.1 | 10.51
Other   |            | 0.06301    |            |       |  0.05

Nlocal:         45.625 ave          53 max          38 min
Histogram: 3 0 0 0 1 0 0 1 1 2
Nghost:        2897.25 ave        2934 max        2856 min
Histogram: 2 0 0 0 2 0 1 1 1 1
Neighs:          25044 ave       28728 max       21162 min
Histogram: 3 0 0 1 0 0 0 1 1 2

Total # of neighbors = 200352
Ave neighs/atom = 548.90959
Ave special neighs/atom = 0
Neighbor list builds = 300
Dangerous builds not checked
OMP_NUM_THREADS environment is not set. Defaulting to 1 thread. (src/comm.cpp:98)
  using 1 OpenMP thread(s) per MPI task
Reading restart file ...
  restart file = 2 Aug 2023, LAMMPS = 2 Aug 2023
  restoring atom style full from restart
  triclinic box = (0 0 0) to (17.6144 14.9838 17.4642) with tilt (-6.9346 2.088 0.8795)
  2 by 2 by 2 MPI processor grid
  pair style reaxff stores no restart info
  365 atoms
Finding 1-2 1-3 1-4 neighbors ...
  special bond factors lj:    0        0        0       
  special bond factors coul:  0        0        0       
     0 = max # of 1-2 neighbors
     0 = max # of 1-3 neighbors
     0 = max # of 1-4 neighbors
     1 = max # of special neighbors
  special bonds CPU = 0.000 seconds
  read_restart CPU = 0.003 seconds
*****Positive-change 6 starts.*****
Resetting global fix info from restart file:
  fix style: nvt, fix ID: 4
Changing box ...
  triclinic box = (0 0 0) to (17.6144 14.9838 17.4642) with tilt (-6.784762 2.088 0.8795)
All restart file global fix info was re-assigned
Neighbor list info ...
  update: every = 10 steps, delay = 0 steps, check = no
  max neighbors/atom: 2000, page size: 100000
  master list distance cutoff = 12
  ghost atom cutoff = 12
  binsize = 6, bins = 5 3 3
  2 neighbor lists, perpetual/occasional/extra = 2 0 0
  (1) pair reaxff, perpetual
      attributes: half, newton off, ghost
      pair build: half/bin/newtoff/ghost
      stencil: full/ghost/bin/3d
      bin: standard
  (2) fix qeq/reaxff, perpetual, copy from (1)
      attributes: half, newton off
      pair build: copy
      stencil: none
      bin: none
Setting up Verlet run ...
  Unit style    : real
  Current step  : 0
  Time step     : 0.5
Per MPI rank memory allocation (min/avg/max) = 111.2 | 111.9 | 112.7 Mbytes
   Step          Temp          PotEng         Press        f_avgp[1]        Volume    
         0   289.52988     -42258.026     -684.31131      0              4609.3376    
       100   308.16092     -42284.833     -9548.2631     -4364.8265      4609.3376    
       200   285.54912     -42251.057     -13088.542     -11643.542      4609.3376    
       300   314.79564     -42264.786     -10205.31      -5274.6751      4609.3376    
       400   302.55146     -42251.621     -13258.174     -9142.3004      4609.3376    
       500   304.34064     -42265.911     -6994.1136     -10745.572      4609.3376    
       600   297.21478     -42276.845     -9.1199076     -6381.7134      4609.3376    
       700   299.55775     -42281.173     -3506.6066     -9849.5061      4609.3376    
       800   306.56168     -42271.094     -18612.113     -10474.985      4609.3376    
       900   319.34974     -42267.549     -644.80004     -8659.6119      4609.3376    
      1000   312.99225     -42252.306     -6265.7519     -6392.0438      4609.3376    
      1100   308.14448     -42253.293     -11213.502     -8148.1526      4609.3376    
      1200   298.04165     -42262.996     -5801.1678     -6578.7898      4609.3376    
      1300   274.60038     -42253.763     -14030.132     -6589.4936      4609.3376    
      1400   274.83035     -42253.24      -10785.371     -5545.026       4609.3376    
      1500   303.40853     -42255.143     -11683.126     -10526.775      4609.3376    
      1600   300.37539     -42236.82      -6888.0535     -5210.8984      4609.3376    
      1700   302.11177     -42245.439     -4665.77       -9858.5882      4609.3376    
      1800   306.85034     -42266.65      -615.58628     -10170.823      4609.3376    
      1900   296.72511     -42277.079     -9409.5896     -8119.702       4609.3376    
      2000   291.16056     -42286.293     -9593.3523     -10876.13       4609.3376    
      2100   295.87814     -42284.089     -14464.265     -8808.3151      4609.3376    
      2200   298.2579      -42260.979     -20937.616     -9685.5519      4609.3376    
      2300   318.54693     -42269.457     -14527.73      -10666.173      4609.3376    
      2400   298.53149     -42258.853     -8423.2932     -8093.2015      4609.3376    
      2500   290.08511     -42269.678     -13316.085     -9437.0926      4609.3376    
      2600   276.47157     -42260.176     -5946.2873     -4807.1359      4609.3376    
      2700   295.79258     -42262.954     -11061.247     -5859.5678      4609.3376    
      2800   308.23964     -42257.721     -7669.7624     -8913.3465      4609.3376    
      2900   328.46047     -42274.072     -8652.0797     -11733.204      4609.3376    
      3000   297.92858     -42270.536     -9192.6543     -7253.672       4609.3376    
Loop time of 114.607 on 8 procs for 3000 steps with 365 atoms

Performance: 1.131 ns/day, 21.224 hours/ns, 26.176 timesteps/s, 9.554 katom-step/s
98.8% CPU use with 8 MPI tasks x 1 OpenMP threads

MPI task timing breakdown:
Section |  min time  |  avg time  |  max time  |%varavg| %total
---------------------------------------------------------------
Pair    | 61.872     | 78.534     | 94.524     | 159.6 | 68.52
Bond    | 0.0075528  | 0.0081621  | 0.0088724  |   0.5 |  0.01
Neigh   | 5.5386     | 6.697      | 7.8229     |  41.8 |  5.84
Comm    | 1.1029     | 17.092     | 33.743     | 342.1 | 14.91
Output  | 0.0067205  | 0.0082329  | 0.0092703  |   1.0 |  0.01
Modify  | 11.085     | 12.207     | 13.381     |  31.1 | 10.65
Other   |            | 0.06136    |            |       |  0.05

Nlocal:         45.625 ave          58 max          32 min
Histogram: 1 0 0 1 2 2 0 0 0 2
Nghost:        2840.38 ave        2870 max        2818 min
Histogram: 1 1 0 3 0 1 0 0 1 1
Neighs:          25009 ave       31225 max       17766 min
Histogram: 1 0 0 1 2 2 0 0 0 2

Total # of neighbors = 200072
Ave neighs/atom = 548.14247
Ave special neighs/atom = 0
Neighbor list builds = 300
Dangerous builds not checked
*****Equilibration pos6 starts.*****
WARNING: New thermo_style command, previous thermo_modify settings will be lost (src/output.cpp:903)
Neighbor list info ...
  update: every = 10 steps, delay = 0 steps, check = no
  max neighbors/atom: 2000, page size: 100000
  master list distance cutoff = 12
  ghost atom cutoff = 12
  binsize = 6, bins = 5 3 3
  2 neighbor lists, perpetual/occasional/extra = 2 0 0
  (1) pair reaxff, perpetual
      attributes: half, newton off, ghost
      pair build: half/bin/newtoff/ghost
      stencil: full/ghost/bin/3d
      bin: standard
  (2) fix qeq/reaxff, perpetual, copy from (1)
      attributes: half, newton off
      pair build: copy
      stencil: none
      bin: none
Setting up Verlet run ...
  Unit style    : real
  Current step  : 0
  Time step     : 0.5
Per MPI rank memory allocation (min/avg/max) = 111.2 | 111.9 | 112.8 Mbytes
   Step          Temp          PotEng         Press        f_avgp[1]        Volume    
         0   297.92858     -42270.536     -9192.6404      0              4609.3376    
       100   308.79472     -42281.78      -4022.178      -7269.9757      4609.3376    
       200   311.03537     -42279.833     -2685.5684     -7437.8402      4609.3376    
       300   310.77508     -42271.424     -7346.6774     -9394.3316      4609.3376    
       400   310.08765     -42264.695      4587.2684     -7772.6609      4609.3376    
       500   289.45484     -42250.217     -16790.177     -9001.9976      4609.3376    
       600   288.68018     -42276.543     -5051.6571     -8451.6055      4609.3376    
       700   294.36719     -42290.187     -9168.9972     -9760.2239      4609.3376    
       800   303.28217     -42285.919     -1475.5757     -6296.8223      4609.3376    
       900   289.50106     -42267.302     -9693.7984     -9286.0533      4609.3376    
      1000   312.82234     -42281.489     -13189.804     -9108.1758      4609.3376    
      1100   318.73512     -42254.754     -97.753312     -9195.1175      4609.3376    
      1200   312.68135     -42262.654     -10695.515     -6241.3182      4609.3376    
      1300   303.09731     -42287.269     -9490.0587     -11550.98       4609.3376    
      1400   289.84261     -42282.115     -13119.488     -9176.8173      4609.3376    
      1500   294.09654     -42277.224      3071.9394     -6546.8725      4609.3376    
      1600   314.82802     -42278.955     -11253.234     -9580.9544      4609.3376    
      1700   329.48174     -42272.276     -8643.4029     -5740.3668      4609.3376    
      1800   303.32932     -42258.408      5898.3946     -10322.865      4609.3376    
      1900   295.03545     -42291.086     -4884.2497     -7945.637       4609.3376    
      2000   293.12937     -42295.977     -13920.246     -8547.2854      4609.3376    
      2100   294.09436     -42296.76      -4020.1196     -6499.6708      4609.3376    
      2200   293.14763     -42279.269     -10943.384     -8572.3367      4609.3376    
      2300   318.74884     -42279.397     -4219.5353     -10900.857      4609.3376    
      2400   313.25781     -42276.853     -10091.553     -3946.3434      4609.3376    
      2500   303.00882     -42288.717     -2553.0805     -6494.0374      4609.3376    
      2600   300.1856      -42296.333     -7081.4066     -9674.1988      4609.3376    
      2700   297.38054     -42302.479      4812.0169     -3436.8692      4609.3376    
      2800   280.53855     -42287.349     -9978.4809     -7274.7066      4609.3376    
      2900   312.39659     -42303.401     -6374.4991     -11417.728      4609.3376    
      3000   308.32175     -42284.858     -7796.0227     -7157.5929      4609.3376    
Loop time of 117.805 on 8 procs for 3000 steps with 365 atoms

Performance: 1.100 ns/day, 21.816 hours/ns, 25.466 timesteps/s, 9.295 katom-step/s
98.4% CPU use with 8 MPI tasks x 1 OpenMP threads

MPI task timing breakdown:
Section |  min time  |  avg time  |  max time  |%varavg| %total
---------------------------------------------------------------
Pair    | 66.293     | 81.699     | 96.224     | 109.6 | 69.35
Bond    | 0.0073078  | 0.0080891  | 0.0089067  |   0.6 |  0.01
Neigh   | 5.4741     | 6.9397     | 7.996      |  29.5 |  5.89
Comm    | 1.6002     | 16.168     | 31.554     | 246.5 | 13.72
Output  | 0.001205   | 0.0014073  | 0.0021179  |   0.7 |  0.00
Modify  | 11.902     | 12.925     | 14.418     |  21.7 | 10.97
Other   |            | 0.06272    |            |       |  0.05

Nlocal:         45.625 ave          60 max          31 min
Histogram: 1 0 0 3 0 1 1 0 1 1
Nghost:        2856.38 ave        2891 max        2827 min
Histogram: 2 1 1 0 0 1 0 1 1 1
Neighs:        24997.6 ave       32253 max       17212 min
Histogram: 1 0 0 3 0 1 1 0 1 1

Total # of neighbors = 199981
Ave neighs/atom = 547.89315
Ave special neighs/atom = 0
Neighbor list builds = 300
Dangerous builds not checked
Total wall time: 0:48:01
