ITEM: TIMESTEP
0
ITEM: NUMBER OF ATOMS
373
ITEM: BOX BOUNDS xy xz yz pp pp pp
-1.0794400000000000e+01 2.0438599999999997e+01 -1.0794400000000000e+01
-3.3405999999999998e+00 1.4057499999999999e+01 1.3894000000000000e+00
0.0000000000000000e+00 1.7550000000000001e+01 -3.3405999999999998e+00
ITEM: ATOMS id type q x y z
179 4 -2.11748e-05 -0.44393 2.14933 8.76248
183 3 -4.21393e-06 0.598462 1.29746 7.7389
189 2 -3.59007e-05 -0.462517 3.83168 8.38118
192 2 3.99235e-05 1.11373 2.3273 5.16032
199 4 -9.32076e-05 -0.345285 4.61077 1.04489
200 4 2.59767e-05 -1.81272 5.3292 4.05673
202 2 7.13558e-05 1.30048 5.19017 1.18019
203 1 -9.71126e-05 -0.174022 2.72343 1.29727
205 3 1.33714e-05 -1.41915 5.12361 2.4777
210 2 -4.79276e-05 -1.18949 2.22861 1.42137
211 2 -3.76983e-05 0.535591 2.53537 2.16839
212 2 -7.06721e-05 0.313222 2.54998 0.246101
321 1 6.28837e-05 -3.48503 4.58018 4.55507
322 2 -1.45236e-05 -3.92271 5.15819 5.43983
325 1 -2.66252e-05 -0.233209 4.7432 5.06146
326 2 -2.72924e-05 -0.0511452 5.41593 5.9565
327 2 8.52566e-06 0.619673 4.65515 4.30933
328 2 -2.84941e-05 -0.752164 3.71537 5.32918
337 2 -5.40602e-06 1.0281 -1.1542 6.39153
359 2 -3.43256e-05 -0.343689 5.34786 7.90304
323 2 -2.36109e-05 -3.03998 3.54687 4.8573
3 4 -1.48886e-05 4.8764 1.23871 2.5997
4 4 7.89785e-06 6.89407 -0.904819 6.75481
5 4 -5.34824e-05 6.50233 1.80392 4.96564
7 4 8.96852e-06 3.90692 4.4096 2.38872
9 4 -6.58022e-05 5.3997 3.08742 7.42032
10 4 -1.63006e-05 3.15098 5.26543 6.42625
33 3 2.28247e-05 6.30997 1.00909 1.84037
34 2 1.44071e-05 3.8387 -0.019059 2.21598
35 2 1.31817e-05 5.69541 -0.652803 7.93321
36 3 -1.39956e-05 5.07697 1.23488 4.26005
37 3 -9.70945e-06 7.19223 0.443646 5.88355
41 3 -3.51089e-06 4.17681 2.67318 2.12269
42 1 3.15121e-05 3.23675 5.1368 0.762805
43 2 3.99545e-05 2.75436 4.64609 3.60417
45 2 -2.25431e-05 5.15411 1.54765 8.01457
46 3 -3.70673e-05 6.21171 3.05701 5.98466
47 2 -4.10963e-07 1.61281 4.80436 5.72287
48 3 -1.12766e-05 3.94495 3.83247 7.20478
62 3 1.28591e-05 5.37481 5.08651 2.75373
63 3 -1.06903e-05 4.22914 5.86304 5.32092
64 2 1.38253e-05 6.09004 5.76898 0.637783
68 3 -9.21581e-06 6.29596 3.93805 8.47539
71 3 -1.95495e-05 7.00864 6.04704 4.86042
117 2 -2.58339e-05 2.52937 4.411 0.235281
118 2 -4.90781e-06 4.1546 5.40078 0.14284
119 2 3.39653e-05 2.73916 6.07744 1.2753
124 2 -2.39556e-06 2.44637 5.91353 8.67294
178 4 -6.96782e-06 1.63235 0.399738 6.71328
181 1 3.2761e-05 1.80205 1.42415 5.19422
190 2 -2.26559e-05 1.55601 0.548493 4.42693
191 2 -3.08538e-06 2.97169 1.67376 5.3318
320 2 2.40273e-06 3.10017 -0.0301079 7.45654
17 4 4.52359e-05 10.4112 3.76889 7.23654
19 4 4.57611e-06 8.68394 6.17577 5.58149
61 2 -5.76695e-05 7.60426 2.33922 3.81487
65 1 1.03036e-06 9.59163 2.5647 8.54062
66 1 -1.77521e-06 11.395 2.74251 5.86193
67 1 1.26941e-05 11.6249 5.04658 8.14657
72 3 -1.19025e-05 9.2592 4.66234 6.49912
138 2 3.02535e-05 10.9071 -0.91378 8.48516
139 2 1.45581e-05 12.7854 -1.1713 8.49806
147 2 7.29754e-06 9.8791 1.54023 8.13129
148 2 -2.37301e-05 8.47322 2.75576 8.54401
150 2 1.7291e-05 10.9605 1.69593 5.93749
151 2 2.27312e-05 12.4818 2.80317 6.18376
152 2 1.31065e-05 11.1932 3.24266 4.86487
153 2 9.85602e-06 11.6936 5.95091 7.46458
154 2 -2.51212e-06 12.6071 4.49081 8.25362
157 2 3.97948e-05 10.234 5.37903 3.99156
223 1 1.36616e-06 12.8225 5.81482 1.27386
225 2 -1.0981e-05 12.0911 5.43826 2.16286
227 2 -2.64696e-05 13.1188 5.01045 0.471887
259 4 3.33759e-05 12.2114 1.76657 0.906054
262 2 1.17772e-05 10.8547 2.05626 1.90641
319 2 2.88028e-05 13.3646 1.32201 8.29833
329 1 6.92532e-06 8.86091 -0.496487 2.69948
330 2 -9.67516e-06 8.53642 -0.102936 3.71674
331 2 1.69309e-05 9.6039 0.192399 2.1703
342 2 3.88524e-05 13.402 2.98594 2.41852
344 1 2.58105e-06 12.4061 -0.144701 1.00525
365 2 3.30519e-05 8.22593 -1.37664 7.69787
347 2 6.19388e-06 13.5819 -0.0532691 1.08034
182 3 1.39028e-05 17.1304 1.46635 8.68927
177 4 1.15433e-05 15.7469 1.84021 7.81167
184 2 -2.7323e-05 15.7362 3.46706 7.27742
304 4 2.22533e-05 15.3145 -0.339752 5.09428
305 1 4.19559e-06 14.941 0.821246 3.68482
306 3 2.67267e-05 15.5387 0.799714 6.49484
307 2 -1.56511e-05 13.814 0.870817 3.52946
308 2 -2.53413e-05 15.5216 0.217682 2.85692
309 2 1.77931e-05 15.4192 1.82477 3.94083
324 2 -1.59134e-05 14.8605 4.53533 3.65925
340 1 9.00398e-05 13.7736 2.8187 1.31056
341 2 -6.84992e-06 14.7248 2.20725 1.23587
343 2 -6.36081e-06 13.7953 3.81083 0.673654
109 2 6.09301e-05 -5.15685 11.866 0.915542
110 2 3.85338e-05 -5.16284 12.2046 2.78789
219 2 1.58421e-05 -5.27008 8.98018 3.81583
221 2 1.15623e-05 -4.97419 7.265 4.57588
243 1 6.91232e-06 -5.84141 10.2943 8.41389
247 2 -4.34923e-06 -5.3019 9.25096 8.216
226 2 -1.23773e-05 -5.05488 6.96892 1.62013
249 2 -1.87002e-05 -6.71933 10.5248 7.72674
353 2 6.74275e-06 -5.43015 12.0654 5.41138
248 2 2.29977e-05 -5.11754 11.1824 8.59556
1 4 2.30025e-05 -3.4628 13.5583 1.553
14 4 3.08098e-05 0.763711 11.1021 7.16573
31 1 3.95244e-05 -4.53162 12.0067 1.86055
55 1 1.59738e-06 1.30686 7.55968 3.93192
57 2 4.38053e-07 -0.173367 9.96857 3.14535
58 1 4.07747e-05 0.967138 12.4088 8.62207
59 1 1.66757e-05 -0.003266 12.0031 5.56665
60 1 1.46866e-05 -0.32308 9.5807 7.64741
108 2 2.83066e-05 -3.76457 11.1739 2.01572
135 2 1.11386e-05 1.1839 6.91247 2.9777
136 2 -2.50427e-05 0.30436 7.72377 4.54575
141 2 -1.52589e-05 -0.964661 12.4785 5.9324
142 2 -7.58714e-06 -0.181475 11.1771 4.81478
143 2 -2.88249e-05 0.762575 12.7632 5.21983
144 2 1.55799e-05 -1.28241 9.61387 7.0398
145 2 3.2074e-05 -0.458458 9.93042 8.76142
146 2 -1.8713e-06 0.25482 8.61086 7.54164
201 4 -2.51015e-05 -2.77774 8.55845 4.16757
206 1 -2.70249e-05 -2.65782 8.63553 2.24326
207 3 -6.4241e-06 -2.04472 7.15302 4.49575
208 1 1.52231e-05 -4.66053 8.35283 4.53633
209 2 3.50534e-05 -2.05444 9.86455 5.00592
216 2 -1.65331e-05 -2.01442 7.79633 1.83309
217 2 -2.30733e-05 -2.10216 9.67634 2.29393
218 2 -2.35785e-05 -3.6882 8.69294 1.77767
220 2 1.82499e-05 -4.53588 8.849 5.60022
234 2 2.46098e-05 -0.653909 11.665 0.331555
290 1 -6.9368e-05 -3.02941 7.192 7.66716
295 2 -4.23471e-05 -4.0688 6.59655 7.52153
296 2 -2.25226e-05 -2.1494 6.83668 6.94703
297 2 -1.61665e-05 -3.13899 8.31793 7.77097
332 2 2.95311e-05 -1.58127 12.4751 2.73721
345 2 2.56759e-05 1.25333 13.405 0.0591045
346 2 3.84306e-05 1.13042 13.5131 1.95019
352 1 1.54155e-05 -4.26858 11.8584 5.50089
354 2 2.41808e-05 -3.99276 10.9298 6.17315
355 2 5.75803e-06 -3.68361 11.939 4.52907
13 4 -3.92564e-05 1.36206 9.23584 3.17694
15 4 6.73806e-06 5.5239 6.22459 4.10552
91 3 3.42921e-06 7.08559 6.83376 8.53234
16 4 6.48181e-06 7.39142 6.81941 0.436722
23 4 -5.78104e-05 6.64682 8.57325 2.73089
24 4 -2.21228e-05 3.31629 10.9784 5.40817
25 4 -6.19082e-05 6.03206 11.3084 1.80607
28 4 -4.76288e-05 6.09232 10.4593 6.51109
49 1 7.79342e-06 2.79329 6.49619 7.75169
56 3 -1.63325e-05 1.9671 8.99106 1.49049
83 3 -3.5743e-05 5.30776 7.75307 3.56934
86 3 -4.53452e-05 2.42931 10.1304 4.09581
87 3 1.78119e-05 3.18898 12.7066 5.24375
88 3 -1.93156e-05 2.52226 10.5027 6.78276
89 3 -3.20427e-05 5.73398 9.73664 1.74243
90 2 -3.94691e-05 6.49388 11.8165 3.32756
98 3 -2.20757e-05 4.89312 10.484 5.36277
99 3 -1.44183e-05 6.35286 8.87226 6.89336
100 2 2.07117e-05 5.64925 11.3383 7.87434
123 2 4.50307e-06 3.7606 7.09073 7.88849
125 2 -6.11239e-06 1.92572 7.07908 7.18919
137 2 -2.54599e-05 2.23007 7.33706 4.55217
371 3 -2.55027e-05 7.12632 11.6906 0.701419
372 2 2.16114e-05 5.97716 12.8559 4.83342
373 2 -6.06794e-05 4.61676 12.1656 1.55861
255 2 6.25845e-05 10.191 11.0642 0.718304
230 2 -4.42398e-05 9.62964 9.59202 5.61869
229 2 -2.86774e-05 9.46794 11.5117 3.90871
26 4 -9.20886e-07 7.6836 8.16077 7.62327
84 3 1.11742e-06 7.83786 7.52277 1.87772
97 3 -7.06754e-06 7.54343 11.3015 5.77796
70 1 9.56211e-06 9.81087 6.44966 4.14055
85 3 -4.19187e-05 7.63629 9.52533 3.80833
92 3 -1.63958e-05 8.86762 7.63928 6.55022
93 3 2.19831e-05 8.46444 9.21642 8.71926
156 2 4.62344e-05 9.20524 6.86582 3.24445
158 2 3.99173e-06 10.5657 7.20027 4.61188
222 4 1.50522e-05 12.1973 7.34288 0.883288
224 2 6.27773e-05 11.4613 8.47742 1.90261
228 4 -1.30146e-05 8.48778 10.4743 4.78033
180 4 -2.34152e-05 -0.159049 1.3082 11.8845
185 2 -1.21993e-05 1.21416 0.513501 12.5223
186 3 -7.7275e-06 0.114842 1.9295 10.3093
188 1 -6.72647e-06 -0.492064 2.85974 13.0189
196 2 -2.20503e-05 0.283106 3.63789 12.7306
197 2 -3.92218e-05 -0.357415 2.4637 14.0747
198 2 -6.5944e-06 -1.55781 3.18457 12.7954
204 1 -3.98544e-05 0.0158387 1.7418 17.065
213 2 3.37911e-06 0.967316 2.18337 16.4974
214 2 9.19564e-06 -0.761651 2.53291 17.3242
215 2 1.63312e-06 -0.422258 0.816142 16.5701
244 2 -6.35353e-06 1.58174 -2.04849 10.9875
2 4 -1.24346e-06 4.42695 -0.820326 11.006
6 4 -4.57841e-05 4.53031 0.268834 14.1781
11 4 -2.85697e-05 6.73542 2.81066 13.6401
12 4 -4.73302e-05 4.56144 4.46194 11.6573
32 1 5.14055e-05 6.13876 -0.203317 10.7601
38 3 -2.79305e-05 4.03394 -0.378392 12.5195
39 3 -4.85547e-05 4.99438 -0.930272 15.2014
40 1 -1.62367e-05 3.20873 1.34293 14.8701
44 1 1.75059e-05 2.63602 4.33539 16.5372
50 3 -1.34254e-05 5.95806 1.36283 13.9058
52 1 -1.41127e-05 3.46234 3.11 10.8187
53 3 -4.98347e-06 5.88411 3.7122 12.2486
76 3 2.74633e-05 6.63244 3.84893 14.9763
111 2 5.25416e-05 5.83905 0.801506 10.1957
112 2 7.45027e-05 6.56796 -1.03075 10.0744
113 2 1.49983e-05 6.69042 -0.0602333 11.7483
114 2 3.06255e-10 2.83602 2.04418 14.0448
115 2 1.48e-05 3.68862 1.88614 15.76
116 2 -1.80258e-05 2.43524 0.523709 15.179
122 2 -1.21704e-05 3.12521 4.0433 15.5535
129 2 -2.97844e-05 4.1656 2.50585 10.1583
130 2 -1.53232e-05 2.66323 3.65943 10.2256
131 2 -3.08952e-05 3.02911 2.49421 11.674
279 4 3.49106e-05 6.59078 -1.87874 15.5419
281 1 -3.3767e-06 7.80831 -0.711666 16.5785
283 2 -1.95059e-05 6.39366 -3.10053 17.5109
285 2 1.915e-06 8.03142 0.164236 15.8916
287 2 -3.09092e-05 7.24206 -0.410257 17.5124
339 2 -2.24066e-06 3.28874 -0.24369 9.88342
348 1 3.80767e-05 7.45908 -2.28927 13.8245
350 2 2.80724e-05 7.98596 -1.32898 13.5236
134 2 -7.6385e-06 3.13178 4.49874 13.6349
121 2 2.48467e-06 2.45979 3.44547 17.2245
51 1 -1.21705e-05 8.54389 2.59167 13.3577
73 1 1.6004e-05 14.1116 4.22083 13.7709
75 3 1.37744e-05 13.4516 4.26784 16.8584
126 2 -2.21912e-05 8.54129 2.4803 12.2002
127 2 -1.16786e-05 8.82383 1.63702 13.9265
128 2 -2.97743e-05 9.06792 3.5372 13.7392
149 2 -5.67599e-06 10.1029 2.82146 9.52431
160 2 8.69753e-06 13.2736 3.4111 13.7271
169 2 -2.05166e-05 8.26068 4.13774 10.3803
260 4 -6.21022e-06 12.9959 -0.158695 15.3745
261 4 6.82598e-06 12.2603 -1.59574 12.3678
263 3 5.09544e-05 13.3541 -1.10308 16.9278
265 1 1.60135e-05 11.2651 0.56079 15.6873
266 3 7.72586e-06 12.8633 -1.12359 13.7773
268 2 -1.65307e-05 13.4341 -1.67619 11.1402
269 1 -2.15642e-06 11.0884 -0.246841 11.9323
272 2 -1.30234e-06 13.8416 1.97163 15.6695
273 2 -1.26813e-05 10.4979 0.0402096 15.0282
274 2 6.83766e-06 11.5636 1.64125 15.3101
275 2 -5.18656e-06 11.0219 0.519186 16.7971
276 2 -3.60903e-06 11.1792 -0.354926 10.7658
277 2 -4.87368e-05 11.3628 0.776393 12.3499
278 2 2.56418e-05 10.128 -0.752888 12.4064
286 2 1.26646e-05 8.72318 -1.34562 16.7967
316 1 2.26305e-05 14.2836 1.48641 8.94615
317 2 7.61877e-06 14.2864 2.51236 9.49939
370 3 7.16098e-06 10.0423 2.62221 17.451
336 2 1.48883e-05 10.4816 -2.70551 14.7641
264 1 1.68845e-05 14.3808 1.11987 15.0711
270 2 4.62576e-05 14.4825 1.34991 13.9628
318 2 2.59532e-05 14.5516 0.602901 9.60885
161 2 -1.24306e-05 15.1205 3.80757 14.088
187 1 2.47825e-05 17.2568 0.312764 11.8262
193 2 2.65569e-05 16.5576 0.691717 11.0137
194 2 -9.07358e-06 16.7986 0.319497 12.8657
195 2 -4.26529e-05 17.7993 -0.70285 11.5555
258 2 -6.80948e-05 20.0942 -2.93331 17.4739
271 2 5.16606e-05 15.3492 0.770087 15.5519
311 2 -1.67651e-05 15.4912 -1.90016 13.3579
312 1 -9.99765e-06 17.9012 -1.55185 15.2679
313 2 -3.31285e-05 18.9799 -1.73359 14.9588
314 2 -9.48258e-06 17.7039 -1.69448 16.3771
315 2 -1.84096e-05 17.4354 -0.555014 14.8176
310 4 -1.25065e-05 16.7123 -2.67562 14.2779
280 1 1.2721e-05 -4.65792 10.5435 16.4429
74 1 1.61303e-05 -4.86757 6.82261 15.5726
162 2 6.60118e-05 -4.00334 6.63651 16.2843
163 2 6.26696e-05 -5.60577 7.66631 15.9421
164 2 1.70021e-05 -4.51797 6.95905 14.4595
166 2 -1.80572e-05 -7.14981 8.40045 12.8347
238 4 -7.15976e-06 -6.34964 9.92853 10.1411
241 2 7.86863e-06 -5.44109 8.73318 10.9377
242 3 3.31802e-05 -6.19103 11.4066 10.8271
246 2 -4.29508e-05 -9.76205 11.9898 9.13955
252 1 2.17558e-05 -8.94475 10.5401 16.921
253 2 4.38075e-05 -6.8774 7.92617 16.4463
256 2 -3.79474e-05 -8.75648 10.9013 15.8606
282 2 -2.34072e-05 -5.75915 10.3092 16.2949
351 2 3.26411e-05 -4.16048 11.4677 13.1065
257 2 -1.67231e-05 -7.94467 10.398 17.5485
284 2 2.19835e-05 -3.95838 9.72267 16.0902
120 2 -2.74286e-05 1.70735 4.97872 16.3962
140 2 2.72509e-05 0.876133 11.7831 9.56653
231 4 2.80975e-05 -0.875304 9.2573 16.1052
232 1 8.40868e-06 0.0783428 7.88329 17.0696
233 3 3.92244e-05 -1.44722 10.1188 17.3573
235 2 -2.02248e-06 0.674202 7.5549 16.1151
267 2 1.95599e-05 0.905948 10.8542 12.3841
288 4 -3.81957e-05 -2.49504 6.19247 9.11971
289 4 2.49891e-05 -2.4689 8.15897 11.9314
291 1 3.05229e-05 -1.58833 9.82421 11.6357
292 3 -9.24947e-06 -2.54267 7.28672 10.5246
293 1 -9.08713e-06 -1.23606 7.06596 12.9815
294 2 -2.02579e-06 -3.97557 8.28033 12.7355
298 2 2.8283e-05 -0.939444 9.8009 10.7068
299 2 9.70682e-06 -1.03061 10.1103 12.5833
300 2 2.88861e-05 -2.61936 10.4071 11.4934
301 2 -1.50156e-05 -0.480551 6.63529 12.2505
302 2 8.66942e-06 -1.88882 6.27621 13.469
303 2 -2.72774e-05 -0.776101 7.78835 13.7198
333 1 1.46934e-05 0.28876 10.4824 15.174
334 2 7.7385e-07 0.570108 9.69412 14.3659
335 2 3.83155e-06 1.16599 10.8001 15.8183
338 2 2.55258e-05 -2.13568 8.60923 15.1451
349 2 3.86655e-05 -2.61601 10.9213 14.0555
356 1 2.04651e-06 -0.547757 5.72603 8.97382
357 2 3.51716e-05 -0.339674 4.9267 9.77673
358 2 -5.85769e-06 -0.0415817 6.7023 9.18933
360 2 -1.10062e-05 -3.30104 4.72026 9.4027
236 2 2.29938e-05 -0.643803 7.09409 17.4447
174 2 1.36538e-05 2.30624 8.74741 9.85079
8 4 -2.18451e-05 3.90518 5.42939 17.4905
18 4 -4.76789e-05 6.58812 5.50376 9.47938
21 4 -2.11495e-05 6.83076 4.938 16.2561
27 4 -1.7915e-05 4.29958 9.72195 10.4792
29 4 2.75922e-06 7.83348 7.18021 14.5236
30 4 -1.31609e-05 7.02364 9.03422 12.4102
54 1 1.98557e-05 3.61938 5.3599 13.0659
69 3 -1.01202e-05 5.1682 5.734 10.3981
78 3 1.69923e-05 5.5829 4.63496 17.3598
80 1 3.39776e-06 7.98581 5.2366 10.67
94 2 1.10481e-05 4.09893 11.3904 10.72
95 1 6.84372e-06 2.87957 8.62558 10.8681
96 2 -2.56712e-05 4.44201 9.67085 8.7846
101 3 1.47948e-05 6.72292 6.52507 15.7407
105 3 -1.15615e-05 5.65195 9.19396 11.2409
106 3 5.09749e-05 6.70308 7.69279 13.2878
107 3 1.95113e-06 6.91504 10.4675 13.3425
132 2 2.40692e-06 2.85828 6.04311 12.5673
133 2 -1.1609e-05 4.39105 5.9252 13.6836
170 2 -4.9193e-05 7.62804 5.36452 11.7468
175 2 -9.38999e-06 2.45405 9.2962 11.7577
176 2 9.69848e-06 3.13522 7.55472 11.1443
361 1 -1.70217e-05 3.98574 7.18805 16.71
362 2 -3.94468e-06 3.99882 6.9952 15.5865
363 2 -2.83155e-05 4.95406 7.6492 17.0981
364 2 -2.09354e-05 3.05454 7.74756 17.0549
366 1 2.50205e-05 5.02098 10.1045 15.4816
367 2 1.9127e-05 4.35101 9.47938 14.8121
368 2 3.12656e-05 4.44339 10.7635 16.1991
369 2 1.66618e-05 5.83557 9.4992 15.9869
245 2 -1.04788e-05 7.97783 11.7623 10.5408
77 3 1.00672e-05 8.45151 4.66715 16.878
240 3 9.20929e-06 10.9157 9.53827 10.1218
254 2 3.47298e-05 10.7851 6.64391 16.9091
104 3 4.56932e-05 8.49461 9.02819 11.6564
20 4 -2.16656e-05 13.2789 5.18129 15.1954
22 4 2.21291e-05 10.6544 6.38136 13.4526
79 1 5.30744e-05 10.9122 8.29651 13.3965
81 1 3.39946e-07 11.1293 5.69703 11.7447
82 3 -3.52687e-06 11.7645 5.58982 14.7454
102 3 -2.57028e-06 8.91425 6.05072 13.8008
103 3 -5.19915e-06 8.78047 8.35517 15.3056
155 2 1.4316e-05 11.1237 5.27006 9.14123
159 2 -7.50512e-06 14.1642 4.86 12.832
165 2 1.98242e-05 10.0001 8.70543 12.7881
167 2 4.68529e-07 10.974 8.68785 14.4597
168 2 -7.02145e-06 8.76105 6.02009 10.3317
171 2 -2.21473e-05 12.2308 5.40409 11.7572
172 2 1.71333e-05 10.916 6.62252 11.0911
173 2 -3.08588e-05 10.4261 4.82135 11.5392
237 4 -1.644e-05 9.27295 9.80838 10.1156
239 1 6.26188e-06 9.07476 11.6359 10.2149
250 4 9.3375e-06 9.69139 8.68881 16.9279
251 1 1.18939e-05 11.2851 7.65307 17.1717
ITEM: TIMESTEP
100
ITEM: NUMBER OF ATOMS
373
ITEM: BOX BOUNDS xy xz yz pp pp pp
-1.0406099605055658e+01 1.9802574181193734e+01 -1.0650270162644073e+01
-3.1568916839035679e+00 1.4056765910292910e+01 9.9754473878213157e-01
-2.6028196790742264e-01 1.7810281967907379e+01 -3.1576257736106590e+00
ITEM: ATOMS id type q x y z
179 4 2.79582e-05 -0.281645 2.26431 8.76382
183 3 4.81119e-05 0.72488 1.45138 7.81187
189 2 9.57756e-06 -0.217205 3.88774 8.37398
192 2 -7.80385e-06 0.782416 2.34436 5.25059
199 4 -4.29259e-05 -0.165487 4.59054 0.966454
200 4 -1.71231e-05 -1.67197 5.48223 3.83327
202 2 -1.64458e-05 1.40063 5.33375 0.966702
203 1 -8.13819e-05 -0.336112 2.6834 1.04646
205 3 -3.02077e-05 -1.20659 5.26266 2.23852
210 2 -8.56136e-05 -1.4055 2.34842 1.02233
211 2 -8.0258e-05 0.201104 2.43791 2.0251
212 2 -8.2761e-05 0.247724 2.37087 0.0881738
321 1 3.36303e-07 -3.23667 4.48431 4.07097
322 2 4.13554e-06 14.4826 5.12402 4.42949
325 1 1.43292e-05 -0.0773419 4.87565 4.9107
326 2 6.50074e-06 0.442232 5.88789 4.98458
327 2 1.03757e-05 0.453631 4.10656 4.25349
328 2 2.13181e-05 -0.564338 4.51361 5.87544
337 2 2.90935e-05 1.48473 -1.11099 6.81774
359 2 -3.97865e-06 0.05496 5.34598 8.11945
323 2 6.51993e-06 -2.64296 3.86644 5.03707
3 4 -4.09554e-05 4.81914 1.37579 2.48404
4 4 -1.00321e-05 6.98545 -0.857487 6.73852
5 4 -3.06614e-06 6.41213 1.88775 4.88451
7 4 5.59973e-06 3.89831 4.35903 2.21146
9 4 4.73641e-05 5.40255 3.18118 7.38048
10 4 2.90992e-05 3.20299 5.30368 6.42909
33 3 -3.24404e-05 6.31124 1.10566 1.79009
34 2 -6.98258e-05 3.83745 0.125414 2.16457
35 2 4.29179e-05 5.87684 -0.801945 8.00833
36 3 -3.23808e-05 5.02559 1.40872 4.20598
37 3 -7.60537e-06 7.08578 0.584126 5.83153
41 3 -2.26633e-05 4.13431 2.74781 1.84775
42 1 1.1058e-05 3.3395 5.25149 0.592805
43 2 6.14941e-06 2.67007 4.51976 3.35741
45 2 6.93833e-05 5.17214 1.64296 7.90703
46 3 3.59547e-05 6.08363 3.272 5.88365
47 2 3.26383e-05 1.73101 4.75756 5.60878
48 3 5.22932e-05 3.95763 3.91889 7.24995
62 3 2.54238e-05 5.31988 5.02319 2.7003
63 3 2.94967e-05 4.2716 5.99417 5.32972
64 2 1.85636e-05 5.91346 6.01259 0.578149
68 3 3.40435e-05 6.38582 4.06756 8.45654
71 3 1.90144e-05 7.00205 6.02864 4.76538
117 2 -4.63226e-06 2.57747 4.66142 -0.038152
118 2 2.42944e-05 4.27008 5.52694 -0.00026079
119 2 9.04457e-06 2.84082 6.15411 1.13954
155 2 -3.67843e-06 10.7251 6.0394 8.53642
178 4 2.82804e-05 1.76848 0.590546 6.74923
181 1 -2.41097e-05 1.54142 1.48653 5.15686
190 2 -6.05563e-05 1.15071 0.479656 4.53873
191 2 -2.41817e-05 2.68821 1.81212 5.00348
320 2 5.85956e-05 3.43568 0.672018 7.22661
17 4 2.43159e-05 10.2945 3.8958 7.08767
19 4 8.09305e-06 8.46177 6.12219 5.42047
61 2 -1.06245e-05 7.48604 2.35471 3.73343
65 1 1.9982e-05 9.55038 2.81765 8.53403
66 1 3.92685e-05 11.1465 2.82163 5.67517
67 1 8.59969e-08 11.436 5.32269 7.94909
72 3 2.20876e-05 9.02071 4.79408 6.29599
138 2 4.97089e-05 10.7107 -0.639901 8.13922
258 2 -8.43213e-05 0.643315 0.307109 0.190301
147 2 2.88301e-05 10.124 1.8552 8.46951
148 2 2.66134e-05 8.45427 2.71085 8.36467
150 2 4.2488e-05 11.1307 1.76065 6.0242
151 2 4.09921e-05 12.1859 3.24706 5.68088
152 2 3.57594e-05 10.6263 2.97762 4.65715
153 2 -1.72081e-06 11.9326 5.76506 7.02291
154 2 7.68432e-06 12.1267 4.7084 8.60388
157 2 3.22102e-05 10.0481 5.43743 3.81808
223 1 2.44819e-05 12.7461 5.9393 0.836619
225 2 1.80183e-05 11.8965 5.32678 1.51044
227 2 1.14504e-05 13.3793 5.27884 0.0535296
259 4 -1.81545e-05 11.954 1.79226 0.688915
262 2 -7.76632e-06 10.4454 1.64942 1.47504
319 2 3.92349e-05 13.0677 1.18515 8.39979
329 1 -3.32077e-05 -2.01515 13.3986 2.60807
330 2 -2.44102e-05 8.602 0.200532 3.36343
331 2 -2.76663e-05 -1.0731 13.4159 1.92866
342 2 5.74103e-06 12.8311 3.32686 2.1168
344 1 -2.78517e-05 12.3334 -0.0528843 0.916005
365 2 -3.43773e-06 8.32843 -1.19443 7.73477
347 2 -4.51589e-05 13.5367 0.160405 0.903649
182 3 3.13168e-05 16.6338 1.73302 8.67041
177 4 2.69219e-05 15.2635 2.04572 7.91074
184 2 7.9009e-06 15.168 3.65883 7.38941
304 4 -1.05393e-05 15.1656 -0.0755734 5.05059
305 1 -2.60929e-05 14.5936 0.835105 3.55806
306 3 2.21363e-05 15.1716 0.975238 6.33351
307 2 -2.43397e-05 13.9764 0.102183 2.92217
308 2 -5.86433e-05 15.6469 1.08383 3.13721
309 2 -6.73102e-07 13.9875 1.77314 3.9368
324 2 -5.33003e-06 15.0954 3.80702 3.19532
340 1 -1.30491e-05 13.3754 2.99341 1.09483
341 2 -3.53487e-05 14.3359 2.47531 1.32638
343 2 -3.70865e-06 13.5989 3.94152 0.428045
109 2 -9.99204e-07 -5.00501 11.8456 0.472926
110 2 -2.72017e-05 -5.18234 12.3541 2.27675
219 2 -7.4397e-06 -5.11834 9.01769 3.64978
221 2 7.06977e-06 -4.7721 7.34873 4.46379
243 1 8.47233e-06 -5.68563 10.1086 8.52916
247 2 -1.98826e-05 -5.01711 9.16503 8.48452
226 2 1.30371e-05 -5.03505 7.30874 1.51631
249 2 4.07928e-06 -6.46073 10.1313 7.67549
353 2 -4.65557e-05 -4.96912 11.4401 5.89452
248 2 1.55739e-05 -5.06514 11.069 8.57018
1 4 -3.37482e-05 -3.32581 13.6019 1.29087
14 4 1.90849e-05 0.710102 11.1802 7.22034
31 1 -1.87062e-05 -4.50527 12.0797 1.43066
55 1 -2.88232e-05 1.1959 7.60296 3.57289
57 2 -5.89159e-05 0.0377832 10.1988 2.80716
58 1 5.85226e-05 11.408 -1.48943 8.56062
59 1 -1.33279e-05 -0.174484 12.0705 5.66072
60 1 -2.24353e-05 -0.170706 9.46848 7.7558
108 2 -2.76369e-05 -3.64022 11.3155 1.74933
135 2 -3.43556e-05 0.757231 7.03041 2.68787
136 2 -3.86225e-05 0.38104 7.97503 4.39641
141 2 -1.06116e-05 -1.01558 12.7104 6.12247
142 2 -4.28944e-05 -0.582686 11.2582 4.95231
143 2 1.33021e-05 0.605301 12.6782 5.18544
144 2 -4.42643e-05 -1.24508 9.49723 7.48193
228 4 -8.82824e-05 8.17724 10.4176 4.74872
146 2 -1.7256e-05 0.386296 8.55706 7.30172
201 4 -5.42822e-05 -2.68103 8.72934 4.04886
206 1 -6.34268e-05 -2.30238 8.94928 2.15989
207 3 -4.06008e-05 -1.90696 7.18595 4.30367
208 1 -1.5668e-05 -4.55074 8.44203 4.41072
209 2 -7.97601e-05 -1.75972 9.9341 4.855
216 2 -6.49899e-05 -1.97852 8.04945 1.62204
217 2 -7.76412e-05 -1.61804 9.8337 1.96721
218 2 -3.8926e-05 -3.4394 9.21352 1.97258
220 2 -3.59565e-05 -4.41245 8.97979 5.47034
370 3 -4.81709e-06 8.49618 5.81601 -0.195607
290 1 -3.38316e-05 -2.60259 6.99338 7.65236
295 2 -2.34233e-05 -3.44387 6.29048 7.28705
296 2 -3.01871e-05 -1.51379 6.77578 7.18507
297 2 -5.02715e-05 -2.88947 8.09562 7.68406
332 2 -4.59521e-05 -2.20889 12.3406 3.09765
345 2 -3.30879e-05 1.34132 13.3836 0.0387257
346 2 -1.09483e-05 1.32053 13.593 1.92164
352 1 -5.75359e-05 -4.02044 11.9328 5.45788
354 2 -7.40466e-05 -2.94551 11.3018 5.69515
355 2 -5.72122e-05 -4.1449 12.2657 4.37451
13 4 -3.65074e-05 1.47116 9.30552 2.87449
15 4 1.50498e-05 5.44229 6.23254 3.99268
91 3 -1.11289e-05 7.05119 6.92519 8.47914
16 4 7.24279e-06 7.35381 6.88466 0.237294
23 4 -3.77434e-05 6.47421 8.53939 2.4959
24 4 -6.66632e-06 3.23002 10.9924 5.30613
25 4 -7.85902e-05 5.9404 11.205 1.51926
28 4 -3.52365e-05 5.91169 10.6062 6.51496
49 1 8.51844e-06 2.9763 6.54047 7.80404
56 3 -2.51087e-05 2.07554 9.00305 1.23854
83 3 -6.96927e-06 5.16751 7.75303 3.36024
86 3 -2.16116e-05 2.63995 10.1598 3.85094
87 3 1.02323e-05 3.35049 12.6797 5.15053
88 3 1.9477e-05 2.28359 10.6267 6.62254
89 3 -4.32891e-05 5.8209 9.57155 1.28374
90 2 -0.00010084 5.77567 11.5923 3.17385
98 3 -2.95589e-05 4.72391 10.3661 5.49497
99 3 -3.60973e-05 6.2344 8.9781 6.95868
100 2 1.96694e-05 5.40902 11.535 7.87492
123 2 1.54988e-06 3.56537 7.43393 7.27845
125 2 7.60225e-07 1.83639 6.63213 7.74635
137 2 -9.64374e-06 2.21063 7.22599 3.95625
371 3 -7.54013e-05 7.1907 11.8437 0.7735
372 2 -5.96477e-05 16.749 -0.732686 4.87439
373 2 -7.76544e-05 4.52986 11.8584 0.974701
255 2 1.97483e-05 9.7954 10.4496 0.215667
230 2 -6.74303e-05 9.02582 9.28036 5.80998
229 2 -0.000105564 9.44433 11.198 3.97788
26 4 -2.64995e-05 7.53961 8.26537 7.61788
84 3 -5.0366e-06 7.87109 7.50546 1.64202
97 3 -7.19322e-05 7.29531 11.5124 5.62526
70 1 1.67573e-05 9.54973 6.47519 3.97064
85 3 -8.48637e-05 7.44728 9.60133 3.58094
92 3 -3.14132e-05 8.71304 7.89416 6.43003
93 3 1.66497e-05 8.2154 9.32314 8.7303
156 2 1.57433e-05 8.9206 6.91383 3.05581
158 2 7.68718e-06 10.2108 7.31932 4.54117
222 4 2.61196e-05 11.8968 7.36716 0.483219
224 2 3.30505e-05 10.7108 8.20601 1.40742
180 4 3.34277e-06 0.120945 1.42765 11.9714
185 2 3.7308e-06 1.65012 0.782351 12.3835
186 3 1.73028e-05 0.155372 2.01652 10.2821
188 1 -2.21986e-05 -0.353164 2.9523 13.0632
196 2 -1.85944e-05 0.226202 3.76492 12.5761
197 2 -2.86422e-05 -0.144326 2.85131 14.1693
198 2 -1.22963e-05 -1.49147 3.08396 12.8603
204 1 -3.95282e-05 0.160702 2.04514 17.3611
213 2 -3.42025e-05 0.907162 2.35191 16.5472
214 2 -3.43018e-05 -0.618397 2.86819 17.6051
215 2 -4.55548e-05 -0.339925 0.886315 17.179
244 2 0.000111176 1.29168 -1.9052 11.076
2 4 8.35802e-05 4.19017 -0.778328 10.9743
6 4 9.4319e-06 4.34754 0.415573 14.1509
11 4 8.72699e-06 6.42515 3.01204 13.7989
12 4 2.88803e-05 4.36826 4.59734 11.648
32 1 6.55328e-05 5.97149 -0.234903 10.751
38 3 4.92036e-05 3.87927 -0.341012 12.5162
39 3 9.51415e-07 4.79433 -0.715364 15.228
40 1 -2.81451e-05 2.84248 1.24868 14.8412
44 1 -6.86008e-06 2.1624 4.63729 16.7423
50 3 2.07781e-06 5.78267 1.4803 14.0252
52 1 9.3518e-06 3.12924 3.39242 10.7675
53 3 1.67395e-05 5.69933 3.65863 12.5299
76 3 3.66488e-05 6.2956 3.92208 15.2692
111 2 7.5889e-05 5.75259 0.676288 10.0321
112 2 6.1811e-05 6.38624 -1.14826 10.2197
113 2 4.00454e-05 6.47547 0.0201341 11.7374
114 2 -2.4424e-05 2.32641 1.51778 13.8562
115 2 -8.78956e-06 3.28134 2.10905 15.4045
116 2 -2.92923e-05 2.2791 0.45994 15.5011
122 2 -1.47929e-06 2.55171 3.84325 16.0652
129 2 2.82915e-05 3.79085 2.4415 10.6186
130 2 9.73673e-06 2.76007 3.89276 9.80546
131 2 -8.45204e-06 2.34838 3.3063 11.5949
279 4 6.18292e-07 6.29477 -1.76274 15.785
281 1 1.14261e-05 7.71387 -0.677679 16.8415
283 2 -2.04754e-05 5.70546 -3.05794 17.617
285 2 7.81519e-06 8.05102 0.138677 16.1353
287 2 3.0558e-05 7.14351 -0.308756 17.7032
339 2 0.00010608 3.06224 -0.11653 9.91503
348 1 -8.85029e-06 7.47821 -2.09627 14.3018
350 2 -1.82787e-05 8.51941 -1.76839 14.6573
134 2 7.23468e-05 3.90792 5.05894 14.0703
121 2 -3.33797e-05 1.42005 4.2028 17.5497
51 1 -2.9097e-05 8.30357 2.83464 13.5876
73 1 2.89164e-06 13.82 4.28961 14.0641
75 3 2.66183e-05 12.9162 4.44024 16.9642
126 2 -2.47696e-05 8.27903 2.56632 12.4584
127 2 -4.16671e-05 8.59471 1.97289 14.2989
128 2 -1.6591e-05 8.8139 3.84503 13.8059
149 2 9.22334e-06 9.80743 3.46559 9.49915
160 2 -3.19967e-06 13.2674 3.28787 14.2051
169 2 4.89522e-06 7.9041 4.1862 10.6163
260 4 -3.06766e-05 12.6194 -0.119205 15.5954
261 4 2.32146e-05 11.9388 -1.5352 12.5687
263 3 -3.21751e-05 12.8232 -0.902178 17.0206
265 1 -5.43569e-05 10.9221 0.781735 15.7087
266 3 -1.22259e-05 12.4545 -1.18733 14.0356
268 2 5.92861e-05 12.6755 -0.613286 11.1674
269 1 2.32265e-05 11.0071 -0.116219 11.7873
272 2 -9.54533e-06 13.367 2.07301 15.574
273 2 -5.58886e-05 10.2673 0.64382 14.8
274 2 -4.28573e-05 11.247 1.88067 15.8502
275 2 -4.65715e-05 10.5209 0.310903 16.6602
276 2 4.52994e-05 11.1845 0.0117856 10.6598
277 2 -2.63646e-06 11.0885 0.820332 12.4228
278 2 3.32995e-06 9.89978 -0.887402 12.1018
286 2 -2.86576e-07 8.51212 -1.4345 17.1014
316 1 3.11588e-05 13.8524 1.65714 9.07208
317 2 1.66539e-05 13.5961 2.71229 9.46646
251 1 2.80691e-05 10.7298 7.69771 17.2249
336 2 -2.89134e-05 10.1872 -2.50387 14.9601
264 1 -1.86822e-05 14.0373 1.18983 15.3083
270 2 -1.05317e-05 14.3866 1.22325 14.2426
318 2 3.68656e-05 14.3417 0.95264 9.8523
161 2 -3.91798e-07 -3.62539 4.25066 14.3833
187 1 2.23079e-05 17.2102 0.175793 12.0163
193 2 2.25439e-05 16.4145 0.587718 11.323
194 2 7.49912e-06 17.0178 0.382795 13.1792
195 2 4.13343e-05 17.5709 -0.866212 11.7697
145 2 1.19625e-05 0.0302047 9.61719 8.85429
271 2 -1.43336e-05 14.8684 1.02733 16.0508
311 2 -8.88903e-06 15.2889 -1.24491 13.8031
312 1 -4.06218e-05 17.6344 -1.69415 15.7359
313 2 -2.79272e-05 18.6336 -2.11552 15.4272
314 2 -6.37527e-05 17.3559 -1.80592 16.8083
315 2 -2.81635e-05 17.3435 -0.575412 15.2197
310 4 -1.589e-05 16.3053 -2.46766 14.5652
280 1 -1.17346e-05 -5.06552 10.6559 16.4952
74 1 1.06399e-05 -4.77734 6.86195 16.078
162 2 1.12202e-06 -4.06608 6.59464 16.9185
163 2 1.42042e-05 -5.57583 7.68264 16.3699
164 2 -2.99094e-06 -4.22609 7.08303 15.0661
166 2 6.33941e-05 -7.04211 8.3965 12.9241
238 4 4.88746e-05 -6.33041 9.93022 10.24
241 2 1.94402e-05 -5.45567 8.95682 11.3311
242 3 8.6948e-05 -6.31752 11.5627 10.7361
246 2 0.000109183 -9.19747 12.0841 9.12893
252 1 -4.64888e-05 -8.72247 10.7143 17.2598
253 2 3.32692e-05 -6.85479 8.11462 16.8208
256 2 -3.0606e-05 1.56949 -2.73415 16.3579
282 2 -8.07023e-07 -6.13265 10.557 16.132
351 2 5.17156e-06 7.11962 -1.46405 13.4018
257 2 -2.56904e-05 -7.5687 10.3919 17.1729
284 2 -1.19925e-05 -4.4054 9.75108 16.2086
120 2 -9.39748e-06 1.70676 5.50973 16.1629
140 2 5.87172e-05 0.293199 11.9524 9.40261
231 4 -4.10117e-05 -1.14661 9.64094 16.4118
232 1 -7.39986e-05 -0.356744 8.0091 17.1047
233 3 -4.08723e-05 -1.62479 10.5061 17.6741
235 2 -5.24175e-05 -0.187458 7.59618 15.9873
267 2 5.04858e-05 1.00925 10.9225 12.2533
288 4 -9.99447e-06 -2.17762 6.07077 9.25214
289 4 9.78433e-06 -2.70543 8.20503 11.976
291 1 1.60398e-05 -1.98018 9.99561 11.6357
292 3 4.7307e-06 -2.47009 7.2437 10.6216
293 1 2.02095e-05 -1.68275 7.23308 13.2237
294 2 8.87994e-06 -4.27297 8.06445 12.6932
298 2 1.95316e-05 -1.2061 9.93291 10.7793
299 2 8.98765e-06 -1.57707 10.3824 12.6257
300 2 7.53549e-06 -3.06253 10.3632 11.3246
301 2 1.7564e-05 -1.17638 6.27426 12.9094
302 2 4.12835e-06 -2.24552 7.11036 14.2531
303 2 3.45757e-05 -0.883339 8.11103 13.3456
333 1 -2.84781e-05 0.115832 10.6772 15.4377
334 2 -3.02684e-06 0.452184 9.90873 14.6631
335 2 -3.2054e-05 0.958001 11.0204 16.1205
338 2 -2.51443e-05 -2.4919 9.29032 15.4475
349 2 -4.55087e-06 -3.26947 10.8622 14.1355
356 1 -4.82176e-06 -0.255781 5.69801 9.15582
357 2 -8.06697e-06 -0.446761 4.79857 9.94397
358 2 6.80077e-06 0.43976 6.48074 9.6073
360 2 2.53744e-06 -3.21993 4.70478 9.33234
236 2 -7.98744e-05 -1.11314 7.43277 17.7149