LAMMPS (2 Aug 2023 - Update 2)
  using 1 OpenMP thread(s) per MPI task
Reading data file ...
  triclinic box = (0 0 0) to (16.8189 12.842 16.0755) with tilt (-8.3798 1.195 0.4312)
WARNING: Triclinic box skew is large. LAMMPS will run inefficiently. (src/domain.cpp:220)
  2 by 1 by 2 MPI processor grid
  reading atoms ...
  274 atoms
Finding 1-2 1-3 1-4 neighbors ...
  special bond factors lj:    0        0        0       
  special bond factors coul:  0        0        0       
     0 = max # of 1-2 neighbors
     0 = max # of 1-3 neighbors
     0 = max # of 1-4 neighbors
     1 = max # of special neighbors
  special bonds CPU = 0.000 seconds
  read_data CPU = 0.007 seconds
WARNING: Van der Waals parameters for element SI indicate inner wall+shielding, but earlier atoms indicate a different van der Waals method. This may cause division-by-zero errors. Keeping van der Waals setting for earlier atoms. (src/REAXFF/reaxff_ffield.cpp:251)
*****Minimization starts.*****

CITE-CITE-CITE-CITE-CITE-CITE-CITE-CITE-CITE-CITE-CITE-CITE-CITE

Your simulation uses code contributions which should be cited:
- pair reaxff command: doi:10.1016/j.parco.2011.08.005
- fix qeq/reaxff command: doi:10.1016/j.parco.2011.08.005
The log file lists these citations in BibTeX format.

CITE-CITE-CITE-CITE-CITE-CITE-CITE-CITE-CITE-CITE-CITE-CITE-CITE

Switching to 'neigh_modify every 1 delay 0 check yes' setting during minimization
WARNING: Fix qeq/reaxff group is not charge neutral, net charge = -8.2 (src/REAXFF/fix_qeq_reaxff.cpp:392)
Neighbor list info ...
  update: every = 1 steps, delay = 0 steps, check = yes
  max neighbors/atom: 2000, page size: 100000
  master list distance cutoff = 12
  ghost atom cutoff = 12
  binsize = 6, bins = 5 3 3
  2 neighbor lists, perpetual/occasional/extra = 2 0 0
  (1) pair reaxff, perpetual
      attributes: half, newton off, ghost
      pair build: half/bin/newtoff/ghost
      stencil: full/ghost/bin/3d
      bin: standard
  (2) fix qeq/reaxff, perpetual, copy from (1)
      attributes: half, newton off
      pair build: copy
      stencil: none
      bin: none
Setting up cg style minimization ...
  Unit style    : real
  Current step  : 0
Per MPI rank memory allocation (min/avg/max) = 134.4 | 135.1 | 135.8 Mbytes
   Step          Temp          Press         Density         Volume         PotEng         TotEng    
         0   0              123127.02      1.4594291      3472.1201     -22962.516     -22962.516    
        51   0             -11567.942      1.4594291      3472.1201     -26428.49      -26428.49     
Loop time of 4.19854 on 4 procs for 51 steps with 274 atoms

96.6% CPU use with 4 MPI tasks x 1 OpenMP threads

Minimization stats:
  Stopping criterion = energy tolerance
  Energy initial, next-to-last, final = 
     -22962.5161588617  -26428.4890638349   -26428.490224027
  Force two-norm initial, final = 3932.9092 62.920926
  Force max component initial, final = 549.8429 19.845077
  Final line search alpha, max atom move = 0.0005168385 0.0102567
  Iterations, force evaluations = 51 124

MPI task timing breakdown:
Section |  min time  |  avg time  |  max time  |%varavg| %total
---------------------------------------------------------------
Pair    | 2.764      | 2.8031     | 2.8466     |   1.8 | 66.76
Bond    | 0.00026287 | 0.00027037 | 0.00027956 |   0.0 |  0.01
Neigh   | 0.018755   | 0.021803   | 0.027683   |   2.4 |  0.52
Comm    | 0.42685    | 0.47043    | 0.50937    |   4.3 | 11.20
Output  | 0.010094   | 0.01177    | 0.012812   |   0.9 |  0.28
Modify  | 0.87803    | 0.88405    | 0.88715    |   0.4 | 21.06
Other   |            | 0.007145   |            |       |  0.17

Nlocal:           68.5 ave          73 max          63 min
Histogram: 1 0 0 0 0 0 2 0 0 1
Nghost:           3408 ave        3441 max        3377 min
Histogram: 1 1 0 0 0 0 0 1 0 1
Neighs:          36965 ave       39279 max       34207 min
Histogram: 1 0 0 0 0 2 0 0 0 1

Total # of neighbors = 147860
Ave neighs/atom = 539.63504
Ave special neighs/atom = 0
Neighbor list builds = 1
Dangerous builds = 0
System init for write_data ...
##### Equilibration starts.##### 
WARNING: Compute rdf cutoff less than neighbor cutoff - forcing a needless neighbor list build (src/compute_rdf.cpp:179)
Neighbor list info ...
  update: every = 10 steps, delay = 0 steps, check = yes
  max neighbors/atom: 2000, page size: 100000
  master list distance cutoff = 12
  ghost atom cutoff = 12
  binsize = 6, bins = 5 3 3
  3 neighbor lists, perpetual/occasional/extra = 2 1 0
  (1) pair reaxff, perpetual
      attributes: half, newton off, ghost
      pair build: half/bin/newtoff/ghost
      stencil: full/ghost/bin/3d
      bin: standard
  (2) compute rdf, occasional
      attributes: half, newton on, cut 7
      pair build: half/bin/newton/tri
      stencil: half/bin/3d/tri
      bin: standard
  (3) fix qeq/reaxff, perpetual, copy from (1)
      attributes: half, newton off
      pair build: copy
      stencil: none
      bin: none
Setting up Verlet run ...
  Unit style    : real
  Current step  : 0
  Time step     : 0.5
Per MPI rank memory allocation (min/avg/max) = 139.3 | 139.9 | 140.7 Mbytes
   Step          Temp          Press          PotEng         TotEng    
         0   300           -8354.2407     -26428.49      -26184.362    
       100   259.95436     -7393.8017     -26364.917     -26153.376    
Loop time of 4.09864 on 4 procs for 100 steps with 274 atoms

Performance: 1.054 ns/day, 22.770 hours/ns, 24.398 timesteps/s, 6.685 katom-step/s
98.0% CPU use with 4 MPI tasks x 1 OpenMP threads

MPI task timing breakdown:
Section |  min time  |  avg time  |  max time  |%varavg| %total
---------------------------------------------------------------
Pair    | 3.2987     | 3.3747     | 3.4347     |   2.9 | 82.34
Bond    | 0.00028237 | 0.00029328 | 0.00030115 |   0.0 |  0.01
Neigh   | 0.053895   | 0.054857   | 0.056128   |   0.3 |  1.34
Comm    | 0.22133    | 0.28118    | 0.3571     |  10.1 |  6.86
Output  | 0.0010067  | 0.0013176  | 0.0016317  |   0.8 |  0.03
Modify  | 0.38168    | 0.38319    | 0.38454    |   0.2 |  9.35
Other   |            | 0.003095   |            |       |  0.08

Nlocal:           68.5 ave          76 max          60 min
Histogram: 1 0 0 0 1 0 1 0 0 1
Nghost:         3398.5 ave        3416 max        3382 min
Histogram: 1 0 0 1 0 1 0 0 0 1
Neighs:          36993 ave       40733 max       32700 min
Histogram: 1 0 0 0 1 0 0 1 0 1

Total # of neighbors = 147972
Ave neighs/atom = 540.0438
Ave special neighs/atom = 0
Neighbor list builds = 2
Dangerous builds = 0
System init for write_data ...
WARNING: Compute rdf cutoff less than neighbor cutoff - forcing a needless neighbor list build (src/compute_rdf.cpp:179)
Total wall time: 0:00:08
