ITEM: TIMESTEP
0
ITEM: NUMBER OF ATOMS
371
ITEM: BOX BOUNDS xy xz yz pp pp pp
4.2379536921030159e-01 2.4073312164164182e+01 6.9047983350814297e+00
-7.6100078109605018e-01 1.3049914374414435e+01 2.7370919829300294e-01
2.4470688386626271e-01 1.8395593116133643e+01 -5.2598640668172791e-01
ITEM: ATOMS id type x y z
130 2 3.8356 0.839633 3.43068
93 2 11.4852 5.56677 6.92216
131 2 2.54151 1.17346 4.89043
202 1 2.75356 1.03806 3.70416
138 2 3.29831 3.77656 5.5202
103 2 3.02132 0.711088 6.60478
32 4 4.13913 4.42315 2.27844
333 2 5.61328 0.406163 6.016
335 2 5.97706 2.13109 5.28834
137 2 4.89336 3.23053 4.88577
245 3 5.24759 3.43014 1.74337
204 1 4.76301 4.20906 4.39353
208 1 5.196 1.44346 5.78082
136 2 5.78715 4.71128 4.39476
74 2 4.26455 1.31343 5.05273
282 3 10.7038 4.16905 0.606032
132 2 7.42456 2.27596 2.98156
30 4 6.75787 2.91299 1.55718
159 2 7.57639 1.50793 4.59099
203 1 7.7229 4.46656 1.4968
134 2 6.96899 5.26107 1.76505
183 2 8.09386 5.26171 4.0952
102 2 2.2773 2.51443 6.30964
341 2 3.11092 3.90634 3.68188
133 2 8.38954 4.16136 2.46336
303 3 6.84811 6.00493 6.20471
158 2 8.7614 1.47588 7.39615
76 2 8.69111 0.0987795 8.98624
157 2 8.14678 3.41867 4.30844
211 1 8.49387 2.34109 4.68208
59 4 8.85189 2.99203 6.47268
182 2 9.59782 5.42221 5.10117
184 2 9.64119 5.59384 3.25937
220 1 9.03887 5.83517 4.17055
258 3 4.11556 5.99577 2.01835
192 1 2.10969 1.3945 6.88804
104 2 2.15304 1.57831 8.05808
250 3 4.12814 5.674 7.32831
246 3 3.90393 3.53765 8.95111
149 2 4.898 1.96046 6.75055
237 3 5.56084 1.35089 8.92397
33 4 4.78694 4.89313 8.56774
6 4 6.04223 -0.123168 8.66181
171 2 8.33233 4.39701 7.4824
170 2 7.5685 2.15643 8.60644
81 2 6.3886 4.31516 8.05402
216 1 7.41386 2.76361 7.67677
101 2 7.13197 0.0920326 7.08647
172 2 6.52557 2.3122 6.99777
287 3 10.6289 5.06741 6.62549
243 3 7.14959 1.99519 0.257816
3 2 2.16905 1.90123 3.08476
85 2 4.94229 6.12894 4.61818
56 4 9.39421 5.05801 0.309967
35 4 3.64747 5.55898 5.69885
10 4 1.89944 0.342713 10.9717
238 3 3.15859 1.27741 10.3613
224 3 2.09796 -0.291839 12.432
26 4 4.36003 2.30747 9.86208
241 3 4.92247 3.00869 11.2622
285 3 4.98645 5.86266 9.74135
343 1 4.78944 5.80819 17.0847
160 2 8.59644 3.09449 11.1931
161 2 9.05691 4.88325 10.8123
212 1 9.46691 3.93976 11.3165
94 2 11.0305 5.07593 11.2191
127 2 5.68496 -0.126328 11.8473
78 2 2.2397 1.64865 16.2384
251 3 2.79981 2.45999 16.0175
340 2 4.30585 4.26092 16.2251
28 4 4.22597 1.56569 15.1847
252 3 4.55028 2.35653 13.8913
36 4 5.47531 5.28824 15.4028
29 4 5.56218 2.68565 12.6015
240 3 5.49816 1.44907 16.2399
239 3 3.7442 0.0660827 14.6509
342 2 4.70135 5.71672 18.1564
319 2 7.66199 -0.176557 14.4397
165 2 5.91977 4.99406 12.7119
242 3 6.69552 1.13766 12.2016
135 2 8.20551 3.67369 17.819
213 1 6.67481 4.08406 13.0239
163 2 7.71966 4.06872 12.377
164 2 6.75851 3.90257 14.6943
24 4 7.07612 1.20487 16.6074
278 3 8.0477 2.15821 15.7612
27 4 8.01676 0.526459 12.8587
339 1 7.52409 -0.47793 16.0297
173 2 7.4435 5.71885 13.8701
367 2 9.72287 5.71708 16.8271
162 2 9.84739 4.04578 12.3885
53 4 9.36288 2.182 14.7537
289 3 9.95806 3.94707 14.7039
276 3 9.09815 1.76363 13.2059
168 2 6.57462 5.90697 16.7369
271 3 9.62892 1.31129 9.69523
60 4 11.3143 4.57427 14.5436
186 2 5.91798 8.13994 5.87061
122 2 8.61317 9.21437 3.39799
123 2 7.8234 8.29899 4.99815
199 1 8.68003 9.04783 4.5518
365 2 6.4471 8.56086 1.40693
20 4 12.5253 8.02975 8.97813
148 2 14.5584 11.5035 6.87702
191 1 14.9462 12.5845 8.36668
1 4 8.81288 12.9012 2.86156
4 3 9.74758 12.2967 1.75368
370 3 8.72672 11.8317 4.09181
313 1 10.8604 9.80651 1.34761
309 4 10.8149 11.5217 0.593572
317 2 10.3231 10.103 2.37092
331 2 11.1293 11.6948 5.83123
312 2 10.4818 8.85686 0.803874
334 1 10.6995 10.7525 6.15828
332 2 11.4036 9.8302 5.87333
105 2 11.3928 7.90633 2.84985
98 2 8.82509 6.98848 4.27491
19 4 8.73431 10.7282 5.29968
124 2 9.72857 8.71587 4.93337
361 2 9.01703 6.63421 1.39027
106 2 10.6753 6.73022 4.81761
310 2 12.0653 9.76696 1.46196
193 1 12.4228 7.48223 2.74248
146 2 12.264 8.90783 4.08054
358 2 13.6606 11.0124 0.697625
215 1 6.751 8.14774 0.382186
201 1 14.3086 11.954 0.795086
23 4 14.8804 12.1575 2.70427
337 2 13.3703 12.9695 2.00784
311 2 12.3956 12.2402 0.730916
221 1 6.47227 7.065 5.80307
301 3 7.61439 10.7437 6.47951
64 4 6.60833 9.25555 8.60728
185 2 7.05555 8.21981 7.23882
235 3 11.7629 12.1245 8.42383
21 4 10.975 10.7799 7.94132
234 3 11.7934 9.35131 8.41669
112 2 9.31963 10.8656 8.87424
323 2 8.42551 9.11402 8.79718
259 3 14.3003 10.8284 3.71194
147 2 13.6911 9.55138 6.37968
88 2 14.6687 10.8698 9.22455
169 2 7.92418 7.83816 0.280679
256 3 4.78464 6.31822 14.338
58 4 5.47807 7.13934 10.6751
297 3 5.7845 8.33993 9.68691
324 2 7.56776 10.1549 10.7667
325 1 7.69296 10.6252 9.63988
292 3 6.9515 6.72145 11.425
110 2 8.57424 12.3261 9.78887
75 2 10.9043 12.057 10.383
22 4 11.905 11.6086 11.6985
232 3 11.631 7.22545 10.003
291 3 9.64572 7.50172 11.8958
15 4 11.0543 6.8383 11.4304
264 3 12.9922 10.5737 11.2717
117 2 13.0146 8.24331 12.2962
100 2 14.0362 12.6143 10.0569
366 2 11.4182 5.99031 16.8609
97 2 6.1996 6.89474 18.027
128 2 14.6048 11.9917 17.9199
268 3 15.5287 12.5481 12.0513
177 2 6.53575 9.49989 11.9494
61 4 8.00558 7.52753 12.4
218 1 7.42924 9.36855 12.6498
174 2 7.25722 7.39303 14.773
176 2 7.19054 9.37055 13.8109
63 4 6.93215 9.25853 17.4569
306 3 5.8641 9.09724 16.1827
217 1 7.99175 6.68232 14.2133
364 2 11.144 6.67766 18.3202
197 1 12.2147 7.56541 12.7064
8 4 9.93616 12.2396 13.8144
126 2 11.0832 8.52956 15.6395
236 3 10.9846 11.1574 12.9755
315 3 10.5272 10.7972 17.1788
314 4 9.47144 10.2512 16.1655
96 2 11.509 8.11922 13.5111
316 3 8.72554 11.5665 14.8561
200 1 10.2197 8.91178 15.0326
318 2 10.5783 9.56569 14.1625
175 2 8.91957 6.46633 14.7833
178 2 8.25135 10.0971 12.4475
362 1 10.0536 6.66029 18.1253
125 2 9.41808 8.00158 14.7176
363 2 9.67089 7.74124 17.9481
295 3 8.38459 9.44393 16.9627
116 2 11.1761 6.30861 14.4856
336 2 13.5026 12.1404 16.2472
322 2 6.93416 11.4099 9.359
338 2 15.375 12.5233 16.5367
43 4 14.2237 9.89749 10.5662
47 4 9.82095 1.35946 3.85901
68 2 17.0022 0.358962 7.40475
280 3 10.5419 2.48359 2.81193
273 3 10.7867 0.886521 5.12756
55 4 11.4682 3.5133 2.05283
281 3 11.9883 4.8192 3.12503
350 2 11.3839 1.35989 0.554694
254 3 17.6769 1.6005 0.431521
7 4 16.623 1.8758 6.62277
166 2 13.7068 3.10127 1.73697
11 4 16.0211 4.52126 2.73622
225 3 15.1472 3.53124 3.69077
226 3 15.0245 5.35449 1.65485
223 3 16.0274 1.7421 5.18827
5 4 14.9134 2.01225 4.17766
89 2 15.3129 0.929419 2.73118
51 4 12.528 1.37519 5.68495
214 1 12.8551 2.34275 1.4289
272 3 13.5299 1.32429 4.46171
349 2 14.1734 0.359842 0.490147
351 1 15.0937 0.0433079 1.19693
360 2 12.8627 1.43438 2.05868
167 2 12.7964 2.10087 0.327371
247 3 16.584 4.90552 9.17472
2 2 16.7778 -0.0988612 2.20972
70 2 17.1289 3.51427 1.80214
244 3 17.1183 5.3785 3.47936
274 3 12.9877 0.489838 6.91212
209 1 18.1628 2.63878 0.41196
352 2 15.8815 0.572025 8.8741
12 4 12.1527 6.1255 4.04919
284 3 12.3611 2.86017 6.23624
283 3 11.0868 3.37463 8.7707
57 4 11.2709 3.71896 7.20318
229 3 14.8736 5.29428 7.29369
227 3 16.085 2.95388 7.63344
14 4 15.4326 4.2555 8.35065
72 2 13.4081 3.8546 9.15862
347 2 10.1725 -0.286417 6.15444
348 2 16.0923 -0.100824 0.639171
354 1 14.8334 0.74473 9.27477
269 3 8.8953 0.041505 3.25267
153 2 19.0815 3.91864 1.42881
353 2 14.4637 1.83092 9.25251
359 1 10.7854 0.352529 18.0369
329 2 16.8546 0.40033 15.975
345 2 9.76103 0.644086 10.515
50 4 10.697 2.66326 10.3758
288 3 14.252 3.7831 9.78948
91 2 14.2599 3.51464 11.4248
279 3 11.8604 2.3424 11.3414
355 2 14.6242 0.222247 10.3258
69 2 16.0943 0.627017 11.1858
141 2 18.0554 3.28162 11.1605
195 1 16.9185 1.47798 11.1589
111 2 16.973 2.02994 12.2131
34 4 17.4102 5.62073 10.3535
187 2 17.0706 2.10415 10.1863
140 2 19.4378 4.4755 10.7417
205 1 18.4929 4.35483 11.3327
139 2 18.6488 4.67309 12.3968
277 3 10.6592 1.34222 15.4026
48 4 11.4778 0.368573 16.3293
369 1 12.1448 5.47521 16.0039
17 4 15.9261 4.18806 14.7652
231 3 15.337 5.41158 13.7199
230 3 14.7428 3.02659 15.2458
253 3 16.8238 4.90517 15.8966
54 4 12.9869 2.82935 12.348
326 2 15.8135 0.382821 17.5595
368 2 12.6466 4.48699 16.3997
327 1 16.0888 0.926122 16.5669
92 2 13.7132 1.48993 13.118
330 2 13.3368 5.53323 17.9527
9 4 14.5567 1.40592 15.6383
270 3 13.1473 1.14691 16.5795
275 3 14.5898 0.303965 14.0664
290 3 12.2766 3.92 13.3559
37 4 17.7533 5.34918 17.0899
328 2 16.4466 2.07259 16.814
115 2 17.7061 3.4334 12.9824
151 2 18.1799 3.90821 17.9313
113 2 16.5374 2.12717 13.7884
114 2 17.9981 2.78555 14.8035
196 1 17.194 3.03126 13.9583
356 2 9.90654 1.082 17.8862
152 2 19.3784 5.92786 16.7127
357 2 10.4548 -0.610763 18.392
304 3 21.7135 11.8366 7.37509
109 2 13.5056 7.98573 0.482351
66 4 22.5239 10.6654 6.64989
13 4 15.2608 6.56276 0.614679
83 2 14.7966 7.93055 4.10072
84 2 15.9395 9.18264 5.58612
207 1 15.0921 8.53678 5.82053
129 2 15.7086 11.4872 1.20847
344 2 19.8032 7.83165 7.50975
31 4 17.7599 6.75827 4.0228
257 3 18.3653 7.61903 2.82689
79 2 16.5009 7.64935 4.76764
261 3 17.2553 9.77405 0.930866
145 2 17.3032 8.82512 1.14959
42 4 18.7058 8.22047 8.98698
180 2 18.9042 10.6012 5.28345
39 4 19.9909 7.64478 2.25376
179 2 19.3793 11.5739 3.75919
219 1 19.2396 10.5296 4.25865
260 3 20.0315 8.42294 0.808121
181 2 18.4739 9.90762 3.70532
371 3 19.8051 11.1809 1.17768
40 4 13.8597 9.42721 4.46936
86 2 18.7664 9.79953 7.01622
293 3 20.9056 8.45054 3.29743
62 4 21.0273 9.96812 4.09286
46 4 21.6041 11.5274 1.48266
294 3 21.9565 11.0911 3.21384
302 3 21.662 9.71958 5.83719
233 3 13.0079 7.09714 7.76024
80 2 15.4368 7.72927 6.68097
16 4 14.0908 6.54527 6.69421
41 4 19.3373 9.85217 0.311037
150 2 16.9195 10.1936 7.05242
99 2 16.7516 12.1594 8.86522
25 4 16.2985 11.8489 7.16258
346 1 18.3263 8.79131 7.03693
87 2 17.0024 8.66464 7.98134
77 2 18.0386 8.38595 6.00942
249 3 18.7613 6.34252 5.20577
49 4 20.7814 12.8118 8.18568
228 3 13.2713 6.3279 5.08974
296 3 22.5564 10.7931 0.362572
107 2 12.5514 6.70847 1.87828
71 2 13.1826 8.28904 2.54497
299 3 19.8003 12.0128 9.27759
120 2 13.7932 6.78919 11.781
263 3 14.0448 8.50474 9.9681
52 4 21.9956 12.0944 14.2783
266 3 15.4941 10.0759 11.5255
248 3 16.5266 6.26155 11.6115
118 2 12.6224 6.44109 13.1136
300 3 17.7527 11.5952 11.1031
45 4 16.508 11.2764 12.0736
262 3 18.1667 6.88397 9.68514
65 4 19.1932 11.0407 10.3929
298 3 18.9766 9.58344 9.76279
222 1 20.4789 10.9227 11.7963
190 2 20.1329 10.0553 12.4069
286 3 21.0067 7.53469 11.8708
189 2 21.4468 10.7715 11.2211
307 3 21.1805 11.3117 15.2857
265 3 20.4211 8.90463 14.4057
90 2 22.1556 11.1454 12.8624
108 2 14.3268 6.73971 16.7838
18 4 15.2545 6.63072 12.6714
73 2 15.8693 7.95327 14.7258
198 1 15.6649 8.15357 13.6404
119 2 14.7363 8.77131 13.3935
156 2 15.2414 9.84285 15.7615
82 2 20.7215 6.81218 16.7868
67 4 20.7865 9.73066 15.7204
155 2 16.3069 10.562 17.2515
144 2 18.051 7.78334 13.8491
255 3 16.9428 6.37476 17.9984
121 2 16.6208 8.47066 13.0036
44 4 17.3414 10.9798 15.1847
154 2 17.6318 9.10179 15.6267
210 1 16.2817 10.0194 16.1693
267 3 17.0073 11.0877 13.6727
305 3 18.1318 12.1599 15.9375
143 2 18.5213 7.36188 12.1041
188 2 20.5675 11.9155 12.4373
206 1 18.6664 7.12673 13.17
308 3 19.6664 9.42928 16.8453
38 4 20.4681 7.54382 13.4876
320 2 17.4976 9.24429 17.9285
194 1 14.0421 6.44685 17.8885
95 2 12.8637 6.2246 15.5453
321 2 23.7002 12.138 14.6352
142 2 18.5352 6.0282 13.4137
ITEM: TIMESTEP
100
ITEM: NUMBER OF ATOMS
371
ITEM: BOX BOUNDS xy xz yz pp pp pp
4.2379536921030159e-01 2.4073312164164182e+01 6.9047983350814297e+00
-7.6100078109605018e-01 1.3049914374414435e+01 2.7370919829300294e-01
2.4470688386626271e-01 1.8395593116133643e+01 -5.2598640668172791e-01
ITEM: ATOMS id type x y z
130 2 3.80484 0.907506 3.41587
93 2 11.4234 5.66892 6.89365
131 2 2.48985 1.19385 4.9019
202 1 2.72918 1.14069 3.73592
138 2 3.17274 3.85667 5.40214
103 2 2.35341 0.587735 6.42227
32 4 4.038 4.38845 2.3616
333 2 5.77246 0.591284 5.84535
335 2 5.84555 2.34607 5.37022
137 2 4.80764 3.2285 4.84575
245 3 5.31319 3.51227 1.92271
204 1 4.70957 4.24539 4.27368
208 1 5.18925 1.52216 5.78371
136 2 5.7486 4.60076 3.98813
74 2 4.30673 1.31482 5.02066
282 3 10.6395 4.23459 0.653142
132 2 7.29118 2.16938 3.24879
30 4 6.7546 2.87582 1.6859
159 2 7.65438 1.42652 5.02336
203 1 7.72534 4.43224 1.5305
134 2 6.87533 5.1527 1.84782
183 2 8.11805 5.36139 4.0677
102 2 2.22615 2.57521 6.16859
341 2 3.00963 3.6691 3.69682
133 2 8.50335 4.13485 2.40914
303 3 7.06759 5.98298 6.10468
158 2 8.75357 1.41651 7.4813
76 2 8.5817 0.120751 8.83226
157 2 7.89226 3.45393 4.67249
211 1 8.39791 2.28288 4.78873
59 4 8.7992 2.94756 6.55671
182 2 9.63355 5.56869 5.13112
184 2 9.8048 5.64946 3.25984
220 1 9.09284 5.89795 4.14583
258 3 4.09811 5.9823 2.11408
192 1 2.07491 1.56719 6.90985
104 2 2.58049 1.69581 7.91576
250 3 4.05017 5.53402 7.30803
246 3 3.88498 3.59217 8.6431
149 2 4.72104 1.7936 6.81124
237 3 5.38515 1.31507 9.09371
33 4 4.76815 4.89586 8.52222
6 4 5.93505 -0.0709783 8.46125
171 2 8.00873 4.37843 7.48143
170 2 7.60727 2.1173 8.65132
81 2 6.37501 4.30006 8.10691
216 1 7.38822 2.72198 7.71995
101 2 7.18116 0.314089 6.99719
172 2 6.5089 2.32251 7.03977
287 3 10.5903 5.07772 6.66598
243 3 6.94994 2.05961 0.276091
3 2 2.23104 1.95684 3.10146
85 2 4.85206 6.09767 4.71945
337 2 6.63989 -0.0663944 2.07777
342 2 4.19107 5.99159 0.298463
10 4 1.962 0.291775 10.8436
238 3 3.15114 1.22843 10.3062
224 3 2.32311 -0.419702 12.2744
26 4 4.33457 2.33042 9.82603
241 3 4.96929 3.04847 11.2283
285 3 4.89685 5.86238 9.79627
343 1 4.63219 5.63217 17.3195
160 2 8.57873 3.02051 11.11
161 2 9.14869 4.75238 10.8211
212 1 9.44773 3.77785 11.161
94 2 10.8478 5.08637 11.6928
127 2 5.71887 -0.183187 11.8888
78 2 2.3843 1.88293 16.2695
251 3 2.7859 2.59354 15.648
340 2 3.74589 4.32777 16.4679
28 4 4.21009 1.43618 15.113
252 3 4.57062 2.48714 13.8789
36 4 5.17276 5.03841 15.5422
29 4 5.58084 2.66416 12.6213
240 3 5.4897 1.36329 16.1381
239 3 3.76832 -0.0674535 14.5421
366 2 11.3886 5.89101 16.8117
319 2 7.78901 -0.347665 14.597
165 2 6.48273 4.82375 12.8066
242 3 6.69212 1.0445 12.421
135 2 8.10712 3.59511 17.8204
213 1 6.79073 3.85314 13.3337
163 2 7.86962 3.52159 13.018
164 2 6.2987 3.63603 15.0177
24 4 6.9976 1.27647 16.6006
278 3 8.02456 2.15725 15.7349
27 4 8.0683 0.388491 13.0023
339 1 7.65 -0.427526 16.2089
173 2 7.67256 5.53846 13.8752
367 2 9.60194 5.68926 16.7779
162 2 9.80268 3.77293 12.2233
53 4 9.42718 2.24967 14.8445
289 3 9.92853 3.92888 14.5754
276 3 9.15891 1.60476 13.2017
168 2 6.35072 5.35519 16.9959
271 3 9.48873 1.19927 9.75792
60 4 11.3646 4.42855 14.375
356 2 9.79555 0.937201 17.8772
56 4 9.59235 4.55633 18.3338
338 2 8.59035 -0.635041 16.7474
254 3 1.72722 0.911013 18.3931
186 2 6.0662 8.10489 5.90065
122 2 8.33921 9.33831 3.33387
123 2 7.95606 8.33282 4.97759
199 1 8.67903 9.11975 4.38878
365 2 6.55978 8.29085 1.36818
20 4 12.5579 7.99748 9.09571
148 2 14.4442 11.6836 6.62412
191 1 14.8756 12.6492 8.1869
1 4 8.87913 12.9569 2.81986
4 3 9.87084 12.2608 1.72599
370 3 8.60395 11.9373 4.0054
313 1 11.0817 9.91144 1.27175
309 4 10.8111 11.6396 0.603129
317 2 10.7936 10.0889 2.36677
331 2 10.8618 12.0126 5.87885
312 2 10.5777 8.9075 0.83849
334 1 10.5117 10.9746 6.1452
332 2 11.2542 10.165 5.68326
105 2 11.4283 7.75183 2.75881
98 2 8.89028 7.02217 4.14488
19 4 8.76329 10.8193 5.2534
124 2 9.7738 8.78525 4.37989
361 2 8.96795 6.65014 1.36754
106 2 10.8357 6.78425 4.45591
310 2 12.2394 9.90223 1.05847
193 1 12.5135 7.38081 2.67339
146 2 12.3306 8.80606 3.999
358 2 13.602 11.0216 1.00982
215 1 6.75322 8.07085 0.250937
201 1 14.2073 12.0201 0.959246
23 4 14.8942 12.2012 2.78615
88 2 14.4352 11.0472 9.12221
311 2 12.3514 12.4792 0.512725
221 1 6.67943 7.09629 5.96041
301 3 7.65856 10.8367 6.34551
64 4 6.76427 9.39051 8.58013
185 2 7.34365 8.33216 7.27747
235 3 11.8647 12.0548 8.21048
21 4 10.8784 10.8049 7.88789
234 3 11.6903 9.39931 8.39511
112 2 9.31156 10.9706 8.92389
323 2 8.55713 9.31449 8.73784
259 3 14.3499 10.8017 3.79528
147 2 13.7856 9.72644 6.3456
256 3 4.89721 6.24231 14.3952
58 4 5.63881 7.1703 10.7087
297 3 6.07879 8.45244 9.66008
324 2 7.7493 10.3808 10.8283
325 1 7.69624 10.6808 9.69125
292 3 7.03135 6.7261 11.4604
110 2 8.30103 12.4524 9.57197
75 2 10.9075 11.8113 10.3985
22 4 11.9005 11.5654 11.781
232 3 11.5719 7.20865 10.1249
291 3 9.47715 7.36368 11.804
15 4 10.9789 6.78382 11.4856
264 3 13.0498 10.5923 11.4174
117 2 12.7339 8.35041 12.2926
100 2 13.9053 12.6298 9.81811
43 4 14.231 9.9824 10.573
97 2 6.09998 6.87163 17.9368
128 2 14.3771 12.0067 18.0456
268 3 15.5012 12.6402 11.9126
177 2 6.75817 9.7473 12.2124
61 4 8.00374 7.53675 12.4143
218 1 7.71107 9.48266 12.7275
174 2 7.68377 7.09926 14.8901
176 2 7.59097 9.69875 13.8467
63 4 6.87138 9.26447 17.6277
306 3 5.79172 8.94397 16.2453
217 1 8.18503 6.61822 14.0784
169 2 8.12798 7.17892 18.2508
197 1 12.0747 7.62445 12.8213
8 4 9.83997 12.3331 13.6549
126 2 11.0953 8.49175 15.9507
236 3 11.0087 11.1013 13.0706
315 3 10.569 10.9306 17.1726
314 4 9.4413 10.3291 16.1306
96 2 11.4116 8.058 13.7153
316 3 8.62965 11.4306 14.7051
200 1 10.2753 8.87484 15.2725
318 2 10.7354 9.61026 14.3747
175 2 9.34206 6.48761 14.2334
178 2 8.5885 10.0168 12.2461
362 1 10.0842 6.64641 18.1902
125 2 9.49983 7.95285 14.8418
363 2 9.7571 7.68025 17.9391
295 3 8.2817 9.63324 16.8963
116 2 11.2519 6.13687 14.3602
336 2 13.5422 12.3079 16.572
322 2 6.80499 11.4724 9.54039
118 2 12.542 6.61918 13.1612
364 2 11.24 6.56538 18.3538
47 4 9.76299 1.32983 3.92924
68 2 17.0508 0.347102 7.29578
280 3 10.4069 2.36179 2.87054
273 3 10.918 0.875321 5.19064
55 4 11.3066 3.52802 2.05743
281 3 11.9768 4.69887 3.13381
350 2 11.2829 1.49334 0.563369
35 4 19.998 5.58263 5.76684
7 4 16.626 1.88909 6.64063
166 2 13.5712 3.30504 1.64343
11 4 15.9846 4.47451 2.71179
225 3 15.0419 3.45999 3.59871
226 3 15.1727 5.38991 1.67054
223 3 16.1671 1.64897 5.18336
5 4 15.0101 1.9465 4.07556
89 2 15.407 0.811526 2.70032
51 4 12.5893 1.54965 5.71768
214 1 12.7578 2.53785 1.37811
272 3 13.5649 1.56591 4.48184
349 2 14.2187 0.599444 0.757488
351 1 15.1307 0.11972 1.28216
360 2 12.6887 1.69758 2.24071
49 4 13.7745 -0.390576 8.0193
153 2 18.9555 3.76162 1.47847
2 2 16.9319 0.128747 2.10326
70 2 16.9373 3.32353 1.75304
244 3 16.9663 5.52899 3.42436
274 3 13.0413 0.619398 6.85215
209 1 18.1491 2.55402 0.425918
352 2 15.7462 0.394245 9.06326
12 4 12.3319 6.02746 3.9674
284 3 12.3295 2.98769 6.24792
283 3 11.1635 3.43811 8.79747
57 4 11.3229 3.81792 7.22656
229 3 14.8599 5.20393 7.23168
227 3 15.9618 2.7736 7.72942
14 4 15.3459 4.14036 8.30644
72 2 13.2835 3.73804 9.13834
347 2 10.0717 -0.360036 5.94102
348 2 16.0331 0.0156865 0.662572
269 3 8.9171 0.0767052 3.3257
359 1 10.7206 0.354651 18.0966
329 2 16.7825 0.724083 16.034
345 2 9.99647 0.491328 10.3049
50 4 10.7023 2.60006 10.2501
288 3 14.1337 3.54724 9.69195
91 2 14.1187 3.49973 11.3171
279 3 11.9128 2.14875 11.2908
355 2 14.3948 0.0729996 10.2874
69 2 16.2274 0.918724 10.9921
141 2 18.0285 3.50054 11.1174
195 1 17.1668 1.65129 11.0468
111 2 17.1912 2.26931 12.1027
34 4 17.2318 5.85352 10.3826
187 2 17.2374 2.31806 10.0752
140 2 19.2886 4.75053 10.3175
205 1 18.5225 4.63079 11.1304
139 2 18.98 4.94222 12.1202
277 3 10.5479 1.37385 15.6475
48 4 11.4409 0.304984 16.3945
142 2 18.7108 5.83828 13.1924
17 4 15.8371 4.15879 14.8265
231 3 15.1262 5.39461 13.9119
230 3 14.7427 3.0551 15.2765
253 3 16.8491 4.73426 16.0934
54 4 12.9041 2.7817 12.2416
326 2 15.7284 0.555476 17.6593
368 2 12.624 4.37004 16.2954
327 1 15.9818 1.17437 16.6699
92 2 13.7102 1.47976 13.0438
330 2 13.6626 5.57063 18.004
9 4 14.4389 1.48052 15.7107
270 3 13.1507 1.05475 16.691
275 3 14.5415 0.428037 14.0755
290 3 12.3866 3.85226 13.2951
37 4 17.8303 5.23473 17.1984
328 2 16.2592 2.29281 16.9611
115 2 17.5946 3.92625 12.8158
151 2 18.6477 3.89089 18.051
113 2 16.4584 2.37978 13.5371
114 2 18.0034 3.02444 14.518
196 1 17.1771 3.34241 13.78
354 1 14.6669 0.606215 9.36948
353 2 14.4829 1.79303 9.48817
369 1 12.1074 5.37066 15.9509
247 3 16.4223 4.89564 9.32355
167 2 13.1439 1.50666 18.3842
304 3 21.9983 11.9942 7.32065
71 2 13.3073 8.241 2.57648
66 4 22.5398 10.7652 6.57344
13 4 15.5223 6.61522 0.70114
83 2 14.8385 7.91165 4.1944
84 2 16.1478 9.35436 5.67799
207 1 15.2347 8.6347 5.80903
129 2 15.7526 11.5656 1.07771
344 2 19.5217 7.95396 7.40263
31 4 17.7823 6.72897 4.07623
257 3 18.5299 7.6462 2.99833
79 2 16.581 7.82655 4.72146
261 3 17.2486 9.66847 0.94393
145 2 17.4277 8.77388 1.25372
42 4 18.4731 8.31415 8.92669
180 2 19.2216 11.0313 5.33428
39 4 20.1335 7.71826 2.34832
179 2 19.5556 11.5656 3.60998
219 1 19.3871 10.6928 4.28249
260 3 19.9539 8.47812 0.92174
181 2 18.6012 10.0486 3.84055
371 3 19.8405 11.252 1.09055
40 4 13.8651 9.51594 4.52818
86 2 18.7582 9.87939 6.8399
293 3 21.1559 8.48529 3.39724
62 4 21.1462 9.88738 4.1292
46 4 21.5558 11.6143 1.5848
294 3 21.8027 11.1611 3.2767
302 3 21.6869 9.6877 6.01539
233 3 13.1596 7.1649 7.83884
80 2 15.5225 7.72811 6.48361
16 4 14.1332 6.55017 6.72977
41 4 19.3434 9.82923 0.327113
150 2 17.069 10.2546 6.98243
99 2 16.7623 12.2865 8.57322
25 4 16.1737 11.827 6.9998
346 1 18.3335 8.79953 6.86692
87 2 16.8869 8.70263 7.91537
77 2 18.1244 8.51913 5.80948
249 3 18.654 6.27129 5.30158
299 3 19.7494 12.0318 9.00481
228 3 13.3473 6.30336 5.20939
296 3 22.5433 10.8281 0.563929
107 2 12.5799 6.60353 1.71642
120 2 13.744 6.99811 12.0163
263 3 13.8779 8.53664 10.0524
52 4 21.9458 12.192 14.2534
266 3 15.5351 9.98475 11.4227
248 3 16.2863 6.22022 11.6517
95 2 12.8957 6.12526 15.5782
300 3 17.8036 11.5207 11.0547
45 4 16.468 11.2827 12.0365
262 3 18.0597 6.93428 9.60058
65 4 19.1987 10.9986 10.2324
298 3 18.9818 9.53197 9.72698
222 1 20.6081 11.0841 11.5356
190 2 20.4178 10.1389 12.1467
286 3 21.2118 7.60966 11.8959
189 2 21.4687 10.8725 10.7821
307 3 21.1554 11.2378 15.2498
265 3 20.456 8.81047 14.2343
90 2 22.1649 11.5011 12.6915
108 2 14.6889 6.54299 16.7032
18 4 15.2506 6.50217 12.8027
73 2 15.4817 8.11053 14.8306
198 1 15.4864 8.10099 13.7088
119 2 14.6842 8.79217 13.2765
156 2 15.1714 10.0713 15.2215
82 2 20.7856 6.66404 17.0467
67 4 20.9913 9.67663 15.7024
155 2 15.7971 10.7133 16.9567
144 2 18.2175 7.36197 14.1782
255 3 17.1814 6.32334 18.1483
121 2 16.5401 8.28955 13.2233
44 4 17.3782 10.7279 15.0826
154 2 17.2112 9.01875 16.0747
210 1 16.0093 10.1397 16.0225
267 3 16.8707 10.8806 13.6441
305 3 18.0566 11.9558 15.9097
143 2 18.4268 7.42206 12.3837
188 2 20.6662 12.061 12.1479
206 1 18.787 6.96331 13.2826
308 3 19.8283 9.44634 16.871
38 4 20.5883 7.47888 13.4395
320 2 17.5269 8.99795 17.913
194 1 14.4256 6.42624 17.8157
321 2 23.6758 12.1195 14.4216
109 2 14.0438 7.45762 18.3229
152 2 19.3168 5.93815 16.5765
357 2 17.445 12.4883 18.3692
ITEM: TIMESTEP
200
ITEM: NUMBER OF ATOMS
371
ITEM: BOX BOUNDS xy xz yz pp pp pp
4.2379536921030159e-01 2.4073312164164182e+01 6.9047983350814297e+00
-7.6100078109605018e-01 1.3049914374414435e+01 2.7370919829300294e-01
2.4470688386626271e-01 1.8395593116133643e+01 -5.2598640668172791e-01
ITEM: ATOMS id type x y z
130 2 3.62822 1.36694 3.2613
93 2 11.2736 5.86755 7.03777
131 2 2.38611 1.30946 4.83969
202 1 2.53051 1.34873 3.62656
138 2 3.28527 3.95516 5.61573
103 2 2.24819 0.296442 6.1581
32 4 4.09492 4.40405 2.35042
333 2 5.03419 0.489645 6.22879
335 2 6.09332 1.73991 5.19339
137 2 4.8486 3.38289 4.92669
245 3 5.31959 3.54368 1.91849
204 1 4.66435 4.44915 4.32045
208 1 5.00124 1.53124 5.75102
136 2 5.65935 4.89886 4.03131
74 2 4.1621 1.51384 4.9685
282 3 10.5152 4.3476 0.817053
132 2 7.50649 2.36983 3.21024
30 4 6.78605 2.96325 1.69173
159 2 7.38749 2.07698 4.89091
203 1 7.67463 4.5871 1.51907
134 2 6.81888 5.25463 1.81082
183 2 8.1101 5.49778 3.90687
102 2 2.42807 2.26702 6.35233
341 2 2.96247 3.87354 3.78697
133 2 8.4781 4.25622 2.3865
303 3 7.05739 6.03139 5.97678
158 2 8.48452 1.47259 7.64682
76 2 8.72393 -0.0208624 8.91962
157 2 8.95458 3.63428 4.55877
211 1 8.53243 2.34869 4.82608
59 4 8.84384 2.97375 6.6447
182 2 9.63141 5.60154 5.09878
184 2 9.79875 5.63051 3.25681
220 1 9.15968 6.00001 4.06525
258 3 4.02022 6.02507 1.98024
192 1 2.05491 1.16963 6.84031
104 2 2.38272 1.01505 7.90997
250 3 4.13294 5.78746 7.42089
246 3 3.98314 3.72619 8.90186
149 2 4.86183 2.32301 6.54852
237 3 5.48062 1.3027 8.92356
33 4 4.80589 5.05876 8.5994
6 4 5.98391 -0.1918 8.59806
171 2 8.04045 4.441 7.5401
170 2 7.40951 2.36224 8.65757
81 2 6.42122 4.55796 8.06927
216 1 7.23878 2.88428 7.64775
101 2 7.0979 0.0558532 7.07517
172 2 6.40162 2.38579 6.90524
287 3 10.4239 5.31887 6.71134
243 3 6.97301 1.95202 0.399444
3 2 1.7999 2.07241 3.09269
1 4 2.00176 -0.27995 2.89336
153 2 2.67381 3.66391 1.48716
85 2 4.89212 6.24792 4.82513
337 2 6.60868 -0.253203 2.26119
10 4 1.97198 0.527305 10.8788
238 3 3.09783 1.46758 10.2305
224 3 2.20075 -0.162315 12.2442
26 4 4.39797 2.29685 9.75414
241 3 5.28888 2.83921 11.1348
285 3 5.05505 5.93889 9.84633
343 1 4.77852 5.67273 17.2158
160 2 8.61255 3.03575 11.0881
161 2 9.29868 4.8515 10.7123
212 1 9.51982 3.79595 11.2209
94 2 11.0002 5.09346 11.2433
127 2 5.76029 -0.38715 12.4051
78 2 2.15416 1.90312 16.1201
251 3 2.61434 2.62045 15.5867
340 2 3.97772 4.11309 16.6324
28 4 4.04466 1.46584 15.0554
252 3 4.48555 2.31472 13.6666
36 4 5.21124 4.94461 15.5464
29 4 5.67955 2.55378 12.5919
240 3 5.35306 1.46273 16.087
239 3 3.7061 0.0266879 14.4607
366 2 11.5586 5.69475 16.5466
342 2 4.7802 5.60603 18.3787
165 2 6.19973 4.8345 12.7901
242 3 6.7646 0.915183 12.5624
135 2 7.99541 3.70917 17.8454
213 1 6.71355 3.91188 13.2788
163 2 7.85495 3.72734 13.1224
164 2 6.30249 3.68041 14.8265
24 4 7.01783 1.24921 16.7352
278 3 7.97036 2.33017 16.005
27 4 8.1136 0.254159 13.0331
339 1 7.51342 -0.461479 16.2927
173 2 7.65647 5.72423 14.1011
367 2 9.64449 5.64546 16.4971
162 2 9.8195 3.90286 12.309
53 4 9.422 2.20713 14.9136
289 3 10.0323 3.72874 14.7042
276 3 9.02544 1.43827 13.5155
168 2 6.54009 5.66641 16.6809
338 2 8.54118 -0.603857 16.7326
60 4 11.4481 4.34438 14.35
254 3 1.7774 0.839103 18.2293
56 4 9.56688 4.60425 18.3238
186 2 6.14071 8.22577 6.05526
122 2 8.04037 9.46672 3.16374
123 2 7.83683 8.34785 4.83899
199 1 8.53621 9.16982 4.15685
365 2 6.63856 8.4671 1.32634
20 4 12.5095 8.03818 8.88373
148 2 14.3331 11.5515 6.77303
191 1 14.9788 12.4589 8.35357
323 2 8.68752 9.30911 8.79767
4 3 10.0313 12.3071 1.70772
370 3 8.89465 12.0311 4.1237
313 1 11.0312 9.83121 0.918621
309 4 10.8437 11.6643 0.548766
317 2 10.475 9.82608 1.9579
331 2 11.222 11.4514 5.55021
88 2 14.6934 10.8615 9.14193
334 1 10.6068 10.5871 5.99242
332 2 11.0613 9.56907 5.63112
105 2 11.7065 7.83173 2.62257
98 2 8.99563 7.13378 4.08108
19 4 8.79162 10.7509 5.15716
124 2 9.60455 8.76363 4.01241
361 2 8.9677 6.7577 1.09107
106 2 10.8443 7.00444 4.21519
310 2 12.1609 9.78862 1.02958
112 2 9.16378 10.9121 8.53468
146 2 12.3821 9.02715 3.75899
358 2 13.9385 11.008 1.11904
215 1 6.81088 8.07904 0.297643
201 1 14.3868 11.9943 1.05858
23 4 15.0011 12.1423 2.94887
147 2 13.8328 9.60587 6.41267
311 2 12.5146 12.3631 0.505933
221 1 6.76795 7.18297 6.07512
301 3 7.69186 10.86 6.291
64 4 6.84237 9.34918 8.65358
185 2 7.5475 8.40154 7.29666
235 3 11.9115 11.9463 8.17129
21 4 10.8915 10.6758 7.76169
234 3 11.5237 9.33038 8.25005
256 3 4.61531 6.02077 14.4754
58 4 5.56349 7.08115 10.7287
297 3 6.00169 8.41023 9.5503
324 2 7.76438 10.1711 10.7451
325 1 7.79439 10.6733 9.67689
292 3 6.88559 6.86126 11.5216
110 2 8.33179 12.5742 9.78981
75 2 11.1585 11.9806 10.5186
22 4 11.9591 11.4545 11.8849
232 3 11.5884 7.10134 9.90005
291 3 9.6642 7.42125 11.815
15 4 11.0576 6.82887 11.3595
264 3 13.1182 10.541 11.3303
117 2 12.9038 8.23363 12.3028
100 2 13.9469 12.549 9.93431
364 2 11.1922 6.48766 17.9013
97 2 6.18091 6.85676 18.0146
128 2 14.5037 12.0019 18.1511
312 2 10.8354 8.57903 18.2996
177 2 6.76719 9.575 11.9017
61 4 8.22208 7.45318 12.3949
218 1 7.70377 9.3352 12.5697
174 2 7.71094 7.48232 14.9332
176 2 7.44074 9.41812 13.6634
63 4 6.80363 9.20447 17.5361
306 3 5.75359 8.89957 16.3115
217 1 8.21911 6.76561 14.2174
169 2 8.23272 7.13368 18.1696
197 1 12.1593 7.55467 12.8564
8 4 9.80215 12.2084 13.6963
126 2 11.1165 8.74403 15.8585
236 3 10.8647 10.9581 12.9472
315 3 10.4856 11.0596 17.2058
314 4 9.43372 10.3886 16.1338
96 2 11.5319 8.07104 13.7162
316 3 8.70616 11.5548 14.6821
200 1 10.2963 9.06827 15.1482
318 2 10.629 9.78669 14.1861
175 2 9.30387 6.61103 14.4896
178 2 8.62548 10.0351 12.4024
362 1 10.1119 6.51377 17.7145
125 2 9.5916 8.19386 14.8106
363 2 9.78197 7.56212 17.47
295 3 8.24261 9.68136 16.8527
116 2 11.2781 6.06237 14.482
336 2 13.6656 12.096 16.7357
322 2 6.96279 11.4951 9.46569
118 2 12.4921 6.46571 13.066
319 2 14.5792 12.5681 14.4859
47 4 9.79652 1.3407 4.0116
68 2 16.9559 0.186221 7.3841
280 3 10.411 2.44129 2.9059
273 3 10.8965 0.881891 5.07824
55 4 11.4326 3.52461 2.1783
281 3 11.9313 4.77694 3.26544
350 2 11.3928 1.30526 0.643796
35 4 19.9543 5.63773 5.89351
7 4 16.7044 1.74449 6.66576
166 2 13.643 3.37651 1.49254
11 4 16.0717 4.53572 2.63028
225 3 15.35 3.33098 3.39328
226 3 15.1281 5.39876 1.63036
223 3 16.014 1.5869 5.22476
5 4 14.9469 1.97874 4.10316
89 2 15.338 0.601056 2.9796
51 4 12.5231 1.63024 5.68486
214 1 12.8309 2.54413 1.39899
272 3 13.4768 1.63124 4.43283
349 2 14.2663 0.63675 0.899328
351 1 15.0791 0.067267 1.44013
360 2 12.8519 1.64774 2.1766
49 4 13.6722 -0.299933 7.95033
348 2 16.0138 -0.110561 0.77638
2 2 16.8434 -0.0568433 2.3207
70 2 17.2313 3.69792 1.58948
244 3 16.9501 5.52597 3.46864
274 3 13.0738 0.72289 6.87949
209 1 18.1272 2.43277 0.521669
167 2 12.697 2.26123 0.321713
12 4 12.3307 6.10622 3.96977
284 3 12.1339 3.04027 6.26597
283 3 10.9924 3.34757 8.79083
57 4 11.1546 3.92832 7.24151
229 3 14.7994 5.23386 7.32205
227 3 16.0714 2.84687 7.55427
14 4 15.2913 4.08283 8.29831
72 2 13.2686 3.48253 9.04354
228 3 13.3281 6.21785 5.23636
269 3 8.97844 0.0180646 3.52077
347 2 10.0307 -0.101533 6.18004
359 1 10.857 0.0967094 18.2789
329 2 16.7441 0.709702 16.2219
345 2 10.2354 0.44096 10.2609
50 4 10.7086 2.6202 10.2202
288 3 14.075 3.42908 9.66929
91 2 14.2002 3.36388 11.2962
279 3 11.8749 2.0677 11.2363
355 2 13.9517 -0.00867388 10.314
69 2 16.1685 0.834993 11.0888
141 2 17.9082 3.44823 11.1835