ITEM: TIMESTEP
0
ITEM: NUMBER OF ATOMS
371
ITEM: BOX BOUNDS xy xz yz pp pp pp
4.2379536921030159e-01 2.4339010739140758e+01 7.1704969100580049e+00
-7.6100078109605018e-01 1.3049914374414435e+01 2.7370919829300294e-01
2.4470688386626271e-01 1.8395593116133643e+01 -5.2598640668172791e-01
ITEM: ATOMS id type x y z
130 2 3.85894 0.839633 3.43068
93 2 11.6051 5.56677 6.92216
131 2 2.57237 1.17346 4.89043
202 1 2.78102 1.03806 3.70416
138 2 3.3816 3.77656 5.5202
103 2 3.04393 0.711088 6.60478
32 4 4.23347 4.42315 2.27844
333 2 5.62944 0.406163 6.016
335 2 6.02731 2.13109 5.28834
137 2 4.96536 3.23053 4.88577
245 3 5.32177 3.43014 1.74337
204 1 4.8543 4.20906 4.39353
208 1 5.23278 1.44346 5.78082
136 2 5.88848 4.71128 4.39476
74 2 4.29831 1.31343 5.05273
282 3 10.7921 4.16905 0.606032
132 2 7.47637 2.27596 2.98156
30 4 6.82159 2.91299 1.55718
159 2 7.61376 1.50793 4.59099
203 1 7.81765 4.46656 1.4968
134 2 7.07979 5.26107 1.76505
183 2 8.20603 5.26171 4.0952
102 2 2.33581 2.51443 6.30964
341 2 3.19574 3.90634 3.68188
133 2 8.47876 4.16136 2.46336
303 3 6.97636 6.00493 6.20471
158 2 8.79976 1.47588 7.39615
76 2 8.70285 0.0987795 8.98624
157 2 8.22221 3.41867 4.30844
211 1 8.54796 2.34109 4.68208
59 4 8.92004 2.99203 6.47268
182 2 9.71378 5.42221 5.10117
184 2 9.75951 5.59384 3.25937
220 1 9.16254 5.83517 4.17055
258 3 4.2412 5.99577 2.01835
192 1 2.14613 1.3945 6.88804
104 2 2.19384 1.57831 8.05808
250 3 4.25042 5.674 7.32831
246 3 3.98443 3.53765 8.95111
149 2 4.94568 1.96046 6.75055
237 3 5.59759 1.35089 8.92397
33 4 4.89433 4.89313 8.56774
6 4 6.04935 -0.123168 8.66181
171 2 8.42916 4.39701 7.4824
170 2 7.62118 2.15643 8.60644
81 2 6.48413 4.31516 8.05402
216 1 7.47814 2.76361 7.67677
101 2 7.14248 0.0920326 7.08647
172 2 6.58043 2.3122 6.99777
287 3 10.7386 5.06741 6.62549
243 3 7.1942 1.99519 0.257816
3 2 2.21342 1.90123 3.08476
85 2 5.07211 6.12894 4.61818
56 4 9.5001 5.05801 0.309967
35 4 3.76651 5.55898 5.69885
10 4 1.91721 0.342713 10.9717
238 3 3.19471 1.27741 10.3613
224 3 2.10389 -0.291839 12.432
26 4 4.41646 2.30747 9.86208
241 3 4.99373 3.00869 11.2622
285 3 5.11391 5.86266 9.74135
343 1 4.92007 5.80819 17.0847
160 2 8.66938 3.09449 11.1931
161 2 9.1654 4.88325 10.8123
212 1 9.55682 3.93976 11.3165
94 2 11.1431 5.07593 11.2191
127 2 5.69386 -0.126328 11.8473
78 2 2.28664 1.64865 16.2384
251 3 2.86285 2.45999 16.0175
340 2 4.40503 4.26092 16.2251
28 4 4.27064 1.56569 15.1847
252 3 4.61002 2.35653 13.8913
36 4 5.59456 5.28824 15.4028
29 4 5.62775 2.68565 12.6015
240 3 5.54111 1.44907 16.2399
239 3 3.75857 0.0660827 14.6509
342 2 4.83076 5.71672 18.1564
319 2 7.67138 -0.176557 14.4397
165 2 6.03157 4.99406 12.7119
242 3 6.7299 1.13766 12.2016
135 2 8.29387 3.67369 17.819
213 1 6.76859 4.08406 13.0239
163 2 7.81277 4.06872 12.377
164 2 6.84963 3.90257 14.6943
24 4 7.1144 1.20487 16.6074
278 3 8.10456 2.15821 15.7612
27 4 8.0393 0.526459 12.8587
339 1 7.52838 -0.47793 16.0297
173 2 7.57048 5.71885 13.8701
367 2 9.85152 5.71708 16.8271
162 2 9.94004 4.04578 12.3885
53 4 9.41963 2.182 14.7537
289 3 10.0501 3.94707 14.7039
276 3 9.14564 1.76363 13.2059
168 2 6.70701 5.90697 16.7369
271 3 9.66532 1.31129 9.69523
60 4 11.4187 4.57427 14.5436
186 2 6.08874 8.13994 5.87061
122 2 8.80398 9.21437 3.39799
123 2 7.99683 8.29899 4.99815
199 1 8.86818 9.04783 4.5518
365 2 6.62369 8.56086 1.40693
20 4 12.6956 8.02975 8.97813
148 2 14.797 11.5035 6.87702
191 1 15.2073 12.5845 8.36668
1 4 9.07712 12.9012 2.86156
4 3 9.99908 12.2967 1.75368
370 3 8.97029 11.8317 4.09181
313 1 11.0618 9.80651 1.34761
309 4 11.0502 11.5217 0.593572
317 2 10.5311 10.103 2.37092
331 2 11.3711 11.6948 5.83123
312 2 10.6639 8.85686 0.803874
334 1 10.9227 10.7525 6.15828
332 2 11.6082 9.8302 5.87333
105 2 11.5571 7.90633 2.84985
98 2 8.97189 6.98848 4.27491
19 4 8.95651 10.7282 5.29968
124 2 9.91031 8.71587 4.93337
361 2 9.15508 6.63421 1.39027
106 2 10.8173 6.73022 4.81761
310 2 12.2661 9.76696 1.46196
193 1 12.5786 7.48223 2.74248
146 2 12.4491 8.90783 4.08054
358 2 13.8858 11.0124 0.697625
215 1 6.91874 8.14774 0.382186
201 1 14.5527 11.954 0.795086
23 4 15.1297 12.1575 2.70427
337 2 13.6354 12.9695 2.00784
311 2 12.6454 12.2402 0.730916
221 1 6.62149 7.065 5.80307
301 3 7.83757 10.7437 6.47951
64 4 6.80299 9.25555 8.60728
185 2 7.2287 8.21981 7.23882
235 3 12.0148 12.1245 8.42383
21 4 11.1997 10.7799 7.94132
234 3 11.9899 9.35131 8.41669
112 2 9.54665 10.8656 8.87424
323 2 8.61745 9.11402 8.79718
259 3 14.5235 10.8284 3.71194
147 2 13.8903 9.55138 6.37968
88 2 14.896 10.8698 9.22455
169 2 8.08566 7.83816 0.280679
256 3 4.92387 6.31822 14.338
58 4 5.6316 7.13934 10.6751
297 3 5.96148 8.33993 9.68691
324 2 7.78166 10.1549 10.7667
325 1 7.91561 10.6252 9.63988
292 3 7.09711 6.72145 11.425
110 2 8.831 12.3261 9.78887
75 2 11.156 12.057 10.383
22 4 12.1485 11.6086 11.6985
232 3 11.7859 7.22545 10.003
291 3 9.8072 7.50172 11.8958
15 4 11.2022 6.8383 11.4304
264 3 13.2148 10.5737 11.2717
117 2 13.1912 8.24331 12.2962
100 2 14.2988 12.6143 10.0569
366 2 11.5523 5.99031 16.8609
97 2 6.3525 6.89474 18.027
128 2 14.8596 11.9917 17.9199
268 3 15.7912 12.5481 12.0513
177 2 6.73723 9.49989 11.9494
61 4 8.16787 7.52753 12.4
218 1 7.6285 9.36855 12.6498
174 2 7.4182 7.39303 14.773
176 2 7.39052 9.37055 13.8109
63 4 7.13199 9.25853 17.4569
306 3 6.05998 9.09724 16.1827
217 1 8.13819 6.68232 14.2133
364 2 11.2927 6.67766 18.3202
197 1 12.378 7.56541 12.7064
8 4 10.1935 12.2396 13.8144
126 2 11.2674 8.52956 15.6395
236 3 11.2198 11.1574 12.9755
315 3 10.7577 10.7972 17.1788
314 4 9.69039 10.2512 16.1655
96 2 11.6838 8.11922 13.5111
316 3 8.97004 11.5665 14.8561
200 1 10.4112 8.91178 15.0326
318 2 10.7823 9.56569 14.1625
175 2 9.06202 6.46633 14.7833
178 2 8.46506 10.0971 12.4475
362 1 10.2019 6.66029 18.1253
125 2 9.5912 8.00158 14.7176
363 2 9.84067 7.74124 17.9481
295 3 8.58786 9.44393 16.9627
116 2 11.3152 6.30861 14.4856
336 2 13.7594 12.1404 16.2472
322 2 7.17234 11.4099 9.359
338 2 15.6396 12.5233 16.5367
43 4 14.4323 9.89749 10.5662
47 4 9.85494 1.35946 3.85901
68 2 17.0182 0.358962 7.40475
280 3 10.5978 2.48359 2.81193
273 3 10.8119 0.886521 5.12756
55 4 11.5442 3.5133 2.05283
281 3 12.0911 4.8192 3.12503
350 2 11.4159 1.35989 0.554694
254 3 17.7137 1.6005 0.431521
7 4 16.6689 1.8758 6.62277
166 2 13.7744 3.10127 1.73697
11 4 16.1177 4.52126 2.73622
225 3 15.2245 3.53124 3.69077
226 3 15.1371 5.35449 1.65485
223 3 16.0698 1.7421 5.18827
5 4 14.9607 2.01225 4.17766
89 2 15.3376 0.929419 2.73118
51 4 12.5634 1.37519 5.68495
214 1 12.9074 2.34275 1.4289
272 3 13.5635 1.32429 4.46171
349 2 14.1855 0.359842 0.490147
351 1 15.0998 0.0433079 1.19693
360 2 12.8971 1.43438 2.05868
167 2 12.8432 2.10087 0.327371
247 3 16.692 4.90552 9.17472
2 2 16.7816 -0.0988612 2.20972
70 2 17.2048 3.51427 1.80214
244 3 17.2324 5.3785 3.47936
274 3 13.0061 0.489838 6.91212
209 1 18.2203 2.63878 0.41196
352 2 15.9027 0.572025 8.8741
12 4 12.2821 6.1255 4.04919
284 3 12.4265 2.86017 6.23624
283 3 11.1639 3.37463 8.7707
57 4 11.3541 3.71896 7.20318
229 3 14.9883 5.29428 7.29369
227 3 16.1531 2.95388 7.63344
14 4 15.5271 4.2555 8.35065
72 2 13.495 3.8546 9.15862
347 2 10.1749 -0.286417 6.15444
348 2 16.0952 -0.100824 0.639171
354 1 14.8582 0.74473 9.27477
269 3 8.90257 0.041505 3.25267
153 2 19.1653 3.91864 1.42881
353 2 14.5102 1.83092 9.25251
359 1 10.8075 0.352529 18.0369
329 2 16.8765 0.40033 15.975
345 2 9.78456 0.644086 10.515
50 4 10.7608 2.66326 10.3758
288 3 14.3379 3.7831 9.78948
91 2 14.3414 3.51464 11.4248
279 3 11.9184 2.3424 11.3414
355 2 14.6392 0.222247 10.3258
69 2 16.1178 0.627017 11.1858
141 2 18.1321 3.28162 11.1605
195 1 16.9591 1.47798 11.1589
111 2 17.0252 2.02994 12.2131
34 4 17.5332 5.62073 10.3535
187 2 17.1231 2.10415 10.1863
140 2 19.5381 4.4755 10.7417
205 1 18.5912 4.35483 11.3327
139 2 18.754 4.67309 12.3968
277 3 10.6996 1.34222 15.4026
48 4 11.4992 0.368573 16.3293
369 1 12.2681 5.47521 16.0039
17 4 16.0229 4.18806 14.7652
231 3 15.4578 5.41158 13.7199
230 3 14.8168 3.02659 15.2458
253 3 16.9357 4.90517 15.8966
54 4 13.0552 2.82935 12.348
326 2 15.8359 0.382821 17.5595
368 2 12.7504 4.48699 16.3997
327 1 16.1215 0.926122 16.5669
92 2 13.7551 1.48993 13.118
330 2 13.4624 5.53323 17.9527
9 4 14.5984 1.40592 15.6383
270 3 13.1844 1.14691 16.5795
275 3 14.6086 0.303965 14.0664
290 3 12.3673 3.92 13.3559
37 4 17.8747 5.34918 17.0899
328 2 16.5024 2.07259 16.814
115 2 17.7868 3.4334 12.9824
151 2 18.273 3.90821 17.9313
113 2 16.5924 2.12717 13.7884
114 2 18.0669 2.78555 14.8035
196 1 17.2672 3.03126 13.9583
356 2 9.94311 1.082 17.8862
152 2 19.5112 5.92786 16.7127
357 2 10.4578 -0.610763 18.392
304 3 21.9591 11.8366 7.37509
109 2 13.6702 7.98573 0.482351
66 4 22.7457 10.6654 6.64989
13 4 15.397 6.56276 0.614679
83 2 14.9621 7.93055 4.10072
84 2 16.1309 9.18264 5.58612
207 1 15.2708 8.53678 5.82053
129 2 15.9436 11.4872 1.20847
344 2 19.9687 7.83165 7.50975
31 4 17.902 6.75827 4.0228
257 3 18.5238 7.61903 2.82689
79 2 16.6612 7.64935 4.76764
261 3 17.4559 9.77405 0.930866
145 2 17.485 8.82512 1.14959
42 4 18.88 8.22047 8.98698
180 2 19.1238 10.6012 5.28345
39 4 20.1497 7.64478 2.25376
179 2 19.6175 11.5739 3.75919
219 1 19.4572 10.5296 4.25865
260 3 20.205 8.42294 0.808121
181 2 18.6788 9.90762 3.70532
371 3 20.0339 11.1809 1.17768
40 4 14.0554 9.42721 4.46936
86 2 18.971 9.79953 7.01622
293 3 21.0811 8.45054 3.29743
62 4 21.2336 9.96812 4.09286
46 4 21.8401 11.5274 1.48266
294 3 22.1848 11.0911 3.21384
302 3 21.8644 9.71958 5.83719
233 3 13.1589 7.09714 7.76024
80 2 15.5998 7.72927 6.68097
16 4 14.2301 6.54527 6.69421
41 4 19.5391 9.85217 0.311037
150 2 17.132 10.1936 7.05242
99 2 17.0045 12.1594 8.86522
25 4 16.5442 11.8489 7.16258
346 1 18.5108 8.79131 7.03693
87 2 17.1848 8.66464 7.98134
77 2 18.2143 8.38595 6.00942
249 3 18.8957 6.34252 5.20577
49 4 21.047 12.8118 8.18568
228 3 13.4054 6.3279 5.08974
296 3 22.777 10.7931 0.362572
107 2 12.6912 6.70847 1.87828
71 2 13.3544 8.28904 2.54497
299 3 20.0505 12.0128 9.27759
120 2 13.9403 6.78919 11.781
263 3 14.2253 8.50474 9.9681
52 4 22.2503 12.0944 14.2783
266 3 15.7069 10.0759 11.5255
248 3 16.6631 6.26155 11.6115
118 2 12.7634 6.44109 13.1136
300 3 17.9956 11.5952 11.1031
45 4 16.7451 11.2764 12.0736
262 3 18.3146 6.88397 9.68514
65 4 19.4246 11.0407 10.3929
298 3 19.1785 9.58344 9.76279
222 1 20.7088 10.9227 11.7963
190 2 20.3458 10.0553 12.4069
286 3 21.1688 7.53469 11.8708
189 2 21.6733 10.7715 11.2211
307 3 21.4202 11.3117 15.2857
265 3 20.6121 8.90463 14.4057
90 2 22.3905 11.1454 12.8624
108 2 14.4759 6.73971 16.7838
18 4 15.399 6.63072 12.6714
73 2 16.0415 7.95327 14.7258
198 1 15.8404 8.15357 13.6404
119 2 14.924 8.77131 13.3935
156 2 15.4519 9.84285 15.7615
82 2 20.8721 6.81218 16.7868
67 4 20.9948 9.73066 15.7204
155 2 16.5327 10.562 17.2515
144 2 18.2192 7.78334 13.8491
255 3 17.0853 6.37476 17.9984
121 2 16.8023 8.47066 13.0036
44 4 17.5743 10.9798 15.1847
154 2 17.8274 9.10179 15.6267
210 1 16.496 10.0194 16.1693
267 3 17.2416 11.0877 13.6727
305 3 18.3888 12.1599 15.9375
143 2 18.6801 7.36188 12.1041
188 2 20.8176 11.9155 12.4373
206 1 18.8211 7.12673 13.17
308 3 19.8693 9.42928 16.8453
38 4 20.6314 7.54382 13.4876
320 2 17.6975 9.24429 17.9285
194 1 14.186 6.44685 17.8885
95 2 13.0017 6.2246 15.5453
321 2 23.956 12.138 14.6352
142 2 18.6681 6.0282 13.4137
ITEM: TIMESTEP
100
ITEM: NUMBER OF ATOMS
371
ITEM: BOX BOUNDS xy xz yz pp pp pp
4.2379536921030159e-01 2.4339010739140758e+01 7.1704969100580049e+00
-7.6100078109605018e-01 1.3049914374414435e+01 2.7370919829300294e-01
2.4470688386626271e-01 1.8395593116133643e+01 -5.2598640668172791e-01
ITEM: ATOMS id type x y z
130 2 3.85347 0.841092 3.4213
93 2 11.5153 5.67833 6.91271
131 2 2.54858 1.21044 4.8873
202 1 2.78423 1.12679 3.73083
138 2 3.29864 3.82694 5.42775
103 2 2.47912 0.64076 6.43756
32 4 4.10949 4.39448 2.35059
333 2 5.80798 0.53836 5.8665
335 2 5.9382 2.27671 5.34525
137 2 4.88835 3.2176 4.83905
245 3 5.40635 3.52082 1.91569
204 1 4.79297 4.22 4.26564
208 1 5.24629 1.48435 5.77474
136 2 5.83426 4.5578 3.97577
74 2 4.36891 1.28144 5.02065
282 3 10.7082 4.23857 0.653772
132 2 7.35416 2.16745 3.23661
30 4 6.84218 2.8766 1.67389
159 2 7.69685 1.46649 5.05738
203 1 7.80387 4.43711 1.52968
134 2 6.94936 5.15862 1.85392
183 2 8.24161 5.39652 4.04923
102 2 2.27686 2.5954 6.14227
341 2 3.08268 3.68349 3.7264
133 2 8.57687 4.14733 2.41587
303 3 7.18854 5.97098 6.0983
158 2 8.83887 1.37651 7.42201
76 2 8.59873 0.0957636 8.84109
157 2 7.9867 3.52287 4.68857
211 1 8.46433 2.30051 4.77633
59 4 8.86504 2.94789 6.55622
182 2 9.75074 5.57162 5.13187
184 2 9.93787 5.62434 3.24982
220 1 9.22952 5.90158 4.1285
258 3 4.20715 5.99456 2.13507
192 1 2.14483 1.60798 6.89219
104 2 2.62054 1.78032 7.90254
250 3 4.16577 5.53355 7.32206
246 3 3.94636 3.61854 8.6669
149 2 4.7781 1.80658 6.78854
237 3 5.4299 1.30446 9.0848
33 4 4.87184 4.89847 8.54571
6 4 5.94219 -0.0775453 8.46549
171 2 8.09181 4.34192 7.51376
170 2 7.66443 2.0391 8.64357
81 2 6.46122 4.23361 8.13982
216 1 7.46444 2.65343 7.71213
101 2 7.22005 0.335853 7.02412
172 2 6.5892 2.25168 7.02316
287 3 10.6778 5.09785 6.68917
337 2 6.68358 -0.0423378 2.0908
3 2 2.31265 1.93976 3.07976
85 2 5.02454 6.07385 4.71315
342 2 4.31508 6.00423 0.300238
243 3 7.02891 2.07524 0.24614
10 4 1.97588 0.306359 10.8429
238 3 3.1804 1.21232 10.2961
224 3 2.32793 -0.395003 12.2822
26 4 4.38619 2.34355 9.84472
241 3 5.02167 3.0509 11.2372
285 3 5.02699 5.87908 9.8043
343 1 4.75073 5.6435 17.3219
160 2 8.65061 3.05923 11.0633
161 2 9.2272 4.79989 10.8097
212 1 9.54306 3.81411 11.1216
94 2 11.0059 5.06802 11.6372
127 2 5.6956 -0.205273 11.9227
78 2 2.45371 1.89628 16.2893
251 3 2.87227 2.60473 15.6772
340 2 3.86685 4.35799 16.4691
28 4 4.26446 1.44445 15.1053
252 3 4.62567 2.50337 13.8829
36 4 5.30176 5.04214 15.5427
29 4 5.64217 2.68223 12.6327
240 3 5.55124 1.35986 16.1232
239 3 3.7831 -0.0530046 14.5503
366 2 11.4887 5.86815 16.8305
319 2 7.82388 -0.311571 14.5743
165 2 6.55369 4.82703 12.8064
242 3 6.71159 1.0401 12.4498
135 2 8.20545 3.60012 17.83
213 1 6.86035 3.85888 13.335
163 2 7.93364 3.55649 13.0365
164 2 6.34711 3.61715 15.0191
24 4 7.05843 1.27911 16.5961
278 3 8.08367 2.17112 15.7285
27 4 8.09351 0.402642 13.0031
339 1 7.68367 -0.407637 16.2065
173 2 7.80238 5.55474 13.8336
367 2 9.71706 5.70243 16.8125
162 2 9.83671 3.81989 12.2292
53 4 9.48389 2.26228 14.8424
289 3 9.99576 3.91439 14.5965
276 3 9.17907 1.62397 13.1943
168 2 6.47978 5.34396 17.0138
271 3 9.53976 1.20806 9.7515
60 4 11.4536 4.41386 14.3778
56 4 9.69758 4.54898 18.338
356 2 9.85359 0.981922 17.922
338 2 8.61778 -0.584841 16.7671
254 3 1.72459 0.907943 18.3732
186 2 6.27231 8.12194 5.89194
122 2 8.53882 9.31423 3.29847
123 2 8.15567 8.33394 4.96717
199 1 8.88204 9.11256 4.37291
365 2 6.71159 8.27489 1.36828
20 4 12.7407 8.00133 9.11039
148 2 14.7001 11.7367 6.62365
191 1 15.1414 12.6425 8.22362
1 4 9.148 12.9624 2.8252
4 3 10.1116 12.2437 1.72517
370 3 8.84012 11.9465 4.01309
313 1 11.2971 9.88764 1.25456
309 4 11.0409 11.6103 0.595033
317 2 10.9909 10.0641 2.35212
331 2 11.1413 11.9821 5.83317
312 2 10.7615 8.8755 0.807487
334 1 10.7251 10.9569 6.14678
332 2 11.4418 10.094 5.72413
105 2 11.5627 7.79639 2.81356
98 2 9.06478 7.02988 4.12007
19 4 8.97905 10.815 5.25367
124 2 9.97421 8.81662 4.38161
361 2 9.08719 6.64506 1.39333
106 2 10.9629 6.78426 4.48489
310 2 12.4618 9.84211 1.07375
193 1 12.6629 7.38113 2.67627
146 2 12.5072 8.86589 3.99511
358 2 13.8345 11.0558 1.01143
40 4 14.0525 9.52828 4.51519
201 1 14.4508 12.037 0.972987
23 4 15.1411 12.2123 2.79254
88 2 14.6957 11.0228 9.13197
311 2 12.5898 12.4442 0.504083
221 1 6.87449 7.11382 5.96006
301 3 7.87369 10.8401 6.34421
64 4 6.97508 9.39036 8.57635
185 2 7.56476 8.31642 7.27864
235 3 12.0946 12.059 8.20136
21 4 11.0998 10.8196 7.89
234 3 11.8947 9.42211 8.41758
112 2 9.51494 11.0224 8.9456
323 2 8.77792 9.32679 8.76018
259 3 14.567 10.8161 3.79118
147 2 13.9503 9.73834 6.31896
256 3 5.03172 6.23641 14.4159
58 4 5.79763 7.17883 10.7046
297 3 6.27828 8.46445 9.65949
324 2 7.92879 10.3872 10.8342
325 1 7.91413 10.7017 9.69066
292 3 7.19072 6.69471 11.4463
110 2 8.54822 12.4957 9.58913
75 2 11.1362 11.7958 10.4423
22 4 12.1457 11.5696 11.7812
232 3 11.7547 7.23046 10.1329
291 3 9.63279 7.34846 11.7965
15 4 11.1393 6.7709 11.4743
264 3 13.3065 10.6206 11.4092
117 2 12.8511 8.35632 12.2924
100 2 14.1536 12.5861 9.82071
43 4 14.4582 9.96811 10.5715
97 2 6.23353 6.87921 17.9316
128 2 14.6566 12.0378 18.0368
268 3 15.7745 12.6399 11.9087
177 2 6.91467 9.6897 12.1754
61 4 8.1511 7.53834 12.4128
218 1 7.87905 9.48573 12.7095
174 2 7.84948 7.05888 14.8965
176 2 7.74036 9.75475 13.8192
63 4 7.06046 9.25978 17.6236
306 3 6.00256 8.94949 16.2258
217 1 8.33011 6.58874 14.0714
118 2 12.6954 6.61054 13.16
197 1 12.1988 7.58457 12.8204
8 4 10.1162 12.3418 13.6698
126 2 11.2407 8.4587 15.9389
236 3 11.2729 11.1088 13.0785
315 3 10.7936 10.9074 17.1786
314 4 9.64455 10.3205 16.1291
96 2 11.5072 8.04392 13.722
316 3 8.88296 11.4416 14.7149
200 1 10.4212 8.84046 15.2547
318 2 10.8774 9.58866 14.3523
175 2 9.47718 6.45342 14.1977
178 2 8.73229 10.0282 12.2092
362 1 10.2243 6.6405 18.2084
125 2 9.64855 7.8992 14.8114
363 2 9.89374 7.67758 17.9572
295 3 8.48365 9.63843 16.9055
116 2 11.3893 6.12055 14.3538
336 2 13.8358 12.3246 16.5781
169 2 8.27315 7.13588 18.242
215 1 7.17679 7.53326 18.3929
364 2 11.3708 6.53716 18.3636
47 4 9.80826 1.31929 3.93393
68 2 17.1641 0.359982 7.29297
280 3 10.4852 2.37136 2.8677
273 3 10.9505 0.858317 5.17564
55 4 11.3888 3.51397 2.06923
281 3 12.0856 4.69611 3.13106
350 2 11.3304 1.47437 0.589334
153 2 19.0686 3.84653 1.3955
7 4 16.6873 1.87866 6.64465
166 2 13.6465 3.27813 1.63734
11 4 16.0942 4.47332 2.72862
225 3 15.1188 3.47884 3.60191
226 3 15.305 5.38788 1.66339
223 3 16.2078 1.63419 5.18753
5 4 15.056 1.96737 4.08019
89 2 15.4007 0.840671 2.67902
51 4 12.6297 1.54808 5.70674
214 1 12.8279 2.52168 1.38688
272 3 13.6047 1.57788 4.4741
349 2 14.2406 0.579588 0.765022
351 1 15.136 0.117907 1.29606
360 2 12.7424 1.68089 2.23999
49 4 13.7785 -0.402462 8.01391
35 4 20.1259 5.56004 5.76904
2 2 16.9379 0.11997 2.10576
70 2 17.0841 3.30776 1.84425
244 3 17.0587 5.55716 3.43471
274 3 13.0612 0.619133 6.84347
209 1 18.2205 2.5241 0.462543
352 2 15.7618 0.397501 9.05714
12 4 12.4486 6.02421 3.97112
284 3 12.3667 2.98379 6.23428
283 3 11.2322 3.41607 8.80006
57 4 11.3935 3.81607 7.23445
229 3 14.9794 5.19741 7.22783
227 3 16.035 2.75585 7.74808
14 4 15.4386 4.14502 8.32242
72 2 13.3629 3.8023 9.14708
347 2 10.0594 -0.322506 5.92588
348 2 16.0335 -0.000318384 0.685756
249 3 18.7864 6.24231 5.27134
269 3 8.93133 0.0775693 3.33185
359 1 10.7554 0.364106 18.0893
329 2 16.7857 0.686205 16.0123
345 2 10.0484 0.44538 10.2717
50 4 10.7661 2.58402 10.241
288 3 14.2145 3.5627 9.69388
91 2 14.1977 3.46298 11.3267
279 3 11.9795 2.14176 11.288
355 2 14.4347 0.0649727 10.2677
69 2 16.2582 1.00261 10.9562
141 2 18.1175 3.53643 11.1159
195 1 17.2139 1.68992 11.0205
111 2 17.2553 2.30911 12.0953
34 4 17.3564 5.86379 10.3834
187 2 17.2944 2.36604 10.0367
140 2 19.3964 4.72839 10.318
205 1 18.618 4.62468 11.148
139 2 19.0768 4.90973 12.152
277 3 10.5947 1.37351 15.6414
48 4 11.4808 0.29888 16.3923
152 2 19.4459 5.91808 16.565
17 4 15.9278 4.16944 14.8466
231 3 15.2481 5.40003 13.9125
230 3 14.7931 3.06703 15.3017
253 3 16.9483 4.74717 16.0973
54 4 12.9685 2.75928 12.2356
326 2 15.7511 0.527634 17.6536
368 2 12.7244 4.35425 16.295
327 1 16.0134 1.15511 16.6601
92 2 13.7591 1.44545 13.0534
330 2 13.7842 5.59581 17.9739
9 4 14.4765 1.48852 15.7156
270 3 13.1787 1.05527 16.6845
275 3 14.5529 0.420276 14.0756
290 3 12.4769 3.82843 13.2683
37 4 17.9449 5.21987 17.19
328 2 16.3192 2.26297 16.9605
115 2 17.6926 3.90505 12.8176
151 2 18.7519 3.83971 17.9786
113 2 16.5479 2.37812 13.572
114 2 18.0936 3.01468 14.5373
196 1 17.2769 3.32209 13.8018
142 2 18.8412 5.84613 13.2036
353 2 14.5176 1.80246 9.49187
369 1 12.1966 5.34231 15.9492
354 1 14.692 0.611845 9.36047
357 2 10.5964 -0.752445 18.3214
247 3 16.5244 4.89661 9.32733
167 2 13.189 1.50625 18.3899
304 3 22.2294 11.9908 7.34444
71 2 13.5016 8.18173 2.67271
66 4 22.756 10.7715 6.57977
13 4 15.6556 6.60856 0.698871
83 2 14.9544 7.88647 4.18984
84 2 16.2882 9.3018 5.67388
207 1 15.3658 8.63056 5.80083
129 2 16.0559 11.5499 1.09251
344 2 19.7254 7.88642 7.43913
31 4 17.9202 6.73597 4.07159
257 3 18.6821 7.64246 2.9951
79 2 16.7621 7.83751 4.76212
261 3 17.4662 9.67538 0.947279
145 2 17.6491 8.75281 1.17817
42 4 18.6522 8.31229 8.92676
180 2 19.4583 11.0849 5.3332
39 4 20.2933 7.70799 2.35208
179 2 19.7949 11.5722 3.56979
219 1 19.597 10.7132 4.28057
260 3 20.1418 8.47359 0.935219
181 2 18.7876 10.0734 3.83963
371 3 20.0639 11.2776 1.08735
228 3 13.4641 6.299 5.19926
86 2 19.0026 9.84722 6.83543
293 3 21.3295 8.47329 3.41199
62 4 21.3428 9.89003 4.12352
46 4 21.7816 11.6119 1.58478
294 3 22.0112 11.1462 3.25056
302 3 21.9101 9.70553 5.98804
233 3 13.3043 7.16222 7.84966
80 2 15.6429 7.72513 6.50503
16 4 14.2627 6.55146 6.73194
41 4 19.573 9.84514 0.335726
150 2 17.2457 10.2556 6.91169
99 2 17.015 12.266 8.56147
25 4 16.4221 11.8461 6.99157
346 1 18.5376 8.78908 6.87496
87 2 17.0862 8.78285 7.91134
77 2 18.3603 8.49642 5.81573
107 2 12.725 6.68303 1.79995
299 3 19.9795 12.0174 9.03526
296 3 22.7518 10.8209 0.561205
120 2 13.862 6.97763 12.015
263 3 14.0977 8.52147 10.0595
52 4 22.1866 12.1842 14.2442
266 3 15.7751 9.955 11.4089
248 3 16.429 6.22898 11.6414
95 2 12.9725 6.103 15.5538
300 3 18.0371 11.5021 11.0478
45 4 16.7032 11.2729 12.0203
262 3 18.1925 6.9374 9.59584
65 4 19.4301 10.9898 10.2197
298 3 19.1918 9.52264 9.72357
222 1 20.85 11.0679 11.5348
190 2 20.6872 10.1143 12.1283
286 3 21.3832 7.61904 11.8934
189 2 21.7025 10.8789 10.7815
307 3 21.3723 11.2524 15.2379
265 3 20.6348 8.82121 14.2302
90 2 22.407 11.4868 12.687
108 2 14.8364 6.54572 16.6901
18 4 15.3805 6.49765 12.7974
73 2 15.6393 8.09945 14.8172
198 1 15.6259 8.12451 13.7083
119 2 14.8501 8.87354 13.3354
156 2 15.4083 10.09 15.2292
82 2 20.9245 6.67684 17.0361
67 4 21.1915 9.68599 15.6922
155 2 16.0336 10.7133 16.9543
144 2 18.3817 7.43825 14.1698
255 3 17.3259 6.30045 18.1627
121 2 16.6874 8.34396 13.2472
44 4 17.6188 10.7353 15.0788
154 2 17.4628 9.01112 16.0715
210 1 16.2418 10.1512 16.023
267 3 17.1076 10.8563 13.6383
305 3 18.3028 11.95 15.9094
143 2 18.574 7.42503 12.362
188 2 20.8638 12.0334 12.1484
206 1 18.9359 6.99092 13.2857
308 3 20.0431 9.46794 16.8835
38 4 20.7461 7.49057 13.4397
320 2 17.7416 9.11813 17.9234
194 1 14.5558 6.42553 17.8088
321 2 23.9234 12.0912 14.4318
322 2 23.4731 11.4615 9.50529
109 2 14.1868 7.45913 18.3108
ITEM: TIMESTEP
200
ITEM: NUMBER OF ATOMS
371
ITEM: BOX BOUNDS xy xz yz pp pp pp
4.2379536921030159e-01 2.4339010739140758e+01 7.1704969100580049e+00
-7.6100078109605018e-01 1.3049914374414435e+01 2.7370919829300294e-01
2.4470688386626271e-01 1.8395593116133643e+01 -5.2598640668172791e-01
ITEM: ATOMS id type x y z
130 2 3.70091 1.31111 3.28381
93 2 11.3412 5.87328 7.04761
131 2 2.44559 1.28363 4.8182
202 1 2.6172 1.30938 3.63
138 2 3.42464 3.88127 5.59624
103 2 2.26421 0.27899 6.18596
32 4 4.20382 4.39413 2.3366
333 2 5.15719 0.43755 6.18178
335 2 6.17601 1.77612 5.13254
137 2 4.93633 3.34522 4.91253
245 3 5.40732 3.53211 1.87609
204 1 4.81648 4.4139 4.29726
208 1 5.11033 1.49819 5.71519
136 2 5.81943 4.81152 4.04501
74 2 4.21666 1.48825 4.95675
282 3 10.584 4.31593 0.818525
132 2 7.60343 2.4608 3.1303
30 4 6.86708 2.99207 1.6759
159 2 7.48552 2.0569 4.81868
203 1 7.76462 4.61887 1.52883
134 2 6.92149 5.2665 1.8027
183 2 8.22947 5.50668 3.9266
102 2 2.47669 2.27646 6.27782
341 2 3.10161 3.85024 3.74754
133 2 8.53527 4.29182 2.4166
303 3 7.19971 6.02046 5.9619
158 2 8.57581 1.40943 7.54329
76 2 8.71225 -0.0683562 8.90754
157 2 8.95101 3.63749 4.51755
211 1 8.59301 2.36469 4.81465
59 4 8.91927 2.96629 6.63679
182 2 9.72238 5.58959 5.10115
184 2 9.92605 5.60042 3.2642
220 1 9.27588 5.98666 4.07902
258 3 4.14912 6.00518 1.99818
192 1 2.13194 1.21749 6.83767
104 2 2.53608 1.1337 7.90916
250 3 4.24665 5.72692 7.39277
246 3 4.02175 3.74994 8.95279
149 2 4.99216 2.27336 6.54889
237 3 5.50505 1.31795 8.92119
33 4 4.8846 5.05212 8.62244
6 4 5.9767 -0.182908 8.59504
171 2 8.14772 4.4098 7.56375
170 2 7.4686 2.30736 8.63655
81 2 6.51119 4.46928 8.1313
216 1 7.30883 2.83046 7.6281
101 2 7.13886 0.0493983 7.12512
172 2 6.46793 2.36811 6.88357
287 3 10.4869 5.32063 6.74961
153 2 2.71069 3.66166 1.56925
3 2 1.90464 2.02277 3.07223
85 2 5.03106 6.18306 4.83313
337 2 6.5998 -0.191047 2.26275
243 3 7.04702 1.96071 0.394706
1 4 2.00474 -0.29267 2.88964
10 4 1.97644 0.539386 10.9064
238 3 3.11733 1.46575 10.2322
224 3 2.22288 -0.131114 12.2507
26 4 4.42383 2.30503 9.78371
241 3 5.3042 2.82247 11.155
285 3 5.17137 5.97757 9.81956
343 1 4.90313 5.67471 17.2062
160 2 8.65857 3.10489 11.0646
161 2 9.49481 4.78622 10.5643
212 1 9.60212 3.79567 11.1742
94 2 11.0959 5.04769 11.2231
127 2 5.80418 -0.393234 12.4533
78 2 2.19588 1.9277 16.1589
251 3 2.72103 2.64361 15.6649
340 2 4.11812 4.10235 16.5972
28 4 4.10874 1.50791 15.059
252 3 4.50405 2.34408 13.69
36 4 5.33808 4.96635 15.5452
29 4 5.69553 2.55508 12.6111
240 3 5.45145 1.46262 16.0738
239 3 3.71548 0.0334496 14.469
366 2 11.6456 5.6768 16.5454
319 2 7.75717 -0.646261 14.5239
165 2 6.24244 4.84202 12.7808
242 3 6.7832 0.929849 12.5965
135 2 8.07778 3.75743 17.8832
213 1 6.77688 3.95358 13.2502
163 2 7.84204 3.7131 13.0207
164 2 6.43857 3.57116 14.9071
24 4 7.09902 1.25861 16.725
278 3 8.03955 2.33746 16.0007
27 4 8.14874 0.268928 13.0416
339 1 7.59585 -0.454533 16.2877
173 2 7.78209 5.73176 14.1587
367 2 9.75957 5.60516 16.5237
162 2 9.90951 3.96235 12.2314
53 4 9.46945 2.22842 14.882
289 3 10.0964 3.75155 14.6873
276 3 9.06854 1.46731 13.4673
168 2 6.66085 5.67766 16.6712
254 3 1.78272 0.857058 18.2578
60 4 11.525 4.33432 14.3444
56 4 9.68243 4.60832 18.3388
338 2 8.61964 -0.568835 16.781
342 2 4.88972 5.61208 18.3912
186 2 6.35852 8.23904 6.06382
122 2 8.19169 9.50407 3.18036
123 2 8.0071 8.37896 4.81645
199 1 8.72157 9.17821 4.14424
365 2 6.74217 8.43324 1.31719
20 4 12.688 8.04429 8.91905
148 2 14.6202 11.581 6.76602
191 1 15.2233 12.4581 8.3889
323 2 8.89721 9.3015 8.84481
4 3 10.28 12.2497 1.70126
370 3 9.15513 12.0393 4.12922
313 1 11.2588 9.78665 0.961268
309 4 11.0964 11.5929 0.536387
317 2 10.9039 9.87969 2.08023
331 2 11.5095 11.4034 5.57195
312 2 10.6195 9.00601 0.375392
334 1 10.8513 10.5834 6.0126
332 2 11.2766 9.55589 5.71927
105 2 11.9225 7.8274 2.44566
98 2 9.12648 7.13971 4.08847
19 4 9.03294 10.7654 5.14301
124 2 9.79424 8.80239 3.98241
361 2 9.1037 6.7738 1.11303
106 2 10.988 6.96134 4.29181
310 2 12.3919 9.65736 0.884092
215 1 6.93522 8.07005 0.306181
146 2 12.5484 9.08721 3.77883
358 2 14.1738 11.0452 1.15795
147 2 13.869 9.66854 6.37267
201 1 14.6338 12.0205 1.06458
23 4 15.2244 12.1781 2.96961
40 4 14.052 9.55521 4.55225
311 2 12.7609 12.2148 0.599159
221 1 6.97374 7.18456 6.07478
301 3 7.92052 10.8641 6.26838
64 4 7.06577 9.36249 8.66554
185 2 7.72267 8.41702 7.2108
235 3 12.1639 11.9676 8.17548
21 4 11.1144 10.6887 7.77396
234 3 11.744 9.36154 8.29586
112 2 9.33768 10.945 8.51896
256 3 4.73145 6.04479 14.5048
58 4 5.73457 7.09042 10.7069
297 3 6.22353 8.40921 9.52978
324 2 7.97696 10.2378 10.7338
325 1 8.00726 10.6949 9.67405
292 3 7.03774 6.83395 11.508
110 2 8.57347 12.573 9.82998
75 2 11.4399 12.0573 10.6115
22 4 12.2521 11.4537 11.9145
232 3 11.7657 7.13183 9.91441
291 3 9.81464 7.4088 11.8226
15 4 11.2041 6.80915 11.345
264 3 13.3663 10.5411 11.3182
117 2 12.9752 8.14579 12.1398
100 2 14.1769 12.5405 9.93545
322 2 7.1557 11.5033 9.41195
97 2 6.28232 6.82845 17.9963
128 2 14.8047 11.9644 18.1319
169 2 8.36989 7.1193 18.1816
177 2 6.94872 9.53849 11.8889
61 4 8.35625 7.43961 12.3588
218 1 7.88595 9.28711 12.5367
174 2 7.83279 7.45754 14.9213
176 2 7.61335 9.17827 13.6929
63 4 6.97757 9.20686 17.5192
306 3 5.9802 8.90407 16.2728
217 1 8.33389 6.7175 14.2437
364 2 11.3272 6.54964 17.8651
197 1 12.3245 7.46623 12.8589
8 4 10.0792 12.231 13.7249
126 2 11.2706 8.73268 15.885
236 3 11.1376 10.967 12.9714
315 3 10.6948 11.0055 17.2144
314 4 9.62558 10.3785 16.1415
96 2 11.6707 8.01033 13.7002
316 3 8.9992 11.5756 14.6704
200 1 10.4374 9.0267 15.1355
318 2 10.7614 9.77447 14.1864
175 2 9.39931 6.54441 14.5163
178 2 8.74325 10.0718 12.4821
362 1 10.241 6.51708 17.721
125 2 9.63268 8.14142 14.8229
363 2 9.88338 7.52081 17.4176
295 3 8.42373 9.67116 16.8616
116 2 11.4294 6.0677 14.454
336 2 13.9979 12.1176 16.7434
47 4 9.86957 1.33782 3.97652
68 2 17.0613 0.185987 7.37203
280 3 10.5046 2.44153 2.90757
273 3 10.9748 0.849692 5.07749
55 4 11.5204 3.5044 2.16706
281 3 12.0321 4.79053 3.27026
350 2 11.4401 1.32996 0.618504
269 3 9.01105 0.0136349 3.50633
7 4 16.7539 1.74212 6.67493
166 2 13.7572 3.32664 1.43402
11 4 16.1763 4.53681 2.67329
225 3 15.4335 3.35789 3.44952
226 3 15.2325 5.34418 1.61289
223 3 16.05 1.56865 5.2561
5 4 15.0058 2.00778 4.11822
89 2 15.3558 0.67639 2.95114
51 4 12.5363 1.62855 5.64909
214 1 12.9053 2.51748 1.39675
272 3 13.529 1.66032 4.42905
349 2 14.2354 0.60824 0.899413
351 1 15.0853 0.0817992 1.45464
360 2 12.9891 1.67092 2.17722
49 4 13.6277 -0.285392 7.98228
35 4 20.0981 5.59936 5.88011
2 2 16.8673 -0.018249 2.31191
70 2 17.3434 3.74559 1.58631
244 3 17.06 5.56785 3.45467
274 3 13.0777 0.732066 6.87176
209 1 18.2159 2.42295 0.563676
347 2 10.0323 -0.101357 6.23363
12 4 12.4526 6.10435 3.98315
284 3 12.1536 3.05365 6.23854
283 3 11.0504 3.33392 8.77092
57 4 11.213 3.9288 7.23788
229 3 14.9225 5.21646 7.32706
227 3 16.1456 2.82247 7.59649
14 4 15.404 4.08766 8.31687
72 2 13.3528 3.58279 9.02678
348 2 15.9917 -0.0400819 0.80683
228 3 13.4427 6.23214 5.26668
167 2 12.7744 2.1868 0.307013
356 2 9.56672 1.0617 0.293159
359 1 10.8697 0.122002 18.2502
329 2 16.7959 0.621767 16.2378
345 2 10.224 0.398852 10.2581
50 4 10.7523 2.5861 10.1835
288 3 14.1407 3.45338 9.65312
91 2 14.2121 3.33983 11.2751
279 3 11.9358 2.05114 11.1876
355 2 13.9077 0.0419294 10.3743
69 2 16.1798 0.91291 11.0682