ITEM: TIMESTEP
0
ITEM: NUMBER OF ATOMS
371
ITEM: BOX BOUNDS xy xz yz pp pp pp
4.2379536921030159e-01 2.4443985112476891e+01 7.1080240987954149e+00
-7.6100078109605018e-01 1.3049914374414435e+01 2.7644629027593298e-01
2.4470688386626271e-01 1.8395593116133643e+01 -5.2598640668172791e-01
ITEM: ATOMS id type x y z
130 2 3.88151 0.839633 3.43068
93 2 11.6563 5.56677 6.92216
131 2 2.57827 1.17346 4.89043
202 1 2.79073 1.03806 3.70416
138 2 3.36911 3.77656 5.5202
103 2 3.05871 0.711088 6.60478
32 4 4.22393 4.42315 2.27844
333 2 5.67334 0.406163 6.016
335 2 6.05797 2.13109 5.28834
137 2 4.97441 3.23053 4.88577
245 3 5.33329 3.43014 1.74337
204 1 4.8525 4.20906 4.39353
208 1 5.26229 1.44346 5.78082
136 2 5.89196 4.71128 4.39476
74 2 4.32001 1.31343 5.05273
282 3 10.8512 4.16905 0.606032
132 2 7.52073 2.27596 2.98156
30 4 6.85339 2.91299 1.55718
159 2 7.66679 1.50793 4.59099
203 1 7.84374 4.46656 1.4968
134 2 7.0904 5.26107 1.76505
183 2 8.22721 5.26171 4.0952
102 2 2.32538 2.51443 6.30964
341 2 3.18063 3.90634 3.68188
133 2 8.51425 4.16136 2.46336
303 3 6.97712 6.00493 6.20471
158 2 8.86415 1.47588 7.39615
76 2 8.77971 0.0987795 8.98624
157 2 8.2621 3.41867 4.30844
211 1 8.60189 2.34109 4.68208
59 4 8.97058 2.99203 6.47268
182 2 9.74812 5.42221 5.10117
184 2 9.79311 5.59384 3.25937
220 1 9.18747 5.83517 4.17055
258 3 4.21592 5.99577 2.01835
192 1 2.14495 1.3945 6.88804
104 2 2.19094 1.57831 8.05808
250 3 4.22693 5.674 7.32831
246 3 3.97938 3.53765 8.95111
149 2 4.96682 1.96046 6.75055
237 3 5.63077 1.35089 8.92397
33 4 4.8848 4.89313 8.56774
6 4 6.10201 -0.123168 8.66181
171 2 8.46032 4.39701 7.4824
170 2 7.66655 2.15643 8.60644
81 2 6.49649 4.31516 8.05402
216 1 7.51623 2.76361 7.67677
101 2 7.20436 0.0920326 7.08647
172 2 6.61429 2.3122 6.99777
287 3 10.7864 5.06741 6.62549
243 3 7.23938 1.99519 0.257816
3 2 2.20891 1.90123 3.08476
85 2 5.05303 6.12894 4.61818
56 4 9.53739 5.05801 0.309967
35 4 3.73982 5.55898 5.69885
10 4 1.92317 0.342713 10.9717
238 3 3.20418 1.27741 10.3613
224 3 2.11769 -0.291839 12.432
26 4 4.42789 2.30747 9.86208
241 3 5.00344 3.00869 11.2622
285 3 5.09644 5.86266 9.74135
343 1 4.89907 5.80819 17.0847
160 2 8.715 3.09449 11.1931
161 2 9.19803 4.88325 10.8123
212 1 9.60274 3.93976 11.3165
94 2 11.1934 5.07593 11.2191
127 2 5.74207 -0.126328 11.8473
78 2 2.28156 1.64865 16.2384
251 3 2.8554 2.45999 16.0175
340 2 4.39475 4.26092 16.2251
28 4 4.28655 1.56569 15.1847
252 3 4.62171 2.35653 13.8913
36 4 5.58605 5.28824 15.4028
29 4 5.64668 2.68565 12.6015
240 3 5.57059 1.44907 16.2399
239 3 3.78466 0.0660827 14.6509
342 2 4.80948 5.71672 18.1564
319 2 7.73911 -0.176557 14.4397
165 2 6.03119 4.99406 12.7119
242 3 6.7756 1.13766 12.2016
135 2 8.32795 3.67369 17.819
213 1 6.78468 4.08406 13.0239
163 2 7.83964 4.06872 12.377
164 2 6.86787 3.90257 14.6943
24 4 7.16197 1.20487 16.6074
278 3 8.15265 2.15821 15.7612
27 4 8.10407 0.526459 12.8587
339 1 7.59726 -0.47793 16.0297
173 2 7.57782 5.71885 13.8701
367 2 9.88083 5.71708 16.8271
162 2 9.98842 4.04578 12.3885
53 4 9.48093 2.182 14.7537
289 3 10.0999 3.94707 14.7039
276 3 9.20887 1.76363 13.2059
168 2 6.70299 5.90697 16.7369
271 3 9.73935 1.31129 9.69523
60 4 11.4759 4.57427 14.5436
186 2 6.05915 8.13994 5.87061
122 2 8.79142 9.21437 3.39799
123 2 7.98498 8.29899 4.99815
199 1 8.85761 9.04783 4.5518
365 2 6.59651 8.56086 1.40693
20 4 12.7323 8.02975 8.97813
148 2 14.8202 11.5035 6.87702
191 1 15.2233 12.5845 8.36668
1 4 9.03021 12.9012 2.86156
4 3 9.96783 12.2967 1.75368
370 3 8.93275 11.8317 4.09181
313 1 11.0665 9.80651 1.34761
309 4 11.0376 11.5217 0.593572
317 2 10.5271 10.103 2.37092
331 2 11.3585 11.6948 5.83123
312 2 10.6743 8.85686 0.803874
334 1 10.915 10.7525 6.15828
332 2 11.6167 9.8302 5.87333
105 2 11.5855 7.90633 2.84985
98 2 8.98324 6.98848 4.27491
19 4 8.92963 10.7282 5.29968
124 2 9.9134 8.71587 4.93337
361 2 9.17267 6.63421 1.39027
106 2 10.8495 6.73022 4.81761
310 2 12.2831 9.76696 1.46196
193 1 12.6215 7.48223 2.74248
146 2 12.4758 8.90783 4.08054
358 2 13.9067 11.0124 0.697625
215 1 6.89898 8.14774 0.382186
201 1 14.5707 11.954 0.795086
23 4 15.1509 12.1575 2.70427
337 2 13.6336 12.9695 2.00784
311 2 12.6415 12.2402 0.730916
221 1 6.60811 7.065 5.80307
301 3 7.799 10.7437 6.47951
64 4 6.76848 9.25555 8.60728
185 2 7.20931 8.21981 7.23882
235 3 12.0035 12.1245 8.42383
21 4 11.194 10.7799 7.94132
234 3 12.0063 9.35131 8.41669
112 2 9.52323 10.8656 8.87424
323 2 8.60246 9.11402 8.79718
259 3 14.5518 10.8284 3.71194
147 2 13.9244 9.55138 6.37968
88 2 14.9259 10.8698 9.22455
169 2 8.08073 7.83816 0.280679
256 3 4.89856 6.31822 14.338
58 4 5.60615 7.13934 10.6751
297 3 5.92748 8.33993 9.68691
324 2 7.74722 10.1549 10.7667
325 1 7.87809 10.6252 9.63988
292 3 7.09031 6.72145 11.425
110 2 8.78541 12.3261 9.78887
75 2 11.1362 12.057 10.383
22 4 12.1428 11.6086 11.6985
232 3 11.8213 7.22545 10.003
291 3 9.81949 7.50172 11.8958
15 4 11.2353 6.8383 11.4304
264 3 13.2303 10.5737 11.2717
117 2 13.2297 8.24331 12.2962
100 2 14.3049 12.6143 10.0569
366 2 11.5959 5.99031 16.8609
97 2 6.33457 6.89474 18.027
128 2 14.8753 11.9917 17.9199
268 3 15.8123 12.5481 12.0513
177 2 6.69861 9.49989 11.9494
61 4 8.16335 7.52753 12.4
218 1 7.59992 9.36855 12.6498
174 2 7.40685 7.39303 14.773
176 2 7.3592 9.37055 13.8109
63 4 7.09815 9.25853 17.4569
306 3 6.01743 9.09724 16.1827
217 1 8.14138 6.68232 14.2133
364 2 11.3263 6.67766 18.3202
197 1 12.4151 7.56541 12.7064
8 4 10.1613 12.2396 13.8144
126 2 11.2828 8.52956 15.6395
236 3 11.209 11.1574 12.9755
315 3 10.7447 10.7972 17.1788
314 4 9.67249 10.2512 16.1655
96 2 11.7081 8.11922 13.5111
316 3 8.93203 11.5665 14.8561
200 1 10.4144 8.91178 15.0326
318 2 10.7829 9.56569 14.1625
175 2 9.07646 6.46633 14.7833
178 2 8.43755 10.0971 12.4475
362 1 10.2248 6.66029 18.1253
125 2 9.59544 8.00158 14.7176
363 2 9.8491 7.74124 17.9481
295 3 8.56685 9.44393 16.9627
116 2 11.3539 6.30861 14.4856
336 2 13.7631 12.1404 16.2472
322 2 7.11955 11.4099 9.359
338 2 15.6582 12.5233 16.5367
43 4 14.467 9.89749 10.5662
47 4 9.93209 1.35946 3.85901
68 2 17.1761 0.358962 7.40475
280 3 10.6713 2.48359 2.81193
273 3 10.9031 0.886521 5.12756
55 4 11.617 3.5133 2.05283
281 3 12.1559 4.8192 3.12503
350 2 11.5097 1.35989 0.554694
254 3 17.8681 1.6005 0.431521
7 4 16.8082 1.8758 6.62277
166 2 13.8738 3.10127 1.73697
11 4 16.2259 4.52126 2.73622
225 3 15.3335 3.53124 3.69077
226 3 15.2274 5.35449 1.65485
223 3 16.2048 1.7421 5.18827
5 4 15.0822 2.01225 4.17766
89 2 15.4742 0.929419 2.73118
51 4 12.6669 1.37519 5.68495
214 1 13.0058 2.34275 1.4289
272 3 13.6779 1.32429 4.46171
349 2 14.317 0.359842 0.490147
351 1 15.2435 0.0433079 1.19693
360 2 13.0045 1.43438 2.05868
167 2 12.9438 2.10087 0.327371
247 3 16.8001 4.90552 9.17472
2 2 16.9433 -0.0988612 2.20972
70 2 17.3343 3.51427 1.80214
244 3 17.3429 5.3785 3.47936
274 3 13.1226 0.489838 6.91212
209 1 18.3692 2.63878 0.41196
352 2 16.0468 0.572025 8.8741
12 4 12.3354 6.1255 4.04919
284 3 12.5135 2.86017 6.23624
283 3 11.2324 3.37463 8.7707
57 4 11.4214 3.71896 7.20318
229 3 15.076 5.29428 7.29369
227 3 16.276 2.95388 7.63344
14 4 15.6304 4.2555 8.35065
72 2 13.5818 3.8546 9.15862
347 2 10.2712 -0.286417 6.15444
348 2 16.2504 -0.100824 0.639171
354 1 14.99 0.74473 9.27477
269 3 8.98369 0.041505 3.25267
153 2 19.3104 3.91864 1.42881
353 2 14.6276 1.83092 9.25251
359 1 10.9002 0.352529 18.0369
329 2 17.03 0.40033 15.975
345 2 9.86628 0.644086 10.515
50 4 10.8319 2.66326 10.3758
288 3 14.4336 3.7831 9.78948
91 2 14.4394 3.51464 11.4248
279 3 12.004 2.3424 11.3414
355 2 14.7738 0.222247 10.3258
69 2 16.2629 0.627017 11.1858
141 2 18.2705 3.28162 11.1605
195 1 17.104 1.47798 11.1589
111 2 17.1648 2.02994 12.2131
34 4 17.6422 5.62073 10.3535
187 2 17.2636 2.10415 10.1863
140 2 19.6786 4.4755 10.7417
205 1 18.7232 4.35483 11.3327
139 2 18.8842 4.67309 12.3968
277 3 10.782 1.34222 15.4026
48 4 11.5991 0.368573 16.3293
369 1 12.3243 5.47521 16.0039
17 4 16.13 4.18806 14.7652
231 3 15.5471 5.41158 13.7199
230 3 14.9234 3.02659 15.2458
253 3 17.0443 4.90517 15.8966
54 4 13.147 2.82935 12.348
326 2 15.9787 0.382821 17.5595
368 2 12.8212 4.48699 16.3997
327 1 16.262 0.926122 16.5669
92 2 13.8673 1.48993 13.118
330 2 13.5294 5.53323 17.9527
9 4 14.7191 1.40592 15.6383
270 3 13.2933 1.14691 16.5795
275 3 14.7409 0.303965 14.0664
290 3 12.4409 3.92 13.3559
37 4 17.9879 5.34918 17.0899
328 2 16.635 2.07259 16.814
115 2 17.9197 3.4334 12.9824
151 2 18.4045 3.90821 17.9313
113 2 16.7263 2.12717 13.7884
114 2 18.2086 2.78555 14.8035
196 1 17.3987 3.03126 13.9583
356 2 10.0198 1.082 17.8862
152 2 19.635 5.92786 16.7127
357 2 10.5566 -0.610763 18.392
304 3 22.0504 11.8366 7.37509
109 2 13.7195 7.98573 0.482351
66 4 22.8569 10.6654 6.64989
13 4 15.4779 6.56276 0.614679
83 2 15.0239 7.93055 4.10072
84 2 16.1913 9.18264 5.58612
207 1 15.329 8.53678 5.82053
129 2 15.9801 11.4872 1.20847
344 2 20.0806 7.83165 7.50975
31 4 18.005 6.75827 4.0228
257 3 18.6248 7.61903 2.82689
79 2 16.7426 7.64935 4.76764
261 3 17.5249 9.77405 0.930866
145 2 17.5638 8.82512 1.14959
42 4 18.9766 8.22047 8.98698
180 2 19.1999 10.6012 5.28345
39 4 20.2668 7.64478 2.25376
179 2 19.6892 11.5739 3.75919
219 1 19.5376 10.5296 4.25865
260 3 20.3152 8.42294 0.808121
181 2 18.7579 9.90762 3.70532
371 3 20.1145 11.1809 1.17768
40 4 14.0929 9.42721 4.46936
86 2 19.0532 9.79953 7.01622
293 3 21.1991 8.45054 3.29743
62 4 21.3375 9.96812 4.09286
46 4 21.9351 11.5274 1.48266
294 3 22.2871 11.0911 3.21384
302 3 21.9766 9.71958 5.83719
233 3 13.21 7.09714 7.76024
80 2 15.6692 7.72927 6.68097
16 4 14.2978 6.54527 6.69421
41 4 19.6284 9.85217 0.311037
150 2 17.1918 10.1936 7.05242
99 2 17.0426 12.1594 8.86522
25 4 16.5813 11.8489 7.16258
346 1 18.5985 8.79131 7.03693
87 2 17.2603 8.66464 7.98134
77 2 18.3035 8.38595 6.00942
249 3 19.0125 6.34252 5.20577
49 4 21.1191 12.8118 8.18568
228 3 13.4675 6.3279 5.08974
296 3 22.8891 10.7931 0.362572
107 2 12.7433 6.70847 1.87828
71 2 13.3969 8.28904 2.54497
299 3 20.1204 12.0128 9.27759
120 2 14.0012 6.78919 11.781
263 3 14.2722 8.50474 9.9681
52 4 22.3399 12.0944 14.2783
266 3 15.7523 10.0759 11.5255
248 3 16.7565 6.26155 11.6115
118 2 12.8156 6.44109 13.1136
300 3 18.0487 11.5952 11.1031
45 4 16.7886 11.2764 12.0736
262 3 18.4188 6.88397 9.68514
65 4 19.4977 11.0407 10.3929
298 3 19.2641 9.58344 9.76279
222 1 20.7955 10.9227 11.7963
190 2 20.4375 10.0553 12.4069
286 3 21.2944 7.53469 11.8708
189 2 21.7714 10.7715 11.2211
307 3 21.5091 11.3117 15.2857
265 3 20.7175 8.90463 14.4057
90 2 22.4916 11.1454 12.8624
108 2 14.5411 6.73971 16.7838
18 4 15.4758 6.63072 12.6714
73 2 16.1107 7.95327 14.7258
198 1 15.9059 8.15357 13.6404
119 2 14.9742 8.77131 13.3935
156 2 15.4959 9.84285 15.7615
82 2 21.0005 6.81218 16.7868
67 4 21.0953 9.73066 15.7204
155 2 16.5798 10.562 17.2515
144 2 18.3122 7.78334 13.8491
255 3 17.18 6.37476 17.9984
121 2 16.8744 8.47066 13.0036
44 4 17.6282 10.9798 15.1847
154 2 17.9027 9.10179 15.6267
210 1 16.5485 10.0194 16.1693
267 3 17.2914 11.0877 13.6727
305 3 18.4387 12.1599 15.9375
143 2 18.7825 7.36188 12.1041
188 2 20.8952 11.9155 12.4373
206 1 18.9269 7.12673 13.17
308 3 19.9613 9.42928 16.8453
38 4 20.751 7.54382 13.4876
320 2 17.7693 9.24429 17.9285
194 1 14.2509 6.44685 17.8885
95 2 13.0578 6.2246 15.5453
321 2 24.0621 12.138 14.6352
142 2 18.7834 6.0282 13.4137
ITEM: TIMESTEP
100
ITEM: NUMBER OF ATOMS
371
ITEM: BOX BOUNDS xy xz yz pp pp pp
4.2379536921030159e-01 2.4443985112476891e+01 7.1080240987954149e+00
-7.6100078109605018e-01 1.3049914374414435e+01 2.7644629027593298e-01
2.4470688386626271e-01 1.8395593116133643e+01 -5.2598640668172791e-01
ITEM: ATOMS id type x y z
130 2 3.88009 0.821268 3.47218
93 2 11.5876 5.64675 6.94213
131 2 2.5301 1.20578 4.90207
202 1 2.80556 1.1081 3.74834
138 2 3.29339 3.86761 5.3913
103 2 2.4431 0.687266 6.43725
32 4 4.12798 4.39181 2.36152
333 2 5.86343 0.578644 5.83459
335 2 5.93429 2.32472 5.35712
137 2 4.90696 3.24327 4.85987
245 3 5.44098 3.54772 1.93739
204 1 4.79988 4.24924 4.28791
208 1 5.28177 1.50219 5.77176
136 2 5.83 4.61843 4.01769
74 2 4.40072 1.28841 5.02314
282 3 10.7709 4.24624 0.669356
132 2 7.43764 2.20333 3.22381
30 4 6.8667 2.88979 1.67535
159 2 7.78176 1.46307 5.01638
203 1 7.85909 4.4372 1.5304
134 2 6.9698 5.17094 1.85587
183 2 8.31001 5.38872 4.0533
102 2 2.26278 2.62978 6.14029
341 2 3.106 3.66759 3.70116
133 2 8.62129 4.1371 2.408
303 3 7.1856 5.96768 6.08302
158 2 8.89961 1.39682 7.4233
76 2 8.6488 0.124712 8.82314
157 2 8.04123 3.50257 4.64415
211 1 8.53325 2.29246 4.78816
59 4 8.90737 2.95012 6.56362
182 2 9.80438 5.57782 5.14235
184 2 10.0016 5.65641 3.27405
220 1 9.27229 5.90728 4.14894
258 3 4.16255 5.98475 2.12884
192 1 2.10831 1.63991 6.89682
104 2 2.58287 1.82377 7.89757
250 3 4.13706 5.52628 7.30942
246 3 3.96749 3.59779 8.67511
149 2 4.79976 1.77883 6.78473
237 3 5.45043 1.3052 9.08837
33 4 4.87073 4.89297 8.53154
6 4 5.99038 -0.0633841 8.45568
171 2 8.0718 4.38579 7.50644
170 2 7.70579 2.07227 8.61313
81 2 6.43319 4.25338 8.08221
216 1 7.4927 2.69298 7.69751
101 2 7.26222 0.347715 6.99883
172 2 6.61971 2.29571 6.98929
287 3 10.7397 5.08531 6.68235
243 3 7.03644 2.08398 0.263434
3 2 2.37019 1.92451 3.05059
85 2 4.95682 6.13723 4.70742
153 2 2.6315 3.74518 1.40056
337 2 6.69179 -0.0358281 2.11348
342 2 4.27877 6.01389 0.274885
10 4 2.01829 0.28614 10.855
238 3 3.20641 1.21893 10.309
224 3 2.36865 -0.402281 12.2771
26 4 4.40479 2.32592 9.82911
241 3 5.06524 3.02811 11.2325
285 3 5.03041 5.87236 9.79185
343 1 4.70941 5.64083 17.3019
160 2 8.73351 3.09356 11.094
161 2 9.3473 4.81749 10.8581
212 1 9.61959 3.8049 11.1476
94 2 11.0231 5.08184 11.6688
127 2 5.71185 -0.187951 11.9928
78 2 2.56777 1.97721 16.3465
251 3 2.87649 2.60749 15.6214
340 2 3.82147 4.33204 16.4803
28 4 4.28471 1.43681 15.1054
252 3 4.6707 2.49341 13.878
36 4 5.26057 5.04289 15.5398
29 4 5.68696 2.65717 12.6265
240 3 5.59065 1.36287 16.1118
239 3 3.80077 -0.0574746 14.5472
366 2 11.5133 5.87631 16.821
319 2 7.93378 -0.337234 14.5877
165 2 6.6029 4.80381 12.8017
242 3 6.78895 1.02362 12.4558
135 2 8.23852 3.58208 17.8408
213 1 6.91024 3.82635 13.3403
163 2 7.96339 3.5162 13.027
164 2 6.3699 3.65083 15.0119
24 4 7.08805 1.29464 16.5888
278 3 8.12979 2.16899 15.7318
27 4 8.16351 0.398751 13.0039
339 1 7.74156 -0.422273 16.2172
173 2 7.82764 5.51743 13.8427
367 2 9.73557 5.67367 16.7918
162 2 9.95627 3.78427 12.2377
53 4 9.55043 2.24875 14.8473
289 3 10.0593 3.89223 14.5829
276 3 9.23484 1.62149 13.1928
56 4 9.73203 4.5499 18.3448
271 3 9.60158 1.21762 9.7371
60 4 11.5113 4.41184 14.3797
338 2 8.63697 -0.660303 16.7908
168 2 6.44098 5.30735 17.0042
254 3 1.7174 0.901143 18.3669
186 2 6.23331 8.08895 5.87878
122 2 8.59002 9.24149 3.2937
123 2 8.11088 8.34022 4.97992
199 1 8.83617 9.12969 4.38747
365 2 6.69632 8.31265 1.35398
20 4 12.7707 8.01367 9.11236
148 2 14.6948 11.7513 6.57497
191 1 15.138 12.6612 8.20201
1 4 9.10524 12.9587 2.82139
4 3 10.0778 12.2364 1.71154
370 3 8.79664 11.9429 4.00221
313 1 11.275 9.86878 1.249
309 4 10.9976 11.6189 0.597148
317 2 10.9724 10.0092 2.35538
331 2 11.1021 12.0081 5.89199
312 2 10.7726 8.90165 0.8093
334 1 10.7113 10.9709 6.17462
332 2 11.4343 10.1489 5.70627
105 2 11.6416 7.80476 2.77155
98 2 9.06792 7.03169 4.14416
19 4 8.9441 10.8244 5.25562
124 2 9.99697 8.89867 4.54034
361 2 9.10784 6.66138 1.38192
106 2 11.0316 6.78926 4.39965
310 2 12.4082 9.88032 1.04824
193 1 12.7147 7.37972 2.68311
146 2 12.5677 8.82557 4.01726
358 2 13.8824 11.0013 1.00183
147 2 14.0459 9.69494 6.35854
201 1 14.445 12.0061 0.965302
23 4 15.1549 12.21 2.7895
88 2 14.6809 11.053 9.12423
311 2 12.5793 12.4561 0.596038
221 1 6.82614 7.09308 5.94208
301 3 7.82986 10.8526 6.33996
64 4 6.92858 9.38729 8.574
185 2 7.48074 8.3176 7.26877
235 3 12.1051 12.0507 8.1968
21 4 11.1071 10.8141 7.90789
234 3 11.917 9.40431 8.41571
112 2 9.56014 10.9628 8.95296
323 2 8.74227 9.31731 8.77475
259 3 14.6194 10.804 3.79601
256 3 4.98864 6.24212 14.3927
58 4 5.78794 7.18524 10.7106
297 3 6.25241 8.46862 9.66448
324 2 7.9634 10.3975 10.8407
325 1 7.91164 10.6976 9.6787
292 3 7.17628 6.72711 11.4489
110 2 8.56206 12.4876 9.56314
75 2 11.1527 11.8352 10.4413
22 4 12.1357 11.5789 11.8002
232 3 11.8009 7.24044 10.1552
291 3 9.65424 7.35683 11.778
15 4 11.1464 6.78131 11.4781
264 3 13.3137 10.6306 11.4371
117 2 12.9323 8.30423 12.3231
100 2 14.1466 12.624 9.83591
43 4 14.4596 10.0037 10.5762
97 2 6.20316 6.88278 17.9395
128 2 14.658 11.9828 18.0464
268 3 15.8111 12.6547 11.8925
177 2 6.93164 9.7502 12.1984
61 4 8.16663 7.53347 12.3889
218 1 7.89596 9.45486 12.7006
174 2 7.87336 7.07486 14.8863
176 2 7.80075 9.7021 13.8249
63 4 7.02613 9.26373 17.6077
306 3 5.96488 8.95041 16.2511
217 1 8.3301 6.57204 14.0454
169 2 8.24913 7.13846 18.2241
197 1 12.2396 7.58777 12.8525
8 4 10.0622 12.3311 13.6606
126 2 11.2217 8.49469 15.9251
236 3 11.2417 11.0967 13.0807
315 3 10.7749 10.9054 17.1802
314 4 9.61771 10.3344 16.1133
96 2 11.5675 8.01713 13.7476
316 3 8.84825 11.4458 14.6792
200 1 10.3959 8.84704 15.2437
318 2 10.8469 9.57787 14.3338
175 2 9.50124 6.4497 14.1797
178 2 8.78779 9.97287 12.2056
362 1 10.2114 6.64246 18.1921
125 2 9.66322 7.93065 14.8281
363 2 9.88685 7.66535 17.927
295 3 8.43635 9.66662 16.8764
116 2 11.4076 6.11442 14.3686
336 2 13.8135 12.3225 16.5458
322 2 7.01766 11.4945 9.4978
118 2 12.6845 6.53799 13.1528
215 1 7.15526 7.54039 18.3815
364 2 11.3478 6.56594 18.3567
47 4 9.87747 1.31899 3.92344
68 2 17.2563 0.354385 7.30503
280 3 10.5459 2.36117 2.8833
273 3 11.0738 0.850474 5.2064
55 4 11.4508 3.52118 2.06995
281 3 12.1481 4.69013 3.12963
350 2 11.4157 1.47854 0.577383
249 3 18.9077 6.24147 5.29668
7 4 16.8012 1.90188 6.65046
166 2 13.7204 3.28295 1.63581
11 4 16.2069 4.48009 2.73813
225 3 15.2424 3.46854 3.59847
226 3 15.4013 5.39183 1.68058
223 3 16.3079 1.64772 5.2023
5 4 15.1716 1.96575 4.07906
89 2 15.5775 0.856405 2.69078
51 4 12.735 1.54287 5.72004
214 1 12.8968 2.52323 1.38244
272 3 13.7092 1.59993 4.47611
349 2 14.3956 0.563542 0.775386
351 1 15.2956 0.124359 1.32207
360 2 12.8286 1.6889 2.22738
49 4 13.8999 -0.390395 8.02077
247 3 16.6218 4.90066 9.31881
2 2 17.1185 0.11437 2.11616
70 2 17.1956 3.32598 1.8234
244 3 17.1779 5.54402 3.42974
274 3 13.2028 0.61293 6.85397
209 1 18.3158 2.53463 0.448018
352 2 15.8965 0.407758 9.03961
12 4 12.5096 6.0194 3.96747
284 3 12.4592 2.97629 6.24138
283 3 11.3059 3.4031 8.80011
57 4 11.4397 3.79386 7.22764
229 3 15.0532 5.19952 7.2315
227 3 16.1487 2.78178 7.74362
14 4 15.5453 4.14711 8.31005
72 2 13.4638 3.74612 9.12016
347 2 10.1508 -0.327367 5.91566
348 2 16.1948 0.0428622 0.719631
167 2 12.9963 2.04098 0.2552
269 3 9.01628 0.0758375 3.31761
35 4 20.2397 5.57524 5.76548
359 1 10.8597 0.361278 18.0798
329 2 16.9234 0.74255 16.0436
345 2 10.0704 0.449673 10.2731
50 4 10.8243 2.58365 10.2451
288 3 14.3104 3.54868 9.67805
91 2 14.2417 3.502 11.3153
279 3 12.0377 2.14584 11.2991
355 2 14.5536 0.0491286 10.2726
69 2 16.434 0.9226 10.9761
141 2 18.2301 3.50833 11.0868
195 1 17.3783 1.64381 11.0394
111 2 17.4109 2.2582 12.0765
34 4 17.4449 5.86103 10.3759
187 2 17.4385 2.33268 10.0386
140 2 19.517 4.81076 10.31
205 1 18.7213 4.64344 11.1304
139 2 19.1736 4.87796 12.1171
277 3 10.6657 1.37165 15.6464
48 4 11.5803 0.317095 16.3795
152 2 19.549 5.9053 16.5686
17 4 16.0695 4.15812 14.8387
231 3 15.3609 5.39137 13.9242
230 3 14.9393 3.04861 15.294
253 3 17.0921 4.73978 16.0985
54 4 13.0358 2.77056 12.235
326 2 15.8814 0.528539 17.6744
368 2 12.7623 4.36226 16.3163
327 1 16.1188 1.16974 16.6845
92 2 13.8583 1.47923 13.0229
330 2 13.8981 5.60614 17.9654
9 4 14.5932 1.47627 15.7101
270 3 13.279 1.06462 16.6557
275 3 14.7235 0.400444 14.1222
290 3 12.5492 3.84346 13.2895
37 4 18.0751 5.22734 17.2016
328 2 16.3823 2.2594 16.9925
115 2 17.8075 3.93108 12.7902
151 2 18.8821 3.85817 18.0316
113 2 16.6486 2.36436 13.5403
114 2 18.2424 3.02157 14.4984
196 1 17.3966 3.33017 13.7665
142 2 18.9668 5.87202 13.3304
353 2 14.6345 1.80152 9.49298
369 1 12.2339 5.35115 15.9633
356 2 9.94099 0.969736 17.894
357 2 10.723 -0.730006 18.3081
354 1 14.8283 0.614513 9.346
304 3 22.3269 11.9859 7.3323
107 2 12.7585 6.61289 1.71873
66 4 22.8621 10.7633 6.57429
13 4 15.7545 6.59199 0.687384
83 2 15.0665 7.89899 4.18419
84 2 16.3837 9.27479 5.72286
207 1 15.4648 8.61712 5.81054
129 2 16.0348 11.5562 1.20279
344 2 19.8807 7.84976 7.37698
31 4 18.0222 6.7231 4.07106
257 3 18.7753 7.64339 3.00222
79 2 16.851 7.81524 4.76182
261 3 17.5551 9.69355 0.942513
145 2 17.6843 8.76274 1.22068
42 4 18.7132 8.32377 8.91649
180 2 19.5652 11.0698 5.33692
39 4 20.3858 7.70717 2.35769
179 2 19.866 11.5707 3.59742
219 1 19.6999 10.7164 4.29803
260 3 20.2074 8.4658 0.935719
181 2 18.8903 10.079 3.89347
371 3 20.1757 11.2725 1.0722
40 4 14.1256 9.50675 4.51212
86 2 19.0139 9.88522 6.85734
293 3 21.4128 8.47824 3.40573
62 4 21.4619 9.88292 4.11434
46 4 21.9003 11.6061 1.57983
294 3 22.1093 11.1454 3.24374
302 3 22.0212 9.69764 5.9876
233 3 13.3882 7.18476 7.86561
80 2 15.7097 7.68334 6.49072
16 4 14.3284 6.54557 6.73533
41 4 19.6778 9.85148 0.323554
150 2 17.3196 10.2582 7.01775
99 2 17.0325 12.3339 8.60776
25 4 16.4462 11.8528 7.01421
346 1 18.576 8.8085 6.89404
87 2 17.1801 8.74919 7.9406
77 2 18.3785 8.51973 5.84437
71 2 13.5211 8.20593 2.65121
299 3 20.0729 12.0462 9.01525
228 3 13.5186 6.29336 5.21591
296 3 22.8784 10.8062 0.559734
120 2 13.9522 6.98483 12.0545
263 3 14.1166 8.56047 10.0819
52 4 22.3052 12.1733 14.2518
266 3 15.7826 9.98702 11.4163
248 3 16.4738 6.23163 11.657
95 2 13.0123 6.10418 15.5644
300 3 18.0864 11.4854 11.0388
45 4 16.7266 11.2781 12.0226
262 3 18.2987 6.93441 9.59755
65 4 19.4825 10.984 10.2348
298 3 19.2827 9.51761 9.72789
222 1 20.9006 11.0919 11.5454
190 2 20.7285 10.1102 12.1101
286 3 21.5122 7.60772 11.8882
189 2 21.7757 10.9371 10.7671
307 3 21.498 11.2401 15.2553
265 3 20.7663 8.8078 14.2305
90 2 22.4697 11.4808 12.6756
108 2 14.933 6.55631 16.7163
18 4 15.4563 6.49146 12.8058
73 2 15.7147 8.11494 14.8279
198 1 15.7091 8.10461 13.7156
119 2 14.8968 8.80854 13.2941
156 2 15.4688 10.0694 15.2434
82 2 21.0729 6.70534 17.0265
67 4 21.3142 9.68125 15.7128
155 2 16.0995 10.7116 16.9657
144 2 18.4883 7.51364 14.1175
255 3 17.4162 6.32356 18.1564
121 2 16.7636 8.32385 13.2322
44 4 17.6647 10.7419 15.0685
154 2 17.5221 9.03317 16.0651
210 1 16.3089 10.1483 16.0296
267 3 17.1298 10.8652 13.6327
305 3 18.3636 11.9468 15.8861
143 2 18.7402 7.32351 12.3019
188 2 20.9136 12.0553 12.1927
206 1 19.0748 6.97213 13.2845
308 3 20.1724 9.45916 16.8791
38 4 20.8847 7.48918 13.4301
320 2 17.9402 9.11958 17.9767
194 1 14.6499 6.41625 17.8139
321 2 24.0636 12.0703 14.3642
109 2 14.2876 7.45684 18.3372
ITEM: TIMESTEP
200
ITEM: NUMBER OF ATOMS
371
ITEM: BOX BOUNDS xy xz yz pp pp pp
4.2379536921030159e-01 2.4443985112476891e+01 7.1080240987954149e+00
-7.6100078109605018e-01 1.3049914374414435e+01 2.7644629027593298e-01
2.4470688386626271e-01 1.8395593116133643e+01 -5.2598640668172791e-01
ITEM: ATOMS id type x y z
130 2 3.73269 1.29053 3.25903
93 2 11.4221 5.85293 7.06055
131 2 2.49699 1.30969 4.79778
202 1 2.64044 1.31014 3.62147
138 2 3.40661 3.91881 5.57309
103 2 2.29872 0.344345 6.20048
32 4 4.168 4.41742 2.33747
333 2 5.1169 0.489886 6.22748
335 2 6.20802 1.73358 5.14056
137 2 4.97628 3.37505 4.90117
245 3 5.45139 3.59667 1.94813
204 1 4.77893 4.45114 4.29147
208 1 5.12739 1.53234 5.7006
136 2 5.76852 4.89603 4.01725
74 2 4.24865 1.52517 4.93917
282 3 10.6412 4.32267 0.836115
132 2 7.64874 2.39914 3.15284
30 4 6.91529 2.98867 1.71014
159 2 7.52104 2.05538 4.94082
203 1 7.83803 4.59622 1.54007
134 2 6.99884 5.30568 1.82994
183 2 8.29886 5.4717 3.93899
337 2 6.681 -0.243317 2.23598
341 2 3.10467 3.85485 3.77366
133 2 8.63686 4.27483 2.40939
303 3 7.15928 6.01324 5.90368
158 2 8.68387 1.44899 7.56753
76 2 8.75879 -0.00954908 8.8936
157 2 9.00951 3.56657 4.54063
211 1 8.64913 2.34142 4.82452
59 4 8.9739 2.98601 6.63667
182 2 9.82965 5.60387 5.12716
184 2 10.0155 5.631 3.28424
220 1 9.35966 5.99322 4.08685
258 3 4.06388 6.00133 1.96841
192 1 2.09929 1.28361 6.81083
104 2 2.48959 1.24207 7.90857
250 3 4.19806 5.75755 7.41926
246 3 4.04202 3.7435 8.95663
149 2 5.04393 2.3454 6.4849
237 3 5.54212 1.31996 8.8739
33 4 4.88485 5.05548 8.60748
6 4 6.03184 -0.175716 8.5841
171 2 8.06879 4.42111 7.53207
170 2 7.50203 2.26263 8.59231
81 2 6.52127 4.49299 8.17168
216 1 7.34972 2.84098 7.59618
101 2 7.18886 0.0923342 7.11645
172 2 6.53661 2.39007 6.85449
287 3 10.5624 5.31022 6.75761
243 3 7.04255 2.00484 0.409455
3 2 1.90017 2.01365 3.0465
85 2 4.96324 6.22166 4.86688
153 2 2.78573 3.67985 1.4181
102 2 2.38023 2.37635 6.18319
1 4 2.01009 -0.289841 2.88895
10 4 2.03435 0.530608 10.8843
238 3 3.17877 1.44689 10.2371
224 3 2.26038 -0.142678 12.2433
26 4 4.48244 2.28544 9.78086
241 3 5.3986 2.80118 11.1291
285 3 5.21238 5.97379 9.77777
343 1 4.87575 5.66934 17.2123
160 2 8.72536 3.16441 11.0199
161 2 9.58106 4.82103 10.6188
212 1 9.66214 3.81809 11.1768
94 2 11.1636 5.05033 11.2807
127 2 5.78494 -0.335751 12.464
78 2 2.23034 1.92955 16.1456
251 3 2.7295 2.66062 15.5972
340 2 4.11984 4.06981 16.5629
28 4 4.14155 1.49212 15.0491
252 3 4.58088 2.29829 13.6506
36 4 5.3171 4.93148 15.5373
29 4 5.78023 2.53102 12.5945
240 3 5.45917 1.45462 16.0846
239 3 3.74872 -0.00397061 14.4778
366 2 11.6414 5.73573 16.5698
254 3 1.80927 0.88954 18.1755
165 2 6.26842 4.81642 12.7529
242 3 6.86259 0.904946 12.5942
135 2 8.1586 3.74035 17.8617
213 1 6.80114 3.95563 13.2725
163 2 7.85366 3.72551 13.0768
164 2 6.46012 3.57718 14.9056
24 4 7.13276 1.25429 16.7368
278 3 8.08232 2.34362 15.9875
27 4 8.21591 0.260667 13.0271
339 1 7.64334 -0.449785 16.2804
173 2 7.84616 5.76244 14.0664
367 2 9.82352 5.37225 16.5168
162 2 9.92112 3.96077 12.2315
53 4 9.52337 2.22725 14.8894
289 3 10.1564 3.7338 14.7163
276 3 9.12183 1.45279 13.4976
56 4 9.72285 4.6117 18.322
342 2 4.82923 5.59498 18.3414
60 4 11.591 4.32989 14.3713
338 2 8.65928 -0.622578 16.7527
168 2 6.63076 5.59171 16.6572
186 2 6.34263 8.23741 6.04044
122 2 8.18911 9.59797 3.26858
123 2 8.02081 8.39972 4.8431
199 1 8.72001 9.14805 4.18934
365 2 6.7896 8.46708 1.31211
20 4 12.7383 8.02664 8.93125
148 2 14.619 11.6452 6.74913
191 1 15.2235 12.4789 8.39143
323 2 8.90002 9.42079 8.76455
4 3 10.1878 12.268 1.70431
370 3 9.09675 12.0439 4.13004
313 1 11.1775 9.76229 1.01527
309 4 11.0459 11.5673 0.506171
317 2 10.9154 9.78072 2.09074
331 2 11.4265 11.4521 5.58619
312 2 10.6012 8.83411 0.425732
334 1 10.7992 10.6097 6.00554
332 2 11.2447 9.62236 5.69636
105 2 11.9704 7.77102 2.50968
98 2 9.15661 7.12658 4.10417
19 4 8.98026 10.7649 5.17309
124 2 9.79742 8.80961 4.03975
361 2 9.20474 6.89219 1.04793
106 2 11.0466 6.99168 4.30538
310 2 12.3661 9.71983 0.898695
112 2 9.40666 11.0319 8.49599
146 2 12.6466 9.05781 3.74688
358 2 14.1318 11.0433 1.10288
147 2 14.0238 9.66635 6.36652
201 1 14.6038 12.0056 1.07452
23 4 15.2802 12.1437 2.94411
215 1 6.92594 8.06798 0.280338
311 2 12.7095 12.0333 0.57868
221 1 6.94996 7.17809 6.0644
301 3 7.83674 10.9138 6.29864
64 4 7.04299 9.34551 8.62158
185 2 7.75304 8.32048 7.26282
235 3 12.1412 11.9783 8.18154
21 4 11.1196 10.6852 7.75967
234 3 11.7579 9.36512 8.25258
88 2 14.9014 10.8562 9.15798
256 3 4.7295 6.01233 14.4937
58 4 5.72093 7.075 10.6992
297 3 6.19884 8.46698 9.5509
324 2 7.96791 10.1867 10.757
325 1 7.99008 10.6691 9.63297
292 3 7.01091 6.79196 11.4675
110 2 8.56743 12.5496 9.82366
75 2 11.4268 12.1153 10.6681
22 4 12.2262 11.475 11.9417
232 3 11.8132 7.11953 9.93072
291 3 9.85844 7.38315 11.8019
15 4 11.2555 6.81122 11.3467
264 3 13.3716 10.5836 11.3551
117 2 13.0146 8.1413 12.1976
100 2 14.1582 12.5755 9.95813
364 2 11.3199 6.77141 17.7641
97 2 6.29039 6.90361 17.9877
128 2 14.7684 11.9632 18.0799
322 2 7.14306 11.4988 9.40739
177 2 6.96116 9.53658 11.9226
61 4 8.42014 7.47649 12.3521
218 1 7.90907 9.30062 12.5339
174 2 7.85628 7.49561 14.9162
176 2 7.66733 9.23155 13.6739
63 4 6.96303 9.20488 17.524
306 3 5.92775 8.87247 16.281
217 1 8.37339 6.74174 14.2169
169 2 8.37798 7.13415 18.1204
197 1 12.312 7.46132 12.8524
8 4 10.0437 12.2191 13.7129
126 2 11.2542 8.72022 15.8967
236 3 11.0956 10.9526 12.9632
315 3 10.6596 11.0095 17.1972
314 4 9.58693 10.3918 16.1253
96 2 11.6581 8.01439 13.7124
316 3 8.89909 11.5823 14.6621
200 1 10.4486 9.04912 15.1416
318 2 10.7977 9.80186 14.2073
175 2 9.48924 6.55797 14.4667
178 2 8.78497 10.0355 12.4036
362 1 10.2393 6.59925 17.6673
125 2 9.69485 8.15405 14.7964
363 2 9.73182 7.48905 17.1993
295 3 8.38428 9.67029 16.8423
116 2 11.4281 6.03376 14.4705
336 2 14.0061 12.0876 16.6744
319 2 14.9398 12.5653 14.4566
47 4 9.93386 1.31175 4.00499
68 2 17.2321 0.220503 7.40124
280 3 10.5647 2.42906 2.92245
273 3 11.0263 0.860941 5.03511
55 4 11.5745 3.50386 2.19511
281 3 12.1004 4.78178 3.29263
350 2 11.5586 1.37011 0.646347
348 2 16.1819 0.0738686 0.834208
7 4 16.8694 1.7664 6.674
166 2 13.835 3.30482 1.56507
11 4 16.2905 4.53496 2.67288
225 3 15.5492 3.34 3.42122
226 3 15.3605 5.35733 1.62012
223 3 16.1349 1.55991 5.25607
5 4 15.0926 2.0075 4.11905
89 2 15.4288 0.647326 2.96987
51 4 12.6624 1.62237 5.67221
214 1 12.957 2.54719 1.40733
272 3 13.6208 1.65471 4.42341
349 2 14.3324 0.560421 0.996602
351 1 15.2267 0.0888301 1.51374
360 2 12.9354 1.61772 2.13146
49 4 13.8278 -0.301163 7.9609
35 4 20.2113 5.60321 5.89074
2 2 17.0193 -0.0330592 2.32327
70 2 17.4605 3.73514 1.61307
244 3 17.1479 5.55441 3.50266
274 3 13.2475 0.714585 6.85983
209 1 18.3485 2.43304 0.546512
167 2 12.8593 2.3144 0.318303
12 4 12.5063 6.10746 3.98468
284 3 12.2331 3.00785 6.26503
283 3 11.137 3.33839 8.79868
57 4 11.2617 3.89836 7.26112
229 3 14.9773 5.20983 7.3136
227 3 16.2203 2.83357 7.59697
14 4 15.4488 4.08661 8.30785
72 2 13.4147 3.53691 9.05278
347 2 10.2405 -0.10039 6.18164
228 3 13.5034 6.24324 5.25547
269 3 9.06181 0.00626295 3.52244
359 1 10.9879 0.104078 18.2589
329 2 16.8957 0.647388 16.2845
345 2 10.2717 0.43768 10.2623
50 4 10.8314 2.5918 10.2202
288 3 14.2113 3.44252 9.6629
91 2 14.3095 3.31403 11.2788
279 3 11.9868 2.03022 11.2327
355 2 14.0854 0.0358493 10.3507
69 2 16.3967 0.878331 11.0701