ITEM: TIMESTEP
0
ITEM: NUMBER OF ATOMS
371
ITEM: BOX BOUNDS xy xz yz pp pp pp
4.2379536921030159e-01 2.4206161451652470e+01 7.0376476225697173e+00
-7.6100078109605018e-01 1.3049914374414435e+01 2.7370919829300294e-01
2.4470688386626271e-01 1.8577101978456316e+01 -5.2598640668172791e-01
ITEM: ATOMS id type x y z
130 2 3.84727 0.839633 3.46254
93 2 11.5451 5.56677 6.98894
131 2 2.55694 1.17346 4.93688
202 1 2.76729 1.03806 3.73876
138 2 3.33995 3.77656 5.57296
103 2 3.03262 0.711088 6.66838
32 4 4.1863 4.42315 2.29878
333 2 5.62136 0.406163 6.07371
335 2 6.00219 2.13109 5.33877
137 2 4.92936 3.23053 4.93218
245 3 5.28468 3.43014 1.75835
204 1 4.80865 4.20906 4.43502
208 1 5.21439 1.44346 5.83618
136 2 5.83782 4.71128 4.43626
74 2 4.28143 1.31343 5.10081
282 3 10.7479 4.16905 0.609646
132 2 7.45047 2.27596 3.00893
30 4 6.78973 2.91299 1.57031
159 2 7.59507 1.50793 4.63445
203 1 7.77027 4.46656 1.50932
134 2 7.02439 5.26107 1.78025
183 2 8.14995 5.26171 4.1337
102 2 2.30656 2.51443 6.37029
341 2 3.15333 3.90634 3.71625
133 2 8.43415 4.16136 2.48555
303 3 6.91223 6.00493 6.26431
158 2 8.78058 1.47588 7.46767
76 2 8.69698 0.0987795 9.07366
157 2 8.18449 3.41867 4.34908
211 1 8.52092 2.34109 4.72645
59 4 8.88596 2.99203 6.53496
182 2 9.6558 5.42221 5.14974
184 2 9.70035 5.59384 3.28951
220 1 9.10071 5.83517 4.20981
258 3 4.17838 5.99577 2.03609
192 1 2.12791 1.3945 6.95447
104 2 2.17344 1.57831 8.13621
250 3 4.18928 5.674 7.39914
246 3 3.94418 3.53765 9.03818
149 2 4.92184 1.96046 6.81561
237 3 5.57922 1.35089 9.01076
33 4 4.84063 4.89313 8.65097
6 4 6.04579 -0.123168 8.74598
171 2 8.38075 4.39701 7.55478
170 2 7.59484 2.15643 8.69006
81 2 6.43636 4.31516 8.13211
216 1 7.446 2.76361 7.75109
101 2 7.13723 0.0920326 7.15488
172 2 6.553 2.3122 7.0653
287 3 10.6838 5.06741 6.68929
243 3 7.1719 1.99519 0.257947
3 2 2.19124 1.90123 3.11316
85 2 5.0072 6.12894 4.66192
56 4 9.44715 5.05801 0.310619
35 4 3.70699 5.55898 5.75339
10 4 1.90832 0.342713 11.079
238 3 3.17665 1.27741 10.4625
224 3 2.10092 -0.291839 12.5539
26 4 4.38824 2.30747 9.95826
241 3 4.9581 3.00869 11.3724
285 3 5.05018 5.86266 9.83632
343 1 4.85476 5.80819 17.2531
160 2 8.63291 3.09449 11.3026
161 2 9.11116 4.88325 10.918
212 1 9.51186 3.93976 11.4272
94 2 11.0868 5.07593 11.3288
127 2 5.68941 -0.126328 11.9633
78 2 2.26317 1.64865 16.3984
251 3 2.83133 2.45999 16.1752
340 2 4.35544 4.26092 16.3849
28 4 4.24831 1.56569 15.3341
252 3 4.58015 2.35653 14.0277
36 4 5.53493 5.28824 15.5544
29 4 5.59496 2.68565 12.7251
240 3 5.51963 1.44907 16.3999
239 3 3.75138 0.0660827 14.7949
342 2 4.76606 5.71672 18.3355
319 2 7.66668 -0.176557 14.5816
165 2 5.97567 4.99406 12.8365
242 3 6.71271 1.13766 12.3211
135 2 8.24969 3.67369 17.9947
213 1 6.7217 4.08406 13.1517
163 2 7.76622 4.06872 12.4984
164 2 6.80407 3.90257 14.8388
24 4 7.09526 1.20487 16.7711
278 3 8.07613 2.15821 15.9164
27 4 8.02803 0.526459 12.9849
339 1 7.52623 -0.47793 16.1876
173 2 7.50699 5.71885 14.0063
367 2 9.78719 5.71708 16.993
162 2 9.89372 4.04578 12.5099
53 4 9.39125 2.182 14.8988
289 3 10.0041 3.94707 14.8485
276 3 9.12189 1.76363 13.3355
168 2 6.64082 5.90697 16.9019
271 3 9.64712 1.31129 9.78974
60 4 11.3665 4.57427 14.6866
186 2 6.00336 8.13994 5.92687
122 2 8.70858 9.21437 3.42953
123 2 7.91012 8.29899 5.04568
199 1 8.77411 9.04783 4.59488
365 2 6.53539 8.56086 1.41855
20 4 12.6105 8.02975 9.06546
148 2 14.6777 11.5035 6.94335
191 1 15.0768 12.5845 8.4479
1 4 8.945 12.9012 2.88773
4 3 9.87333 12.2967 1.76877
370 3 8.8485 11.8317 4.13028
313 1 10.9611 9.80651 1.35864
309 4 10.9326 11.5217 0.59706
317 2 10.4271 10.103 2.39218
331 2 11.2502 11.6948 5.8871
312 2 10.5728 8.85686 0.809466
334 1 10.8111 10.7525 6.21742
332 2 11.5059 9.8302 5.92962
105 2 11.475 7.90633 2.8759
98 2 8.89849 6.98848 4.31521
19 4 8.84541 10.7282 5.35023
124 2 9.81944 8.71587 4.98026
361 2 9.08605 6.63421 1.40173
106 2 10.7463 6.73022 4.86334
310 2 12.1657 9.76696 1.47413
193 1 12.5007 7.48223 2.76745
146 2 12.3565 8.90783 4.1189
358 2 13.7732 11.0124 0.702154
215 1 6.83487 8.14774 0.383561
201 1 14.4306 11.954 0.80059
23 4 15.0051 12.1575 2.72886
337 2 13.5029 12.9695 2.02548
311 2 12.5205 12.2402 0.735778
221 1 6.54688 7.065 5.85865
301 3 7.72598 10.7437 6.54186
64 4 6.70566 9.25555 8.6909
185 2 7.14213 8.21981 7.30876
235 3 11.8888 12.1245 8.50562
21 4 11.0873 10.7799 8.01829
234 3 11.8916 9.35131 8.49841
112 2 9.43314 10.8656 8.96054
323 2 8.52148 9.11402 8.88271
259 3 14.4119 10.8284 3.74662
147 2 13.7907 9.55138 6.44103
88 2 14.7824 10.8698 9.31435
169 2 8.00492 7.83816 0.281039
256 3 4.85426 6.31822 14.479
58 4 5.55484 7.13934 10.7794
297 3 5.87299 8.33993 9.78134
324 2 7.67471 10.1549 10.8719
325 1 7.80428 10.6252 9.73384
292 3 7.02431 6.72145 11.5368
110 2 8.70262 12.3261 9.88431
75 2 11.0302 12.057 10.4844
22 4 12.0268 11.6086 11.8131
232 3 11.7084 7.22545 10.1006
291 3 9.72646 7.50172 12.0124
15 4 11.1283 6.8383 11.5422
264 3 13.1035 10.5737 11.382
117 2 13.1029 8.24331 12.4168
100 2 14.1675 12.6143 10.155
366 2 11.4853 5.99031 17.027
97 2 6.27605 6.89474 18.2048
128 2 14.7322 11.9917 18.0967
268 3 15.6599 12.5481 12.1693
177 2 6.63649 9.49989 12.0664
61 4 8.08672 7.52753 12.5215
218 1 7.52887 9.36855 12.7739
174 2 7.33771 7.39303 14.9183
176 2 7.29053 9.37055 13.9465
63 4 7.03207 9.25853 17.6291
306 3 5.96204 9.09724 16.3421
217 1 8.06497 6.68232 14.353
364 2 11.2184 6.67766 18.5009
197 1 12.2963 7.56541 12.831
8 4 10.0648 12.2396 13.9501
126 2 11.1753 8.52956 15.7934
236 3 11.1022 11.1574 13.1028
315 3 10.6425 10.7972 17.3482
314 4 9.58091 10.2512 16.3247
96 2 11.5964 8.11922 13.6438
316 3 8.84779 11.5665 15.0022
200 1 10.3155 8.91178 15.1805
318 2 10.6803 9.56569 14.3017
175 2 8.99079 6.46633 14.9287
178 2 8.3582 10.0971 12.5695
362 1 10.1278 6.66029 18.3041
125 2 9.50464 8.00158 14.8624
363 2 9.75578 7.74124 18.1252
295 3 8.48623 9.44393 17.1299
116 2 11.2457 6.30861 14.628
336 2 13.631 12.1404 16.4072
322 2 7.05325 11.4099 9.45014
338 2 15.5073 12.5233 16.6996
43 4 14.328 9.89749 10.6694
47 4 9.83795 1.35946 3.89515
68 2 17.0102 0.358962 7.47636
280 3 10.5698 2.48359 2.8376
273 3 10.7993 0.886521 5.17639
55 4 11.5062 3.5133 2.07092
281 3 12.0397 4.8192 3.15383
350 2 11.3999 1.35989 0.557794
254 3 17.6953 1.6005 0.433389
7 4 16.646 1.8758 6.68655
166 2 13.7406 3.10127 1.75189
11 4 16.0694 4.52126 2.76113
225 3 15.1859 3.53124 3.72523
226 3 15.0808 5.35449 1.66895
223 3 16.0486 1.7421 5.2377
5 4 14.9371 2.01225 4.21699
89 2 15.3252 0.929419 2.75605
51 4 12.5457 1.37519 5.73935
214 1 12.8813 2.34275 1.44075
272 3 13.5467 1.32429 4.50388
349 2 14.1794 0.359842 0.492602
351 1 15.0967 0.0433079 1.20645
360 2 12.8799 1.43438 2.07682
167 2 12.8198 2.10087 0.328198
247 3 16.638 4.90552 9.26402
2 2 16.7797 -0.0988612 2.22937
70 2 17.1669 3.51427 1.81771
244 3 17.1753 5.3785 3.51171
274 3 12.9969 0.489838 6.9788
209 1 18.1916 2.63878 0.413633
352 2 15.8921 0.572025 8.96039
12 4 12.2174 6.1255 4.08724
284 3 12.3938 2.86017 6.29616
283 3 11.1254 3.37463 8.85596
57 4 11.3125 3.71896 7.27276
229 3 14.9309 5.29428 7.36418
227 3 16.119 2.95388 7.70732
14 4 15.4799 4.2555 8.43171
72 2 13.4515 3.8546 9.24775
347 2 10.1737 -0.286417 6.21354
348 2 16.0937 -0.100824 0.643116
354 1 14.8458 0.74473 9.36507
269 3 8.89894 0.041505 3.28275
153 2 19.1234 3.91864 1.44065
353 2 14.4869 1.83092 9.34259
359 1 10.7964 0.352529 18.2148
329 2 16.8655 0.40033 16.1323
345 2 9.77279 0.644086 10.6177
50 4 10.7289 2.66326 10.4771
288 3 14.2949 3.7831 9.88493
91 2 14.3006 3.51464 11.5366
279 3 11.8894 2.3424 11.4524
355 2 14.6317 0.222247 10.4267
69 2 16.106 0.627017 11.2952
141 2 18.0938 3.28162 11.2696
195 1 16.9388 1.47798 11.268
111 2 16.9991 2.02994 12.3328
34 4 17.4717 5.62073 10.4546
187 2 17.0969 2.10415 10.2857
140 2 19.4879 4.4755 10.8467
205 1 18.5421 4.35483 11.4436
139 2 18.7014 4.67309 12.5183
277 3 10.6794 1.34222 15.5542
48 4 11.4885 0.368573 16.4902
369 1 12.2065 5.47521 16.1615
17 4 15.9745 4.18806 14.9104
231 3 15.3974 5.41158 13.8547
230 3 14.7798 3.02659 15.3958
253 3 16.8798 4.90517 16.0531
54 4 13.0211 2.82935 12.469
326 2 15.8247 0.382821 17.7327
368 2 12.6985 4.48699 16.5612
327 1 16.1051 0.926122 16.7302
92 2 13.7342 1.48993 13.2467
330 2 13.3996 5.53323 18.1298
9 4 14.5776 1.40592 15.7922
270 3 13.1659 1.14691 16.7429
275 3 14.5992 0.303965 14.2047
290 3 12.322 3.92 13.487
37 4 17.814 5.34918 17.2584
328 2 16.4745 2.07259 16.9797
115 2 17.7464 3.4334 13.1097
151 2 18.2265 3.90821 18.1081
113 2 16.5649 2.12717 13.9238
114 2 18.0325 2.78555 14.9491
196 1 17.2306 3.03126 14.0955
356 2 9.92483 1.082 18.0626
152 2 19.4448 5.92786 16.8774
357 2 10.4563 -0.610763 18.5735
304 3 21.8363 11.8366 7.44639
109 2 13.5879 7.98573 0.484727
66 4 22.6348 10.6654 6.71394
13 4 15.3289 6.56276 0.618379
83 2 14.8793 7.93055 4.13928
84 2 16.0352 9.18264 5.63954
207 1 15.1814 8.53678 5.87629
129 2 15.8261 11.4872 1.21811
344 2 19.886 7.83165 7.5824
31 4 17.831 6.75827 4.06058
257 3 18.4446 7.61903 2.85271
79 2 16.581 7.64935 4.81287
261 3 17.3556 9.77405 0.937728
145 2 17.3941 8.82512 1.15864
42 4 18.7929 8.22047 9.0744
180 2 19.014 10.6012 5.33384
39 4 20.0703 7.64478 2.27385
179 2 19.4984 11.5739 3.79434
219 1 19.3484 10.5296 4.29879
260 3 20.1183 8.42294 0.813755
181 2 18.5764 9.90762 3.73992
371 3 19.9195 11.1809 1.18701
40 4 13.9575 9.42721 4.51161
86 2 18.8687 9.79953 7.08394
293 3 20.9934 8.45054 3.32795
62 4 21.1305 9.96812 4.13134
46 4 21.7221 11.5274 1.49504
294 3 22.0707 11.0911 3.24353
302 3 21.7632 9.71958 5.89312
233 3 13.0834 7.09714 7.83539
80 2 15.5183 7.72927 6.74533
16 4 14.1605 6.54527 6.7587
41 4 19.4382 9.85217 0.311701
150 2 17.0258 10.1936 7.1205
99 2 16.8781 12.1594 8.95143
25 4 16.4214 11.8489 7.23176
346 1 18.4185 8.79131 7.10485
87 2 17.0936 8.66464 8.05871
77 2 18.1265 8.38595 6.06707
249 3 18.8285 6.34252 5.25538
49 4 20.9142 12.8118 8.26509
228 3 13.3383 6.3279 5.13819
296 3 22.6667 10.7931 0.363751
107 2 12.6213 6.70847 1.89461
71 2 13.2685 8.28904 2.56797
299 3 19.9254 12.0128 9.36792
120 2 13.8667 6.78919 11.8963
263 3 14.135 8.50474 10.0653
52 4 22.1229 12.0944 14.4186
266 3 15.6005 10.0759 11.6383
248 3 16.5948 6.26155 11.7252
118 2 12.6929 6.44109 13.2423
300 3 17.8742 11.5952 11.2116
45 4 16.6266 11.2764 12.1919
262 3 18.2407 6.88397 9.77955
65 4 19.3089 11.0407 10.4943
298 3 19.0776 9.58344 9.85797
222 1 20.5938 10.9227 11.9118
190 2 20.2393 10.0553 12.5285
286 3 21.0877 7.53469 11.9871
189 2 21.56 10.7715 11.3308
307 3 21.3003 11.3117 15.4361
265 3 20.5166 8.90463 14.5473
90 2 22.2731 11.1454 12.9886
108 2 14.4013 6.73971 16.9492
18 4 15.3268 6.63072 12.7957
73 2 15.9554 7.95327 14.8706
198 1 15.7526 8.15357 13.7743
119 2 14.8302 8.77131 13.525
156 2 15.3466 9.84285 15.9166
82 2 20.7968 6.81218 16.9522
67 4 20.8907 9.73066 15.8751
155 2 16.4198 10.562 17.4216
144 2 18.1351 7.78334 13.9852
255 3 17.0141 6.37476 18.176
121 2 16.7115 8.47066 13.1312
44 4 17.4579 10.9798 15.3341
154 2 17.7296 9.10179 15.7805
210 1 16.3889 10.0194 16.3286
267 3 17.1244 11.0877 13.807
305 3 18.2603 12.1599 16.0944
143 2 18.6007 7.36188 12.2227
188 2 20.6926 11.9155 12.5592
206 1 18.7437 7.12673 13.2993
308 3 19.7679 9.42928 17.0113
38 4 20.5498 7.54382 13.62
320 2 17.5975 9.24429 18.1053
194 1 14.114 6.44685 18.065
95 2 12.9327 6.2246 15.6984
321 2 23.8281 12.138 14.7791
142 2 18.6016 6.0282 13.5454
ITEM: TIMESTEP
100
ITEM: NUMBER OF ATOMS
371
ITEM: BOX BOUNDS xy xz yz pp pp pp
4.2379536921030159e-01 2.4206161451652470e+01 7.0376476225697173e+00
-7.6100078109605018e-01 1.3049914374414435e+01 2.7370919829300294e-01
2.4470688386626271e-01 1.8577101978456316e+01 -5.2598640668172791e-01
ITEM: ATOMS id type x y z
130 2 3.84661 0.842268 3.50509
93 2 11.4772 5.6464 6.96308
131 2 2.50676 1.20953 4.9593
202 1 2.77639 1.11384 3.77889
138 2 3.26152 3.84481 5.46287
103 2 2.40286 0.601422 6.4937
32 4 4.06863 4.40759 2.4048
333 2 5.82861 0.615732 5.89702
335 2 5.85001 2.36186 5.46415
137 2 4.84099 3.23902 4.90905
245 3 5.37699 3.5342 1.96907
204 1 4.74517 4.21713 4.32094
208 1 5.21162 1.5174 5.83578
136 2 5.78135 4.57718 4.03698
74 2 4.35209 1.28592 5.05781
282 3 10.6576 4.24302 0.682824
132 2 7.34064 2.16003 3.23773
30 4 6.79888 2.88896 1.6962
159 2 7.66714 1.46334 5.06729
203 1 7.77876 4.44622 1.54068
134 2 6.91134 5.16916 1.85283
183 2 8.18338 5.38253 4.11842
102 2 2.22597 2.58432 6.18942
341 2 3.02575 3.70895 3.76759
133 2 8.54332 4.16266 2.42222
303 3 7.12044 5.97531 6.15665
158 2 8.81905 1.41272 7.47205
76 2 8.58324 0.117856 8.91853
157 2 7.93506 3.46088 4.65999
211 1 8.42612 2.31276 4.8107
59 4 8.82724 2.92907 6.60745
182 2 9.68657 5.56774 5.20209
184 2 9.87434 5.64404 3.32931
220 1 9.15163 5.9015 4.2021
258 3 4.13044 6.009 2.18298
192 1 2.09907 1.60428 6.94425
104 2 2.60323 1.78625 7.9277
250 3 4.08439 5.48471 7.34614
246 3 3.91723 3.60945 8.78787
149 2 4.69202 1.75761 6.83816
237 3 5.41119 1.3115 9.17792
33 4 4.82703 4.90115 8.62245
6 4 5.93334 -0.0600173 8.53681
171 2 8.02911 4.34132 7.52767
170 2 7.62536 2.09887 8.67902
81 2 6.4073 4.2752 8.2187
216 1 7.43766 2.70032 7.7479
101 2 7.1819 0.335592 7.06719
172 2 6.54853 2.31307 7.05154
287 3 10.6209 5.07469 6.73342
243 3 6.97109 2.10082 0.267618
3 2 2.31863 1.91977 3.08758
85 2 4.97699 6.06853 4.81961
269 3 8.91449 0.0949594 3.35404
337 2 6.57958 -0.0747127 2.08587
342 2 4.22582 6.07788 0.254844
10 4 1.98441 0.295437 10.9832
238 3 3.16137 1.2112 10.427
224 3 2.35019 -0.402875 12.404
26 4 4.36354 2.34434 9.93585
241 3 5.00197 3.04038 11.3429
285 3 4.96084 5.88929 9.88139
343 1 4.68327 5.64179 17.4556
160 2 8.60764 3.09075 11.1922
161 2 9.24924 4.83853 10.998
212 1 9.52317 3.81407 11.2479
94 2 10.9123 5.10372 11.7737
127 2 5.63609 -0.188071 12.0374
78 2 2.53777 1.994 16.5346
251 3 2.84235 2.60314 15.7736
340 2 3.77446 4.35481 16.5849
28 4 4.24758 1.4337 15.2412
252 3 4.61025 2.48933 14.0075
36 4 5.2316 5.05889 15.6801
29 4 5.62122 2.6592 12.7493
240 3 5.5304 1.35445 16.266
239 3 3.77647 -0.0611338 14.6748
168 2 6.41143 5.33732 17.1198
319 2 7.85596 -0.358592 14.7137
165 2 6.50065 4.81059 12.9173
242 3 6.71026 1.01727 12.5695
135 2 8.16002 3.58468 18.031
213 1 6.83155 3.83259 13.4651
163 2 7.89954 3.52223 13.1452
164 2 6.34509 3.64739 15.1456
24 4 7.02283 1.2861 16.7703
278 3 8.05438 2.14614 15.8868
27 4 8.07508 0.395269 13.1393
339 1 7.68346 -0.415837 16.4105
173 2 7.76599 5.54488 13.9915
367 2 9.66998 5.64051 16.9768
162 2 9.90793 3.76995 12.3342
53 4 9.45412 2.25282 14.9948
289 3 9.96203 3.90249 14.7372
276 3 9.15207 1.60835 13.3444
366 2 11.4336 5.86339 16.9724
271 3 9.51004 1.22446 9.84957
60 4 11.4107 4.4205 14.5047
338 2 8.59541 -0.689366 16.9399
356 2 9.8035 0.983939 18.0304
56 4 9.65187 4.54768 18.5348
254 3 1.73203 0.929639 18.5567
186 2 6.17474 8.11174 5.94191
122 2 8.49398 9.27146 3.37204
123 2 8.05325 8.34088 5.04422
199 1 8.77734 9.12136 4.44139
365 2 6.65131 8.30719 1.35172
20 4 12.6515 8.01567 9.19794
148 2 14.5366 11.7326 6.69473
191 1 15.0055 12.6528 8.28925
1 4 9.02092 12.9437 2.86245
4 3 9.98274 12.2305 1.73312
370 3 8.72085 11.9348 4.05244
313 1 11.1771 9.87795 1.24797
309 4 10.8911 11.6271 0.60073
317 2 10.8786 10.0176 2.34539
331 2 11.0396 12.0209 5.96206
312 2 10.6977 8.89145 0.802268
334 1 10.62 10.9604 6.22502
332 2 11.3457 10.1325 5.78533
105 2 11.523 7.78841 2.77401
98 2 8.97177 7.02423 4.2124
19 4 8.8687 10.8244 5.3081
124 2 9.88842 8.85562 4.53051
361 2 9.0253 6.68888 1.37075
106 2 10.905 6.79483 4.43781
310 2 12.355 9.86567 1.05254
193 1 12.6073 7.38648 2.72587
146 2 12.4304 8.80553 4.05368
358 2 13.6832 11.062 0.990315
147 2 13.9249 9.71405 6.37897
201 1 14.322 12.0227 0.999905
23 4 15.0163 12.2142 2.81302
88 2 14.5682 11.0617 9.23247
311 2 12.4256 12.4762 0.569627
221 1 6.77609 7.1068 6.02651
301 3 7.7651 10.8424 6.39567
64 4 6.84487 9.38186 8.66444
185 2 7.47028 8.28897 7.37235
235 3 11.9763 12.0659 8.28687
21 4 10.9942 10.8157 7.97684
234 3 11.7876 9.40871 8.50848
112 2 9.41061 11.0079 9.01816
323 2 8.63737 9.29937 8.87327
259 3 14.4633 10.7799 3.80793
256 3 4.96367 6.24378 14.5315
58 4 5.71529 7.17571 10.7935
297 3 6.17541 8.45272 9.74764
324 2 7.84225 10.3988 10.9405
325 1 7.79518 10.6977 9.77356
292 3 7.09322 6.6978 11.5495
110 2 8.45625 12.4996 9.70979
75 2 10.9927 11.7605 10.55
22 4 12.0033 11.5644 11.8935
232 3 11.6925 7.25465 10.2509
291 3 9.54473 7.35376 11.8913
15 4 11.0503 6.78096 11.5769
264 3 13.1805 10.6232 11.5287
117 2 12.8175 8.29815 12.4408
100 2 14.0243 12.6478 9.9311
43 4 14.332 9.99725 10.6815
97 2 6.14495 6.88076 18.0904
128 2 14.5637 12.0289 18.27
268 3 15.6601 12.6558 12.032
177 2 6.83563 9.7255 12.2749
61 4 8.07644 7.54061 12.512
218 1 7.8153 9.48321 12.7956
174 2 7.78504 7.11091 15.0139
176 2 7.70577 9.7674 13.9098
63 4 6.96696 9.27189 17.7872
306 3 5.90836 8.95734 16.4325
217 1 8.24866 6.5929 14.1814
169 2 8.19969 7.14011 18.38
197 1 12.1315 7.5901 12.9687
8 4 9.9786 12.3334 13.7995
126 2 11.1452 8.50712 16.0849
236 3 11.1638 11.0946 13.2135
315 3 10.679 10.9197 17.3644
314 4 9.5446 10.3376 16.2767
96 2 11.4824 8.00511 13.8631
316 3 8.76508 11.4377 14.8365
200 1 10.3175 8.85982 15.3936
318 2 10.7807 9.59863 14.4916
175 2 9.4253 6.46923 14.3273
178 2 8.72388 9.97521 12.289
362 1 10.1683 6.64038 18.353
125 2 9.59416 7.94458 14.9748
363 2 9.84676 7.66633 18.068
295 3 8.36535 9.66457 17.0347
116 2 11.3074 6.11398 14.5067
336 2 13.7095 12.3056 16.7072
322 2 6.92504 11.4587 9.61196
215 1 7.10869 7.54201 18.5421
118 2 12.5619 6.49912 13.2337
364 2 11.323 6.54697 18.525
47 4 9.78022 1.32 3.96789
68 2 17.0957 0.37378 7.36408
280 3 10.4623 2.37242 2.90464
273 3 10.9482 0.86102 5.24249
55 4 11.3453 3.51502 2.09169
281 3 12.043 4.69563 3.16422
350 2 11.2913 1.49648 0.562459
35 4 20.06 5.569 5.83284
7 4 16.6369 1.89924 6.70433
166 2 13.6171 3.27254 1.63058
11 4 16.0496 4.48212 2.76225
225 3 15.0848 3.46548 3.61501
226 3 15.2535 5.3842 1.69865
223 3 16.1763 1.66875 5.24143
5 4 15.0248 1.9691 4.11915
89 2 15.3928 0.817473 2.74547
51 4 12.6133 1.54347 5.78301
214 1 12.7841 2.52353 1.36307
272 3 13.5843 1.59208 4.54264
349 2 14.2214 0.576343 0.781015
351 1 15.1361 0.127557 1.32898
360 2 12.7061 1.66055 2.21482
49 4 13.7624 -0.393245 8.09145
247 3 16.4603 4.88836 9.41065
2 2 16.9377 0.110007 2.16676
70 2 17.0518 3.31659 1.8707
244 3 17.0194 5.54571 3.46383
274 3 13.0759 0.604955 6.92235
209 1 18.1585 2.56542 0.441748
352 2 15.7518 0.425747 9.11051
12 4 12.3962 6.01494 4.01291
284 3 12.3432 2.9745 6.30969
283 3 11.2156 3.42421 8.8571
57 4 11.3376 3.80497 7.28757
229 3 14.9145 5.2176 7.31499
227 3 15.9901 2.78795 7.79881
14 4 15.3936 4.14761 8.38988
72 2 13.3366 3.72415 9.22494
347 2 10.0586 -0.330963 5.98643
348 2 16.0453 0.0320343 0.733628
249 3 18.7356 6.25092 5.32562
153 2 19.0231 3.82495 1.43715
359 1 10.7363 0.366374 18.238
329 2 16.7596 0.681575 16.2255
345 2 9.97024 0.448498 10.3835
50 4 10.7223 2.57901 10.3592
288 3 14.1851 3.54212 9.78177
91 2 14.1359 3.48353 11.4227
279 3 11.9314 2.14833 11.4125
355 2 14.4512 0.050478 10.3349
69 2 16.2548 0.940837 11.1015
141 2 18.0542 3.50316 11.2449
195 1 17.1922 1.6614 11.1682
111 2 17.2288 2.26777 12.211
34 4 17.2853 5.86013 10.4874
187 2 17.2553 2.35684 10.1741
140 2 19.3456 4.78183 10.4326
205 1 18.5489 4.64308 11.2549
139 2 18.9883 4.92592 12.2245
277 3 10.5709 1.38088 15.7989
48 4 11.4673 0.313721 16.5412
142 2 18.7704 5.87543 13.4688
17 4 15.8978 4.16495 14.9745
231 3 15.2171 5.39344 14.0554
230 3 14.7919 3.04194 15.4334
253 3 16.9065 4.73649 16.2397
54 4 12.929 2.76943 12.3514
326 2 15.7126 0.509312 17.8519
368 2 12.7034 4.37066 16.4262
327 1 15.9724 1.14332 16.8607
92 2 13.7346 1.4801 13.1508
330 2 13.7344 5.54873 18.1804
9 4 14.4522 1.47581 15.8744
270 3 13.1578 1.07458 16.8454
275 3 14.5676 0.399958 14.2714
290 3 12.4284 3.86355 13.4085
37 4 17.8835 5.22537 17.344
328 2 16.2658 2.24371 17.1518
115 2 17.6412 3.95237 12.9327
151 2 18.7352 3.86717 18.1527
113 2 16.4807 2.38497 13.6731
114 2 18.0447 3.03628 14.6323
196 1 17.2218 3.34962 13.9059
152 2 19.3624 5.91709 16.7069
353 2 14.5026 1.80708 9.57909
369 1 12.1454 5.344 16.0905
167 2 13.163 1.52863 18.5717
357 2 10.5965 -0.706905 18.4876
354 1 14.707 0.617591 9.42016
304 3 22.107 11.9668 7.41097
107 2 12.6727 6.60183 1.76209
66 4 22.6395 10.7443 6.65092
13 4 15.5869 6.57444 0.703802
83 2 14.8795 7.89206 4.23831
84 2 16.2283 9.28605 5.72791
207 1 15.3037 8.63343 5.85382
129 2 16.0041 11.6416 1.20662
344 2 19.7166 7.82998 7.49387
31 4 17.8572 6.72028 4.10553
257 3 18.5907 7.65 3.03064
79 2 16.6851 7.80329 4.82534
261 3 17.3623 9.66765 0.924219
145 2 17.5531 8.74202 1.18309
42 4 18.5336 8.3203 9.01884
180 2 19.3677 11.0462 5.36702
39 4 20.2124 7.70474 2.37611
179 2 19.7005 11.5892 3.62726
219 1 19.5049 10.71 4.32403
260 3 20.0371 8.46451 0.947779
181 2 18.7083 10.0752 3.89685
371 3 19.9637 11.2644 1.06766
40 4 13.9806 9.51486 4.5585
86 2 18.8579 9.85088 6.93463
293 3 21.2337 8.489 3.42734
62 4 21.2605 9.89101 4.14605
46 4 21.6821 11.6116 1.5938
294 3 21.9148 11.1498 3.27674
302 3 21.7965 9.70543 6.006
233 3 13.2465 7.1798 7.93566
80 2 15.5603 7.72946 6.57771
16 4 14.1945 6.55708 6.80819
41 4 19.4861 9.8302 0.333176
150 2 17.1414 10.2156 7.03748
99 2 16.9144 12.3281 8.63145
25 4 16.2961 11.8387 7.07732
346 1 18.4196 8.78756 6.97006
87 2 17.0477 8.75917 8.00503
77 2 18.2362 8.49991 5.92146
228 3 13.3917 6.28457 5.27311
299 3 19.8752 12.0589 9.0936
71 2 13.3935 8.22984 2.67004
296 3 22.6616 10.8227 0.567049
120 2 13.8153 6.98731 12.1581
263 3 14.0074 8.56357 10.1534
52 4 22.074 12.1747 14.402
266 3 15.6396 9.97206 11.5361
248 3 16.3353 6.21846 11.7649
95 2 12.9002 6.11625 15.6772
300 3 17.9188 11.4894 11.1659
45 4 16.5809 11.2769 12.1522
262 3 18.1219 6.93408 9.69955
65 4 19.3002 10.9853 10.3362
298 3 19.085 9.53102 9.8158
222 1 20.7177 11.0672 11.6507
190 2 20.6016 10.0604 12.1913
286 3 21.2946 7.60196 12.0302
189 2 21.5945 10.974 10.8645
307 3 21.265 11.2351 15.3998
265 3 20.5633 8.80222 14.3827
90 2 22.2334 11.4827 12.839
108 2 14.7346 6.57463 16.8974
18 4 15.3286 6.48492 12.9283
73 2 15.5527 8.10803 14.9293
198 1 15.5487 8.11444 13.8167
119 2 14.7515 8.84467 13.4164
156 2 15.2963 10.0617 15.3647
82 2 20.8643 6.70655 17.1475
67 4 21.0939 9.6839 15.8624
155 2 15.8894 10.6684 17.0954
144 2 18.3014 7.51616 14.26
255 3 17.2459 6.28856 18.3267
121 2 16.5838 8.31704 13.3564
44 4 17.4948 10.7406 15.2117
154 2 17.3574 9.03705 16.2074
210 1 16.1298 10.137 16.1512
267 3 16.9767 10.8641 13.7605
305 3 18.1732 11.9515 16.0437
143 2 18.5273 7.33715 12.4401
188 2 20.6861 12.0069 12.3014
206 1 18.8741 6.98285 13.4162
308 3 19.9553 9.44255 17.0518
38 4 20.6834 7.49273 13.5736
320 2 17.6627 9.0941 18.0837
194 1 14.4904 6.41456 18.0169
321 2 23.8147 12.0792 14.5495
109 2 14.1052 7.42796 18.5632
ITEM: TIMESTEP
200
ITEM: NUMBER OF ATOMS
371
ITEM: BOX BOUNDS xy xz yz pp pp pp
4.2379536921030159e-01 2.4206161451652470e+01 7.0376476225697173e+00
-7.6100078109605018e-01 1.3049914374414435e+01 2.7370919829300294e-01
2.4470688386626271e-01 1.8577101978456316e+01 -5.2598640668172791e-01
ITEM: ATOMS id type x y z
130 2 3.61227 1.33531 3.21502
93 2 11.3031 5.8668 7.10168
131 2 2.37215 1.30893 4.8462
202 1 2.52347 1.33048 3.6072
138 2 3.33556 3.88642 5.64201
103 2 2.32309 0.332806 6.16653
32 4 4.1289 4.45855 2.35488
333 2 4.90663 0.43175 6.21895
335 2 6.03461 1.56738 5.20719
137 2 4.8936 3.29823 4.92208
245 3 5.37712 3.62069 1.9581
204 1 4.73899 4.3943 4.3472
208 1 4.97995 1.42463 5.6778
136 2 5.74489 4.7892 4.08984
74 2 4.13209 1.43995 4.86966
282 3 10.5306 4.33054 0.875011
132 2 7.5392 2.44229 3.19282
30 4 6.81397 3.02136 1.70309
159 2 7.45279 2.05472 5.02019
203 1 7.73134 4.62641 1.5404
134 2 6.91728 5.30887 1.80654
183 2 8.18368 5.47584 3.97806
102 2 2.47255 2.31099 6.38862
341 2 3.0239 3.89946 3.78562
133 2 8.52509 4.29309 2.40935
303 3 7.10723 6.00175 6.01858
158 2 8.60822 1.40617 7.57008
76 2 8.7275 0.00533388 8.98911
157 2 8.79673 3.54202 4.56015
211 1 8.5273 2.35766 4.85558
59 4 8.89446 2.97426 6.68614
182 2 9.71447 5.58205 5.18413
184 2 9.88188 5.59727 3.31216
220 1 9.24305 5.9753 4.12798
258 3 4.07951 6.00566 1.98368
192 1 2.09409 1.21781 6.84568
104 2 2.33819 1.05711 7.93457
250 3 4.1533 5.71733 7.45097
246 3 3.99243 3.73553 9.04355
149 2 4.87269 2.26827 6.39332
237 3 5.50704 1.32715 8.98777
33 4 4.82366 5.04969 8.69678
6 4 5.97037 -0.160035 8.66745
171 2 8.04502 4.47914 7.65889
170 2 7.62963 2.4901 8.98488
81 2 6.37501 4.48805 8.12448
216 1 7.48701 2.89789 7.90925
101 2 7.11059 0.0380431 7.15911
172 2 6.53882 2.73814 7.43375
287 3 10.4413 5.31438 6.80865
243 3 6.94146 2.03127 0.417526
3 2 1.73525 2.01226 3.0384
153 2 2.78276 3.70197 1.40693
337 2 6.61613 -0.183284 2.24455
85 2 4.94847 6.1746 4.89946
1 4 1.99858 -0.311171 2.92923
10 4 1.99853 0.530668 11.017
238 3 3.12521 1.45356 10.3789
224 3 2.21915 -0.136745 12.3753
26 4 4.42652 2.28294 9.92235
241 3 5.33548 2.81848 11.2565
285 3 5.11246 5.96703 9.88704
343 1 4.85357 5.68076 17.3873
160 2 8.65723 3.09558 11.1755
161 2 9.45107 4.79092 10.6365
212 1 9.55893 3.81057 11.2977
94 2 11.0491 5.06774 11.3235
127 2 5.72516 -0.365186 12.53
78 2 2.20136 1.92044 16.3078
251 3 2.6873 2.62741 15.7741
340 2 4.12577 4.10013 16.7863
28 4 4.11044 1.48919 15.1811
252 3 4.51961 2.30932 13.8048
36 4 5.30958 4.93744 15.6863
29 4 5.71326 2.54637 12.7327
240 3 5.43246 1.46209 16.2205
239 3 3.73882 0.00773467 14.6115
168 2 6.62396 5.60404 16.8138
342 2 4.79361 5.56071 18.5403
165 2 6.26041 4.81618 12.8999
242 3 6.77048 0.895068 12.7192
135 2 8.07838 3.74791 18.0556
213 1 6.76095 3.95255 13.4225
163 2 7.81987 3.69967 13.2183
164 2 6.37015 3.60943 14.9924
24 4 7.04959 1.25494 16.9137
278 3 8.00436 2.35468 16.1843
27 4 8.12533 0.252452 13.2024
339 1 7.56747 -0.44562 16.497
173 2 7.72375 5.73582 14.1347
367 2 9.78222 5.41113 16.6923
162 2 9.8127 4.01517 12.3377
53 4 9.43551 2.23314 15.0393
289 3 10.0622 3.73404 14.8303
276 3 9.01212 1.45417 13.6528
366 2 11.6078 5.73358 16.661
271 3 9.6678 1.13328 9.77705
60 4 11.4938 4.33924 14.478
338 2 8.5755 -0.665187 16.8971
254 3 1.80985 0.897107 18.3812
56 4 9.65292 4.61717 18.5292
186 2 6.25907 8.22487 6.08857
122 2 8.10423 9.47194 3.29856
123 2 7.93012 8.40122 4.90784
199 1 8.64338 9.15185 4.24059
365 2 6.77485 8.33944 1.30535
20 4 12.6124 8.05314 9.01231
148 2 14.4514 11.5904 6.85859
191 1 15.0845 12.4974 8.45454
112 2 9.23579 10.9844 8.55795
4 3 10.1162 12.2512 1.72648
370 3 9.0363 12.0259 4.17726
313 1 11.1072 9.7383 0.97578
309 4 10.9563 11.5776 0.513241
317 2 10.8098 9.82256 2.05781
331 2 11.3882 11.4407 5.67947
312 2 10.5404 8.8474 0.420832
334 1 10.7055 10.5888 6.09165
332 2 11.1576 9.58111 5.82926
105 2 11.8611 7.73822 2.56228
98 2 9.06238 7.11618 4.14356
19 4 8.9181 10.7493 5.23787
124 2 9.71387 8.80601 4.10865
361 2 9.15241 6.87994 1.02229
106 2 10.9185 6.97211 4.35722
310 2 12.2314 9.69715 0.880702
215 1 6.89502 8.08033 0.264727
146 2 12.5044 9.01077 3.82684
358 2 14.0256 11.0192 1.07699
147 2 13.8742 9.67521 6.48021
201 1 14.4984 12.01 1.07299
23 4 15.1165 12.1717 2.97165
323 2 8.77933 9.35797 8.88551
311 2 12.5997 12.1224 0.639222
221 1 6.87202 7.16516 6.13435
301 3 7.78017 10.8845 6.36349
64 4 6.95319 9.34875 8.71673
185 2 7.66417 8.26273 7.40206
235 3 12.0164 12.0009 8.25743
21 4 11.0009 10.7201 7.85404
234 3 11.6407 9.39798 8.36681
256 3 4.69035 6.02394 14.649
58 4 5.64582 7.08692 10.7884
297 3 6.10693 8.47114 9.65425
324 2 7.87099 10.2337 10.8288
325 1 7.87201 10.6912 9.75158
292 3 6.9438 6.80606 11.5596
110 2 8.47749 12.5366 9.96865
75 2 11.2595 12.0562 10.7567
22 4 12.1023 11.446 12.0213
232 3 11.7077 7.14685 10.0481
291 3 9.74561 7.39623 11.8748
15 4 11.1517 6.81871 11.4525
264 3 13.2286 10.5617 11.3958
117 2 12.8909 8.14117 12.3393
100 2 14.0448 12.5468 10.0286
322 2 6.98449 11.4643 9.4949
97 2 6.2257 6.86308 18.1642
128 2 14.6965 12.0231 18.3145
364 2 11.2656 6.71629 17.8868
177 2 6.8668 9.33213 11.8655
61 4 8.29883 7.46339 12.4186
218 1 7.76859 9.3041 12.6148
174 2 7.71581 7.52542 14.9569
176 2 7.43707 9.62192 13.6987
63 4 6.91048 9.21986 17.6843
306 3 5.85005 8.89869 16.4708
217 1 8.26462 6.76397 14.2816
169 2 8.31135 7.14458 18.2775
197 1 12.1724 7.46964 12.9582
8 4 9.95968 12.2209 13.8568
126 2 11.1584 8.69322 16.0539
236 3 11.0057 10.9547 13.0938
315 3 10.5773 11.015 17.3691
314 4 9.52547 10.4049 16.2845
96 2 11.4968 8.03971 13.8317
316 3 8.81967 11.5747 14.8103
200 1 10.3635 9.0439 15.3067
318 2 10.7574 9.75442 14.3942
175 2 9.35196 6.59745 14.5721
178 2 8.71866 9.9197 12.3218
362 1 10.2028 6.57818 17.8106
125 2 9.594 8.14029 14.9301
363 2 9.73761 7.50378 17.3895
295 3 8.32163 9.68581 16.9879
116 2 11.3095 6.05485 14.5883
336 2 13.8453 12.1464 16.8885
319 2 14.7816 12.6033 14.6612
47 4 9.82515 1.31242 4.05752
68 2 17.0017 0.214604 7.432
280 3 10.4757 2.42161 2.95782
273 3 10.9108 0.860986 5.11508
55 4 11.4823 3.50257 2.23274
281 3 11.995 4.75771 3.3366
350 2 11.4312 1.41398 0.603715
35 4 20.022 5.59234 5.95934
7 4 16.7225 1.77633 6.71843
166 2 13.7433 3.24344 1.54763
11 4 16.1389 4.52403 2.69836
225 3 15.3879 3.3532 3.46462
226 3 15.2159 5.34425 1.6296
223 3 16.0107 1.5931 5.28708
5 4 14.9554 2.01138 4.15792
89 2 15.278 0.697176 2.98707
51 4 12.5255 1.62445 5.72327
214 1 12.8543 2.53826 1.40943
272 3 13.488 1.63836 4.48081
349 2 14.1886 0.511987 0.924495
351 1 15.0917 0.0669946 1.4623
360 2 12.8687 1.63244 2.11805
49 4 13.6862 -0.310541 8.04179
348 2 16.0324 0.0834964 0.840626
2 2 16.8201 -0.0545418 2.37998
70 2 17.348 3.76064 1.62506
244 3 16.9996 5.5586 3.52607
274 3 13.1001 0.701822 6.93459
209 1 18.1931 2.44922 0.553389
352 2 15.5644 0.260046 9.39247
12 4 12.3895 6.08735 4.03607
284 3 12.1133 3.0099 6.33263
283 3 11.0246 3.34595 8.90151
57 4 11.1644 3.90529 7.33143
229 3 14.8218 5.24933 7.43208
227 3 16.0845 2.85747 7.63432
14 4 15.3287 4.10213 8.3938
72 2 13.301 3.54509 9.14403
228 3 13.3882 6.2336 5.30174
269 3 8.99398 0.0129921 3.52836
347 2 10.0497 -0.092958 6.29891
167 2 12.7845 2.29725 0.341399
359 1 10.8495 0.146071 18.411
329 2 16.7568 0.633309 16.3991
345 2 10.1223 0.393099 10.3698
50 4 10.7294 2.608 10.3132
288 3 14.1163 3.43679 9.74913
91 2 14.205 3.29512 11.3756
279 3 11.8632 2.03041 11.3436
355 2 14.0444 0.00454455 10.444
69 2 16.196 0.859694 11.2327