LAMMPS (2 Aug 2023 - Update 2)
  using 6 OpenMP thread(s) per MPI task
Reading data file ...
  triclinic box = (0 0 0) to (19.0492 14.0575 17.55) with tilt (-10.7944 1.3894 -3.3406)
WARNING: Triclinic box skew is large. LAMMPS will run inefficiently. (src/domain.cpp:220)
  1 by 1 by 2 MPI processor grid
  reading atoms ...
  373 atoms
Finding 1-2 1-3 1-4 neighbors ...
  special bond factors lj:    0        0        0       
  special bond factors coul:  0        0        0       
     0 = max # of 1-2 neighbors
     0 = max # of 1-3 neighbors
     0 = max # of 1-4 neighbors
     1 = max # of special neighbors
  special bonds CPU = 0.000 seconds
  read_data CPU = 0.008 seconds
##### Minimization starts.##### 

CITE-CITE-CITE-CITE-CITE-CITE-CITE-CITE-CITE-CITE-CITE-CITE-CITE

Your simulation uses code contributions which should be cited:
- pair reaxff command: doi:10.1016/j.parco.2011.08.005
- fix qeq/reaxff command: doi:10.1016/j.parco.2011.08.005
The log file lists these citations in BibTeX format.

CITE-CITE-CITE-CITE-CITE-CITE-CITE-CITE-CITE-CITE-CITE-CITE-CITE

Switching to 'neigh_modify every 1 delay 0 check yes' setting during minimization
WARNING: Fix qeq/reaxff group is not charge neutral, net charge = 39.36 (src/REAXFF/fix_qeq_reaxff.cpp:392)
Neighbor list info ...
  update: every = 1 steps, delay = 0 steps, check = yes
  max neighbors/atom: 2000, page size: 100000
  master list distance cutoff = 12
  ghost atom cutoff = 12
  binsize = 6, bins = 6 3 3
  2 neighbor lists, perpetual/occasional/extra = 2 0 0
  (1) pair reaxff, perpetual
      attributes: half, newton off, ghost
      pair build: half/bin/newtoff/ghost
      stencil: full/ghost/bin/3d
      bin: standard
  (2) fix qeq/reaxff, perpetual, copy from (1)
      attributes: half, newton off
      pair build: copy
      stencil: none
      bin: none
Setting up cg style minimization ...
  Unit style    : real
  Current step  : 0
Per MPI rank memory allocation (min/avg/max) = 202 | 202.2 | 202.5 Mbytes
   Step          Temp          Press         Density         PotEng         TotEng    
         0   0              117174.54      1.1428982     -37805.726     -37805.726    
        50   0             -1177.3192      1.1428982     -40104.244     -40104.244    
Loop time of 3.87146 on 12 procs for 50 steps with 373 atoms

97.1% CPU use with 2 MPI tasks x 6 OpenMP threads

Minimization stats:
  Stopping criterion = energy tolerance
  Energy initial, next-to-last, final = 
     -37805.7262335722  -40104.2219257374  -40104.2440322482
  Force two-norm initial, final = 2431.5363 219.26482
  Force max component initial, final = 745.91392 124.78768
  Final line search alpha, max atom move = 0.00034093049 0.042543925
  Iterations, force evaluations = 50 107

MPI task timing breakdown:
Section |  min time  |  avg time  |  max time  |%varavg| %total
---------------------------------------------------------------
Pair    | 2.8123     | 2.8496     | 2.8869     |   2.2 | 73.60
Bond    | 0.00016776 | 0.00016982 | 0.00017189 |   0.0 |  0.00
Neigh   | 0.032096   | 0.032113   | 0.03213    |   0.0 |  0.83
Comm    | 0.013708   | 0.050968   | 0.088228   |  16.5 |  1.32
Output  | 0          | 0          | 0          |   0.0 |  0.00
Modify  | 0.93566    | 0.93568    | 0.9357     |   0.0 | 24.17
Other   |            | 0.002957   |            |       |  0.08

Nlocal:          186.5 ave         187 max         186 min
Histogram: 1 0 0 0 0 0 0 0 0 1
Nghost:         4818.5 ave        4819 max        4818 min
Histogram: 1 0 0 0 0 0 0 0 0 1
Neighs:        94851.5 ave       95299 max       94404 min
Histogram: 1 0 0 0 0 0 0 0 0 1

Total # of neighbors = 189703
Ave neighs/atom = 508.58713
Ave special neighs/atom = 0
Neighbor list builds = 1
Dangerous builds not checked
System init for write_data ...
##### Equilibration starts.##### 
Setting up Verlet run ...
  Unit style    : real
  Current step  : 0
  Time step     : 0.5
Per MPI rank memory allocation (min/avg/max) = 200.5 | 200.6 | 200.8 Mbytes
   Step          Temp          Press         Density         PotEng         TotEng    
         0   300            2058.2014      1.1428982     -40104.244     -39771.586    
       100   280.94576      8605.2327      1.1380774     -40048.392     -39736.862    
       200   323.49989      977.39949      1.1556449     -40065.72      -39707.003    
       300   338.6901       2656.1442      1.1733736     -40123.804     -39748.244    
       400   359.21488     -8091.2703      1.1862066     -40229.571     -39831.251    
       500   328.52471     -11232.2        1.1905583     -40276.319     -39912.031    
       600   291.35776      4738.8442      1.1975247     -40297.523     -39974.448    
       700   309.6285      -4188.6108      1.1967237     -40363.99      -40020.654    
       800   320.0844      -2059.0595      1.2140342     -40418.676     -40063.747    
       900   299.33657      1385.7202      1.2296        -40439.162     -40107.239    
      1000   307.52231      5213.2799      1.2413865     -40472.191     -40131.191    
      1100   299.31755     -6571.5181      1.2519583     -40472.096     -40140.195    
      1200   283.75568      432.62795      1.2575575     -40455.622     -40140.976    
      1300   305.86927      5187.1514      1.2623812     -40467.265     -40128.098    
      1400   316.28151      1130.0893      1.2649703     -40477.127     -40126.414    
      1500   305.06175     -1347.504       1.2595198     -40482.682     -40144.411    
      1600   295.24466      340.37072      1.2650875     -40502.965     -40175.58     
      1700   286.27964     -1449.41        1.2748028     -40506.184     -40188.739    
      1800   303.11434     -1814.6614      1.2919198     -40521.534     -40185.422    
      1900   303.31432     -9130.2882      1.3056185     -40527.357     -40191.024    
      2000   294.46917     -10179.266      1.295847      -40564.213     -40237.688    
      2100   293.06287     -2331.1232      1.2917843     -40575.773     -40250.807    
      2200   292.5451      -553.84768      1.2915862     -40570.497     -40246.105    
      2300   297.56644     -48.185833      1.3024287     -40566.5       -40236.54     
      2400   308.07667     -3753.1551      1.3107265     -40577.644     -40236.03     
      2500   294.29331      6322.6535      1.3160134     -40594.613     -40268.282    
      2600   292.20909     -2659.5072      1.3054703     -40610.873     -40286.854    
      2700   301.4439       4026.0904      1.3120934     -40612.123     -40277.864    
      2800   317.46239      7243.7964      1.3069662     -40610.036     -40258.015    
      2900   322.37179     -1833.6595      1.3032289     -40608.477     -40251.012    
      3000   289.45236     -7944.321       1.3062187     -40612.822     -40291.859    
      3100   303.15799     -13726.897      1.3095799     -40641.785     -40305.625    
      3200   300.96868      4001.5374      1.3177008     -40645.753     -40312.021    
      3300   288.78983     -3906.6346      1.3040139     -40616.762     -40296.534    
      3400   283.71185     -4801.8652      1.3027622     -40586.537     -40271.94     
      3500   305.89335      2090.3599      1.3162696     -40609.111     -40269.918    
      3600   308.35381      12757.626      1.3251417     -40651.952     -40310.031    
      3700   288.54416      253.35134      1.3143848     -40648.846     -40328.89     
      3800   292.22738     -733.86509      1.3077763     -40655.998     -40331.958    
      3900   294.99339      2386.451       1.3162231     -40640.911     -40313.804    
      4000   282.72712     -10567.41       1.3246506     -40596.683     -40283.177    
      4100   317.44984     -243.28995      1.321886      -40640.461     -40288.453    
      4200   293.38062      1179.8         1.3257621     -40627.1       -40301.781    
      4300   304.7821       2171.6714      1.3288234     -40655.675     -40317.714    
      4400   300.78562      6141.3421      1.3330692     -40671.525     -40337.996    
      4500   310.30266     -465.47804      1.3374208     -40683.741     -40339.658    
      4600   297.21267     -275.20398      1.3455407     -40672.611     -40343.043    
      4700   304.73668     -2805.556       1.3299662     -40689.223     -40351.312    
      4800   302.82408      5428.5983      1.3344572     -40700.758     -40364.968    
      4900   277.70475     -6303.4072      1.3322098     -40698.153     -40390.217    
      5000   286.55861     -4954.183       1.3368376     -40703.689     -40385.935    
      5100   297.97195     -6782.121       1.3434269     -40679.567     -40349.158    
      5200   306.69288     -8591.9888      1.3472418     -40682.32      -40342.24     
      5300   293.40566     -1690.1156      1.3543764     -40682.809     -40357.463    
      5400   295.16765      14348.057      1.3613664     -40703.894     -40376.594    
      5500   278.48227     -581.27363      1.3506937     -40687.928     -40379.13     
      5600   322.27152      10968.218      1.3679359     -40697.573     -40340.218    
      5700   307.33315      3797.0996      1.370046      -40675.649     -40334.86     
      5800   291.54684      237.65501      1.3606282     -40679.91      -40356.625    
      5900   298.07029     -7827.358       1.3442114     -40705.128     -40374.609    
      6000   295.76429     -3052.6753      1.3470545     -40704.029     -40376.068    
      6100   301.0688      -7463.2524      1.3427105     -40699.851     -40366.008    
      6200   304.88518      5024.3992      1.3542896     -40692.492     -40354.417    
      6300   298.683        8142.7777      1.3623474     -40690.426     -40359.228    
      6400   276.91182      8065.9477      1.3681453     -40707.304     -40400.247    
      6500   276.53367      12067.915      1.3632368     -40713.257     -40406.62     
      6600   297.40391      1047.6447      1.3478425     -40714.215     -40384.436    
      6700   297.69097     -6748.2599      1.3496849     -40690.089     -40359.991    
      6800   319.62575      7717.3492      1.3627301     -40707.272     -40352.851    
      6900   311.3729      -6705.249       1.3577628     -40703.154     -40357.884    
      7000   292.57022     -644.7415       1.3396189     -40711.062     -40386.642    
      7100   282.71296     -9688.1231      1.3361941     -40719.434     -40405.944    
      7200   272.3662      -11734.32       1.340988      -40690.614     -40388.597    
      7300   291.2685       2408.2544      1.3481743     -40690.97      -40367.993    
      7400   296.85198      7885.5868      1.3405804     -40687.378     -40358.211    
      7500   293.60392      1454.3891      1.3398663     -40681.502     -40355.936    
      7600   308.82173      1389.2515      1.3492694     -40695.923     -40353.483    
      7700   308.20711      347.29194      1.3465801     -40704.92      -40363.161    
      7800   274.75202      3145.0119      1.3442555     -40695.456     -40390.794    
      7900   260.75696      5185.392       1.357285      -40680.332     -40391.188    
      8000   304.13772      285.30081      1.3667979     -40700.405     -40363.159    
      8100   312.05296     -1798.0118      1.3732807     -40701.431     -40355.408    
      8200   298.1357      -5782.2991      1.3677801     -40690.747     -40360.156    
      8300   293.58377     -1406.0863      1.3513097     -40690.831     -40365.288    
      8400   290.84805      14044.364      1.3384239     -40690.971     -40368.461    
      8500   308.94155      9554.9665      1.3412915     -40697.385     -40354.812    
      8600   297.56444     -3704.1051      1.3458998     -40662.022     -40332.064    
      8700   313.99853     -3545.9892      1.3412623     -40680.144     -40331.963    
      8800   284.45779     -17257.59       1.3490014     -40678.981     -40363.557    
      8900   302.74134      5530.0466      1.3477122     -40717.893     -40382.195    
      9000   305.6709       13677.567      1.3489911     -40712.393     -40373.446    
      9100   287.54975      6043.6474      1.3543537     -40682.101     -40363.248    
      9200   335.04742     -471.11436      1.3597916     -40704.631     -40333.11     
      9300   322.69344      746.12533      1.3553454     -40673.375     -40315.553    
      9400   272.40461     -499.82007      1.3523323     -40648.024     -40345.965    
      9500   310.21109     -445.22613      1.3479595     -40700.461     -40356.48     
      9600   285.91459     -10499.355      1.3415471     -40685.449     -40368.409    
      9700   287.47944      1162.8548      1.3453354     -40685.387     -40366.612    
      9800   309.43503     -6363.4025      1.3526075     -40687.151     -40344.03     
      9900   324.57003     -3736.7067      1.3516545     -40699.243     -40339.34     
     10000   301.56462      8560.9188      1.3651473     -40715.852     -40381.459    
Loop time of 537.444 on 12 procs for 10000 steps with 373 atoms

Performance: 0.804 ns/day, 29.858 hours/ns, 18.607 timesteps/s, 6.940 katom-step/s
99.0% CPU use with 2 MPI tasks x 6 OpenMP threads

MPI task timing breakdown:
Section |  min time  |  avg time  |  max time  |%varavg| %total
---------------------------------------------------------------
Pair    | 424.72     | 425.46     | 426.2      |   3.6 | 79.16
Bond    | 0.018025   | 0.018173   | 0.01832    |   0.1 |  0.00
Neigh   | 43.511     | 43.693     | 43.875     |   2.8 |  8.13
Comm    | 2.9135     | 3.6444     | 4.3753     |  38.3 |  0.68
Output  | 0.049215   | 0.064489   | 0.079763   |   6.0 |  0.01
Modify  | 64.124     | 64.313     | 64.502     |   2.4 | 11.97
Other   |            | 0.2526     |            |       |  0.05

Nlocal:          186.5 ave         187 max         186 min
Histogram: 1 0 0 0 0 0 0 0 0 1
Nghost:         5013.5 ave        5021 max        5006 min
Histogram: 1 0 0 0 0 0 0 0 0 1
Neighs:         114030 ave      114552 max      113507 min
Histogram: 1 0 0 0 0 0 0 0 0 1

Total # of neighbors = 228059
Ave neighs/atom = 611.41823
Ave special neighs/atom = 0
Neighbor list builds = 1000
Dangerous builds not checked
##### Heat starts.##### 
Setting up Verlet run ...
  Unit style    : real
  Current step  : 10000
  Time step     : 0.5
Per MPI rank memory allocation (min/avg/max) = 204.6 | 204.8 | 205 Mbytes
   Step          Temp          Press         Density         PotEng         TotEng    
     10000   301.56462      8560.7783      1.3651473     -40715.853     -40381.459    
     10100   306.08999      10799.871      1.3651473     -40686.617     -40347.205    
     10200   336.97848      17653.595      1.3651473     -40652.458     -40278.795    
     10300   373.39032     -2221.9283      1.3651473     -40583.872     -40169.833    
     10400   450.65924     -9982.0708      1.3651473     -40525.912     -40026.194    
     10500   509.74909      16027.707      1.3651473     -40411.005     -39845.764    
     10600   605.89557      9741.1587      1.3651473     -40301.378     -39629.524    
     10700   707.90363      10752.979      1.3651473     -40159.765     -39374.798    
     10800   775.23002      3682.5607      1.3651473     -39944.964     -39085.341    
     10900   943.199        4601.1912      1.3651473     -39805.434     -38759.558    
     11000   1088.8199      25483.319      1.3651473     -39620.89      -38413.539    
     11100   1212.2937      9861.524       1.3651473     -39395.17      -38050.904    
     11200   1324.8589      1212.022       1.3651473     -39149.384     -37680.3      
     11300   1544.1047      33479.145      1.3651473     -39077.621     -37365.423    
     11400   1614.9703      35608.837      1.3651473     -38870.681     -37079.903    
     11500   1806.3317      28394.951      1.3651473     -38801.191     -36798.219    
     11600   1833.197       4777.8247      1.3651473     -38577.367     -36544.606    
     11700   1923.4615     -5183.1785      1.3651473     -38473.834     -36340.982    
     11800   2128.1116      3320.7906      1.3651473     -38532.713     -36172.933    
     11900   2052.9092      52255.839      1.3651473     -38345.653     -36069.262    
     12000   2164.3936      17117.958      1.3651473     -38221.029     -35821.017    
Loop time of 141.112 on 12 procs for 2000 steps with 373 atoms

Performance: 0.612 ns/day, 39.198 hours/ns, 14.173 timesteps/s, 5.287 katom-step/s
99.1% CPU use with 2 MPI tasks x 6 OpenMP threads

MPI task timing breakdown:
Section |  min time  |  avg time  |  max time  |%varavg| %total
---------------------------------------------------------------
Pair    | 112.08     | 112.84     | 113.61     |   7.2 | 79.97
Bond    | 0.0039914  | 0.003996   | 0.0040007  |   0.0 |  0.00
Neigh   | 10.466     | 10.476     | 10.486     |   0.3 |  7.42
Comm    | 0.55494    | 1.3242     | 2.0935     |  66.9 |  0.94
Output  | 0.012987   | 0.017042   | 0.021097   |   3.1 |  0.01
Modify  | 16.374     | 16.379     | 16.385     |   0.1 | 11.61
Other   |            | 0.06607    |            |       |  0.05

Nlocal:          186.5 ave         194 max         179 min
Histogram: 1 0 0 0 0 0 0 0 0 1
Nghost:           5038 ave        5053 max        5023 min
Histogram: 1 0 0 0 0 0 0 0 0 1
Neighs:         114367 ave      118625 max      110109 min
Histogram: 1 0 0 0 0 0 0 0 0 1

Total # of neighbors = 228734
Ave neighs/atom = 613.22788
Ave special neighs/atom = 0
Neighbor list builds = 200
Dangerous builds not checked
##### Middle equilibration starts.##### 
Setting up Verlet run ...
  Unit style    : real
  Current step  : 12000
  Time step     : 0.5
Per MPI rank memory allocation (min/avg/max) = 204.5 | 204.8 | 205.2 Mbytes
   Step          Temp          Press         Density         PotEng         TotEng    
     12000   300           -6901.2425      1.3651473     -38221.029     -37888.371    
     12100   1459.2814     -5524.1067      1.3651473     -39204.401     -37586.26     
     12200   1639.1708      23182.685      1.3651473     -38906.586     -37088.973    
     12300   1879.7818      3545.4138      1.3651473     -38624.902     -36540.485    
     12400   2114.1847      5087.7966      1.3651473     -38399.21      -36054.872    
     12500   2172.2853      14164.391      1.3651473     -38062.446     -35653.683    
     12600   2261.9328      37259.609      1.3651473     -37917.617     -35409.448    
     12700   2250.5944      29782.976      1.3651473     -37849.361     -35353.763    
     12800   2264.3825      10467.882      1.3651473     -37958.442     -35447.556    
     12900   2179.5385      776.0869       1.3651473     -38090.509     -35673.703    
     13000   1994.8354      2340.1547      1.3651473     -38036.954     -35824.958    
     13100   2167.7836      27004.564      1.3651473     -38206.74      -35802.968    
     13200   2210.9958      20531.787      1.3651473     -38183.296     -35731.609    
     13300   2283.5592      17932.992      1.3651473     -38189.709     -35657.558    
     13400   2239.1176      18532.634      1.3651473     -38102.559     -35619.688    
     13500   2319.9877      35051.433      1.3651473     -38151.818     -35579.273    
     13600   2317.0199      25126.384      1.3651473     -38183.299     -35614.045    
     13700   2109.0402      64.405857      1.3651473     -38032.324     -35693.691    
     13800   2140.4764      13203.424      1.3651473     -38092.47      -35718.979    
     13900   2039.121       14604.405      1.3651473     -38026.872     -35765.769    
     14000   2226.7006      27103.775      1.3651473     -38176.364     -35707.262    
     14100   2253.5126      25988.427      1.3651473     -37990.945     -35492.112    
     14200   2288.7219      4497.2256      1.3651473     -37923.397     -35385.522    
     14300   2302.9208      5173.9872      1.3651473     -38143.99      -35590.37     
     14400   2090.3131      4237.8836      1.3651473     -37987.516     -35669.648    
     14500   2192.3564      24892.506      1.3651473     -38006.763     -35575.744    
     14600   2239.9586      38602.625      1.3651473     -37985.535     -35501.732    
     14700   2183.652       29477.559      1.3651473     -37842.425     -35421.058    
     14800   2302.2682      35302.92       1.3651473     -37766.333     -35213.437    
     14900   2494.9073      5879.5388      1.3651473     -37863.154     -35096.647    
     15000   2160.1207      49369.221      1.3651473     -37784.781     -35389.507    
     15100   2253.0948      35191.198      1.3651473     -37997.215     -35498.846    
     15200   2232.1124      19291.54       1.3651473     -38073.421     -35598.318    
     15300   2234.8638      24771.067      1.3651473     -38208.73      -35730.576    
     15400   2026.747       52821.426      1.3651473     -38103.37      -35855.989    
     15500   2226.0862      54850.99       1.3651473     -38225.602     -35757.181    
     15600   2271.3903      22054.395      1.3651473     -37981.703     -35463.046    
     15700   2331.3373      31920.682      1.3651473     -38067.905     -35482.775    
     15800   2235.5957      39712.739      1.3651473     -38137.425     -35658.459    
     15900   2264.89        19940.762      1.3651473     -38276.758     -35765.309    
     16000   2262.6319      33989.233      1.3651473     -38315.705     -35806.76     
     16100   2189.6897     -527.69907      1.3651473     -38267.08      -35839.018    
     16200   2149.2711      27128.335      1.3651473     -38325.462     -35942.218    
     16300   2092.3848      6820.059       1.3651473     -38340.918     -36020.753    
     16400   2112.3524      25569.854      1.3651473     -38192.079     -35849.773    
     16500   2273.8985      33091.751      1.3651473     -38157.067     -35635.629    
     16600   2144.4211      27953.471      1.3651473     -38057.377     -35679.511    
     16700   2118.4837      19450.595      1.3651473     -38159.051     -35809.946    
     16800   2164.2347      22236.481      1.3651473     -38330.837     -35931        
     16900   2279.6915     -156.31285      1.3651473     -38352.736     -35824.874    
     17000   2302.4333     -808.67299      1.3651473     -38124.525     -35571.445    
     17100   2382.0647      12947.081      1.3651473     -38046.978     -35405.598    
     17200   2422.9943      47830.574      1.3651473     -38043.305     -35356.54     
     17300   2146.0691      9739.0798      1.3651473     -37960.63      -35580.937    
     17400   2107.014       1791.9913      1.3651473     -37976.209     -35639.822    
     17500   2055.8451      36013.586      1.3651473     -37898.336     -35618.689    
     17600   2166.2692      11885.676      1.3651473     -37998.1       -35596.008    
     17700   2105.9668     -1617.7687      1.3651473     -38122.137     -35786.912    
     17800   2016.8743      11010.237      1.3651473     -38173.419     -35936.985    
     17900   2139.9312      20738.145      1.3651473     -38188.898     -35816.011    
     18000   2241.9934      45608.403      1.3651473     -38128.642     -35642.582    
     18100   2294.3187      39859.209      1.3651473     -38096.477     -35552.396    
     18200   2365.0633      24772.529      1.3651473     -38228.456     -35605.928    
     18300   2241.4351      15194.85       1.3651473     -38193.46      -35708.02     
     18400   2076.3543      10149.413      1.3651473     -38069.483     -35767.094    
     18500   2119.0784      13631.071      1.3651473     -38186.695     -35836.931    
     18600   2288.4719     -14937.165      1.3651473     -38218.281     -35680.683    
     18700   2395.3361      56867.555      1.3651473     -38151.531     -35495.436    
     18800   2197.376       29526.834      1.3651473     -38101.903     -35665.318    
     18900   2143.327      -1328.7148      1.3651473     -38178.532     -35801.88     
     19000   2196.1026      15518.068      1.3651473     -38203.341     -35768.168    
     19100   2145.6041      27264.915      1.3651473     -38103.583     -35724.405    
     19200   2301.8512      47222.818      1.3651473     -38126.868     -35574.434    
     19300   2404.4799      11480.178      1.3651473     -38044.38      -35378.145    
     19400   2283.7105      40642.573      1.3651473     -38058.909     -35526.591    
     19500   2106.4659      30272.938      1.3651473     -38098.06      -35762.281    
     19600   2197.9586      25289.825      1.3651473     -38243.316     -35806.085    
     19700   2113.2939      20346.248      1.3651473     -38115.911     -35772.561    
     19800   2303.1926      6349.7685      1.3651473     -38117.927     -35564.006    
     19900   2307.1148      22353.338      1.3651473     -38049.169     -35490.899    
     20000   2167.3745      2879.5508      1.3651473     -38026.769     -35623.451    
     20100   1973.6383      52904.08       1.3651473     -38095.203     -35906.712    
     20200   2041.8864      6451.3848      1.3651473     -38253.289     -35989.12     
     20300   2114.706       2475.1552      1.3651473     -38163.142     -35818.226    
     20400   2141.4085      26182.249      1.3651473     -38031.777     -35657.252    
     20500   2210.974       6887.0923      1.3651473     -37971.164     -35519.5      
     20600   2173.8776      41782.393      1.3651473     -37857.896     -35447.368    
     20700   2284.3925      50316.93       1.3651473     -37987.006     -35453.932    
     20800   2074.1861      40184.361      1.3651473     -37983.115     -35683.13     
     20900   2179.1544      5540.1436      1.3651473     -38109.716     -35693.336    
     21000   2098.6702      36133.612      1.3651473     -37884.535     -35557.401    
     21100   2270.2333      28997.843      1.3651473     -37903.101     -35385.727    
     21200   2238.5036      27185.644      1.3651473     -37993.508     -35511.317    
     21300   2168.6377      3049.352       1.3651473     -38137.921     -35733.203    
     21400   2195.9263      20993.333      1.3651473     -38195.182     -35760.205    
     21500   2320.5697      9748.6734      1.3651473     -38272.207     -35699.016    
     21600   2279.135       56267.596      1.3651473     -38130.85      -35603.605    
     21700   2313.7054      38250.619      1.3651473     -38043.841     -35478.262    
     21800   2320.4788      75015.408      1.3651473     -38136.128     -35563.039    
     21900   2124.407       43495.612      1.3651473     -38130.033     -35774.361    
     22000   2181.6334      25146.914      1.3651473     -38223.152     -35804.023    
Loop time of 730.672 on 12 procs for 10000 steps with 373 atoms

Performance: 0.591 ns/day, 40.593 hours/ns, 13.686 timesteps/s, 5.105 katom-step/s
99.0% CPU use with 2 MPI tasks x 6 OpenMP threads

MPI task timing breakdown:
Section |  min time  |  avg time  |  max time  |%varavg| %total
---------------------------------------------------------------
Pair    | 575.97     | 578.87     | 581.77     |  12.1 | 79.22
Bond    | 0.020107   | 0.020464   | 0.020821   |   0.2 |  0.00
Neigh   | 53.289     | 53.333     | 53.377     |   0.6 |  7.30
Comm    | 3.7453     | 6.6464     | 9.5475     | 112.5 |  0.91
Output  | 0.064213   | 0.084582   | 0.10495    |   7.0 |  0.01
Modify  | 91.368     | 91.39      | 91.412     |   0.2 | 12.51
Other   |            | 0.3311     |            |       |  0.05

Nlocal:          186.5 ave         188 max         185 min
Histogram: 1 0 0 0 0 0 0 0 0 1
Nghost:           5125 ave        5132 max        5118 min
Histogram: 1 0 0 0 0 0 0 0 0 1
Neighs:         113934 ave      114351 max      113516 min
Histogram: 1 0 0 0 0 0 0 0 0 1

Total # of neighbors = 227867
Ave neighs/atom = 610.90349
Ave special neighs/atom = 0
Neighbor list builds = 1000
Dangerous builds not checked
##### Cool starts.##### 
Setting up Verlet run ...
  Unit style    : real
  Current step  : 22000
  Time step     : 0.5
Per MPI rank memory allocation (min/avg/max) = 204.7 | 204.8 | 205 Mbytes
   Step          Temp          Press         Density         PotEng         TotEng    
     22000   2181.6334      25146.87       1.3651473     -38223.152     -35804.023    
     22100   2223.5166      7831.7856      1.3651473     -38258.261     -35792.689    
     22200   2056.7913      28233.138      1.3651473     -38247.048     -35966.351    
     22300   1914.4944      7035.3325      1.3651473     -38283.582     -36160.673    
     22400   1906.3714      10505.89       1.3651473     -38376.516     -36262.614    
     22500   1902.5535      43496.058      1.3651473     -38588.442     -36478.774    
     22600   1722.5769      9552.2634      1.3651473     -38592.261     -36682.162    
     22700   1665.1737      5894.5862      1.3651473     -38755.651     -36909.204    
     22800   1677.7835      20448.215      1.3651473     -38992.841     -37132.412    
     22900   1551.9468      6375.3176      1.3651473     -39145.052     -37424.158    
     23000   1382.781       42635.384      1.3651473     -39249.642     -37716.329    
     23100   1276.8919      23224.88       1.3651473     -39392.497     -37976.601    
     23200   1150.1845      21053.89       1.3651473     -39486.667     -38211.272    
     23300   1057.2336      30514.401      1.3651473     -39609.925     -38437.599    
     23400   1052.7471      6110.2267      1.3651473     -39838.562     -38671.211    
     23500   901.89705      15656.146      1.3651473     -39909.753     -38909.675    
     23600   859.665        9177.9738      1.3651473     -40108.334     -39155.084    
     23700   716.49854      3556.9724      1.3651473     -40183.667     -39389.169    
     23800   625.9787       16092.345      1.3651473     -40301.328     -39607.204    
     23900   570.39736      7659.223       1.3651473     -40443.54      -39811.048    
     24000   448.1964      -13503.636      1.3651473     -40529.867     -40032.879    
Loop time of 145.341 on 12 procs for 2000 steps with 373 atoms

Performance: 0.594 ns/day, 40.373 hours/ns, 13.761 timesteps/s, 5.133 katom-step/s
99.0% CPU use with 2 MPI tasks x 6 OpenMP threads

MPI task timing breakdown:
Section |  min time  |  avg time  |  max time  |%varavg| %total
---------------------------------------------------------------
Pair    | 114.13     | 115.36     | 116.58     |  11.4 | 79.37
Bond    | 0.0039817  | 0.0040883  | 0.0041949  |   0.2 |  0.00
Neigh   | 10.553     | 10.593     | 10.633     |   1.2 |  7.29
Comm    | 0.41088    | 1.6344     | 2.8579     |  95.7 |  1.12
Output  | 0.012803   | 0.016922   | 0.021041   |   3.2 |  0.01
Modify  | 17.633     | 17.669     | 17.705     |   0.9 | 12.16
Other   |            | 0.06649    |            |       |  0.05

Nlocal:          186.5 ave         189 max         184 min
Histogram: 1 0 0 0 0 0 0 0 0 1
Nghost:           5053 ave        5067 max        5039 min
Histogram: 1 0 0 0 0 0 0 0 0 1
Neighs:         114310 ave      115794 max      112825 min
Histogram: 1 0 0 0 0 0 0 0 0 1

Total # of neighbors = 228619
Ave neighs/atom = 612.91957
Ave special neighs/atom = 0
Neighbor list builds = 200
Dangerous builds not checked
##### final equilibration starts.##### 
Setting up Verlet run ...
  Unit style    : real
  Current step  : 24000
  Time step     : 0.5
Per MPI rank memory allocation (min/avg/max) = 204.7 | 204.9 | 205 Mbytes
   Step          Temp          Press         Density         PotEng         TotEng    
     24000   448.1964      -13503.632      1.3651473     -40529.867     -40032.879    
     24100   437.50797      14447.394      1.3552339     -40633.759     -40148.623    
     24200   384.68427     -1071.8894      1.3291928     -40717.396     -40290.834    
     24300   337.60964     -14393.612      1.3087326     -40777.775     -40403.412    
     24400   300.78168     -678.29332      1.3047703     -40811.888     -40478.362    
     24500   288.38821     -3186.3796      1.3046002     -40844.486     -40524.704    
     24600   289.53732      5410.62        1.299146      -40865.44      -40544.383    
     24700   310.68174     -11933.524      1.2974029     -40884.445     -40539.942    
     24800   284.35995      4529.3484      1.3125157     -40852.041     -40536.725    
     24900   297.55472     -2370.9745      1.3042842     -40854.928     -40524.981    
     25000   304.53584      4128.4546      1.3094496     -40853.293     -40515.605    
     25100   311.83697      3481.6438      1.3002248     -40861.137     -40515.353    
     25200   294.2898      -654.32305      1.2990483     -40857.788     -40531.461    
     25300   270.33985      15061.557      1.3088416     -40857.371     -40557.602    
     25400   303.8797      -3711.4101      1.3176614     -40905.512     -40568.552    
     25500   295.96163      3115.1238      1.3041602     -40884.192     -40556.011    
     25600   295.34724     -3518.1679      1.2939521     -40858.169     -40530.669    
     25700   313.22211     -650.54889      1.2809088     -40874.994     -40527.674    
     25800   303.30826     -14515.313      1.2698086     -40885.339     -40549.012    
     25900   287.39024      10539.015      1.2704846     -40888.734     -40570.058    
     26000   302.31898      2870.2134      1.2672796     -40905.46      -40570.23     
     26100   312.5203       4253.9319      1.2929501     -40924.196     -40577.655    
     26200   283.93868      8792.1061      1.3072784     -40895.716     -40580.867    
     26300   298.53867      2908.9459      1.3009517     -40894.459     -40563.421    
     26400   309.69901      2443.1741      1.2942053     -40886.954     -40543.54     
     26500   298.98595     -23292.048      1.2740653     -40887.562     -40556.028    
     26600   284.96421      10956.384      1.2751113     -40906.229     -40590.244    
     26700   300.1012      -4034.286       1.2646784     -40929.41      -40596.639    
     26800   296.5038      -4277.5738      1.256382      -40913.762     -40584.981    
     26900   296.12303      4037.1214      1.2489855     -40888.829     -40560.47     
     27000   300.04869      9435.3253      1.2424065     -40888.968     -40556.255    
     27100   289.7467      -8326.3265      1.2596611     -40917.085     -40595.796    
     27200   297.74002     -1850.3735      1.2781776     -40944.547     -40614.395    
     27300   301.23093     -3029.0337      1.2937464     -40945.681     -40611.658    
     27400   290.10092      7137.1186      1.2942302     -40913.327     -40591.646    
     27500   300.42117      8134.3532      1.3032985     -40906.519     -40573.394    
     27600   317.11672      8246.9539      1.3006287     -40907.238     -40555.6      
     27700   335.40025      1092.4749      1.2882726     -40905.652     -40533.74     
     27800   320.30122      1735.3741      1.2670785     -40912.704     -40557.534    
     27900   289.81686      1689.8012      1.2665443     -40912.162     -40590.795    
     28000   313.30644     -20330.277      1.2745793     -40945.885     -40598.471    
     28100   292.59803      1094.7345      1.2811105     -40931.464     -40607.014    
     28200   293.65052      4597.5975      1.2792813     -40945.536     -40619.918    
     28300   278.60941      7802.7244      1.280615      -40948.057     -40639.118    
     28400   288.914       -243.81552      1.2785656     -40959.509     -40639.144    
     28500   310.10474      6124.8814      1.2813094     -40946.22      -40602.357    
     28600   323.2716       1865.8331      1.2874489     -40950.299     -40591.835    
     28700   305.07714     -7601.5603      1.2855673     -40935.299     -40597.011    
     28800   288.97268      2860.809       1.2917839     -40939.866     -40619.436    
     28900   276.88137      5989.6305      1.2930888     -40951.549     -40644.526    
     29000   298.34069      2812.3045      1.2826531     -40977.111     -40646.292    
     29100   307.55506      3789.8386      1.2781025     -40945.891     -40604.855    
     29200   296.20487     -6600.8055      1.2798728     -40924.438     -40595.988    
     29300   297.43705      6094.153       1.281728      -40936.18      -40606.364    
     29400   280.43743      5581.7933      1.2794592     -40944.46      -40633.494    
     29500   281.19269      561.55151      1.2830395     -40951.288     -40639.484    
     29600   295.14735     -2480.1315      1.2891406     -40929.092     -40601.815    
     29700   299.62188     -486.46184      1.2955145     -40914.038     -40581.799    
     29800   319.10423     -7379.0229      1.2845563     -40948.997     -40595.155    
     29900   295.68584      4750.7979      1.2835742     -40940.725     -40612.85     
     30000   295.88578     -2587.3703      1.275165      -40942.957     -40614.861    
     30100   300.47039      1594.5987      1.2836369     -40915.018     -40581.838    
     30200   324.56205      12314.076      1.2876773     -40921.243     -40561.349    
     30300   306.7797       712.93233      1.2940208     -40920.267     -40580.091    
     30400   304.33902      5219.0471      1.2980113     -40933.957     -40596.487    
     30500   307.2641       3773.3256      1.2939733     -40942.509     -40601.796    
     30600   296.73824     -12427.066      1.2877522     -40943.091     -40614.049    
     30700   296.26956     -1038.2483      1.2705323     -40966.618     -40638.096    
     30800   290.40482      3925.8943      1.2670881     -40945.758     -40623.739    
     30900   309.9791      -3017.6551      1.2692327     -40938.59      -40594.866    
     31000   312.16255     -8432.5493      1.2755462     -40934.186     -40588.041    
     31100   315.79214     -137.5429       1.2749246     -40948.367     -40598.198    
     31200   280.50391      11427.093      1.2772513     -40941.985     -40630.945    
     31300   287.70956      11018.688      1.2828678     -40957.08      -40638.05     
     31400   302.02244     -9783.033       1.2742746     -40958.344     -40623.443    
     31500   296.72073      11819.138      1.2825925     -40939.242     -40610.22     
     31600   295.45574      2187.0924      1.2896466     -40926.392     -40598.773    
     31700   298.25066     -672.85867      1.3000592     -40928.285     -40597.566    
     31800   308.35049      2190.131       1.2933471     -40956.728     -40614.81     
     31900   291.00908      14387.316      1.2884626     -40982.313     -40659.624    
     32000   263.77118      6628.9118      1.2766528     -40943.826     -40651.34     
     32100   313.96594      145.76915      1.2674475     -40967.167     -40619.022    
     32200   310.74175      9816.3733      1.2681405     -40952.015     -40607.446    
     32300   313.88208     -476.75134      1.266282      -40960.082     -40612.031    
     32400   300.99023     -13487.324      1.2695009     -40963.286     -40629.529    
     32500   288.79888      6403.1863      1.2822069     -40978.833     -40658.595    
     32600   283.38131      5093.7722      1.286148      -40981.193     -40666.962    
     32700   270.98514      8233.5218      1.2834076     -40932.243     -40631.758    
     32800   273.55345     -8358.9467      1.2780891     -40916.342     -40613.009    
     32900   297.70348     -1877.3243      1.2713387     -40935.134     -40605.022    
     33000   315.77909      11511.941      1.2827571     -40952.289     -40602.133    
     33100   294.33147     -7124.416       1.2862497     -40952.362     -40625.989    
     33200   304.19087     -3378.2596      1.2768685     -40980.653     -40643.348    
     33300   280.37862     -10061.187      1.2790487     -40950.149     -40639.248    
     33400   306.36799     -12333.147      1.2699926     -40933.415     -40593.695    
     33500   322.86301      3171.4171      1.2869171     -40939.183     -40581.173    
     33600   328.58712      9751.412       1.3070457     -40972.082     -40607.724    
     33700   295.82744     -4563.9384      1.3115811     -40959.791     -40631.759    
     33800   297.61002      4130.5209      1.3155392     -40965.684     -40635.676    
     33900   305.84757      17761.943      1.3214313     -40984.256     -40645.114    
     34000   299.16145      3470.3469      1.3123399     -40998.303     -40666.575    
Loop time of 645.474 on 12 procs for 10000 steps with 373 atoms

Performance: 0.669 ns/day, 35.860 hours/ns, 15.492 timesteps/s, 5.779 katom-step/s
98.9% CPU use with 2 MPI tasks x 6 OpenMP threads

MPI task timing breakdown:
Section |  min time  |  avg time  |  max time  |%varavg| %total
---------------------------------------------------------------
Pair    | 513.7      | 517.93     | 522.15     |  18.6 | 80.24
Bond    | 0.019494   | 0.01985    | 0.020207   |   0.3 |  0.00
Neigh   | 44.185     | 44.22      | 44.256     |   0.5 |  6.85
Comm    | 2.0876     | 6.3071     | 10.527     | 168.0 |  0.98
Output  | 0.065939   | 0.087024   | 0.10811    |   7.1 |  0.01
Modify  | 76.573     | 76.623     | 76.674     |   0.6 | 11.87
Other   |            | 0.2877     |            |       |  0.04

Nlocal:          186.5 ave         197 max         176 min
Histogram: 1 0 0 0 0 0 0 0 0 1
Nghost:         4867.5 ave        4877 max        4858 min
Histogram: 1 0 0 0 0 0 0 0 0 1
Neighs:         109286 ave      114780 max      103792 min
Histogram: 1 0 0 0 0 0 0 0 0 1

Total # of neighbors = 218572
Ave neighs/atom = 585.98391
Ave special neighs/atom = 0
Neighbor list builds = 1000
Dangerous builds not checked
##### Final Density: 1.3123399233174388723 #####
System init for write_data ...
ERROR: Unknown command: : $(density) #####" (src/input.cpp:303)
Last command: : $(density) #####"
