LAMMPS (2 Aug 2023 - Update 2)
  using 6 OpenMP thread(s) per MPI task
Reading data file ...
  triclinic box = (0 0 0) to (16.8189 12.842 16.0755) with tilt (-8.3798 1.195 0.4312)
WARNING: Triclinic box skew is large. LAMMPS will run inefficiently. (src/domain.cpp:220)
  1 by 1 by 2 MPI processor grid
  reading atoms ...
  274 atoms
Finding 1-2 1-3 1-4 neighbors ...
  special bond factors lj:    0        0        0       
  special bond factors coul:  0        0        0       
     0 = max # of 1-2 neighbors
     0 = max # of 1-3 neighbors
     0 = max # of 1-4 neighbors
     1 = max # of special neighbors
  special bonds CPU = 0.000 seconds
  read_data CPU = 0.008 seconds
##### Minimization starts.##### 

CITE-CITE-CITE-CITE-CITE-CITE-CITE-CITE-CITE-CITE-CITE-CITE-CITE

Your simulation uses code contributions which should be cited:
- pair reaxff command: doi:10.1016/j.parco.2011.08.005
- fix qeq/reaxff command: doi:10.1016/j.parco.2011.08.005
The log file lists these citations in BibTeX format.

CITE-CITE-CITE-CITE-CITE-CITE-CITE-CITE-CITE-CITE-CITE-CITE-CITE

Switching to 'neigh_modify every 1 delay 0 check yes' setting during minimization
WARNING: Fix qeq/reaxff group is not charge neutral, net charge = -8.2 (src/REAXFF/fix_qeq_reaxff.cpp:392)
Neighbor list info ...
  update: every = 1 steps, delay = 0 steps, check = yes
  max neighbors/atom: 2000, page size: 100000
  master list distance cutoff = 12
  ghost atom cutoff = 12
  binsize = 6, bins = 5 3 3
  2 neighbor lists, perpetual/occasional/extra = 2 0 0
  (1) pair reaxff, perpetual
      attributes: half, newton off, ghost
      pair build: half/bin/newtoff/ghost
      stencil: full/ghost/bin/3d
      bin: standard
  (2) fix qeq/reaxff, perpetual, copy from (1)
      attributes: half, newton off
      pair build: copy
      stencil: none
      bin: none
Setting up cg style minimization ...
  Unit style    : real
  Current step  : 0
Per MPI rank memory allocation (min/avg/max) = 178.5 | 178.5 | 178.6 Mbytes
   Step          Temp          Press         Density         PotEng         TotEng    
         0   0              50159.025      1.4594291     -29524.072     -29524.072    
        94   0             -5929.8519      1.4594291     -32040.194     -32040.194    
Loop time of 6.62477 on 12 procs for 94 steps with 274 atoms

97.2% CPU use with 2 MPI tasks x 6 OpenMP threads

Minimization stats:
  Stopping criterion = energy tolerance
  Energy initial, next-to-last, final = 
      -29524.071898243  -32040.1829204686  -32040.1935546353
  Force two-norm initial, final = 1922.3946 85.060277
  Force max component initial, final = 335.64142 41.827776
  Final line search alpha, max atom move = 0.001553704 0.064987984
  Iterations, force evaluations = 94 237

MPI task timing breakdown:
Section |  min time  |  avg time  |  max time  |%varavg| %total
---------------------------------------------------------------
Pair    | 4.9422     | 4.9865     | 5.0309     |   2.0 | 75.27
Bond    | 4.3816e-05 | 5e-05      | 5.6183e-05 |   0.0 |  0.00
Neigh   | 0.022132   | 0.022151   | 0.022171   |   0.0 |  0.33
Comm    | 0.046393   | 0.090677   | 0.13496    |  14.7 |  1.37
Output  | 0          | 0          | 0          |   0.0 |  0.00
Modify  | 1.5204     | 1.5204     | 1.5204     |   0.0 | 22.95
Other   |            | 0.004927   |            |       |  0.07

Nlocal:            137 ave         142 max         132 min
Histogram: 1 0 0 0 0 0 0 0 0 1
Nghost:           4154 ave        4159 max        4149 min
Histogram: 1 0 0 0 0 0 0 0 0 1
Neighs:        70879.5 ave       73039 max       68720 min
Histogram: 1 0 0 0 0 0 0 0 0 1

Total # of neighbors = 141759
Ave neighs/atom = 517.36861
Ave special neighs/atom = 0
Neighbor list builds = 1
Dangerous builds not checked
System init for write_data ...
##### Equilibration starts.##### 
Setting up Verlet run ...
  Unit style    : real
  Current step  : 0
  Time step     : 0.5
Per MPI rank memory allocation (min/avg/max) = 176.9 | 176.9 | 176.9 Mbytes
   Step          Temp          Press         Density         PotEng         TotEng    
         0   300           -2715.4589      1.4594291     -32040.193     -31796.065    
       100   257.33538     -6184.8833      1.4662545     -31976.476     -31767.066    
       200   291.03179      3439.68        1.4829646     -31964.947     -31728.116    
       300   330.21055     -6005.9806      1.4997099     -31964.766     -31696.053    
       400   336.58936      2885.1284      1.5147919     -31966.157     -31692.253    
       500   339.9641      -1211.9443      1.5146184     -32008.013     -31731.363    
       600   340.3655       1653.1759      1.5085462     -32051.121     -31774.144    
       700   310.19947     -2558.9448      1.5065883     -32063.519     -31811.091    
       800   318.39597     -1503.5149      1.5130357     -32093.672     -31834.574    
       900   302.55267     -6522.1873      1.5222509     -32101.618     -31855.412    
      1000   289.03012      7437.3527      1.5282087     -32103.21      -31868.008    
      1100   293.38324     -542.19239      1.5187756     -32105.322     -31866.578    
      1200   298.91731      8695.7466      1.510833      -32093.469     -31850.221    
      1300   322.63057     -8837.2316      1.4935444     -32099.047     -31836.502    
      1400   299.31861      5254.0631      1.491797      -32074.962     -31831.388    
      1500   292.67211     -11076.926      1.4812303     -32081.894     -31843.729    
      1600   293.93842      8195.794       1.4870107     -32109.126     -31869.93     
      1700   286.86524     -6830.0427      1.4940421     -32104.739     -31871.3      
      1800   301.63792     -1929.6079      1.5048323     -32109.4       -31863.938    
      1900   329.51218      4220.4775      1.5118472     -32107.401     -31839.257    
      2000   333.16416     -11848.474      1.5098612     -32092.71      -31821.594    
      2100   295.06376     -860.9275       1.5149336     -32090.579     -31850.468    
      2200   313.28098      6263.4973      1.5152245     -32128.741     -31873.806    
      2300   292.26778      1060.5456      1.5152685     -32136.811     -31898.975    
      2400   278.44363      3258.4893      1.5350783     -32141.314     -31914.727    
      2500   288.87322     -3497.3049      1.5112605     -32145.775     -31910.701    
      2600   323.89174     -5347.5073      1.4806898     -32146.062     -31882.491    
      2700   319.96525     -721.22542      1.4728785     -32131.61      -31871.235    
      2800   319.91407     -5931.0635      1.4858399     -32128.974     -31868.64     
      2900   329.61765      10926.614      1.4988349     -32156.883     -31888.653    
      3000   298.07895     -697.43483      1.4994801     -32156.864     -31914.298    
      3100   295.89249      2203.8399      1.5106308     -32154.484     -31913.698    
      3200   299.65156     -6884.5405      1.5163972     -32151.052     -31907.207    
      3300   293.98562     -4537.7593      1.5301755     -32143.618     -31904.384    
      3400   290.34134     -5297.7983      1.5289643     -32138.11      -31901.842    
      3500   297.70874      1733.3987      1.5157693     -32127.774     -31885.511    
      3600   322.75652     -11228.518      1.5195805     -32149.93      -31887.283    
      3700   298.7511      -17223.519      1.5354812     -32156.167     -31913.055    
      3800   268.04383     -11079.088      1.5432838     -32146.401     -31928.277    
      3900   293.33185      8784.6148      1.5379404     -32160.429     -31921.727    
      4000   288.67773      13461.328      1.5314979     -32140.638     -31905.723    
      4100   311.91051      6143.4397      1.5255391     -32153.239     -31899.418    
      4200   299.95332      1861.2083      1.5394902     -32148.052     -31903.961    
      4300   276.5533       2101.1024      1.5294667     -32138.617     -31913.569    
      4400   301.10182      2450.0244      1.5349793     -32162.614     -31917.589    
      4500   284.88887      8191.6884      1.5425649     -32146.673     -31914.841    
      4600   303.24806     -8721.4713      1.5431155     -32139.852     -31893.08     
      4700   315.39478     -12348.37       1.5446454     -32141.64      -31884.984    
      4800   306.36867      723.71245      1.5193559     -32148.996     -31899.685    
      4900   302.68898      8563.4669      1.5085628     -32173.177     -31926.86     
      5000   293.84546      16563.907      1.5257813     -32171.658     -31932.537    
      5100   294.56693     -9602.7839      1.5199087     -32163.208     -31923.501    
      5200   332.2373       4496.9689      1.5222913     -32172.302     -31901.94     
      5300   302.45821     -18324.078      1.4927863     -32127.796     -31881.667    
      5400   325.53097     -2012.3876      1.5095316     -32151.274     -31886.37     
      5500   289.27476      14698.184      1.5277913     -32163.146     -31927.746    
      5600   282.33443     -1871.2639      1.5117454     -32165.176     -31935.423    
      5700   300.24883      11805.918      1.5444915     -32178.368     -31934.037    
      5800   280.75344     -6792.8413      1.5515364     -32142.415     -31913.949    
      5900   314.60496      1284.2636      1.5493386     -32164.965     -31908.952    
      6000   295.76485     -6430.304       1.5354868     -32153.641     -31912.959    
      6100   298.3404      -6303.342       1.5273736     -32170.931     -31928.154    
      6200   269.60225     -1139.3089      1.5192153     -32162.911     -31943.519    
      6300   302.71496      3555.757       1.5276429     -32186.481     -31940.143    
      6400   341.62439      11460.362      1.5365281     -32187.59      -31909.589    
      6500   323.32204     -7132.5236      1.5141458     -32167.336     -31904.229    
      6600   298.63048      8749.2619      1.5144947     -32159.359     -31916.345    
      6700   297.96601     -1659.1591      1.5194334     -32170.314     -31927.841    
      6800   293.57978     -1750.4254      1.535621      -32186.644     -31947.74     
      6900   282.11587      10077.287      1.5398681     -32182.897     -31953.322    
      7000   301.0853       963.26674      1.5340584     -32173.618     -31928.606    
      7100   301.8417      -7615.2906      1.5290652     -32157.006     -31911.379    
      7200   307.02845     -398.889        1.5283845     -32156.081     -31906.234    
      7300   303.93229      2345.6756      1.5370026     -32171.12      -31923.792    
      7400   281.15519      6293.5299      1.5362102     -32171.881     -31943.088    
      7500   288.09718     -17517.5        1.514791      -32173.689     -31939.246    
      7600   312.24951     -5739.5934      1.5119326     -32178.943     -31924.846    
      7700   289.41153     -177.7432       1.5125081     -32159.016     -31923.505    
      7800   298.08924      10469.764      1.5077662     -32169.128     -31926.554    
      7900   315.85657      7427.5448      1.5350595     -32181.248     -31924.216    
      8000   299.57196     -1133.5826      1.5158516     -32156.512     -31912.732    
      8100   317.42596      13989.496      1.5123898     -32142.079     -31883.77     
      8200   322.02174      2652.2739      1.5019016     -32156.04      -31893.991    
      8300   292.22777      5344.6716      1.5058047     -32153.881     -31916.078    
      8400   310.25741      5201.9705      1.5159715     -32176.862     -31924.386    
      8500   284.18977     -5375.3117      1.5095614     -32156.795     -31925.532    
      8600   303.3533      -7940.1912      1.5115083     -32152.612     -31905.755    
      8700   310.78538     -7912.6412      1.500944      -32139.899     -31886.994    
      8800   312.28073      1976.6484      1.4814407     -32134.733     -31880.611    
      8900   297.33378     -5629.2529      1.498966      -32161.606     -31919.647    
      9000   320.85851     -6788.8187      1.5126465     -32187.85      -31926.748    
      9100   286.17437      261.27186      1.5169559     -32158.138     -31925.26     
      9200   309.16425     -6790.774       1.5171441     -32156.644     -31905.059    
      9300   312.31442     -4772.7617      1.5218084     -32144.238     -31890.089    
      9400   314.98467      3732.7667      1.5375858     -32164.589     -31908.267    
      9500   280.00441     -10406.568      1.5366421     -32166.661     -31938.804    
      9600   306.31007     -2547.8359      1.5166276     -32191.14      -31941.876    
      9700   289.08711     -1988.6144      1.5109076     -32161.914     -31926.666    
      9800   329.55819      10658.999      1.5047039     -32172.602     -31904.421    
      9900   299.46022     -3838.703       1.4928092     -32143.208     -31899.519    
     10000   323.8564      -4749.0182      1.4904459     -32151.645     -31888.103    
Loop time of 305.62 on 12 procs for 10000 steps with 274 atoms

Performance: 1.414 ns/day, 16.979 hours/ns, 32.720 timesteps/s, 8.965 katom-step/s
98.7% CPU use with 2 MPI tasks x 6 OpenMP threads

MPI task timing breakdown:
Section |  min time  |  avg time  |  max time  |%varavg| %total
---------------------------------------------------------------
Pair    | 233.45     | 236.85     | 240.25     |  22.1 | 77.50
Bond    | 0.0020315  | 0.0021457  | 0.00226    |   0.2 |  0.00
Neigh   | 23.817     | 24.054     | 24.29      |   4.8 |  7.87
Comm    | 1.2792     | 4.6758     | 8.0725     | 157.1 |  1.53
Output  | 0.03381    | 0.042044   | 0.050278   |   4.0 |  0.01
Modify  | 39.584     | 39.827     | 40.069     |   3.8 | 13.03
Other   |            | 0.1678     |            |       |  0.05

Nlocal:            137 ave         151 max         123 min
Histogram: 1 0 0 0 0 0 0 0 0 1
Nghost:         4069.5 ave        4102 max        4037 min
Histogram: 1 0 0 0 0 0 0 0 0 1
Neighs:        72021.5 ave       78494 max       65549 min
Histogram: 1 0 0 0 0 0 0 0 0 1

Total # of neighbors = 144043
Ave neighs/atom = 525.70438
Ave special neighs/atom = 0
Neighbor list builds = 1000
Dangerous builds not checked
##### Heat starts.##### 
Setting up Verlet run ...
  Unit style    : real
  Current step  : 10000
  Time step     : 0.5
Per MPI rank memory allocation (min/avg/max) = 178.4 | 178.6 | 178.8 Mbytes
   Step          Temp          Press         Density         PotEng         TotEng    
     10000   323.8564      -4748.96        1.4904459     -32151.645     -31888.103    
     10100   338.04501     -613.05893      1.4904459     -32152.056     -31876.968    
     10200   334.37879     -7385.0451      1.4904459     -32097.349     -31825.245    
     10300   416.70597      2364.2844      1.4904459     -32086.293     -31747.194    
     10400   459.52869     -4419.3919      1.4904459     -32015.237     -31641.29     
     10500   515.37432     -12183.066      1.4904459     -31926.256     -31506.864    
     10600   651.23842     -20297.21       1.4904459     -31873.841     -31343.889    
     10700   779.96886     -23048.534      1.4904459     -31787.392     -31152.683    
     10800   912.43405      1530.0065      1.4904459     -31679.683     -30937.18     
     10900   977.61742     -86.590376      1.4904459     -31500.29      -30704.743    
     11000   1100.2504      953.35036      1.4904459     -31355.526     -30460.185    
     11100   1280.3683     -17529.025      1.4904459     -31258.56      -30216.646    
     11200   1365.5567     -34951.535      1.4904459     -31102.423     -29991.186    
     11300   1533.8916      19302.689      1.4904459     -31018.056     -29769.834    
     11400   1723.8475     -3631.6869      1.4904459     -30993.403     -29590.603    
     11500   1687.3544      14672.125      1.4904459     -30854.168     -29481.065    
     11600   1789.1967     -27063.995      1.4904459     -30774.475     -29318.496    
     11700   1874.4288     -1919.8735      1.4904459     -30615.486     -29090.149    
     11800   2114.7688      26315.812      1.4904459     -30598.29      -28877.373    
     11900   2238.0577      4167.1967      1.4904459     -30558.121     -28736.876    
     12000   1955.3053      12450.615      1.4904459     -30215.366     -28624.214    
Loop time of 60.6427 on 12 procs for 2000 steps with 274 atoms

Performance: 1.425 ns/day, 16.845 hours/ns, 32.980 timesteps/s, 9.037 katom-step/s
98.9% CPU use with 2 MPI tasks x 6 OpenMP threads

MPI task timing breakdown:
Section |  min time  |  avg time  |  max time  |%varavg| %total
---------------------------------------------------------------
Pair    | 46.133     | 46.876     | 47.619     |  10.9 | 77.30
Bond    | 0.00039198 | 0.00040973 | 0.00042748 |   0.0 |  0.00
Neigh   | 4.3564     | 4.4121     | 4.4679     |   2.7 |  7.28
Comm    | 0.26418    | 1.0063     | 1.7485     |  74.0 |  1.66
Output  | 0.0065322  | 0.0081586  | 0.009785   |   1.8 |  0.01
Modify  | 8.2448     | 8.3017     | 8.3585     |   2.0 | 13.69
Other   |            | 0.03784    |            |       |  0.06

Nlocal:            137 ave         143 max         131 min
Histogram: 1 0 0 0 0 0 0 0 0 1
Nghost:           4094 ave        4094 max        4094 min
Histogram: 2 0 0 0 0 0 0 0 0 0
Neighs:          72151 ave       74887 max       69415 min
Histogram: 1 0 0 0 0 0 0 0 0 1

Total # of neighbors = 144302
Ave neighs/atom = 526.64964
Ave special neighs/atom = 0
Neighbor list builds = 200
Dangerous builds not checked
##### Middle equilibration starts.##### 
Setting up Verlet run ...
  Unit style    : real
  Current step  : 12000
  Time step     : 0.5
Per MPI rank memory allocation (min/avg/max) = 178.2 | 178.6 | 178.9 Mbytes
   Step          Temp          Press         Density         PotEng         TotEng    
     12000   300           -5660.5527      1.4904459     -30215.366     -29971.237    
     12100   1477.2592      5214.0513      1.4904459     -30935.397     -29733.261    
     12200   1698.5553      8209.7826      1.4904459     -30763.599     -29381.38     
     12300   1890.474      -1130.6979      1.4904459     -30539.512     -29001.118    
     12400   2188.29        3146.7124      1.4904459     -30435.28      -28654.535    
     12500   2231.364      -23731.462      1.4904459     -30231.466     -28415.669    
     12600   2145.0475      17769.411      1.4904459     -30152.022     -28406.466    
     12700   2142.3986     -971.18207      1.4904459     -30230.278     -28486.877    
     12800   2255.2357      23865.995      1.4904459     -30307.14      -28471.917    
     12900   2061.6375      14261.864      1.4904459     -30201.015     -28523.335    
     13000   2189.4162      48936.92       1.4904459     -30392.529     -28610.867    
     13100   2043.7943      1185.3207      1.4904459     -30246.399     -28583.238    
     13200   2324.5843      48205.366      1.4904459     -30324.946     -28433.29     
     13300   2300.8133      5100.2806      1.4904459     -30264.476     -28392.164    
     13400   2209.8882     -6237.4924      1.4904459     -30321.998     -28523.677    
     13500   2065.1116      3308.305       1.4904459     -30347.192     -28666.684    
     13600   2188.4152      28414.389      1.4904459     -30406.941     -28626.094    
     13700   2222.5669      5868.0971      1.4904459     -30333.946     -28525.307    
     13800   2188.9321      973.83524      1.4904459     -30253.045     -28471.777    
     13900   2038.8842      30591.303      1.4904459     -30143.992     -28484.827    
     14000   2153.4608      14317.652      1.4904459     -30223.449     -28471.047    
     14100   2185.8723      2607.1524      1.4904459     -30183.591     -28404.813    
     14200   2194.153       20253.938      1.4904459     -30070.911     -28285.394    
     14300   2320.6615     -10841.589      1.4904459     -30162.576     -28274.112    
     14400   2230.0248      34589.079      1.4904459     -30315.02      -28500.313    
     14500   2102.264      -8495.3409      1.4904459     -30308.746     -28598.005    
     14600   2120.6148     -4800.0901      1.4904459     -30284.297     -28558.623    
     14700   2255.7824      7310.7491      1.4904459     -30286.897     -28451.229    
     14800   2422.9241      10432.269      1.4904459     -30256.133     -28284.451    
     14900   2370.3666     -4843.5066      1.4904459     -30113.847     -28184.935    
     15000   2171.7834     -8378.9585      1.4904459     -30154.315     -28387.002    
     15100   2131.8787     -1751.4156      1.4904459     -30284.026     -28549.186    
     15200   2092.7113     -27391.315      1.4904459     -30195.128     -28492.161    
     15300   2126.7676     -7846.5833      1.4904459     -30043.04      -28312.36     
     15400   2389.4911      41839.065      1.4904459     -30156.405     -28211.93     
     15500   2131.0911      17134.95       1.4904459     -29959.221     -28225.022    
     15600   2226.4438     -20924.856      1.4904459     -30103.859     -28292.065    
     15700   2242.495       16500.163      1.4904459     -30364.555     -28539.699    
     15800   2032.2935      25174.419      1.4904459     -30271.392     -28617.591    
     15900   2164.1923     -12427.345      1.4904459     -30314.403     -28553.268    
     16000   2051.1691      18852.844      1.4904459     -30113.27      -28444.108    
     16100   2305.8412     -6.4182675      1.4904459     -30136.607     -28260.203    
     16200   2313.7832      71068.009      1.4904459     -30141.876     -28259.01     
     16300   2259.9382      19103.762      1.4904459     -30176.381     -28337.331    
     16400   2118.3822      12106.262      1.4904459     -30113.012     -28389.155    
     16500   2140.7142     -19832.171      1.4904459     -30152.507     -28410.477    
     16600   2225.8218      15273.983      1.4904459     -30140.861     -28329.573    
     16700   2281.9035      12735.661      1.4904459     -30099.521     -28242.597    
     16800   2312.7916      36159.422      1.4904459     -30081.863     -28199.803    
     16900   2081.002       16320.089      1.4904459     -29920.675     -28227.236    
     17000   2088.9632      18081.754      1.4904459     -30084.678     -28384.761    
     17100   2127.6807     -2407.7142      1.4904459     -30222.035     -28490.611    
     17200   2035.2551     -7816.0947      1.4904459     -30042.597     -28386.385    
     17300   2189.0809     -16169.728      1.4904459     -29953.366     -28171.977    
     17400   2294.8329      28377.519      1.4904459     -30039.289     -28171.843    
     17500   2203.8079      14765.439      1.4904459     -30111.88      -28318.507    
     17600   2125.9427      8593.7892      1.4904459     -30137.553     -28407.543    
     17700   2085.3291     -30354.799      1.4904459     -29986.976     -28290.016    
     17800   2207.0126     -5237.5858      1.4904459     -29958.186     -28162.205    
     17900   2248.1656      11561.957      1.4904459     -30006.588     -28177.118    
     18000   2316.4754      50393.117      1.4904459     -30206.747     -28321.689    
     18100   2189.3457      12403.685      1.4904459     -30179.997     -28398.393    
     18200   2142.793      -6227.5076      1.4904459     -30161.751     -28418.029    
     18300   2073.1483      22166.422      1.4904459     -30101.947     -28414.899    
     18400   2242.7051      6975.2435      1.4904459     -30122.872     -28297.845    
     18500   2325.4303      7009.1377      1.4904459     -30075.839     -28183.494    
     18600   2284.8096      19263.668      1.4904459     -30010.246     -28150.956    
     18700   2157.3846      22491.083      1.4904459     -30017.926     -28262.33     
     18800   2006.5285     -13003.93       1.4904459     -30044.18      -28411.346    
     18900   2085.5809     -31037.481      1.4904459     -30080.34      -28383.175    
     19000   2205.6474     -20887.732      1.4904459     -30036.611     -28241.741    
     19100   2302.9013      36419.135      1.4904459     -30076.337     -28202.325    
     19200   2375.303      -3066.3006      1.4904459     -30184.229     -28251.3      
     19300   2269.8576      21818.426      1.4904459     -30182.487     -28335.365    
     19400   2071.3788      15310.297      1.4904459     -30141.906     -28456.299    
     19500   2236.9187      9351.5391      1.4904459     -30321.735     -28501.418    
     19600   2134.0136      7804.3374      1.4904459     -30168.711     -28432.133    
     19700   2299.9785      25937.015      1.4904459     -30083.016     -28211.383    
     19800   2401.903       38308.946      1.4904459     -30160.694     -28206.118    
     19900   2082.9582     -9052.1081      1.4904459     -30029.453     -28334.423    
     20000   2101.2476      22589.343      1.4904459     -30080.818     -28370.905    
     20100   2235.7237     -4635.1705      1.4904459     -30171.67      -28352.325    
     20200   2246.9341      26009.305      1.4904459     -30197.475     -28369.007    
     20300   2161.0854      48283.319      1.4904459     -30123.338     -28364.73     
     20400   2165.4766      61135.011      1.4904459     -30112.246     -28350.065    
     20500   2093.4495      13109.001      1.4904459     -30074.937     -28371.369    
     20600   2123.6467      5697.5881      1.4904459     -30030.082     -28301.941    
     20700   2333.9792      21705.921      1.4904459     -30126.633     -28227.332    
     20800   2208.7886      19327.629      1.4904459     -30085.063     -28287.636    
     20900   2094.8647      15363.646      1.4904459     -30155.515     -28450.796    
     21000   2112.7684      11670.456      1.4904459     -30291.109     -28571.82     
     21100   2208.6024      5399.5019      1.4904459     -30346.462     -28549.187    
     21200   2254.321       34005.756      1.4904459     -30106.308     -28271.83     
     21300   2393.6209      21263.08       1.4904459     -30147.192     -28199.356    
     21400   2238.4434     -18135.976      1.4904459     -30150.617     -28329.059    
     21500   2216.2598     -15433.788      1.4904459     -30272.008     -28468.502    
     21600   2108.3629      5573.1092      1.4904459     -30217.682     -28501.978    
     21700   2233.7641      6.2988951      1.4904459     -30221.981     -28404.23     
     21800   2298.1857      4158.9918      1.4904459     -30023.255     -28153.081    
     21900   2496.1142      13905.915      1.4904459     -30165.475     -28134.234    
     22000   2216.8023      31529.398      1.4904459     -30037.957     -28234.01     
Loop time of 308.429 on 12 procs for 10000 steps with 274 atoms

Performance: 1.401 ns/day, 17.135 hours/ns, 32.422 timesteps/s, 8.884 katom-step/s
98.8% CPU use with 2 MPI tasks x 6 OpenMP threads

MPI task timing breakdown:
Section |  min time  |  avg time  |  max time  |%varavg| %total
---------------------------------------------------------------
Pair    | 237.48     | 238.38     | 239.28     |   5.8 | 77.29
Bond    | 0.0020375  | 0.0020388  | 0.0020402  |   0.0 |  0.00
Neigh   | 22.299     | 22.421     | 22.543     |   2.6 |  7.27
Comm    | 2.5227     | 3.4213     | 4.32       |  48.6 |  1.11
Output  | 0.03562    | 0.044841   | 0.054062   |   4.4 |  0.01
Modify  | 43.835     | 43.966     | 44.098     |   2.0 | 14.25
Other   |            | 0.1907     |            |       |  0.06

Nlocal:            137 ave         138 max         136 min
Histogram: 1 0 0 0 0 0 0 0 0 1
Nghost:           4104 ave        4128 max        4080 min
Histogram: 1 0 0 0 0 0 0 0 0 1
Neighs:          72232 ave       72746 max       71718 min
Histogram: 1 0 0 0 0 0 0 0 0 1

Total # of neighbors = 144464
Ave neighs/atom = 527.24088
Ave special neighs/atom = 0
Neighbor list builds = 1000
Dangerous builds not checked
##### Cool starts.##### 
Setting up Verlet run ...
  Unit style    : real
  Current step  : 22000
  Time step     : 0.5
Per MPI rank memory allocation (min/avg/max) = 178.1 | 178.6 | 179 Mbytes
   Step          Temp          Press         Density         PotEng         TotEng    
     22000   2216.8023      31529.447      1.4904459     -30037.957     -28234.01     
     22100   2170.7891      13427.276      1.4904459     -30084.336     -28317.832    
     22200   1878.6906      25224.577      1.4904459     -30052.969     -28524.163    
     22300   1973.7301      1852.622       1.4904459     -30179.517     -28573.373    
     22400   1978.2817      9125.7397      1.4904459     -30284.834     -28674.985    
     22500   1898.544      -30580.775      1.4904459     -30389.711     -28844.75     
     22600   1843.6393      26262.31       1.4904459     -30496.778     -28996.496    
     22700   1692.8911      39647.542      1.4904459     -30553.6       -29175.991    
     22800   1592.3483      5600.3023      1.4904459     -30686.713     -29390.921    
     22900   1546.1552      29165.855      1.4904459     -30860.421     -29602.22     
     23000   1363.0757     -3.0574092      1.4904459     -30930.495     -29821.277    
     23100   1297.641       6757.8547      1.4904459     -31073.812     -30017.842    
     23200   1147.7528     -2202.4755      1.4904459     -31126.203     -30192.207    
     23300   1131.2091     -9986.23        1.4904459     -31279.222     -30358.688    
     23400   1015.8482     -6705.3897      1.4904459     -31345.835     -30519.177    
     23500   880.11656     -1945.5627      1.4904459     -31397.232     -30681.027    
     23600   797.9157       5561.5097      1.4904459     -31468.545     -30819.232    
     23700   704.27498      3196.0137      1.4904459     -31538.559     -30965.447    
     23800   647.79944     -927.19725      1.4904459     -31648.024     -31120.87     
     23900   543.15485     -17206.175      1.4904459     -31719.17      -31277.171    
     24000   468.14622      1678.5128      1.4904459     -31817.725     -31436.765    
Loop time of 58.5541 on 12 procs for 2000 steps with 274 atoms

Performance: 1.476 ns/day, 16.265 hours/ns, 34.156 timesteps/s, 9.359 katom-step/s
99.0% CPU use with 2 MPI tasks x 6 OpenMP threads

MPI task timing breakdown:
Section |  min time  |  avg time  |  max time  |%varavg| %total
---------------------------------------------------------------
Pair    | 45.376     | 45.392     | 45.408     |   0.2 | 77.52
Bond    | 0.00037546 | 0.00038647 | 0.00039748 |   0.0 |  0.00
Neigh   | 4.3939     | 4.4253     | 4.4567     |   1.5 |  7.56
Comm    | 0.4668     | 0.48326    | 0.49972    |   2.4 |  0.83
Output  | 0.0075729  | 0.0094731  | 0.011373   |   2.0 |  0.02
Modify  | 8.1723     | 8.2061     | 8.2399     |   1.2 | 14.01
Other   |            | 0.03795    |            |       |  0.06

Nlocal:            137 ave         140 max         134 min
Histogram: 1 0 0 0 0 0 0 0 0 1
Nghost:         4102.5 ave        4106 max        4099 min
Histogram: 1 0 0 0 0 0 0 0 0 1
Neighs:        72446.5 ave       73847 max       71046 min
Histogram: 1 0 0 0 0 0 0 0 0 1

Total # of neighbors = 144893
Ave neighs/atom = 528.80657
Ave special neighs/atom = 0
Neighbor list builds = 200
Dangerous builds not checked
##### final equilibration starts.##### 
Setting up Verlet run ...
  Unit style    : real
  Current step  : 24000
  Time step     : 0.5
Per MPI rank memory allocation (min/avg/max) = 178.2 | 178.6 | 179 Mbytes
   Step          Temp          Press         Density         PotEng         TotEng    
     24000   468.14622      1678.3841      1.4904459     -31817.725     -31436.766    
     24100   441.27772      1560.5912      1.4844102     -31886.042     -31526.947    
     24200   373.94618      621.47733      1.5015412     -31932.942     -31628.639    
     24300   335.80466      6720.2259      1.5218993     -31979.293     -31706.028    
     24400   293.17003      6450.9615      1.5209365     -32001.386     -31762.816    
     24500   289.7316       17783.422      1.5415546     -32032.797     -31797.024    
     24600   309.93378      1807.5984      1.5412718     -32061.214     -31809.002    
     24700   289.24443     -8613.3439      1.5386979     -32039.895     -31804.519    
     24800   289.97408     -1768.593       1.5282906     -32022.114     -31786.145    
     24900   290.38208     -8736.682       1.5021478     -32006.49      -31770.189    
     25000   331.52818     -4654.7979      1.5090847     -32028.224     -31758.439    
     25100   301.03067      11377.393      1.5182788     -32028.28      -31783.313    
     25200   287.09937      10250.367      1.5365663     -32046.653     -31813.022    
     25300   305.40819     -7363.902       1.5282621     -32074.033     -31825.504    
     25400   285.37915      10738.29       1.535452      -32058.737     -31826.507    
     25500   296.69713      7703.0138      1.5334753     -32041.305     -31799.864    
     25600   340.45182     -12309.998      1.5141825     -32062.44      -31785.393    
     25700   299.58062     -7307.8416      1.5295857     -32037.096     -31793.308    
     25800   271.80664     -1243.565       1.5288312     -32036.991     -31815.806    
     25900   301.25274      7077.3354      1.5308952     -32079.058     -31833.91     
     26000   285.10738      4318.4319      1.521638      -32064.482     -31832.473    
     26100   300.82463      7158.9281      1.5440682     -32040.094     -31795.294    
     26200   315.46055     -12222.19       1.5583149     -32045.981     -31789.271    
     26300   322.92961      3211.4731      1.5762993     -32077.365     -31814.577    
     26400   291.95552      411.46884      1.5668348     -32071.409     -31833.827    
     26500   300.14593     -5239.1549      1.5599807     -32078.67      -31834.423    
     26600   290.4574       12278.911      1.5382745     -32077.817     -31841.454    
     26700   282.14441      1363.7117      1.5209099     -32053.219     -31823.621    
     26800   302.32493     -2082.6919      1.5289693     -32047.435     -31801.414    
     26900   280.0855      -555.9676       1.5399502     -32042.882     -31814.96     
     27000   312.06996     -1496.5302      1.5296445     -32085.064     -31831.114    
     27100   290.10999     -5326.0274      1.5349391     -32073.697     -31837.616    
     27200   311.13664     -2733.1759      1.5322193     -32090.239     -31837.048    
     27300   296.2173       11064.514      1.5398253     -32078.646     -31837.596    
     27400   293.49503     -5603.0518      1.5434759     -32070.559     -31831.725    
     27500   303.56844      2035.8461      1.5636695     -32069.083     -31822.051    
     27600   329.29241     -1712.3549      1.5614999     -32066.479     -31798.514    
     27700   324.11527      20427.634      1.5658509     -32064.446     -31800.694    
     27800   322.23232     -1360.3303      1.5636701     -32109.021     -31846.801    
     27900   308.54933      9551.0026      1.5632997     -32112.733     -31861.647    
     28000   293.85386     -4561.8499      1.5704105     -32108.582     -31869.456    
     28100   305.64582     -6708.4425      1.5606089     -32123.835     -31875.112    
     28200   282.67444      8463.5095      1.5554443     -32118.674     -31888.645    
     28300   310.45109      8787.1351      1.5818205     -32144.353     -31891.72     
     28400   303.91574      1640.9603      1.5894311     -32120.312     -31872.997    
     28500   322.72467      18065.771      1.5841971     -32111.574     -31848.954    
     28600   310.68534     -8973.4297      1.5549744     -32101.333     -31848.509    
     28700   289.80208     -9174.9153      1.5491532     -32114.982     -31879.152    
     28800   269.96842      7339.4821      1.5506374     -32118.842     -31899.152    
     28900   310.73678     -2063.1818      1.5615465     -32150.093     -31897.228    
     29000   294.88288      6401.9352      1.5500736     -32133.127     -31893.163    
     29100   313.03446     -5471.7332      1.5597559     -32135.905     -31881.17     
     29200   319.44831      8707.9921      1.5465498     -32122.287     -31862.333    
     29300   303.54858     -2294.5242      1.5302856     -32094.222     -31847.206    
     29400   327.69851     -1550.4376      1.5336035     -32121.872     -31855.204    
     29500   299.71325     -8630.6166      1.5325538     -32136.326     -31892.431    
     29600   303.41644      1615.9189      1.558312      -32138.085     -31891.177    
     29700   293.11756     -5260.3114      1.5687322     -32141.752     -31903.225    
     29800   279.84938     -2252.6394      1.5769227     -32153.218     -31925.488    
     29900   265.90873     -9650.3206      1.5871142     -32131.7       -31915.314    
     30000   306.17698     -18652.688      1.5819576     -32148.555     -31899.4      
     30100   287.56971     -4165.4693      1.582908      -32128.549     -31894.536    
     30200   321.1945      -6206.7577      1.5664726     -32161.282     -31899.906    
     30300   280.62114     -4682.8714      1.5600444     -32143.699     -31915.341    
     30400   280.3768      -5258.2482      1.5593132     -32149.637     -31921.477    
     30500   296.4011       15651.38       1.5598038     -32142.338     -31901.139    
     30600   297.51191      11613.666      1.5516651     -32118.541     -31876.437    
     30700   318.02554     -14207.826      1.563012      -32127.806     -31869.01     
     30800   314.28047     -5984.8288      1.5846218     -32143.129     -31887.38     
     30900   300.75812      17401.862      1.5926382     -32164.22      -31919.475    
     31000   297.27929     -3917.4729      1.5889145     -32160.127     -31918.213    
     31100   290.39837      6098.3797      1.601648      -32137.619     -31901.304    
     31200   313.18708      7525.3666      1.5829892     -32135.462     -31880.602    
     31300   311.67178     -1445.8753      1.5783513     -32149.017     -31895.391    
     31400   283.61923      13445.863      1.5798867     -32147.731     -31916.933    
     31500   282.61118      6179.6966      1.5847369     -32145.163     -31915.185    
     31600   298.60551      3473.8163      1.5700577     -32141.306     -31898.313    
     31700   295.32129     -1715.3888      1.5769517     -32123.651     -31883.33     
     31800   309.48958     -5559.1941      1.6020508     -32140.528     -31888.677    
     31900   304.36947      7345.4728      1.6115431     -32155.571     -31907.887    
     32000   299.83876     -19193.614      1.5954003     -32163.269     -31919.272    
     32100   317.4263       3820.3415      1.6128167     -32176.433     -31918.124    
     32200   323.64271      7016.6744      1.602815      -32184.534     -31921.167    
     32300   313.84197      2336.2339      1.6029135     -32175.674     -31920.281    
     32400   295.66974     -6376.0574      1.5863283     -32157.394     -31916.789    
     32500   311.18009     -424.64025      1.573909      -32144.247     -31891.021    
     32600   332.93919      17078.902      1.5905927     -32155.937     -31885.004    
     32700   322.70296      33517.403      1.6120851     -32169.344     -31906.741    
     32800   292.81556     -2956.5         1.5980241     -32169.019     -31930.737    
     32900   287.19949      8084.704       1.5871747     -32168.62      -31934.908    
     33000   304.02892      336.06303      1.5747543     -32173.898     -31926.491    
     33100   304.19354      24397.702      1.578481      -32158.36      -31910.819    
     33200   334.81173     -2591.7647      1.5737578     -32168.316     -31895.86     
     33300   317.53886      4937.6264      1.5661146     -32166.235     -31907.834    
     33400   285.56932     -6597.3123      1.5752981     -32173.032     -31940.647    
     33500   299.37407      1394.1596      1.6185431     -32182.961     -31939.342    
     33600   300.03334      1633.5199      1.6087537     -32166.857     -31922.702    
     33700   311.68863      7168.2123      1.5839537     -32156.731     -31903.091    
     33800   310.10446     -1371.8212      1.5665271     -32141.176     -31888.825    
     33900   301.29168     -1103.5254      1.578331      -32137.574     -31892.394    
     34000   299.29551     -6072.8167      1.5883825     -32147.344     -31903.789    
Loop time of 304.379 on 12 procs for 10000 steps with 274 atoms

Performance: 1.419 ns/day, 16.910 hours/ns, 32.854 timesteps/s, 9.002 katom-step/s
98.7% CPU use with 2 MPI tasks x 6 OpenMP threads

MPI task timing breakdown:
Section |  min time  |  avg time  |  max time  |%varavg| %total
---------------------------------------------------------------
Pair    | 234.45     | 236.02     | 237.58     |  10.2 | 77.54
Bond    | 0.0019374  | 0.0019888  | 0.0020402  |   0.1 |  0.00
Neigh   | 24.921     | 24.972     | 25.022     |   1.0 |  8.20
Comm    | 1.4037     | 2.9659     | 4.5281     |  90.7 |  0.97
Output  | 0.037949   | 0.047142   | 0.056335   |   4.2 |  0.02
Modify  | 40.164     | 40.211     | 40.257     |   0.7 | 13.21
Other   |            | 0.1652     |            |       |  0.05

Nlocal:            137 ave         143 max         131 min
Histogram: 1 0 0 0 0 0 0 0 0 1
Nghost:           4192 ave        4252 max        4132 min
Histogram: 1 0 0 0 0 0 0 0 0 1
Neighs:        77258.5 ave       80341 max       74176 min
Histogram: 1 0 0 0 0 0 0 0 0 1

Total # of neighbors = 154517
Ave neighs/atom = 563.93066
Ave special neighs/atom = 0
Neighbor list builds = 1000
Dangerous builds not checked
System init for write_data ...
##### 333-EXP-11-vasp Final Density: 1.588382543528643609 #####
Total wall time: 0:17:24
