LAMMPS (2 Aug 2023 - Update 2)
  using 2 OpenMP thread(s) per MPI task
Reading data file ...
  triclinic box = (0 0 0) to (17.3186 12.8149 18.6403) with tilt (-8.851 0.4589 0.2054)
WARNING: Triclinic box skew is large. LAMMPS will run inefficiently. (src/domain.cpp:220)
  2 by 2 by 2 MPI processor grid
  reading atoms ...
  371 atoms
Finding 1-2 1-3 1-4 neighbors ...
  special bond factors lj:    0        0        0       
  special bond factors coul:  0        0        0       
     0 = max # of 1-2 neighbors
     0 = max # of 1-3 neighbors
     0 = max # of 1-4 neighbors
     1 = max # of special neighbors
  special bonds CPU = 0.001 seconds
  read_data CPU = 0.006 seconds
*****Minimization starts.*****
Setting up cg style minimization ...
  Unit style    : real
  Current step  : 0
WARNING: No pairwise cutoff or binsize set. Atom sorting therefore disabled. (src/atom.cpp:2366)
WARNING: Communication cutoff is 0.0. No ghost atoms will be generated. Atoms may get lost. (src/comm_brick.cpp:210)
Per MPI rank memory allocation (min/avg/max) = 6.865 | 6.865 | 6.865 Mbytes
   Step          Temp          E_pair         E_mol          TotEng         Press     
         0   300            0              0              330.86992      3656.0256    
         1   300            0              0              330.86992      3656.0256    
Loop time of 5.05101e-05 on 16 procs for 1 steps with 371 atoms

55.4% CPU use with 8 MPI tasks x 2 OpenMP threads

Minimization stats:
  Stopping criterion = search direction is not downhill
  Energy initial, next-to-last, final = 
                     0                  0                  0
  Force two-norm initial, final = 0 0
  Force max component initial, final = 0 0
  Final line search alpha, max atom move = 0 0
  Iterations, force evaluations = 1 0

MPI task timing breakdown:
Section |  min time  |  avg time  |  max time  |%varavg| %total
---------------------------------------------------------------
Pair    | 0          | 0          | 0          |   0.0 |  0.00
Bond    | 1.34e-07   | 1.6125e-07 | 2.01e-07   |   0.0 |  0.32
Neigh   | 0          | 0          | 0          |   0.0 |  0.00
Comm    | 1.469e-06  | 1.5998e-06 | 1.699e-06  |   0.0 |  3.17
Output  | 0          | 0          | 0          |   0.0 |  0.00
Modify  | 0          | 0          | 0          |   0.0 |  0.00
Other   |            | 4.875e-05  |            |       | 96.51

Nlocal:         46.375 ave          56 max          42 min
Histogram: 5 0 0 0 0 1 0 1 0 1
Nghost:              0 ave           0 max           0 min
Histogram: 8 0 0 0 0 0 0 0 0 0
Neighs:              0 ave           0 max           0 min
Histogram: 8 0 0 0 0 0 0 0 0 0

Total # of neighbors = 0
Ave neighs/atom = 0
Ave special neighs/atom = 0
Neighbor list builds = 0
Dangerous builds = 0
System init for write_data ...
WARNING: Communication cutoff is 0.0. No ghost atoms will be generated. Atoms may get lost. (src/comm_brick.cpp:210)
WARNING: New thermo_style command, previous thermo_modify settings will be lost (src/output.cpp:903)

CITE-CITE-CITE-CITE-CITE-CITE-CITE-CITE-CITE-CITE-CITE-CITE-CITE

Your simulation uses code contributions which should be cited:
- pair reaxff command: doi:10.1016/j.parco.2011.08.005
- fix qeq/reaxff command: doi:10.1016/j.parco.2011.08.005
The log file lists these citations in BibTeX format.

CITE-CITE-CITE-CITE-CITE-CITE-CITE-CITE-CITE-CITE-CITE-CITE-CITE

WARNING: Fix qeq/reaxff group is not charge neutral, net charge = -4.92 (src/REAXFF/fix_qeq_reaxff.cpp:392)
Neighbor list info ...
  update: every = 10 steps, delay = 0 steps, check = no
  max neighbors/atom: 2000, page size: 100000
  master list distance cutoff = 12
  ghost atom cutoff = 12
  binsize = 6, bins = 5 3 4
  2 neighbor lists, perpetual/occasional/extra = 2 0 0
  (1) pair reaxff, perpetual
      attributes: half, newton off, ghost
      pair build: half/bin/newtoff/ghost
      stencil: full/ghost/bin/3d
      bin: standard
  (2) fix qeq/reaxff, perpetual, copy from (1)
      attributes: half, newton off
      pair build: copy
      stencil: none
      bin: none
Setting up Verlet run ...
  Unit style    : real
  Current step  : 0
  Time step     : 0.5
Per MPI rank memory allocation (min/avg/max) = 132.4 | 133.5 | 134.9 Mbytes
   Step          Temp          PotEng         Press        f_avgp[1]       Density         Volume    
         0   300           -41361.517      76779.476      0              1.6093426      4136.956     
       100   541.57794     -42459.05      -13231.545     -5588.9992      1.6093426      4136.956     
       200   459.34805     -42754.443     -10109.144     -4886.5119      1.6093426      4136.956     
       300   387.45805     -42871.57      -3835.5017     -6068.7299      1.6093426      4136.956     
       400   325.45        -42953.61       7604.2531     -2213.5308      1.6093426      4136.956     
       500   286.91097     -42987.538     -3301.5399      2263.0751      1.6093426      4136.956     
       600   289.35141     -42993.269     -257.99806     -129.26085      1.6093426      4136.956     
       700   324.04734     -42992.943     -10642.823     -6876.0648      1.6093426      4136.956     
       800   283.36128     -43012.895     -1397.3904     -3028.8439      1.6093426      4136.956     
       900   283.96191     -43009.952     -1037.6744     -2303.3332      1.6093426      4136.956     
      1000   286.88566     -43011.32       429.23841     -2666.1624      1.6093426      4136.956     
      1100   288.27351     -43044.53      -7612.8039     -7461.7486      1.6093426      4136.956     
      1200   292.69018     -43064.316     -6390.2665     -4063.854       1.6093426      4136.956     
      1300   289.39824     -43015.329     -5096.9668     -1931.7077      1.6093426      4136.956     
      1400   301.73881     -43056.38       5889.7395     -3327.8689      1.6093426      4136.956     
      1500   297.80632     -43082.405     -8043.9573     -3882.6497      1.6093426      4136.956     
      1600   313.90033     -43053.122      2314.5098     -3333.9231      1.6093426      4136.956     
      1700   320.46345     -43057.789     -3653.4812     -4502.6798      1.6093426      4136.956     
      1800   320.99181     -43094.048     -569.45588     -8405.1368      1.6093426      4136.956     
      1900   304.97726     -43090.18       298.13039     -5729.3915      1.6093426      4136.956     
      2000   297.8353      -43087.729     -6098.0537     -5134.5616      1.6093426      4136.956     
Loop time of 103.5 on 16 procs for 2000 steps with 371 atoms

Performance: 0.835 ns/day, 28.750 hours/ns, 19.324 timesteps/s, 7.169 katom-step/s
98.9% CPU use with 8 MPI tasks x 2 OpenMP threads

MPI task timing breakdown:
Section |  min time  |  avg time  |  max time  |%varavg| %total
---------------------------------------------------------------
Pair    | 75.68      | 78.043     | 80.555     |  16.0 | 75.40
Bond    | 0.00068145 | 0.00081741 | 0.00095215 |   0.0 |  0.00
Neigh   | 5.4019     | 5.5483     | 5.6889     |   3.9 |  5.36
Comm    | 5.7462     | 8.2922     | 10.677     |  49.7 |  8.01
Output  | 0.0010633  | 0.0013643  | 0.0033124  |   2.0 |  0.00
Modify  | 11.04      | 11.231     | 11.431     |   4.0 | 10.85
Other   |            | 0.3837     |            |       |  0.37

Nlocal:         46.375 ave          55 max          38 min
Histogram: 1 0 1 2 1 1 0 0 0 2
Nghost:        3389.38 ave        3426 max        3349 min
Histogram: 2 1 1 0 0 0 0 0 1 3
Neighs:        28975.6 ave       34234 max       24076 min
Histogram: 1 0 1 2 1 1 0 0 0 2

Total # of neighbors = 231805
Ave neighs/atom = 624.81132
Ave special neighs/atom = 0
Neighbor list builds = 200
Dangerous builds not checked
System init for write_restart ...
  using 2 OpenMP thread(s) per MPI task
Reading restart file ...
  restart file = 2 Aug 2023, LAMMPS = 2 Aug 2023
  restoring atom style full from restart
  triclinic box = (0 0 0) to (17.3186 12.8149 18.6403) with tilt (-8.851 0.4589 0.2054)
WARNING: Triclinic box skew is large. LAMMPS will run inefficiently. (src/domain.cpp:220)
  2 by 2 by 2 MPI processor grid
  pair style reaxff stores no restart info
  371 atoms
Finding 1-2 1-3 1-4 neighbors ...
  special bond factors lj:    0        0        0       
  special bond factors coul:  0        0        0       
     0 = max # of 1-2 neighbors
     0 = max # of 1-3 neighbors
     0 = max # of 1-4 neighbors
     1 = max # of special neighbors
  special bonds CPU = 0.001 seconds
  read_restart CPU = 0.004 seconds
*****Negative-deform 1 starts.*****
Neighbor list info ...
  update: every = 10 steps, delay = 0 steps, check = no
  max neighbors/atom: 2000, page size: 100000
  master list distance cutoff = 12
  ghost atom cutoff = 12
  binsize = 6, bins = 5 3 4
  2 neighbor lists, perpetual/occasional/extra = 2 0 0
  (1) pair reaxff, perpetual
      attributes: half, newton off, ghost
      pair build: half/bin/newtoff/ghost
      stencil: full/ghost/bin/3d
      bin: standard
  (2) fix qeq/reaxff, perpetual, copy from (1)
      attributes: half, newton off
      pair build: copy
      stencil: none
      bin: none
Setting up Verlet run ...
  Unit style    : real
  Current step  : 0
  Time step     : 0.5
Per MPI rank memory allocation (min/avg/max) = 131.4 | 132.9 | 134.2 Mbytes
   Step          Temp          PotEng         Press        f_avgp[1]        Volume    
         0   297.8353      -43087.729     -6098.0653      0              4136.956     
       100   307.64833     -43084.794     -2698.4842     -2303.7953      4134.8875    
       200   300.42975     -43109.378     -6006.188      -7167.4144      4132.819     
       300   287.11536     -43074.566     -9718.8635     -3950.6538      4130.7506    
       400   303.57061     -43089.427     -1291.019      -5911.9466      4128.6821    
       500   311.8041      -43114.168     -12310.415     -430.31421      4126.6136    
       600   318.99874     -43119.984     -3516.3252      769.6291       4124.5451    
       700   310.25252     -43119.447     -14214.472     -271.02262      4122.4766    
       800   281.13569     -43133.68      -10030.016     -2333.4137      4120.4082    
       900   268.61068     -43115.641     -10010.245     -3119.3007      4118.3397    
      1000   268.94681     -43131.749     -10078.964     -4290.1571      4116.2712    
      1100   284.93597     -43165.996      1342.2731      1720.8957      4114.2027    
      1200   281.48855     -43143.309     -15508.718     -2416.5555      4112.1343    
      1300   292.53875     -43159.647      6633.0406     -1100.0477      4110.0658    
      1400   301.8185      -43138.669      2912.93       -1037.0685      4107.9973    
      1500   301.12027     -43170.684     -4219.9141      29.875966      4105.9288    
      1600   316.23698     -43141.336     -4469.5368     -1032.2959      4103.8603    
      1700   297.87571     -43145.119     -1828.2233     -7290.1398      4101.7919    
      1800   317.27259     -43156.947     -9230.7639     -2170.517       4099.7234    
      1900   294.78318     -43142.867      422.99561     -2972.7853      4097.6549    
      2000   325.77428     -43127.982     -65.191884     -256.60915      4095.5864    
Loop time of 104.544 on 16 procs for 2000 steps with 371 atoms

Performance: 0.826 ns/day, 29.040 hours/ns, 19.131 timesteps/s, 7.097 katom-step/s
98.9% CPU use with 8 MPI tasks x 2 OpenMP threads

MPI task timing breakdown:
Section |  min time  |  avg time  |  max time  |%varavg| %total
---------------------------------------------------------------
Pair    | 78.125     | 79.29      | 80.052     |   6.9 | 75.84
Bond    | 0.00073245 | 0.00081156 | 0.00094641 |   0.0 |  0.00
Neigh   | 5.3717     | 5.464      | 5.5368     |   2.8 |  5.23
Comm    | 7.21       | 8.0413     | 9.2434     |  22.1 |  7.69
Output  | 0.0064423  | 0.015506   | 0.024582   |   5.2 |  0.01
Modify  | 11.255     | 11.372     | 11.482     |   2.4 | 10.88
Other   |            | 0.3605     |            |       |  0.34

Nlocal:         46.375 ave          50 max          43 min
Histogram: 1 2 0 0 2 0 0 0 2 1
Nghost:        3379.12 ave        3422 max        3332 min
Histogram: 2 0 0 1 1 0 2 0 0 2
Neighs:        29308.2 ave       31617 max       27269 min
Histogram: 2 1 0 2 0 0 0 0 2 1

Total # of neighbors = 234466
Ave neighs/atom = 631.98383
Ave special neighs/atom = 0
Neighbor list builds = 200
Dangerous builds not checked
  using 2 OpenMP thread(s) per MPI task
Reading restart file ...
  restart file = 2 Aug 2023, LAMMPS = 2 Aug 2023
  restoring atom style full from restart
  triclinic box = (0 0 0) to (17.3186 12.8149 18.6403) with tilt (-8.851 0.4589 0.2054)
WARNING: Triclinic box skew is large. LAMMPS will run inefficiently. (src/domain.cpp:220)
  2 by 2 by 2 MPI processor grid
  pair style reaxff stores no restart info
  371 atoms
Finding 1-2 1-3 1-4 neighbors ...
  special bond factors lj:    0        0        0       
  special bond factors coul:  0        0        0       
     0 = max # of 1-2 neighbors
     0 = max # of 1-3 neighbors
     0 = max # of 1-4 neighbors
     1 = max # of special neighbors
  special bonds CPU = 0.000 seconds
  read_restart CPU = 0.004 seconds
*****Positive-deform 1 starts.*****
Neighbor list info ...
  update: every = 10 steps, delay = 0 steps, check = no
  max neighbors/atom: 2000, page size: 100000
  master list distance cutoff = 12
  ghost atom cutoff = 12
  binsize = 6, bins = 5 3 4
  2 neighbor lists, perpetual/occasional/extra = 2 0 0
  (1) pair reaxff, perpetual
      attributes: half, newton off, ghost
      pair build: half/bin/newtoff/ghost
      stencil: full/ghost/bin/3d
      bin: standard
  (2) fix qeq/reaxff, perpetual, copy from (1)
      attributes: half, newton off
      pair build: copy
      stencil: none
      bin: none
Setting up Verlet run ...
  Unit style    : real
  Current step  : 0
  Time step     : 0.5
Per MPI rank memory allocation (min/avg/max) = 131.4 | 132.9 | 134.2 Mbytes
   Step          Temp          PotEng         Press        f_avgp[1]        Volume    
         0   297.8353      -43087.729     -6098.0653      0              4136.956     
       100   307.64833     -43084.794     -2695.7871     -2303.6299      4139.0245    
       200   297.85203     -43101.958     -8862.9933     -7511.0944      4141.0929    
       300   310.13572     -43100.18       5314.1335     -5968.7208      4143.1614    
       400   305.49348     -43124.924      2493.6983     -5578.6635      4145.2299    
       500   319.4119      -43085.225     -13027.113     -5362.9951      4147.2984    
       600   306.54452     -43106.029      6335.9294     -7034.2281      4149.3669    
       700   309.56069     -43122.426      2561.8993     -2983.0671      4151.4353    
       800   313.96295     -43129.348      1447.6781     -4702.7353      4153.5038    
       900   300.98083     -43118.17       3387.617      -7230.2517      4155.5723    
      1000   285.81147     -43111.792     -21951.368     -11375.234      4157.6408    
      1100   311.47399     -43131.114     -5604.2264     -7263.555       4159.7092    
      1200   287.92127     -43115.395     -8436.9443     -4560.5746      4161.7777    
      1300   317.44409     -43141.688     -2700.697      -5191.9087      4163.8462    
      1400   295.66464     -43148.779     -3755.5745     -2026.6159      4165.9147    
      1500   309.58725     -43157.035      937.20746     -9822.3893      4167.9832    
      1600   315.81522     -43161.731     -12677.312     -14508.447      4170.0516    
      1700   309.51525     -43151.484     -3566.8781     -8866.6849      4172.1201    
      1800   298.86578     -43148.525     -12226.016     -7041.4711      4174.1886    
      1900   284.62196     -43178.159     -8799.5504     -7334.4378      4176.2571    
      2000   272.37485     -43116.946      6774.1605     -3872.5494      4178.3256    
Loop time of 103.765 on 16 procs for 2000 steps with 371 atoms

Performance: 0.833 ns/day, 28.824 hours/ns, 19.274 timesteps/s, 7.151 katom-step/s
98.9% CPU use with 8 MPI tasks x 2 OpenMP threads

MPI task timing breakdown:
Section |  min time  |  avg time  |  max time  |%varavg| %total
---------------------------------------------------------------
Pair    | 76.288     | 77.945     | 79.178     |   9.7 | 75.12
Bond    | 0.00070303 | 0.00081877 | 0.00095713 |   0.0 |  0.00
Neigh   | 5.2478     | 5.4337     | 5.5677     |   3.7 |  5.24
Comm    | 7.369      | 8.6804     | 10.379     |  30.0 |  8.37
Output  | 0.0073401  | 0.015927   | 0.023709   |   4.6 |  0.02
Modify  | 11.124     | 11.322     | 11.569     |   3.6 | 10.91
Other   |            | 0.3671     |            |       |  0.35

Nlocal:         46.375 ave          53 max          38 min
Histogram: 1 0 1 0 1 1 1 1 1 1
Nghost:           3351 ave        3428 max        3283 min
Histogram: 2 0 2 0 0 0 1 1 1 1
Neighs:        28722.2 ave       32646 max       23567 min
Histogram: 1 0 1 0 1 1 1 1 1 1

Total # of neighbors = 229778
Ave neighs/atom = 619.34771
Ave special neighs/atom = 0
Neighbor list builds = 200
Dangerous builds not checked
  using 2 OpenMP thread(s) per MPI task
Reading restart file ...
  restart file = 2 Aug 2023, LAMMPS = 2 Aug 2023
  restoring atom style full from restart
  triclinic box = (0 0 0) to (17.3186 12.8149 18.6403) with tilt (-8.851 0.4589 0.2054)
WARNING: Triclinic box skew is large. LAMMPS will run inefficiently. (src/domain.cpp:220)
  2 by 2 by 2 MPI processor grid
  pair style reaxff stores no restart info
  371 atoms
Finding 1-2 1-3 1-4 neighbors ...
  special bond factors lj:    0        0        0       
  special bond factors coul:  0        0        0       
     0 = max # of 1-2 neighbors
     0 = max # of 1-3 neighbors
     0 = max # of 1-4 neighbors
     1 = max # of special neighbors
  special bonds CPU = 0.000 seconds
  read_restart CPU = 0.003 seconds
*****Negative-deform 2 starts.*****
Neighbor list info ...
  update: every = 10 steps, delay = 0 steps, check = no
  max neighbors/atom: 2000, page size: 100000
  master list distance cutoff = 12
  ghost atom cutoff = 12
  binsize = 6, bins = 5 3 4
  2 neighbor lists, perpetual/occasional/extra = 2 0 0
  (1) pair reaxff, perpetual
      attributes: half, newton off, ghost
      pair build: half/bin/newtoff/ghost
      stencil: full/ghost/bin/3d
      bin: standard
  (2) fix qeq/reaxff, perpetual, copy from (1)
      attributes: half, newton off
      pair build: copy
      stencil: none
      bin: none
Setting up Verlet run ...
  Unit style    : real
  Current step  : 0
  Time step     : 0.5
Per MPI rank memory allocation (min/avg/max) = 131.4 | 132.9 | 134.2 Mbytes
   Step          Temp          PotEng         Press        f_avgp[1]        Volume    
         0   297.8353      -43087.729     -6098.0653      0              4136.956     
       100   307.64833     -43084.794     -2698.4842     -2303.7953      4134.8875    
       200   300.83599     -43107.202     -8389.3003     -7070.9986      4132.819     
       300   306.86004     -43104.643      5027.6523     -5487.7978      4130.7506    
       400   328.09961     -43113.057      6045.0003     -6857.3713      4128.6821    
       500   302.78271     -43110.093     -6376.1405     -8388.6761      4126.6136    
       600   302.44343     -43145.558      4877.575      -5329.4853      4124.5451    
       700   293.07721     -43134.889     -6473.9093     -9345.9272      4122.4766    
       800   301.52013     -43118.996     -13856.01      -6158.2756      4120.4082    
       900   305.43605     -43113.88       1535.7678     -8223.2236      4118.3397    
      1000   308.44358     -43131.153      18.717897     -633.01632      4116.2712    
      1100   301.06136     -43138.202     -1786.0055     -7286.508       4114.2027    
      1200   328.32614     -43120.344      5929.8331     -3373.6154      4112.1343    
      1300   311.67866     -43115.233     -6699.0973      252.88933      4110.0658    
      1400   302.38635     -43099.872     -9342.2795      249.29249      4107.9973    
      1500   310.30142     -43133.692     -13930.215      758.60927      4105.9288    
      1600   307.50958     -43104.206     -8501.0564     -4159.4227      4103.8603    
      1700   306.86615     -43103.972     -7558.4022     -4365.4767      4101.7919    
      1800   319.25886     -43126.121     -7027.6181     -5547.9647      4099.7234    
      1900   308.94087     -43128.484     -1550.0008      108.54445      4097.6549    
      2000   314.808       -43129.972     -392.12373      4701.229       4095.5864    
Loop time of 105.02 on 16 procs for 2000 steps with 371 atoms

Performance: 0.823 ns/day, 29.172 hours/ns, 19.044 timesteps/s, 7.065 katom-step/s
98.8% CPU use with 8 MPI tasks x 2 OpenMP threads

MPI task timing breakdown:
Section |  min time  |  avg time  |  max time  |%varavg| %total
---------------------------------------------------------------
Pair    | 76.461     | 79.108     | 80.713     |  14.6 | 75.33
Bond    | 0.00069266 | 0.00081386 | 0.0009873  |   0.0 |  0.00
Neigh   | 5.2875     | 5.4477     | 5.5318     |   3.4 |  5.19
Comm    | 7.0931     | 8.7297     | 11.432     |  44.3 |  8.31
Output  | 0.0081176  | 0.01667    | 0.025302   |   4.6 |  0.02
Modify  | 11.271     | 11.382     | 11.563     |   3.0 | 10.84
Other   |            | 0.3351     |            |       |  0.32

Nlocal:         46.375 ave          51 max          39 min
Histogram: 1 1 0 0 0 1 0 2 1 2
Nghost:        3402.75 ave        3455 max        3350 min
Histogram: 3 0 1 0 0 0 0 0 2 2
Neighs:        29309.5 ave       32233 max       24732 min
Histogram: 1 1 0 0 1 0 0 2 1 2

Total # of neighbors = 234476
Ave neighs/atom = 632.01078
Ave special neighs/atom = 0
Neighbor list builds = 200
Dangerous builds not checked
  using 2 OpenMP thread(s) per MPI task
Reading restart file ...
  restart file = 2 Aug 2023, LAMMPS = 2 Aug 2023
  restoring atom style full from restart
  triclinic box = (0 0 0) to (17.3186 12.8149 18.6403) with tilt (-8.851 0.4589 0.2054)
WARNING: Triclinic box skew is large. LAMMPS will run inefficiently. (src/domain.cpp:220)
  2 by 2 by 2 MPI processor grid
  pair style reaxff stores no restart info
  371 atoms
Finding 1-2 1-3 1-4 neighbors ...
  special bond factors lj:    0        0        0       
  special bond factors coul:  0        0        0       
     0 = max # of 1-2 neighbors
     0 = max # of 1-3 neighbors
     0 = max # of 1-4 neighbors
     1 = max # of special neighbors
  special bonds CPU = 0.000 seconds
  read_restart CPU = 0.003 seconds
*****Positive-deform 2 starts.*****
Neighbor list info ...
  update: every = 10 steps, delay = 0 steps, check = no
  max neighbors/atom: 2000, page size: 100000
  master list distance cutoff = 12
  ghost atom cutoff = 12
  binsize = 6, bins = 5 3 4
  2 neighbor lists, perpetual/occasional/extra = 2 0 0
  (1) pair reaxff, perpetual
      attributes: half, newton off, ghost
      pair build: half/bin/newtoff/ghost
      stencil: full/ghost/bin/3d
      bin: standard
  (2) fix qeq/reaxff, perpetual, copy from (1)
      attributes: half, newton off
      pair build: copy
      stencil: none
      bin: none
Setting up Verlet run ...
  Unit style    : real
  Current step  : 0
  Time step     : 0.5
Per MPI rank memory allocation (min/avg/max) = 131.4 | 132.9 | 134.2 Mbytes
   Step          Temp          PotEng         Press        f_avgp[1]        Volume    
         0   297.8353      -43087.729     -6098.0653      0              4136.956     
       100   307.64833     -43084.794     -2695.7871     -2303.6299      4139.0245    
       200   295.2405      -43104.562     -14221.207     -7847.4917      4141.0929    
       300   288.66651     -43095.091     -12623.59      -6736.3402      4143.1614    
       400   306.62488     -43096.133     -9101.2837     -10033.964      4145.2299    
       500   311.25719     -43098.248     -1444.8577     -4310.4422      4147.2984    
       600   308.34825     -43105.852     -419.83043     -5136.0701      4149.3669    
       700   308.86985     -43101.516     -3945.0205     -4457.8256      4151.4353    
       800   311.21271     -43141.191     -6101.4224     -5146.3171      4153.5038    
       900   296.97978     -43140.937     -7672.2272     -4881.2125      4155.5723    
      1000   310.94882     -43159.786     -12359.747     -1789.1818      4157.6408    
      1100   287.47426     -43146.056     -2630.6677     -4718.0234      4159.7092    
      1200   284.48037     -43142.71      -15850.966     -1888.5971      4161.7777    
      1300   313.40112     -43153.802      1158.9783      62.168944      4163.8462    
      1400   275.585       -43150.458     -7509.2541      889.62644      4165.9147    
      1500   300.74637     -43154.377     -5889.9904     -4939.7116      4167.9832    
      1600   300.99379     -43159.243     -4673.0287     -4506.6841      4170.0516    
      1700   274.47159     -43154.056     -4471.0542     -7533.2767      4172.1201    
      1800   297.22114     -43186.02      -7029.563      -10782.329      4174.1886    
      1900   275.51992     -43156.806     -12614.58      -5281.9764      4176.2571    
      2000   299.24584     -43172.275     -646.34303     -6269.0472      4178.3256    
Loop time of 103.35 on 16 procs for 2000 steps with 371 atoms

Performance: 0.836 ns/day, 28.708 hours/ns, 19.352 timesteps/s, 7.180 katom-step/s
98.8% CPU use with 8 MPI tasks x 2 OpenMP threads

MPI task timing breakdown:
Section |  min time  |  avg time  |  max time  |%varavg| %total
---------------------------------------------------------------
Pair    | 76.001     | 77.483     | 79.082     |  12.9 | 74.97
Bond    | 0.00067952 | 0.00082093 | 0.00098957 |   0.0 |  0.00
Neigh   | 5.2716     | 5.3918     | 5.5305     |   3.6 |  5.22
Comm    | 7.1516     | 8.6992     | 10.108     |  37.8 |  8.42
Output  | 0.0058476  | 0.014149   | 0.024494   |   5.3 |  0.01
Modify  | 11.216     | 11.359     | 11.525     |   3.1 | 10.99
Other   |            | 0.4023     |            |       |  0.39

Nlocal:         46.375 ave          52 max          41 min
Histogram: 1 1 1 0 0 3 0 0 1 1
Nghost:        3323.12 ave        3383 max        3262 min
Histogram: 2 2 0 0 0 0 0 0 2 2
Neighs:        28719.6 ave       32212 max       25357 min
Histogram: 1 1 1 0 0 3 0 0 1 1

Total # of neighbors = 229757
Ave neighs/atom = 619.29111
Ave special neighs/atom = 0
Neighbor list builds = 200
Dangerous builds not checked
  using 2 OpenMP thread(s) per MPI task
Reading restart file ...
  restart file = 2 Aug 2023, LAMMPS = 2 Aug 2023
  restoring atom style full from restart
  triclinic box = (0 0 0) to (17.3186 12.8149 18.6403) with tilt (-8.851 0.4589 0.2054)
WARNING: Triclinic box skew is large. LAMMPS will run inefficiently. (src/domain.cpp:220)
  2 by 2 by 2 MPI processor grid
  pair style reaxff stores no restart info
  371 atoms
Finding 1-2 1-3 1-4 neighbors ...
  special bond factors lj:    0        0        0       
  special bond factors coul:  0        0        0       
     0 = max # of 1-2 neighbors
     0 = max # of 1-3 neighbors
     0 = max # of 1-4 neighbors
     1 = max # of special neighbors
  special bonds CPU = 0.002 seconds
  read_restart CPU = 0.007 seconds
*****Negative-deform 3 starts.*****
Neighbor list info ...
  update: every = 10 steps, delay = 0 steps, check = no
  max neighbors/atom: 2000, page size: 100000
  master list distance cutoff = 12
  ghost atom cutoff = 12
  binsize = 6, bins = 5 3 4
  2 neighbor lists, perpetual/occasional/extra = 2 0 0
  (1) pair reaxff, perpetual
      attributes: half, newton off, ghost
      pair build: half/bin/newtoff/ghost
      stencil: full/ghost/bin/3d
      bin: standard
  (2) fix qeq/reaxff, perpetual, copy from (1)
      attributes: half, newton off
      pair build: copy
      stencil: none
      bin: none
Setting up Verlet run ...
  Unit style    : real
  Current step  : 0
  Time step     : 0.5
Per MPI rank memory allocation (min/avg/max) = 131.3 | 132.9 | 134.2 Mbytes
   Step          Temp          PotEng         Press        f_avgp[1]        Volume    
         0   297.8353      -43087.729     -6098.0653      0              4136.956     
       100   307.64833     -43084.794     -2698.4842     -2303.7953      4134.8875    
       200   303.09185     -43122.585      235.48249      884.73082      4132.819     
       300   296.22981     -43112.566     -9234.553      -7319.5216      4130.7506    
       400   297.98326     -43087.937     -6221.8765     -9054.2147      4128.6821    
       500   290.22412     -43112.579     -9028.1541     -8760.4697      4126.6136    
       600   307.83222     -43126.615     -10919.458     -9842.0272      4124.5451    
       700   289.14879     -43104.135     -7201.2368     -4922.5371      4122.4766    
       800   295.35861     -43103.467      6347.1848     -7412.6837      4120.4082    
       900   282.48154     -43095.203     -13417.945     -6890.9685      4118.3397    
      1000   300.83101     -43120.841      1020.5513     -3599.9185      4116.2712    
      1100   288.31584     -43134.393      439.15539     -9361.4748      4114.2027    
      1200   305.91574     -43126.932     -7886.4028     -8571.8855      4112.1343    
      1300   305.48585     -43110.635     -3688.4852     -5564.1162      4110.0658    
      1400   300.35496     -43129.144     -13418.431     -5859.7277      4107.9973    
      1500   317.1788      -43125.498      7008.8163     -3231.9749      4105.9288    
      1600   314.38799     -43137.493     -724.48425     -7323.567       4103.8603    
      1700   306.38133     -43139.783     -3122.118      -4727.54        4101.7919    
      1800   318.9935      -43165.54       5686.1868     -3205.4207      4099.7234    
      1900   325.50098     -43140.892      3768.0456     -6201.4514      4097.6549    
      2000   290.32014     -43133.247     -9731.8945     -2265.6822      4095.5864    
Loop time of 104.797 on 16 procs for 2000 steps with 371 atoms

Performance: 0.824 ns/day, 29.110 hours/ns, 19.085 timesteps/s, 7.080 katom-step/s
98.8% CPU use with 8 MPI tasks x 2 OpenMP threads

MPI task timing breakdown:
Section |  min time  |  avg time  |  max time  |%varavg| %total
---------------------------------------------------------------
Pair    | 76.72      | 78.567     | 80.52      |  12.3 | 74.97
Bond    | 0.00069763 | 0.00081983 | 0.0010073  |   0.0 |  0.00
Neigh   | 5.4177     | 5.5362     | 5.7266     |   4.4 |  5.28
Comm    | 6.9558     | 8.8825     | 10.742     |  36.5 |  8.48
Output  | 0.0058314  | 0.012439   | 0.016124   |   3.5 |  0.01
Modify  | 11.17      | 11.377     | 11.543     |   4.1 | 10.86
Other   |            | 0.4209     |            |       |  0.40

Nlocal:         46.375 ave          55 max          41 min
Histogram: 2 1 2 0 0 0 1 1 0 1
Nghost:        3428.12 ave        3487 max        3376 min
Histogram: 1 2 1 0 0 0 1 1 1 1
Neighs:        29283.1 ave       34444 max       25938 min
Histogram: 2 2 0 1 0 0 1 0 1 1

Total # of neighbors = 234265
Ave neighs/atom = 631.44205
Ave special neighs/atom = 0
Neighbor list builds = 200
Dangerous builds not checked
  using 2 OpenMP thread(s) per MPI task
Reading restart file ...
  restart file = 2 Aug 2023, LAMMPS = 2 Aug 2023
  restoring atom style full from restart
  triclinic box = (0 0 0) to (17.3186 12.8149 18.6403) with tilt (-8.851 0.4589 0.2054)
WARNING: Triclinic box skew is large. LAMMPS will run inefficiently. (src/domain.cpp:220)
  2 by 2 by 2 MPI processor grid
  pair style reaxff stores no restart info
  371 atoms
Finding 1-2 1-3 1-4 neighbors ...
  special bond factors lj:    0        0        0       
  special bond factors coul:  0        0        0       
     0 = max # of 1-2 neighbors
     0 = max # of 1-3 neighbors
     0 = max # of 1-4 neighbors
     1 = max # of special neighbors
  special bonds CPU = 0.000 seconds
  read_restart CPU = 0.004 seconds
*****Positive-deform 3 starts.*****
Neighbor list info ...
  update: every = 10 steps, delay = 0 steps, check = no
  max neighbors/atom: 2000, page size: 100000
  master list distance cutoff = 12
  ghost atom cutoff = 12
  binsize = 6, bins = 5 3 4
  2 neighbor lists, perpetual/occasional/extra = 2 0 0
  (1) pair reaxff, perpetual
      attributes: half, newton off, ghost
      pair build: half/bin/newtoff/ghost
      stencil: full/ghost/bin/3d
      bin: standard
  (2) fix qeq/reaxff, perpetual, copy from (1)
      attributes: half, newton off
      pair build: copy
      stencil: none
      bin: none
Setting up Verlet run ...
  Unit style    : real
  Current step  : 0
  Time step     : 0.5
Per MPI rank memory allocation (min/avg/max) = 131.3 | 132.9 | 134.2 Mbytes
   Step          Temp          PotEng         Press        f_avgp[1]        Volume    
         0   297.8353      -43087.729     -6098.0653      0              4136.956     
       100   307.64833     -43084.794     -2695.7871     -2303.6299      4139.0245    
       200   302.33783     -43128.252     -1514.5124      41.319583      4141.0929    
       300   312.43235     -43107.028     -12681.453     -8686.7562      4143.1614    
       400   290.10621     -43084.67      -2653.5241     -6785.8192      4145.2299    
       500   297.22852     -43114.213     -942.72733     -6787.6055      4147.2984    
       600   296.03946     -43096.747     -18144.266     -8726.8478      4149.3669    
       700   311.38238     -43120.952     -15385.102     -8949.2395      4151.4353    
       800   310.16389     -43102.502     -1493.5007     -3671.3314      4153.5038    
       900   310.72567     -43123.353     -6551.8775     -6283.1098      4155.5723    
      1000   310.59897     -43110.479     -12194.538     -4315.1733      4157.6408    
      1100   298.66357     -43131.227     -10331.777     -7741.5163      4159.7092    
      1200   329.48696     -43120.804     -8190.4786     -9395.4045      4161.7777    
      1300   311.00279     -43121.741     -1903.5796     -3223.2063      4163.8462    
      1400   298.43101     -43121.926     -9715.3244     -10440.717      4165.9147    
      1500   281.18626     -43134.601      3487.2518     -10285.472      4167.9832    
      1600   300.66478     -43118.946     -25566.024     -9642.4084      4170.0516    
      1700   307.31737     -43126.246     -4089.9205     -4031.2279      4172.1201    
      1800   312.86327     -43139.546     -4709.0225     -5424.9503      4174.1886    
      1900   301.38346     -43145.501     -18052.217     -5169.7567      4176.2571    
      2000   322.55777     -43151.811     -9645.7769     -5748.3248      4178.3256    
Loop time of 103.651 on 16 procs for 2000 steps with 371 atoms

Performance: 0.834 ns/day, 28.792 hours/ns, 19.296 timesteps/s, 7.159 katom-step/s
98.9% CPU use with 8 MPI tasks x 2 OpenMP threads

MPI task timing breakdown:
Section |  min time  |  avg time  |  max time  |%varavg| %total
---------------------------------------------------------------
Pair    | 76.354     | 77.528     | 78.918     |   9.5 | 74.80
Bond    | 0.00071513 | 0.00080116 | 0.00098136 |   0.0 |  0.00
Neigh   | 5.3518     | 5.5064     | 5.6405     |   3.6 |  5.31
Comm    | 7.447      | 8.8973     | 10.089     |  28.4 |  8.58
Output  | 0.0068219  | 0.010332   | 0.013169   |   2.2 |  0.01
Modify  | 11.174     | 11.307     | 11.53      |   3.1 | 10.91
Other   |            | 0.4007     |            |       |  0.39

Nlocal:         46.375 ave          53 max          39 min
Histogram: 1 0 2 1 0 0 0 3 0 1
Nghost:           3348 ave        3393 max        3300 min
Histogram: 1 3 0 0 0 0 0 0 2 2
Neighs:        28696.6 ave       32623 max       24117 min
Histogram: 1 0 1 2 0 0 0 1 2 1

Total # of neighbors = 229573
Ave neighs/atom = 618.79515
Ave special neighs/atom = 0
Neighbor list builds = 200
Dangerous builds not checked
  using 2 OpenMP thread(s) per MPI task
Reading restart file ...
  restart file = 2 Aug 2023, LAMMPS = 2 Aug 2023
  restoring atom style full from restart
  triclinic box = (0 0 0) to (17.3186 12.8149 18.6403) with tilt (-8.851 0.4589 0.2054)
WARNING: Triclinic box skew is large. LAMMPS will run inefficiently. (src/domain.cpp:220)
  2 by 2 by 2 MPI processor grid
  pair style reaxff stores no restart info
  371 atoms
Finding 1-2 1-3 1-4 neighbors ...
  special bond factors lj:    0        0        0       
  special bond factors coul:  0        0        0       
     0 = max # of 1-2 neighbors
     0 = max # of 1-3 neighbors
     0 = max # of 1-4 neighbors
     1 = max # of special neighbors
  special bonds CPU = 0.000 seconds
  read_restart CPU = 0.004 seconds
*****Negative-deform 4 starts.*****
Neighbor list info ...
  update: every = 10 steps, delay = 0 steps, check = no
  max neighbors/atom: 2000, page size: 100000
  master list distance cutoff = 12
  ghost atom cutoff = 12
  binsize = 6, bins = 5 3 4
  2 neighbor lists, perpetual/occasional/extra = 2 0 0
  (1) pair reaxff, perpetual
      attributes: half, newton off, ghost
      pair build: half/bin/newtoff/ghost
      stencil: full/ghost/bin/3d
      bin: standard
  (2) fix qeq/reaxff, perpetual, copy from (1)
      attributes: half, newton off
      pair build: copy
      stencil: none
      bin: none
Setting up Verlet run ...
  Unit style    : real
  Current step  : 0
  Time step     : 0.5
Per MPI rank memory allocation (min/avg/max) = 131.4 | 132.9 | 134.2 Mbytes
   Step          Temp          PotEng         Press        f_avgp[1]        Volume    
         0   297.8353      -43087.729     -6098.0653      0              4136.956     
       100   307.64833     -43084.794     -2697.135      -2303.7126      4136.956     
       200   300.22008     -43106.28      -9313.4111     -7264.9564      4136.956     
       300   296.75513     -43102.327      2483.8093     -5196.3623      4136.956     
       400   296.0346      -43123.716     -15844.395     -5840.6673      4136.956     
       500   280.52325     -43101.832     -5081.0981     -5130.4781      4136.956     
       600   295.92536     -43113.732     -4823.1044     -225.67253      4136.956     
       700   292.44964     -43129.757      3476.449      -3145.5502      4136.956     
       800   316.30146     -43138.497      6561.8018     -1097.3086      4136.956     
       900   294.74038     -43126.438     -3203.6279     -6688.9307      4136.956     
      1000   298.41978     -43096.618     -1165.0594     -3091.7515      4136.956     
      1100   322.93855     -43112.722      3399.1634     -3097.497       4136.956     
      1200   301.1147      -43100.979     -9209.7091     -1135.8262      4136.956     
      1300   302.98468     -43129.186     -15455.192     -7126.8394      4136.956     
      1400   297.21288     -43121.962     -3124.6651     -2708.5809      4136.956     
      1500   286.49563     -43123.921      3304.8087      731.86066      4136.956     
      1600   299.52855     -43112.614     -2023.4544     -3350.0576      4136.956     
      1700   336.02907     -43124.864     -3348.1801     -3117.0238      4136.956     
      1800   308.02282     -43095.536     -19597.571     -5640.3298      4136.956     
      1900   325.36216     -43120.786     -10159.248     -4606.8683      4136.956     
      2000   295.88934     -43093.463      2140.5492     -2290.5983      4136.956     
Loop time of 104.151 on 16 procs for 2000 steps with 371 atoms

Performance: 0.830 ns/day, 28.931 hours/ns, 19.203 timesteps/s, 7.124 katom-step/s
98.8% CPU use with 8 MPI tasks x 2 OpenMP threads

MPI task timing breakdown:
Section |  min time  |  avg time  |  max time  |%varavg| %total
---------------------------------------------------------------
Pair    | 76.479     | 78.293     | 80.123     |  13.3 | 75.17
Bond    | 0.00069406 | 0.00079989 | 0.00096101 |   0.0 |  0.00
Neigh   | 5.2188     | 5.4027     | 5.5439     |   4.9 |  5.19
Comm    | 6.9584     | 8.7523     | 10.622     |  39.3 |  8.40
Output  | 0.0053394  | 0.0095167  | 0.013742   |   3.0 |  0.01
Modify  | 11.133     | 11.301     | 11.505     |   4.0 | 10.85
Other   |            | 0.3913     |            |       |  0.38

Nlocal:         46.375 ave          51 max          40 min
Histogram: 1 1 0 0 2 0 0 1 0 3
Nghost:        3343.88 ave        3411 max        3275 min
Histogram: 2 0 2 0 0 0 0 2 0 2
Neighs:        29017.4 ave       31975 max       25005 min
Histogram: 1 1 0 0 2 0 0 1 1 2

Total # of neighbors = 232139
Ave neighs/atom = 625.71159
Ave special neighs/atom = 0
Neighbor list builds = 200
Dangerous builds not checked
  using 2 OpenMP thread(s) per MPI task
Reading restart file ...
  restart file = 2 Aug 2023, LAMMPS = 2 Aug 2023
  restoring atom style full from restart
  triclinic box = (0 0 0) to (17.3186 12.8149 18.6403) with tilt (-8.851 0.4589 0.2054)
WARNING: Triclinic box skew is large. LAMMPS will run inefficiently. (src/domain.cpp:220)
  2 by 2 by 2 MPI processor grid
  pair style reaxff stores no restart info
  371 atoms
Finding 1-2 1-3 1-4 neighbors ...
  special bond factors lj:    0        0        0       
  special bond factors coul:  0        0        0       
     0 = max # of 1-2 neighbors
     0 = max # of 1-3 neighbors
     0 = max # of 1-4 neighbors
     1 = max # of special neighbors
  special bonds CPU = 0.000 seconds
  read_restart CPU = 0.003 seconds
*****Positive-deform 4 starts.*****
Neighbor list info ...
  update: every = 10 steps, delay = 0 steps, check = no
  max neighbors/atom: 2000, page size: 100000
  master list distance cutoff = 12
  ghost atom cutoff = 12
  binsize = 6, bins = 5 3 4
  2 neighbor lists, perpetual/occasional/extra = 2 0 0
  (1) pair reaxff, perpetual
      attributes: half, newton off, ghost
      pair build: half/bin/newtoff/ghost
      stencil: full/ghost/bin/3d
      bin: standard
  (2) fix qeq/reaxff, perpetual, copy from (1)
      attributes: half, newton off
      pair build: copy
      stencil: none
      bin: none
Setting up Verlet run ...
  Unit style    : real
  Current step  : 0
  Time step     : 0.5
Per MPI rank memory allocation (min/avg/max) = 131.4 | 132.9 | 134.2 Mbytes
   Step          Temp          PotEng         Press        f_avgp[1]        Volume    
         0   297.8353      -43087.729     -6098.0653      0              4136.956     
       100   307.64833     -43084.794     -2697.135      -2303.7126      4136.956     
       200   300.46985     -43106.386     -8777.7241     -7345.39        4136.956     
       300   306.80834     -43104.845      4810.7719     -5206.1711      4136.956     
       400   307.06377     -43141.647      3586.7143     -3776.0497      4136.956     
       500   282.88063     -43104.445     -1639.5251     -7546.7101      4136.956     
       600   304.89278     -43112.608     -5542.7659     -3992.7008      4136.956     
       700   308.08772     -43109.674      2547.779      -3877.0709      4136.956     
       800   319.17891     -43108.358     -9897.9011     -1891.3602      4136.956     
       900   323.24792     -43122.834     -2202.3968     -2374.3707      4136.956     
      1000   300.39463     -43113.809      2658.5627      3028.9934      4136.956     
      1100   297.80555     -43129.073     -18777.938     -1634.635       4136.956     
      1200   298.80447     -43134.334     -13085.218     -3658.3337      4136.956     
      1300   310.70306     -43133.072     -2812.1134     -5779.0883      4136.956     
      1400   307.33858     -43129.665     -2908.7176     -1026.5018      4136.956     
      1500   317.44776     -43147.063     -7756.3648     -5739.9862      4136.956     
      1600   300.44522     -43127.421     -4228.2953     -4563.0339      4136.956     
      1700   320.64554     -43144.208     -18137.729     -4674.5293      4136.956     
      1800   307.85769     -43152.292      7746.5888     -7273.0317      4136.956     
      1900   303.12641     -43137.413     -13901.229     -5825.683       4136.956     
      2000   316.56847     -43148.42      -2368.8417     -4753.9245      4136.956     
Loop time of 103.595 on 16 procs for 2000 steps with 371 atoms

Performance: 0.834 ns/day, 28.776 hours/ns, 19.306 timesteps/s, 7.163 katom-step/s
99.0% CPU use with 8 MPI tasks x 2 OpenMP threads

MPI task timing breakdown:
Section |  min time  |  avg time  |  max time  |%varavg| %total
---------------------------------------------------------------
Pair    | 75.444     | 78.173     | 80.757     |  16.6 | 75.46
Bond    | 0.00069472 | 0.00079184 | 0.00091798 |   0.0 |  0.00
Neigh   | 5.2637     | 5.44       | 5.6481     |   5.8 |  5.25
Comm    | 5.7288     | 8.3072     | 11.074     |  51.0 |  8.02
Output  | 0.006135   | 0.012864   | 0.019999   |   4.3 |  0.01
Modify  | 11.056     | 11.346     | 11.551     |   4.8 | 10.95
Other   |            | 0.3155     |            |       |  0.30

Nlocal:         46.375 ave          50 max          41 min
Histogram: 1 0 0 1 2 0 1 0 1 2
Nghost:        3352.38 ave        3408 max        3288 min
Histogram: 1 1 1 1 0 0 0 1 1 2
Neighs:        28995.6 ave       31305 max       25753 min
Histogram: 1 0 0 1 2 0 1 0 1 2

Total # of neighbors = 231965
Ave neighs/atom = 625.24259
Ave special neighs/atom = 0
Neighbor list builds = 200
Dangerous builds not checked
  using 2 OpenMP thread(s) per MPI task
Reading restart file ...
  restart file = 2 Aug 2023, LAMMPS = 2 Aug 2023
  restoring atom style full from restart
  triclinic box = (0 0 0) to (17.3186 12.8149 18.6403) with tilt (-8.851 0.4589 0.2054)
WARNING: Triclinic box skew is large. LAMMPS will run inefficiently. (src/domain.cpp:220)
  2 by 2 by 2 MPI processor grid
  pair style reaxff stores no restart info
  371 atoms
Finding 1-2 1-3 1-4 neighbors ...
  special bond factors lj:    0        0        0       
  special bond factors coul:  0        0        0       
     0 = max # of 1-2 neighbors
     0 = max # of 1-3 neighbors
     0 = max # of 1-4 neighbors
     1 = max # of special neighbors
  special bonds CPU = 0.000 seconds
  read_restart CPU = 0.004 seconds
*****Negative-deform 5 starts.*****
Neighbor list info ...
  update: every = 10 steps, delay = 0 steps, check = no
  max neighbors/atom: 2000, page size: 100000
  master list distance cutoff = 12
  ghost atom cutoff = 12
  binsize = 6, bins = 5 3 4
  2 neighbor lists, perpetual/occasional/extra = 2 0 0
  (1) pair reaxff, perpetual
      attributes: half, newton off, ghost
      pair build: half/bin/newtoff/ghost
      stencil: full/ghost/bin/3d
      bin: standard
  (2) fix qeq/reaxff, perpetual, copy from (1)
      attributes: half, newton off
      pair build: copy
      stencil: none
      bin: none
Setting up Verlet run ...
  Unit style    : real
  Current step  : 0
  Time step     : 0.5
Per MPI rank memory allocation (min/avg/max) = 131.4 | 132.9 | 134.2 Mbytes
   Step          Temp          PotEng         Press        f_avgp[1]        Volume    
         0   297.8353      -43087.729     -6098.0653      0              4136.956     
       100   307.64833     -43084.794     -2697.135      -2303.7126      4136.956     
       200   300.78951     -43106.243     -8687.8042     -7250.979       4136.956     
       300   304.36542     -43102.283      4593.449      -5272.2923      4136.956     
       400   315.9305      -43136.493      4892.5371     -3131.7487      4136.956     
       500   296.1495      -43119.925     -5536.8685     -3443.1394      4136.956     
       600   262.05432     -43122.483     -6232.4955     -6562.1549      4136.956     
       700   292.92299     -43092.265     -2330.0964     -3518.3979      4136.956     
       800   294.49426     -43103.197     -5784.6047     -7674.5997      4136.956     
       900   298.65482     -43116.579     -8469.998      -5451.9308      4136.956     
      1000   306.4263      -43087.642     -12022.825     -1884.2351      4136.956     
      1100   313.68278     -43133.076     -1508.7293     -4574.4706      4136.956     
      1200   320.5839      -43140.332      2204.5889     -433.64435      4136.956     
      1300   308.36444     -43141.941      170.26019     -1071.8761      4136.956     
      1400   299.04678     -43144.62       10888.516     -4717.4984      4136.956     
      1500   294.53201     -43142.933      1636.4333     -1805.7227      4136.956     
      1600   290.06796     -43140.229     -5013.8012     -535.82062      4136.956     
      1700   277.27555     -43091.504     -2089.0879     -2177.1005      4136.956     
      1800   306.14371     -43131.963     -4545.7791     -1252.0367      4136.956     
      1900   311.94756     -43118.478      159.89944      3000.0397      4136.956     
      2000   309.88955     -43123.53      -1902.139       2281.4933      4136.956     
Loop time of 103.827 on 16 procs for 2000 steps with 371 atoms

Performance: 0.832 ns/day, 28.841 hours/ns, 19.263 timesteps/s, 7.146 katom-step/s
98.9% CPU use with 8 MPI tasks x 2 OpenMP threads

MPI task timing breakdown:
Section |  min time  |  avg time  |  max time  |%varavg| %total
---------------------------------------------------------------
Pair    | 76.558     | 78.382     | 80.573     |  13.1 | 75.49
Bond    | 0.00073476 | 0.00081345 | 0.00095326 |   0.0 |  0.00
Neigh   | 5.2456     | 5.3831     | 5.544      |   4.5 |  5.18
Comm    | 6.227      | 8.4274     | 10.268     |  40.2 |  8.12
Output  | 0.0080395  | 0.022462   | 0.028694   |   5.6 |  0.02
Modify  | 11.042     | 11.283     | 11.469     |   4.3 | 10.87
Other   |            | 0.3286     |            |       |  0.32

Nlocal:         46.375 ave          54 max          39 min
Histogram: 1 0 1 0 2 2 0 1 0 1
Nghost:        3352.12 ave        3432 max        3283 min
Histogram: 1 1 1 1 0 1 0 1 1 1
Neighs:        28998.4 ave       33492 max       24333 min
Histogram: 1 0 1 0 1 3 0 1 0 1

Total # of neighbors = 231987
Ave neighs/atom = 625.30189
Ave special neighs/atom = 0
Neighbor list builds = 200
Dangerous builds not checked
  using 2 OpenMP thread(s) per MPI task
Reading restart file ...
  restart file = 2 Aug 2023, LAMMPS = 2 Aug 2023
  restoring atom style full from restart
  triclinic box = (0 0 0) to (17.3186 12.8149 18.6403) with tilt (-8.851 0.4589 0.2054)
WARNING: Triclinic box skew is large. LAMMPS will run inefficiently. (src/domain.cpp:220)
  2 by 2 by 2 MPI processor grid
  pair style reaxff stores no restart info
  371 atoms
Finding 1-2 1-3 1-4 neighbors ...
  special bond factors lj:    0        0        0       
  special bond factors coul:  0        0        0       
     0 = max # of 1-2 neighbors
     0 = max # of 1-3 neighbors
     0 = max # of 1-4 neighbors
     1 = max # of special neighbors
  special bonds CPU = 0.000 seconds
  read_restart CPU = 0.004 seconds
*****Positive-deform 5 starts.*****
Neighbor list info ...
  update: every = 10 steps, delay = 0 steps, check = no
  max neighbors/atom: 2000, page size: 100000
  master list distance cutoff = 12
  ghost atom cutoff = 12
  binsize = 6, bins = 5 3 4
  2 neighbor lists, perpetual/occasional/extra = 2 0 0
  (1) pair reaxff, perpetual
      attributes: half, newton off, ghost
      pair build: half/bin/newtoff/ghost
      stencil: full/ghost/bin/3d
      bin: standard
  (2) fix qeq/reaxff, perpetual, copy from (1)
      attributes: half, newton off
      pair build: copy
      stencil: none
      bin: none
Setting up Verlet run ...
  Unit style    : real
  Current step  : 0
  Time step     : 0.5
Per MPI rank memory allocation (min/avg/max) = 131.4 | 132.9 | 134.2 Mbytes
   Step          Temp          PotEng         Press        f_avgp[1]        Volume    
         0   297.8353      -43087.729     -6098.0653      0              4136.956     
       100   307.64833     -43084.794     -2697.135      -2303.7126      4136.956     
       200   299.98194     -43106.019     -8953.9781     -7348.9661      4136.956     
       300   301.02748     -43098.748      4312.571      -5194.6251      4136.956     
       400   329.28217     -43121.098     -1999.2231     -5189.5107      4136.956     
       500   310.35357     -43101.751     -393.48733     -3422.5967      4136.956     
       600   313.27751     -43064.632      1344.7787     -7072.9327      4136.956     
       700   303.67206     -43101.943      1301.03       -2789.4484      4136.956     
       800   330.59058     -43112.443     -2775.8597     -490.37568      4136.956     
       900   304.01192     -43113.538     -1053.6362     -8974.0979      4136.956     
      1000   298.82462     -43118.693     -7039.1346     -6404.724       4136.956     
      1100   280.11428     -43104.901     -11218.554     -3386.0182      4136.956     
      1200   316.56507     -43126.688      2905.7472     -6599.1118      4136.956     
      1300   322.87227     -43115.984     -2408.9539     -2246.2893      4136.956     
      1400   303.61365     -43122.655     -992.96871     -11744.659      4136.956     
      1500   302.96804     -43119.907     -979.94949     -2689.942       4136.956     
      1600   304.14038     -43113.807     -2708.9453     -3989.493       4136.956     
      1700   295.8996      -43139.696      2020.8119     -6061.1185      4136.956     
      1800   317.88407     -43146.826      4591.7975     -4753.8164      4136.956     
      1900   281.7171      -43146.359     -8895.679      -7789.1065      4136.956     
      2000   275.24207     -43150.397     -4058.6441     -7568.9455      4136.956     
Loop time of 104.081 on 16 procs for 2000 steps with 371 atoms

Performance: 0.830 ns/day, 28.911 hours/ns, 19.216 timesteps/s, 7.129 katom-step/s
98.9% CPU use with 8 MPI tasks x 2 OpenMP threads

MPI task timing breakdown:
Section |  min time  |  avg time  |  max time  |%varavg| %total
---------------------------------------------------------------
Pair    | 77.862     | 78.438     | 80.608     |   9.4 | 75.36
Bond    | 0.00072938 | 0.00081564 | 0.00097626 |   0.0 |  0.00
Neigh   | 5.321      | 5.4296     | 5.5731     |   3.4 |  5.22
Comm    | 6.1403     | 8.4213     | 9.0436     |  30.3 |  8.09
Output  | 0.005935   | 0.014128   | 0.02135    |   4.8 |  0.01
Modify  | 11.228     | 11.417     | 11.567     |   3.3 | 10.97
Other   |            | 0.3596     |            |       |  0.35

Nlocal:         46.375 ave          52 max          40 min
Histogram: 2 0 0 0 1 2 0 0 1 2
Nghost:        3352.12 ave        3427 max        3285 min
Histogram: 2 0 2 0 0 0 1 1 0 2
Neighs:        28994.6 ave       32473 max       24986 min
Histogram: 1 1 0 0 2 1 0 0 1 2

Total # of neighbors = 231957
Ave neighs/atom = 625.22102
Ave special neighs/atom = 0
Neighbor list builds = 200
Dangerous builds not checked
  using 2 OpenMP thread(s) per MPI task
Reading restart file ...
  restart file = 2 Aug 2023, LAMMPS = 2 Aug 2023
  restoring atom style full from restart
  triclinic box = (0 0 0) to (17.3186 12.8149 18.6403) with tilt (-8.851 0.4589 0.2054)
WARNING: Triclinic box skew is large. LAMMPS will run inefficiently. (src/domain.cpp:220)
  2 by 2 by 2 MPI processor grid
  pair style reaxff stores no restart info
  371 atoms
Finding 1-2 1-3 1-4 neighbors ...
  special bond factors lj:    0        0        0       
  special bond factors coul:  0        0        0       
     0 = max # of 1-2 neighbors
     0 = max # of 1-3 neighbors
     0 = max # of 1-4 neighbors
     1 = max # of special neighbors
  special bonds CPU = 0.000 seconds
  read_restart CPU = 0.003 seconds
*****Negative-deform 6 starts.*****
Neighbor list info ...
  update: every = 10 steps, delay = 0 steps, check = no
  max neighbors/atom: 2000, page size: 100000
  master list distance cutoff = 12
  ghost atom cutoff = 12
  binsize = 6, bins = 5 3 4
  2 neighbor lists, perpetual/occasional/extra = 2 0 0
  (1) pair reaxff, perpetual
      attributes: half, newton off, ghost
      pair build: half/bin/newtoff/ghost
      stencil: full/ghost/bin/3d
      bin: standard
  (2) fix qeq/reaxff, perpetual, copy from (1)
      attributes: half, newton off
      pair build: copy
      stencil: none
      bin: none
Setting up Verlet run ...
  Unit style    : real
  Current step  : 0
  Time step     : 0.5
Per MPI rank memory allocation (min/avg/max) = 131.4 | 132.9 | 134.2 Mbytes
   Step          Temp          PotEng         Press        f_avgp[1]        Volume    
         0   297.8353      -43087.729     -6098.0653      0              4136.956     
       100   307.64833     -43084.794     -2697.135      -2303.7126      4136.956     
       200   300.24527     -43106.539     -8548.5375     -7233.2436      4136.956     
       300   303.13161     -43103.209      4972.106      -5612.7695      4136.956     
       400   317.40414     -43128.389     -1187.4412     -5244.4145      4136.956     
       500   277.13194     -43100.999     -3369.38       -4747.0886      4136.956     
       600   289.33456     -43106.969     -6107.6573     -7012.1838      4136.956     
       700   281.79276     -43106.856      6417.2915      272.72343      4136.956     
       800   286.33439     -43122.5       -7778.2587     -9506.594       4136.956     
       900   291.22923     -43138.013     -9677.2376     -2360.3229      4136.956     
      1000   276.17102     -43110.375     -1557.9208     -2207.555       4136.956     
      1100   294.40538     -43096.944     -1982.0199     -6499.6663      4136.956     
      1200   290.41211     -43123.964     -4581.493       787.04281      4136.956     
      1300   296.84013     -43095.082      1957.0944     -1303.5034      4136.956     
      1400   323.53058     -43112.283     -3804.0299     -8518.7515      4136.956     
      1500   307.21207     -43120.072     -8286.7319     -6652.4615      4136.956     
      1600   284.66187     -43103.84      -2109.5037     -4367.9767      4136.956     
      1700   304.18514     -43111.976      4027.9289     -2135.9949      4136.956     
      1800   315.85479     -43134.376     -11806.047     -2420.3908      4136.956     
      1900   283.63048     -43111.169      7809.672      -3660.8052      4136.956     
      2000   289.83931     -43104.561     -4272.2862     -7554.4803      4136.956     
Loop time of 100.399 on 16 procs for 2000 steps with 371 atoms

Performance: 0.861 ns/day, 27.889 hours/ns, 19.921 timesteps/s, 7.391 katom-step/s
99.0% CPU use with 8 MPI tasks x 2 OpenMP threads

MPI task timing breakdown:
Section |  min time  |  avg time  |  max time  |%varavg| %total
---------------------------------------------------------------
Pair    | 66.448     | 74.04      | 78.868     |  53.3 | 73.75
Bond    | 0.00068434 | 0.00078975 | 0.00091181 |   0.0 |  0.00
Neigh   | 4.8357     | 5.2822     | 5.6044     |  13.7 |  5.26
Comm    | 4.7901     | 9.6073     | 17.188     | 147.6 |  9.57
Output  | 0.0068158  | 0.011522   | 0.015361   |   2.9 |  0.01
Modify  | 10.932     | 11.243     | 11.71      |   9.6 | 11.20
Other   |            | 0.2139     |            |       |  0.21

Nlocal:         46.375 ave          53 max          39 min
Histogram: 1 0 0 1 0 4 1 0 0 1
Nghost:        3361.88 ave        3422 max        3297 min
Histogram: 2 0 2 0 0 0 0 2 0 2
Neighs:        29007.6 ave       33101 max       24459 min
Histogram: 1 0 0 1 0 4 1 0 0 1

Total # of neighbors = 232061
Ave neighs/atom = 625.50135
Ave special neighs/atom = 0
Neighbor list builds = 200
Dangerous builds not checked
  using 2 OpenMP thread(s) per MPI task
Reading restart file ...
  restart file = 2 Aug 2023, LAMMPS = 2 Aug 2023
  restoring atom style full from restart
  triclinic box = (0 0 0) to (17.3186 12.8149 18.6403) with tilt (-8.851 0.4589 0.2054)
WARNING: Triclinic box skew is large. LAMMPS will run inefficiently. (src/domain.cpp:220)
  2 by 2 by 2 MPI processor grid
  pair style reaxff stores no restart info
  371 atoms
Finding 1-2 1-3 1-4 neighbors ...
  special bond factors lj:    0        0        0       
  special bond factors coul:  0        0        0       
     0 = max # of 1-2 neighbors
     0 = max # of 1-3 neighbors
     0 = max # of 1-4 neighbors
     1 = max # of special neighbors
  special bonds CPU = 0.000 seconds
  read_restart CPU = 0.003 seconds
*****Positive-deform 6 starts.*****
Neighbor list info ...
  update: every = 10 steps, delay = 0 steps, check = no
  max neighbors/atom: 2000, page size: 100000
  master list distance cutoff = 12
  ghost atom cutoff = 12
  binsize = 6, bins = 5 3 4
  2 neighbor lists, perpetual/occasional/extra = 2 0 0
  (1) pair reaxff, perpetual
      attributes: half, newton off, ghost
      pair build: half/bin/newtoff/ghost
      stencil: full/ghost/bin/3d
      bin: standard
  (2) fix qeq/reaxff, perpetual, copy from (1)
      attributes: half, newton off
      pair build: copy
      stencil: none
      bin: none
Setting up Verlet run ...
  Unit style    : real
  Current step  : 0
  Time step     : 0.5
Per MPI rank memory allocation (min/avg/max) = 131.4 | 132.9 | 134.2 Mbytes
   Step          Temp          PotEng         Press        f_avgp[1]        Volume    
         0   297.8353      -43087.729     -6098.0653      0              4136.956     
       100   307.64833     -43084.794     -2697.135      -2303.7126      4136.956     
       200   300.33444     -43105.802     -8601.0624     -7209.7938      4136.956     
       300   298.15108     -43105.552      2251.7326     -5329.6744      4136.956     
       400   293.15295     -43107.963     -15361.871     -4108.0605      4136.956     
       500   276.1277      -43097.167     -4345.0272     -7016.554       4136.956     
       600   307.88593     -43108.581     -6975.4104     -3351.2615      4136.956     
       700   294.28337     -43107.785     -10235.882     -6585.5352      4136.956     
       800   293.53044     -43133.379     -1945.3338     -3826.9839      4136.956     
       900   301.06762     -43135.798      4603.8454      679.51237      4136.956     
      1000   305.78524     -43145.07       1676.1399     -354.84798      4136.956     
      1100   305.07161     -43154.598     -2646.7894     -821.88836      4136.956     
      1200   307.71181     -43132.32       4676.2573      1033.0608      4136.956     
      1300   330.70048     -43121.025     -2404.9086     -984.86905      4136.956     
      1400   310.94696     -43120.523     -7193.4592     -6086.9123      4136.956     
      1500   308.10992     -43112.956     -2122.1066     -1076.4793      4136.956     
      1600   337.31296     -43113.257     -7141.8579     -3686.4718      4136.956     
      1700   302.80698     -43089.568     -5042.1772     -2743.5242      4136.956     
      1800   308.03406     -43128.592     -14295.663     -3432.0428      4136.956     
      1900   306.17433     -43121.431     -8114.4307     -8152.2706      4136.956     
      2000   310.77696     -43108.046     -596.38257     -5370.8024      4136.956     
Loop time of 86.636 on 16 procs for 2000 steps with 371 atoms

Performance: 0.997 ns/day, 24.066 hours/ns, 23.085 timesteps/s, 8.565 katom-step/s
99.1% CPU use with 8 MPI tasks x 2 OpenMP threads

MPI task timing breakdown:
Section |  min time  |  avg time  |  max time  |%varavg| %total
---------------------------------------------------------------
Pair    | 51.739     | 65.325     | 70.326     |  74.3 | 75.40
Bond    | 0.00056567 | 0.00069649 | 0.0007801  |   0.0 |  0.00
Neigh   | 4.0235     | 4.9813     | 5.4199     |  20.1 |  5.75
Comm    | 1.305      | 6.3004     | 19.877     | 238.9 |  7.27
Output  | 0.0040021  | 0.0069085  | 0.0083244  |   2.0 |  0.01
Modify  | 9.5229     | 9.9742     | 10.946     |  14.5 | 11.51
Other   |            | 0.04731    |            |       |  0.05

Nlocal:         46.375 ave          50 max          39 min
Histogram: 1 0 0 0 0 1 2 1 1 2
Nghost:        3387.25 ave        3443 max        3330 min
Histogram: 2 2 0 0 0 0 0 0 2 2
Neighs:        28995.5 ave       31233 max       24424 min
Histogram: 1 0 0 0 0 1 2 1 1 2

Total # of neighbors = 231964
Ave neighs/atom = 625.23989
Ave special neighs/atom = 0
Neighbor list builds = 200
Dangerous builds not checked
Total wall time: 0:22:13
