LAMMPS (2 Aug 2023 - Update 2)
OMP_NUM_THREADS environment is not set. Defaulting to 1 thread. (src/comm.cpp:98)
  using 1 OpenMP thread(s) per MPI task
Reading data file ...
  triclinic box = (0 0 0) to (17.3186 12.8149 18.6403) with tilt (-8.851 0.4589 0.2054)
WARNING: Triclinic box skew is large. LAMMPS will run inefficiently. (src/domain.cpp:220)
  2 by 2 by 2 MPI processor grid
  reading atoms ...
  371 atoms
Finding 1-2 1-3 1-4 neighbors ...
  special bond factors lj:    0        0        0       
  special bond factors coul:  0        0        0       
     0 = max # of 1-2 neighbors
     0 = max # of 1-3 neighbors
     0 = max # of 1-4 neighbors
     1 = max # of special neighbors
  special bonds CPU = 0.001 seconds
  read_data CPU = 0.006 seconds
*****Minimization starts.*****
Setting up cg style minimization ...
  Unit style    : real
  Current step  : 0
WARNING: No pairwise cutoff or binsize set. Atom sorting therefore disabled. (src/atom.cpp:2366)
WARNING: Communication cutoff is 0.0. No ghost atoms will be generated. Atoms may get lost. (src/comm_brick.cpp:210)
Per MPI rank memory allocation (min/avg/max) = 6.365 | 6.365 | 6.365 Mbytes
   Step          Temp          E_pair         E_mol          TotEng         Press     
         0   0              0              0              0              0            
         1   0              0              0              0              0            
Loop time of 4.5619e-05 on 8 procs for 1 steps with 371 atoms

42.7% CPU use with 8 MPI tasks x 1 OpenMP threads

Minimization stats:
  Stopping criterion = search direction is not downhill
  Energy initial, next-to-last, final = 
                     0                  0                  0
  Force two-norm initial, final = 0 0
  Force max component initial, final = 0 0
  Final line search alpha, max atom move = 0 0
  Iterations, force evaluations = 1 0

MPI task timing breakdown:
Section |  min time  |  avg time  |  max time  |%varavg| %total
---------------------------------------------------------------
Pair    | 0          | 0          | 0          |   0.0 |  0.00
Bond    | 1.86e-07   | 2.6775e-07 | 3.15e-07   |   0.0 |  0.59
Neigh   | 0          | 0          | 0          |   0.0 |  0.00
Comm    | 1.383e-06  | 1.6101e-06 | 1.729e-06  |   0.0 |  3.53
Output  | 0          | 0          | 0          |   0.0 |  0.00
Modify  | 0          | 0          | 0          |   0.0 |  0.00
Other   |            | 4.374e-05  |            |       | 95.88

Nlocal:         46.375 ave          56 max          42 min
Histogram: 5 0 0 0 0 1 0 1 0 1
Nghost:              0 ave           0 max           0 min
Histogram: 8 0 0 0 0 0 0 0 0 0
Neighs:              0 ave           0 max           0 min
Histogram: 8 0 0 0 0 0 0 0 0 0

Total # of neighbors = 0
Ave neighs/atom = 0
Ave special neighs/atom = 0
Neighbor list builds = 0
Dangerous builds = 0
System init for write_data ...
WARNING: Communication cutoff is 0.0. No ghost atoms will be generated. Atoms may get lost. (src/comm_brick.cpp:210)
WARNING: New thermo_style command, previous thermo_modify settings will be lost (src/output.cpp:903)

CITE-CITE-CITE-CITE-CITE-CITE-CITE-CITE-CITE-CITE-CITE-CITE-CITE

Your simulation uses code contributions which should be cited:
- pair reaxff command: doi:10.1016/j.parco.2011.08.005
- fix qeq/reaxff command: doi:10.1016/j.parco.2011.08.005
The log file lists these citations in BibTeX format.

CITE-CITE-CITE-CITE-CITE-CITE-CITE-CITE-CITE-CITE-CITE-CITE-CITE

WARNING: Fix qeq/reaxff group is not charge neutral, net charge = -4.92 (src/REAXFF/fix_qeq_reaxff.cpp:392)
Neighbor list info ...
  update: every = 10 steps, delay = 0 steps, check = no
  max neighbors/atom: 2000, page size: 100000
  master list distance cutoff = 12
  ghost atom cutoff = 12
  binsize = 6, bins = 5 3 4
  2 neighbor lists, perpetual/occasional/extra = 2 0 0
  (1) pair reaxff, perpetual
      attributes: half, newton off, ghost
      pair build: half/bin/newtoff/ghost
      stencil: full/ghost/bin/3d
      bin: standard
  (2) fix qeq/reaxff, perpetual, copy from (1)
      attributes: half, newton off
      pair build: copy
      stencil: none
      bin: none
Setting up Verlet run ...
  Unit style    : real
  Current step  : 0
  Time step     : 0.5
Per MPI rank memory allocation (min/avg/max) = 131.1 | 132.2 | 133.7 Mbytes
   Step          Temp          PotEng         Press         Density         Volume    
         0   300           -41361.517      76779.476      1.6093426      4136.956     
       100   757.58458     -42308.039      1090.5185      1.6093426      4136.956     
       200   553.99127     -42549.841     -17805.853      1.6093426      4136.956     
       300   453.74933     -42772.294      5503.4373      1.6093426      4136.956     
       400   354.65638     -42885.872      12105.459      1.6093426      4136.956     
       500   316.46261     -42992.252      6164.0458      1.6093426      4136.956     
       600   257.76594     -43014.883     -1468.1227      1.6093426      4136.956     
       700   285.78993     -43075.406      12540.187      1.6093426      4136.956     
       800   293.06882     -43069.928      43.500479      1.6093426      4136.956     
       900   314.35526     -43073.243     -8966.0254      1.6093426      4136.956     
      1000   302.72766     -43060.917     -10009.714      1.6093426      4136.956     
      1100   291.03397     -43057.309     -8107.8021      1.6093426      4136.956     
      1200   308.98482     -43094.602     -11190.291      1.6093426      4136.956     
      1300   274.45652     -43076.207     -11703.112      1.6093426      4136.956     
      1400   290.57795     -43106.025     -8194.2558      1.6093426      4136.956     
      1500   286.27269     -43095.346     -4892.0128      1.6093426      4136.956     
      1600   319.66233     -43115.195     -14919.606      1.6093426      4136.956     
      1700   310.57321     -43106.988     -17243.468      1.6093426      4136.956     
      1800   295.32746     -43111.903     -2235.1341      1.6093426      4136.956     
      1900   294.9444      -43128.626     -9221.1634      1.6093426      4136.956     
      2000   294.96546     -43127.365     -8171.9537      1.6093426      4136.956     
      2100   310.67165     -43136.043     -4130.0998      1.6093426      4136.956     
      2200   307.30265     -43118.324     -5185.4856      1.6093426      4136.956     
      2300   304.41343     -43112.016      4255.1155      1.6093426      4136.956     
      2400   314.71786     -43138.327     -2209.6679      1.6093426      4136.956     
      2500   296.63935     -43138.771     -3433.9164      1.6093426      4136.956     
      2600   310.66499     -43161.713     -4319.6476      1.6093426      4136.956     
      2700   288.84079     -43130.437      10026.637      1.6093426      4136.956     
      2800   299.2351      -43120.713      3977.0801      1.6093426      4136.956     
      2900   320.98579     -43130.754     -12095.562      1.6093426      4136.956     
      3000   295.85779     -43115.536     -8132.5767      1.6093426      4136.956     
      3100   273.81969     -43106.059     -5339.4429      1.6093426      4136.956     
      3200   291.99847     -43138.227     -4367.6153      1.6093426      4136.956     
      3300   296.37879     -43141.449      807.04831      1.6093426      4136.956     
      3400   304.8074      -43137.753      7938.7127      1.6093426      4136.956     
      3500   307.14604     -43127.258      435.38717      1.6093426      4136.956     
      3600   320.67528     -43148.807      1822.1332      1.6093426      4136.956     
      3700   305.62456     -43154.258     -484.24102      1.6093426      4136.956     
      3800   293.52867     -43157.93      -4574.7323      1.6093426      4136.956     
      3900   297.58614     -43159.376     -13588.118      1.6093426      4136.956     
      4000   293.5382      -43136.498     -6051.4871      1.6093426      4136.956     
      4100   330.15365     -43156.172     -1154.6334      1.6093426      4136.956     
      4200   291.18638     -43109.914     -25130.933      1.6093426      4136.956     
      4300   312.95833     -43137.256     -2857.8532      1.6093426      4136.956     
      4400   294.76091     -43136.956     -5278.8729      1.6093426      4136.956     
      4500   304.70521     -43164.682     -3314.1565      1.6093426      4136.956     
      4600   260.85849     -43127.075     -7974.6985      1.6093426      4136.956     
      4700   296.67484     -43148.808      4488.5061      1.6093426      4136.956     
      4800   310.56395     -43141.974     -8961.7856      1.6093426      4136.956     
      4900   294.12158     -43115.022     -9497.6413      1.6093426      4136.956     
      5000   311.88616     -43142.337     -4699.3968      1.6093426      4136.956     
Loop time of 252.368 on 8 procs for 5000 steps with 371 atoms

Performance: 0.856 ns/day, 28.041 hours/ns, 19.812 timesteps/s, 7.350 katom-step/s
98.9% CPU use with 8 MPI tasks x 1 OpenMP threads

MPI task timing breakdown:
Section |  min time  |  avg time  |  max time  |%varavg| %total
---------------------------------------------------------------
Pair    | 153.73     | 202.43     | 213.81     | 131.2 | 80.21
Bond    | 0.0016081  | 0.0020355  | 0.0025224  |   0.8 |  0.00
Neigh   | 10.804     | 13.92      | 14.771     |  32.0 |  5.52
Comm    | 3.3793     | 14.779     | 63.509     | 485.9 |  5.86
Output  | 0.002984   | 0.0033176  | 0.0050042  |   1.1 |  0.00
Modify  | 20.292     | 21.133     | 24.236     |  25.8 |  8.37
Other   |            | 0.1023     |            |       |  0.04

Nlocal:         46.375 ave          52 max          41 min
Histogram: 2 1 1 0 0 0 1 0 1 2
Nghost:        3398.12 ave        3428 max        3370 min
Histogram: 1 0 1 1 1 2 0 1 0 1
Neighs:        29009.1 ave       32458 max       25860 min
Histogram: 2 1 1 0 0 0 1 1 0 2

Total # of neighbors = 232073
Ave neighs/atom = 625.53369
Ave special neighs/atom = 0
Neighbor list builds = 500
Dangerous builds not checked
System init for write_data ...
System init for write_restart ...
OMP_NUM_THREADS environment is not set. Defaulting to 1 thread. (src/comm.cpp:98)
  using 1 OpenMP thread(s) per MPI task
Reading restart file ...
  restart file = 2 Aug 2023, LAMMPS = 2 Aug 2023
  restoring atom style full from restart
  triclinic box = (0 0 0) to (17.3186 12.8149 18.6403) with tilt (-8.851 0.4589 0.2054)
WARNING: Triclinic box skew is large. LAMMPS will run inefficiently. (src/domain.cpp:220)
  2 by 2 by 2 MPI processor grid
  pair style reaxff stores no restart info
  371 atoms
Finding 1-2 1-3 1-4 neighbors ...
  special bond factors lj:    0        0        0       
  special bond factors coul:  0        0        0       
     0 = max # of 1-2 neighbors
     0 = max # of 1-3 neighbors
     0 = max # of 1-4 neighbors
     1 = max # of special neighbors
  special bonds CPU = 0.000 seconds
  read_restart CPU = 0.004 seconds
*****debug*****
xy = -8.8510000000000008669, deltaxy = 0.8851
xz = 0.4588999999999999746, deltaxz = -0.04589
yz = 0.20539999999999999925, deltayz = -0.02054
*****
*****Negative-deform 1 starts.*****
Resetting global fix info from restart file:
  fix style: nvt, fix ID: fnvt
All restart file global fix info was re-assigned
Neighbor list info ...
  update: every = 10 steps, delay = 0 steps, check = no
  max neighbors/atom: 2000, page size: 100000
  master list distance cutoff = 12
  ghost atom cutoff = 12
  binsize = 6, bins = 5 3 4
  2 neighbor lists, perpetual/occasional/extra = 2 0 0
  (1) pair reaxff, perpetual
      attributes: half, newton off, ghost
      pair build: half/bin/newtoff/ghost
      stencil: full/ghost/bin/3d
      bin: standard
  (2) fix qeq/reaxff, perpetual, copy from (1)
      attributes: half, newton off
      pair build: copy
      stencil: none
      bin: none
Setting up Verlet run ...
  Unit style    : real
  Current step  : 0
  Time step     : 0.5
Per MPI rank memory allocation (min/avg/max) = 131.2 | 132.1 | 132.9 Mbytes
   Step          Temp          PotEng         Press          Volume           Lx             Ly             Lz      
         0   311.88616     -43142.337     -4699.4104      4136.956       17.3186        12.8149        18.6403      
       100   295.1373      -43149.975      2974.3044      4128.6821      17.283963      12.8149        18.6403      
       200   289.31406     -43154.554      4732.3768      4120.4082      17.249326      12.8149        18.6403      
       300   289.27436     -43152.354     -1559.8102      4112.1343      17.214688      12.8149        18.6403      
       400   310.01016     -43158.746     -3830.153       4103.8603      17.180051      12.8149        18.6403      
       500   313.02285     -43125.209     -11643.976      4095.5864      17.145414      12.8149        18.6403      
       600   315.3888      -43139.528     -13797.891      4087.3125      17.110777      12.8149        18.6403      
       700   292.40122     -43134.995     -2565.0804      4079.0386      17.07614       12.8149        18.6403      
       800   301.90896     -43158.653     -11694.866      4070.7647      17.041502      12.8149        18.6403      
       900   279.61917     -43141.529     -10975.611      4062.4908      17.006865      12.8149        18.6403      
      1000   302.09954     -43143.554     -4914.5078      4054.2169      16.972228      12.8149        18.6403      
      1100   331.06431     -43142.682     -8124.8913      4045.943       16.937591      12.8149        18.6403      
      1200   317.44941     -43138.774      13070.022      4037.669       16.902954      12.8149        18.6403      
      1300   299.99068     -43130.79       11055.14       4029.3951      16.868316      12.8149        18.6403      
      1400   306.11705     -43158.959     -381.08203      4021.1212      16.833679      12.8149        18.6403      
      1500   283.3805      -43151.911      8661.2178      4012.8473      16.799042      12.8149        18.6403      
      1600   290.18389     -43159.329      11127.613      4004.5734      16.764405      12.8149        18.6403      
      1700   304.13085     -43170.992     -6422.7672      3996.2995      16.729768      12.8149        18.6403      
      1800   302.81816     -43191.428     -5547.888       3988.0256      16.69513       12.8149        18.6403      
      1900   286.24153     -43171.456      3812.3176      3979.7517      16.660493      12.8149        18.6403      
      2000   312.07032     -43172.419     -7726.7488      3971.4778      16.625856      12.8149        18.6403      
      2100   315.47013     -43134.392     -8049.6226      3963.2038      16.591219      12.8149        18.6403      
      2200   299.54024     -43119.053     -2776.6793      3954.9299      16.556582      12.8149        18.6403      
      2300   300.47337     -43129.799     -12602.67       3946.656       16.521944      12.8149        18.6403      
      2400   314.33722     -43163.195      4107.2734      3938.3821      16.487307      12.8149        18.6403      
      2500   271.09285     -43133.146      916.31939      3930.1082      16.45267       12.8149        18.6403      
      2600   303.95393     -43174.118     -1399.7572      3921.8343      16.418033      12.8149        18.6403      
      2700   280.43221     -43149.961      11599.036      3913.5604      16.383396      12.8149        18.6403      
      2800   301.9405      -43189.307      6410.1818      3905.2865      16.348758      12.8149        18.6403      
      2900   267.30636     -43171.287     -2521.0824      3897.0125      16.314121      12.8149        18.6403      
      3000   292.92034     -43179.117      1248.5292      3888.7386      16.279484      12.8149        18.6403      
      3100   290.22369     -43156.157      12488.729      3880.4647      16.244847      12.8149        18.6403      
      3200   309.67687     -43138.838     -3520.1483      3872.1908      16.21021       12.8149        18.6403      
      3300   322.05297     -43134.193      1467.7074      3863.9169      16.175572      12.8149        18.6403      
      3400   298.12768     -43133.24       15647.165      3855.643       16.140935      12.8149        18.6403      
      3500   310.1257      -43168.987     -5239.5552      3847.3691      16.106298      12.8149        18.6403      
      3600   302.39474     -43178.095      7328.6696      3839.0952      16.071661      12.8149        18.6403      
      3700   302.11707     -43183.469      3224.2883      3830.8212      16.037024      12.8149        18.6403      
      3800   290.14399     -43178.579      15481.546      3822.5473      16.002386      12.8149        18.6403      
      3900   291.89198     -43189.847      5818.0104      3814.2734      15.967749      12.8149        18.6403      
      4000   292.34642     -43185.4        705.8575       3805.9995      15.933112      12.8149        18.6403      
      4100   286.60211     -43146.041      8886.9115      3797.7256      15.898475      12.8149        18.6403      
      4200   312.31701     -43141.994      11767.641      3789.4517      15.863838      12.8149        18.6403      
      4300   301.86781     -43145.077      6321.5659      3781.1778      15.8292        12.8149        18.6403      
      4400   309.30228     -43171.565      5704.6605      3772.9039      15.794563      12.8149        18.6403      
      4500   309.7021      -43173.627      15171.903      3764.63        15.759926      12.8149        18.6403      
      4600   300.17085     -43161.65       5696.6203      3756.356       15.725289      12.8149        18.6403      
      4700   296.28252     -43165.187      22028.927      3748.0821      15.690652      12.8149        18.6403      
      4800   304.93763     -43164.015      17240.791      3739.8082      15.656014      12.8149        18.6403      
      4900   288.68096     -43145.261      16007.9        3731.5343      15.621377      12.8149        18.6403      
      5000   299.68579     -43151.761      15364.818      3723.2604      15.58674       12.8149        18.6403      
Loop time of 274.132 on 8 procs for 5000 steps with 371 atoms

Performance: 0.788 ns/day, 30.459 hours/ns, 18.239 timesteps/s, 6.767 katom-step/s
98.7% CPU use with 8 MPI tasks x 1 OpenMP threads

MPI task timing breakdown:
Section |  min time  |  avg time  |  max time  |%varavg| %total
---------------------------------------------------------------
Pair    | 222.45     | 225.48     | 229.45     |  17.1 | 82.25
Bond    | 0.0016298  | 0.0020454  | 0.0025429  |   0.7 |  0.00
Neigh   | 14.658     | 14.93      | 15.19      |   4.7 |  5.45
Comm    | 6.7475     | 10.754     | 13.765     |  79.0 |  3.92
Output  | 0.017838   | 0.020127   | 0.02229    |   1.0 |  0.01
Modify  | 22.595     | 22.834     | 23.127     |   3.9 |  8.33
Other   |            | 0.1145     |            |       |  0.04

Nlocal:         46.375 ave          55 max          39 min
Histogram: 1 1 0 2 0 2 1 0 0 1
Nghost:           3596 ave        3641 max        3540 min
Histogram: 2 0 0 2 0 0 0 0 1 3
Neighs:          32309 ave       38062 max       27480 min
Histogram: 1 1 0 2 0 2 1 0 0 1

Total # of neighbors = 258472
Ave neighs/atom = 696.69003
Ave special neighs/atom = 0
Neighbor list builds = 500
Dangerous builds not checked
OMP_NUM_THREADS environment is not set. Defaulting to 1 thread. (src/comm.cpp:98)
  using 1 OpenMP thread(s) per MPI task
Reading restart file ...
  restart file = 2 Aug 2023, LAMMPS = 2 Aug 2023
  restoring atom style full from restart
  triclinic box = (0 0 0) to (17.3186 12.8149 18.6403) with tilt (-8.851 0.4589 0.2054)
WARNING: Triclinic box skew is large. LAMMPS will run inefficiently. (src/domain.cpp:220)
  2 by 2 by 2 MPI processor grid
  pair style reaxff stores no restart info
  371 atoms
Finding 1-2 1-3 1-4 neighbors ...
  special bond factors lj:    0        0        0       
  special bond factors coul:  0        0        0       
     0 = max # of 1-2 neighbors
     0 = max # of 1-3 neighbors
     0 = max # of 1-4 neighbors
     1 = max # of special neighbors
  special bonds CPU = 0.000 seconds
  read_restart CPU = 0.003 seconds
*****Positive-deform 1 starts.*****
Resetting global fix info from restart file:
  fix style: nvt, fix ID: fnvt
All restart file global fix info was re-assigned
Neighbor list info ...
  update: every = 10 steps, delay = 0 steps, check = no
  max neighbors/atom: 2000, page size: 100000
  master list distance cutoff = 12
  ghost atom cutoff = 12
  binsize = 6, bins = 5 3 4
  2 neighbor lists, perpetual/occasional/extra = 2 0 0
  (1) pair reaxff, perpetual
      attributes: half, newton off, ghost
      pair build: half/bin/newtoff/ghost
      stencil: full/ghost/bin/3d
      bin: standard
  (2) fix qeq/reaxff, perpetual, copy from (1)
      attributes: half, newton off
      pair build: copy
      stencil: none
      bin: none
Setting up Verlet run ...
  Unit style    : real
  Current step  : 0
  Time step     : 0.5
Per MPI rank memory allocation (min/avg/max) = 131.3 | 132.1 | 132.9 Mbytes
   Step          Temp          PotEng         Press          Volume           Lx             Ly             Lz      
         0   311.88616     -43142.337     -4699.4104      4136.956       17.3186        12.8149        18.6403      
       100   295.112       -43149.979      3071.306       4145.2299      17.353237      12.8149        18.6403      
       200   287.37753     -43150.473     -6456.759       4153.5038      17.387874      12.8149        18.6403      
       300   302.55587     -43162.769      147.39454      4161.7777      17.422512      12.8149        18.6403      
       400   283.9465      -43142.859     -1171.8324      4170.0516      17.457149      12.8149        18.6403      
       500   299.10588     -43145.058     -3861.568       4178.3256      17.491786      12.8149        18.6403      
       600   299.9216      -43140.363     -9304.1176      4186.5995      17.526423      12.8149        18.6403      
       700   286.89616     -43128.807     -10710.199      4194.8734      17.56106       12.8149        18.6403      
       800   309.47523     -43163.263     -17125.017      4203.1473      17.595698      12.8149        18.6403      
       900   275.64774     -43133         -5259.578       4211.4212      17.630335      12.8149        18.6403      
      1000   316.60159     -43158.499     -12753.21       4219.6951      17.664972      12.8149        18.6403      
      1100   316.16132     -43125.529     -14100.882      4227.969       17.699609      12.8149        18.6403      
      1200   313.34878     -43109.31      -2926.8074      4236.2429      17.734246      12.8149        18.6403      
      1300   304.3028      -43119.821     -5824.8688      4244.5168      17.768884      12.8149        18.6403      
      1400   312.07143     -43142.464     -12035.105      4252.7908      17.803521      12.8149        18.6403      
      1500   302.0982      -43137.68      -7659.728       4261.0647      17.838158      12.8149        18.6403      
      1600   294.7368      -43132.858     -4803.0659      4269.3386      17.872795      12.8149        18.6403      
      1700   289.96497     -43134.902     -5670.2308      4277.6125      17.907432      12.8149        18.6403      
      1800   284.22304     -43139.213     -9794.3881      4285.8864      17.94207       12.8149        18.6403      
      1900   289.69955     -43142.916      2173.5347      4294.1603      17.976707      12.8149        18.6403      
      2000   293.36967     -43117.275     -7301.4036      4302.4342      18.011344      12.8149        18.6403      
      2100   293.12976     -43085.502     -16211.115      4310.7081      18.045981      12.8149        18.6403      
      2200   307.14855     -43093.439     -12916.397      4318.9821      18.080618      12.8149        18.6403      
      2300   304.23133     -43103.241     -2965.1518      4327.256       18.115256      12.8149        18.6403      
      2400   299.97738     -43111.207     -5368.4062      4335.5299      18.149893      12.8149        18.6403      
      2500   291.46635     -43090.989     -8452.5741      4343.8038      18.18453       12.8149        18.6403      
      2600   312.54873     -43083.236     -18631.962      4352.0777      18.219167      12.8149        18.6403      
      2700   299.25468     -43053.721     -17175.368      4360.3516      18.253804      12.8149        18.6403      
      2800   303.4604      -43080.632     -11819.703      4368.6255      18.288442      12.8149        18.6403      
      2900   296.6961      -43085.203     -18230.338      4376.8994      18.323079      12.8149        18.6403      
      3000   296.66331     -43083.739     -21288.477      4385.1734      18.357716      12.8149        18.6403      
      3100   300.75894     -43081.946     -19234.203      4393.4473      18.392353      12.8149        18.6403      
      3200   282.77282     -43086.693     -14321.529      4401.7212      18.42699       12.8149        18.6403      
      3300   292.80142     -43101.442     -5645.447       4409.9951      18.461628      12.8149        18.6403      
      3400   300.84567     -43092.292     -23561.679      4418.269       18.496265      12.8149        18.6403      
      3500   310.30839     -43069.082     -16562.845      4426.5429      18.530902      12.8149        18.6403      
      3600   322.27075     -43045.699     -22165.233      4434.8168      18.565539      12.8149        18.6403      
      3700   332.79882     -43078.764     -24666.835      4443.0907      18.600176      12.8149        18.6403      
      3800   292.22418     -43051.847     -12494.009      4451.3646      18.634814      12.8149        18.6403      
      3900   314.06885     -43083.675     -7599.4037      4459.6386      18.669451      12.8149        18.6403      
      4000   294.52728     -43077.672     -11097.967      4467.9125      18.704088      12.8149        18.6403      
      4100   267.72829     -43051.749     -23240.25       4476.1864      18.738725      12.8149        18.6403      
      4200   301.42478     -43082.599     -23233.269      4484.4603      18.773362      12.8149        18.6403      
      4300   286.77819     -43071.147     -24218.553      4492.7342      18.808         12.8149        18.6403      
      4400   282.99097     -43070.88      -15921.547      4501.0081      18.842637      12.8149        18.6403      
      4500   286.35721     -43072.96      -3395.2672      4509.282       18.877274      12.8149        18.6403      
      4600   302.11566     -43063.684     -19016.774      4517.5559      18.911911      12.8149        18.6403      
      4700   315.53597     -43048.509     -18577.82       4525.8299      18.946548      12.8149        18.6403      
      4800   319.17828     -43055.145     -12347.153      4534.1038      18.981186      12.8149        18.6403      
      4900   312.78377     -43059.722     -11598.926      4542.3777      19.015823      12.8149        18.6403      
      5000   285.10866     -43028.603     -27261.418      4550.6516      19.05046       12.8149        18.6403      
Loop time of 235.542 on 8 procs for 5000 steps with 371 atoms

Performance: 0.917 ns/day, 26.171 hours/ns, 21.228 timesteps/s, 7.875 katom-step/s
98.9% CPU use with 8 MPI tasks x 1 OpenMP threads

MPI task timing breakdown:
Section |  min time  |  avg time  |  max time  |%varavg| %total
---------------------------------------------------------------
Pair    | 136.73     | 189.22     | 198.15     | 144.6 | 80.34
Bond    | 0.0016433  | 0.0020143  | 0.0024074  |   0.6 |  0.00
Neigh   | 9.2891     | 13.21      | 14.115     |  41.2 |  5.61
Comm    | 3.7593     | 12.68      | 65.167     | 558.3 |  5.38
Output  | 0.018166   | 0.020263   | 0.022198   |   0.9 |  0.01
Modify  | 19.382     | 20.295     | 24.241     |  33.5 |  8.62
Other   |            | 0.1119     |            |       |  0.05

Nlocal:         46.375 ave          53 max          41 min
Histogram: 1 0 2 1 2 0 0 0 0 2
Nghost:        3165.38 ave        3219 max        3119 min
Histogram: 1 2 0 0 1 1 1 1 0 1
Neighs:        26289.2 ave       29771 max       23389 min
Histogram: 1 0 2 1 2 0 0 0 0 2

Total # of neighbors = 210314
Ave neighs/atom = 566.8841
Ave special neighs/atom = 0
Neighbor list builds = 500
Dangerous builds not checked
OMP_NUM_THREADS environment is not set. Defaulting to 1 thread. (src/comm.cpp:98)
  using 1 OpenMP thread(s) per MPI task
Reading restart file ...
  restart file = 2 Aug 2023, LAMMPS = 2 Aug 2023
  restoring atom style full from restart
  triclinic box = (0 0 0) to (17.3186 12.8149 18.6403) with tilt (-8.851 0.4589 0.2054)
WARNING: Triclinic box skew is large. LAMMPS will run inefficiently. (src/domain.cpp:220)
  2 by 2 by 2 MPI processor grid
  pair style reaxff stores no restart info
  371 atoms
Finding 1-2 1-3 1-4 neighbors ...
  special bond factors lj:    0        0        0       
  special bond factors coul:  0        0        0       
     0 = max # of 1-2 neighbors
     0 = max # of 1-3 neighbors
     0 = max # of 1-4 neighbors
     1 = max # of special neighbors
  special bonds CPU = 0.000 seconds
  read_restart CPU = 0.003 seconds
*****debug*****
xy = -8.8510000000000008669, deltaxy = 0.8851
xz = 0.4588999999999999746, deltaxz = -0.04589
yz = 0.20539999999999999925, deltayz = -0.02054
*****
*****Negative-deform 2 starts.*****
Resetting global fix info from restart file:
  fix style: nvt, fix ID: fnvt
All restart file global fix info was re-assigned
Neighbor list info ...
  update: every = 10 steps, delay = 0 steps, check = no
  max neighbors/atom: 2000, page size: 100000
  master list distance cutoff = 12
  ghost atom cutoff = 12
  binsize = 6, bins = 5 3 4
  2 neighbor lists, perpetual/occasional/extra = 2 0 0
  (1) pair reaxff, perpetual
      attributes: half, newton off, ghost
      pair build: half/bin/newtoff/ghost
      stencil: full/ghost/bin/3d
      bin: standard
  (2) fix qeq/reaxff, perpetual, copy from (1)
      attributes: half, newton off
      pair build: copy
      stencil: none
      bin: none
Setting up Verlet run ...
  Unit style    : real
  Current step  : 0
  Time step     : 0.5
Per MPI rank memory allocation (min/avg/max) = 131.2 | 132.1 | 132.9 Mbytes
   Step          Temp          PotEng         Press          Volume           Lx             Ly             Lz      
         0   311.88616     -43142.337     -4699.4104      4136.956       17.3186        12.8149        18.6403      
       100   295.133       -43149.916      2991.7492      4128.6821      17.3186        12.78927       18.6403      
       200   287.5333      -43153.348     -500.63306      4120.4082      17.3186        12.76364       18.6403      
       300   286.07197     -43151.755     -2677.41        4112.1343      17.3186        12.738011      18.6403      
       400   296.67651     -43137.275     -5695.4771      4103.8603      17.3186        12.712381      18.6403      
       500   318.69415     -43130.775     -8045.0939      4095.5864      17.3186        12.686751      18.6403      
       600   313.66469     -43140.953     -11600.928      4087.3125      17.3186        12.661121      18.6403      
       700   298.22877     -43148.169     -4964.3226      4079.0386      17.3186        12.635491      18.6403      
       800   310.83437     -43179.134     -3799.3219      4070.7647      17.3186        12.609862      18.6403      
       900   289.49228     -43162.651     -11753.097      4062.4908      17.3186        12.584232      18.6403      
      1000   304.89817     -43178.326     -9056.0885      4054.2169      17.3186        12.558602      18.6403      
      1100   303.23254     -43145.122     -9851.0878      4045.943       17.3186        12.532972      18.6403      
      1200   327.00559     -43143.696     -1487.6377      4037.669       17.3186        12.507342      18.6403      
      1300   298.1289      -43133.323      1075.6599      4029.3951      17.3186        12.481713      18.6403      
      1400   312.51495     -43168.654      2161.9291      4021.1212      17.3186        12.456083      18.6403      
      1500   333.8593      -43207.968     -2167.4013      4012.8473      17.3186        12.430453      18.6403      
      1600   294.06541     -43175.438      2034.5844      4004.5734      17.3186        12.404823      18.6403      
      1700   302.52916     -43181.688     -3298.6704      3996.2995      17.3186        12.379193      18.6403      
      1800   279.61767     -43170.34       10634.232      3988.0256      17.3186        12.353564      18.6403      
      1900   293.07063     -43204.508      68.548092      3979.7517      17.3186        12.327934      18.6403      
      2000   285.72889     -43178.36       12011.718      3971.4778      17.3186        12.302304      18.6403      
      2100   313.34021     -43170.597      12325.878      3963.2038      17.3186        12.276674      18.6403      
      2200   313.19894     -43161.967      16469.16       3954.9299      17.3186        12.251044      18.6403      
      2300   303.58333     -43166.153      1187.7621      3946.656       17.3186        12.225415      18.6403      
      2400   287.30894     -43159.552     -3517.632       3938.3821      17.3186        12.199785      18.6403      
      2500   292.76715     -43158.026      12946.145      3930.1082      17.3186        12.174155      18.6403      
      2600   307.44686     -43169.441      13810.918      3921.8343      17.3186        12.148525      18.6403      
      2700   291.19037     -43183.909      5025.8169      3913.5604      17.3186        12.122895      18.6403      
      2800   289.01237     -43172.013     -989.1554       3905.2865      17.3186        12.097266      18.6403      
      2900   311.25865     -43175.086      8817.404       3897.0125      17.3186        12.071636      18.6403      
      3000   324.8106      -43167.257     -7546.8519      3888.7386      17.3186        12.046006      18.6403      
      3100   314.44333     -43179.386      1808.4233      3880.4647      17.3186        12.020376      18.6403      
      3200   288.11884     -43161.041      4881.2678      3872.1908      17.3186        11.994746      18.6403      
      3300   283.57172     -43147.86       15507.923      3863.9169      17.3186        11.969117      18.6403      
      3400   309.6833      -43164.542      17560.67       3855.643       17.3186        11.943487      18.6403      
      3500   301.89835     -43150.74       16453.034      3847.3691      17.3186        11.917857      18.6403      
      3600   288.06724     -43161.257      10455.065      3839.0952      17.3186        11.892227      18.6403      
      3700   301.68377     -43178.879      11272.226      3830.8212      17.3186        11.866597      18.6403      
      3800   309.34936     -43173.362      5008.919       3822.5473      17.3186        11.840968      18.6403      
      3900   311.27184     -43167.449      12141.116      3814.2734      17.3186        11.815338      18.6403      
      4000   288.30142     -43161.914      13705.567      3805.9995      17.3186        11.789708      18.6403      
      4100   291.71323     -43172.212     -828.45687      3797.7256      17.3186        11.764078      18.6403      
      4200   285.56721     -43160.18       9418.4524      3789.4517      17.3186        11.738448      18.6403      
      4300   320.26351     -43170.701      12850.54       3781.1778      17.3186        11.712819      18.6403      
      4400   346.1163      -43168.559      10423.182      3772.9039      17.3186        11.687189      18.6403      
      4500   302.21052     -43150.648      9376.4441      3764.63        17.3186        11.661559      18.6403      
      4600   310.87831     -43172.971      8884.3176      3756.356       17.3186        11.635929      18.6403      
      4700   294.42943     -43159.244      16109.256      3748.0821      17.3186        11.610299      18.6403      
      4800   299.12405     -43156.277      4677.0681      3739.8082      17.3186        11.58467       18.6403      
      4900   283.8684      -43152.076      7530.8051      3731.5343      17.3186        11.55904       18.6403      
      5000   287.51619     -43178.937      15637.555      3723.2604      17.3186        11.53341       18.6403      
Loop time of 278.686 on 8 procs for 5000 steps with 371 atoms

Performance: 0.775 ns/day, 30.965 hours/ns, 17.941 timesteps/s, 6.656 katom-step/s
99.0% CPU use with 8 MPI tasks x 1 OpenMP threads

MPI task timing breakdown:
Section |  min time  |  avg time  |  max time  |%varavg| %total
---------------------------------------------------------------
Pair    | 178.25     | 222.88     | 237.46     | 124.9 | 79.98
Bond    | 0.0015405  | 0.0020087  | 0.0024164  |   0.6 |  0.00
Neigh   | 12.036     | 15.387     | 16.368     |  33.9 |  5.52
Comm    | 2.8898     | 17.464     | 62.09      | 446.0 |  6.27
Output  | 0.017484   | 0.019482   | 0.021296   |   0.9 |  0.01
Modify  | 21.842     | 22.821     | 26.191     |  28.0 |  8.19
Other   |            | 0.1117     |            |       |  0.04

Nlocal:         46.375 ave          52 max          41 min
Histogram: 3 0 0 0 1 0 1 0 2 1
Nghost:        3773.75 ave        3811 max        3747 min
Histogram: 1 1 1 0 3 0 0 1 0 1
Neighs:        32258.8 ave       35980 max       28557 min
Histogram: 1 2 0 0 1 0 1 0 2 1

Total # of neighbors = 258070
Ave neighs/atom = 695.60647
Ave special neighs/atom = 0
Neighbor list builds = 500
Dangerous builds not checked
OMP_NUM_THREADS environment is not set. Defaulting to 1 thread. (src/comm.cpp:98)
  using 1 OpenMP thread(s) per MPI task
Reading restart file ...
  restart file = 2 Aug 2023, LAMMPS = 2 Aug 2023
  restoring atom style full from restart
  triclinic box = (0 0 0) to (17.3186 12.8149 18.6403) with tilt (-8.851 0.4589 0.2054)
WARNING: Triclinic box skew is large. LAMMPS will run inefficiently. (src/domain.cpp:220)
  2 by 2 by 2 MPI processor grid
  pair style reaxff stores no restart info
  371 atoms
Finding 1-2 1-3 1-4 neighbors ...
  special bond factors lj:    0        0        0       
  special bond factors coul:  0        0        0       
     0 = max # of 1-2 neighbors
     0 = max # of 1-3 neighbors
     0 = max # of 1-4 neighbors
     1 = max # of special neighbors
  special bonds CPU = 0.000 seconds
  read_restart CPU = 0.003 seconds
*****Positive-deform 2 starts.*****
Resetting global fix info from restart file:
  fix style: nvt, fix ID: fnvt
All restart file global fix info was re-assigned
Neighbor list info ...
  update: every = 10 steps, delay = 0 steps, check = no
  max neighbors/atom: 2000, page size: 100000
  master list distance cutoff = 12
  ghost atom cutoff = 12
  binsize = 6, bins = 5 3 4
  2 neighbor lists, perpetual/occasional/extra = 2 0 0
  (1) pair reaxff, perpetual
      attributes: half, newton off, ghost
      pair build: half/bin/newtoff/ghost
      stencil: full/ghost/bin/3d
      bin: standard
  (2) fix qeq/reaxff, perpetual, copy from (1)
      attributes: half, newton off
      pair build: copy
      stencil: none
      bin: none
Setting up Verlet run ...
  Unit style    : real
  Current step  : 0
  Time step     : 0.5
Per MPI rank memory allocation (min/avg/max) = 131.3 | 132.1 | 132.9 Mbytes
   Step          Temp          PotEng         Press          Volume           Lx             Ly             Lz      
         0   311.88616     -43142.337     -4699.4104      4136.956       17.3186        12.8149        18.6403      
       100   295.09424     -43150.031      3053.7864      4145.2299      17.3186        12.84053       18.6403      
       200   286.63066     -43151.849     -4177.3014      4153.5038      17.3186        12.86616       18.6403      
       300   296.04287     -43157.915     -645.29334      4161.7777      17.3186        12.891789      18.6403      
       400   317.69217     -43133.364     -2202.7062      4170.0516      17.3186        12.917419      18.6403      
       500   312.07781     -43108.77      -16399.532      4178.3256      17.3186        12.943049      18.6403      
       600   313.44138     -43139.652     -11180.788      4186.5995      17.3186        12.968679      18.6403      
       700   300.2292      -43140.158     -8657.7325      4194.8734      17.3186        12.994309      18.6403      
       800   297.56945     -43150.365     -12412.236      4203.1473      17.3186        13.019938      18.6403      
       900   299.90559     -43161.4       -7981.857       4211.4212      17.3186        13.045568      18.6403      
      1000   305.77752     -43161.62      -11978.018      4219.6951      17.3186        13.071198      18.6403      
      1100   314.42791     -43145.112     -201.34173      4227.969       17.3186        13.096828      18.6403      
      1200   334.75414     -43148.613     -11182.393      4236.2429      17.3186        13.122458      18.6403      
      1300   303.87488     -43129.542     -13784.041      4244.5168      17.3186        13.148087      18.6403      
      1400   321.65803     -43167.58      -10429.279      4252.7908      17.3186        13.173717      18.6403      
      1500   305.43694     -43153.371     -12413.473      4261.0647      17.3186        13.199347      18.6403      
      1600   304.42345     -43149.146     -19996.248      4269.3386      17.3186        13.224977      18.6403      
      1700   303.65183     -43153.854     -8317.7615      4277.6125      17.3186        13.250607      18.6403      
      1800   282.26334     -43155.911     -11643.6        4285.8864      17.3186        13.276236      18.6403      
      1900   285.01633     -43145.144     -12535.015      4294.1603      17.3186        13.301866      18.6403      
      2000   306.4124      -43135.522     -19989.957      4302.4342      17.3186        13.327496      18.6403      
      2100   299.48088     -43112.584     -18167.213      4310.7081      17.3186        13.353126      18.6403      
      2200   313.60129     -43130.813     -12958.372      4318.9821      17.3186        13.378756      18.6403      
      2300   302.79915     -43127.541     -10653.897      4327.256       17.3186        13.404385      18.6403      
      2400   302.7633      -43130.703     -15978.407      4335.5299      17.3186        13.430015      18.6403      
      2500   310.12746     -43135.488     -2094.1036      4343.8038      17.3186        13.455645      18.6403      
      2600   300.8892      -43120.232     -17654.11       4352.0777      17.3186        13.481275      18.6403      
      2700   301.5784      -43100.527     -15861.24       4360.3516      17.3186        13.506905      18.6403      
      2800   293.91167     -43073.395     -21991.56       4368.6255      17.3186        13.532534      18.6403      
      2900   316.15277     -43105.491     -17502.98       4376.8994      17.3186        13.558164      18.6403      
      3000   286.5038      -43099.235     -21475.619      4385.1734      17.3186        13.583794      18.6403      
      3100   289.45309     -43100.29      -9973.7898      4393.4473      17.3186        13.609424      18.6403      
      3200   293.12717     -43089.294     -10369.339      4401.7212      17.3186        13.635054      18.6403      
      3300   309.8294      -43091.71      -23010.439      4409.9951      17.3186        13.660683      18.6403      
      3400   312.89853     -43085.159     -7423.5905      4418.269       17.3186        13.686313      18.6403      
      3500   308.94725     -43092.098     -18238.149      4426.5429      17.3186        13.711943      18.6403      
      3600   287.82193     -43085.203     -18715.149      4434.8168      17.3186        13.737573      18.6403      
      3700   284.15254     -43075.184     -20409.755      4443.0907      17.3186        13.763203      18.6403      
      3800   301.20052     -43068.681     -14277.187      4451.3646      17.3186        13.788832      18.6403      
      3900   328.28605     -43056.584     -15688.776      4459.6386      17.3186        13.814462      18.6403      
      4000   329.5688      -43064.05      -17265.711      4467.9125      17.3186        13.840092      18.6403      
      4100   293.09776     -43047.726     -9312.5483      4476.1864      17.3186        13.865722      18.6403      
      4200   304.32245     -43064.903     -13136.206      4484.4603      17.3186        13.891352      18.6403      
      4300   296.28616     -43056.951     -16102.332      4492.7342      17.3186        13.916981      18.6403      
      4400   293.49613     -43063.235     -15794.039      4501.0081      17.3186        13.942611      18.6403      
      4500   267.28983     -43054.47      -5676.1886      4509.282       17.3186        13.968241      18.6403      
      4600   280.70091     -43063.182     -12974.1        4517.5559      17.3186        13.993871      18.6403      
      4700   295.5895      -43032.786     -9994.2822      4525.8299      17.3186        14.019501      18.6403      
      4800   323.83766     -43051.215     -13116.813      4534.1038      17.3186        14.04513       18.6403      
      4900   310.5366      -43049.724     -14675.764      4542.3777      17.3186        14.07076       18.6403      
      5000   297.2389      -43053.137     -21477.994      4550.6516      17.3186        14.09639       18.6403      
Loop time of 231.899 on 8 procs for 5000 steps with 371 atoms

Performance: 0.931 ns/day, 25.767 hours/ns, 21.561 timesteps/s, 7.999 katom-step/s
98.9% CPU use with 8 MPI tasks x 1 OpenMP threads

MPI task timing breakdown:
Section |  min time  |  avg time  |  max time  |%varavg| %total
---------------------------------------------------------------
Pair    | 165.89     | 187.04     | 195.34     |  83.6 | 80.66
Bond    | 0.0014604  | 0.0020249  | 0.0026116  |   0.9 |  0.00
Neigh   | 10.987     | 12.75      | 13.617     |  24.4 |  5.50
Comm    | 3.5251     | 11.85      | 33.004     | 332.4 |  5.11
Output  | 0.018443   | 0.021232   | 0.023791   |   1.2 |  0.01
Modify  | 19.277     | 20.125     | 21.895     |  19.4 |  8.68
Other   |            | 0.1115     |            |       |  0.05

Nlocal:         46.375 ave          50 max          37 min
Histogram: 1 0 0 1 0 0 0 1 1 4
Nghost:           3042 ave        3096 max        2988 min
Histogram: 1 0 2 1 0 1 1 0 0 2
Neighs:        26343.2 ave       28418 max       21174 min
Histogram: 1 0 0 1 0 0 0 1 2 3

Total # of neighbors = 210746
Ave neighs/atom = 568.04852
Ave special neighs/atom = 0
Neighbor list builds = 500
Dangerous builds not checked
OMP_NUM_THREADS environment is not set. Defaulting to 1 thread. (src/comm.cpp:98)
  using 1 OpenMP thread(s) per MPI task
Reading restart file ...
  restart file = 2 Aug 2023, LAMMPS = 2 Aug 2023
  restoring atom style full from restart
  triclinic box = (0 0 0) to (17.3186 12.8149 18.6403) with tilt (-8.851 0.4589 0.2054)
WARNING: Triclinic box skew is large. LAMMPS will run inefficiently. (src/domain.cpp:220)
  2 by 2 by 2 MPI processor grid
  pair style reaxff stores no restart info
  371 atoms
Finding 1-2 1-3 1-4 neighbors ...
  special bond factors lj:    0        0        0       
  special bond factors coul:  0        0        0       
     0 = max # of 1-2 neighbors
     0 = max # of 1-3 neighbors
     0 = max # of 1-4 neighbors
     1 = max # of special neighbors
  special bonds CPU = 0.000 seconds
  read_restart CPU = 0.003 seconds
*****debug*****
xy = -8.8510000000000008669, deltaxy = 0.8851
xz = 0.4588999999999999746, deltaxz = -0.04589
yz = 0.20539999999999999925, deltayz = -0.02054
*****
*****Negative-deform 3 starts.*****
Resetting global fix info from restart file:
  fix style: nvt, fix ID: fnvt
All restart file global fix info was re-assigned
Neighbor list info ...
  update: every = 10 steps, delay = 0 steps, check = no
  max neighbors/atom: 2000, page size: 100000
  master list distance cutoff = 12
  ghost atom cutoff = 12
  binsize = 6, bins = 5 3 4
  2 neighbor lists, perpetual/occasional/extra = 2 0 0
  (1) pair reaxff, perpetual
      attributes: half, newton off, ghost
      pair build: half/bin/newtoff/ghost
      stencil: full/ghost/bin/3d
      bin: standard
  (2) fix qeq/reaxff, perpetual, copy from (1)
      attributes: half, newton off
      pair build: copy
      stencil: none
      bin: none
Setting up Verlet run ...
  Unit style    : real
  Current step  : 0
  Time step     : 0.5
Per MPI rank memory allocation (min/avg/max) = 131.2 | 132.1 | 132.9 Mbytes
   Step          Temp          PotEng         Press          Volume           Lx             Ly             Lz      
         0   311.88616     -43142.337     -4699.4104      4136.956       17.3186        12.8149        18.6403      
       100   295.34493     -43149.626      3001.9862      4128.6821      17.3186        12.8149        18.603019    
       200   288.46134     -43148.582      6201.2576      4120.4082      17.3186        12.8149        18.565739    
       300   294.06836     -43148.861      1647.3351      4112.1343      17.3186        12.8149        18.528458    
       400   300.59977     -43156.119     -5856.4289      4103.8603      17.3186        12.8149        18.491178    
       500   299.93515     -43152.021      640.41819      4095.5864      17.3186        12.8149        18.453897    
       600   293.92336     -43140.993     -4164.2298      4087.3125      17.3186        12.8149        18.416616    
       700   296.86929     -43151.807     -8603.556       4079.0386      17.3186        12.8149        18.379336    
       800   288.67713     -43176.468     -6813.9963      4070.7647      17.3186        12.8149        18.342055    
       900   286.91083     -43167.654     -3045.1542      4062.4908      17.3186        12.8149        18.304775    
      1000   279.86047     -43143.526     -6865.3155      4054.2169      17.3186        12.8149        18.267494    
      1100   310.09231     -43161.888      8719.0202      4045.943       17.3186        12.8149        18.230213    
      1200   282.33918     -43122.511      11660.935      4037.669       17.3186        12.8149        18.192933    
      1300   299.81003     -43170.393     -2550.5171      4029.3951      17.3186        12.8149        18.155652    
      1400   309.46176     -43183.674     -2407.3666      4021.1212      17.3186        12.8149        18.118372    
      1500   298.635       -43171.878     -5783.8737      4012.8473      17.3186        12.8149        18.081091    
      1600   294.24295     -43184.504      1333.8189      4004.5734      17.3186        12.8149        18.04381     
      1700   305.8743      -43192.872      2422.6801      3996.2995      17.3186        12.8149        18.00653     
      1800   302.81719     -43184.863      6633.6883      3988.0256      17.3186        12.8149        17.969249    
      1900   287.05514     -43178.427     -9498.2199      3979.7517      17.3186        12.8149        17.931969    
      2000   287.99265     -43195.247     -5715.042       3971.4778      17.3186        12.8149        17.894688    
      2100   300.09285     -43193.115      6711.3108      3963.2038      17.3186        12.8149        17.857407    
      2200   293.4526      -43179.893     -332.76537      3954.9299      17.3186        12.8149        17.820127    
      2300   282.02468     -43189.173      2799.7512      3946.656       17.3186        12.8149        17.782846    
      2400   281.37093     -43180.834      3001.4618      3938.3821      17.3186        12.8149        17.745566    
      2500   298.97591     -43185.554     -7621.449       3930.1082      17.3186        12.8149        17.708285    
      2600   306.98138     -43190.791     -774.65568      3921.8343      17.3186        12.8149        17.671004    
      2700   308.6347      -43197.087      7832.6247      3913.5604      17.3186        12.8149        17.633724    
      2800   291.70864     -43187.679      7218.6771      3905.2865      17.3186        12.8149        17.596443    
      2900   288.90313     -43185.496     -10383.323      3897.0125      17.3186        12.8149        17.559163    
      3000   295.47328     -43195.959     -568.41144      3888.7386      17.3186        12.8149        17.521882    
      3100   287.88435     -43184.486      7748.8907      3880.4647      17.3186        12.8149        17.484601    
      3200   308.39606     -43206.732      10139.294      3872.1908      17.3186        12.8149        17.447321    
      3300   298.90593     -43196.677      9372.5255      3863.9169      17.3186        12.8149        17.41004     
      3400   290.66286     -43181.191      20861.029      3855.643       17.3186        12.8149        17.37276     
      3500   283.05652     -43148.883      9289.644       3847.3691      17.3186        12.8149        17.335479    
      3600   320.88582     -43158.252      18569.069      3839.0952      17.3186        12.8149        17.298198    
      3700   326.28461     -43162.326      10990.369      3830.8212      17.3186        12.8149        17.260918    
      3800   306.81534     -43160.419     -4403.722       3822.5473      17.3186        12.8149        17.223637    
      3900   287.98376     -43152.328      11166.585      3814.2734      17.3186        12.8149        17.186357    
      4000   305.36846     -43176.214      3592.4839      3805.9995      17.3186        12.8149        17.149076    
      4100   298.62045     -43183.834      21875.063      3797.7256      17.3186        12.8149        17.111795    
      4200   275.43795     -43157.318      13337.716      3789.4517      17.3186        12.8149        17.074515    
      4300   268.43775     -43153.076      20020.228      3781.1778      17.3186        12.8149        17.037234    
      4400   285.48286     -43184.304      7782.8793      3772.9039      17.3186        12.8149        16.999954    
      4500   288.99824     -43190.025      31335.13       3764.63        17.3186        12.8149        16.962673    
      4600   276.43589     -43134.056      13170.304      3756.356       17.3186        12.8149        16.925392    
      4700   317.52671     -43133.039      24101.573      3748.0821      17.3186        12.8149        16.888112    
      4800   307.67893     -43108.084      8537.6356      3739.8082      17.3186        12.8149        16.850831    
      4900   334.72741     -43138.156      10001.616      3731.5343      17.3186        12.8149        16.813551    
      5000   291.01008     -43113.456      12293.841      3723.2604      17.3186        12.8149        16.77627     
Loop time of 273.763 on 8 procs for 5000 steps with 371 atoms

Performance: 0.789 ns/day, 30.418 hours/ns, 18.264 timesteps/s, 6.776 katom-step/s
99.0% CPU use with 8 MPI tasks x 1 OpenMP threads

MPI task timing breakdown:
Section |  min time  |  avg time  |  max time  |%varavg| %total
---------------------------------------------------------------
Pair    | 178.67     | 214.23     | 230.87     | 134.4 | 78.26
Bond    | 0.001565   | 0.0020014  | 0.002562   |   0.8 |  0.00
Neigh   | 12.787     | 15.574     | 17.083     |  41.6 |  5.69
Comm    | 3.7831     | 20.44      | 55.976     | 434.9 |  7.47
Output  | 0.018409   | 0.020688   | 0.022994   |   1.1 |  0.01
Modify  | 21.853     | 23.384     | 26.208     |  34.2 |  8.54
Other   |            | 0.1069     |            |       |  0.04

Nlocal:         46.375 ave          51 max          42 min
Histogram: 1 0 1 1 2 0 1 1 0 1
Nghost:         3663.5 ave        3688 max        3645 min
Histogram: 4 0 0 0 0 0 0 2 1 1
Neighs:        32289.5 ave       35112 max       29463 min
Histogram: 1 0 1 1 2 0 1 0 1 1

Total # of neighbors = 258316
Ave neighs/atom = 696.26954
Ave special neighs/atom = 0
Neighbor list builds = 500
Dangerous builds not checked
OMP_NUM_THREADS environment is not set. Defaulting to 1 thread. (src/comm.cpp:98)
  using 1 OpenMP thread(s) per MPI task
Reading restart file ...
  restart file = 2 Aug 2023, LAMMPS = 2 Aug 2023
  restoring atom style full from restart
  triclinic box = (0 0 0) to (17.3186 12.8149 18.6403) with tilt (-8.851 0.4589 0.2054)
WARNING: Triclinic box skew is large. LAMMPS will run inefficiently. (src/domain.cpp:220)
  2 by 2 by 2 MPI processor grid
  pair style reaxff stores no restart info
  371 atoms
Finding 1-2 1-3 1-4 neighbors ...
  special bond factors lj:    0        0        0       
  special bond factors coul:  0        0        0       
     0 = max # of 1-2 neighbors
     0 = max # of 1-3 neighbors
     0 = max # of 1-4 neighbors
     1 = max # of special neighbors
  special bonds CPU = 0.000 seconds
  read_restart CPU = 0.003 seconds
*****Positive-deform 3 starts.*****
Resetting global fix info from restart file:
  fix style: nvt, fix ID: fnvt
All restart file global fix info was re-assigned
Neighbor list info ...
  update: every = 10 steps, delay = 0 steps, check = no
  max neighbors/atom: 2000, page size: 100000
  master list distance cutoff = 12
  ghost atom cutoff = 12
  binsize = 6, bins = 5 3 4
  2 neighbor lists, perpetual/occasional/extra = 2 0 0
  (1) pair reaxff, perpetual
      attributes: half, newton off, ghost
      pair build: half/bin/newtoff/ghost
      stencil: full/ghost/bin/3d
      bin: standard
  (2) fix qeq/reaxff, perpetual, copy from (1)
      attributes: half, newton off
      pair build: copy
      stencil: none
      bin: none
Setting up Verlet run ...
  Unit style    : real
  Current step  : 0
  Time step     : 0.5
Per MPI rank memory allocation (min/avg/max) = 131.2 | 132.1 | 132.9 Mbytes
   Step          Temp          PotEng         Press          Volume           Lx             Ly             Lz      
         0   311.88616     -43142.337     -4699.4104      4136.956       17.3186        12.8149        18.6403      
       100   294.96286     -43150.392      3005.7639      4145.2299      17.3186        12.8149        18.677581    
       200   288.0669      -43150.438     -4903.3346      4153.5038      17.3186        12.8149        18.714861    
       300   294.39856     -43154.754     -1365.4416      4161.7777      17.3186        12.8149        18.752142    
       400   293.03753     -43141.728     -5466.7663      4170.0516      17.3186        12.8149        18.789422    
       500   303.94822     -43141.767     -11316.553      4178.3256      17.3186        12.8149        18.826703    
       600   294.92862     -43137.932     -15350.852      4186.5995      17.3186        12.8149        18.863984    
       700   299.01775     -43146.314     -6391.3365      4194.8734      17.3186        12.8149        18.901264    
       800   288.68622     -43141.631     -8848.9193      4203.1473      17.3186        12.8149        18.938545    
       900   290.79261     -43154.354     -11773.877      4211.4212      17.3186        12.8149        18.975825    
      1000   266.17881     -43135.851     -2804.7177      4219.6951      17.3186        12.8149        19.013106    
      1100   304.08868     -43161.522      226.48323      4227.969       17.3186        12.8149        19.050387    
      1200   298.4743      -43123.654     -11691.121      4236.2429      17.3186        12.8149        19.087667    
      1300   315.98987     -43125.562     -13632.188      4244.5168      17.3186        12.8149        19.124948    
      1400   307.04908     -43137.045      7211.4589      4252.7908      17.3186        12.8149        19.162228    
      1500   291.41984     -43141.153     -979.98342      4261.0647      17.3186        12.8149        19.199509    
      1600   309.11935     -43150.375     -3221.5575      4269.3386      17.3186        12.8149        19.23679     
      1700   300.40482     -43132.623     -10635.564      4277.6125      17.3186        12.8149        19.27407     
      1800   289.01598     -43116.361     -351.32543      4285.8864      17.3186        12.8149        19.311351    
      1900   286.64888     -43130.146     -3301.896       4294.1603      17.3186        12.8149        19.348631    
      2000   300.39335     -43151.667     -13374.477      4302.4342      17.3186        12.8149        19.385912    
      2100   294.3246      -43140.753     -15162.368      4310.7081      17.3186        12.8149        19.423193    
      2200   307.7983      -43135.021     -10931.426      4318.9821      17.3186        12.8149        19.460473    
      2300   309.92046     -43111.569     -12814.825      4327.256       17.3186        12.8149        19.497754    
      2400   308.26647     -43095.847     -11705.969      4335.5299      17.3186        12.8149        19.535034    
      2500   302.97595     -43115.158     -10871.917      4343.8038      17.3186        12.8149        19.572315    
      2600   295.17349     -43117.835     -8530.6694      4352.0777      17.3186        12.8149        19.609596    
      2700   307.66098     -43121.089     -12627.202      4360.3516      17.3186        12.8149        19.646876    
      2800   285.82282     -43100.367     -17596.463      4368.6255      17.3186        12.8149        19.684157    
      2900   295.53939     -43101.124     -3444.9563      4376.8994      17.3186        12.8149        19.721437    
      3000   319.47424     -43103.453     -8202.3669      4385.1734      17.3186        12.8149        19.758718    
      3100   319.21712     -43090.495     -13647.1        4393.4473      17.3186        12.8149        19.795999    
      3200   305.16757     -43098.784     -10006.152      4401.7212      17.3186        12.8149        19.833279    
      3300   307.25053     -43108.039     -9900.577       4409.9951      17.3186        12.8149        19.87056     
      3400   302.79744     -43100.718     -7984.8222      4418.269       17.3186        12.8149        19.90784     
      3500   290.61914     -43094.544     -12486.025      4426.5429      17.3186        12.8149        19.945121    
      3600   294.22472     -43115.642     -11714.957      4434.8168      17.3186        12.8149        19.982402    
      3700   285.9597      -43111.161     -14094.246      4443.0907      17.3186        12.8149        20.019682    
      3800   309.98387     -43113.008     -23042.729      4451.3646      17.3186        12.8149        20.056963    
      3900   318.42445     -43082.213     -13417.383      4459.6386      17.3186        12.8149        20.094243    
      4000   297.49889     -43048.95      -17642.437      4467.9125      17.3186        12.8149        20.131524    
      4100   305.03798     -43071.888     -13612.139      4476.1864      17.3186        12.8149        20.168805    
      4200   312.2275      -43082.548     -11190.26       4484.4603      17.3186        12.8149        20.206085    
      4300   308.25982     -43078.394     -11445.542      4492.7342      17.3186        12.8149        20.243366    
      4400   299.55494     -43071.773     -15419.644      4501.0081      17.3186        12.8149        20.280646    
      4500   286.41967     -43073.964     -3715.5629      4509.282       17.3186        12.8149        20.317927    
      4600   275.74896     -43054.755     -18250.472      4517.5559      17.3186        12.8149        20.355208    
      4700   308.06562     -43039.112     -22148.699      4525.8299      17.3186        12.8149        20.392488    
      4800   325.82276     -43050.852     -5385.9469      4534.1038      17.3186        12.8149        20.429769    
      4900   302.79734     -43037.608     -18796.526      4542.3777      17.3186        12.8149        20.467049    
      5000   297.9209      -43046.25      -20910.286      4550.6516      17.3186        12.8149        20.50433     
Loop time of 240.334 on 8 procs for 5000 steps with 371 atoms

Performance: 0.899 ns/day, 26.704 hours/ns, 20.804 timesteps/s, 7.718 katom-step/s
98.8% CPU use with 8 MPI tasks x 1 OpenMP threads

MPI task timing breakdown:
Section |  min time  |  avg time  |  max time  |%varavg| %total
---------------------------------------------------------------
Pair    | 175.44     | 195.94     | 201.86     |  57.3 | 81.53
Bond    | 0.0014088  | 0.0020324  | 0.0025348  |   0.9 |  0.00
Neigh   | 12.54      | 13.732     | 14.15      |  14.2 |  5.71
Comm    | 3.7637     | 9.6718     | 30.21      | 258.2 |  4.02
Output  | 0.019231   | 0.022276   | 0.025238   |   1.3 |  0.01
Modify  | 20.428     | 20.85      | 22.011     |  11.4 |  8.68
Other   |            | 0.1119     |            |       |  0.05

Nlocal:         46.375 ave          57 max          39 min
Histogram: 2 0 1 2 0 1 0 1 0 1
Nghost:        3220.25 ave        3298 max        3164 min
Histogram: 1 1 3 0 0 0 1 0 1 1
Neighs:        26274.9 ave       31874 max       22644 min
Histogram: 2 1 1 1 0 1 0 1 0 1

Total # of neighbors = 210199
Ave neighs/atom = 566.57412
Ave special neighs/atom = 0
Neighbor list builds = 500
Dangerous builds not checked
OMP_NUM_THREADS environment is not set. Defaulting to 1 thread. (src/comm.cpp:98)
  using 1 OpenMP thread(s) per MPI task
Reading restart file ...
  restart file = 2 Aug 2023, LAMMPS = 2 Aug 2023
  restoring atom style full from restart
  triclinic box = (0 0 0) to (17.3186 12.8149 18.6403) with tilt (-8.851 0.4589 0.2054)
WARNING: Triclinic box skew is large. LAMMPS will run inefficiently. (src/domain.cpp:220)
  2 by 2 by 2 MPI processor grid
  pair style reaxff stores no restart info
  371 atoms
Finding 1-2 1-3 1-4 neighbors ...
  special bond factors lj:    0        0        0       
  special bond factors coul:  0        0        0       
     0 = max # of 1-2 neighbors
     0 = max # of 1-3 neighbors
     0 = max # of 1-4 neighbors
     1 = max # of special neighbors
  special bonds CPU = 0.000 seconds
  read_restart CPU = 0.003 seconds
*****debug*****
xy = -8.8510000000000008669, deltaxy = 0.8851
xz = 0.4588999999999999746, deltaxz = -0.04589
yz = 0.20539999999999999925, deltayz = -0.02054
*****
*****Negative-deform 4 starts.*****
Resetting global fix info from restart file:
  fix style: nvt, fix ID: fnvt
All restart file global fix info was re-assigned
Neighbor list info ...
  update: every = 10 steps, delay = 0 steps, check = no
  max neighbors/atom: 2000, page size: 100000
  master list distance cutoff = 12
  ghost atom cutoff = 12
  binsize = 6, bins = 5 3 4
  2 neighbor lists, perpetual/occasional/extra = 2 0 0
  (1) pair reaxff, perpetual
      attributes: half, newton off, ghost
      pair build: half/bin/newtoff/ghost
      stencil: full/ghost/bin/3d
      bin: standard
  (2) fix qeq/reaxff, perpetual, copy from (1)
      attributes: half, newton off
      pair build: copy
      stencil: none
      bin: none
Setting up Verlet run ...
  Unit style    : real
  Current step  : 0
  Time step     : 0.5
Per MPI rank memory allocation (min/avg/max) = 131.2 | 132.1 | 132.9 Mbytes
   Step          Temp          PotEng         Press          Volume           Lx             Ly             Lz      
         0   311.88616     -43142.337     -4699.4104      4136.956       17.3186        12.8149        18.6403      
       100   295.0705      -43149.941      3130.0975      4136.956       17.3186        12.8149        18.6403      
       200   281.95246     -43146.992     -1065.7111      4136.956       17.3186        12.8149        18.6403      
       300   291.62536     -43156.863      5629.83        4136.956       17.3186        12.8149        18.6403      
       400   316.31516     -43136.571     -5894.2894      4136.956       17.3186        12.8149        18.6403      
       500   308.05719     -43113.972     -9214.5177      4136.956       17.3186        12.8149        18.6403      
       600   308.43078     -43145.286     -10691.429      4136.956       17.3186        12.8149        18.6403      
       700   288.28788     -43134.754     -44.703756      4136.956       17.3186        12.8149        18.6403      
       800   298.83704     -43153.081     -6486.9663      4136.956       17.3186        12.8149        18.6403      
       900   299.95887     -43162.561     -5040.1537      4136.956       17.3186        12.8149        18.6403      
      1000   283.05323     -43165.197     -1344.8863      4136.956       17.3186        12.8149        18.6403      
      1100   285.44804     -43175.491     -6905.616       4136.956       17.3186        12.8149        18.6403      
      1200   301.12618     -43151.858     -1621.3102      4136.956       17.3186        12.8149        18.6403      
      1300   299.14145     -43140.367     -11533.027      4136.956       17.3186        12.8149        18.6403      
      1400   313.18668     -43156.589     -2330.6831      4136.956       17.3186        12.8149        18.6403      
      1500   285.33938     -43149.726     -20929.515      4136.956       17.3186        12.8149        18.6403      
      1600   282.25026     -43158.728      3956.153       4136.956       17.3186        12.8149        18.6403      
      1700   319.85741     -43182.267     -15454.644      4136.956       17.3186        12.8149        18.6403      
      1800   303.86331     -43151.199     -15478.446      4136.956       17.3186        12.8149        18.6403      
      1900   313.83947     -43159.256     -1281.1502      4136.956       17.3186        12.8149        18.6403      
      2000   291.30783     -43144.262     -4736.8926      4136.956       17.3186        12.8149        18.6403      
      2100   303.58886     -43175.31       11429.606      4136.956       17.3186        12.8149        18.6403      
      2200   281.56996     -43172.718     -7638.5885      4136.956       17.3186        12.8149        18.6403      
      2300   283.03606     -43173.246     -13249.39       4136.956       17.3186        12.8149        18.6403      
      2400   305.46902     -43176.643     -6933.6958      4136.956       17.3186        12.8149        18.6403      
      2500   325.39188     -43157.628     -7368.1722      4136.956       17.3186        12.8149        18.6403      
      2600   313.73489     -43141.782     -12546.618      4136.956       17.3186        12.8149        18.6403      
      2700   304.48113     -43157.579     -6359.1682      4136.956       17.3186        12.8149        18.6403      
      2800   298.89884     -43164.737     -7879.7163      4136.956       17.3186        12.8149        18.6403      
      2900   276.88476     -43151.217      8718.3267      4136.956       17.3186        12.8149        18.6403      
      3000   291.19222     -43166.32       7194.6743      4136.956       17.3186        12.8149        18.6403      
      3100   308.92496     -43175.31      -9121.3879      4136.956       17.3186        12.8149        18.6403      
      3200   305.33467     -43140.608     -5514.3041      4136.956       17.3186        12.8149        18.6403      
      3300   313.4124      -43131.614      1309.7057      4136.956       17.3186        12.8149        18.6403      
      3400   323.96962     -43159.889     -8715.9627      4136.956       17.3186        12.8149        18.6403      
      3500   307.24144     -43169.319     -3896.5871      4136.956       17.3186        12.8149        18.6403      
      3600   297.70433     -43164.715     -25033.905      4136.956       17.3186        12.8149        18.6403      
      3700   291.64456     -43167.006     -5630.4658      4136.956       17.3186        12.8149        18.6403      
      3800   292.31003     -43179.897      5624.0095      4136.956       17.3186        12.8149        18.6403      
      3900   289.83262     -43187.595      3572.6274      4136.956       17.3186        12.8149        18.6403      
      4000   287.60989     -43177.402     -4062.3101      4136.956       17.3186        12.8149        18.6403      
      4100   305.96048     -43175.386     -12565.695      4136.956       17.3186        12.8149        18.6403      
      4200   301.14957     -43143.174     -11027.618      4136.956       17.3186        12.8149        18.6403      
      4300   315.67783     -43150.102      1647.604       4136.956       17.3186        12.8149        18.6403      
      4400   296.19886     -43156.141     -12079.301      4136.956       17.3186        12.8149        18.6403      
      4500   290.00772     -43163.426      249.22672      4136.956       17.3186        12.8149        18.6403      
      4600   316.55913     -43190.101      7308.3337      4136.956       17.3186        12.8149        18.6403      
      4700   304.3207      -43177.463      1698.4731      4136.956       17.3186        12.8149        18.6403      
      4800   294.65393     -43174.602     -13369.586      4136.956       17.3186        12.8149        18.6403      
      4900   287.79177     -43183.271     -8507.2085      4136.956       17.3186        12.8149        18.6403      
      5000   275.3596      -43173.049     -481.92329      4136.956       17.3186        12.8149        18.6403      
Loop time of 254.882 on 8 procs for 5000 steps with 371 atoms

Performance: 0.847 ns/day, 28.320 hours/ns, 19.617 timesteps/s, 7.278 katom-step/s
98.9% CPU use with 8 MPI tasks x 1 OpenMP threads

MPI task timing breakdown:
Section |  min time  |  avg time  |  max time  |%varavg| %total
---------------------------------------------------------------
Pair    | 197.41     | 210.79     | 214.98     |  37.0 | 82.70
Bond    | 0.0013195  | 0.0020805  | 0.0026465  |   0.9 |  0.00
Neigh   | 13.812     | 14.817     | 15.284     |  11.0 |  5.81
Comm    | 4.0218     | 8.2336     | 21.641     | 187.6 |  3.23
Output  | 0.017571   | 0.020755   | 0.023584   |   1.4 |  0.01
Modify  | 20.409     | 20.906     | 21.896     |   9.3 |  8.20
Other   |            | 0.1158     |            |       |  0.05

Nlocal:         46.375 ave          52 max          39 min
Histogram: 2 0 1 0 0 0 0 2 1 2
Nghost:        3373.38 ave        3442 max        3314 min
Histogram: 3 0 1 0 0 0 0 2 1 1
Neighs:        28955.5 ave       32115 max       24506 min
Histogram: 2 0 1 0 0 0 0 1 2 2

Total # of neighbors = 231644
Ave neighs/atom = 624.37736
Ave special neighs/atom = 0
Neighbor list builds = 500
Dangerous builds not checked
OMP_NUM_THREADS environment is not set. Defaulting to 1 thread. (src/comm.cpp:98)
  using 1 OpenMP thread(s) per MPI task
Reading restart file ...
  restart file = 2 Aug 2023, LAMMPS = 2 Aug 2023
  restoring atom style full from restart
  triclinic box = (0 0 0) to (17.3186 12.8149 18.6403) with tilt (-8.851 0.4589 0.2054)
WARNING: Triclinic box skew is large. LAMMPS will run inefficiently. (src/domain.cpp:220)
  2 by 2 by 2 MPI processor grid
  pair style reaxff stores no restart info
  371 atoms
Finding 1-2 1-3 1-4 neighbors ...
  special bond factors lj:    0        0        0       
  special bond factors coul:  0        0        0       
     0 = max # of 1-2 neighbors
     0 = max # of 1-3 neighbors
     0 = max # of 1-4 neighbors
     1 = max # of special neighbors
  special bonds CPU = 0.002 seconds
  read_restart CPU = 0.008 seconds
*****Positive-deform 4 starts.*****
Resetting global fix info from restart file:
  fix style: nvt, fix ID: fnvt
All restart file global fix info was re-assigned
Neighbor list info ...
  update: every = 10 steps, delay = 0 steps, check = no
  max neighbors/atom: 2000, page size: 100000
  master list distance cutoff = 12
  ghost atom cutoff = 12
  binsize = 6, bins = 5 3 4
  2 neighbor lists, perpetual/occasional/extra = 2 0 0
  (1) pair reaxff, perpetual
      attributes: half, newton off, ghost
      pair build: half/bin/newtoff/ghost
      stencil: full/ghost/bin/3d
      bin: standard
  (2) fix qeq/reaxff, perpetual, copy from (1)
      attributes: half, newton off
      pair build: copy
      stencil: none
      bin: none
Setting up Verlet run ...
  Unit style    : real
  Current step  : 0
  Time step     : 0.5
Per MPI rank memory allocation (min/avg/max) = 131.3 | 132.1 | 132.9 Mbytes
   Step          Temp          PotEng         Press          Volume           Lx             Ly             Lz      
         0   311.88616     -43142.337     -4699.4104      4136.956       17.3186        12.8149        18.6403      
       100   295.1757      -43150.133      2913.2672      4136.956       17.3186        12.8149        18.6403      
       200   283.6326      -43149.814     -1148.6073      4136.956       17.3186        12.8149        18.6403      
       300   290.79404     -43154.674     -936.00433      4136.956       17.3186        12.8149        18.6403      
       400   311.39892     -43141.481     -3176.465       4136.956       17.3186        12.8149        18.6403      
       500   327.88109     -43136.524     -8060.5745      4136.956       17.3186        12.8149        18.6403      
       600   312.97946     -43143.113     -7627.3993      4136.956       17.3186        12.8149        18.6403      
       700   297.20301     -43146.149     -4916.9003      4136.956       17.3186        12.8149        18.6403      
       800   300.13409     -43154.535     -13446.302      4136.956       17.3186        12.8149        18.6403      
       900   295.98313     -43145.63      -7470.9735      4136.956       17.3186        12.8149        18.6403      
      1000   305.2259      -43135.632     -4370.6882      4136.956       17.3186        12.8149        18.6403      
      1100   318.51451     -43134.443     -13902.267      4136.956       17.3186        12.8149        18.6403      
      1200   305.15212     -43144.586     -9487.3442      4136.956       17.3186        12.8149        18.6403      
      1300   294.96237     -43163.476     -13398.287      4136.956       17.3186        12.8149        18.6403      
      1400   302.71227     -43167.316     -4901.0932      4136.956       17.3186        12.8149        18.6403      
      1500   297.63537     -43162.907     -124.83573      4136.956       17.3186        12.8149        18.6403      
      1600   288.67099     -43169.285     -10806.486      4136.956       17.3186        12.8149        18.6403      
      1700   274.54605     -43173.055     -11223.393      4136.956       17.3186        12.8149        18.6403      
      1800   284.8331      -43167.396     -13367.324      4136.956       17.3186        12.8149        18.6403      
      1900   306.94746     -43152.858     -10778.705      4136.956       17.3186        12.8149        18.6403      
      2000   311.21247     -43156.333     -12752.194      4136.956       17.3186        12.8149        18.6403      
      2100   293.8956      -43156.27      -5627.9155      4136.956       17.3186        12.8149        18.6403      
      2200   292.69361     -43162.331     -17376.353      4136.956       17.3186        12.8149        18.6403      
      2300   287.2478      -43145.581      1088.7044      4136.956       17.3186        12.8149        18.6403      
      2400   291.29015     -43114.857     -2534.2183      4136.956       17.3186        12.8149        18.6403      
      2500   317.6768      -43137.069     -14049.215      4136.956       17.3186        12.8149        18.6403      
      2600   310.2908      -43160.063      1880.8774      4136.956       17.3186        12.8149        18.6403      
      2700   291.75913     -43148.582      9524.5591      4136.956       17.3186        12.8149        18.6403      
      2800   298.69772     -43155.68      -6336.5367      4136.956       17.3186        12.8149        18.6403      
      2900   301.9264      -43149.883     -10053.498      4136.956       17.3186        12.8149        18.6403      
      3000   298.49758     -43158.665     -10659.692      4136.956       17.3186        12.8149        18.6403      
      3100   286.89157     -43165.629     -5482.8395      4136.956       17.3186        12.8149        18.6403      
      3200   293.785       -43166.521     -4337.3818      4136.956       17.3186        12.8149        18.6403      
      3300   304.6246      -43146.148     -13253.016      4136.956       17.3186        12.8149        18.6403      
[...]
      4700   333.05705     -43170.26      -4952.276       4136.956       17.3186        12.8149        18.6403      
      4800   319.2924      -43149.306     -9213.3287      4136.956       17.3186        12.8149        18.6403      
      4900   308.34061     -43166.5       -18156.065      4136.956       17.3186        12.8149        18.6403      
      5000   299.12241     -43171.83      -5150.4271      4136.956       17.3186        12.8149        18.6403      
Loop time of 249.24 on 8 procs for 5000 steps with 371 atoms

Performance: 0.867 ns/day, 27.693 hours/ns, 20.061 timesteps/s, 7.443 katom-step/s
98.9% CPU use with 8 MPI tasks x 1 OpenMP threads

MPI task timing breakdown:
Section |  min time  |  avg time  |  max time  |%varavg| %total
---------------------------------------------------------------
Pair    | 145.17     | 200.58     | 209.75     | 148.1 | 80.48
Bond    | 0.0014096  | 0.0020686  | 0.0025902  |   0.8 |  0.00
Neigh   | 9.8589     | 14.026     | 14.977     |  42.4 |  5.63
Comm    | 3.8524     | 13.031     | 68.469     | 581.3 |  5.23
Output  | 0.018854   | 0.021812   | 0.024478   |   1.3 |  0.01
Modify  | 20.471     | 21.461     | 25.621     |  34.3 |  8.61
Other   |            | 0.1167     |            |       |  0.05

Nlocal:         46.375 ave          53 max          36 min
Histogram: 1 1 0 0 1 0 2 0 0 3
Nghost:        3335.62 ave        3401 max        3292 min
Histogram: 1 2 0 2 1 0 0 1 0 1
Neighs:        29000.8 ave       33051 max       22583 min
Histogram: 1 0 1 0 1 0 2 0 0 3

Total # of neighbors = 232006
Ave neighs/atom = 625.3531
Ave special neighs/atom = 0
Neighbor list builds = 500
Dangerous builds not checked
OMP_NUM_THREADS environment is not set. Defaulting to 1 thread. (src/comm.cpp:98)
  using 1 OpenMP thread(s) per MPI task
Reading restart file ...
  restart file = 2 Aug 2023, LAMMPS = 2 Aug 2023
  restoring atom style full from restart
  triclinic box = (0 0 0) to (17.3186 12.8149 18.6403) with tilt (-8.851 0.4589 0.2054)
WARNING: Triclinic box skew is large. LAMMPS will run inefficiently. (src/domain.cpp:220)
  2 by 2 by 2 MPI processor grid
  pair style reaxff stores no restart info
  371 atoms
Finding 1-2 1-3 1-4 neighbors ...
  special bond factors lj:    0        0        0       
  special bond factors coul:  0        0        0       
     0 = max # of 1-2 neighbors
     0 = max # of 1-3 neighbors
     0 = max # of 1-4 neighbors
     1 = max # of special neighbors
  special bonds CPU = 0.000 seconds
  read_restart CPU = 0.004 seconds
*****debug*****
xy = -8.8510000000000008669, deltaxy = 0.8851
xz = 0.4588999999999999746, deltaxz = -0.04589
yz = 0.20539999999999999925, deltayz = -0.02054
*****
*****Negative-deform 6 starts.*****
Resetting global fix info from restart file:
  fix style: nvt, fix ID: fnvt
All restart file global fix info was re-assigned
Neighbor list info ...
  update: every = 10 steps, delay = 0 steps, check = no
  max neighbors/atom: 2000, page size: 100000
  master list distance cutoff = 12
  ghost atom cutoff = 12
  binsize = 6, bins = 5 3 4
  2 neighbor lists, perpetual/occasional/extra = 2 0 0
  (1) pair reaxff, perpetual
      attributes: half, newton off, ghost
      pair build: half/bin/newtoff/ghost
      stencil: full/ghost/bin/3d
      bin: standard
  (2) fix qeq/reaxff, perpetual, copy from (1)
      attributes: half, newton off
      pair build: copy
      stencil: none
      bin: none
Setting up Verlet run ...
  Unit style    : real
  Current step  : 0
  Time step     : 0.5
Per MPI rank memory allocation (min/avg/max) = 131.2 | 132.1 | 132.9 Mbytes
   Step          Temp          PotEng         Press          Volume           Lx             Ly             Lz      
         0   311.88616     -43142.337     -4699.4104      4136.956       17.3186        12.8149        18.6403      
       100   295.09051     -43149.944      3071.7304      4136.956       17.3186        12.8149        18.6403      
       200   288.80323     -43153.256     -3753.7147      4136.956       17.3186        12.8149        18.6403      
       300   294.20099     -43161.228      524.19196      4136.956       17.3186        12.8149        18.6403      
       400   302.6044      -43126.044      3229.6849      4136.956       17.3186        12.8149        18.6403      
       500   316.42822     -43121.815     -5115.3938      4136.956       17.3186        12.8149        18.6403      
       600   298.93505     -43130.118     -8476.6935      4136.956       17.3186        12.8149        18.6403      
       700   294.10028     -43136.881     -9533.1106      4136.956       17.3186        12.8149        18.6403      
       800   301.49977     -43158.148     -12173.253      4136.956       17.3186        12.8149        18.6403      
       900   306.77006     -43170.556     -2292.1761      4136.956       17.3186        12.8149        18.6403      
      1000   286.97035     -43165.724     -7339.6315      4136.956       17.3186        12.8149        18.6403      
      1100   272.54336     -43168.588     -890.91396      4136.956       17.3186        12.8149        18.6403      
      1200   292.87761     -43206.486     -6518.5475      4136.956       17.3186        12.8149        18.6403      
      1300   281.50936     -43188.98       2681.34        4136.956       17.3186        12.8149        18.6403      
      1400   301.52832     -43176.356     -7742.0218      4136.956       17.3186        12.8149        18.6403      
      1500   327.18375     -43184.824      483.48832      4136.956       17.3186        12.8149        18.6403      
      1600   300.3951      -43164.121     -4212.665       4136.956       17.3186        12.8149        18.6403      
      1700   306.07136     -43199.81       6804.0581      4136.956       17.3186        12.8149        18.6403      
      1800   287.99749     -43188.904     -7971.688       4136.956       17.3186        12.8149        18.6403      
      1900   286.59315     -43178.014     -6631.1312      4136.956       17.3186        12.8149        18.6403      
      2000   295.48851     -43171.64      -7754.1074      4136.956       17.3186        12.8149        18.6403      
      2100   299.70293     -43162.085     -8108.2495      4136.956       17.3186        12.8149        18.6403      
      2200   307.76388     -43169.392      1905.7964      4136.956       17.3186        12.8149        18.6403      
      2300   284.50069     -43176.635     -3374.4375      4136.956       17.3186        12.8149        18.6403      
      2400   300.5068      -43199.685      2521.0734      4136.956       17.3186        12.8149        18.6403      
      2500   282.40751     -43165.139      7522.2777      4136.956       17.3186        12.8149        18.6403      
      2600   299.77198     -43156.84      -2973.7382      4136.956       17.3186        12.8149        18.6403      
      2700   338.66955     -43179.631     -4992.8332      4136.956       17.3186        12.8149        18.6403      
      2800   299.45912     -43145.465      1391.6038      4136.956       17.3186        12.8149        18.6403      
      2900   308.89468     -43190.057      2581.6486      4136.956       17.3186        12.8149        18.6403      
      3000   310.06031     -43207.694      1777.7044      4136.956       17.3186        12.8149        18.6403      
      3100   301.15392     -43197.928      14523.025      4136.956       17.3186        12.8149        18.6403      
      3200   308.42333     -43190.769     -3791.081       4136.956       17.3186        12.8149        18.6403      
      3300   320.11969     -43178.898     -15659.864      4136.956       17.3186        12.8149        18.6403      
      3400   313.91892     -43152.441      7155.3672      4136.956       17.3186        12.8149        18.6403      
      3500   302.5664      -43147.803     -5507.4157      4136.956       17.3186        12.8149        18.6403      
      3600   302.75955     -43173.149      3227.8053      4136.956       17.3186        12.8149        18.6403      
      3700   290.20357     -43162.742     -4182.4907      4136.956       17.3186        12.8149        18.6403      
      3800   292.05382     -43165.047     -13141.261      4136.956       17.3186        12.8149        18.6403      
      3900   297.79087     -43165.955     -6430.074       4136.956       17.3186        12.8149        18.6403      
      4000   314.00261     -43148.584     -3150.0109      4136.956       17.3186        12.8149        18.6403      
      4100   329.0934      -43153.153      1759.7662      4136.956       17.3186        12.8149        18.6403      
      4200   294.53428     -43139.672     -3693.9637      4136.956       17.3186        12.8149        18.6403      
      4300   298.79545     -43162.803      863.56454      4136.956       17.3186        12.8149        18.6403      
      4400   289.709       -43152.742     -1715.2706      4136.956       17.3186        12.8149        18.6403      
      4500   273.23497     -43128.713     -5194.7386      4136.956       17.3186        12.8149        18.6403      
      4600   301.99045     -43131.163     -8561.7108      4136.956       17.3186        12.8149        18.6403      
      4700   330.27386     -43139.324     -3915.3845      4136.956       17.3186        12.8149        18.6403      
      4800   314.01997     -43143.133     -12379.618      4136.956       17.3186        12.8149        18.6403      
      4900   300.98305     -43135.72      -5722.9457      4136.956       17.3186        12.8149        18.6403      
      5000   311.37337     -43142.572     -1596.5706      4136.956       17.3186        12.8149        18.6403      
Loop time of 254.818 on 8 procs for 5000 steps with 371 atoms

Performance: 0.848 ns/day, 28.313 hours/ns, 19.622 timesteps/s, 7.280 katom-step/s
98.9% CPU use with 8 MPI tasks x 1 OpenMP threads

MPI task timing breakdown:
Section |  min time  |  avg time  |  max time  |%varavg| %total
---------------------------------------------------------------
Pair    | 146.8      | 201.32     | 215.15     | 152.4 | 79.01
Bond    | 0.0014     | 0.0019723  | 0.0024247  |   0.8 |  0.00
Neigh   | 10.418     | 14.461     | 15.594     |  43.2 |  5.68
Comm    | 2.8527     | 16.707     | 71.263     | 529.1 |  6.56
Output  | 0.019112   | 0.021823   | 0.024537   |   1.2 |  0.01
Modify  | 21.002     | 22.187     | 26.219     |  35.0 |  8.71
Other   |            | 0.1142     |            |       |  0.04

Nlocal:         46.375 ave          52 max          42 min
Histogram: 1 1 0 2 1 0 1 0 1 1
Nghost:           3582 ave        3615 max        3524 min
Histogram: 1 0 0 1 0 2 1 0 0 3
Neighs:          28990 ave       32442 max       26497 min
Histogram: 2 0 2 1 0 1 0 1 0 1

Total # of neighbors = 231920
Ave neighs/atom = 625.12129
Ave special neighs/atom = 0
Neighbor list builds = 500
Dangerous builds not checked
OMP_NUM_THREADS environment is not set. Defaulting to 1 thread. (src/comm.cpp:98)
  using 1 OpenMP thread(s) per MPI task
Reading restart file ...
  restart file = 2 Aug 2023, LAMMPS = 2 Aug 2023
  restoring atom style full from restart
  triclinic box = (0 0 0) to (17.3186 12.8149 18.6403) with tilt (-8.851 0.4589 0.2054)
WARNING: Triclinic box skew is large. LAMMPS will run inefficiently. (src/domain.cpp:220)
  2 by 2 by 2 MPI processor grid
  pair style reaxff stores no restart info
  371 atoms
Finding 1-2 1-3 1-4 neighbors ...
  special bond factors lj:    0        0        0       
  special bond factors coul:  0        0        0       
     0 = max # of 1-2 neighbors
     0 = max # of 1-3 neighbors
     0 = max # of 1-4 neighbors
     1 = max # of special neighbors
  special bonds CPU = 0.000 seconds
  read_restart CPU = 0.003 seconds
*****Positive-deform 6 starts.*****
Resetting global fix info from restart file:
  fix style: nvt, fix ID: fnvt
All restart file global fix info was re-assigned
Neighbor list info ...
  update: every = 10 steps, delay = 0 steps, check = no
  max neighbors/atom: 2000, page size: 100000
  master list distance cutoff = 12
  ghost atom cutoff = 12
  binsize = 6, bins = 5 3 4
  2 neighbor lists, perpetual/occasional/extra = 2 0 0
  (1) pair reaxff, perpetual
      attributes: half, newton off, ghost
      pair build: half/bin/newtoff/ghost
      stencil: full/ghost/bin/3d
      bin: standard
  (2) fix qeq/reaxff, perpetual, copy from (1)
      attributes: half, newton off
      pair build: copy
      stencil: none
      bin: none
Setting up Verlet run ...
  Unit style    : real
  Current step  : 0
  Time step     : 0.5
Per MPI rank memory allocation (min/avg/max) = 131.3 | 132.1 | 132.9 Mbytes
   Step          Temp          PotEng         Press          Volume           Lx             Ly             Lz      
         0   311.88616     -43142.337     -4699.4104      4136.956       17.3186        12.8149        18.6403      
       100   295.13149     -43150          2963.3707      4136.956       17.3186        12.8149        18.6403      
       200   288.81563     -43155.634      2583.5167      4136.956       17.3186        12.8149        18.6403      
       300   292.02637     -43153.826      263.92798      4136.956       17.3186        12.8149        18.6403      
       400   316.64971     -43143.422      313.57023      4136.956       17.3186        12.8149        18.6403      
       500   320.91998     -43119.704     -15733.901      4136.956       17.3186        12.8149        18.6403      
       600   303.8891      -43123.121     -11115.664      4136.956       17.3186        12.8149        18.6403      
       700   294.74875     -43135.508     -5100.9825      4136.956       17.3186        12.8149        18.6403      
       800   278.1404      -43127.818     -18496.217      4136.956       17.3186        12.8149        18.6403      
       900   294.36836     -43141.311     -372.6624       4136.956       17.3186        12.8149        18.6403      
      1000   309.94634     -43151.801     -14923.58       4136.956       17.3186        12.8149        18.6403      
      1100   314.51672     -43136.283     -4987.9528      4136.956       17.3186        12.8149        18.6403      
      1200   315.66012     -43130.473      1994.8271      4136.956       17.3186        12.8149        18.6403      
      1300   300.3418      -43140.756      542.19707      4136.956       17.3186        12.8149        18.6403      
      1400   289.97613     -43143.282     -11829.331      4136.956       17.3186        12.8149        18.6403      
      1500   296.93564     -43148.417     -5832.3204      4136.956       17.3186        12.8149        18.6403      
      1600   301.2252      -43152.707     -16493.948      4136.956       17.3186        12.8149        18.6403      
      1700   280.8903      -43147.442     -10469.864      4136.956       17.3186        12.8149        18.6403      
      1800   301.19694     -43184.958     -3615.2414      4136.956       17.3186        12.8149        18.6403      
      1900   280.8341      -43160.345     -6875.0587      4136.956       17.3186        12.8149        18.6403      
      2000   304.04228     -43138.346      3848.4241      4136.956       17.3186        12.8149        18.6403      
      2100   304.18515     -43124.759     -17714.993      4136.956       17.3186        12.8149        18.6403      
      2200   288.16113     -43120.647     -2109.988       4136.956       17.3186        12.8149        18.6403      
      2300   311.50523     -43163.496     -13221.657      4136.956       17.3186        12.8149        18.6403      
      2400   288.85267     -43139.638     -5265.218       4136.956       17.3186        12.8149        18.6403      
      2500   319.50477     -43159.649     -15974.768      4136.956       17.3186        12.8149        18.6403      
      2600   324.68311     -43137.792     -16156.814      4136.956       17.3186        12.8149        18.6403      
      2700   323.49721     -43088.405     -729.35347      4136.956       17.3186        12.8149        18.6403      
      2800   319.90797     -43115.727     -8047.09        4136.956       17.3186        12.8149        18.6403      
      2900   308.02616     -43120.656     -11639.855      4136.956       17.3186        12.8149        18.6403      
      3000   290.62101     -43125.774     -13895.199      4136.956       17.3186        12.8149        18.6403      
      3100   285.27772     -43131.571     -7001.2013      4136.956       17.3186        12.8149        18.6403      
      3200   285.30329     -43132.682     -7291.8382      4136.956       17.3186        12.8149        18.6403      
      3300   308.70167     -43134.974     -21952.96       4136.956       17.3186        12.8149        18.6403      
      3400   289.44647     -43075.968     -1942.7481      4136.956       17.3186        12.8149        18.6403      
      3500   318.41409     -43100.139     -4942.475       4136.956       17.3186        12.8149        18.6403      
      3600   306.63999     -43109.383     -5100.6292      4136.956       17.3186        12.8149        18.6403      
      3700   307.25171     -43118.629     -1550.8134      4136.956       17.3186        12.8149        18.6403      
      3800   306.73996     -43123.15      -13187.048      4136.956       17.3186        12.8149        18.6403      
      3900   283.46281     -43107.899     -7377.1922      4136.956       17.3186        12.8149        18.6403      
      4000   292.11315     -43120.788     -15215.866      4136.956       17.3186        12.8149        18.6403      
      4100   274.43051     -43117.661     -9490.289       4136.956       17.3186        12.8149        18.6403      
      4200   291.62184     -43137.213     -5390.8541      4136.956       17.3186        12.8149        18.6403      
      4300   281.99064     -43088.174     -16727.097      4136.956       17.3186        12.8149        18.6403      
      4400   304.41076     -43083.145     -16714.104      4136.956       17.3186        12.8149        18.6403      
      4500   318.96205     -43096.634     -18469.241      4136.956       17.3186        12.8149        18.6403      
      4600   300.40746     -43099.948     -12784.3        4136.956       17.3186        12.8149        18.6403      
      4700   281.4499      -43094.408     -10046.474      4136.956       17.3186        12.8149        18.6403      
      4800   284.45778     -43094.604     -11658.012      4136.956       17.3186        12.8149        18.6403      
      4900   293.53082     -43091.962     -9544.1272      4136.956       17.3186        12.8149        18.6403      
      5000   298.6096      -43081.649     -11737.761      4136.956       17.3186        12.8149        18.6403      
Loop time of 194.008 on 8 procs for 5000 steps with 371 atoms

Performance: 1.113 ns/day, 21.556 hours/ns, 25.772 timesteps/s, 9.561 katom-step/s
98.8% CPU use with 8 MPI tasks x 1 OpenMP threads

MPI task timing breakdown:
Section |  min time  |  avg time  |  max time  |%varavg| %total
---------------------------------------------------------------
Pair    | 126.93     | 149.16     | 160.25     | 100.2 | 76.88
Bond    | 0.0011973  | 0.0015307  | 0.0019959  |   0.8 |  0.00
Neigh   | 9.4571     | 11.136     | 12.093     |  29.7 |  5.74
Comm    | 3.6452     | 14.733     | 36.971     | 318.8 |  7.59
Output  | 0.013151   | 0.014947   | 0.016575   |   0.9 |  0.01
Modify  | 17.909     | 18.865     | 20.542     |  23.0 |  9.72
Other   |            | 0.09916    |            |       |  0.05

Nlocal:         46.375 ave          55 max          39 min
Histogram: 2 1 1 0 0 1 1 0 0 2
Nghost:        3200.25 ave        3270 max        3145 min
Histogram: 2 1 0 1 0 2 0 0 1 1
Neighs:        28963.5 ave       33981 max       24602 min
Histogram: 2 1 1 0 0 1 1 0 0 2

Total # of neighbors = 231708
Ave neighs/atom = 624.54987
Ave special neighs/atom = 0
Neighbor list builds = 500
Dangerous builds not checked
Total wall time: 0:54:07
