ITEM: TIMESTEP
0
ITEM: NUMBER OF ATOMS
274
ITEM: BOX BOUNDS xy xz yz pp pp pp
-7.8103479964674580e+00 1.6107556389490025e+01 -8.2040415267999762e+00
1.1575009082220096e-01 1.2717076734416871e+01 -3.1765008017753682e-01
1.5947396079707854e-01 1.5916026039202713e+01 -9.1731747610414409e-03
ITEM: ATOMS id type x y z
225 2 5.57744 3.16979 2.86372
111 2 2.2348 0.283784 4.5774
9 4 -0.0352629 3.8649 1.69959
62 3 -0.0197514 4.95201 6.39148
112 2 -1.39251 4.55679 0.976265
12 4 -1.05481 5.77701 5.6174
58 3 -0.414159 2.99015 2.92515
246 2 3.18453 2.79645 0.211739
80 3 4.48772 3.15608 8.00734
7 4 1.00075 1.03073 5.70661
10 4 0.731973 3.96593 7.34234
59 3 0.440421 2.92972 0.520698
61 3 1.57103 2.50454 6.18581
78 3 0.852408 5.03685 2.18984
28 4 3.67877 5.51845 4.57377
82 3 2.08921 4.64176 8.01864
143 2 2.90811 3.97616 1.90076
26 4 3.5134 3.46216 6.72342
44 1 4.03298 3.78224 1.71572
221 1 6.46815 2.77712 3.49629
243 2 3.28088 1.20899 3.41976
222 3 5.05247 0.336287 0.580775
113 2 -2.2202 4.71291 5.04905
85 3 3.85398 5.0553 6.09223
81 3 4.24897 2.3066 5.43809
25 4 0.982265 6.3101 3.40037
84 3 2.22106 5.83214 4.2705
244 2 6.90405 1.4526 2.14102
141 2 4.38966 4.25685 3.57312
24 4 4.57916 4.9896 0.539991
142 2 4.24505 2.68923 1.37166
118 2 6.04028 1.08597 3.6376
21 4 5.76042 2.02765 5.2155
242 1 3.2906 0.125647 2.98484
74 3 6.67523 1.24081 6.51601
249 1 -2.18873 6.28165 0.415666
223 2 3.98459 0.260936 1.99572
55 3 1.12596 0.374559 1.18558
228 2 0.620418 6.23791 0.25713
256 2 7.99748 0.472801 3.32455
41 1 0.743385 0.122676 7.21729
178 4 -3.0217 6.12335 14.2799
65 3 -2.42577 5.44002 9.43911
250 2 -1.33166 5.66173 14.9469
60 3 -0.320008 3.27527 8.34134
13 4 0.344934 4.26529 12.1783
63 3 -0.542218 3.07241 12.7325
66 3 -0.437372 5.27898 11.2569
14 4 -1.07211 6.25786 10.1991
57 3 0.204783 1.49735 9.94067
76 3 6.18555 0.882919 11.581
136 2 3.0888 0.161378 11.731
75 3 5.45144 3.14885 10.5015
8 4 1.73974 2.03478 10.7497
64 3 1.55941 3.60193 11.5564
73 3 3.0848 1.98553 9.91673
114 2 0.986111 5.22517 13.5487
245 1 2.37883 2.09875 15.07
247 2 2.24062 2.70723 14.1151
227 3 2.9454 5.59402 15.5578
138 2 2.2186 1.25028 13.2198
226 4 1.67076 6.20925 14.8993
42 1 2.11697 0.717939 12.0587
248 2 2.83765 1.08808 14.8629
20 4 4.48724 2.3392 9.32171
124 2 3.72505 4.8251 11.6111
117 2 5.15047 0.807907 8.85906
135 2 0.329699 0.710692 8.07387
5 4 0.706172 1.49179 15.8318
220 4 -1.74233 12.5504 1.20828
265 2 -4.29074 11.9601 3.64496
47 1 1.68699 10.1113 1.47521
266 2 -1.47436 6.5949 1.17898
91 3 -1.85002 9.26501 7.9789
133 2 -6.44878 12.2741 7.51951
16 4 -2.73045 8.16128 7.17028
17 4 -4.08039 10.4236 5.79796
70 3 -3.6989 8.93964 5.93944
90 3 -3.14942 10.9652 4.61035
115 2 -3.63682 11.3424 7.14095
31 4 -1.87321 10.455 3.55787
152 2 -2.94001 8.98636 1.76018
48 1 -2.57994 8.81674 2.82871
153 2 -3.50032 8.61353 3.48955
69 3 -5.72199 10.6679 5.58528
1 4 -6.35 11.8044 2.06835
3 3 -5.49807 10.7473 1.05609
68 3 -1.79054 6.90554 6.45316
89 3 -1.73241 11.3431 2.19317
125 2 1.5474 10.5297 0.416011
151 2 -1.86508 8.01743 2.97446
93 3 -0.597288 10.0693 4.43315
94 3 -0.0687592 11.4884 6.64076
271 2 -1.02854 8.93761 1.58787
19 4 -0.840874 12.6595 7.39186
30 4 0.626853 8.54888 1.35721
33 4 0.415952 10.2506 5.79651
87 3 1.27825 7.73674 2.61234
149 2 0.521738 8.79397 6.97874
272 2 1.09968 10.7237 2.28034
147 2 1.91225 6.9865 6.18683
46 1 1.83841 7.71311 7.04918
148 2 2.78477 8.3355 7.37351
79 3 -0.406498 6.42661 4.25615
160 2 -0.512539 10.2397 14.4935
95 3 2.20804 7.52546 12.2533
71 3 -2.99461 7.09373 13.0694
92 3 -2.56106 11.9336 8.28042
128 2 0.340967 10.1387 12.84
34 4 1.83792 9.53395 12.1087
67 3 -3.90573 7.45208 8.31353
98 3 -3.92676 9.91713 14.6695
35 4 -2.70059 10.1838 13.7025
96 3 -3.00242 9.57019 11.8148
127 2 -2.55161 10.2215 10.4589
15 4 -5.47214 9.89328 15.4022
139 2 -5.86202 10.6871 13.1007
18 4 -2.99451 7.99286 11.7256
162 2 -1.48964 8.8337 15.2548
97 3 -2.18019 11.6471 13.5308
50 1 0.64777 9.9595 10.9007
32 4 -1.87041 10.5656 8.85586
83 3 0.153853 6.56726 9.02868
22 4 -1.22942 12.4984 12.5403
88 3 0.583986 7.72921 15.6751
126 2 -0.220503 10.8812 9.48508
161 2 -0.526114 8.60757 13.6447
51 1 -1.13419 9.3319 14.3401
120 2 -0.135419 11.449 11.5654
72 3 -1.56114 7.58424 10.8181
159 2 -0.0492427 9.09872 10.7387
29 4 3.09155 6.83286 11.1507
86 3 2.73116 7.10175 9.66982
27 4 1.58183 6.6193 8.48181
229 2 2.07377 7.49461 13.8015
198 2 -0.641628 12.199 15.8119
158 2 1.46207 10.1466 9.97679
195 2 -3.28242 12.3335 15.445
137 2 -7.0101 12.6248 11.9854
193 2 -3.48174 7.49647 15.7777
270 2 6.49096 3.76956 4.93175
224 2 7.5021 2.9463 3.00523
171 2 7.5193 4.12002 7.11031
231 1 12.5774 2.33353 0.232241
119 2 9.26164 1.63955 4.07185
254 1 9.08016 0.656134 3.55228
255 2 9.61472 0.660367 2.48294
169 2 8.47674 4.63693 5.48469
54 1 8.36673 4.78848 6.56368
39 4 10.0444 3.85931 7.06043
273 2 9.36183 1.21539 1.24961
184 1 9.41574 0.612108 0.234125
129 2 10.936 1.11249 4.15822
170 2 8.40711 6.00536 6.89579
4 4 14.1435 2.00951 3.82654
37 4 11.6353 2.06273 5.40939
101 3 12.9677 3.09481 4.78017
102 3 11.9846 1.15054 6.58034
106 3 10.3863 3.0251 5.7029
232 3 13.1969 1.06274 2.81802
56 3 15.0407 1.13232 4.87719
230 4 12.628 0.805654 1.38294
207 4 12.4656 0.475328 7.93133
234 2 12.329 3.22152 0.9833
233 2 10.9502 1.29547 1.23016
107 3 11.1924 4.97968 7.42017
103 3 5.57636 6.28124 1.56138
267 2 12.5374 5.48222 0.80283
260 2 7.071 5.48825 7.90255
99 3 8.04147 0.627452 8.6475
258 1 6.31365 5.87875 8.75172
261 2 6.0478 4.98953 9.41661
11 4 11.605 5.83775 8.77985
100 3 8.20704 2.53674 10.5433
121 2 6.79652 3.36318 12.7897
179 4 6.95315 3.97178 14.4877
188 3 7.79832 2.96636 15.2893
183 1 7.91529 5.62206 14.4533
194 2 7.6545 5.29998 10.1714
196 2 7.74599 5.99643 13.3912
145 2 5.32494 6.16988 10.7855
77 3 5.42784 4.27314 15.1025
191 3 10.287 5.581 9.87115
6 4 14.3504 2.37509 9.35489
36 4 8.94414 1.78647 9.33016
180 4 8.79306 1.61377 14.5293
192 3 9.45981 4.66299 12.3048
187 3 7.90689 0.682847 13.582
182 4 9.15649 5.58056 10.9557
144 2 8.99043 5.45224 14.7093
164 2 10.0739 1.21567 11.3526
45 1 4.50809 6.02435 11.6226
105 3 9.62405 2.78939 8.25722
52 1 10.4219 0.849033 10.3132
259 2 11.5382 2.33223 15.136
189 3 10.4009 2.43723 13.7285
200 2 12.292 2.34144 11.757
197 2 7.25855 6.12275 15.2524
235 2 13.368 2.19858 15.5896
181 4 10.6705 3.86022 13.0018
190 3 11.5701 4.78378 14.1483
172 4 14.3829 1.54252 13.1566
174 2 12.5273 1.65136 13.6304
175 2 12.1021 0.676404 11.4307
177 2 14.5211 0.349626 11.5579
185 1 11.8459 3.49783 11.5581
201 2 12.6545 4.32971 11.8569
202 2 11.4513 3.63821 10.5236
263 3 13.123 1.50508 8.92287
173 1 12.9724 0.525114 12.2667
165 2 11.3721 1.3757 10.0482
262 3 15.2124 0.833695 14.2801
23 4 6.70602 2.52891 11.2657
122 2 5.35758 6.28319 8.27799
110 2 13.6621 3.2394 10.6739
146 2 4.87161 6.36233 12.656
210 1 8.65408 7.83622 7.6923
257 2 1.24886 12.3469 4.177
213 2 9.4861 8.28663 4.84944
49 1 2.1416 10.7282 5.18437
150 2 2.89425 9.85806 1.73765
154 2 2.23607 11.6907 5.91834
155 2 2.37097 10.8963 4.09688
253 2 10.3315 8.00912 0.935837
166 2 3.5194 8.06009 1.93164
156 2 2.69006 9.76693 5.63108
104 3 4.70104 6.68064 4.17871
240 2 4.03275 9.11103 0.542562
238 3 4.66361 11.9158 0.747334
239 2 6.5264 10.0623 1.96482
38 4 5.08702 7.3569 2.60373
167 2 6.31411 8.73191 2.98206
168 2 7.72073 7.63305 5.07506
208 4 6.57213 11.2224 7.0612
211 3 6.81852 10.5212 5.67217
212 3 5.16748 11.7432 7.51549
241 2 4.2575 10.0382 2.93506
237 1 4.77897 9.36656 2.22783
236 4 5.31193 10.4461 0.668832
216 2 8.58617 7.93687 6.47919
130 2 8.33406 8.21354 3.39303
53 1 8.40275 8.31842 4.47279
2 3 8.34586 11.048 3.30747
206 4 8.24671 10.2254 4.68559
274 2 9.70636 7.67077 8.01793
134 2 6.00043 8.96767 7.81245
268 2 8.58519 8.00651 0.162457
199 2 1.88329 12.6697 15.6865
203 2 9.37993 8.20735 10.5514
186 1 9.03841 7.45442 11.3737
123 2 5.63158 10.1353 9.17403
108 3 3.10495 10.3402 12.3798
176 2 4.17494 12.3592 13.8867
218 2 7.84943 7.07517 8.09813
252 2 9.67054 7.42262 14.8707
204 2 9.47266 7.58293 12.4235
43 1 8.79036 10.6389 13.9973
40 4 4.46414 11.0109 12.7166
140 2 8.20702 11.597 14.1913
217 2 7.73315 10.499 8.46693
209 1 6.50498 9.54597 8.70084
157 2 6.91818 8.75877 9.43809
131 2 5.12941 11.6066 11.1603
251 1 9.36382 8.08132 15.7227
269 2 8.12691 9.75552 13.8495
264 2 5.7747 10.1627 14.7954
205 2 7.89131 7.50071 11.468
109 3 6.00966 9.85836 13.4102
132 2 5.47367 9.04208 13.1662
116 2 10.9706 7.64247 10.856
214 2 2.80367 12.5619 8.64591
215 2 6.77493 6.73467 9.43516
163 2 2.3068 12.344 10.3122
219 2 8.47301 8.82743 8.13802
ITEM: TIMESTEP
100
ITEM: NUMBER OF ATOMS
274
ITEM: BOX BOUNDS xy xz yz pp pp pp
-7.8103479964674580e+00 1.6107556389490025e+01 -8.2040415267999762e+00
1.1575467740958079e-01 1.2710780657682454e+01 -3.1765008017753682e-01
1.5947396079707854e-01 1.5916026039202713e+01 -9.1685881736616182e-03
ITEM: ATOMS id type x y z
225 2 5.59574 2.95038 2.79994
111 2 2.2476 0.348978 4.44965
9 4 -0.0781087 3.90807 1.72872
62 3 0.0860002 5.06286 6.35667
112 2 -1.57665 4.67102 1.22253
12 4 -1.01179 5.84058 5.53837
58 3 -0.377849 3.00574 2.99322
242 1 3.15244 0.437098 2.71612
80 3 4.31858 3.26075 8.01954
7 4 1.09167 1.05924 5.6608
10 4 0.622529 3.95996 7.28004
59 3 0.494397 3.10454 0.493033
61 3 1.75933 2.53881 6.13916
78 3 0.948088 5.08666 2.13807
28 4 3.7184 5.6366 4.53005
246 2 3.29887 2.55704 0.24045
143 2 2.87336 3.76443 1.35395
26 4 3.52802 3.60765 6.7287
44 1 3.99892 3.69283 1.76411
221 1 6.46303 2.47802 3.36086
243 2 2.55703 1.39181 2.95604
222 3 5.31114 0.591225 0.618118
113 2 -2.07475 4.56425 5.26072
85 3 3.93121 4.98744 5.94673
81 3 4.55711 2.37468 5.61137
25 4 0.965814 6.30827 3.29111
84 3 2.23226 6.16639 4.26023
244 2 7.2441 1.4884 1.85148
141 2 3.99252 4.25371 3.31331
24 4 4.69877 4.99688 0.611967
142 2 4.37377 2.63504 1.57025
118 2 6.14767 0.881843 3.59104
21 4 5.9953 2.02654 5.27097
256 2 8.10282 0.408678 3.49479
74 3 6.92427 1.29773 6.27352
249 1 -2.45986 6.31328 0.612347
223 2 3.9994 0.635688 1.91943
55 3 1.06171 0.432026 1.33303
228 2 0.700082 6.33148 0.343027
79 3 -0.597842 6.3818 4.0846
178 4 -3.1328 6.05859 14.3602
65 3 -2.43138 5.28585 9.44572
250 2 -1.55583 5.589 15.2704
60 3 -0.305116 3.18379 8.28783
13 4 0.295909 4.18427 12.2249
63 3 -0.64381 3.02685 12.7575
66 3 -0.458534 5.14667 11.2477
14 4 -1.22333 6.12714 10.1533
57 3 0.253367 1.34769 10.1267
76 3 6.32007 0.968771 11.4955
5 4 0.670047 1.6151 15.8033
75 3 5.41976 3.16797 10.3039
8 4 1.73231 1.95078 10.8155
64 3 1.57143 3.56157 11.6189
73 3 3.02482 1.85663 9.94067
114 2 0.959777 5.19298 13.5827
245 1 2.47669 1.7912 15.186
247 2 2.34233 2.25255 14.0854
227 3 2.98739 5.57492 15.5223
138 2 2.10966 1.01728 13.3162
226 4 1.70156 6.1214 14.9373
42 1 2.01675 0.625688 12.2275
248 2 2.95858 0.703 15.2056
20 4 4.37182 2.25619 9.25028
124 2 3.72404 4.90142 11.973
117 2 5.05717 0.76203 8.67488
262 3 -0.138394 1.03556 14.5309
82 3 1.91334 4.49297 8.04827
23 4 6.58364 2.55342 11.2092
135 2 0.786522 0.336399 8.16196
220 4 -1.577 12.52 1.24673
265 2 -4.71986 12.3933 3.61442
148 2 2.72313 8.0293 7.31776
266 2 -2.01596 7.06196 1.36548
91 3 -1.87725 9.35125 7.88031
133 2 -6.17656 11.9636 6.91802
16 4 -2.66837 8.07408 7.06086
17 4 -4.03424 10.3393 5.74646
70 3 -3.72446 8.76129 5.99795
90 3 -3.16682 11.0221 4.60812
115 2 -3.64081 11.2493 7.16574
31 4 -1.88395 10.4794 3.63351
152 2 -2.61006 8.92937 1.64388
48 1 -2.40564 8.82468 2.7687
153 2 -3.38027 8.68681 3.40638
69 3 -5.62915 10.4653 5.39282
1 4 -6.39041 11.8043 2.04413
3 3 -5.74787 10.8257 0.878878
68 3 -1.72998 6.97524 6.34988
89 3 -1.74732 11.4853 2.41039
41 1 -7.25035 12.536 7.1034
151 2 -1.55825 7.9935 3.02467
93 3 -0.574831 10.2644 4.4529
94 3 0.0462626 11.5581 6.69773
271 2 -0.967367 8.9668 1.45705
19 4 -0.772815 12.6643 7.42747
30 4 0.782203 8.69707 1.35466
33 4 0.458434 10.3521 5.79558
87 3 1.16578 7.73489 2.54756
149 2 0.49787 8.7793 6.94271
272 2 1.28784 10.8591 2.10979
147 2 1.72332 6.91038 6.1767
46 1 1.70405 7.575 7.05054
160 2 -0.81052 9.60608 15.1877
95 3 2.00603 7.50535 12.3635
71 3 -2.90743 6.99889 13.1103
92 3 -2.54969 11.9281 8.23735
128 2 0.417882 10.2337 12.9674
34 4 1.81813 9.4373 12.2975
67 3 -3.62101 7.42296 8.3196
98 3 -4.02351 10.0639 14.9679
35 4 -2.7777 10.1011 13.7861
96 3 -3.13196 9.49007 11.8951
127 2 -2.66853 10.1132 10.4274
15 4 -5.53677 9.86255 15.4402
139 2 -5.64199 9.84192 13.0733
18 4 -2.93703 7.88125 11.7415
162 2 -2.11665 8.3663 15.2742
97 3 -2.11775 11.6267 13.5412
50 1 0.637161 9.91729 11.0507
32 4 -1.92236 10.5471 8.902
83 3 0.142494 6.72084 9.07644
22 4 -1.18535 12.6118 12.6286
88 3 0.683736 7.75434 15.6415
126 2 -0.321626 10.7024 9.55301
161 2 -1.03203 8.37582 13.7606
51 1 -1.53014 9.02018 14.5628
120 2 -0.19829 11.44 11.7767
72 3 -1.59446 7.57749 10.777
159 2 -0.105524 9.01044 10.812
29 4 2.8567 6.70256 11.3243
86 3 2.70962 6.95858 9.6773
27 4 1.5474 6.47786 8.54683
229 2 1.89383 7.58566 14.0538
198 2 -0.615429 12.0351 15.7376
158 2 1.43537 10.0867 10.1361
195 2 -3.23887 12.3309 15.7378
137 2 -7.16243 12.5995 12.0555
193 2 -3.90514 7.15917 15.7773
140 2 -6.15032 11.5649 13.5564
136 2 -5.27914 12.5741 11.8878
270 2 6.91709 3.51626 4.81689
224 2 7.46695 2.70966 2.92374
171 2 7.49652 4.39029 6.47799
231 1 12.5326 2.25687 0.249789
119 2 9.33757 1.47599 4.39096
254 1 9.21587 0.593507 3.60402
255 2 9.70216 0.908607 2.62411
169 2 8.63986 5.03152 5.17995
54 1 8.42628 4.98053 6.33462
39 4 9.89847 3.98295 6.94567
273 2 9.27324 0.969996 1.33387
184 1 9.27181 0.454173 0.299296
129 2 11.1468 1.02605 3.95449
170 2 8.46905 6.05728 6.81597
4 4 14.2237 1.96188 3.87914
37 4 11.6711 2.12278 5.19891
101 3 12.8094 3.06507 4.6358
102 3 12.0905 1.3013 6.49714
106 3 10.2611 3.0824 5.5284
232 3 13.1585 1.09048 2.84598
56 3 15.0752 1.17642 4.91859
230 4 12.4975 0.813463 1.37802
207 4 12.5255 0.598943 7.81113
234 2 12.45 3.12106 0.946894
233 2 10.8221 1.30459 1.19287
107 3 11.1505 4.96595 7.38726
103 3 5.43886 6.24149 1.50417
260 2 7.08536 5.34143 7.86839
267 2 12.4185 5.46149 1.15888
99 3 8.24843 0.604596 8.64133
258 1 6.33152 5.72899 8.70468
261 2 6.05391 4.80289 9.31612
11 4 11.546 5.76333 8.73337
100 3 7.9774 2.69204 10.3491
121 2 6.73478 3.31165 12.8584
179 4 6.87088 4.01786 14.5613
188 3 7.81778 3.01084 15.3236
183 1 7.83276 5.55542 14.7945
194 2 7.60638 5.15257 10.102
196 2 7.58159 5.86781 13.5355
145 2 5.2639 6.33677 11.2422
77 3 5.41614 4.36924 15.2738
191 3 10.2551 5.77319 9.82207
6 4 14.4956 2.24793 9.40412
36 4 8.93202 1.91339 9.28521
180 4 8.76149 1.66642 14.7081
192 3 9.46656 4.59712 12.1366
187 3 7.96312 0.912163 13.5149
182 4 9.08209 5.55347 10.8703
144 2 8.89198 5.21154 15.0084
164 2 10.0671 1.50266 11.2714
45 1 4.417 6.27142 11.9739
105 3 9.53814 2.97865 8.21162
52 1 10.4162 1.00459 10.2476
259 2 11.4608 2.2626 15.0554
189 3 10.3437 2.35992 13.8097
200 2 12.257 2.24663 11.812
197 2 7.34725 6.20955 15.5642
235 2 13.3261 2.17716 15.7297
181 4 10.6118 3.77771 12.9742
190 3 11.4904 4.74917 13.9839
172 4 14.4253 1.55453 13.2199
174 2 12.6089 1.49105 13.7386
175 2 11.9543 0.595987 11.6175
177 2 14.4399 0.439866 11.723
185 1 11.9326 3.35443 11.6324
201 2 12.7257 4.04831 12.0181
202 2 11.6167 3.59393 10.6018
263 3 13.3294 1.40968 8.85531
173 1 12.84 0.404993 12.3771
165 2 11.3653 1.46091 9.82901
122 2 5.40507 6.06288 8.20915
110 2 13.7088 3.15916 10.6675
210 1 8.52381 7.93901 7.6554
257 2 1.4213 12.2149 4.06789
213 2 9.22605 7.84501 5.0292
49 1 2.10048 10.5065 4.98647
150 2 2.9983 9.94055 1.6673
154 2 2.52453 11.5554 5.22878
155 2 2.08693 10.1592 3.9266
253 2 10.1487 7.73262 0.929495
166 2 3.63489 8.17487 1.92923
156 2 2.61736 9.67225 5.77457
104 3 4.81938 6.84133 4.25858
240 2 4.09635 9.03788 0.492237
238 3 4.46469 11.9536 0.697486
239 2 6.53069 10.2274 1.73384
38 4 5.14868 7.32938 2.62813
167 2 6.40122 8.70626 2.64224
168 2 7.2823 7.8992 4.68225
208 4 6.63022 11.089 7.1491
211 3 7.03526 10.351 5.87791
212 3 5.20194 11.9374 7.44791
241 2 4.51485 10.2102 2.9468
237 1 4.8701 9.41918 2.19114
236 4 5.1885 10.4949 0.553149
216 2 8.48681 8.12103 6.46321
130 2 8.61829 8.35489 3.22952
53 1 8.36441 8.26632 4.43552
2 3 8.24822 10.9069 3.27822
206 4 8.38686 10.1905 4.67167
274 2 9.6429 7.56824 7.8575
134 2 6.40743 8.76313 7.85255
125 2 1.8117 10.6319 0.288162
47 1 1.88319 10.21 1.3493
218 2 7.73054 7.15855 7.99066
163 2 2.24697 12.4473 10.2907
203 2 9.43449 7.9626 10.4977
186 1 8.99176 7.39045 11.3409
123 2 5.28331 10.0213 8.74056
108 3 3.18252 10.3013 12.464
176 2 4.08613 12.3264 13.9403
215 2 6.70515 6.57246 9.33279
252 2 9.67824 7.36395 14.9091
204 2 9.42529 7.73674 12.3098
43 1 9.05913 10.4726 13.7616
40 4 4.59138 10.9883 12.6716
219 2 8.33521 8.92073 8.20627
217 2 7.62353 10.5942 8.68084
209 1 6.29901 9.49434 8.70407
157 2 6.38228 8.8585 9.58255
131 2 5.1821 11.6625 11.1056
251 1 9.32736 8.01684 15.7428
269 2 7.87158 10.1997 13.7161
264 2 5.75204 10.1588 14.7962
205 2 7.7704 7.40447 11.2904
109 3 6.24117 9.97508 13.4229
132 2 5.79103 9.13486 13.0496
268 2 8.22687 7.98612 15.883
214 2 2.90658 12.6521 8.69028
146 2 4.51844 6.8559 12.98
116 2 10.9964 7.50704 11.0156
199 2 1.81919 12.5929 15.7652
ITEM: TIMESTEP
200
ITEM: NUMBER OF ATOMS
274
ITEM: BOX BOUNDS xy xz yz pp pp pp
3.9369353033251842e-01 2.3299727641670017e+01 7.1921712521799925e+00
1.1575926399696268e-01 1.2704484580948037e+01 -3.1765008017753682e-01
1.5947396079707854e-01 1.5916026039202713e+01 -9.1640015862797242e-03
ITEM: ATOMS id type x y z
225 2 5.71952 2.93181 2.92074
111 2 2.30162 0.308763 4.47408
170 2 8.54769 6.01921 6.62539
223 2 4.01338 0.358032 1.87311
74 3 6.8064 1.15013 6.3162
256 2 7.95611 0.328111 3.87083
21 4 6.01759 2.12694 5.4178
242 1 3.25573 0.196408 2.75505
7 4 1.10337 0.926563 5.56612
118 2 6.30272 1.07237 3.56969
142 2 4.89848 2.83389 1.2659
24 4 4.56845 5.03304 0.605979
141 2 4.33512 4.35072 3.48408
244 2 7.21823 1.53458 1.9419
81 3 4.51709 2.5059 5.58692
246 2 3.38368 2.37593 0.364895
143 2 3.07699 3.5525 1.9218
26 4 3.57414 3.49007 6.63498
44 1 4.21292 3.69442 1.72611
221 1 6.59772 2.42814 3.55539
243 2 2.72206 1.14746 3.0051
222 3 5.1986 0.607664 0.458145
85 3 3.97677 5.17466 6.10262
270 2 6.97957 3.60291 4.99919
224 2 7.57592 2.54319 2.99729
260 2 7.3004 5.37704 7.91598
28 4 3.86617 5.63472 4.608
171 2 7.33946 4.58527 6.50969
169 2 8.46109 4.99179 5.07536
54 1 8.34913 4.98132 6.20516
39 4 9.79477 3.90545 6.89142
80 3 4.15984 3.13728 8.04007
122 2 5.56147 6.14697 8.22082
23 4 6.52252 2.44358 11.3636
117 2 5.23254 0.829648 8.76182
124 2 3.85108 4.96696 12.3092
20 4 4.45096 2.25154 9.2905
248 2 2.86225 0.81412 15.136
42 1 2.16966 0.705589 12.2987
138 2 2.32519 1.19954 13.3963
247 2 2.41291 2.46899 14.3859
76 3 6.12276 0.824207 11.6631
245 1 2.42514 1.85933 15.3011
75 3 5.35726 3.14537 10.4841
8 4 1.7436 1.90091 10.9186
73 3 3.12085 1.67885 9.8473
99 3 8.20296 0.640779 8.72259
258 1 6.47909 5.67347 8.76557
105 3 9.22762 3.01354 8.07224
261 2 6.13383 4.6768 9.2608
100 3 7.91029 2.51165 10.5042
121 2 6.72229 3.24612 12.9465
179 4 6.99812 4.06167 14.5611
188 3 7.88336 3.04179 15.3313
183 1 7.67974 5.78496 14.7834
194 2 7.75668 4.88039 10.0825
196 2 7.88154 5.88164 13.5601
144 2 8.58725 5.63893 15.4597
77 3 5.5016 4.21671 15.1499
191 3 10.3631 5.6607 9.75699
36 4 8.84359 1.96827 9.25606
180 4 8.84082 1.65207 14.6139
136 2 3.11058 0.154813 12.0117
192 3 9.51788 4.52373 12.1416
187 3 7.97716 0.795617 13.6721
182 4 9.14877 5.45582 10.7871
197 2 6.79426 6.40693 15.2734
215 2 6.86348 6.42339 9.49244
220 4 13.7581 12.6522 1.11407
265 2 10.8609 12.2782 3.69653
19 4 14.6588 12.5911 7.43937
41 1 8.08493 12.5976 7.14047
103 3 5.34064 6.57794 1.381
133 2 9.0317 11.9798 7.19797
16 4 12.7096 8.11516 7.19427
17 4 11.3861 10.3331 5.75968
70 3 11.7447 8.87524 6.21646
90 3 12.2495 10.8217 4.54469
115 2 11.7434 11.4085 7.02308
31 4 13.5358 10.4038 3.61513
152 2 12.8118 8.9311 1.67948
48 1 13.0822 8.75429 2.75495
153 2 12.258 8.24039 3.35588
69 3 9.762 10.4998 5.4203
1 4 8.92232 11.9287 1.97355
3 3 9.44341 10.9849 0.648883
89 3 13.7157 11.5689 2.35234
210 1 8.58816 7.88176 7.66213
168 2 7.70663 7.47128 4.92313
213 2 9.53298 7.98592 4.62434
253 2 10.1178 8.08585 0.939839
134 2 6.52434 8.86864 7.82722
274 2 9.5828 7.60804 7.97886
206 4 8.43012 10.0201 4.78683
2 3 8.32236 11.0576 3.14046
53 1 8.42004 8.1258 4.38115
130 2 8.1326 8.35191 3.24101
216 2 8.55634 7.97695 6.4608
104 3 4.83408 6.84191 4.13377
239 2 6.57169 10.3511 1.83182
38 4 5.08717 7.54713 2.63657
167 2 6.40512 8.83737 2.78624
211 3 7.21644 10.2569 5.85319
218 2 7.76824 7.12179 8.0941
268 2 8.32889 8.30861 0.188924
145 2 4.96211 6.6541 11.0546
140 2 9.54386 11.1953 13.145
193 2 11.3677 7.09444 15.7915
92 3 12.9126 11.9537 8.25421
137 2 8.42609 12.6409 12.2353
195 2 11.9661 12.3556 15.6631
67 3 11.6453 7.36708 8.20881
98 3 11.3433 9.96881 15.0066
35 4 12.7037 10.1865 13.7416
96 3 12.3955 9.4874 11.9243
127 2 12.8142 10.2637 10.598
15 4 9.815 9.95578 15.3444
139 2 9.54237 9.29436 12.9271
18 4 12.382 7.89744 11.8267
198 2 14.777 12.2459 15.7297
97 3 13.2352 11.669 13.5117
22 4 14.242 12.5416 12.7115
32 4 13.5307 10.6231 8.95018
203 2 9.21161 8.15809 10.8366
186 1 8.96408 7.21667 11.4832
116 2 10.8772 7.46377 11.0727
43 1 9.19831 10.2267 13.4902
45 1 4.29998 6.41733 12.064
219 2 8.31532 8.83632 8.17859
132 2 5.98802 9.24821 12.9613
109 3 6.23301 10.0961 13.3457
205 2 7.79394 7.08865 11.6046
252 2 9.42782 7.50626 14.9
269 2 8.01346 10.2793 13.4655
251 1 9.17708 8.24817 15.7648
204 2 9.51024 7.08398 12.5304
157 2 6.42666 9.07418 9.77097
209 1 6.29737 9.60678 8.75844
217 2 7.3622 10.9296 8.85562
267 2 12.404 5.31098 1.13384
107 3 11.0625 4.90297 7.27177
233 2 10.9609 1.32755 1.30622
231 1 12.5629 2.38653 0.289974
119 2 9.27614 1.47342 4.45924
254 1 9.0281 0.558453 3.85941
255 2 9.36989 0.832564 2.73638
234 2 12.3561 3.29407 0.951168
207 4 12.5095 0.648197 7.70903
230 4 12.6855 0.857291 1.34777
273 2 9.3185 1.17343 1.41945
184 1 9.42356 0.644351 0.339166
129 2 10.9496 1.03467 4.04673
56 3 15.0849 1.16876 4.87707
4 4 14.1634 1.96839 3.73075
37 4 11.597 2.22458 5.13208
101 3 12.7661 3.12816 4.56038
102 3 12.0575 1.43018 6.40587
106 3 10.2017 3.07741 5.46951
232 3 13.265 1.135 2.77933
9 4 15.4619 3.92667 1.76931
79 3 14.9577 6.15129 4.07379
228 2 16.1104 6.37948 0.300488
62 3 15.2729 4.8405 6.22646
112 2 13.9754 4.66104 1.1764
249 1 12.8687 6.19129 0.650612
12 4 14.2895 5.72516 5.45592
58 3 15.1394 3.01868 3.02029
113 2 12.9874 4.72102 4.97489
10 4 16.1161 3.99894 7.20433
59 3 15.9 3.04012 0.555933
61 3 17.1366 2.55468 6.13856
78 3 16.4613 5.18877 2.12327
55 3 16.1241 0.482389 1.30658
84 3 17.7257 5.99809 4.29319
25 4 16.4242 6.25859 3.38323
82 3 17.365 4.76745 7.90532
135 2 16.2188 0.876724 7.86244
110 2 13.5905 3.29343 10.4666
165 2 11.5212 1.52015 9.71615
173 1 12.7749 0.471984 12.3038
11 4 11.6133 5.73723 8.737
263 3 13.3912 1.45154 8.71748
202 2 11.4044 3.53125 10.5573
201 2 12.774 4.19094 11.7583
185 1 11.9634 3.44851 11.5743
177 2 14.4028 0.462554 11.6874
175 2 11.9523 0.694752 11.4811
174 2 12.4478 1.47112 13.7428
172 4 14.3198 1.61748 13.2484
190 3 11.3039 4.84784 13.9848
181 4 10.6647 3.77659 13.0237
6 4 14.4751 2.41432 9.26922
235 2 13.2823 2.37915 15.6293
200 2 12.2697 2.36149 11.8311
189 3 10.3273 2.32084 13.7577
259 2 11.5359 2.34923 15.1123
52 1 10.4762 1.25205 10.1436
164 2 10.3285 1.72466 11.1356
178 4 12.1849 6.03415 14.366
65 3 12.9754 5.36854 9.44814
250 2 13.7464 5.56586 15.2435
214 2 11.1086 0.144571 8.5351
262 3 15.218 0.975268 14.4018
60 3 15.1979 3.29679 8.23058
13 4 15.6366 4.12568 12.267
63 3 14.5825 3.1091 12.8702
66 3 15.0088 5.14669 11.2864
14 4 14.2434 6.12069 10.1595
226 4 17.0513 6.05283 14.8877
57 3 15.5988 1.60796 9.96728
227 3 18.292 5.47493 15.5828
114 2 16.2943 5.06648 13.5871
64 3 16.9482 3.34281 11.7706
163 2 10.2714 0.128069 10.2132
5 4 15.9683 1.5763 15.7866
47 1 17.2499 10.2637 1.31496
257 2 16.8087 12.1173 4.29269
68 3 13.6779 7.00526 6.21374
49 1 17.6052 10.4444 5.07994
150 2 18.3651 10.0681 1.78509
154 2 18.1006 11.325 5.59963
155 2 17.4771 10.6827 3.91608
236 4 20.7152 10.4985 0.613794
166 2 18.8782 8.47768 2.18993
156 2 18.0466 9.31474 5.30522
237 1 20.2513 9.63191 2.3558
240 2 19.4958 9.17929 0.649847
238 3 20.0284 11.9373 0.618027
241 2 19.9886 10.437 3.0553
212 3 20.4995 11.8764 7.31082
208 4 21.9566 11.1295 7.14197
148 2 18.2492 8.31795 7.60771
46 1 17.3756 7.76382 7.26755
147 2 17.689 7.03515 6.40696
272 2 16.5166 10.912 1.9418
149 2 15.8246 8.53745 6.88096
87 3 16.5727 7.89792 2.6318
33 4 15.9864 10.084 5.89779
30 4 16.206 8.70628 1.25839
266 2 13.3946 6.84342 1.34378
271 2 14.5495 9.17658 1.48554
94 3 15.7088 11.4466 6.71052
93 3 14.8942 10.0354 4.58391
151 2 14.1318 8.18856 2.94275
125 2 17.2938 10.6019 0.232994
88 3 16.1829 7.81184 15.6575
199 2 17.3044 12.6493 15.8392
83 3 15.3868 6.52787 9.02319
123 2 20.5993 9.9898 8.78564
108 3 18.5991 10.1429 12.3698
176 2 19.7752 12.2338 13.8944
264 2 21.2202 10.168 14.7678
131 2 20.245 11.7346 10.9755
40 4 19.9818 10.9639 12.5465
160 2 15.078 10.0305 14.7192
95 3 17.2386 7.40438 12.4637
71 3 12.4668 7.16863 13.2351
128 2 15.9066 9.92046 13.1737
34 4 17.1727 9.30037 12.1424
162 2 13.6872 8.81626 15.4041
158 2 16.3974 9.78402 10.1081
50 1 15.8006 9.92173 11.2142
229 2 17.4678 7.55474 14.1575
27 4 16.904 6.53143 8.5743
86 3 17.9879 6.7523 9.88308
29 4 18.0917 6.50465 11.4738
159 2 15.0021 9.13603 11.3532
72 3 13.5616 7.29743 10.9547
120 2 15.4322 11.4999 11.727
51 1 14.1576 9.33301 14.5257
161 2 14.4464 8.52644 13.7204
126 2 15.0467 11.0376 9.75116
146 2 19.738 7.20425 12.9232
91 3 13.5569 9.25247 8.13988
ITEM: TIMESTEP
300
ITEM: NUMBER OF ATOMS
274
ITEM: BOX BOUNDS xy xz yz pp pp pp
3.9369353033251842e-01 2.3299727641670017e+01 7.1921712521799925e+00
1.1576385058434280e-01 1.2698188504213620e+01 -3.1765008017753682e-01
1.5947396079707854e-01 1.5916026039202713e+01 -9.1594149988996065e-03
ITEM: ATOMS id type x y z
225 2 5.60368 2.91433 2.83072
54 1 8.38428 5.13153 6.39453
170 2 8.3779 6.23295 6.92595
223 2 3.9551 0.264916 1.8226
74 3 6.83002 1.04086 6.37412
169 2 8.59502 5.29575 5.30933
21 4 6.01315 2.07988 5.45204
242 1 3.1166 0.145517 2.73134
39 4 9.79193 3.88766 6.89817
118 2 6.04049 1.18934 3.68727
142 2 4.54849 2.78093 1.46907
24 4 4.66989 5.13122 0.569352
141 2 4.40451 4.34328 3.3515
244 2 7.07665 1.60704 1.74264
81 3 4.55835 2.53402 5.52543
246 2 3.34938 2.60612 0.294362
143 2 3.03576 3.79048 1.56488
26 4 3.62818 3.61354 6.70766
44 1 4.15047 3.79073 1.71545
221 1 6.43223 2.38422 3.43561
243 2 2.63626 1.20803 3.11738
222 3 5.09882 0.378389 0.581652
85 3 4.35808 5.15521 6.07832
270 2 7.06898 3.40373 4.86821
224 2 7.52279 2.49863 3.01776
260 2 7.18566 5.56998 7.9532
28 4 3.92159 5.58969 4.61944
171 2 7.46498 4.44751 6.61014
111 2 2.22967 0.320048 4.47271
45 1 4.34691 6.29187 11.969
23 4 6.53144 2.50059 11.3535
117 2 5.03626 0.607589 8.96369
124 2 3.741 4.78284 12.2491
20 4 4.4375 2.16025 9.35168
248 2 2.896 1.00821 14.9324
42 1 2.0202 0.584571 12.2571
138 2 2.23638 1.10196 13.3267
247 2 2.29188 2.65531 14.232
76 3 6.19619 0.959189 11.7982
245 1 2.40799 1.96774 15.1878
75 3 5.35314 3.036 10.4841
8 4 1.59338 1.93071 10.9575
73 3 2.99513 1.90585 10.0726
99 3 8.21279 0.488609 8.6768
258 1 6.46441 5.88119 8.8765
105 3 9.1701 2.93417 8.15523
261 2 6.07359 4.98097 9.45041
100 3 7.95393 2.50868 10.5652
121 2 6.75429 3.42691 12.9022
179 4 6.95339 4.15488 14.5862
188 3 7.98114 3.21973 15.3253
183 1 7.60908 5.91286 14.438
194 2 7.78491 4.80826 9.99221
196 2 8.12431 5.69819 13.3698
144 2 8.34154 5.86943 15.3796
77 3 5.47093 4.47412 15.3901
191 3 10.3582 5.51029 9.82904
36 4 8.76281 1.83117 9.2551
180 4 8.90922 1.73998 14.6684
80 3 4.27977 3.00187 8.05802
192 3 9.37869 4.32832 12.1706
187 3 7.99026 0.773247 13.7219
182 4 9.1401 5.34753 10.8894
136 2 2.94548 0.0758732 11.8222
220 4 13.7503 12.5467 1.22633
265 2 10.641 11.9715 3.52149
19 4 14.5915 12.4485 7.40254
41 1 7.84607 12.6482 7.02578
103 3 5.28218 6.45906 1.479
133 2 8.87816 11.956 7.05586
16 4 12.7295 8.11151 7.21325
17 4 11.4959 10.4219 5.79221
70 3 11.8805 8.96441 6.25525
90 3 12.308 10.7081 4.46727
115 2 12.0998 11.4718 6.97599
31 4 13.5598 10.3296 3.64726
152 2 12.806 8.62102 1.52962
48 1 13.1323 8.69988 2.63583
153 2 12.246 8.35329 3.27813
69 3 9.8488 10.6377 5.59289
1 4 8.91887 11.7605 1.86429
3 3 9.53157 10.984 0.549694
89 3 13.7997 11.4378 2.42443
210 1 8.74136 8.02841 7.7854
168 2 7.55703 7.98873 4.93115
213 2 9.49555 7.95728 5.16406
253 2 9.99196 8.25805 1.16879
193 2 11.6419 7.22753 0.237331
268 2 8.37588 8.55358 0.254305
206 4 8.42604 10.1772 4.68095
2 3 8.39193 10.767 3.19479
53 1 8.60374 8.28649 4.55836
130 2 8.78856 8.42021 3.31511
216 2 8.70085 8.13975 6.62509
104 3 4.71204 6.86002 4.04825
239 2 6.65331 10.1794 1.70295
38 4 4.98953 7.56221 2.53554
167 2 6.3235 8.80248 2.71476
211 3 6.78964 10.309 5.64936
134 2 6.35869 8.9937 7.86638
256 2 15.1719 12.7127 3.66271
274 2 9.85016 7.66502 8.04811
197 2 6.797 6.637 14.4264
140 2 9.24865 11.1668 12.8754
146 2 4.77396 6.67833 12.9272
92 3 12.8915 11.7738 8.38609
137 2 8.27725 12.5536 12.2227
195 2 12.0854 12.0487 15.7188
67 3 11.4837 7.29967 8.3639
98 3 11.3987 9.88115 14.8602
35 4 12.7624 10.1102 13.8148
96 3 12.3527 9.45792 12.0532
127 2 12.578 10.036 10.467
15 4 9.8124 9.98013 15.1441
139 2 9.46029 9.36868 12.8108
18 4 12.3947 7.89028 11.9075
198 2 14.819 12.3081 15.8341
97 3 13.2726 11.6887 13.7207
22 4 14.1625 12.4838 12.7468
32 4 13.4886 10.4478 9.00352
203 2 9.0947 7.97432 10.7172
186 1 8.93604 7.1915 11.4655
116 2 10.83 7.4944 11.1367
43 1 8.93964 10.1954 13.3831
215 2 7.06343 6.57203 9.6435
219 2 8.47627 9.02621 8.24447
132 2 5.59535 9.12577 13.0403
218 2 7.91377 7.28652 8.20916
205 2 7.75398 7.0282 11.7279
252 2 9.47855 7.73139 15.0423
269 2 7.79841 10.1064 13.442
251 1 9.13573 8.38704 15.9143
204 2 9.55389 7.334 12.3419
157 2 7.02246 9.19474 9.70289
209 1 6.56375 9.72522 8.8176
217 2 7.71902 10.8014 8.57879
145 2 5.05496 6.39563 11.0597
122 2 5.58698 6.45095 8.46195
267 2 12.6128 5.40232 1.11364
107 3 11.006 4.83458 7.40103
233 2 11.0662 1.24249 1.20928
231 1 12.5503 2.51099 0.275901
119 2 9.16237 1.39957 4.27996
254 1 9.1005 0.438122 3.73096
255 2 9.50644 0.450309 2.61392
234 2 12.408 3.48641 0.920368
207 4 12.5593 0.654015 7.58239
230 4 12.8419 1.00174 1.30807