ITEM: TIMESTEP
0
ITEM: NUMBER OF ATOMS
274
ITEM: BOX BOUNDS xy xz yz pp pp pp
-7.8103479964674580e+00 1.6107556389490025e+01 -8.2040415267999762e+00
1.1575009082220096e-01 1.2717076734416871e+01 -3.1765008017753682e-01
1.5947396079707854e-01 1.5916026039202713e+01 -9.1731747610414409e-03
ITEM: ATOMS id type x y z
225 2 5.57744 3.16979 2.86372
111 2 2.2348 0.283784 4.5774
9 4 -0.0352629 3.8649 1.69959
62 3 -0.0197514 4.95201 6.39148
112 2 -1.39251 4.55679 0.976265
12 4 -1.05481 5.77701 5.6174
58 3 -0.414159 2.99015 2.92515
246 2 3.18453 2.79645 0.211739
80 3 4.48772 3.15608 8.00734
7 4 1.00075 1.03073 5.70661
10 4 0.731973 3.96593 7.34234
59 3 0.440421 2.92972 0.520698
61 3 1.57103 2.50454 6.18581
78 3 0.852408 5.03685 2.18984
28 4 3.67877 5.51845 4.57377
82 3 2.08921 4.64176 8.01864
143 2 2.90811 3.97616 1.90076
26 4 3.5134 3.46216 6.72342
44 1 4.03298 3.78224 1.71572
221 1 6.46815 2.77712 3.49629
243 2 3.28088 1.20899 3.41976
222 3 5.05247 0.336287 0.580775
113 2 -2.2202 4.71291 5.04905
85 3 3.85398 5.0553 6.09223
81 3 4.24897 2.3066 5.43809
25 4 0.982265 6.3101 3.40037
84 3 2.22106 5.83214 4.2705
244 2 6.90405 1.4526 2.14102
141 2 4.38966 4.25685 3.57312
24 4 4.57916 4.9896 0.539991
142 2 4.24505 2.68923 1.37166
118 2 6.04028 1.08597 3.6376
21 4 5.76042 2.02765 5.2155
242 1 3.2906 0.125647 2.98484
74 3 6.67523 1.24081 6.51601
249 1 -2.18873 6.28165 0.415666
223 2 3.98459 0.260936 1.99572
55 3 1.12596 0.374559 1.18558
228 2 0.620418 6.23791 0.25713
256 2 7.99748 0.472801 3.32455
41 1 0.743385 0.122676 7.21729
178 4 -3.0217 6.12335 14.2799
65 3 -2.42577 5.44002 9.43911
250 2 -1.33166 5.66173 14.9469
60 3 -0.320008 3.27527 8.34134
13 4 0.344934 4.26529 12.1783
63 3 -0.542218 3.07241 12.7325
66 3 -0.437372 5.27898 11.2569
14 4 -1.07211 6.25786 10.1991
57 3 0.204783 1.49735 9.94067
76 3 6.18555 0.882919 11.581
136 2 3.0888 0.161378 11.731
75 3 5.45144 3.14885 10.5015
8 4 1.73974 2.03478 10.7497
64 3 1.55941 3.60193 11.5564
73 3 3.0848 1.98553 9.91673
114 2 0.986111 5.22517 13.5487
245 1 2.37883 2.09875 15.07
247 2 2.24062 2.70723 14.1151
227 3 2.9454 5.59402 15.5578
138 2 2.2186 1.25028 13.2198
226 4 1.67076 6.20925 14.8993
42 1 2.11697 0.717939 12.0587
248 2 2.83765 1.08808 14.8629
20 4 4.48724 2.3392 9.32171
124 2 3.72505 4.8251 11.6111
117 2 5.15047 0.807907 8.85906
135 2 0.329699 0.710692 8.07387
5 4 0.706172 1.49179 15.8318
220 4 -1.74233 12.5504 1.20828
265 2 -4.29074 11.9601 3.64496
47 1 1.68699 10.1113 1.47521
266 2 -1.47436 6.5949 1.17898
91 3 -1.85002 9.26501 7.9789
133 2 -6.44878 12.2741 7.51951
16 4 -2.73045 8.16128 7.17028
17 4 -4.08039 10.4236 5.79796
70 3 -3.6989 8.93964 5.93944
90 3 -3.14942 10.9652 4.61035
115 2 -3.63682 11.3424 7.14095
31 4 -1.87321 10.455 3.55787
152 2 -2.94001 8.98636 1.76018
48 1 -2.57994 8.81674 2.82871
153 2 -3.50032 8.61353 3.48955
69 3 -5.72199 10.6679 5.58528
1 4 -6.35 11.8044 2.06835
3 3 -5.49807 10.7473 1.05609
68 3 -1.79054 6.90554 6.45316
89 3 -1.73241 11.3431 2.19317
125 2 1.5474 10.5297 0.416011
151 2 -1.86508 8.01743 2.97446
93 3 -0.597288 10.0693 4.43315
94 3 -0.0687592 11.4884 6.64076
271 2 -1.02854 8.93761 1.58787
19 4 -0.840874 12.6595 7.39186
30 4 0.626853 8.54888 1.35721
33 4 0.415952 10.2506 5.79651
87 3 1.27825 7.73674 2.61234
149 2 0.521738 8.79397 6.97874
272 2 1.09968 10.7237 2.28034
147 2 1.91225 6.9865 6.18683
46 1 1.83841 7.71311 7.04918
148 2 2.78477 8.3355 7.37351
79 3 -0.406498 6.42661 4.25615
160 2 -0.512539 10.2397 14.4935
95 3 2.20804 7.52546 12.2533
71 3 -2.99461 7.09373 13.0694
92 3 -2.56106 11.9336 8.28042
128 2 0.340967 10.1387 12.84
34 4 1.83792 9.53395 12.1087
67 3 -3.90573 7.45208 8.31353
98 3 -3.92676 9.91713 14.6695
35 4 -2.70059 10.1838 13.7025
96 3 -3.00242 9.57019 11.8148
127 2 -2.55161 10.2215 10.4589
15 4 -5.47214 9.89328 15.4022
139 2 -5.86202 10.6871 13.1007
18 4 -2.99451 7.99286 11.7256
162 2 -1.48964 8.8337 15.2548
97 3 -2.18019 11.6471 13.5308
50 1 0.64777 9.9595 10.9007
32 4 -1.87041 10.5656 8.85586
83 3 0.153853 6.56726 9.02868
22 4 -1.22942 12.4984 12.5403
88 3 0.583986 7.72921 15.6751
126 2 -0.220503 10.8812 9.48508
161 2 -0.526114 8.60757 13.6447
51 1 -1.13419 9.3319 14.3401
120 2 -0.135419 11.449 11.5654
72 3 -1.56114 7.58424 10.8181
159 2 -0.0492427 9.09872 10.7387
29 4 3.09155 6.83286 11.1507
86 3 2.73116 7.10175 9.66982
27 4 1.58183 6.6193 8.48181
229 2 2.07377 7.49461 13.8015
198 2 -0.641628 12.199 15.8119
158 2 1.46207 10.1466 9.97679
195 2 -3.28242 12.3335 15.445
137 2 -7.0101 12.6248 11.9854
193 2 -3.48174 7.49647 15.7777
270 2 6.49096 3.76956 4.93175
224 2 7.5021 2.9463 3.00523
171 2 7.5193 4.12002 7.11031
231 1 12.5774 2.33353 0.232241
119 2 9.26164 1.63955 4.07185
254 1 9.08016 0.656134 3.55228
255 2 9.61472 0.660367 2.48294
169 2 8.47674 4.63693 5.48469
54 1 8.36673 4.78848 6.56368
39 4 10.0444 3.85931 7.06043
273 2 9.36183 1.21539 1.24961
184 1 9.41574 0.612108 0.234125
129 2 10.936 1.11249 4.15822
170 2 8.40711 6.00536 6.89579
4 4 14.1435 2.00951 3.82654
37 4 11.6353 2.06273 5.40939
101 3 12.9677 3.09481 4.78017
102 3 11.9846 1.15054 6.58034
106 3 10.3863 3.0251 5.7029
232 3 13.1969 1.06274 2.81802
56 3 15.0407 1.13232 4.87719
230 4 12.628 0.805654 1.38294
207 4 12.4656 0.475328 7.93133
234 2 12.329 3.22152 0.9833
233 2 10.9502 1.29547 1.23016
107 3 11.1924 4.97968 7.42017
103 3 5.57636 6.28124 1.56138
267 2 12.5374 5.48222 0.80283
260 2 7.071 5.48825 7.90255
99 3 8.04147 0.627452 8.6475
258 1 6.31365 5.87875 8.75172
261 2 6.0478 4.98953 9.41661
11 4 11.605 5.83775 8.77985
100 3 8.20704 2.53674 10.5433
121 2 6.79652 3.36318 12.7897
179 4 6.95315 3.97178 14.4877
188 3 7.79832 2.96636 15.2893
183 1 7.91529 5.62206 14.4533
194 2 7.6545 5.29998 10.1714
196 2 7.74599 5.99643 13.3912
145 2 5.32494 6.16988 10.7855
77 3 5.42784 4.27314 15.1025
191 3 10.287 5.581 9.87115
6 4 14.3504 2.37509 9.35489
36 4 8.94414 1.78647 9.33016
180 4 8.79306 1.61377 14.5293
192 3 9.45981 4.66299 12.3048
187 3 7.90689 0.682847 13.582
182 4 9.15649 5.58056 10.9557
144 2 8.99043 5.45224 14.7093
164 2 10.0739 1.21567 11.3526
45 1 4.50809 6.02435 11.6226
105 3 9.62405 2.78939 8.25722
52 1 10.4219 0.849033 10.3132
259 2 11.5382 2.33223 15.136
189 3 10.4009 2.43723 13.7285
200 2 12.292 2.34144 11.757
197 2 7.25855 6.12275 15.2524
235 2 13.368 2.19858 15.5896
181 4 10.6705 3.86022 13.0018
190 3 11.5701 4.78378 14.1483
172 4 14.3829 1.54252 13.1566
174 2 12.5273 1.65136 13.6304
175 2 12.1021 0.676404 11.4307
177 2 14.5211 0.349626 11.5579
185 1 11.8459 3.49783 11.5581
201 2 12.6545 4.32971 11.8569
202 2 11.4513 3.63821 10.5236
263 3 13.123 1.50508 8.92287
173 1 12.9724 0.525114 12.2667
165 2 11.3721 1.3757 10.0482
262 3 15.2124 0.833695 14.2801
23 4 6.70602 2.52891 11.2657
122 2 5.35758 6.28319 8.27799
110 2 13.6621 3.2394 10.6739
146 2 4.87161 6.36233 12.656
210 1 8.65408 7.83622 7.6923
257 2 1.24886 12.3469 4.177
213 2 9.4861 8.28663 4.84944
49 1 2.1416 10.7282 5.18437
150 2 2.89425 9.85806 1.73765
154 2 2.23607 11.6907 5.91834
155 2 2.37097 10.8963 4.09688
253 2 10.3315 8.00912 0.935837
166 2 3.5194 8.06009 1.93164
156 2 2.69006 9.76693 5.63108
104 3 4.70104 6.68064 4.17871
240 2 4.03275 9.11103 0.542562
238 3 4.66361 11.9158 0.747334
239 2 6.5264 10.0623 1.96482
38 4 5.08702 7.3569 2.60373
167 2 6.31411 8.73191 2.98206
168 2 7.72073 7.63305 5.07506
208 4 6.57213 11.2224 7.0612
211 3 6.81852 10.5212 5.67217
212 3 5.16748 11.7432 7.51549
241 2 4.2575 10.0382 2.93506
237 1 4.77897 9.36656 2.22783
236 4 5.31193 10.4461 0.668832
216 2 8.58617 7.93687 6.47919
130 2 8.33406 8.21354 3.39303
53 1 8.40275 8.31842 4.47279
2 3 8.34586 11.048 3.30747
206 4 8.24671 10.2254 4.68559
274 2 9.70636 7.67077 8.01793
134 2 6.00043 8.96767 7.81245
268 2 8.58519 8.00651 0.162457
199 2 1.88329 12.6697 15.6865
203 2 9.37993 8.20735 10.5514
186 1 9.03841 7.45442 11.3737
123 2 5.63158 10.1353 9.17403
108 3 3.10495 10.3402 12.3798
176 2 4.17494 12.3592 13.8867
218 2 7.84943 7.07517 8.09813
252 2 9.67054 7.42262 14.8707
204 2 9.47266 7.58293 12.4235
43 1 8.79036 10.6389 13.9973
40 4 4.46414 11.0109 12.7166
140 2 8.20702 11.597 14.1913
217 2 7.73315 10.499 8.46693
209 1 6.50498 9.54597 8.70084
157 2 6.91818 8.75877 9.43809
131 2 5.12941 11.6066 11.1603
251 1 9.36382 8.08132 15.7227
269 2 8.12691 9.75552 13.8495
264 2 5.7747 10.1627 14.7954
205 2 7.89131 7.50071 11.468
109 3 6.00966 9.85836 13.4102
132 2 5.47367 9.04208 13.1662
116 2 10.9706 7.64247 10.856
214 2 2.80367 12.5619 8.64591
215 2 6.77493 6.73467 9.43516
163 2 2.3068 12.344 10.3122
219 2 8.47301 8.82743 8.13802
ITEM: TIMESTEP
100
ITEM: NUMBER OF ATOMS
274
ITEM: BOX BOUNDS xy xz yz pp pp pp
-7.8146088422709461e+00 1.6115254495879515e+01 -8.2081435475633757e+00
1.1575009082220096e-01 1.2717076734416871e+01 -3.1780890521762561e-01
1.5947396079707854e-01 1.5916026039202713e+01 -9.1731747610414409e-03
ITEM: ATOMS id type x y z
225 2 5.59818 2.95179 2.79994
111 2 2.24837 0.34909 4.44965
9 4 -0.0785034 3.90996 1.72872
62 3 0.0856875 5.06533 6.35667
112 2 -1.5778 4.67329 1.22253
12 4 -1.01265 5.84344 5.53837
58 3 -0.378393 3.00718 2.99322
242 1 3.15366 0.437254 2.71612
80 3 4.32038 3.26231 8.01954
7 4 1.09186 1.05971 5.6608
10 4 0.622484 3.96187 7.28004
59 3 0.494289 3.10603 0.493033
61 3 1.75985 2.54002 6.13916
78 3 0.948206 5.08914 2.13807
28 4 3.71991 5.63936 4.53005
246 2 3.30016 2.55826 0.24045
143 2 2.87444 3.76625 1.35395
26 4 3.52943 3.60939 6.7287
44 1 4.00056 3.69461 1.76411
221 1 6.4659 2.4792 3.36086
243 2 2.55796 1.39244 2.95604
222 3 5.31344 0.591458 0.618118
113 2 -2.07615 4.56647 5.26072
85 3 3.93282 4.98987 5.94673
81 3 4.55903 2.37581 5.61137
25 4 0.965942 6.31137 3.29111
84 3 2.23302 6.16941 4.26023
244 2 7.24737 1.48908 1.85148
141 2 3.99416 4.25578 3.31331
24 4 4.70077 4.99932 0.611967
142 2 4.37561 2.63629 1.57025
118 2 6.15038 0.882221 3.59104
21 4 5.99794 2.02749 5.27097
256 2 8.10652 0.40882 3.49479
74 3 6.92738 1.29832 6.27352
249 1 -2.46145 6.31638 0.612347
223 2 4.00105 0.635944 1.91943
55 3 1.06188 0.43218 1.33303
228 2 0.700077 6.33458 0.343027
79 3 -0.598496 6.38493 4.0846
178 4 -3.13472 6.06156 14.3602
65 3 -2.43295 5.28844 9.44572
250 2 -1.55696 5.59173 15.2704
60 3 -0.305625 3.18532 8.28783
13 4 0.295702 4.1863 12.2249
63 3 -0.644488 3.0283 12.7575
66 3 -0.459119 5.14918 11.2477
14 4 -1.2243 6.13014 10.1533
57 3 0.253138 1.3483 10.1267
76 3 6.32288 0.969193 11.4955
5 4 0.670026 1.61585 15.8033
75 3 5.42212 3.1695 10.3039
8 4 1.73282 1.95169 10.8155
64 3 1.57186 3.56329 11.6189
73 3 3.02597 1.8575 9.94067
114 2 0.959901 5.19552 13.5827
245 1 2.47758 1.79203 15.186
247 2 2.34315 2.25361 14.0854
227 3 2.98853 5.57765 15.5223
138 2 2.11036 1.01772 13.3162
226 4 1.70205 6.1244 14.9373
42 1 2.01741 0.625938 12.2275
248 2 2.9597 0.703289 15.2056
20 4 4.37365 2.25725 9.25028
124 2 3.72554 4.90381 11.973
117 2 5.05934 0.762349 8.67488
262 3 -0.138819 1.03601 14.5309
82 3 1.91394 4.49515 8.04827
23 4 6.58657 2.55464 11.2092
135 2 0.78656 0.336505 8.16196
220 4 -1.57814 12.5262 1.24673
265 2 -4.72258 12.3994 3.61442
148 2 2.72414 8.03325 7.31776
266 2 -2.01733 7.06543 1.36548
91 3 -1.87855 9.35586 7.88031
133 2 -6.18 11.9695 6.91802
16 4 -2.67006 8.07805 7.06086
17 4 -4.03661 10.3444 5.74646
70 3 -3.72668 8.76561 5.99795
90 3 -3.16876 11.0276 4.60812
115 2 -3.64298 11.2548 7.16574
31 4 -1.88525 10.4846 3.63351
152 2 -2.61172 8.93377 1.64388
48 1 -2.4072 8.82904 2.7687
153 2 -3.38232 8.69109 3.40638
69 3 -5.63232 10.4704 5.39282
1 4 -6.39396 11.8101 2.04413
3 3 -5.7511 10.8311 0.878878
68 3 -1.7312 6.97867 6.34988
89 3 -1.74855 11.491 2.41039
41 1 -7.25433 12.5422 7.1034
151 2 -1.55939 7.99744 3.02467
93 3 -0.575474 10.2695 4.4529
94 3 0.04593 11.5638 6.69773
271 2 -0.968206 8.97122 1.45705
19 4 -0.773557 12.6705 7.42747
30 4 0.782238 8.70136 1.35466
33 4 0.458308 10.3572 5.79558
87 3 1.16601 7.7387 2.54756
149 2 0.497763 8.78363 6.94271
272 2 1.28813 10.8645 2.10979
147 2 1.72383 6.91377 6.1767
46 1 1.70454 7.57873 7.05054
160 2 -0.811281 9.61083 15.1877
95 3 2.00668 7.50905 12.3635
71 3 -2.90924 7.00233 13.1103
92 3 -2.55132 11.934 8.23735
128 2 0.417735 10.2388 12.9674
34 4 1.81869 9.44196 12.2975
67 3 -3.62318 7.42661 8.3196
98 3 -4.02587 10.0688 14.9679
35 4 -2.77944 10.1061 13.7861
96 3 -3.13388 9.49475 11.8951
127 2 -2.67022 10.1182 10.4274
15 4 -5.5399 9.86742 15.4402
139 2 -5.64516 9.84678 13.0733
18 4 -2.93886 7.88513 11.7415
162 2 -2.11806 8.37043 15.2742
97 3 -2.11917 11.6325 13.5412
50 1 0.637124 9.92218 11.0507
32 4 -1.92367 10.5523 8.902
83 3 0.14221 6.72414 9.07644
22 4 -1.1863 12.6181 12.6286
88 3 0.683722 7.75816 15.6415
126 2 -0.322143 10.7077 9.55301
161 2 -1.0329 8.37995 13.7606
51 1 -1.53126 9.02463 14.5628
120 2 -0.198745 11.4457 11.7767
72 3 -1.59562 7.58122 10.777
159 2 -0.105933 9.01489 10.812
29 4 2.85778 6.70585 11.3243
86 3 2.71062 6.962 9.6773
27 4 1.54782 6.48104 8.54683
229 2 1.89443 7.58939 14.0538
198 2 -0.616092 12.0411 15.7376
158 2 1.43573 10.0917 10.1361
195 2 -3.24084 12.337 15.7378
137 2 -7.16636 12.6057 12.0555
193 2 -3.90745 7.16269 15.7773
140 2 -6.15375 11.5706 13.5564
136 2 -5.28213 12.5804 11.8878
270 2 6.92019 3.51796 4.81689
224 2 7.47033 2.71095 2.92374
171 2 7.49991 4.39243 6.47799
231 1 12.5385 2.25794 0.249789
119 2 9.34189 1.47667 4.39096
254 1 9.22013 0.593741 3.60402
255 2 9.70665 0.908999 2.62411
169 2 8.64383 5.03398 5.17995
54 1 8.43013 4.98296 6.33462
39 4 9.90307 3.98488 6.94567
273 2 9.27752 0.970419 1.33387
184 1 9.27609 0.454337 0.299296
129 2 11.152 1.0265 3.95449
170 2 8.47293 6.06025 6.81597
4 4 14.2305 1.9628 3.87914
37 4 11.6766 2.12378 5.19891
101 3 12.8154 3.06654 4.6358
102 3 12.0962 1.30188 6.49714
106 3 10.2659 3.08388 5.5284
232 3 13.1647 1.09097 2.84598
56 3 15.0823 1.17695 4.91859
230 4 12.5034 0.813808 1.37802
207 4 12.5314 0.59918 7.81113
234 2 12.4558 3.12256 0.946894
233 2 10.8271 1.30518 1.19287
107 3 11.1557 4.96837 7.38726
103 3 5.44122 6.24455 1.50417
260 2 7.08854 5.34404 7.86839
267 2 12.4244 5.46416 1.15888
99 3 8.2522 0.604836 8.64133
258 1 6.33433 5.7318 8.70468
261 2 6.05658 4.80523 9.31612
11 4 11.5514 5.76615 8.73337
100 3 7.98104 2.69333 10.3491
121 2 6.7378 3.31324 12.8584
179 4 6.87396 4.01981 14.5613
188 3 7.82133 3.01229 15.3236
183 1 7.83632 5.55813 14.7945
194 2 7.60983 5.15508 10.102
196 2 7.58503 5.87068 13.5355
145 2 5.26618 6.33988 11.2422
77 3 5.41849 4.37137 15.2738
191 3 10.2599 5.77602 9.82207
6 4 14.5025 2.24899 9.40412
36 4 8.93613 1.91429 9.28521
180 4 8.76551 1.6672 14.7081
192 3 9.47094 4.59936 12.1366
187 3 7.96675 0.912557 13.5149
182 4 9.08628 5.55618 10.8703
144 2 8.89607 5.21408 15.0084
164 2 10.0718 1.50335 11.2714
45 1 4.41885 6.27449 11.9739
105 3 9.54255 2.98007 8.21162
52 1 10.421 1.00503 10.2476
259 2 11.4661 2.26367 15.0554
189 3 10.3485 2.36103 13.8097
200 2 12.2628 2.24769 11.812
197 2 7.35057 6.2126 15.5642
235 2 13.3324 2.17819 15.7297
181 4 10.6168 3.77954 12.9742
190 3 11.4958 4.75149 13.9839
172 4 14.4322 1.55524 13.2199
174 2 12.6148 1.49174 13.7386
175 2 11.9599 0.596223 11.6175
177 2 14.4468 0.440023 11.723
185 1 11.9382 3.35604 11.6324
201 2 12.7317 4.05027 12.0181
202 2 11.6221 3.59567 10.6018
263 3 13.3358 1.41032 8.85531
173 1 12.8461 0.405133 12.3771
165 2 11.3706 1.46158 9.82901
122 2 5.40742 6.06585 8.20915
110 2 13.7153 3.16067 10.6675
210 1 8.52772 7.94292 7.6554
257 2 1.42165 12.2209 4.06789
213 2 9.23031 7.84888 5.0292
49 1 2.10117 10.5117 4.98647
150 2 2.99944 9.94546 1.6673
154 2 2.52543 11.5611 5.22878
155 2 2.08762 10.1642 3.9266
253 2 10.1534 7.73642 0.929495
166 2 3.63636 8.1789 1.92923
156 2 2.61831 9.67703 5.77457
104 3 4.82143 6.84469 4.25858
240 2 4.09804 9.04234 0.492237
238 3 4.46656 11.9596 0.697486
239 2 6.5336 10.2325 1.73384
38 4 5.1509 7.33298 2.62813
167 2 6.40406 8.71056 2.64224
168 2 7.28559 7.90309 4.68225
208 4 6.63318 11.0945 7.1491
211 3 7.03843 10.3561 5.87791
212 3 5.20419 11.9433 7.44791
241 2 4.51675 10.2153 2.9468
237 1 4.87218 9.42383 2.19114
236 4 5.19074 10.5001 0.553149
216 2 8.4907 8.12503 6.46321
130 2 8.62225 8.35901 3.22952
53 1 8.36824 8.2704 4.43552
2 3 8.25199 10.9123 3.27822
206 4 8.3907 10.1956 4.67167
274 2 9.64737 7.57197 7.8575
134 2 6.41027 8.76746 7.85255
125 2 1.81225 10.6372 0.288162
47 1 1.88377 10.215 1.3493
218 2 7.73405 7.16207 7.99066
163 2 2.24773 12.4534 10.2907
203 2 9.43886 7.96652 10.4977
186 1 8.9959 7.39409 11.3409
123 2 5.2856 10.0263 8.74056
108 3 3.18376 10.3064 12.464
176 2 4.08782 12.3325 13.9403
215 2 6.70815 6.57569 9.33279
252 2 9.68272 7.36757 14.9091
204 2 9.42964 7.74055 12.3098
43 1 9.06331 10.4778 13.7616
40 4 4.59332 10.9938 12.6716
219 2 8.33902 8.92514 8.20627
217 2 7.62699 10.5994 8.68084
209 1 6.3018 9.49903 8.70407
157 2 6.38511 8.86287 9.58255
131 2 5.18434 11.6683 11.1056
251 1 9.33167 8.02079 15.7428
269 2 7.87516 10.2048 13.7161
264 2 5.75456 10.1639 14.7962
205 2 7.77393 7.40812 11.2904
109 3 6.24394 9.98001 13.4229
132 2 5.79357 9.13936 13.0496
268 2 8.23062 7.99005 15.883
214 2 2.90768 12.6583 8.69028
146 2 4.52034 6.85927 12.98
116 2 11.0016 7.51074 11.0156
199 2 1.81974 12.5991 15.7652
ITEM: TIMESTEP
200
ITEM: NUMBER OF ATOMS
274
ITEM: BOX BOUNDS xy xz yz pp pp pp
3.9337588025234016e-01 2.3322316025701177e+01 7.1993634234321711e+00
1.1575009082220096e-01 1.2717076734416871e+01 -3.1796773025771508e-01
1.5947396079707854e-01 1.5916026039202713e+01 -9.1731747610414409e-03
ITEM: ATOMS id type x y z
225 2 5.72534 2.93179 2.92345
111 2 2.29853 0.299079 4.47228
170 2 8.55927 6.03196 6.62804
223 2 4.01709 0.35804 1.87186
74 3 6.81028 1.14972 6.31671
256 2 7.96334 0.333006 3.87235
21 4 6.02291 2.12775 5.41839
242 1 3.25672 0.196341 2.75434
7 4 1.09933 0.919073 5.56147
118 2 6.30285 1.06208 3.57489
142 2 4.90293 2.83632 1.26186
24 4 4.5721 5.03772 0.604874
141 2 4.33811 4.35497 3.48426
244 2 7.22418 1.54166 1.9429
81 3 4.52283 2.50963 5.58895
246 2 3.38644 2.38167 0.364859
143 2 3.08263 3.558 1.92711
26 4 3.5794 3.49326 6.63516
44 1 4.21705 3.69893 1.72462
221 1 6.60073 2.43398 3.55745
243 2 2.7265 1.14455 3.00614
222 3 5.20273 0.605835 0.459168
85 3 3.9783 5.17995 6.10223
270 2 6.98543 3.60281 5.00017
224 2 7.58006 2.54616 3.00119
260 2 7.30271 5.37939 7.91903
28 4 3.86788 5.63969 4.60714
171 2 7.34753 4.59743 6.49963
169 2 8.48366 4.98543 5.0734
54 1 8.36307 4.98428 6.20916
39 4 9.80141 3.9147 6.89665
80 3 4.16166 3.14074 8.04159
122 2 5.5684 6.15893 8.22674
23 4 6.52919 2.44374 11.3637
117 2 5.23603 0.830573 8.75786
124 2 3.85934 4.97401 12.3172
20 4 4.45423 2.25287 9.29073
248 2 2.862 0.816997 15.1413
42 1 2.17103 0.710265 12.2997
138 2 2.3286 1.19968 13.398
247 2 2.4131 2.46949 14.3865
76 3 6.1298 0.82406 11.6634
245 1 2.42529 1.86287 15.3022
75 3 5.36077 3.14262 10.4826
8 4 1.74282 1.90526 10.9188
73 3 3.12314 1.68213 9.84778
99 3 8.21096 0.641051 8.72191
258 1 6.4869 5.67784 8.76693
105 3 9.23824 3.01626 8.07486
261 2 6.13947 4.68083 9.26003
100 3 7.91798 2.51268 10.5035
121 2 6.72813 3.24722 12.9456
179 4 7.00343 4.06435 14.5605
188 3 7.8897 3.04407 15.3298
183 1 7.68605 5.78904 14.782
194 2 7.76591 4.88377 10.0824
196 2 7.88964 5.88386 13.5602
144 2 8.59221 5.63928 15.4604
77 3 5.50715 4.22112 15.1502
191 3 10.3741 5.66682 9.75659
36 4 8.85256 1.96902 9.25676
180 4 8.8487 1.65449 14.6134
136 2 3.1099 0.157216 12.0108
192 3 9.52985 4.52746 12.1385
187 3 7.98451 0.797626 13.6711
182 4 9.16005 5.46066 10.7865
215 2 6.87595 6.42455 9.49605
197 2 6.80127 6.41393 15.2716
220 4 13.7703 12.6644 1.11528
265 2 10.8674 12.2856 3.69607
19 4 14.6709 12.6048 7.4402
41 1 8.09266 12.6111 7.13583
103 3 5.3441 6.58256 1.3809
133 2 9.04393 11.9961 7.19906
16 4 12.7214 8.12418 7.19447
17 4 11.3985 10.3427 5.76027
70 3 11.7556 8.88312 6.21689
90 3 12.2615 10.8292 4.54432
115 2 11.7535 11.4207 7.02412
31 4 13.5488 10.4145 3.61587
152 2 12.8263 8.93836 1.67906
48 1 13.0966 8.76356 2.75455
153 2 12.2713 8.25058 3.35602
69 3 9.7727 10.5083 5.42117
1 4 8.92989 11.9395 1.97248
3 3 9.45289 10.9967 0.648126
89 3 13.7289 11.581 2.35364
210 1 8.59615 7.8862 7.66062
168 2 7.71773 7.47765 4.92229
213 2 9.54336 8.00135 4.62349
253 2 10.1403 8.11325 0.935884
134 2 6.53151 8.88096 7.82756
274 2 9.59154 7.61235 7.97733
206 4 8.43955 10.0306 4.78719
2 3 8.33192 11.0694 3.13963
53 1 8.42612 8.13651 4.38008
130 2 8.13621 8.3656 3.24291
216 2 8.56311 7.98299 6.45894
104 3 4.83487 6.84836 4.1342
239 2 6.57655 10.3565 1.83079
38 4 5.08893 7.55366 2.63579
167 2 6.41091 8.84532 2.78635
211 3 7.22451 10.269 5.85356
268 2 8.34084 8.31589 0.1944
218 2 7.77737 7.12655 8.09263
145 2 4.96473 6.65637 11.0556
140 2 9.54035 11.2073 13.1375
193 2 11.3811 7.09335 15.7933
92 3 12.926 11.9648 8.25508
137 2 8.43524 12.6586 12.2347
195 2 11.976 12.3653 15.6623
67 3 11.6581 7.37536 8.20732
98 3 11.3537 9.97893 15.0039
35 4 12.7157 10.1978 13.741
96 3 12.4097 9.49483 11.9242
127 2 12.8295 10.2728 10.5993
15 4 9.8244 9.9657 15.3434
139 2 9.55266 9.3062 12.9274
18 4 12.3948 7.90386 11.8267
198 2 14.791 12.2625 15.7281
97 3 13.248 11.6801 13.5093
22 4 14.2556 12.5535 12.7131
32 4 13.5439 10.6337 8.95031
203 2 9.21871 8.16576 10.8387
186 1 8.97376 7.22274 11.4835
116 2 10.89 7.47205 11.0734
219 2 8.32317 8.8399 8.17836
45 1 4.30146 6.42463 12.0637
43 1 9.2033 10.2363 13.488
132 2 5.99793 9.25759 12.9611
109 3 6.23691 10.1104 13.3463
205 2 7.80467 7.09343 11.6072
252 2 9.43704 7.51215 14.9019
269 2 8.01629 10.2799 13.4672
251 1 9.18779 8.26004 15.7621
204 2 9.52196 7.08717 12.5297
157 2 6.43574 9.08787 9.77034
209 1 6.30402 9.61795 8.75675
217 2 7.36702 10.9432 8.8522
267 2 12.4178 5.31301 1.13622
107 3 11.0744 4.90852 7.27397
233 2 10.9719 1.3267 1.30628
231 1 12.574 2.38615 0.289625
119 2 9.29477 1.47932 4.45757
254 1 9.03843 0.560833 3.85853
255 2 9.37942 0.832464 2.73648
234 2 12.3685 3.29389 0.951307
207 4 12.5235 0.649282 7.70934
230 4 12.6976 0.857656 1.34804
273 2 9.32623 1.17954 1.42015
184 1 9.42905 0.648591 0.341061
129 2 10.9595 1.0369 4.05058
56 3 15.098 1.1712 4.87643
4 4 14.1769 1.97031 3.73022
37 4 11.6117 2.22308 5.13087
101 3 12.7784 3.13106 4.5597
102 3 12.0703 1.4322 6.40485
106 3 10.2141 3.08046 5.46944
232 3 13.2785 1.13763 2.77903
9 4 15.4763 3.9296 1.76893
79 3 14.9751 6.15729 4.07479
228 2 16.1258 6.38784 0.300554
62 3 15.2869 4.84602 6.22762
112 2 13.9907 4.66204 1.17215
249 1 12.88 6.19463 0.652197
12 4 14.3045 5.73078 5.45574
58 3 15.1512 3.02354 3.0204
113 2 12.9948 4.73072 4.97507
10 4 16.131 4.00509 7.2061
59 3 15.9159 3.04124 0.557843
61 3 17.1573 2.57075 6.1414
78 3 16.4771 5.1911 2.12373
55 3 16.1402 0.482998 1.30616
84 3 17.7427 6.00301 4.29297
25 4 16.4411 6.26377 3.38381
82 3 17.3814 4.7753 7.90663
135 2 16.2296 0.883156 7.85474
110 2 13.602 3.29388 10.4689
165 2 11.5306 1.52545 9.71704
173 1 12.7862 0.472212 12.3046
11 4 11.6238 5.74174 8.73611
263 3 13.407 1.45367 8.71565
202 2 11.421 3.53428 10.5581
201 2 12.7861 4.18934 11.7602
185 1 11.9761 3.45135 11.5762
177 2 14.4223 0.46987 11.6929
175 2 11.9613 0.695578 11.4827
174 2 12.4597 1.47378 13.7412
172 4 14.3329 1.61936 13.2473
190 3 11.3145 4.85261 13.9835
181 4 10.6767 3.77998 13.0233
6 4 14.4894 2.41788 9.26961
235 2 13.2951 2.37562 15.6299
200 2 12.2799 2.36054 11.8328
189 3 10.3367 2.32447 13.7582
259 2 11.5469 2.35196 15.1104
52 1 10.4862 1.25503 10.1438
164 2 10.3354 1.72749 11.1361
178 4 12.1943 6.03957 14.3647
65 3 12.9874 5.37336 9.44841
250 2 13.7583 5.57306 15.2446
214 2 11.1243 0.146792 8.53663
262 3 15.2299 0.978436 14.4015
60 3 15.2135 3.30108 8.23209
13 4 15.6496 4.12949 12.2664
63 3 14.597 3.11138 12.8701
66 3 15.0206 5.15089 11.2875
14 4 14.2561 6.12369 10.1606
226 4 17.0685 6.05673 14.8861
57 3 15.6145 1.61055 9.96821
227 3 18.3101 5.47973 15.5818
114 2 16.3091 5.0701 13.586
64 3 16.9628 3.34662 11.7685
163 2 10.283 0.130381 10.2131
5 4 15.9828 1.57739 15.7882
47 1 17.2665 10.2704 1.31456
257 2 16.8251 12.1319 4.29209
68 3 13.6913 7.01061 6.21202
49 1 17.6193 10.4567 5.08079
150 2 18.3813 10.0762 1.78618
154 2 18.1165 11.3344 5.60056
155 2 17.4922 10.6952 3.92097
236 4 20.7343 10.5084 0.615123
166 2 18.8951 8.48403 2.18927
156 2 18.061 9.32621 5.30479
237 1 20.2702 9.64029 2.356
240 2 19.5149 9.19079 0.649379
238 3 20.0499 11.9485 0.620891
241 2 20.0052 10.445 3.05523
212 3 20.5209 11.8892 7.31014
208 4 21.9763 11.141 7.14134
148 2 18.2622 8.3265 7.60512
46 1 17.3904 7.77182 7.2657
147 2 17.7036 7.04286 6.40543
272 2 16.5281 10.9162 1.94811
149 2 15.8379 8.54817 6.88007
87 3 16.5879 7.90279 2.63214
33 4 15.9999 10.0953 5.89814
30 4 16.2214 8.71337 1.25879
266 2 13.4094 6.84555 1.34356
271 2 14.566 9.18977 1.48545
94 3 15.7206 11.4591 6.71148
93 3 14.9075 10.0459 4.58434
151 2 14.1454 8.19658 2.94366
125 2 17.3115 10.6164 0.238004
88 3 16.1995 7.81806 15.6559
199 2 17.3194 12.6649 15.8379
83 3 15.3996 6.53204 9.02388
123 2 20.6193 9.9987 8.78504
108 3 18.6161 10.1543 12.369
176 2 19.793 12.2465 13.8974
264 2 21.2366 10.1802 14.7686
131 2 20.2621 11.7474 10.9775
40 4 20.0004 10.9783 12.5457
160 2 15.0964 10.0341 14.7183
95 3 17.2556 7.41344 12.4621
71 3 12.4794 7.17469 13.2345
128 2 15.9212 9.93448 13.1749
34 4 17.1906 9.31227 12.1423
162 2 13.6976 8.82926 15.4056
158 2 16.4153 9.7963 10.1079
50 1 15.8189 9.93402 11.2168
229 2 17.4857 7.5603 14.1542
27 4 16.918 6.53626 8.57514
86 3 18.0034 6.75728 9.88218
29 4 18.1082 6.51175 11.4735
159 2 15.0169 9.14807 11.3565
72 3 13.5733 7.3029 10.9548
120 2 15.4491 11.5169 11.7261
51 1 14.1681 9.34395 14.5276
161 2 14.4495 8.5356 13.7231
126 2 15.0623 11.0433 9.75083
146 2 19.754 7.20783 12.9183
91 3 13.5678 9.2615 8.13914
ITEM: TIMESTEP
300
ITEM: NUMBER OF ATOMS
274
ITEM: BOX BOUNDS xy xz yz pp pp pp
3.9321705521225159e-01 2.3333610217716760e+01 7.2029595090582639e+00
1.1575009082220096e-01 1.2717076734416871e+01 -3.1812655529780365e-01
1.5947396079707854e-01 1.5916026039202713e+01 -9.1731747610414409e-03
ITEM: ATOMS id type x y z
225 2 5.60877 2.93235 2.83609
54 1 8.40716 5.1325 6.39054
170 2 8.40694 6.24903 6.91245
223 2 3.95787 0.262323 1.82584
74 3 6.83946 1.04169 6.3766
256 2 7.98654 0.155899 3.66088
21 4 6.01714 2.08256 5.45245
242 1 3.12 0.141225 2.72731
39 4 9.81057 3.89292 6.90235
118 2 6.04129 1.17385 3.69392
142 2 4.55285 2.78645 1.48322
24 4 4.67498 5.13759 0.567748
141 2 4.41024 4.35059 3.34907
244 2 7.0696 1.61567 1.74512
81 3 4.56474 2.53654 5.53121
246 2 3.35173 2.61278 0.30112
143 2 3.03944 3.79654 1.56929
26 4 3.6292 3.62624 6.71094
44 1 4.1557 3.79758 1.72183
221 1 6.43823 2.39915 3.44191
243 2 2.64111 1.21128 3.11454
222 3 5.10524 0.372461 0.584169
85 3 4.35878 5.15496 6.08012
270 2 7.07754 3.40644 4.87963
224 2 7.53231 2.51313 3.0153
260 2 7.20752 5.57597 7.94706
28 4 3.92325 5.59455 4.61947
171 2 7.47663 4.46023 6.60689
169 2 8.62087 5.2997 5.3126
111 2 2.24471 0.324795 4.47577
45 1 4.34572 6.30548 11.9705
23 4 6.54199 2.4981 11.3519
117 2 5.04811 0.612339 8.95016
124 2 3.73733 4.79448 12.2455
20 4 4.44254 2.1634 9.34806
248 2 2.89541 1.01557 14.9378
42 1 2.00886 0.615735 12.2555
138 2 2.21784 1.12238 13.3386
247 2 2.29084 2.66867 14.241
76 3 6.21142 0.956974 11.7992
245 1 2.40744 1.98033 15.197
75 3 5.35955 3.02807 10.4827
8 4 1.59407 1.94925 10.9509
73 3 3.00132 1.91194 10.0688
99 3 8.22842 0.489646 8.67748
258 1 6.48283 5.88755 8.8754
105 3 9.18655 2.9371 8.15831
261 2 6.09692 4.98762 9.4509
100 3 7.96598 2.50761 10.5648
121 2 6.76148 3.42947 12.9011
179 4 6.96037 4.15714 14.5822
188 3 7.98883 3.22491 15.3205
183 1 7.62083 5.92158 14.4303
194 2 7.80872 4.8091 9.99211
196 2 8.12999 5.70232 13.3688
144 2 8.35579 5.87912 15.3684
77 3 5.47757 4.48248 15.3877
191 3 10.3765 5.52119 9.82922
36 4 8.77913 1.83441 9.25692
180 4 8.92194 1.74126 14.669
80 3 4.2753 3.0094 8.05677
192 3 9.39591 4.33295 12.1678
187 3 8.00337 0.775071 13.7267
182 4 9.15846 5.35217 10.8885
136 2 2.93099 0.0969558 11.8345
220 4 13.7669 12.5677 1.22827
265 2 10.6494 11.9863 3.51909
19 4 14.6113 12.4679 7.40633
41 1 7.85872 12.6767 7.02404
103 3 5.28268 6.46624 1.47786
133 2 8.874 11.9845 7.04895
16 4 12.7467 8.12464 7.21392
17 4 11.5138 10.4336 5.79272
70 3 11.8965 8.97373 6.25301
90 3 12.3272 10.7219 4.46771
115 2 12.1201 11.4844 6.97421
31 4 13.5796 10.3451 3.64807
152 2 12.837 8.61233 1.53176
48 1 13.1582 8.71125 2.63438
153 2 12.2717 8.36929 3.27827
69 3 9.86626 10.6518 5.59412
1 4 8.93227 11.7756 1.86272
3 3 9.53541 10.995 0.549348
89 3 13.8186 11.4538 2.42923
210 1 8.75791 8.04016 7.78212
168 2 7.56075 8.01891 4.94644
213 2 9.50758 7.98219 5.17249
253 2 10.0144 8.30313 1.17519
134 2 6.37501 9.01374 7.86582
193 2 11.6952 7.24625 0.264002
206 4 8.43725 10.1946 4.68109
2 3 8.4026 10.7793 3.19418
53 1 8.61507 8.30095 4.56148
130 2 8.79644 8.43391 3.32359
216 2 8.7136 8.15206 6.62864
104 3 4.71128 6.86752 4.04673
239 2 6.65344 10.1962 1.7101
38 4 4.99065 7.56913 2.53432
167 2 6.33205 8.80857 2.70785
211 3 6.80141 10.3231 5.64939
268 2 8.38019 8.5559 0.27197
274 2 9.87129 7.67969 8.04509
218 2 7.92794 7.2912 8.20956
140 2 9.36137 10.9838 12.9124
146 2 4.77879 6.68522 12.9394
92 3 12.9095 11.7921 8.38729
137 2 8.26573 12.6066 12.2143
195 2 12.113 12.0669 15.7131
67 3 11.5046 7.31122 8.3607
98 3 11.416 9.89738 14.8575
35 4 12.7848 10.1248 13.8093
96 3 12.3749 9.46621 12.0513
127 2 12.6048 10.047 10.4677
15 4 9.83697 10.0206 15.1355
139 2 9.37869 9.22901 12.86
18 4 12.4174 7.89881 11.9076
198 2 14.8457 12.3302 15.8319
97 3 13.2933 11.7051 13.7174
22 4 14.187 12.5011 12.7498
32 4 13.5098 10.4632 9.00533
203 2 9.11342 7.98567 10.7232
186 1 8.95701 7.19925 11.4672
116 2 10.8508 7.50169 11.1323
219 2 8.49437 9.03619 8.2411
215 2 7.08104 6.58186 9.64004
43 1 8.94527 10.1264 13.4062
132 2 5.61758 9.16006 13.0431
197 2 6.81518 6.65407 14.4181
205 2 7.78013 7.03001 11.7265
252 2 9.42825 7.64458 15.1344
269 2 7.77934 10.1271 13.4135
251 1 9.14239 8.3747 15.9005
204 2 9.57175 7.33768 12.3439
157 2 7.02849 9.21226 9.70346
209 1 6.57694 9.74313 8.81501
217 2 7.71844 10.8223 8.56477
145 2 5.07249 6.41122 11.0485
122 2 5.60088 6.45341 8.46177
267 2 12.6506 5.39723 1.12842
107 3 11.0261 4.83825 7.39951
233 2 11.0842 1.24344 1.2024
231 1 12.5711 2.50907 0.273365
119 2 9.17917 1.40221 4.29149
254 1 9.11103 0.448265 3.73004
255 2 9.53076 0.446608 2.62551
234 2 12.4351 3.48689 0.916947
207 4 12.5817 0.655654 7.58177