LAMMPS (2 Aug 2023 - Update 2)
  using 6 OpenMP thread(s) per MPI task

# variable T index 300 400 500  #
# label T_loop

# Initialization
units           real
dimension       3
boundary        p p p
atom_style      full
timestep        0.5   # fs

variable       Tl equal 900.0   # low temperature
variable       Th equal 2100.0  # high temperature
variable       Td equal 50.0  # damping time
variable       P equal 1.0  # pressure
variable       Ph equal 1.0  # pressure
variable       Pd equal 10*${Td}  # pressure
variable       Pd equal 10*50  

variable       nevery equal 1000
variable       nrepeat equal 1
variable       nfreq equal ${nevery}*${nrepeat}
variable       nfreq equal 1000*${nrepeat}
variable       nfreq equal 1000*1
variable       nthermo equal ${nfreq}/10
variable       nthermo equal 1000/10
variable       nequil equal 100*${nthermo}  # 50
variable       nequil equal 100*100  
# variable       nheat equal (${Th}-${Tl})*${nrun}   # 1800
variable       nheat equal 1200*${nthermo}   # 1800
variable       nheat equal 1200*100   


# Read the initial sctructure
# box tilt large
variable structure string SiO2
read_data       ${structure}.data
read_data       SiO2.data
Reading data file ...
  triclinic box = (0 0 0) to (14.6913 12.723 15.9631) with tilt (-7.3456 0 0)
WARNING: Triclinic box skew is large. LAMMPS will run inefficiently. (src/domain.cpp:220)
  1 by 1 by 2 MPI processor grid
  reading atoms ...
  243 atoms
Finding 1-2 1-3 1-4 neighbors ...
  special bond factors lj:    0        0        0       
  special bond factors coul:  0        0        0       
     0 = max # of 1-2 neighbors
     0 = max # of 1-3 neighbors
     0 = max # of 1-4 neighbors
     1 = max # of special neighbors
  special bonds CPU = 0.000 seconds
  read_data CPU = 0.005 seconds

# Assign the force field
pair_style reaxff NULL safezone 3.0 mincap 150
# pair_coeff * * CHONSSi.ff O Si
# pair_coeff * * CHOSiNa.ff O Si
# pair_coeff * * SiOCHN_2018.ff C H O Si
# pair_coeff * * PDMSDecomp.ff Si O
# pair_coeff * * CHONSi.ff C H O Si
pair_coeff * * CHOFe.ff O Si
WARNING: Van der Waals parameters for element SI indicate inner wall+shielding, but earlier atoms indicate a different van der Waals method. This may cause division-by-zero errors. Keeping van der Waals setting for earlier atoms. (src/REAXFF/reaxff_ffield.cpp:251)
WARNING: Van der Waals parameters for element AL indicate inner wall+shielding, but earlier atoms indicate a different van der Waals method. This may cause division-by-zero errors. Keeping van der Waals setting for earlier atoms. (src/REAXFF/reaxff_ffield.cpp:251)
WARNING: Changed valency_val to valency_boc for X (src/REAXFF/reaxff_ffield.cpp:296)

fix myqeq all qeq/reaxff 1 0.0 10.0 1.0e-6 reaxff maxiter 400

neighbor        2 bin
neigh_modify    every 10 delay 0 check yes

# Energy minimization
print "##### Minimization starts.##### "
##### Minimization starts.##### 
# fix min1 all nve
minimize 1.0e-6 1.0e-6 100 1000

CITE-CITE-CITE-CITE-CITE-CITE-CITE-CITE-CITE-CITE-CITE-CITE-CITE

Your simulation uses code contributions which should be cited:

- pair reaxff command: doi:10.1016/j.parco.2011.08.005

@Article{Aktulga12,
 author = {H. M. Aktulga and J. C. Fogarty and S. A. Pandit and A. Y. Grama},
 title = {Parallel Reactive Molecular Dynamics: {N}umerical Methods and Algorithmic Techniques},
 journal = {Parallel Computing},
 year =    2012,
 volume =  38,
 number =  {4--5},
 pages =   {245--259}
}

- fix qeq/reaxff command: doi:10.1016/j.parco.2011.08.005

@Article{Aktulga12,
 author = {H. M. Aktulga and J. C. Fogarty and S. A. Pandit and A. Y. Grama},
 title = {Parallel Reactive Molecular Dynamics: {N}umerical Methods and Algorithmic Techniques},
 journal = {Parallel Computing},
 year =    2012,
 volume =  38,
 pages =   {245--259}
}

CITE-CITE-CITE-CITE-CITE-CITE-CITE-CITE-CITE-CITE-CITE-CITE-CITE

Switching to 'neigh_modify every 1 delay 0 check yes' setting during minimization
Neighbor list info ...
  update: every = 1 steps, delay = 0 steps, check = yes
  max neighbors/atom: 2000, page size: 100000
  master list distance cutoff = 12
  ghost atom cutoff = 12
  binsize = 6, bins = 4 3 3
  2 neighbor lists, perpetual/occasional/extra = 2 0 0
  (1) pair reaxff, perpetual
      attributes: half, newton off, ghost
      pair build: half/bin/newtoff/ghost
      stencil: full/ghost/bin/3d
      bin: standard
  (2) fix qeq/reaxff, perpetual, copy from (1)
      attributes: half, newton off
      pair build: copy
      stencil: none
      bin: none
Per MPI rank memory allocation (min/avg/max) = 162.6 | 162.7 | 162.7 Mbytes
   Step          Temp          E_pair         E_mol          TotEng         Press     
         0   0             -36881.566      0             -36881.566      18239.168    
         6   0             -36912.748      0             -36912.748      10420.016    
Loop time of 2.26701 on 12 procs for 6 steps with 243 atoms

97.4% CPU use with 2 MPI tasks x 6 OpenMP threads

Minimization stats:
  Stopping criterion = energy tolerance
  Energy initial, next-to-last, final = 
     -36881.5659863067  -36912.7480342258  -36912.7481388811
  Force two-norm initial, final = 103.62827 45.838785
  Force max component initial, final = 10.335104 4.0136737
  Final line search alpha, max atom move = 3.5666438e-09 1.4315345e-08
  Iterations, force evaluations = 6 55

MPI task timing breakdown:
Section |  min time  |  avg time  |  max time  |%varavg| %total
---------------------------------------------------------------
Pair    | 1.8265     | 1.8596     | 1.8928     |   2.4 | 82.03
Bond    | 9.946e-05  | 0.00010508 | 0.0001107  |   0.0 |  0.00
Neigh   | 0          | 0          | 0          |   0.0 |  0.00
Comm    | 0.0062862  | 0.039424   | 0.072562   |  16.7 |  1.74
Output  | 0          | 0          | 0          |   0.0 |  0.00
Modify  | 0.3666     | 0.3666     | 0.3666     |   0.0 | 16.17
Other   |            | 0.001238   |            |       |  0.05

Nlocal:          121.5 ave         126 max         117 min
Histogram: 1 0 0 0 0 0 0 0 0 1
Nghost:         3928.5 ave        3933 max        3924 min
Histogram: 1 0 0 0 0 0 0 0 0 1
Neighs:          66020 ave       68259 max       63781 min
Histogram: 1 0 0 0 0 0 0 0 0 1

Total # of neighbors = 132040
Ave neighs/atom = 543.37449
Ave special neighs/atom = 0
Neighbor list builds = 0
Dangerous builds = 0
# unfix min1
# Save the optimized structure
write_data ${structure}_opt.data
write_data SiO2_opt.data
System init for write_data ...

# Print system info
thermo          ${nthermo}
thermo          100
thermo_style    custom step temp press density vol pe etotal

reset_timestep 0

# equilibration at low T
print "##### Equilibration starts.##### "
##### Equilibration starts.##### 
velocity        all create ${Tl} 12345
velocity        all create 900 12345
fix             equil1 all npt temp ${Tl} ${Tl} ${Td} tri ${Ph} ${Ph} ${Pd}
fix             equil1 all npt temp 900 ${Tl} ${Td} tri ${Ph} ${Ph} ${Pd}
fix             equil1 all npt temp 900 900 ${Td} tri ${Ph} ${Ph} ${Pd}
fix             equil1 all npt temp 900 900 50 tri ${Ph} ${Ph} ${Pd}
fix             equil1 all npt temp 900 900 50 tri 1 ${Ph} ${Pd}
fix             equil1 all npt temp 900 900 50 tri 1 1 ${Pd}
fix             equil1 all npt temp 900 900 50 tri 1 1 500
# 1 ps = 1e3 fs / 0.5 fs = 2e3 steps = 20 nruns
# Save trajectory
dump dump1 all custom ${nthermo} dump/dump_eq.lammpstrj id type x y z q
dump dump1 all custom 100 dump/dump_eq.lammpstrj id type x y z q
run             ${nequil}
run             10000
Per MPI rank memory allocation (min/avg/max) = 161.5 | 161.5 | 161.6 Mbytes
   Step          Temp          Press         Density         Volume         PotEng         TotEng    
         0   900            20366.522      2.8878482      2983.7813     -36912.748     -36263.528    
       100   447.56253     -19663.736      2.8177981      3057.9576     -36493.488     -36170.636    
       200   582.82498      5558.747       2.7732465      3107.0831     -36475.012     -36054.588    
       300   656.31312      6515.5867      2.6634408      3235.1789     -36386.295     -35912.859    
       400   810.2802      -6576.6643      2.5713918      3350.9896     -36308.207     -35723.706    
       500   841.81598     -7277.5783      2.5461949      3384.1507     -36175.567     -35568.318    
       600   940.8282       9356.1298      2.5572661      3369.4997     -36145.48      -35466.808    
       700   935.64774     -160.79855      2.5605092      3365.232      -36107.119     -35432.183    
       800   895.68647      1114.8255      2.5602757      3365.5389     -36121.188     -35475.079    
       900   882.51018      6809.2694      2.5584869      3367.892      -36178.439     -35541.835    
      1000   856.28431     -3945.584       2.5683942      3354.9007     -36203.224     -35585.538    
      1100   850.78589      1089.2527      2.5954395      3319.9415     -36221.419     -35607.699    
      1200   896.4445       6031.2503      2.6031969      3310.0483     -36229.938     -35583.283    
      1300   925.38652      688.74625      2.5830482      3335.8679     -36192.019     -35524.486    
      1400   883.74695     -6760.096       2.5598016      3366.1622     -36104.128     -35466.631    
      1500   977.16909      3482.1258      2.5665837      3357.2673     -36168.303     -35463.416    
      1600   890.11659     -3286.8312      2.5490892      3380.3083     -36168.844     -35526.753    
      1700   866.48922     -12321.723      2.5355228      3398.3947     -36200.738     -35575.691    
      1800   848.30685      14845.615      2.5943393      3321.3494     -36187.039     -35575.108    
      1900   972.32351      3524.402       2.6246057      3283.0483     -36205.399     -35504.008    
      2000   893.11615     -4954.7209      2.5956913      3319.6195     -36136.774     -35492.52     
      2100   939.5119       3755.0737      2.5720523      3350.1291     -36205.086     -35527.363    
      2200   885.41681      2128.0398      2.5559499      3371.2349     -36243.341     -35604.64     
      2300   874.99131     -5823.9245      2.5542515      3373.4764     -36230.959     -35599.779    
      2400   937.46854      1520.2825      2.5725446      3349.488      -36219.47      -35543.221    
      2500   859.44204      8380.4302      2.5837324      3334.9845     -36132.217     -35512.253    
      2600   911.01704     -2960.7073      2.5761156      3344.845      -36163.629     -35506.461    
      2700   885.67233     -6183.9809      2.5671994      3356.4621     -36162.496     -35523.611    
      2800   877.36501      4670.5649      2.5995178      3314.733      -36188.208     -35555.316    
      2900   809.76493      5287.9406      2.649158       3252.6212     -36251.116     -35666.988    
      3000   857.28629      1193.1316      2.6573437      3242.6017     -36298.656     -35680.248    
      3100   902.20452     -2861.305       2.6266104      3280.5427     -36261.791     -35610.98     
      3200   877.94896     -3630.057       2.594469       3321.1834     -36177.756     -35544.442    
      3300   928.20072      4146.6217      2.5908101      3325.8738     -36183.555     -35513.992    
      3400   856.02199      16.284993      2.5764522      3344.408      -36143.549     -35526.053    
      3500   897.20876      2400.23        2.5538449      3374.0136     -36220.288     -35573.081    
      3600   887.18179     -9812.6372      2.5323873      3402.6025     -36263.131     -35623.157    
      3700   871.53898     -4629.4592      2.5518216      3376.6888     -36221.911     -35593.221    
      3800   959.44299      1330.4311      2.5875858      3330.018      -36191.108     -35499.008    
      3900   955.45572      1320.5581      2.5979458      3316.7387     -36180.979     -35491.756    
      4000   899.86592      717.29373      2.5916779      3324.7601     -36167.282     -35518.158    
      4100   882.11171      397.37827      2.5764914      3344.3571     -36217.113     -35580.796    
      4200   830.97529     -8568.4706      2.5474102      3382.5362     -36206.895     -35607.466    
      4300   906.96434     -4636.3184      2.556216       3370.884      -36226.253     -35572.009    
      4400   918.89763      7886.5492      2.5806739      3338.937      -36210.805     -35547.953    
      4500   840.73369      2494.6388      2.5520076      3376.4427     -36139.658     -35533.19     
      4600   970.32292     -7381.5034      2.5431744      3388.1701     -36200.25      -35500.302    
      4700   984.30201      11024.705      2.5690918      3353.9897     -36184.89      -35474.858    
      4800   981.84425      6433.6384      2.5650791      3359.2366     -36156.359     -35448.099    
      4900   905.46595     -261.47284      2.557014       3369.832      -36147.027     -35493.864    
      5000   874.88722     -2523.9662      2.5651357      3359.1625     -36186.985     -35555.879    
      5100   849.66458     -2001.0306      2.574559       3346.8673     -36203.82      -35590.909    
      5200   868.59619     -2035.0616      2.5808441      3338.7167     -36212.306     -35585.739    
      5300   943.63569     -346.57464      2.5966247      3318.4262     -36185.341     -35504.643    
      5400   981.7355       7201.7487      2.6150407      3295.0567     -36159.095     -35450.914    
      5500   935.82288     -1827.0948      2.5926779      3323.4778     -36166.33      -35491.269    
      5600   833.31776     -6114.3268      2.5462922      3384.0215     -36149.568     -35548.45     
      5700   874.98117      143.97995      2.5578662      3368.7091     -36193.759     -35562.586    
      5800   879.5835       13777.211      2.5878412      3329.6894     -36166.527     -35532.035    
      5900   1003.4336     -5269.9908      2.552354       3375.9844     -36164.604     -35440.771    
      6000   964.70086     -9547.3074      2.5130556      3428.777      -36114.344     -35418.451    
      6100   915.75395     -824.97935      2.5527396      3375.4744     -36188.571     -35527.987    
      6200   841.71046      3570.4124      2.601658       3312.0062     -36176.433     -35569.26     
      6300   892.61621      7230.8061      2.6051032      3307.6261     -36208.062     -35564.168    
      6400   854.04175     -6370.1889      2.5708394      3351.7096     -36155.43      -35539.362    
      6500   944.9679      -154.24369      2.5753683      3345.8156     -36140.15      -35458.491    
      6600   841.25313      3871.1027      2.5746406      3346.7613     -36086.028     -35479.185    
      6700   927.57953     -3375.5454      2.5554159      3371.9393     -36181.2       -35512.085    
      6800   887.88262     -4333.0275      2.5527279      3375.49       -36177.46      -35536.98     
      6900   927.82406      6910.2946      2.5540821      3373.7002     -36214.053     -35544.761    
      7000   837.98464     -2833.3739      2.5390607      3393.6595     -36154.351     -35549.866    
      7100   890.78895     -2760.5087      2.5509753      3377.809      -36164.998     -35522.422    
      7200   945.6434       7652.3746      2.5768306      3343.917      -36156.744     -35474.599    
      7300   937.46497      4502.4098      2.5614156      3364.0411     -36142.843     -35466.597    
      7400   898.44818     -6285.6528      2.5474268      3382.5142     -36199.396     -35551.295    
      7500   886.31793      1958.7665      2.5910052      3325.6233     -36219.677     -35580.326    
      7600   888.42973      6250.4574      2.6145673      3295.6533     -36204.305     -35563.431    
      7700   911.18801     -2037.5217      2.6176243      3291.8045     -36187.061     -35529.77     
      7800   936.68073     -140.26442      2.6046633      3308.1847     -36142.97      -35467.29     
      7900   973.19124      2573.2837      2.560917       3364.6961     -36137.461     -35435.444    
      8000   854.04999     -10547.859      2.5370301      3396.3757     -36126.1       -35510.026    
      8100   835.59647      2424.0052      2.5704267      3352.2479     -36155.553     -35552.791    
      8200   888.80107      5249.9219      2.5896354      3327.3824     -36195.081     -35553.939    
      8300   951.85386     -2812.9268      2.5600039      3365.8961     -36229.268     -35542.643    
      8400   926.59835     -12917.041      2.5465607      3383.6646     -36154.058     -35485.65     
      8500   965.15495      4289.5784      2.5896199      3327.4024     -36128.635     -35432.415    
      8600   940.72568      5128.5793      2.6077231      3304.303      -36168.672     -35490.073    
      8700   885.34779     -7269.7472      2.6001079      3313.9807     -36183.666     -35545.015    
      8800   882.25666      13701.403      2.635601       3269.352      -36206.852     -35570.431    
      8900   897.01167      10311.988      2.642785       3260.4648     -36247.353     -35600.288    
      9000   840.11701     -4098.3609      2.6072224      3304.9376     -36217.463     -35611.44     
      9100   903.18625     -860.09724      2.6079059      3304.0714     -36218.423     -35566.904    
      9200   848.97401      10747.604      2.608634       3303.1492     -36118.154     -35505.741    
      9300   947.71612     -1807.7943      2.5642917      3360.268      -36180.39      -35496.749    
      9400   875.39999     -6378.0876      2.5438806      3387.2295     -36161.458     -35529.983    
      9500   835.88085      681.29295      2.5622871      3362.8969     -36214.08      -35611.113    
      9600   828.11678      1348.5506      2.5835924      3335.1652     -36206.868     -35609.501    
      9700   842.69083     -3005.1443      2.601937       3311.6511     -36190.924     -35583.044    
      9800   866.63859     -5604.1031      2.6064876      3305.8693     -36172.753     -35547.598    
      9900   950.44192     -3185.7885      2.6337482      3271.6519     -36212.615     -35527.008    
     10000   902.9776       8140.4627      2.6782837      3217.2497     -36215.59      -35564.221    
Loop time of 330.857 on 12 procs for 10000 steps with 243 atoms

Performance: 1.306 ns/day, 18.381 hours/ns, 30.225 timesteps/s, 7.345 katom-step/s
98.9% CPU use with 2 MPI tasks x 6 OpenMP threads

MPI task timing breakdown:
Section |  min time  |  avg time  |  max time  |%varavg| %total
---------------------------------------------------------------
Pair    | 288.36     | 290.2      | 292.03     |  10.8 | 87.71
Bond    | 0.019369   | 0.020082   | 0.020794   |   0.5 |  0.01
Neigh   | 2.0857     | 2.0896     | 2.0936     |   0.3 |  0.63
Comm    | 1.4084     | 3.251      | 5.0935     | 102.2 |  0.98
Output  | 0.036061   | 0.036766   | 0.037471   |   0.4 |  0.01
Modify  | 35.101     | 35.11      | 35.119     |   0.1 | 10.61
Other   |            | 0.1541     |            |       |  0.05

Nlocal:          121.5 ave         123 max         120 min
Histogram: 1 0 0 0 0 0 0 0 0 1
Nghost:           3802 ave        3835 max        3769 min
Histogram: 1 0 0 0 0 0 0 0 0 1
Neighs:        60992.5 ave       61618 max       60367 min
Histogram: 1 0 0 0 0 0 0 0 0 1

Total # of neighbors = 121985
Ave neighs/atom = 501.99588
Ave special neighs/atom = 0
Neighbor list builds = 88
Dangerous builds = 0
undump dump1
reset_timestep  0

# Heat to high T
print "##### Heat starts.##### "
##### Heat starts.##### 
# out put bonds and species information
fix bondinfo all reaxff/bonds ${nthermo} bonds/bonds.reaxff
fix bondinfo all reaxff/bonds 100 bonds/bonds.reaxff
# fix speciesinfo all reaxff/species ${nevery} ${nrepeat} ${nthermo} bonds/species.out

# compute MSD and RDF
compute msd1 all msd
fix myMSD all ave/time ${nthermo} 1 ${nthermo} c_msd1[1] c_msd1[2] c_msd1[3] c_msd1[4] c_thermo_temp     file msd.out     title2 "# TimeStep MSD_X MSD_Y MSD_Z MSD_Total Temperture"
fix myMSD all ave/time 100 1 ${nthermo} c_msd1[1] c_msd1[2] c_msd1[3] c_msd1[4] c_thermo_temp     file msd.out     title2 "# TimeStep MSD_X MSD_Y MSD_Z MSD_Total Temperture"
fix myMSD all ave/time 100 1 100 c_msd1[1] c_msd1[2] c_msd1[3] c_msd1[4] c_thermo_temp     file msd.out     title2 "# TimeStep MSD_X MSD_Y MSD_Z MSD_Total Temperture"
# C-C C-Si Si-O C-H Si-Si
compute rdf1 all rdf 100 1 2 2 2 1 1 cutoff 5.0
fix myRDF all ave/time ${nthermo} 1 ${nthermo} c_rdf1[*]     file rdf.out mode vector     title3 "# Row r g1(r) coor1(r) ..."
fix myRDF all ave/time 100 1 ${nthermo} c_rdf1[*]     file rdf.out mode vector     title3 "# Row r g1(r) coor1(r) ..."
fix myRDF all ave/time 100 1 100 c_rdf1[*]     file rdf.out mode vector     title3 "# Row r g1(r) coor1(r) ..."

unfix           equil1
fix             heat1 all nvt temp ${Tl} ${Th} ${Td}
fix             heat1 all nvt temp 900 ${Th} ${Td}
fix             heat1 all nvt temp 900 2100 ${Td}
fix             heat1 all nvt temp 900 2100 50
thermo_style    custom step temp press pe etotal
dump dump2 all custom ${nthermo} dump/dump_heat.lammpstrj   id   type   x   y   z   q
dump dump2 all custom 100 dump/dump_heat.lammpstrj   id   type   x   y   z   q

run             ${nheat}
run             120000
WARNING: Compute rdf cutoff less than neighbor cutoff - forcing a needless neighbor list build (src/compute_rdf.cpp:179)
Neighbor list info ...
  update: every = 10 steps, delay = 0 steps, check = yes
  max neighbors/atom: 2000, page size: 100000
  master list distance cutoff = 12
  ghost atom cutoff = 12
  binsize = 6, bins = 4 3 3
  3 neighbor lists, perpetual/occasional/extra = 2 1 0
  (1) pair reaxff, perpetual
      attributes: half, newton off, ghost
      pair build: half/bin/newtoff/ghost
      stencil: full/ghost/bin/3d
      bin: standard
  (2) compute rdf, occasional
      attributes: half, newton on, cut 7
      pair build: half/bin/newton/tri
      stencil: half/bin/3d/tri
      bin: standard
  (3) fix qeq/reaxff, perpetual, copy from (1)
      attributes: half, newton off
      pair build: copy
      stencil: none
      bin: none
Per MPI rank memory allocation (min/avg/max) = 168.5 | 168.5 | 168.5 Mbytes
   Step          Temp          Press          PotEng         TotEng    
         0   902.9776       8140.3322     -36215.59      -35564.221    
       100   913.92615      8600.9005     -36241.134     -35581.868    
       200   865.21039      5076.9344     -36268.134     -35644.009    
       300   849.90926      7377.3887     -36294.672     -35681.585    
       400   926.4627       2970.694      -36295.237     -35626.928    
       500   868.43959      5271.903      -36222.264     -35595.81     
       600   852.07213      7537.9337     -36184.93      -35570.282    
       700   956.17949      12659.952     -36223.912     -35534.166    
       800   942.25966      1982.9186     -36244.745     -35565.04     
       900   909.47623      2410.9203     -36300.539     -35644.483    
      1000   856.06688      8027.651      -36266.131     -35648.602    
      1100   910.78684      10935.209     -36260.407     -35603.406    
      1200   898.73069      11945.324     -36215.544     -35567.239    
      1300   943.85082      10908.766     -36223.955     -35543.103    
      1400   892.95609      8065.5873     -36182.329     -35538.19     
      1500   885.21554      11499.276     -36220.894     -35582.338    
      1600   848.88219      953.60287     -36248.383     -35636.036    
      1700   877.02273      2318.5595     -36258.777     -35626.131    
      1800   972.85508      1743.9705     -36249.289     -35547.514    
      1900   1001.1809      2486.0662     -36236.73      -35514.522    
      2000   962.03479      11057.107     -36221.668     -35527.699    
      2100   958.04103      13835.279     -36242.252     -35551.163    
      2200   882.05045      3525.8431     -36204.318     -35568.046    
      2300   961.76982      7167.0338     -36258.645     -35564.867    
      2400   892.50968      12917.184     -36214.81      -35570.993    
      2500   922.29662      13090.932     -36219.611     -35554.307    
      2600   916.34236      6118.1225     -36203.915     -35542.906    
      2700   1010.7847      5720.837      -36250.451     -35521.316    
      2800   932.69947      17035.667     -36181.704     -35508.895    
      2900   897.24729      10355.794     -36191.143     -35543.908    
      3000   932.85858      3635.7458     -36247.431     -35574.508    
      3100   852.32374      1160.0369     -36236.314     -35621.486    
      3200   877.88011      7475.3684     -36257.128     -35623.864    
      3300   918.45515      2611.1421     -36195.92      -35533.387    
      3400   1022.9621      4088.501      -36236.364     -35498.444    
      3500   894.88727      13437.153     -36179.677     -35534.144    
      3600   862.3068       11362.791     -36202.122     -35580.091    
      3700   908.71466      11020.848     -36259.216     -35603.709    
      3800   919.18276      2496.0379     -36277.359     -35614.301    
      3900   940.34333      10526.203     -36223.627     -35545.305    
      4000   977.77576      5031.8468     -36198.749     -35493.425    
      4100   899.4081       2862.8467     -36135.38      -35486.587    
      4200   929.93792      5288.7241     -36199.111     -35528.295    
      4300   847.8799       7585.2485     -36208.507     -35596.884    
      4400   845.01539      3670.7778     -36231.655     -35622.098    
      4500   979.2866       14584.235     -36246.692     -35540.278    
      4600   910.52029      8110.881      -36141.154     -35484.345    
      4700   944.88397      6672.487      -36149.488     -35467.89     
      4800   939.41833      19411.108     -36166.409     -35488.754    
      4900   932.76265      1243.3429     -36233.718     -35560.864    
      5000   854.18878     -326.48194     -36208.216     -35592.041    
      5100   913.31975      11945.932     -36221.087     -35562.258    
      5200   926.04617      2195.5756     -36197.245     -35529.236    
      5300   931.30998      3858.7585     -36174.943     -35503.137    
      5400   918.01289      7833.6256     -36146.161     -35483.947    
      5500   1029.5156      17391.189     -36214.925     -35472.277    
      5600   941.29931      11634.952     -36244.916     -35565.904    
      5700   937.83867      12701.53      -36274.246     -35597.73     
      5800   928.59585      9826.5134     -36211.429     -35541.581    
      5900   899.131       -5013.2128     -36145.619     -35497.026    
      6000   1013.3467      15263.446     -36199.897     -35468.914    
      6100   999.60232      11034.7       -36221.234     -35500.165    
      6200   945.09652      7360.3662     -36212.328     -35530.577    
      6300   949.04569      4265.2816     -36210.048     -35525.448    
      6400   975.98083      21797.65      -36207.935     -35503.906    
      6500   973.46068      21826.987     -36195.208     -35492.996    
      6600   961.46801      14646.729     -36172.218     -35478.657    
      6700   970.133        9877.8265     -36174.437     -35474.626    
      6800   1005.3248      10281.504     -36201.848     -35476.651    
      6900   905.88682      11609.952     -36127.966     -35474.499    
      7000   952.90856      17683.493     -36137.768     -35450.382    
      7100   1055.1762      27146.154     -36181.034     -35419.876    
      7200   958.97745      11995.971     -36118.366     -35426.602    
      7300   1001.1378      17131.603     -36227.409     -35505.232    
      7400   902.84896      11555.186     -36217.148     -35565.873    
      7500   994.96324      1087.1075     -36252.193     -35534.47     
      7600   1017.7246      6296.0402     -36215.312     -35481.17     
      7700   951.18449      28392.829     -36147.762     -35461.62     
      7800   1067.0035      15475.051     -36209.508     -35439.818    
      7900   968.16003      14211.641     -36158.12      -35459.732    
      8000   876.52757      20152.441     -36181.288     -35549        
      8100   920.90125      7345.2288     -36245.855     -35581.557    
      8200   924.47212      11527.338     -36193.329     -35526.455    
      8300   971.3442       18886.594     -36175.422     -35474.737    
      8400   1060.3593      3449.949      -36215.068     -35450.171    
      8500   987.73466      11680.483     -36147.773     -35435.265    
      8600   1102.2446      15713.103     -36225.69      -35430.579    
      8700   870.40653      17089.806     -36110.516     -35482.643    
      8800   984.69997      11320.143     -36233.878     -35523.559    
      8900   958.72854      19966.197     -36218.983     -35527.398    
      9000   986.10597      9026.4875     -36135.981     -35424.647    
      9100   1072.1915      20752.527     -36148.031     -35374.599    
      9200   1015.9698      11220.92      -36145.45      -35412.574    
      9300   1034.8439      14214.472     -36196.44      -35449.949    
      9400   953.22877      21528.369     -36172.274     -35484.657    
      9500   968.7352       10736.783     -36219.988     -35521.185    
      9600   930.4844       13529.5       -36221.735     -35550.525    
      9700   1037.5476      7155.1298     -36219.698     -35471.257    
      9800   1031.4023      10730.164     -36169.334     -35425.326    
      9900   1012.5606      19918.47      -36141.273     -35410.856    
     10000   1044.9979      23603.431     -36147.819     -35394.003    
     10100   964.31256      15755.597     -36058.394     -35362.782    
     10200   972.61797      25550.573     -36097.197     -35395.593    
     10300   938.03933      18768.823     -36147.631     -35470.971    
     10400   1033.5971      12375.228     -36231.189     -35485.597    
     10500   1015.5839      4320.0502     -36187.655     -35455.057    
     10600   1008.5967      9586.536      -36074.294     -35346.737    
     10700   1061.786       16465.036     -36090.392     -35324.466    
     10800   1034.2537      13642.573     -36128.075     -35382.01     
     10900   1013.7263      12693.666     -36180.191     -35448.933    
     11000   966.73689      14135.545     -36171.7       -35474.339    
     11100   981.19355      9744.8482     -36143.43      -35435.64     
     11200   1019.5211      11013.937     -36132.071     -35396.633    
     11300   1040.7122      6896.3009     -36147.713     -35396.989    
     11400   1018.1384      3624.537      -36141.256     -35406.816    
     11500   955.98503      14772.863     -36123.064     -35433.458    
     11600   969.22153      11347.05      -36178.687     -35479.533    
     11700   918.09815      4557.5752     -36206.269     -35543.994    
     11800   950.26377      19713.92      -36194.934     -35509.455    
     11900   1069.1996      9642.3208     -36189.269     -35417.996    
     12000   1055.8609      5126.5533     -36150.07      -35388.418    
     12100   1093.5651      6512.0273     -36156.797     -35367.947    
     12200   1022.8879      17216.155     -36119.89      -35382.024    
     12300   975.55666      8461.8932     -36158.8       -35455.076    
     12400   1018.9932      14264.691     -36228.827     -35493.77     
     12500   1008.4277      23425.495     -36180.303     -35452.868    
     12600   1089.7065      13011.577     -36146.381     -35360.315    
     12700   1077.8816      23935.152     -36124.99      -35347.453    
     12800   1074.7167      26648.282     -36145.115     -35369.861    
     12900   966.09841      20190.467     -36126.453     -35429.552    
     13000   961.70244      15665.891     -36150.964     -35457.234    
     13100   1069.8298      19795.402     -36159.741     -35388.013    
     13200   1086.8589      19226.11      -36097.685     -35313.672    
     13300   1073.882       12843.411     -36104.008     -35329.357    
     13400   1083.9652      5278.1674     -36181.765     -35399.84     
     13500   978.7255       14454.828     -36139.711     -35433.701    
     13600   1087.1659      11581.335     -36202.986     -35418.753    
     13700   1028.4324      8003.7239     -36142.636     -35400.771    
     13800   1002.4148      4749.5569     -36110.844     -35387.747    
     13900   1060.318       14214.434     -36138.839     -35373.972    
     14000   1067.5231      11957.585     -36134.981     -35364.917    
     14100   1073.5037      17978.52      -36070.554     -35296.176    
     14200   1120.7552      9466.8804     -36058.778     -35250.315    
     14300   1065.771       23207.438     -36089.245     -35320.445    
     14400   1012.5974      17732.126     -36125.678     -35395.235    
     14500   1008.5909      12328.325     -36124.218     -35396.665    
     14600   1090.0888      23411.133     -36152.215     -35365.873    
     14700   1116.2547      15792.975     -36117.084     -35311.866    
     14800   1206.8563      15489.959     -36096.807     -35226.234    
     14900   1066.1256      12529.491     -36058.994     -35289.938    
     15000   978.9035       24532.552     -36059.886     -35353.748    
     15100   1053.5652      10275.617     -36128.474     -35368.479    
     15200   1069.7307      7191.9217     -36165.456     -35393.8      
     15300   1059.3392      21198.224     -36144.975     -35380.815    
     15400   1148.5744      14717.803     -36119.631     -35291.1      
     15500   1029.2456      24644.814     -36014.002     -35271.549    
     15600   1146.8084      21082.56      -36150.685     -35323.428    
     15700   981.4448       17306.961     -36137.013     -35429.042    
     15800   1058.1937      13167.734     -36149.845     -35386.511    
     15900   1104.6144      12649.962     -36120.553     -35323.732    
     16000   1044.1751      13703.964     -36062.738     -35309.516    
     16100   1103.4142      12536.527     -36154.082     -35358.127    
     16200   989.37515      7149.848      -36145.385     -35431.693    
     16300   942.01626      25169.202     -36129.26      -35449.731    
     16400   1005.0156      11962.382     -36126.402     -35401.428    
     16500   1134.3059      12583.894     -36124.44      -35306.201    
     16600   1081.3289      12621.14      -36062.38      -35282.357    
     16700   1157.9439      24380.672     -36124.29      -35289        
     16800   1034.3605      20794.589     -36124         -35377.858    
     16900   962.70278      16893.31      -36113.553     -35419.101    
     17000   1013.1146      11359.016     -36105.932     -35375.116    
     17100   1104.6303      15515.792     -36133.808     -35336.976    
     17200   1068.2996      16866.182     -36082.938     -35312.314    
     17300   1142.4851      17009.713     -36148.472     -35324.334    
     17400   1013.7386      15138.749     -36122.141     -35390.875    
     17500   886.41729      3731.9699     -36118.543     -35479.121    
     17600   1030.9186      11357.262     -36165.73      -35422.07     
     17700   1040.8257      11173.923     -36092.009     -35341.204    
     17800   1030.6677      10486.371     -36069.087     -35325.609    
     17900   1115.444       8286.0711     -36109.239     -35304.606    
     18000   1126.2778      10914.67      -36076.07      -35263.623    
     18100   1193.0555      10892.772     -36086.948     -35226.331    
     18200   1074.7042      31892.209     -36072.735     -35297.491    
     18300   1103.8333      8717.852      -36170.926     -35374.669    
     18400   989.6014       14837.14      -36087.202     -35373.347    
     18500   1110.7476      10557.806     -36114.924     -35313.679    
     18600   1145.9643      9002.1785     -36106.272     -35279.624    
     18700   1117.7495      16315.795     -36089.524     -35283.229    
     18800   1160.3222      13194.942     -36152.288     -35315.283    
     18900   1131.0412      20817.889     -36135.523     -35319.639    
     19000   1061.0454      10552.9       -36073.565     -35308.174    
     19100   1179.6832      14119.748     -36076.761     -35225.79     
     19200   1173.6889      16940.284     -35994.179     -35147.532    
     19300   1136.7499      21923.664     -36039.527     -35219.525    
     19400   1140.2186      25271.751     -36114.863     -35292.36     
     19500   1121.2385      27065.666     -36135.127     -35326.315    
     19600   1068.5485      7217.9824     -36105.833     -35335.029    
     19700   1047.8917      4921.0039     -36052.404     -35296.501    
     19800   1112.4374      19231.056     -36007.19      -35204.726    
     19900   1166.32        13684.459     -36049.928     -35208.596    
     20000   1044.2903      7229.9668     -36033.073     -35279.768    
     20100   1135.7732      11430.093     -36121.838     -35302.541    
     20200   1148.3516      13579.218     -36133.693     -35305.322    
     20300   1102.3724      15660.138     -36090.045     -35294.842    
     20400   1118.4283      20171.799     -36049.97      -35243.185    
     20500   1284.7899      18901.771     -36081.902     -35155.111    
     20600   1134.6556      27159.333     -36045.05      -35226.56     
     20700   1144.9385      21568.74      -36106.496     -35280.587    
     20800   1116.542       12323.38      -36097.93      -35292.506    
     20900   1115.2731      15806.852     -36075.328     -35270.819    
     21000   1133.2858      19888.162     -36008.179     -35190.677    
     21100   1198.6456      24249.776     -35995.241     -35130.591    
     21200   1143.6628      28684.772     -36036.933     -35211.945    
     21300   1084.4683      18607.462     -36077.599     -35295.311    
     21400   1129.9846      23644.508     -36111.741     -35296.619    
     21500   1086.3947      24978.637     -36059.606     -35275.928    
     21600   1175.8806      7950.4378     -36097.331     -35249.102    
     21700   1134.9786      18482.387     -35993.041     -35174.317    
     21800   1288.434       24662.82      -36053.264     -35123.844    
     21900   1128.7531      26439.893     -36017.83      -35203.598    
     22000   1144.6341      20498.991     -36093.9       -35268.212    
     22100   1099.6788      20321.722     -36076.541     -35283.281    
     22200   1105.856       12782.287     -36057.727     -35260.011    
     22300   1115.7487      9721.3591     -36001.288     -35196.436    
     22400   1262.8054      31615.678     -36047.531     -35136.599    
     22500   1058.788       17147.042     -36004.745     -35240.982    
     22600   1152.1136      22724.314     -36116.31      -35285.226    
     22700   1102.6706      24744.744     -36076.652     -35281.234    
     22800   1159.4765      28118.842     -36047.257     -35210.862    
     22900   1212.6204      28456.407     -36044.752     -35170.021    
     23000   1053.6564      28804.001     -35970.269     -35210.207    
     23100   992.64038      22629.08      -36041.734     -35325.687    
     23200   1066.9806      17816.54      -36118.328     -35348.655    
     23300   1174.0259      22349.769     -36134.035     -35287.144    
     23400   1135.0874      20926.94      -36052.452     -35233.65     
     23500   1168.7111      20643.085     -36052.84      -35209.783    
     23600   1126.9591      19537.391     -36019.985     -35207.047    
     23700   1181.4244      20924.135     -36069.24      -35217.012    
     23800   1152.8837      28610.557     -36066.524     -35234.884    
     23900   1135.4462      14337.508     -36068.657     -35249.596    
     24000   1110.5151      15757.987     -36038.233     -35237.156    
     24100   1163.5897      19269.631     -36052.253     -35212.89     
     24200   1150.7051      19131.146     -35988.853     -35158.785    
     24300   1225.4972      28132.829     -36031.355     -35147.335    
     24400   1137.2508      23233.78      -36060.188     -35239.825    
     24500   1073.5194      19590.798     -36060.415     -35286.025    
     24600   1089.7415      16413.832     -36043.134     -35257.042    
     24700   1196.7384      3038.8147     -36019.571     -35156.296    
     24800   1234.2478      52.217378     -35988.14      -35097.808    
     24900   1219.52        18069.655     -36039.492     -35159.784    
     25000   1106.0529      19525.253     -36021.941     -35224.083    
     25100   1134.8623      29815.131     -36062.494     -35243.854    
     25200   1122.3479      19753.362     -36031.335     -35221.723    
     25300   1258.5929      22466.633     -36046.063     -35138.169    
     25400   1271.2769      24990.788     -36018.457     -35101.414    
     25500   1172.8889      19577.539     -36028.612     -35182.541    
     25600   1124.4971      13036.417     -36077.089     -35265.926    
     25700   1095.1046      31729.013     -36035.202     -35245.242    
     25800   1181.139       21871.296     -36047.259     -35195.237    
     25900   1135.7891      16719.556     -35952.312     -35133.004    
     26000   1270.9408      21651.729     -35970.9       -35054.099    
     26100   1160.8317      12125.79      -35977.964     -35140.591    
     26200   1212.013       24607.824     -36125.074     -35250.781    
     26300   1116.9312      18843.175     -36073.349     -35267.644    
     26400   1124.1808      10509.113     -36028.137     -35217.202    
     26500   1196.6902      28223.029     -35988.389     -35125.149    
     26600   1258.868       19877.197     -36047.128     -35139.036    
     26700   1115.7416      8252.4736     -36024.069     -35219.222    
     26800   1163.4116      10426.954     -36070.06      -35230.826    
     26900   1194.3633      22436.461     -36084.051     -35222.489    
     27000   1140.5586      12810.386     -36003.025     -35180.276    
     27100   1253.9506      27992.868     -35985.917     -35081.372    
     27200   1239.8432      25373.603     -35983.225     -35088.857    
     27300   1100.9801      13961.19      -35936.712     -35142.513    
     27400   1077.5585      23334.084     -35982.005     -35204.702    
     27500   1024.0163      23777.477     -35992.979     -35254.299    
     27600   1197.0215      2338.5618     -36098.509     -35235.031    
     27700   1179.1291      6965.8478     -35992.221     -35141.649    
     27800   1274.3635      16599.323     -35997.985     -35078.715    
     27900   1195.8107      19449.091     -35997.055     -35134.45     
     28000   1168.6429      13393.512     -36017.105     -35174.097    
     28100   1205.1489      25211.544     -36046.918     -35177.577    
     28200   1155.6612      23950.357     -36014.41      -35180.767    
     28300   1195.8811      20845.531     -36013.917     -35151.261    
     28400   1205.6586      11904.127     -36015.653     -35145.943    
     28500   1171.8582      23673.805     -35997.932     -35152.606    
     28600   1204.1735      26403.608     -35997.385     -35128.747    
     28700   1200.8871      27542.938     -35971.832     -35105.565    
     28800   1150.78        502.92941     -35978.938     -35148.816    
     28900   1157.8967      26173.846     -36035.313     -35200.058    
     29000   1092.5342      17894.23      -36056.11      -35268.004    
     29100   1119.0855      5344.0012     -36097.652     -35290.393    
     29200   1177.4573      11963.16      -36027.164     -35177.798    
     29300   1211.6966      16601.888     -35986.267     -35112.202    
     29400   1242.7804      31005.259     -35993.193     -35096.706    
     29500   1134.0882      11289.52      -35947.384     -35129.303    
     29600   1191.3176      15505.826     -36045.108     -35185.744    
     29700   1100.3665      18598.149     -36064.402     -35270.646    
     29800   1224.2808      11634.777     -36134.524     -35251.382    
     29900   1183.5497      9857.6886     -35978.319     -35124.559    
     30000   1187.1858      10624.728     -35948.483     -35092.099    
     30100   1261.5143      19535.564     -36033.155     -35123.154    
     30200   1178.5113      20850.16      -36039.611     -35189.485    
     30300   1189.4475      22196.755     -36076.968     -35218.952    
     30400   1164.3707      21758.09      -35991.98      -35152.054    
     30500   1303.672       26209.564     -35983.687     -35043.275    
     30600   1264.5745      28711.241     -35989.338     -35077.13     
     30700   1162.3792      21268.199     -35987.078     -35148.589    
     30800   1160.1517      17971.419     -36013.333     -35176.451    
     30900   1177.9954      16019.599     -36014.391     -35164.637    
     31000   1294.5051      21748.117     -35949.111     -35015.312    
     31100   1275.6664      13475.975     -35945.841     -35025.631    
     31200   1223.76        8882.1653     -35986.354     -35103.587    
     31300   1121.1427      18708.95      -35959.223     -35150.48     
     31400   1244.381       18165.802     -36065.079     -35167.437    
     31500   1237.3288      12904.998     -36085.226     -35192.671    
     31600   1164.6912      19785.301     -35981.611     -35141.453    
     31700   1203.7656      17391.516     -35929.282     -35060.939    
     31800   1318.9386      21052.072     -35993.213     -35041.789    
     31900   1190.1018      15785.858     -35960.617     -35102.13     
     32000   1182.7211      2775.6352     -36026.241     -35173.078    
     32100   1273.9896      23699.712     -36081.48      -35162.48     
     32200   1317.1872      15975.709     -36052.938     -35102.777    
     32300   1247.3812      16578.369     -35861.018     -34961.212    
     32400   1333.7311      12481.111     -35939.292     -34977.197    
     32500   1278.0063      29567.416     -36010.795     -35088.898    
     32600   1168.3996      28232.025     -35988.233     -35145.401    
     32700   1155.3803      28616.231     -35982.863     -35149.422    
     32800   1196.5743      22254.019     -35936.933     -35073.777    
     32900   1256.2793      23971.327     -35890.122     -34983.898    
     33000   1357.4929      17033.325     -35984.737     -35005.501    
     33100   1205.6054      19428.431     -35921.564     -35051.894    
     33200   1374.2375      12909.357     -36036.155     -35044.84     
     33300   1280.9521      25657.669     -36024.362     -35100.34     
     33400   1109.9546      13459.771     -36004.568     -35203.896    
     33500   1226.1821      8785.9906     -36079.708     -35195.194    
     33600   1244.8943      27118.999     -36051.074     -35153.062    
     33700   1284.5794      20210.184     -36039.288     -35112.649    
     33800   1294.5557      17937.332     -36011.306     -35077.471    
     33900   1036.948       24820.54      -35796.092     -35048.084    
     34000   1322.7305      27541.534     -35878.254     -34924.094    
     34100   1408.3992      23781.696     -35883.073     -34867.116    
     34200   1290.3768      29303.189     -35886.737     -34955.916    
     34300   1279.9895      22471.319     -35958.483     -35035.155    
     34400   1118.7817      20933.109     -35921.69      -35114.65     
     34500   1231.386       21218.125     -35999.246     -35110.978    
     34600   1274.8222      21762.282     -35990.866     -35071.265    
     34700   1348.9658      25287.04      -35940.088     -34967.003    
     34800   1391.5916      16149.44      -35918.159     -34914.326    
     34900   1276.4855      34774.445     -35931.404     -35010.603    
     35000   1237.9694      36855.736     -35943.23      -35050.214    
     35100   1249.1914      37671.636     -35981.995     -35080.884    
     35200   1249.2111      21874.839     -35969.272     -35068.146    
     35300   1306.548       30474.131     -35931.535     -34989.048    
     35400   1326.7267      27212.15      -35841.9       -34884.857    
     35500   1359.6441      23520.418     -35906.629     -34925.841    
     35600   1370.4075      23958.341     -35986.227     -34997.676    
     35700   1263.5212      19771.037     -35979.829     -35068.381    
     35800   1235.7236      15897.143     -36000.463     -35109.066    
     35900   1287.5136      15993.921     -36008.52      -35079.764    
     36000   1240.1205      33376.518     -35882.746     -34988.178    
     36100   1294.8537      27416.029     -35901.398     -34967.348    
     36200   1330.5402      10568.17      -35960.897     -35001.103    
     36300   1192.9403      19136.609     -35912.924     -35052.39     
     36400   1226.5877      20358.97      -35981.245     -35096.438    
     36500   1140.0815      26503.337     -35949.611     -35127.207    
     36600   1237.0631      30831.21      -35924.242     -35031.879    
     36700   1378.2535      23593.581     -35937.997     -34943.785    
     36800   1299.5125      26642.139     -35890.45      -34953.039    
     36900   1295.1712      33293.976     -35963.537     -35029.257    
     37000   1157.9488      29240.648     -35952.945     -35117.651    
     37100   1216.1852      25634.455     -35986.767     -35109.464    
     37200   1250.4505      26456.338     -35972.534     -35070.514    
     37300   1303.5801      29628.363     -35947.019     -35006.674    
     37400   1392.6984      26192.237     -35972.628     -34967.997    
     37500   1285.4859      25856.199     -35930.178     -35002.885    
     37600   1257.1327      22220.199     -36040.654     -35133.814    
     37700   1238.7454      19141.642     -36034.903     -35141.326    
     37800   1249.5941      23334.059     -35978.751     -35077.349    
     37900   1277.6962      15349.188     -35951.804     -35030.13     
     38000   1170.4517      23912.348     -35853.019     -35008.707    
     38100   1365.5523      23789.717     -35975.613     -34990.564    
     38200   1313.5356      24878.446     -36003.438     -35055.911    
     38300   1195.2697      22143.251     -36020.249     -35158.034    
     38400   1202.6869      13841.033     -35995.605     -35128.039    
     38500   1226.1093      9724.5992     -35963.704     -35079.242    
     38600   1312.3781      20762.864     -35972.65      -35025.958    
     38700   1280.0098      18942.397     -35928.323     -35004.98     
     38800   1319.6451      13176.209     -35932.763     -34980.829    
     38900   1416.1633      23361.61      -35916.532     -34894.974    
     39000   1326.3064      25510.684     -35840.756     -34884.017    
     39100   1284.6085      17875.39      -35929.143     -35002.483    
     39200   1304.554       13432.457     -35982.61      -35041.562    
     39300   1295.4966      17975.612     -35960.965     -35026.451    
     39400   1312.85        21020.633     -35921.15      -34974.118    
     39500   1304.1548      21102.336     -35877.341     -34936.581    
     39600   1375.831       28751.588     -35890.816     -34898.352    
     39700   1330.2324      30387.719     -35886.084     -34926.513    
     39800   1314.4828      25736.036     -35963.987     -35015.777    
     39900   1239.5171      25738.88      -35961.092     -35066.959    
     40000   1248.1598      24777.126     -35942.064     -35041.696    
     40100   1346.8919      28094.331     -35872.304     -34900.716    
     40200   1394.2885      17508.541     -35873.833     -34868.055    
     40300   1301.7183      29640.558     -35854.181     -34915.179    
     40400   1291.1789      24942.54      -35890.626     -34959.227    
     40500   1257.7177      25424.493     -35921.419     -35014.157    
     40600   1174.8738      20628.741     -35921.913     -35074.411    
     40700   1320.971       17803.508     -35985.167     -35032.277    
     40800   1344.4187      28716.229     -35859.27      -34889.466    
     40900   1300.8622      28707.09      -35830.044     -34891.659    
     41000   1348.0562      28456.468     -35938.979     -34966.55     
     41100   1352.0244      16189.564     -36005.676     -35030.385    
     41200   1254.1588      21674.242     -35953.026     -35048.331    
     41300   1413.4592      13282.006     -35982.044     -34962.436    
     41400   1308.3174      14809.716     -35804.787     -34861.025    
     41500   1326.9206      29611.89      -35840.643     -34883.461    
     41600   1192.5521      48680.162     -35852.567     -34992.312    
     41700   1195.2849      35664.899     -35904.923     -35042.697    
     41800   1268.9854      21128.5       -35928.428     -35013.037    
     41900   1327.0416      43929.886     -35923.032     -34965.763    
     42000   1391.5484      7691.322      -35921.451     -34917.649    
     42100   1344.436       47610.387     -35828.583     -34858.766    
     42200   1387.1892      40721.634     -35838.013     -34837.355    
     42300   1240.0238      21903.929     -35839.462     -34944.963    
     42400   1322.4641      27604.718     -35952.159     -34998.192    
     42500   1268.7048      22430.118     -35932.481     -35017.294    
     42600   1335.8902      24869.496     -35942.769     -34979.117    
     42700   1385.5987      38929.867     -35865.05      -34865.54     
     42800   1371.6119      14908.003     -35842.404     -34852.984    
     42900   1294.3104      28263.344     -35879.598     -34945.939    
     43000   1281.1611      16359.81      -35953.661     -35029.487    
     43100   1258.9627      26984.088     -35921.368     -35013.207    
     43200   1334.4441      24070.907     -35933.768     -34971.159    
     43300   1299.4742      31989.309     -35867.94      -34930.557    
     43400   1419.3842      22421.056     -35859.569     -34835.688    
     43500   1452.4304      34322.563     -35807.796     -34760.077    
     43600   1339.8292      24473.581     -35837.034     -34870.54     
     43700   1324.7016      28486.975     -35920.567     -34964.986    
     43800   1297.9194      29907.785     -35955.146     -35018.884    
     43900   1301.0901      12191.838     -35963.446     -35024.896    
     44000   1430.2506      7025.043      -35954.645     -34922.925    
     44100   1449.2894      23430.121     -35882.127     -34836.674    
     44200   1374.1267      36158.462     -35877.179     -34885.945    
     44300   1362.8823      23176.119     -35920.462     -34937.339    
     44400   1232.4882      21538.35      -35827.522     -34938.459    
     44500   1450.0054      35477.105     -35950.608     -34904.638    
     44600   1352.7791      32229.887     -35883.828     -34907.993    
     44700   1357.6298      13798.017     -35957.997     -34978.662    
     44800   1352.5633      17367.108     -36037.379     -35061.7      
     44900   1260.8453      17083.886     -35933.405     -35023.887    
     45000   1407.2455      19339.561     -35937.531     -34922.406    
     45100   1400.1053      9017.6055     -35890.494     -34880.52     
     45200   1384.1788      20629.989     -35852.322     -34853.836    
     45300   1388.2909      44605.348     -35881.764     -34880.312    
     45400   1241.059       24373.118     -35905.858     -35010.613    
     45500   1315.8826      34344.166     -35959.701     -35010.481    
     45600   1304.433       40480.294     -35865.303     -34924.342    
     45700   1394.4438      22060.229     -35857.59      -34851.7      
     45800   1410.259       15814.104     -35863.032     -34845.733    
     45900   1435.1987      36875.375     -35898.752     -34863.463    
     46000   1326.8866      25437.639     -35906.923     -34949.765    
     46100   1278.6974      27008.642     -35900.088     -34977.692    
     46200   1407.7747      10111.122     -35943.683     -34928.176    
     46300   1454.2313      27984.159     -35842.077     -34793.059    
     46400   1463.5138      48829.168     -35764.367     -34708.653    
     46500   1466.049       23834.279     -35876.097     -34818.554    
     46600   1333.2694      28669.942     -35870.802     -34909.04     
     46700   1315.5826      33335.281     -35893.602     -34944.599    
     46800   1284.204       38517.004     -35862.392     -34936.023    
     46900   1357.4673      27600.899     -35863.837     -34884.62     
     47000   1360.7067      38971.927     -35763.545     -34781.991    
     47100   1332.5674      44931.334     -35712.832     -34751.577    
     47200   1438.6288      37119.92      -35892.363     -34854.6      
     47300   1346.2594      23198.79      -35884.407     -34913.274    
     47400   1339.3541      17534.291     -35883.558     -34917.407    
     47500   1451.1242      24768.099     -35946.94      -34900.163    
     47600   1356.3419      32908.787     -35834.455     -34856.05     
     47700   1572.8955      22505.442     -35882.429     -34747.811    
     47800   1434.6212      25380.703     -35809.561     -34774.689    
     47900   1369.3309      23482.001     -35883.325     -34895.55     
     48000   1331.464       30012.75      -35902.629     -34942.169    
     48100   1358.4903      34788.529     -35900.723     -34920.768    
     48200   1367.0219      29245.664     -35870.008     -34883.899    
     48300   1527.5904      27486.761     -35895.848     -34793.911    
     48400   1485.4413      25974.164     -35789.948     -34718.416    
     48500   1363.0161      40520.678     -35733.331     -34750.111    
     48600   1394.8144      29984.088     -35870.471     -34864.313    
     48700   1273.6909      44309.403     -35837.837     -34919.052    
     48800   1411.4355      41223.783     -35907.563     -34889.415    
     48900   1469.3683      30551.289     -35837.056     -34777.118    
     49000   1496.0289      41785.115     -35792.004     -34712.834    
     49100   1474.0848      34301.381     -35833.472     -34770.132    
     49200   1370.2629      32208.271     -35804.416     -34815.969    
     49300   1415.5587      48094.466     -35846.411     -34825.289    
     49400   1277.5765      29058.002     -35801.29      -34879.702    
     49500   1294.6797      27713.447     -35878.547     -34944.622    
     49600   1367.1292      22679.13      -35922.821     -34936.634    
     49700   1478.8954      15985.677     -35874.204     -34807.394    
     49800   1446.4233      26223.34      -35790.369     -34746.983    
     49900   1401.6896      29354.984     -35801.217     -34790.1      
     50000   1422.2395      21918.848     -35921.889     -34895.948    
     50100   1314.5007      25669.139     -35878.402     -34930.179    
     50200   1376.6962      35549.943     -35876.445     -34883.357    
     50300   1450.9185      20923.126     -35892.508     -34845.879    
     50400   1400.7883      29153.637     -35843.608     -34833.141    
     50500   1416.3748      28787.277     -35856.461     -34834.751    
     50600   1387.9957      23743.247     -35840.974     -34839.735    
     50700   1405.5247      26722.177     -35826.683     -34812.799    
     50800   1430.0703      39658.149     -35840.241     -34808.651    
     50900   1448.3077      37343.396     -35873.507     -34828.761    
     51000   1380.5083      23752.717     -35899.232     -34903.394    
     51100   1240.9658      21797.598     -35856.385     -34961.207    
     51200   1456.0008      26960.481     -35925.984     -34875.689    
     51300   1368.9372      34458.221     -35744.247     -34756.755    
     51400   1504.382       31149.952     -35839.582     -34754.387    
     51500   1410.8216      33447.311     -35824.7       -34806.996    
     51600   1355.5764      32476.655     -35847.91      -34870.057    
     51700   1308.9379      18824.783     -35942.216     -34998.006    
     51800   1302.9174      22415.76      -35900.746     -34960.879    
     51900   1378.5416      34684.135     -35885.238     -34890.819    
     52000   1392.6143      43702.522     -35853.398     -34848.827    
     52100   1424.8653      22020.08      -35811.924     -34784.088    
     52200   1381.2906      36985.603     -35737.903     -34741.5      
     52300   1552.8042      36003.322     -35754.144     -34634.019    
     52400   1457.8992      53680.108     -35704.251     -34652.586    
     52500   1358.4171      29151.755     -35810.307     -34830.405    
     52600   1396.5896      37318.148     -35860.684     -34853.245    
     52700   1344.2693      39175.631     -35788.864     -34819.167    
     52800   1392.0752      28682.91      -35730.516     -34726.334    
     52900   1477.3414      46614.193     -35744.819     -34679.13     
     53000   1510.9581      49667.315     -35839.627     -34749.688    
     53100   1296.211       18843.78      -35835.686     -34900.656    
     53200   1344.3763      30337.454     -35829.613     -34859.839    
     53300   1487.6893      17478.164     -35833.965     -34760.811    
     53400   1440.0333      33421.45      -35780.501     -34741.724    
     53500   1562.141       26751.159     -35877.747     -34750.887    
     53600   1329.5997      26444.277     -35818.973     -34859.859    
     53700   1389.405       30510.476     -35913.641     -34911.386    
     53800   1474.5133      18259.828     -35889.27      -34825.621    
     53900   1526.0114      32002.89      -35834.633     -34733.836    
     54000   1492.3917      25944.809     -35801.905     -34725.36     
     54100   1504.027       42996.439     -35837.116     -34752.177    
     54200   1408.3373      26996.807     -35875.209     -34859.297    
     54300   1226.4938      26987.463     -35782.994     -34898.255    
     54400   1399.9268      29023.813     -35832.101     -34822.255    
     54500   1438.3207      35484.918     -35830.436     -34792.895    
     54600   1416.5365      25485.18      -35773.593     -34751.766    
     54700   1538.4014      29679.139     -35814.203     -34704.468    
     54800   1488.178       30561         -35848.894     -34775.388    
     54900   1396.9937      14509.041     -35886.801     -34879.071    
     55000   1379.2785      26207.535     -35913.368     -34918.417    
     55100   1462.1468      38705.105     -35939.977     -34885.249    
     55200   1447.7987      36090.718     -35786.193     -34741.815    
     55300   1468.2382      26629.522     -35731.457     -34672.334    
     55400   1484.3578      27399.767     -35730.302     -34659.551    
     55500   1456.8315      38568.991     -35758.925     -34708.031    
     55600   1462.6238      20573.502     -35900.844     -34845.772    
     55700   1433.2665      28346.708     -35888.101     -34854.205    
     55800   1478.4776      29746.642     -35881.07      -34814.562    
     55900   1525.7088      23753.666     -35830.916     -34730.336    
     56000   1473.6701      30478.413     -35656.151     -34593.11     
     56100   1528.9445      42298.035     -35686.677     -34583.763    
     56200   1541.5629      40092.939     -35780.874     -34668.859    
     56300   1543.3111      38853.744     -35862.461     -34749.184    
     56400   1538.296       37272.413     -35891.995     -34782.336    
     56500   1436.0679      37369.236     -35824.456     -34788.54     
     56600   1488.2039      30909.367     -35819.675     -34746.15     
     56700   1542.1368      55151.073     -35757.886     -34645.457    
     56800   1554.0942      38245.26      -35758.652     -34637.597    
     56900   1385.1205      39351.659     -35745.149     -34745.984    
     57000   1387.6201      43842.02      -35829.318     -34828.35     
     57100   1362.4082      21443.243     -35789.216     -34806.434    
     57200   1436.624       30100.193     -35786.08      -34749.763    
     57300   1436.596       26562.193     -35756.806     -34720.509    
     57400   1530.5711      51001.563     -35825.89      -34721.803    
     57500   1356.2353      33662.393     -35770.026     -34791.697    
     57600   1469.5072      23369.467     -35857.419     -34797.381    
     57700   1599.9203      44865.357     -35765.817     -34611.705    
     57800   1431.5229      14816.165     -35669.978     -34637.341    
     57900   1405.2502      23031.897     -35744.456     -34730.77     
     58000   1453.8862      47352.404     -35816.52      -34767.75     
     58100   1572.8771      42181.402     -35870.035     -34735.431    
     58200   1507.0706      17878.616     -35751.62      -34664.486    
     58300   1666.6901      42881.44      -35775.086     -34572.809    
     58400   1415.8449      26383.874     -35656.965     -34635.636    
     58500   1351.358       30875.065     -35722.979     -34748.168    
     58600   1482.5901      45390.476     -35830.145     -34760.669    
     58700   1515.3489      36399.422     -35837.658     -34744.552    
     58800   1434.1074      16561.959     -35768.774     -34734.272    
     58900   1530.5872      33870.256     -35714.598     -34610.5      
     59000   1579.1136      46095.424     -35661.248     -34522.145    
     59100   1483.6904      27845.609     -35659.16      -34588.891    
     59200   1549.7764      44174.844     -35775.03      -34657.089    
     59300   1569.412       42228.141     -35839.587     -34707.482    
     59400   1407.0093      31729.202     -35749.732     -34734.777    
     59500   1516.605       31276.587     -35784.88      -34690.868    
     59600   1652.5754      34924.441     -35811.465     -34619.369    
     59700   1492.5218      33542.996     -35773.336     -34696.697    
     59800   1393.9526      16373.18      -35830.345     -34824.809    
     59900   1518.5399      34918.76      -35867.067     -34771.659    
     60000   1414.1139      46712.122     -35718.295     -34698.215    
     60100   1370.5166      6915.1449     -35628.354     -34639.724    
     60200   1667.8338      27972.658     -35733.386     -34530.284    
     60300   1745.6676      47505.493     -35764.026     -34504.778    
     60400   1495.8605      29833.617     -35752.999     -34673.951    
     60500   1448.9105      21503.214     -35779.613     -34734.433    
     60600   1439.5253      38256.842     -35734.972     -34696.562    
     60700   1599.8181      43706.546     -35765.302     -34611.263    
     60800   1476.4088      34268.623     -35656.631     -34591.615    
     60900   1504.9032      45970.139     -35748.604     -34663.033    
     61000   1349.3221      31448.202     -35756.674     -34783.333    
     61100   1447.284       44450.324     -35837.419     -34793.412    
     61200   1509.7208      33193.976     -35792.402     -34703.356    
     61300   1496.7899      32748.785     -35668.986     -34589.268    
     61400   1645.3473      25193.297     -35788.627     -34601.746    
     61500   1599.5643      32227.591     -35833.825     -34679.97     
     61600   1487.2795      36117.33      -35798.785     -34725.927    
     61700   1570.0311      32102.057     -35825.893     -34693.341    
     61800   1629.7268      37742.117     -35717.532     -34541.919    
     61900   1597.8871      30543.694     -35694.1       -34541.455    
     62000   1465.2338      29752.567     -35703.675     -34646.72     
     62100   1420.7113      30861.051     -35731.058     -34706.219    
     62200   1541.3275      40411.593     -35792.452     -34680.607    
     62300   1525.1143      40866.516     -35755.744     -34655.593    
     62400   1606.1717      38147.22      -35800.058     -34641.436    
     62500   1545.3732      39044.85      -35741.911     -34627.147    
     62600   1486.8911      32149.342     -35762.676     -34690.098    
     62700   1511.6754      12434.384     -35853.401     -34762.944    
     62800   1451.4252      25793.848     -35803.154     -34756.16     
     62900   1566.3604      27049.28      -35760.651     -34630.747    
     63000   1506.1119      51103.008     -35626.103     -34539.66     
     63100   1582.4865      47342.489     -35696.655     -34555.119    
     63200   1453.1192      37933.233     -35708.715     -34660.498    
     63300   1468.5906      32521.868     -35744.09      -34684.713    
     63400   1511.8818      36157.348     -35756.557     -34665.952    
     63500   1499.9143      38581.657     -35716.88      -34634.908    
     63600   1466.7579      24985.631     -35698.119     -34640.064    
     63700   1533.8981      44375.186     -35730.545     -34624.058    
     63800   1525.4581      39101.437     -35702.057     -34601.658    
     63900   1698.9833      33284.13      -35726.287     -34500.715    
     64000   1594.9705      43593.144     -35586.077     -34435.536    
     64100   1560.115       38358.678     -35701.304     -34575.905    
     64200   1493.1894      26990.644     -35751.76      -34674.639    
     64300   1565.4744      36667.685     -35799.282     -34670.018    
     64400   1562.8634      33054.996     -35750.441     -34623.06     
     64500   1569.6695      30031.287     -35663.816     -34531.526    
     64600   1573.9076      41767.911     -35589.277     -34453.929    
     64700   1548.1805      38853.877     -35680.858     -34564.068    
     64800   1443.9288      35878.268     -35688.558     -34646.972    
     64900   1598.0597      47928.381     -35775.301     -34622.531    
     65000   1547.396       29583.081     -35701.434     -34585.21     
     65100   1667.8799      46056.693     -35710.858     -34507.723    
     65200   1663.6979      36282.102     -35637.666     -34437.547    
     65300   1527.0244      39918.77      -35566.578     -34465.05     
     65400   1503.2262      24705.512     -35710.439     -34626.078    
     65500   1446.1502      55404.434     -35715.796     -34672.607    
     65600   1643.7161      40853.194     -35796.062     -34610.357    
     65700   1579.2065      31921.507     -35687.497     -34548.327    
     65800   1572.1334      23726.46      -35693.702     -34559.634    
     65900   1634.4018      29112.965     -35843.062     -34664.076    
     66000   1439.1385      39380.026     -35783.979     -34745.848    
     66100   1438.8214      33729.03      -35748.526     -34710.623    
     66200   1683.4416      27841.911     -35782.224     -34567.863    
     66300   1590.8705      31574.552     -35665.077     -34517.493    
     66400   1628.3136      49537.406     -35697.516     -34522.922    
     66500   1580.9117      43979.479     -35747.521     -34607.121    
     66600   1596.3984      54991.114     -35801.171     -34649.6      
     66700   1542.3117      35252.313     -35712.941     -34600.385    
     66800   1678.2743      43515.319     -35654.729     -34444.096    
     66900   1641.1936      47689.455     -35617.445     -34433.56     
     67000   1631.9428      33859.78      -35733.255     -34556.043    
     67100   1548.2354      29694.024     -35745.77      -34628.941    
     67200   1618.019       30772.974     -35763.033     -34595.865    
     67300   1617.6416      40393.545     -35717.352     -34550.456    
     67400   1603.5752      31375.464     -35625.903     -34469.154    
     67500   1678.6902      44757.637     -35542.461     -34331.528    
     67600   1745.8191      29587.551     -35643.776     -34384.419    
     67700   1693.4641      45874.778     -35733.758     -34512.167    
     67800   1483.9539      38106.421     -35663.289     -34592.83     
     67900   1572.6446      25137.722     -35750.23      -34615.793    
     68000   1580.5107      39036.605     -35741.072     -34600.961    
     68100   1623.9057      38739.873     -35688.813     -34517.399    
     68200   1624.5867      41774.178     -35589.395     -34417.49     
     68300   1606.0954      41071.496     -35557.252     -34398.685    
     68400   1533.5747      29892.501     -35662.38      -34556.127    
     68500   1482.0751      49939.651     -35696.472     -34627.368    
     68600   1591.2502      48237.52      -35739.971     -34592.113    
     68700   1610.5452      29528.239     -35686.156     -34524.38     
     68800   1677.1611      42540.442     -35649.279     -34439.449    
     68900   1738.3835      43506.445     -35585.859     -34331.866    
     69000   1696.4873      32023.337     -35560.737     -34336.965    
     69100   1594.4317      34685.105     -35678.445     -34528.292    
     69200   1655.9086      40786.994     -35772.743     -34578.243    
     69300   1529.4739      34499.428     -35694.401     -34591.106    
     69400   1640.5628      25775.672     -35744.581     -34561.151    
     69500   1634.5043      18258.763     -35683.697     -34504.637    
     69600   1722.1486      46943.276     -35651.134     -34408.852    
     69700   1618.6782      62535.398     -35604.234     -34436.591    
     69800   1544.0603      33239.052     -35704.203     -34590.386    
     69900   1499.5359      45587.708     -35686.967     -34605.267    
     70000   1677.1561      21096.842     -35755.092     -34545.265    
     70100   1664.6288      23748.353     -35664.584     -34463.794    
     70200   1656.9358      40347.848     -35665.312     -34470.071    
     70300   1611.4523      35481.824     -35672.076     -34509.645    
     70400   1635.3659      43503.514     -35712.759     -34533.078    
     70500   1621.0912      27588.668     -35732.583     -34563.199    
     70600   1635.4775      31473.64      -35745.879     -34566.118    
     70700   1612.6806      46349.444     -35637.581     -34474.264    
     70800   1742.4445      63723.634     -35622.924     -34366.001    
     70900   1671.8178      41241.847     -35622.121     -34416.145    
     71000   1590.2021      40147.118     -35644.913     -34497.811    
     71100   1560.4335      44777.059     -35653.774     -34528.146    
     71200   1671.194       33154.694     -35734.894     -34529.369    
     71300   1698.4574      46848.727     -35738.838     -34513.645    
     71400   1728.7844      44765.83      -35734.78      -34487.711    
     71500   1671.5563      47992.556     -35630.961     -34425.174    
     71600   1652.1277      49978.466     -35556.822     -34365.049    
     71700   1658.6763      37711.259     -35612.855     -34416.359    
     71800   1652.6889      44404.401     -35753.932     -34561.755    
     71900   1592.6454      38094.235     -35758.872     -34610.007    
     72000   1602.1366      34878.599     -35720.156     -34564.445    
     72100   1562.455       32120.821     -35603.3       -34476.213    
     72200   1562.0272      61449.396     -35558.297     -34431.519    
     72300   1590.899       64567.731     -35611.634     -34464.029    
     72400   1621.5874      42631.891     -35682.954     -34513.213    
     72500   1450.9213      31843.788     -35630.295     -34583.665    
     72600   1555.4321      43754.795     -35622.417     -34500.397    
     72700   1709.9812      27457.883     -35594.548     -34361.043    
     72800   1725.1357      45208.418     -35648.496     -34404.059    
     72900   1647.5175      47712.682     -35701.585     -34513.139    
     73000   1689.1665      35837.317     -35799.933     -34581.443    
     73100   1676.8063      38027.469     -35747.324     -34537.749    
     73200   1598.2286      55569.413     -35641.697     -34488.805    
     73300   1653.2339      40203.451     -35653.756     -34461.186    
     73400   1671.9003      57245.231     -35658.158     -34452.122    
     73500   1602.0707      36619.476     -35643.61      -34487.946    
     73600   1475.102       27070.646     -35708.874     -34644.8      
     73700   1498.7439      45698.726     -35742.206     -34661.079    
     73800   1568.585       37735.558     -35711.152     -34579.643    
     73900   1525.7168      32673.339     -35630.432     -34529.847    
     74000   1575.4717      40008.039     -35597.537     -34461.061    
     74100   1748.6128      35524.555     -35733.246     -34471.874    
     74200   1621.5662      26009.32      -35680.099     -34510.372    
     74300   1747.5299      54283.661     -35718.427     -34457.835    
     74400   1703.79        33404.841     -35532.683     -34303.644    
     74500   1800.4185      37451.639     -35579.705     -34280.962    
     74600   1579.0683      34951.667     -35592.8       -34453.729    
     74700   1554.1073      41246.737     -35626.145     -34505.08     
     74800   1597.3999      46057.907     -35648.874     -34496.58     
     74900   1588.664       47797.225     -35615.293     -34469.3      
     75000   1660.3441      42986.282     -35560.911     -34363.211    
     75100   1910.2516      34977.851     -35654.874     -34276.902    
     75200   1656.2054      37164.326     -35564.198     -34369.484    
     75300   1684.8367      32584.984     -35710.009     -34494.642    
     75400   1545.5551      45514.752     -35672.825     -34557.929    
     75500   1677.3838      50499.866     -35713.953     -34503.962    
     75600   1727.8363      48147.817     -35678.082     -34431.696    
     75700   1604.6653      43391.192     -35562.669     -34405.134    
     75800   1897.5768      43028.108     -35745.718     -34376.889    
     75900   1660.4403      35362.921     -35532.935     -34335.166    
     76000   1715.7141      45443.304     -35578.056     -34340.415    
     76100   1746.6751      55689.291     -35716.741     -34456.766    
     76200   1469.3697      44989.595     -35619.496     -34559.557    
     76300   1528.0298      38639.264     -35616.124     -34513.87     
     76400   1756.448       38724.872     -35686.131     -34419.106    
     76500   1679.4002      53392.481     -35579.485     -34368.04     
     76600   1735.4599      44729.455     -35638.732     -34386.848    
     76700   1635.7284      58742.18      -35575.948     -34396.006    
     76800   1686.4729      45407.336     -35658.675     -34442.128    
     76900   1619.3097      21708.399     -35723.102     -34555.003    
     77000   1498.0825      21736.509     -35748.866     -34668.215    
     77100   1461.4068      35271.529     -35688.59      -34634.396    
     77200   1608.617       35737.772     -35604.064     -34443.679    
     77300   1719.2489      41067.707     -35598.263     -34358.072    
     77400   1752.8477      40475.827     -35579.8       -34315.372    
     77500   1655.1236      36238.652     -35553.462     -34359.528    
     77600   1613.8998      30572.723     -35618.398     -34454.202    
     77700   1655.175       54740.532     -35739.531     -34545.561    
     77800   1506.7335      47691.639     -35710.371     -34623.48     
     77900   1510.299       35967.943     -35742.79      -34653.327    
     78000   1513.117       46380.136     -35593.775     -34502.279    
     78100   1795.3628      33447.739     -35667.76      -34372.664    
     78200   1625.6657      37486.763     -35507.916     -34335.233    
     78300   1911.5526      37254.081     -35690.769     -34311.859    
     78400   1638.4713      31582.521     -35599.097     -34417.176    
     78500   1697.9375      36430.312     -35736.465     -34511.648    
     78600   1541.8726      42449.728     -35652.8       -34540.561    
     78700   1710.986       51379.428     -35641.529     -34407.299    
     78800   1767.0105      36827.766     -35571.258     -34296.615    
     78900   1814.8058      38445.86      -35658.072     -34348.951    
     79000   1678.6474      46600.421     -35633.99      -34423.087    
     79100   1719.5544      50330.202     -35697.722     -34457.311    
     79200   1648.3063      58106.251     -35696.645     -34507.629    
     79300   1641.0372      35667.6       -35701.628     -34517.856    
     79400   1607.3527      33418.744     -35562.439     -34402.966    
     79500   1787.0213      34008.531     -35582.718     -34293.639    
     79600   1855.4039      55606.011     -35629.411     -34291.005    
     79700   1540.3337      44315.114     -35543.962     -34432.833    
     79800   1713.0872      21012.157     -35665.31      -34429.564    
     79900   1691.5804      42118.69      -35634.243     -34414.012    
     80000   1772.0399      41039.242     -35666.266     -34387.995    
     80100   1749.9175      46781.946     -35571.715     -34309.401    
     80200   1800.5853      41012.608     -35469.22      -34170.357    
     80300   1727.4429      46436.675     -35468.328     -34222.227    
[...]
     94900   1875.208       49988.605     -35480.163     -34127.47     
     95000   1791.3971      40774.436     -35504.576     -34212.341    
     95100   1710.9024      43547.674     -35526.31      -34292.14     
     95200   1710.4356      54547.954     -35458.457     -34224.624    
     95300   1846.6689      39884.028     -35416.601     -34084.495    
     95400   1885.7358      41754.823     -35433.259     -34072.972    
     95500   1870.655       47279.628     -35481.073     -34131.665    
     95600   1825.3664      50042.36      -35548.217     -34231.478    
     95700   1687.985       42482.401     -35586.251     -34368.613    
     95800   1688.1459      45912.981     -35589.741     -34371.986    
     95900   1767.3256      28053.832     -35461.177     -34186.306    
     96000   1887.5426      52111.567     -35480.125     -34118.535    
     96100   1939.6575      53067.531     -35492.412     -34093.228    
     96200   1809.4204      41943.896     -35418.853     -34113.617    
     96300   1861.6347      52320.91      -35484.418     -34141.516    
     96400   1689.123       55710.48      -35394.578     -34176.119    
     96500   1837.633       47634.703     -35482.92      -34157.332    
     96600   1954.9843      55173.626     -35510.74      -34100.5      
     96700   1764.6927      23688.269     -35323.475     -34050.503    
     96800   2104.6148      45442.315     -35441.165     -33922.989    
     96900   1925.4151      58425.459     -35412.5       -34023.59     
     97000   1883.6577      85041.251     -35509.82      -34151.032    
     97100   1916.414       49786.705     -35566.152     -34183.735    
     97200   1901.1871      34393.79      -35553.223     -34181.79     
     97300   1864.4952      50594.189     -35430.186     -34085.221    
     97400   2176.0055      64059.607     -35503.295     -33933.621    
     97500   1838.2775      67039.84      -35342.826     -34016.774    
     97600   1883.231       49862.808     -35440.263     -34081.783    
     97700   1809.8658      39097.432     -35421.89      -34116.332    
     97800   1881.6959      68515.37      -35402.89      -34045.517    
     97900   2135.7065      56521.481     -35463.453     -33922.849    
     98000   1833.1833      41159.044     -35412.878     -34090.5      
     98100   1784.7601      35417.561     -35433.896     -34146.449    
     98200   1923.9912      59501.234     -35520.302     -34132.419    
     98300   1856.6213      41252.368     -35483.741     -34144.456    
     98400   1882.1093      39859.382     -35577.022     -34219.351    
     98500   1759.0856      47181.147     -35563.586     -34294.659    
     98600   1814.4035      41214.282     -35554.265     -34245.434    
     98700   1973.0941      42908.272     -35481.805     -34058.502    
     98800   1974.4179      54567.782     -35422.663     -33998.405    
     98900   1838.8594      48714.5       -35383.821     -34057.349    
     99000   1875.9622      65254.952     -35485.955     -34132.718    
     99100   1842.1272      73742.534     -35567.304     -34238.474    
     99200   1847.7218      34059.501     -35655.452     -34322.586    
     99300   1905.8296      55452.895     -35608.646     -34233.864    
     99400   1883.9473      49466.284     -35417.77      -34058.773    
     99500   1887.508       36073.69      -35333.241     -33971.676    
     99600   1957.7751      66984.628     -35362.352     -33950.099    
     99700   1854.5555      42759.842     -35423.984     -34086.189    
     99800   1779.1011      63278.437     -35449.197     -34165.832    
     99900   1855.1172      40310.378     -35495.276     -34157.076    
    100000   1824.1801      50413.312     -35472.539     -34156.656    
    100100   1874.7249      48537.916     -35446.02      -34093.675    
    100200   1920.2158      54687.649     -35363.501     -33978.342    
    100300   2158.3264      61968.564     -35322.617     -33765.695    
    100400   2057.3401      63966.105     -35361.905     -33877.831    
    100500   1878.1358      33512.91      -35366.024     -34011.22     
    100600   1905.5698      56669.369     -35458.797     -34084.203    
    100700   1837.609       52165.138     -35474.795     -34149.224    
    100800   1791.5482      42729.676     -35506.738     -34214.394    
    100900   1832.0871      49153.982     -35540.26      -34218.673    
    101000   1823.4399      41260.48      -35359.867     -34044.518    
    101100   1886.771       49864.696     -35316.197     -33955.163    
    101200   2021.7707      52724.874     -35428.504     -33970.087    
    101300   1910.2648      53636.249     -35470.29      -34092.309    
    101400   1838.1524      32938.423     -35543.293     -34217.33     
    101500   1759.4888      40944.721     -35476.979     -34207.761    
    101600   1847.3076      40273.403     -35468.142     -34135.575    
    101700   1954.1397      62170.033     -35475.068     -34065.438    
    101800   1926.4007      57319.655     -35471.558     -34081.937    
    101900   1908.0863      46614.899     -35481.056     -34104.647    
    102000   1918.2795      44128.5       -35383.048     -33999.285    
    102100   2061.5902      64948.625     -35329.063     -33841.922    
    102200   2092.2268      46370.256     -35392.95      -33883.71     
    102300   1909.2633      41051.955     -35415.6       -34038.342    
    102400   1846.4316      52123.383     -35398.601     -34066.666    
    102500   1891.6239      48220.248     -35422.148     -34057.614    
    102600   1980.8333      61717.088     -35442.5       -34013.614    
    102700   1994.7196      67062.276     -35354.865     -33915.962    
    102800   2117.5506      66213.723     -35371.961     -33844.453    
    102900   2012.4095      38193.294     -35437.803     -33986.14     
    103000   1927.2654      51237.223     -35461.338     -34071.093    
    103100   1912.1798      62325.78      -35461.364     -34082.001    
    103200   1929.0385      69233.362     -35442.748     -34051.224    
    103300   1843.3245      62801.91      -35340.471     -34010.777    
    103400   1980.5314      58183.695     -35418.576     -33989.908    
    103500   2042.907       53406.865     -35486.225     -34012.562    
    103600   1867.1166      43194.938     -35419.118     -34072.262    
    103700   1779.5651      55704.365     -35394.433     -34110.733    
    103800   1946.9673      51834.931     -35447.655     -34043.199    
    103900   1964.4135      55695.258     -35323.857     -33906.815    
    104000   1981.7232      49195.922     -35254.044     -33824.516    
    104100   2014.2545      69556.782     -35393.665     -33940.67     
    104200   2015.0577      70372.783     -35505.887     -34052.313    
    104300   1813.01        59896.101     -35349.97      -34042.144    
    104400   1869.5013      79718.753     -35328.127     -33979.551    
    104500   1930.8963      47766.19      -35332.531     -33939.667    
    104600   1986.1866      55808.183     -35362.939     -33930.191    
    104700   1920.587       70326.534     -35382.005     -33996.577    
    104800   1966.808       57956.187     -35508.131     -34089.362    
    104900   1888.1243      38613.768     -35528.709     -34166.699    
    105000   1937.1684      42855.91      -35515.487     -34118.099    
    105100   1926.3532      59307.324     -35313.545     -33923.958    
    105200   1960.5723      53167.798     -35267.472     -33853.201    
    105300   2107.1759      61722.257     -35425.956     -33905.932    
    105400   1919.2023      61710.464     -35405.491     -34021.063    
    105500   1968.0637      40583.897     -35458.716     -34039.041    
    105600   1925.4566      47532.081     -35444.69      -34055.751    
    105700   1871.2155      50583.427     -35357.512     -34007.7      
    105800   2028.9283      74635.957     -35422.427     -33958.848    
    105900   2107.6031      48320.86      -35469.507     -33949.175    
    106000   1936.2543      36912.315     -35384.546     -33987.818    
    106100   1954.5092      50091.049     -35508.438     -34098.541    
    106200   2028.3361      45128.831     -35581.236     -34118.084    
    106300   1895.2394      43384.407     -35412.071     -34044.929    
    106400   1993.9728      24423.332     -35309.897     -33871.533    
    106500   1942.4456      35016.253     -35200.467     -33799.272    
    106600   2023.1431      67825.426     -35317.995     -33858.589    
    106700   1976.909       50156.785     -35386.952     -33960.897    
    106800   2003.4012      60396.628     -35438.129     -33992.964    
    106900   1975.5879      54748.592     -35391.063     -33965.961    
    107000   2073.0775      58650.349     -35426.218     -33930.791    
    107100   1978.9933      69146.898     -35385.82      -33958.261    
    107200   1916.3025      52251.691     -35481.392     -34099.055    
    107300   1804.5755      47892.238     -35463.439     -34161.697    
    107400   1820.4781      68042.132     -35346.319     -34033.106    
    107500   1975.9728      41888.437     -35363.262     -33937.883    
    107600   1951.6051      49611.421     -35312.86      -33905.058    
    107700   1997.817       66417.793     -35331.646     -33890.508    
    107800   1987.8697      38296.996     -35402.94      -33968.978    
    107900   1935.9658      54439.255     -35497.979     -34101.458    
    108000   1919.2883      40090.741     -35659.706     -34275.216    
    108100   1881.7274      52172.278     -35537.28      -34179.885    
    108200   1951.7997      57383.568     -35426.301     -34018.358    
    108300   1885.1513      75708.343     -35281.875     -33922.009    
    108400   2005.9254      56547.833     -35296.211     -33849.224    
    108500   2097.1104      46325.115     -35348.206     -33835.443    
    108600   1998.3434      58963.345     -35414.423     -33972.906    
    108700   1780.6173      64525.715     -35389.052     -34104.593    
    108800   1916.2037      50393.829     -35422.596     -34040.331    
    108900   1948.9652      60509.23      -35343.742     -33937.844    
    109000   2016.1737      42817.597     -35362.901     -33908.522    
    109100   2019.2583      59472.083     -35350.302     -33893.698    
    109200   2056.3805      52527.508     -35412.72      -33929.338    
    109300   1814.6999      83994.228     -35307.596     -33998.551    
    109400   1820.94        58387.118     -35333.737     -34020.191    
    109500   2060.5017      45476.77      -35431.396     -33945.041    
    109600   1953.9198      60759.603     -35222.642     -33813.17     
    109700   2040.6606      66737.4       -35201.502     -33729.46     
    109800   2143.3182      67090.474     -35427.729     -33881.634    
    109900   1922.9374      41309.494     -35361.939     -33974.816    
    110000   1942.9164      56814.048     -35324.04      -33922.506    
    110100   2090.9476      61820.329     -35331.901     -33823.583    
    110200   2028.6415      57212.095     -35318.989     -33855.616    
    110300   2006.6658      42165.962     -35502.582     -34055.062    
    110400   1891.7212      59095.957     -35437.935     -34073.331    
    110500   1914.1191      50942.353     -35408.405     -34027.644    
    110600   2017.0104      40437.914     -35367.197     -33912.214    
    110700   2097.3001      53907.504     -35329.865     -33816.964    
    110800   2070.7192      57897.907     -35303.173     -33809.447    
    110900   2040.0512      69613.906     -35310.882     -33839.279    
    111000   1975.8297      66646.54      -35353.158     -33927.881    
    111100   1932.7652      39820.535     -35475.663     -34081.451    
    111200   1857.5702      42637.634     -35516.874     -34176.905    
    111300   1840.8844      60975.704     -35329.153     -34001.22     
    111400   2083.0298      59833.813     -35362.065     -33859.458    
    111500   1915.7178      48546.609     -35256.775     -33874.861    
    111600   1991.2556      58937.367     -35325.232     -33888.828    
    111700   1902.1612      52489.886     -35264.78      -33892.644    
    111800   2129.1361      44257.513     -35413.121     -33877.256    
    111900   2026.8329      65881.084     -35384.931     -33922.863    
    112000   1889.9051      41039.619     -35365.365     -34002.07     
    112100   1940.5218      57032.284     -35454.978     -34055.17     
    112200   1840.4239      48849.742     -35420.901     -34093.301    
    112300   1979.4246      47418.394     -35357.004     -33929.134    
    112400   1982.2442      38555.218     -35223.329     -33793.426    
    112500   2162.6446      51016.038     -35319.413     -33759.376    
    112600   2057.8935      56426.145     -35296.947     -33812.473    
    112700   1924.5653      77487.642     -35389         -34000.703    
    112800   2005.9816      49040.16      -35517.075     -34070.048    
    112900   1995.8729      33457.024     -35430.958     -33991.223    
    113000   2143.331       55768.81      -35437.049     -33890.944    
    113100   2129.7744      44269.889     -35450.824     -33914.499    
    113200   1870.2404      64402.263     -35293.281     -33944.171    
    113300   2052.0283      44683.109     -35338.346     -33858.103    
    113400   2139.6584      68542.082     -35234.64      -33691.184    
    113500   2170.9604      45743.848     -35290.724     -33724.689    
    113600   2058.8495      62542.408     -35371.701     -33886.538    
    113700   2130.5929      54788.46      -35474.126     -33937.21     
    113800   1964.514       57509.118     -35345.032     -33927.918    
    113900   2039.9369      64880.318     -35383.175     -33911.654    
    114000   1903.8222      50851.356     -35261.621     -33888.288    
    114100   2053.0544      49912.684     -35236.847     -33755.864    
    114200   2156.6523      69683.577     -35234.169     -33678.455    
    114300   2135.1002      61218.282     -35279.621     -33739.453    
    114400   2024.491       75549.629     -35319.541     -33859.162    
    114500   1969.5704      62812.262     -35360.915     -33940.153    
    114600   1919.432       43548.665     -35309.158     -33924.564    
    114700   2159.0455      53491.533     -35275.618     -33718.178    
    114800   2117.876       70893.869     -35189.025     -33661.282    
    114900   2139.2039      50281.591     -35322.704     -33779.576    
    115000   1972.6908      62289.667     -35299.471     -33876.458    
    115100   1980.4504      44214.097     -35343.945     -33915.335    
    115200   2072.4596      51263.752     -35307.483     -33812.502    
    115300   2145.0782      58264.553     -35201.223     -33653.858    
    115400   2242.9046      56105.593     -35298.146     -33680.213    
    115500   1951.244       65911.717     -35379.252     -33971.71     
    115600   1999.7053      52942.585     -35381.003     -33938.504    
    115700   2003.1458      57068.129     -35254.667     -33809.686    
    115800   2180.3858      56885.229     -35293.579     -33720.745    
    115900   2119.053       57194.644     -35260.171     -33731.58     
    116000   1999.36        49572.987     -35337.609     -33895.358    
    116100   1804.7884      60371.341     -35307.534     -34005.639    
    116200   1940.9096      77834.154     -35340.733     -33940.646    
    116300   1789.8488      51752.381     -35161.422     -33870.304    
    116400   2188.8435      58319.265     -35387.593     -33808.657    
    116500   2086.5745      50625.026     -35292.036     -33786.873    
    116600   2091.0409      55655.778     -35256.79      -33748.405    
    116700   2196.6184      57464.22      -35424.689     -33840.145    
    116800   1851.6232      49752.636     -35359.815     -34024.136    
    116900   1880.3594      46642.384     -35313.201     -33956.793    
    117000   1936.2764      63062.749     -35186.917     -33790.172    
    117100   2104.2311      55837.12      -35233.78      -33715.881    
    117200   2087.4787      51506.286     -35280.735     -33774.92     
    117300   2187.3362      51545.086     -35446.695     -33868.847    
    117400   1853.8563      55615.092     -35283.235     -33945.944    
    117500   1913.4936      43182.164     -35404.445     -34024.134    
    117600   1959.4963      57000.286     -35341.674     -33928.18     
    117700   2118.0993      66292.681     -35277.631     -33749.728    
    117800   2093.0593      63383.37      -35217.438     -33707.597    
    117900   1973.0437      54892.832     -35164.144     -33740.877    
    118000   1968.2598      56561.405     -35282.316     -33862.5      
    118100   1979.4766      40714.766     -35415.256     -33987.348    
    118200   1867.292       50228.665     -35471.074     -34124.092    
    118300   1994.706       58116.519     -35484.497     -34045.604    
    118400   1948.6241      66266.573     -35239.506     -33833.854    
    118500   1967.2324      76833.016     -35145.977     -33726.902    
    118600   2203.5563      60334.904     -35247.772     -33658.224    
    118700   2153.3614      60021.39      -35252.427     -33699.087    
    118800   2136.6109      38384.124     -35400.373     -33859.116    
    118900   1900.6648      73691.27      -35322.247     -33951.191    
    119000   2163.8894      46890.878     -35454.7       -33893.765    
    119100   2126.9314      52764.518     -35313.742     -33779.467    
    119200   2325.2367      62048.971     -35150.333     -33473.01     
    119300   2295.9093      54695.315     -35160.311     -33504.143    
    119400   2159.3679      51414.132     -35242.494     -33684.821    
    119500   2069.2571      49625.192     -35294.408     -33801.737    
    119600   2081.7507      48351.467     -35372.768     -33871.085    
    119700   1952.6303      39773.954     -35284.229     -33875.688    
    119800   2183.2386      61247.036     -35267.159     -33692.267    
    119900   2300.9126      55414.526     -35247.792     -33588.015    
    120000   2150.4342      61388.541     -35205.207     -33653.978    
Loop time of 5585.78 on 12 procs for 120000 steps with 243 atoms

Performance: 0.928 ns/day, 25.860 hours/ns, 21.483 timesteps/s, 5.220 katom-step/s
99.2% CPU use with 2 MPI tasks x 6 OpenMP threads

MPI task timing breakdown:
Section |  min time  |  avg time  |  max time  |%varavg| %total
---------------------------------------------------------------
Pair    | 4950       | 4978.6     | 5007.2     |  40.6 | 89.13
Bond    | 0.23147    | 0.23547    | 0.23947    |   0.8 |  0.00
Neigh   | 34.759     | 34.773     | 34.786     |   0.2 |  0.62
Comm    | 21.358     | 50.011     | 78.665     | 405.2 |  0.90
Output  | 0.61824    | 0.85828    | 1.0983     |  25.9 |  0.02
Modify  | 519.22     | 519.51     | 519.8      |   1.3 |  9.30
Other   |            | 1.795      |            |       |  0.03

Nlocal:          121.5 ave         123 max         120 min
Histogram: 1 0 0 0 0 0 0 0 0 1
Nghost:           3829 ave        3832 max        3826 min
Histogram: 1 0 0 0 0 0 0 0 0 1
Neighs:        60913.5 ave       61579 max       60248 min
Histogram: 1 0 0 0 0 0 0 0 0 1

Total # of neighbors = 121827
Ave neighs/atom = 501.34568
Ave special neighs/atom = 0
Neighbor list builds = 1095
Dangerous builds = 0

# # final equilibration at low T
# print "##### final equilibration starts.##### "
# unfix             heat1
# fix             equil3 all npt temp ${Tl} ${Tl} ${Td} tri ${Ph} ${Ph} ${Pd}
# # 1 ps = 1e3 fs / 0.5 fs = 2e3 steps = 20 nruns
# run             ${nequil}

write_data  ${structure}-an.data
write_data  SiO2-an.data
System init for write_data ...
WARNING: Compute rdf cutoff less than neighbor cutoff - forcing a needless neighbor list build (src/compute_rdf.cpp:179)
print "##### ${structure} Final Density: $(density) #####"
##### SiO2 Final Density: 2.6782836534074734303 #####

Total wall time: 1:38:39
