ITEM: TIMESTEP
0
ITEM: NUMBER OF ATOMS
350
ITEM: BOX BOUNDS xy xz yz pp pp pp
-8.0552999999999990e+00 1.5678200000000000e+01 -7.0408999999999997e+00
0.0000000000000000e+00 1.4894400000000001e+01 -1.0144000000000000e+00
0.0000000000000000e+00 1.7638300000000001e+01 6.7500000000000004e-01
ITEM: ATOMS id type q x y z
225 3 -0.818304 2.51829 0.555654 8.76319
9 4 1.49298 0.7223 2.42944 5.80253
13 4 1.42595 0.286519 4.79046 7.9741
235 3 -0.815476 1.56194 5.66927 8.71619
23 4 1.27534 3.1633 2.3674 3.68695
26 4 1.49474 5.69335 1.65892 5.4338
30 4 1.31608 5.10829 4.83182 2.29502
210 3 -0.762797 -1.47351 3.58221 0.0758789
32 4 1.2872 3.62183 6.92784 0.46533
33 4 1.41027 4.61573 3.82562 7.27445
35 4 1.37014 4.00005 6.72523 6.12657
70 1 -0.656112 3.29807 1.29297 2.12838
74 1 -0.6815 0.884568 5.77364 3.7161
97 2 0.023391 -2.58436 6.46991 6.01422
15 4 1.37603 -1.21822 7.13023 6.79746
346 2 0.152448 5.79829 1.99381 0.969199
140 2 0.178021 4.04264 1.76616 1.29742
141 2 0.183883 2.32577 0.973336 1.67255
150 2 0.221136 1.85192 5.15536 3.76493
151 2 0.17448 0.638612 6.24232 2.70611
152 2 0.173601 -0.0134875 5.24177 4.17808
139 2 0.160892 3.8137 0.334941 2.67132
207 3 -0.786954 -0.857171 2.30494 5.0086
208 3 -0.870099 0.942974 1.14097 6.71697
212 3 -0.85834 0.664806 3.78436 6.74864
213 3 -0.874771 -0.979046 5.76668 7.63008
224 3 -0.826919 1.74177 2.59923 4.47047
304 3 -0.798386 -0.881284 2.00426 2.40434
226 3 -0.807814 4.38646 1.68594 4.4949
324 2 0.0634392 -2.17542 6.00409 1.23441
230 3 -0.754257 4.09172 3.88556 3.1014
232 3 -0.855349 4.40893 5.89043 1.4354
233 3 -0.823234 3.52968 3.08336 8.19447
314 3 -0.829144 -3.29431 7.23278 3.83518
303 2 0.207459 0.687321 4.56733 0.830856
237 3 -0.832966 2.5297 7.24178 5.83593
238 3 -0.830675 4.19065 5.06541 6.41837
309 2 0.00749554 -0.882004 6.646 3.52755
234 3 -0.855906 5.60255 2.69701 6.6341
299 4 1.26422 -0.395909 2.50018 0.913421
300 1 -0.643004 1.09884 3.55855 1.24713
301 2 0.206295 2.01805 3.1962 0.642524
302 2 0.217522 1.16679 3.55496 2.39727
348 2 0.151068 6.59018 0.752786 2.18558
106 2 0.0681072 4.21695 3.43336 0.21474
342 2 0.124123 -2.52438 4.7283 5.18856
6 4 1.23896 0.225426 1.39671 16.3405
10 4 1.04367 -1.08095 2.24144 13.4414
12 4 0.998028 -2.74439 5.83445 17.293
107 2 0.0702802 0.984367 2.72792 9.40121
16 4 1.22186 -0.128643 5.25498 13.7249
305 3 -0.762897 -0.708713 2.16184 17.3632
294 2 0.0652126 2.36519 1.40063 14.2724
28 4 1.0158 3.02363 3.08845 16.083
34 4 1.49715 1.61323 7.01728 9.54241
36 4 1.1957 3.94684 4.94124 13.741
37 4 1.21913 0.0536874 6.87199 16.2529
211 3 -0.779579 -0.312211 3.54937 9.39218
242 3 -0.810464 1.32413 7.02226 17.2555
72 1 -0.678468 5.91118 1.98322 10.5532
292 1 -0.63288 2.63411 2.16348 12.6935
98 2 0.117282 1.2555 5.38263 12.7502
104 2 -0.00853011 2.9133 2.21645 10.7344
297 2 0.233054 2.26078 3.18504 12.9956
295 2 0.163608 1.87974 1.68765 12.0485
142 2 0.139032 5.23505 3.69198 17.1617
128 2 0.197648 0.0997645 2.12921 11.1359
130 2 0.174893 0.299331 0.633027 12.2417
298 2 0.15028 5.68682 1.48763 14.7304
143 2 0.0277809 4.26209 1.79764 16.3574
145 2 0.176766 4.96463 2.25652 9.9668
338 2 0.131081 -2.8617 5.68582 12.8721
209 3 -0.762478 -0.727531 1.13854 14.7079
244 3 -0.838972 3.00669 7.25506 10.4032
25 4 0.99081 2.56066 2.12184 9.0553
214 3 -0.804242 -0.540595 3.71424 13.5631
146 2 0.189514 5.93501 0.95037 10.8611
216 3 -0.788893 -1.35252 6.19343 13.0028
228 3 -0.798438 1.61085 2.26186 16.1893
236 3 -0.795051 0.297822 6.7446 10.702
239 3 -0.845884 3.44581 3.95665 14.8494
296 2 0.116305 3.97808 2.17827 12.0666
241 3 -0.803765 0.348373 5.69 15.2166
243 3 -0.829919 -1.43597 6.68524 16.8595
66 1 -0.679622 -0.391953 1.45249 11.8989
245 3 -0.822909 2.93132 5.63798 12.7765
71 1 -0.656725 4.39997 3.1082 17.6199
215 3 -0.783603 -2.55686 7.36652 10.6259
291 4 0.834334 3.91965 0.76816 13.4001
17 4 1.24988 -1.05049 7.29272 11.4189
8 4 0.955562 -1.50879 2.63995 8.84164
38 4 1.42732 3.6021 7.21453 11.9238
240 3 -0.751481 5.14652 3.91968 12.8576
18 4 1.01589 -5.4206 11.5888 3.17859
19 4 1.50006 -2.55345 9.6289 8.01445
20 4 1.26762 -4.0193 11.984 6.12374
24 4 1.23864 -0.544821 13.7763 7.35724
39 4 1.34452 2.50627 9.17239 2.57606
40 4 1.3594 2.09689 9.63059 7.8272
42 4 1.33614 0.851729 11.5221 5.9064
75 1 -0.653112 1.25607 10.337 1.66231
227 3 -0.795024 -1.49113 14.0549 6.14171
99 2 0.0189298 -4.83648 12.8322 1.91869
100 2 0.106275 -2.8085 13.0721 5.81288
111 2 0.0133399 -0.615693 10.964 5.09079
153 2 0.171321 1.3331 9.86729 0.651816
154 2 0.169247 1.60615 11.4131 1.7256
155 2 0.168118 0.250036 10.1474 2.17562
248 3 -0.814994 1.39851 8.43767 8.59937
313 2 0.25349 -2.45452 9.90828 5.15395
218 3 -0.871372 -1.73629 8.50553 7.36975
219 3 -0.799345 -4.72256 11.7756 4.57175
220 3 -0.811225 -3.34669 10.6122 6.59696
221 3 -0.854301 -5.01615 12.7166 7.02263
310 2 -0.0680847 -2.94608 10.3261 0.258936
246 3 -0.82572 1.51999 8.4117 3.60928
247 3 -0.796598 3.05567 8.38369 1.28096
315 3 -0.807684 -1.8679 8.39874 1.83007
335 2 -0.033681 -0.28991 10.2077 0.359762
252 3 -0.847506 1.18834 10.2374 6.6632
322 2 0.178757 -5.91485 13.2129 0.537455
7 4 1.37016 -5.61343 14.1162 7.73342
306 4 1.05382 -2.02116 7.93533 3.32317
307 4 0.570291 -1.68994 9.25198 0.478294
308 1 -0.665447 -1.75053 9.59805 4.24869
186 2 0.20089 -6.36204 14.0586 3.08425
311 2 0.146659 -1.88527 10.312 3.31303
312 2 0.19958 -0.674635 9.3475 4.55527
253 3 -0.866324 0.58172 12.8275 6.72549
162 2 0.164862 0.80104 13.5324 2.63016
31 4 1.37261 1.19689 7.31837 4.84852
250 3 -0.817359 -1.26968 13.16 8.69181
231 3 -0.897111 -0.19242 7.38519 5.64363
86 1 -0.664979 -6.55306 13.1928 2.42619
124 2 -0.0444288 -4.29857 8.74532 0.747135
21 4 0.673186 -2.92547 10.2752 14.4872
22 4 1.25163 -3.49979 12.2761 11.9889
41 4 1.30138 -1.50867 11.9421 9.77215
68 1 -0.644805 -4.10086 8.89792 15.2577
69 1 -0.702536 -0.661548 9.01007 12.0045
77 1 -0.678315 1.73156 9.25334 14.9646
101 2 -0.0814792 -1.63508 10.9686 15.4437
102 2 -0.00257431 -4.1622 10.4903 15.95
103 2 0.0987931 -5.21022 12.315 11.6574
112 2 -0.0267505 0.068083 8.26422 15.3434
113 2 -0.00641369 -0.202594 12.0631 10.9149
114 2 -0.0407481 -0.172721 12.0697 12.6694
133 2 0.0266384 -2.49529 8.57845 14.2999
249 3 -0.77522 -1.37709 10.6065 8.94206
344 2 0.143802 -0.991855 13.8212 14.5099
136 2 0.193082 0.367082 9.27482 11.5921
137 2 0.127896 -0.682067 8.99088 13.1353
138 2 0.200291 -1.47101 9.62886 11.5653
159 2 0.154805 1.75348 8.14186 14.6615
160 2 0.135041 0.798337 9.83534 14.5379
293 1 -0.67276 -1.7388 14.6183 14.8612
341 2 0.126566 -5.34193 13.9914 17.1529
14 4 1.49354 -4.06399 7.8571 9.8665
222 3 -0.7877 -3.19525 11.1762 13.1967
223 3 -0.841509 -3.29269 13.6548 12.6319
319 3 -0.777988 -6.64842 12.9097 11.1993
251 3 -0.856357 -2.79389 12.013 10.6189
334 2 -0.00497088 -2.78937 8.91834 16.752
345 2 0.132402 -2.25323 14.3915 15.8327
135 2 0.165472 -4.28575 8.05013 16.0734
217 3 -0.818645 -3.76328 9.22998 9.00155
320 1 -0.690746 -6.51017 13.9535 17.1157
161 2 0.168876 2.09113 9.53542 16.0586
134 2 0.191202 -4.82244 8.71171 14.4318
321 2 0.142089 -6.9789 13.2491 16.3261
127 2 0.0604792 -7.22383 13.9392 14.1286
1 4 1.21176 14.0016 1.55748 3.834
2 1 -0.685877 12.2467 2.2052 3.40153
3 2 0.176998 12.5418 2.70253 2.35817
4 2 0.16055 11.2879 1.66539 3.32482
337 2 -0.00565986 12.0901 0.655406 2.18963
11 4 1.23012 11.2612 5.67947 4.48472
46 4 1.07741 8.17311 1.6935 3.5379
49 4 1.2732 9.84649 4.073 2.35654
50 4 1.37767 6.18206 7.0069 4.05767
51 4 1.07394 8.29453 6.53498 1.21594
52 4 0.998107 9.92315 5.99944 8.19975
336 2 -0.0163856 7.22032 1.03122 7.77048
67 1 -0.675503 12.0969 4.74304 5.9409
325 2 0.165336 11.4346 5.43514 0.561168
257 3 -0.859671 6.95017 1.69362 4.55054
54 4 1.27738 8.79958 7.20719 5.79482
268 3 -0.857749 7.52105 7.0795 4.98241
117 2 -0.00100518 10.7198 3.3308 1.08519
120 2 -0.00354014 10.5181 4.75655 7.16298
131 2 0.152073 11.5738 3.78617 6.01182
168 2 0.128489 10.016 3.2595 8.51607
157 2 0.177844 5.75169 6.95156 7.93131
269 3 -0.814134 8.66837 6.76334 7.62114
340 2 0.190675 12.2119 2.93082 4.24509
95 2 -0.00516731 13.6646 2.98369 7.30218
175 2 0.175532 6.64359 5.03028 8.17244
260 3 -0.847246 8.94889 2.85221 2.85336
261 3 -0.839536 10.9652 4.62559 3.3255
262 3 -0.812209 6.19097 5.57494 3.14246
132 2 0.181222 12.3158 5.19299 6.95777
264 3 -0.830975 9.00323 5.2893 1.83954
118 2 0.0243252 6.58883 6.50539 0.84495
267 3 -0.837917 10.0423 6.30317 5.27705
163 2 0.156302 8.24296 0.560412 1.21097
78 1 -0.661471 7.75917 0.374269 2.18715
82 1 -0.663445 5.74415 4.65326 8.7544
108 2 0.00200232 6.06437 3.88348 1.15599
263 3 -0.827778 4.87176 7.26343 4.86479
115 2 0.048906 9.09997 0.167258 3.59559
94 2 0.078826 14.796 1.08549 8.71417
323 1 -0.671933 11.128 6.67172 17.6128
27 4 1.15579 8.17799 0.963744 13.9562
29 4 1.04236 6.39588 3.02242 12.1169
173 2 0.172378 5.85489 3.69609 9.49523
47 4 1.07561 9.83722 3.3731 14.7792
48 4 1.09061 11.4867 2.64897 10.6042
55 4 1.25369 11.254 5.02887 12.6768
73 1 -0.669764 7.75775 4.27696 11.5972
79 1 -0.652193 9.91248 3.7399 16.7168
80 1 -0.654197 9.87945 2.78762 9.54458
81 1 -0.656313 11.5138 1.07924 11.967
144 2 0.133579 6.9267 2.37895 9.9986
96 2 0.0709727 11.4012 6.02628 16.0745
109 2 -0.030828 4.83996 6.15557 14.538
116 2 0.164976 10.6672 2.85421 16.861
273 3 -0.868816 7.96902 7.15065 11.2076
121 2 0.0222973 6.24578 6.40326 9.54235
171 2 0.151039 10.4647 0.775321 11.4477
147 2 0.157916 7.87487 4.53342 10.4973
148 2 0.201351 8.75273 4.14215 12.1058
149 2 0.206585 7.14022 5.17662 12.0971
164 2 0.151331 10.3884 4.91265 17.0852
165 2 0.134501 8.97241 3.5054 17.2168
166 2 -0.00365685 8.53434 4.31117 15.4127
167 2 0.119808 9.76447 1.64984 9.45635
333 2 0.0257073 12.931 2.17925 12.819
169 2 0.156782 8.99995 3.25374 10.322
129 2 0.15666 14.3214 0.970068 11.4266
332 2 0.136083 7.89448 6.28708 16.8305
172 2 0.208397 11.2104 1.62075 12.9207
331 2 0.135428 6.00263 6.01431 16.8698
229 3 -0.806803 7.28709 1.95607 13.0825
258 3 -0.820602 9.44891 1.92375 14.5957
259 3 -0.804121 12.8855 2.56145 9.71852
266 3 -0.838858 5.29128 7.0526 11.8218
270 3 -0.827238 10.9362 4.20271 14.0479
271 3 -0.8162 11.3381 3.95723 11.528
274 3 -0.828745 10.1976 6.24516 12.5209
174 2 0.176344 4.91953 5.36669 9.10308
265 3 -0.870319 11.091 6.80486 8.83785
329 1 -0.692775 6.77954 6.7778 16.998
119 2 7.94544e-06 9.46799 4.67799 9.2805
330 2 0.163593 6.72802 7.65892 16.2455
56 4 1.52005 9.29825 7.56481 11.96
53 4 1.29147 6.47958 7.50674 10.825
343 2 0.154857 10.8228 7.71855 17.5982
45 4 1.20167 5.45774 13.346 2.88703
57 4 0.95999 10.2242 8.77227 1.96326
58 4 1.479 3.49917 11.6353 4.33013
59 4 0.933325 7.02794 11.4867 0.976741
62 4 1.15279 5.83452 11.3457 6.44893
318 3 -0.81761 8.44281 13.7128 8.70263
83 1 -0.685049 6.06854 8.46601 2.72554
84 1 -0.67436 9.62538 8.997 5.69038
76 1 -0.699458 4.89273 7.63217 7.61483
87 1 -0.661942 7.2035 11.1731 5.26585
88 1 -0.681474 6.03225 13.2887 6.99026
5 3 -0.777549 6.5262 14.035 4.11703
350 2 0.238903 6.25196 13.6557 5.85937
123 2 -0.0143782 8.67992 11.8319 1.04394
110 2 0.0385051 3.5926 9.06286 7.17344
125 2 0.0111693 6.91242 9.86049 1.61926
126 2 -0.00522813 3.12445 13.4786 8.53936
156 2 0.230914 5.28992 8.59946 7.04829
176 2 0.164972 6.086 8.05225 1.67131
177 2 0.148412 7.07997 8.89876 3.06001
178 2 0.277261 5.23192 9.18304 2.96304
179 2 0.177277 9.35562 9.30457 4.62478
180 2 0.22342 10.7144 8.78256 5.77175
181 2 0.175322 9.2003 9.67124 6.55284
182 2 0.158246 9.2062 10.3665 7.75041
185 2 0.182958 8.39615 13.5066 1.58696
187 2 0.162756 8.17764 10.3557 5.38097
188 2 0.195332 7.53227 12.2726 5.32628
189 2 0.175983 6.44988 10.8445 4.38027
190 2 0.249009 6.96949 13.4085 7.7313
191 2 0.147019 5.06821 13.678 7.38966
275 3 -0.852117 8.9967 7.93991 1.42831
277 3 -0.769799 3.69465 10.1388 3.29199
278 3 -0.852009 4.04632 12.9251 3.5414
85 1 -0.70496 8.84578 9.56822 8.57762
280 3 -0.858745 6.23382 12.3913 1.97302
285 3 -0.833349 4.49201 11.2436 5.57509
286 3 -0.798614 6.21902 10.3481 7.69982
349 2 0.125847 8.39075 12.2786 3.20406
276 3 -0.880624 10.1619 10.1801 2.54926
158 2 0.200532 4.25323 7.79293 8.52119
122 2 0.111275 11.1688 7.88182 3.11155
201 2 0.18326 5.05822 13.0125 8.70169
183 2 0.255703 8.79546 8.43534 8.16999
279 3 -0.851432 1.9527 11.7565 4.73125
283 3 -0.856363 2.59236 10.8138 8.79777
43 4 1.21567 2.97642 9.8953 13.7319
44 4 1.22125 1.46837 12.459 12.4182
316 4 1.19223 8.57465 12.4329 9.74434
317 2 0.0177864 9.67775 11.2981 9.06829
60 4 1.28394 7.05351 9.99308 9.15058
61 4 1.12028 2.71876 12.1202 9.61348
63 4 1.03619 8.48698 9.78252 14.2613
64 4 1.10461 4.38171 12.0253 15.9614
65 4 0.955075 8.0884 12.6712 12.9479
89 1 -0.654094 6.88375 9.31285 15.0529
90 1 -0.661628 4.3221 13.6953 14.9206
91 1 -0.656639 2.52351 11.9845 16.6669
92 1 -0.656801 4.4801 12.855 9.74921
93 1 -0.641729 6.34285 12.7521 12.4426
326 1 -0.687599 3.95013 8.30983 16.9759
339 2 -0.016884 9.84851 9.85108 15.3659
184 2 0.231303 9.45374 9.59492 9.5044
192 2 0.115299 7.35197 9.48336 16.199
193 2 0.166985 6.8112 8.22507 14.7358
194 2 0.273061 5.869 9.90427 14.8535
195 2 0.169979 3.65299 14.2129 15.6619
196 2 0.235593 3.70267 13.5478 13.9999
197 2 0.180478 5.25972 14.223 14.7872
199 2 0.145595 2.41003 12.9287 17.3475
170 2 0.165809 5.13806 14.3634 12.2005
289 3 -0.808684 5.52132 12.0701 17.0811
202 2 0.21134 4.89825 11.8169 10.2529
203 2 0.164261 4.45791 13.8172 10.5025
204 2 0.238553 6.1277 11.6528 12.1836
205 2 0.176935 6.45824 13.4642 11.5261
206 2 0.156931 5.54758 13.1724 13.419
290 3 -0.782844 8.33037 11.2989 13.5499
198 2 0.172252 1.94889 12.0399 15.6961
256 3 -0.837394 1.61021 13.8371 13.1815
272 3 -0.812468 10.348 8.27052 11.0475
284 3 -0.846607 1.82655 12.4515 10.8539
281 3 -0.84464 6.4217 8.90461 10.0485
282 3 -0.780925 7.25643 11.5401 9.96057
254 3 -0.825118 3.22688 8.53492 12.7544
287 3 -0.782048 8.87364 8.73585 13.1871
288 3 -0.740322 4.2965 10.8024 14.8381
255 3 -0.806923 2.21389 11.1674 13.0898
200 2 0.183924 2.52864 10.9957 17.1848
347 2 0.181833 4.01667 9.34415 17.3229
105 2 -0.0153965 0.178108 14.6934 15.2925
327 2 0.168108 3.53516 8.22744 15.934
328 2 0.163073 5.01521 7.76521 17.0518
ITEM: TIMESTEP
100
ITEM: NUMBER OF ATOMS
350
ITEM: BOX BOUNDS xy xz yz pp pp pp
-8.0391893999999997e+00 1.5646843600000000e+01 -7.0268182000000001e+00
0.0000000000000000e+00 1.4894400000000001e+01 -1.0123712000000000e+00
0.0000000000000000e+00 1.7638300000000001e+01 6.7500000000000004e-01
ITEM: ATOMS id type q x y z
225 3 -0.855957 2.35185 0.543636 8.6549
9 4 1.55093 0.569441 2.44842 5.70931
13 4 1.48776 0.27481 4.89349 7.89151
235 3 -0.786494 1.55968 5.56844 8.52475
23 4 1.31298 3.31815 2.57201 3.70052
26 4 1.43006 5.6207 1.6102 5.42748
30 4 1.30073 5.01695 4.77178 2.33195
210 3 -0.774051 -1.64638 3.76244 0.180192
32 4 1.25476 3.60718 7.04136 0.506962
33 4 1.44673 4.61862 3.72758 7.30658
35 4 1.39131 3.98856 6.62776 6.05176
70 1 -0.665497 2.87314 1.46354 2.17724
74 1 -0.684185 0.904648 5.66584 3.89763
97 2 -0.00321671 -2.56798 6.52897 5.70705
15 4 1.36692 -1.27342 7.17194 6.66886
346 2 0.155608 5.34186 1.74691 1.07271
140 2 0.170388 3.71582 1.7475 1.33735
141 2 0.204228 1.80862 1.67457 1.87781
150 2 0.243902 1.78196 5.08427 4.19418
151 2 0.165019 0.870491 5.84626 2.75271
152 2 0.182203 -0.0309016 5.35512 4.41102
139 2 0.177464 2.97412 0.443233 2.71394
207 3 -0.842669 -0.82027 2.36379 4.94071
208 3 -0.854942 0.848572 1.02965 6.55094
212 3 -0.83826 0.490888 3.81873 6.64861
213 3 -0.839637 -0.955806 5.93311 7.67434
224 3 -0.789399 1.75602 2.66535 4.70313
71 1 -0.667407 5.22927 2.14456 0.0712043
226 3 -0.827877 4.30452 1.58243 4.49266
324 2 0.0867437 -2.44509 6.43017 0.953294
230 3 -0.847184 3.91032 3.91495 3.24952
232 3 -0.819711 4.39661 5.77482 1.35953
233 3 -0.840533 3.65417 2.88633 8.20072
314 3 -0.760111 -3.46379 7.08457 3.80038
303 2 0.208008 0.859952 4.65614 0.695976
237 3 -0.845075 2.47513 7.05002 5.85979
238 3 -0.816558 4.21044 5.03131 6.56831
309 2 -0.00826658 -0.70364 6.63427 3.45583
234 3 -0.840394 5.70285 2.86374 6.52031
299 4 1.22776 -0.408678 2.62942 0.800856
300 1 -0.688197 1.1398 3.63916 1.21916
301 2 0.195623 2.02738 3.12382 0.755818
302 2 0.204439 1.27686 3.71314 2.3007
348 2 0.163283 6.5667 0.436128 2.03067
106 2 0.0436983 4.08214 3.50076 0.2237
108 2 -0.00879568 5.76956 3.58406 1.31367
8 4 0.958273 -1.4747 2.59539 8.76938
6 4 1.22961 0.216427 1.45721 16.4629
10 4 1.01668 -1.18194 2.31328 13.5323
12 4 0.998976 -2.75717 5.97649 17.3477
107 2 0.0776517 1.12185 2.77694 9.39271
16 4 1.21043 -0.15388 5.30347 13.7063
240 3 -0.808651 5.32336 3.93541 12.8386
294 2 0.0842323 2.4987 1.39267 14.3028
28 4 0.998275 2.94232 3.19418 16.2711
34 4 1.50689 1.50016 6.98504 9.66267
36 4 1.17535 4.26194 4.90876 13.5767
37 4 1.20771 0.000707278 6.84846 16.1977
211 3 -0.796168 -0.283155 3.55398 9.15846
242 3 -0.796101 1.21276 7.13305 17.1567
72 1 -0.681514 5.72002 1.92566 10.7261
292 1 -0.608958 2.4558 2.04795 12.7116
98 2 0.0778969 1.35327 5.3931 12.871
104 2 -0.0189204 2.9613 2.01224 10.8033
297 2 0.21478 2.06235 3.11091 12.914
295 2 0.149184 1.79292 1.39663 12
142 2 0.141553 5.19311 3.26751 17.4373
128 2 0.19982 -0.931462 2.82016 11.2869
130 2 0.173206 0.469809 1.66518 11.7821
298 2 0.141198 5.59011 1.51617 14.7016
143 2 0.0625954 4.03909 1.56187 16.5547
145 2 0.156132 4.68418 2.36068 10.4344
338 2 0.108536 -2.82463 5.92488 13.2247
209 3 -0.757367 -0.66289 1.22233 14.7323
244 3 -0.863816 2.83597 7.06339 10.5995
25 4 0.997532 2.65031 2.01208 9.12246
214 3 -0.807183 -0.728676 3.86043 13.6267
146 2 0.166753 5.73056 0.857418 11.1967
216 3 -0.838396 -1.26951 6.38035 13.1718
228 3 -0.802243 1.61817 2.30055 16.3409
236 3 -0.816054 0.0328681 6.96954 10.4688
239 3 -0.76573 3.5647 4.04883 14.9252
296 2 0.0892037 3.97342 2.18017 12.1388
241 3 -0.783004 0.262137 5.51911 15.2698
243 3 -0.846398 -1.44802 6.78015 16.9254
66 1 -0.69061 -0.681295 1.76643 11.8283
245 3 -0.792909 3.06284 5.42133 12.6768
38 4 1.38355 3.63101 7.12995 11.9339
215 3 -0.821944 -2.66433 7.35782 10.742
291 4 0.807111 4.00687 0.717264 13.303
17 4 1.30082 -1.26229 7.24093 11.4549
305 3 -0.772073 -0.837115 1.97753 17.5661
174 2 0.186621 4.75838 5.38763 9.16308
18 4 1.00127 -5.37187 11.5197 3.28473
19 4 1.52601 -2.59024 9.60227 8.0201
20 4 1.30555 -4.11066 12.0508 6.2314
24 4 1.2623 -0.558146 13.6586 7.28529
39 4 1.28288 2.47972 9.31823 2.4812
40 4 1.38454 1.95561 9.57506 7.92263
42 4 1.331 0.877053 11.4259 5.83512
75 1 -0.679399 1.33814 10.7244 1.71537
227 3 -0.814263 -1.50579 14.0381 6.13907
99 2 0.0241363 -4.68233 12.6189 1.96351
100 2 0.130785 -2.93651 13.3085 6.2706
111 2 0.0142124 -0.63866 11.0564 4.95852
153 2 0.137029 1.40152 10.6472 0.548098
154 2 0.190045 1.8401 11.6481 2.10156
155 2 0.153652 0.32979 10.5162 2.21645
248 3 -0.830254 1.52035 8.34363 8.7381
313 2 0.242084 -2.47615 9.88726 5.1983
218 3 -0.896249 -1.87575 8.36822 7.38117
219 3 -0.810278 -4.62066 11.8394 4.78456
220 3 -0.818394 -3.32348 10.7785 6.78363
221 3 -0.853424 -5.31676 12.6154 7.1226
310 2 -0.0611251 -2.27055 10.6983 0.454045
246 3 -0.819477 1.50261 8.49813 3.65016
247 3 -0.824624 3.19426 8.28742 1.47818
315 3 -0.800884 -1.9936 8.44638 1.92191
335 2 -0.0246121 0.0742878 9.7502 0.556725
252 3 -0.870677 1.09296 10.1401 6.72215
322 2 0.17712 -5.68371 13.229 0.615088
7 4 1.37156 -5.71873 14.1328 7.65946
306 4 0.93867 -1.87698 7.90547 3.43823
307 4 0.597344 -1.5679 9.15017 0.617336
308 1 -0.678015 -1.79271 9.56125 4.36962
186 2 0.192487 -6.16401 14.0265 2.95427
311 2 0.167046 -1.82837 10.2294 3.41876
312 2 0.180181 -0.684293 9.35234 4.77177
253 3 -0.863383 0.510356 12.6143 6.73163
162 2 0.174479 1.03357 13.513 2.23244
31 4 1.40626 1.28413 7.36773 4.85279
250 3 -0.846348 -1.42317 13.1074 8.53693
231 3 -0.90348 -0.0542229 7.40313 5.65461
86 1 -0.644648 -6.43421 13.0562 2.42927
21 4 0.704781 -2.86505 10.4195 14.3636
22 4 1.2704 -3.49003 12.0462 11.9123
41 4 1.33847 -1.49182 11.9314 9.60357
68 1 -0.642797 -3.99816 8.97578 15.0796
69 1 -0.662098 -0.858388 8.97715 11.9052
77 1 -0.681439 1.49201 9.48859 14.8669
101 2 -0.0844141 -1.68562 11.3338 15.1764
102 2 -0.00486242 -4.23429 10.7511 15.5682
103 2 0.0975667 -5.14388 12.1517 11.4425
112 2 -0.0295759 -0.141576 8.26573 15.2654
113 2 0.00325631 -0.139193 12.1308 10.7501
114 2 -0.0411634 -0.195586 11.9389 12.6092
133 2 0.0451174 -2.38616 8.5373 14.5487
249 3 -0.791994 -1.40652 10.5139 9.00447
344 2 0.156086 -1.09359 13.8476 14.113
136 2 0.200646 0.112787 9.25236 11.294
137 2 0.124755 -0.677348 9.00368 13.0558
138 2 0.228194 -1.78168 9.58913 11.5697
159 2 0.132526 1.61685 8.30378 14.7115
160 2 0.125176 0.524839 9.96826 14.4529
293 1 -0.674872 -1.76577 14.5797 14.7146
341 2 0.151764 -5.1932 14.0172 16.9868
14 4 1.51924 -4.05363 7.7999 9.83445
222 3 -0.826556 -3.26188 10.9119 12.9875
223 3 -0.794344 -3.22891 13.518 12.5699
319 3 -0.779085 -6.54725 12.9307 11.3441
251 3 -0.859297 -2.67298 11.9764 10.6237
334 2 -0.0299669 -2.93272 9.13796 16.7816
345 2 0.137195 -2.28314 14.1306 15.6134
135 2 0.160609 -4.18744 8.25781 15.9997
217 3 -0.82566 -3.75015 9.27273 9.00054
320 1 -0.659515 -6.30653 14.0102 17.0928
161 2 0.15965 1.73892 9.84038 15.8926
321 2 0.141408 -6.89451 13.3741 16.2626
134 2 0.205533 -4.73405 8.72463 14.2758
1 4 1.21206 14.0813 1.59963 3.6662
2 1 -0.659772 12.2945 2.22185 3.50917
3 2 0.170758 12.1467 2.47499 2.38801
4 2 0.152725 11.5373 1.49038 3.90534
337 2 -0.00905012 11.931 0.639175 2.29259
11 4 1.26871 11.1798 5.61038 4.49497
46 4 1.0822 8.06596 1.59383 3.43013
49 4 1.24836 9.82042 4.02395 2.35562
50 4 1.32087 6.29983 7.03106 4.00312
51 4 1.0039 8.44231 6.58668 1.07945
52 4 0.986851 9.92825 5.81142 8.26278
336 2 -0.0292955 7.42569 0.695163 7.88004
67 1 -0.701148 12.187 4.8173 5.99648
325 2 0.166501 11.1768 5.68495 0.355884
257 3 -0.831837 6.96522 1.65088 4.50051
54 4 1.29768 8.90538 7.22076 5.84372
342 2 0.147811 13.1304 4.58066 5.38376
117 2 0.0103778 10.6993 3.26377 1.09055
120 2 -0.00906845 10.4985 4.72189 7.09428
131 2 0.158213 11.7746 3.89863 6.40746
168 2 0.132973 10.0376 3.14468 8.57863
157 2 0.167731 5.61279 7.00509 7.84278
269 3 -0.807639 8.79944 6.75481 7.70747
340 2 0.198275 12.4508 3.22048 4.17432
263 3 -0.811968 4.87622 7.04149 4.74021
175 2 0.161628 6.48803 4.99557 8.51511
260 3 -0.83428 8.89895 2.83897 2.95323
261 3 -0.828448 10.9525 4.54475 3.39765
262 3 -0.795431 6.16693 5.53947 3.06377
132 2 0.178567 12.4263 5.6094 6.84668
264 3 -0.840994 9.1697 5.28863 1.64607
118 2 0.0421147 6.73742 6.38826 0.848097
267 3 -0.848826 9.92032 6.28833 5.13117
163 2 0.141046 8.26688 0.805704 1.13994
78 1 -0.68134 7.70237 0.318012 2.01575
304 3 -0.792274 14.661 1.85933 2.25685
95 2 -0.000757823 13.8163 2.62452 7.14537
94 2 0.0881138 14.7147 0.983758 8.80943
323 1 -0.653249 11.0081 6.90705 17.443
27 4 1.18325 8.2878 1.01598 14.0075
29 4 1.04896 6.5306 2.98638 12.1645
173 2 0.165192 5.68038 3.67578 9.66074
47 4 1.09434 9.98102 3.38438 14.9182
48 4 1.09599 11.6083 2.83803 10.572
55 4 1.25138 11.393 5.11647 12.8835
73 1 -0.670239 7.81932 4.33241 11.5161
79 1 -0.653188 9.64889 3.9362 16.7787
80 1 -0.66968 9.93036 2.76926 9.63845
81 1 -0.674943 11.7001 1.07294 11.7525
328 2 0.169451 4.99961 7.75879 16.9795
96 2 0.0756352 11.4266 6.07028 16.0604
109 2 -0.0201629 5.05129 6.22264 14.2847
116 2 0.148003 10.2414 3.04769 17.25
273 3 -0.826825 7.96116 7.04188 11.2805
121 2 0.00132762 6.3767 6.25218 9.57489
171 2 0.158036 10.8198 0.731581 11.0784
147 2 0.153141 7.58068 4.55522 10.4615
148 2 0.210515 8.92273 4.28793 11.7025
149 2 0.217649 7.41537 5.13045 12.2492
164 2 0.152904 10.2259 5.1725 17.0007
165 2 0.124513 8.52602 3.89761 17.0835
166 2 0.0114973 8.56778 4.40321 15.2135
167 2 0.144224 9.74712 1.64169 9.66223
333 2 0.0167732 12.8659 2.01589 13.0229
169 2 0.157533 9.1057 3.28672 10.4
129 2 0.167446 14.3371 0.963773 11.5031
332 2 0.130596 7.957 6.32913 16.695
172 2 0.198882 11.3186 1.53685 12.6758
331 2 0.135744 6.05437 6.04437 16.5827
229 3 -0.811065 7.5152 2.02849 13.1502
258 3 -0.818177 9.60631 1.93756 14.6065
259 3 -0.812449 12.8305 2.81678 9.53647
266 3 -0.842545 5.31109 7.20817 11.8267
270 3 -0.835436 11.0438 4.26418 14.263
271 3 -0.803263 11.6025 4.06653 11.6938
274 3 -0.865841 10.1856 6.13459 12.5552
56 4 1.52369 9.43075 7.38138 11.9535
53 4 1.28567 6.46065 7.4531 10.8206
329 1 -0.675174 6.81991 6.85091 16.8827
119 2 -0.010801 9.33563 4.64965 9.36093
144 2 0.156752 6.50846 2.05889 9.96654
82 1 -0.651339 5.53728 4.59453 8.85247
265 3 -0.847191 11.1223 6.612 8.8375
45 4 1.2233 5.47163 13.3537 2.88577
57 4 0.931598 10.2267 8.81614 1.8085
58 4 1.46382 3.55166 11.4774 4.29468
59 4 0.9605 6.95976 11.5322 0.894518
62 4 1.1216 5.92199 11.4335 6.47985
115 2 0.0504229 1.86227 14.2833 3.52074
83 1 -0.66772 6.22676 8.64789 2.93089
84 1 -0.664955 9.74607 8.93695 5.65216
76 1 -0.682889 4.68338 7.68096 7.53843
87 1 -0.677973 7.32027 11.0679 5.16579
88 1 -0.672494 6.1223 13.3787 6.91987
5 3 -0.77222 6.55488 13.9236 3.99283
350 2 0.23492 6.33955 13.7951 5.82037
123 2 -0.00954241 8.70867 11.7485 1.06578
110 2 0.0374915 3.37634 9.03203 7.09323
125 2 0.0255635 6.94349 9.98292 1.56138
126 2 0.0143989 3.24074 13.3456 8.51235
156 2 0.209803 5.08112 8.62745 7.08603
176 2 0.162086 6.3241 8.13353 1.87117
177 2 0.181202 7.19866 9.18711 3.28657
178 2 0.276093 5.23342 9.17582 3.08809
179 2 0.194162 9.27728 9.29898 4.68963
180 2 0.206218 10.866 8.69477 5.58207
181 2 0.178146 9.59722 9.67768 6.50675
182 2 0.168228 9.14375 10.1881 7.7812
185 2 0.198871 8.5559 13.2762 1.57033
187 2 0.173983 8.21978 10.3181 5.38574
188 2 0.195623 7.58845 12.2104 5.06529
189 2 0.180103 6.63812 10.7149 4.36233
190 2 0.241088 7.06474 13.3913 7.65128
191 2 0.145114 5.14386 13.8644 7.28208
275 3 -0.818179 8.77532 8.18077 1.46813
277 3 -0.822528 3.64444 10.1286 3.43407
278 3 -0.830203 4.07123 12.7224 3.37248
85 1 -0.68787 8.77483 9.52841 8.67998
280 3 -0.846462 6.24274 12.3986 1.89426
285 3 -0.818467 4.49785 11.439 5.69766
286 3 -0.784715 6.18345 10.54 7.86282
349 2 0.112669 8.5148 12.1884 3.55336
276 3 -0.852885 10.2777 10.1306 2.60689
158 2 0.196918 3.94086 7.9226 8.38405
122 2 0.123749 11.1935 7.7392 2.74491
201 2 0.192442 5.20078 12.8802 8.63109
183 2 0.270504 8.74253 8.41471 8.4252
279 3 -0.833266 1.90867 11.865 4.70705
124 2 -0.0604476 11.2335 8.72922 0.468041
268 3 -0.833041 7.61235 7.34521 5.01534
199 2 0.171713 3.93532 12.2738 0.0551002
43 4 1.23453 2.90718 9.96394 13.7317
44 4 1.16918 1.42773 12.3986 12.3472
316 4 1.21282 8.66889 12.5226 9.83617
317 2 0.0212514 9.58836 11.3312 9.07314
60 4 1.31224 6.98863 10.1368 9.29423
61 4 1.07491 2.80462 12.0474 9.68125
63 4 1.01838 8.574 9.74267 14.1366
64 4 1.08357 4.35858 12.0343 15.7993
65 4 0.968463 7.95386 12.6279 12.9048
89 1 -0.653803 6.90304 9.3167 14.9
90 1 -0.652118 4.51188 13.7946 14.9533
91 1 -0.66186 2.74218 12.1704 16.879
92 1 -0.641773 4.57736 12.7403 9.73899
93 1 -0.670113 6.22059 12.546 12.4468
326 1 -0.658618 3.86389 8.2787 16.9115
339 2 -0.0087815 9.94093 9.82043 15.2396
184 2 0.219333 9.39308 9.69518 9.5853
192 2 0.101511 7.46691 9.32167 16.0499
193 2 0.184489 6.82652 8.26271 14.4741
194 2 0.287449 5.96158 9.8693 14.8336
195 2 0.175235 3.87641 14.3687 15.7272
196 2 0.203248 4.07812 13.9047 13.9335
197 2 0.17125 5.58157 14.2502 14.9606
105 2 -0.0150929 0.235672 14.7674 15.2224
170 2 0.159872 5.38121 14.5041 11.9581
289 3 -0.7866 5.49734 12.1104 16.9841
202 2 0.186127 4.88521 11.6705 10.3796
203 2 0.16697 4.69105 13.7071 10.4376
204 2 0.222147 6.09267 11.4019 12.3238
205 2 0.191454 6.25635 13.0494 11.4072
206 2 0.15979 5.4422 13.0818 13.3283
290 3 -0.791897 8.4186 11.3366 13.5915
198 2 0.143354 2.05138 12.4984 16.0771
256 3 -0.800661 1.48788 13.8534 13.2316
272 3 -0.834149 10.3841 8.11316 10.8798
284 3 -0.808381 1.80064 12.7592 10.7543
281 3 -0.834398 6.42849 8.90837 10.1212
282 3 -0.817476 7.3463 11.6018 9.90629
254 3 -0.769946 3.36123 8.55142 12.8813
287 3 -0.786567 9.00802 8.53922 13.2022
288 3 -0.749279 4.27757 10.6907 14.7609
255 3 -0.834904 2.212 11.1196 12.8761
200 2 0.161126 2.50739 11.1239 17.3128
347 2 0.170895 3.91148 9.38737 17.2423
127 2 0.0822631 8.00212 14.0333 13.9741
327 2 0.175714 3.36214 8.15058 15.9009
283 3 -0.848815 2.49136 10.6748 8.94416
330 2 0.165056 6.76958 7.76748 16.1535
343 2 0.132017 10.5966 7.93406 17.1251
318 3 -0.813279 8.36144 13.7467 8.89443
ITEM: TIMESTEP
200
ITEM: NUMBER OF ATOMS
350
ITEM: BOX BOUNDS xy xz yz pp pp pp
-8.0230787999999986e+00 1.5615487200000000e+01 -7.0127363999999996e+00
0.0000000000000000e+00 1.4894400000000001e+01 -1.0103423999999990e+00
0.0000000000000000e+00 1.7638300000000001e+01 6.7500000000000004e-01
ITEM: ATOMS id type q x y z
225 3 -0.814255 2.37174 0.409688 8.66047
9 4 1.53909 0.610646 2.51247 5.66683
13 4 1.43964 0.267279 4.81686 7.86687
235 3 -0.807546 1.44683 5.67033 8.70048
23 4 1.35459 3.20196 2.70219 3.80254
26 4 1.44495 5.62784 1.64168 5.40478
30 4 1.25555 4.9507 4.8546 2.35921
210 3 -0.809347 -1.65812 3.72841 0.174714
32 4 1.21263 3.50315 6.96714 0.377564
33 4 1.34409 4.7045 3.6904 7.47279
35 4 1.39479 4.06327 6.52122 6.11637
70 1 -0.647291 2.9392 1.48489 2.34586
74 1 -0.671039 0.868136 5.81678 3.70503
97 2 0.00489616 -2.45666 6.44229 5.78284
15 4 1.39274 -1.30288 7.12504 6.75181
346 2 0.13579 5.36161 1.83541 1.25055
140 2 0.157349 3.76414 1.76048 1.43618
141 2 0.184467 1.84944 1.83936 2.09305
150 2 0.237197 1.87217 5.14205 3.91298
151 2 0.184641 0.825077 6.35987 2.73409
152 2 0.157475 -0.121553 5.31544 4.06733
139 2 0.164115 3.0506 0.401301 2.84301
207 3 -0.834533 -0.927465 2.27585 5.06481
208 3 -0.824468 0.818177 0.951317 6.45214
212 3 -0.860226 0.654456 3.80549 6.5942
213 3 -0.861884 -0.978512 5.8441 7.54727
224 3 -0.833299 1.73411 2.62417 4.61343
71 1 -0.651454 5.2464 2.23333 0.155465
226 3 -0.83145 4.22807 1.88895 4.65561
324 2 0.0463737 -2.56523 6.17126 1.24797
230 3 -0.816987 3.7271 4.18593 3.29944
232 3 -0.819776 4.24915 5.8179 1.29706
233 3 -0.798858 3.55942 2.77647 8.34254
314 3 -0.824292 -3.44663 7.0895 3.71052
303 2 0.193905 0.3722 4.95746 0.974423
237 3 -0.84281 2.63908 7.09415 5.66547
238 3 -0.78876 4.0721 4.84849 6.57581
309 2 -0.0130418 -0.823373 6.64982 3.16555
234 3 -0.803757 5.79356 2.75343 6.62272
299 4 1.24147 -0.521764 2.7179 0.768243
300 1 -0.662459 0.855006 3.92262 1.28047
301 2 0.181386 1.73093 3.58919 0.553193