ITEM: TIMESTEP
0
ITEM: NUMBER OF ATOMS
350
ITEM: BOX BOUNDS xy xz yz pp pp pp
-8.0552999999999990e+00 1.5678200000000000e+01 -7.0408999999999997e+00
0.0000000000000000e+00 1.4894400000000001e+01 -1.0144000000000000e+00
0.0000000000000000e+00 1.7638300000000001e+01 6.7500000000000004e-01
ITEM: ATOMS id type x y z
346 2 5.81271 2.12731 0.835397
9 4 0.60979 2.48792 5.81982
13 4 0.180468 4.83282 8.07666
15 4 -1.27788 6.98784 6.55955
23 4 3.42874 2.45159 4.02245
26 4 6.19348 1.51692 5.00419
30 4 4.69633 4.70216 2.36646
314 3 -3.22981 6.45605 3.31822
32 4 3.25759 6.75452 0.507854
33 4 5.59678 3.65948 7.17564
108 2 5.18085 3.4387 1.3377
70 1 2.70418 1.19198 2.75274
74 1 1.36917 5.59615 3.96791
97 2 -2.20807 6.15352 5.39153
231 3 -0.0175386 7.24628 5.64572
31 4 1.42475 7.15586 5.03728
140 2 3.25252 1.46912 1.75152
141 2 1.55768 1.32993 2.67444
150 2 2.07126 4.90583 4.52053
151 2 1.74948 5.9621 2.99563
152 2 0.363129 5.14889 3.89135
304 3 -0.180854 1.54526 2.30646
207 3 -0.728559 2.63939 4.71709
208 3 0.381335 0.993456 6.43179
212 3 0.466947 3.84225 6.77296
213 3 -0.910053 6.01464 7.72039
224 3 1.99578 2.48657 4.93443
225 3 2.6332 0.699375 7.59694
226 3 4.65661 1.59449 4.4635
303 2 0.925911 4.83779 1.07009
230 3 3.87248 3.89809 3.47353
232 3 3.80882 5.56883 1.43216
233 3 4.41868 2.66032 7.92855
301 2 2.43669 3.71899 0.666195
302 2 1.70981 3.75893 2.3388
237 3 2.80643 6.82502 6.26955
238 3 4.99227 5.07783 6.77621
300 1 1.47392 3.86247 1.27102
139 2 2.99297 0.201128 3.16762
299 4 0.127881 2.63098 0.826997
25 4 3.27655 1.81913 8.47042
163 2 7.03631 0.537885 0.986975
210 3 -1.21682 3.43099 0.309106
8 4 -1.55834 2.57433 8.80465
6 4 1.03826 1.85425 16.2607
10 4 -0.648364 2.49437 13.6256
12 4 -2.77665 5.46212 17.3719
296 2 4.22796 2.03707 11.0456
16 4 -0.358059 5.63719 13.6775
17 4 -1.33182 7.24309 11.2804
291 4 3.16383 0.702224 12.9668
28 4 3.77955 3.58409 16.1335
34 4 1.51401 6.86367 9.90352
36 4 4.56633 5.13159 13.5189
37 4 -0.380424 6.97928 16.3085
107 2 2.12925 2.85797 9.11
338 2 -3.06411 5.60534 12.8748
72 1 6.19509 1.68631 10.6038
71 1 5.1465 3.27106 17.5283
98 2 0.866091 6.03602 12.5978
104 2 3.7202 0.915514 9.88549
242 3 0.86224 7.07928 17.3547
297 2 2.87365 3.17564 11.5022
128 2 -0.0999095 1.47696 11.6231
66 1 -1.21908 1.81156 11.948
235 3 1.56435 5.55573 8.9312
298 2 4.58639 2.24534 13.974
143 2 5.37144 2.19462 16.4057
145 2 5.56966 2.29563 9.86591
146 2 5.56229 0.872555 11.1033
209 3 0.29674 1.57028 14.4823
294 2 1.66861 1.55078 12.595
211 3 -0.565864 3.67817 9.1892
214 3 -0.642233 4.04098 13.5157
215 3 -2.76967 7.0923 10.5891
216 3 -1.69095 6.44615 13.0984
228 3 2.44171 2.68673 16.214
236 3 0.0609455 6.56386 11.0219
239 3 4.19522 4.3905 14.8648
305 3 -0.155077 2.47565 17.3175
241 3 0.0292821 6.00433 15.145
243 3 -1.8372 6.59473 16.8996
244 3 2.9441 7.32593 10.5642
245 3 3.25447 5.979 12.9323
106 2 3.84337 4.69074 17.4531
292 1 3.11141 2.08568 11.3587
293 1 4.4354 1.11625 14.2389
295 2 2.33333 1.60969 10.5842
240 3 5.22406 4.02812 12.4658
345 2 3.68198 0.94226 15.148
129 2 -1.61266 2.69442 11.374
38 4 3.54467 7.3936 12.0729
327 2 3.01814 7.57942 15.8516
94 2 -0.721229 1.06383 8.9559
18 4 -5.27427 11.4204 3.1037
19 4 -3.02989 9.58006 7.69645
20 4 -4.41654 11.7959 6.19836
24 4 -0.360845 14.0446 7.46544
39 4 2.3491 9.34942 2.74653
40 4 2.15973 9.44802 8.51564
42 4 1.17065 11.6656 6.43988
75 1 0.734772 9.98404 1.93419
86 1 -6.10172 12.8832 2.02173
99 2 -4.30015 12.2385 1.89975
100 2 -3.01766 12.767 6.43291
111 2 -0.282836 11.3731 5.72806
153 2 0.95528 11.0928 2.10107
154 2 -0.207227 9.59281 2.60424
155 2 0.927295 9.53664 0.8436
309 2 -0.618887 7.57246 3.2886
186 2 -5.42137 13.7772 2.28951
218 3 -2.18534 8.21719 6.99691
219 3 -4.66016 11.7294 4.47192
220 3 -4.12779 10.3482 6.80327
221 3 -5.62709 12.563 6.75498
335 2 -0.707612 10.2026 0.633043
246 3 1.78106 8.35866 4.01199
247 3 3.12861 8.32245 1.64085
7 4 -5.80223 14.1467 7.28746
250 3 -1.53895 13.3468 8.37893
252 3 1.53548 10.3903 7.2989
227 3 -0.708484 14.4114 5.9693
341 2 -5.13581 13.4147 0.329461
306 4 -2.26749 7.56958 2.67015
307 4 -2.27362 9.52992 0.395226
308 1 -1.73378 9.09579 3.77664
310 2 -3.23254 10.7988 0.730633
311 2 -1.82827 10.0049 3.16627
312 2 -0.836492 9.20283 4.48645
313 2 -2.72413 8.96063 4.46803
315 3 -2.37325 8.24462 1.30519
249 3 -1.83822 10.5803 8.18742
348 2 0.972126 13.0705 1.63787
253 3 0.997957 12.9679 7.54153
21 4 -1.91593 10.6144 14.2357
22 4 -3.33371 12.0322 11.7629
41 4 -1.5534 11.9297 9.13698
68 1 -3.05536 8.91613 14.6351
69 1 -0.98447 9.09175 11.4488
77 1 1.01574 9.48607 15.1205
101 2 -0.154733 10.7399 14.1658
102 2 -2.36437 11.3856 15.6676
103 2 -4.74032 11.1936 11.645
112 2 -0.634546 8.56158 15.6122
113 2 -0.0827415 11.6522 9.81435
114 2 -0.0342669 12.2152 11.7656
133 2 -1.88547 8.69737 14.1051
134 2 -3.85358 8.77612 13.8567
135 2 -3.14905 8.09089 15.4314
136 2 -0.224388 9.4121 10.7297
137 2 -0.652805 9.08821 12.5708
138 2 -1.99018 9.65724 11.2981
159 2 0.585824 10.3283 15.7455
321 2 -4.45343 14.366 16.9273
161 2 0.440964 9.05264 14.1755
127 2 -6.75242 14.2186 13.7784
248 3 1.14295 8.38694 9.06916
222 3 -2.58771 11.2902 12.9993
223 3 -3.56902 13.4695 12.402
334 2 -3.42486 9.73474 16.3484
251 3 -2.57742 11.977 10.3808
339 2 -4.55976 10.1989 14.8804
344 2 -1.73446 14.6601 14.0682
317 2 -5.16447 12.0563 9.56479
318 3 -6.72872 14.0557 9.03894
320 1 -5.64092 14.4159 16.9337
160 2 1.5705 8.71291 15.7753
322 2 -6.12603 13.7923 16.0755
254 3 2.92516 8.82484 13.0082
199 2 1.35101 11.0881 16.6889
217 3 -3.87623 8.9338 8.90387
319 3 -6.80486 12.9654 11.45
1 4 14.4344 1.78134 3.47837
2 1 12.865 2.65752 2.9454
3 2 12.6014 2.52535 1.84588
4 2 11.9686 2.43301 3.62595
340 2 13.1958 3.75154 3.14184
11 4 11.215 5.57329 4.02369
46 4 8.47028 1.24167 2.56136
49 4 10.0069 3.89298 1.83436
50 4 6.12686 6.84928 3.80209
51 4 8.55356 6.3458 0.600443
52 4 9.73396 5.85564 7.91914
35 4 4.3633 6.55656 6.31212
67 1 12.07 4.75482 5.60017
265 3 10.8692 6.48898 8.79316
82 1 7.03579 4.01627 8.39401
95 2 13.8494 2.50013 7.10941
342 2 13.0315 4.40894 5.15508
117 2 11.3313 3.95577 0.792352
120 2 10.475 4.7369 6.81448
131 2 11.3367 3.88924 5.81497
132 2 12.2581 5.3501 6.57511
157 2 6.14501 6.98276 7.75395
173 2 7.94043 3.76414 7.69433
234 3 6.57693 2.87977 5.93937
257 3 7.29806 1.42954 3.76018
175 2 6.82848 5.0875 8.67648
260 3 9.38039 2.39597 1.97879
261 3 10.6218 4.3906 3.20753
262 3 6.0686 5.51083 2.86824
337 2 11.9196 1.0591 2.22948
264 3 9.00451 4.85575 1.16702
336 2 7.14413 1.26921 8.21303
267 3 10.0775 6.4597 4.73304
268 3 7.60212 7.06577 4.61053
269 3 8.8288 6.95037 7.26268
168 2 10.2319 2.01692 8.38197
324 2 12.6655 5.33547 1.02256
263 3 4.91681 7.04325 4.90043
54 4 8.9182 7.23349 5.42787
118 2 6.85317 6.44519 0.0314877
170 2 12.3586 0.807718 11.8584
27 4 8.1966 1.00843 13.9949
29 4 6.52017 2.9314 12.171
332 2 8.54173 7.14713 16.2713
47 4 9.84227 3.30865 14.8172
48 4 11.2541 2.67125 10.3721
55 4 11.061 4.97784 12.5913
73 1 7.95163 4.05558 11.5731
79 1 8.3553 4.17397 15.7374
80 1 9.67252 2.41427 9.3325
81 1 11.2955 1.23127 11.7528
333 2 13.3829 1.88814 13.5695
130 2 13.7723 0.883491 11.9117
109 2 5.75302 6.19404 13.9699
116 2 10.0155 3.62461 16.573
325 2 9.86146 5.63514 17.1245
121 2 6.19125 7.39674 9.49731
273 3 7.7911 7.42581 11.4703
147 2 7.40113 4.99194 11.3108
148 2 8.64387 3.50147 10.7546
149 2 8.52852 4.23382 12.5854
164 2 8.79052 5.02232 16.4229
165 2 7.66858 3.51473 16.2876
166 2 7.91296 4.5438 14.6835
167 2 9.34185 1.4821 9.95455
331 2 6.82003 6.12378 16.014
169 2 8.71272 3.01179 8.97948
328 2 4.40888 7.00022 17.0083
174 2 6.84084 3.1677 9.32271
172 2 11.0695 1.93134 12.6643
119 2 8.73533 4.8837 8.88734
229 3 7.15356 2.02928 13.345
258 3 9.573 1.69186 14.5689
259 3 12.6496 2.63412 9.46163
343 2 11.0299 6.95266 16.7591
270 3 10.6702 4.15912 13.8794
271 3 11.0619 3.97896 11.3351
274 3 9.97366 6.23915 12.5237
96 2 11.5317 5.07397 15.9192
323 1 10.9096 5.87852 17.0294
329 1 7.26587 7.12158 16.3683
144 2 7.16257 1.24595 10.2347
171 2 10.399 0.558284 11.4663
142 2 6.04635 3.9258 17.5996
45 4 5.29004 13.8113 2.93879
57 4 8.99832 9.23268 1.64661
58 4 3.48419 11.8637 4.45847
59 4 6.45414 11.7054 1.0628
62 4 6.0217 11.4671 6.24455
349 2 8.60038 12.6989 2.96722
83 1 5.84788 8.4145 2.58126
84 1 9.22561 9.11774 5.45312
122 2 8.94909 9.98063 0.162506
87 1 7.55316 11.7403 5.0231
88 1 5.96547 13.1394 7.18589
110 2 3.47158 8.57887 7.78075
286 3 6.38309 10.2995 7.34196
123 2 8.09519 11.724 1.31725
124 2 7.53329 9.56903 2.4077
125 2 5.96803 10.28 1.8656
126 2 2.28609 12.8445 8.61844
156 2 5.56735 8.66185 7.592
176 2 4.64301 8.37859 2.21664
177 2 6.5844 8.32544 1.70954
178 2 6.05172 9.24264 3.34276
179 2 8.3833 9.7032 4.87517
180 2 10.1903 9.22455 4.9536
181 2 9.3068 9.41642 6.56925
182 2 9.39411 10.4228 7.81776
183 2 8.91132 8.55759 7.9819
187 2 7.73499 10.891 4.26455
188 2 8.41714 11.9094 5.75431
189 2 7.16192 12.7406 4.45439
190 2 6.70068 13.0791 8.08122
191 2 4.96822 13.4884 7.39447
275 3 8.87381 7.73893 1.39327
277 3 3.10745 10.7654 3.14639
278 3 4.00856 13.2909 3.84469
85 1 8.93526 9.62704 8.53063
280 3 5.76339 12.9373 1.65774
285 3 4.77828 11.187 5.37233
350 2 6.40971 13.7774 6.29934
76 1 5.19045 7.59502 7.75875
78 1 1.136 14.1291 1.29355
162 2 1.80749 14.1469 0.441183
276 3 10.1176 9.93652 2.56802
5 3 6.57935 14.1552 3.77596
279 3 2.20318 11.9503 5.3635
115 2 2.29594 13.9579 2.89172
198 2 3.21977 11.3839 0.43374
185 2 9.05924 13.035 1.01473
158 2 4.63342 7.4639 8.70963
43 4 2.5952 10.0143 13.9684
288 3 3.71328 10.4286 15.1715
53 4 6.47309 8.12538 10.9873
283 3 2.78701 10.4412 9.60234
60 4 7.27657 10.3082 9.00046
61 4 2.98351 11.9975 9.87634
63 4 9.4931 10.0521 14.3456
64 4 3.76436 11.8653 16.0012
65 4 8.51434 12.8259 12.96
89 1 8.87778 10.028 16.1446
90 1 4.01098 13.3779 14.8261
91 1 2.11494 11.9359 16.9645
92 1 4.78067 12.6945 10.1571
93 1 6.58023 12.7924 12.9667
290 3 9.01573 11.5179 13.7115
289 3 5.17612 12.1238 17.2004
184 2 9.54141 9.52866 9.49482
192 2 9.44537 9.12276 16.5778
193 2 7.76554 9.86377 15.9956
56 4 9.29313 7.6577 12.0501
195 2 4.97658 13.0645 14.1434
196 2 4.23171 14.2324 15.5114
197 2 3.10936 13.5647 14.17
200 2 1.93054 13.0927 16.401
14 4 11.4177 7.6191 9.81915
194 2 9.18501 11.1349 16.433
202 2 5.19397 11.8873 10.8368
203 2 4.59974 13.7142 10.7501
204 2 6.40447 11.8172 13.546
205 2 5.89202 12.8374 11.8494
206 2 6.52386 13.7865 13.667
201 2 5.26478 12.7948 9.10474
255 3 1.96104 11.2604 13.2953
256 3 1.33166 13.9602 13.0976
272 3 10.3436 8.13579 10.8628
330 2 6.7746 8.07672 15.9384
281 3 6.63617 9.56626 10.332
282 3 7.81899 11.7396 9.32812
284 3 2.15919 12.5685 11.0504
287 3 9.23986 8.6926 13.3733
316 4 8.97111 12.7073 9.84579
326 1 3.59121 7.75703 16.8528
44 4 1.45638 12.5138 12.4255
266 3 5.17504 7.72599 11.894
347 2 3.80312 8.83627 17.1017
105 2 0.269119 14.7839 15.3548
ITEM: TIMESTEP
100
ITEM: NUMBER OF ATOMS
350
ITEM: BOX BOUNDS xy xz yz pp pp pp
-8.0512723499999996e+00 1.5670360900000000e+01 -7.0373795499999998e+00
0.0000000000000000e+00 1.4894400000000001e+01 -1.0138928000000000e+00
0.0000000000000000e+00 1.7638300000000001e+01 6.7500000000000004e-01
ITEM: ATOMS id type x y z
346 2 5.99738 2.25734 0.802434
9 4 0.537552 2.62047 5.74803
13 4 0.143104 4.93653 8.18124
15 4 -1.28943 7.12072 6.62993
23 4 3.33335 2.41635 4.03093
26 4 6.06072 1.47808 5.11658
30 4 4.58909 4.73645 2.37007
314 3 -3.26509 6.43586 3.34265
32 4 3.17106 6.95864 0.637618
33 4 5.5948 3.6153 7.08905
108 2 5.23515 3.44757 1.34044
70 1 2.77545 1.24037 2.58002
74 1 1.36665 5.86724 4.06458
97 2 -2.0921 6.07903 5.52308
227 3 6.25127 0.260085 6.0968
107 2 1.96825 2.93751 8.72637
140 2 3.28124 1.62153 1.63004
141 2 1.57966 1.40335 2.55355
150 2 1.88307 4.968 4.42791
151 2 1.9145 6.32842 3.17754
152 2 0.268643 5.71197 3.88779
304 3 -0.0954886 1.73561 2.35602
207 3 -0.865005 2.65202 4.85928
208 3 0.321413 1.00558 6.36333
212 3 0.457062 3.93453 6.78179
213 3 -0.96037 6.12759 7.75752
224 3 1.99261 2.72294 4.81564
225 3 2.61243 0.651209 7.59361
226 3 4.52706 1.57155 4.58129
303 2 0.561957 4.99672 1.34539
230 3 3.75208 3.79166 3.2972
232 3 3.75176 5.76246 1.564
233 3 4.46213 2.53557 7.97836
301 2 2.23737 4.1715 0.895938
302 2 1.41703 3.90648 2.59567
237 3 2.88003 6.86883 6.39486
238 3 4.90143 4.94505 6.64706
300 1 1.25312 4.11392 1.50451
139 2 3.09627 0.21166 2.84123
299 4 0.210084 2.72694 0.858355
25 4 3.21347 1.80435 8.43098
163 2 6.71463 0.404544 1.03512
210 3 -1.27101 3.44967 0.208349
94 2 -0.762988 1.29074 8.77205
6 4 1.05781 1.88617 16.2341
10 4 -0.624541 2.48368 13.6386
12 4 -2.94259 5.47773 17.2603
296 2 4.29477 2.23194 11.094
16 4 -0.373375 5.65684 13.6368
17 4 -1.38148 7.32677 11.407
291 4 3.24439 0.788774 12.9133
28 4 3.78151 3.69158 16.1247
34 4 1.54118 6.88515 9.87737
36 4 4.59255 5.05734 13.4813
37 4 -0.414504 7.00196 16.3303
326 1 3.37825 7.56537 16.8064
338 2 -3.05809 5.82087 12.9006
72 1 6.24538 1.93036 10.6914
71 1 5.24591 3.4409 17.4687
98 2 0.812593 6.29642 12.5466
104 2 3.57294 1.15133 9.9611
242 3 0.724261 7.30004 17.5295
297 2 3.08081 3.29104 12.0589
128 2 -0.041929 1.54877 11.5979
66 1 -1.17915 1.86006 11.9202
235 3 1.52836 5.57595 8.88736
298 2 4.76439 2.1112 14.1577
143 2 5.39893 2.35648 16.4374
145 2 5.46686 2.27373 9.95591
146 2 5.89019 1.01044 11.2373
209 3 0.365746 1.54912 14.4562
294 2 1.75654 1.49283 12.4396
211 3 -0.761013 3.76066 9.35829
214 3 -0.542939 4.05982 13.575
215 3 -2.713 7.10863 10.5139
216 3 -1.7231 6.54444 13.2445
228 3 2.41757 2.77609 16.3
236 3 0.064651 6.65771 11.104
239 3 4.16722 4.4124 14.7919
305 3 -0.0517328 2.55432 17.3149
241 3 0.10309 6.18512 15.1376
243 3 -1.9156 6.59682 16.9784
244 3 2.87455 7.02823 10.6303
245 3 3.42516 6.01516 12.9081
106 2 4.03881 4.90013 17.4407
292 1 3.16954 2.37363 11.436
293 1 4.43337 1.03075 14.2771
295 2 2.3914 2.42856 10.5522
240 3 5.30053 3.89847 12.5064
345 2 3.41516 0.85644 15.085
129 2 -1.35659 2.90456 11.4338
327 2 2.87858 7.38023 15.8383
18 4 -5.15057 11.484 2.99319
19 4 -2.9794 9.4982 7.72808
20 4 -4.49108 11.7896 6.08024
24 4 -0.358787 14.0141 7.62043
39 4 2.33299 9.35225 2.756
40 4 2.29891 9.44909 8.47164
42 4 1.18065 11.7189 6.49956
75 1 0.572094 9.72688 2.06324
86 1 -6.05419 12.8936 1.88058
99 2 -4.21942 12.3125 1.67064
100 2 -3.20655 12.6601 6.70553
111 2 -0.184844 11.2422 5.7021
153 2 0.651235 10.8559 1.9962
154 2 -0.277999 9.45475 2.73018
155 2 0.695771 9.09631 1.08622
309 2 -0.690247 7.48575 3.18918
186 2 -5.40389 13.8684 2.21581
218 3 -2.20195 8.32516 6.98292
219 3 -4.58251 11.8346 4.42704
220 3 -4.13886 10.3471 6.58413
221 3 -5.715 12.4303 6.82795
335 2 -0.732061 10.1262 0.592765
246 3 2.11054 8.50435 4.08817
247 3 3.21302 8.62299 1.54072
7 4 -5.81491 14.2227 7.33435
250 3 -1.51815 13.2277 8.36205
252 3 1.75253 10.4702 7.44751
231 3 0.212112 7.53841 5.91997
341 2 -5.03504 13.5463 0.255071
306 4 -2.37645 7.57263 2.6751
307 4 -2.28741 9.42257 0.333089
308 1 -1.78774 8.90015 3.96223
310 2 -3.51102 10.5232 0.497679
311 2 -1.70712 9.82287 3.29422
312 2 -0.923202 8.73835 4.59718
313 2 -2.80858 8.80852 4.60335
315 3 -2.48543 8.18597 1.23313
249 3 -2.10592 10.6124 8.34078
348 2 0.923728 13.1303 1.03329
253 3 0.922828 13.0673 7.37302
31 4 1.68436 7.32061 5.26443
21 4 -2.02175 10.5411 14.2191
22 4 -3.38412 12.0883 11.6574
41 4 -1.54712 11.8107 9.22487
68 1 -3.03285 8.82251 14.6166
69 1 -0.866461 9.10928 11.4532
77 1 1.04559 9.4437 15.0059
101 2 -0.281932 10.6756 14.2324
102 2 -2.1047 11.4346 15.7412
103 2 -4.86622 11.4759 11.3106
112 2 -0.609404 8.6181 15.7729
113 2 0.0811935 11.4518 9.56134
114 2 -0.258838 11.9322 12.3125
133 2 -1.82887 8.64487 14.351
134 2 -3.59656 8.70405 13.6113
135 2 -3.35377 8.01668 15.2602
136 2 -0.149129 9.12022 10.539
137 2 -0.387294 9.42881 12.4252
138 2 -1.90961 9.6303 11.2348
159 2 0.673829 10.4052 15.6028
321 2 -4.34586 14.4502 16.8021
161 2 0.34085 9.01591 14.2539
127 2 -6.73588 14.2545 13.8906
248 3 1.34196 8.35063 9.0511
222 3 -2.74316 11.2085 12.9326
223 3 -3.64063 13.6212 12.1289
334 2 -3.42724 9.79776 16.2044
251 3 -2.35179 11.904 10.5176
339 2 -4.55492 10.0492 14.6497
316 4 -6.64931 12.8649 9.82048
317 2 -5.16644 12.1411 9.40621
318 3 -6.76126 14.3021 9.07685
320 1 -5.52022 14.4269 16.8276
160 2 1.60937 8.66974 15.6511
322 2 -5.96374 13.7828 15.9382
254 3 3.00242 8.68433 12.9678
199 2 1.43305 11.1324 16.4989
217 3 -3.92808 9.08186 9.09992
319 3 -6.71567 13.0365 11.4067
344 2 -1.84599 14.3819 14.2614
1 4 14.453 1.68818 3.62556
2 1 13.0659 2.65212 2.79854
3 2 12.8766 2.44029 1.71529
4 2 12.1847 2.31496 3.53423
340 2 13.1942 3.80909 2.96222
11 4 11.1535 5.58593 4.06209
46 4 8.2629 1.33642 2.42066
49 4 10.0908 3.84142 1.89949
50 4 6.14524 6.82649 3.79456
51 4 8.55862 6.33598 0.792192
52 4 9.74293 5.97749 7.91062
35 4 4.4154 6.46231 6.31656
67 1 12.0983 4.71877 5.57863
162 2 8.49012 0.504667 0.278793
82 1 7.01357 4.09374 8.36559
95 2 13.5471 2.90458 7.15079
342 2 13.0729 4.07976 5.17018
117 2 11.4026 3.80546 0.726837
120 2 10.5861 4.92395 6.85084
131 2 11.2728 3.85476 5.55219
132 2 12.2341 5.21201 6.58859
157 2 6.21675 6.89917 7.83459
173 2 7.88981 3.85489 7.61704
234 3 6.36475 2.92261 5.90501
257 3 7.21805 1.49798 3.68481
175 2 6.95905 5.1698 8.65705
260 3 9.32423 2.42104 1.99113
261 3 10.6711 4.33929 3.28141
262 3 6.00457 5.48222 2.90525
337 2 11.7984 1.06649 2.45431
264 3 9.12509 4.9921 1.31667
336 2 7.24746 1.10665 8.59648
267 3 10.1433 6.58581 4.82189
268 3 7.56253 7.07699 4.52389
269 3 8.67984 6.94616 7.30969
168 2 10.3562 2.30914 8.37009
324 2 12.2 5.46836 0.922863
263 3 4.99247 7.07697 4.84889
54 4 8.87455 7.27781 5.46829
118 2 6.81793 6.14487 0.604843
119 2 8.8767 4.80891 8.70901
158 2 4.52754 7.28356 8.65753
8 4 13.9783 2.72903 8.78545
170 2 12.3851 0.694677 11.8384
27 4 8.09983 0.908878 14.1509
29 4 6.6026 3.04194 12.2975
332 2 8.11318 7.19127 16.1647
47 4 9.75234 3.34197 14.7282
48 4 11.2099 2.66271 10.4973
55 4 11.0721 5.09693 12.5377
73 1 7.94831 4.20669 11.4483
79 1 8.31271 4.22387 15.6433
80 1 9.66091 2.46239 9.3305
81 1 11.3216 1.14837 11.8076
333 2 13.405 1.78839 13.5317
130 2 13.7343 1.05384 11.582
109 2 5.7994 6.10885 13.8708
116 2 10.0418 3.66318 16.4123
325 2 9.73513 5.42678 16.9906
121 2 6.05345 6.8262 9.46079
273 3 7.86796 7.5165 11.2983
147 2 7.36622 4.99098 10.9183
148 2 8.67482 3.55651 10.7039
149 2 8.48858 4.56477 12.3882
164 2 8.65518 5.26775 15.9758
165 2 7.66894 3.70926 16.4523
166 2 7.67791 4.381 14.6045
167 2 9.3686 1.41326 9.76114
331 2 6.62062 6.05365 16.2361
169 2 8.7206 3.00955 9.02567
328 2 4.14406 6.75507 17.021
174 2 6.84793 3.31175 9.24355
172 2 11.0076 1.57979 12.7979
265 3 10.726 6.47734 8.92879
229 3 7.21559 1.98848 13.4743
258 3 9.46046 1.7142 14.4648
259 3 12.6932 2.51457 9.72481
343 2 10.7802 7.07204 16.6868
270 3 10.7415 4.24017 13.8183
271 3 11.0833 4.13926 11.2419
274 3 9.95886 6.22007 12.4823
96 2 11.7518 5.18003 15.7302
323 1 10.8112 5.96573 17.1131
329 1 7.00286 7.00426 16.6104
144 2 7.22767 1.75152 10.1847
38 4 3.68227 7.48603 12.0319
142 2 6.28867 3.91576 17.4902
171 2 10.579 0.468322 11.4467
45 4 5.31581 13.7514 2.90347
57 4 9.04039 9.19665 1.77325
58 4 3.38173 11.7315 4.38106
59 4 6.33161 11.617 1.10042
62 4 5.91793 11.4296 6.41155
349 2 8.71663 12.6081 3.04458
83 1 5.86491 8.44428 2.64443
84 1 9.16858 9.17126 5.46966
122 2 9.05393 9.98265 0.233279
87 1 7.46319 11.7818 5.19783
88 1 5.97879 13.1329 7.32638
110 2 3.68365 8.70557 7.72919
286 3 6.23433 10.3419 7.5211
123 2 8.00985 11.8387 1.31246
124 2 7.51214 9.49449 2.38771
125 2 5.89322 10.3354 2.09425
126 2 2.93016 12.8029 8.43606
156 2 5.57493 8.63635 7.66897
176 2 4.79775 8.51471 2.19903
177 2 6.65911 8.33118 1.8342
178 2 6.01265 9.31468 3.36594
179 2 8.37541 9.76642 4.90644
180 2 10.2546 9.18528 5.03272
181 2 8.99801 9.33327 6.68526
182 2 9.3675 10.2605 7.97167
183 2 8.74739 8.44605 8.08665
187 2 7.58366 10.8429 4.44914
188 2 8.37704 11.9688 5.898
189 2 7.10482 12.7581 4.61655
190 2 6.46961 13.2786 8.27617
191 2 4.77832 13.3149 7.43175
275 3 9.04821 7.70891 1.37122
277 3 3.19091 10.7039 3.25164
278 3 4.08698 13.1189 3.6271
85 1 8.85853 9.46537 8.64634
280 3 5.59157 12.8722 1.63671
285 3 4.63512 11.2978 5.49917
350 2 6.48211 13.7901 6.62742
76 1 5.2918 7.52855 7.7746
78 1 0.848621 14.2523 1.1283
198 2 2.97664 11.5489 0.344152
276 3 10.1266 9.97615 2.61256
5 3 6.53106 14.1877 3.83762
279 3 2.0707 12.0162 5.17154
115 2 2.08932 14.001 2.555
185 2 9.17023 13.0528 0.862672
43 4 2.56984 10.0152 13.9227
288 3 3.65723 10.377 15.1126
53 4 6.44889 7.8966 10.7512
283 3 2.9815 10.4091 9.65426
60 4 7.25819 10.382 9.0788
61 4 3.00871 12.0019 9.90823
63 4 9.40223 10.0556 14.319
64 4 3.83984 11.8561 16.0968
65 4 8.4615 12.8897 12.951
89 1 8.7264 10.1007 16.0616
90 1 4.01594 13.3794 14.9032
91 1 2.04508 12.038 16.8579
92 1 4.82594 12.5234 10.2614
93 1 6.54434 12.7826 13.0475
290 3 8.95554 11.4567 13.6308
289 3 5.02616 11.9531 17.2302
184 2 9.38385 9.37413 9.70398
192 2 9.6657 9.71895 16.574
193 2 7.82366 9.25483 15.7819
266 3 5.22343 7.77862 11.7305
195 2 4.95816 13.1306 14.2101
196 2 4.09648 14.2565 15.5693
197 2 3.03154 13.4291 14.3203
200 2 1.82658 12.9673 16.2341
14 4 11.4506 7.65169 9.86984
194 2 8.47805 11.2133 16.3601
202 2 5.33038 11.7476 10.8523
203 2 4.66992 13.6399 10.8386
204 2 6.41802 11.8044 13.6938
205 2 5.96314 12.7404 12.0642
206 2 6.45525 13.8136 13.5888
201 2 5.35664 12.6628 9.18574
255 3 1.9363 11.3185 13.2781
256 3 1.31655 13.865 13.2692
272 3 10.4572 8.2383 11.0522
330 2 6.42185 7.90006 16.3084
281 3 6.47462 9.41361 10.2426
282 3 7.773 11.7809 9.49861
284 3 1.94862 12.6228 10.97
287 3 9.17384 8.71895 13.3261
347 2 3.74984 8.68974 17.026
105 2 0.453943 14.5552 15.6274
44 4 1.3265 12.4619 12.4068
56 4 9.32778 7.58009 12.0446
ITEM: TIMESTEP
200
ITEM: NUMBER OF ATOMS
350
ITEM: BOX BOUNDS xy xz yz pp pp pp
-8.0472447000000003e+00 1.5662521800000000e+01 -7.0338590999999999e+00
0.0000000000000000e+00 1.4894400000000001e+01 -1.0133855999999994e+00
0.0000000000000000e+00 1.7638300000000001e+01 6.7500000000000004e-01
ITEM: ATOMS id type x y z
346 2 5.96461 2.34814 0.863245
9 4 0.47714 2.51459 5.77594
13 4 0.060169 4.89349 8.21547
15 4 -1.21786 7.19734 6.62455
23 4 3.21827 2.36641 4.07903
26 4 6.04294 1.44428 4.9377
30 4 4.52968 4.73704 2.39286
314 3 -3.26632 6.47831 3.35777
32 4 2.92401 6.90553 0.597438
33 4 5.63459 3.57438 7.13996
108 2 5.11273 3.53622 1.32062
70 1 2.68965 1.22737 2.56228
74 1 1.47198 5.88494 4.11463
97 2 -2.03895 6.32378 5.39406
227 3 6.3468 0.378919 6.08151
107 2 2.01656 2.79813 8.6548
140 2 3.2279 1.64471 1.63939
141 2 1.56606 1.36973 2.5955
150 2 1.72003 5.02246 4.8787
151 2 2.31069 5.99648 3.31231
152 2 0.438766 5.7615 3.6167
304 3 -0.168634 1.56287 2.37632
207 3 -0.910682 2.76251 4.68105
208 3 0.266347 1.07908 6.45035
212 3 0.581653 3.7496 6.88472
213 3 -0.762256 6.1131 7.68404
224 3 1.86056 2.44949 4.95029
225 3 2.702 0.448798 7.59772
226 3 4.38647 1.50686 4.58786
303 2 0.547942 4.9332 1.4389
230 3 3.74605 3.81489 3.41419
232 3 3.74545 5.81367 1.50942
233 3 4.44496 2.5888 7.96302
301 2 1.95164 3.92654 0.509563
302 2 1.55884 3.7382 2.46745
237 3 2.92646 6.88608 6.48938
238 3 5.08581 5.0145 6.74922
300 1 1.14848 3.99904 1.44137
139 2 3.00561 0.17832 2.81546
299 4 0.0851078 2.56413 0.810988
25 4 3.24794 1.70562 8.40635
163 2 6.51197 0.724236 1.29449
210 3 -1.21748 3.34044 0.278024
257 3 7.00433 1.38155 3.70818
6 4 0.981386 1.93269 16.326
10 4 -0.713898 2.58267 13.7118
12 4 -2.92233 5.49328 17.3703
296 2 4.25523 2.14699 11.047
16 4 -0.298367 5.8009 13.7546
17 4 -1.25785 7.28571 11.3838
291 4 3.11986 0.738397 12.8842
28 4 3.73832 3.5981 16.0601
34 4 1.60913 6.92642 9.84255
36 4 4.70664 5.09329 13.504
37 4 -0.451149 7.20239 16.3779
327 2 2.76711 7.01709 15.9264
338 2 -3.08943 5.82385 12.8421
72 1 6.14374 1.71357 10.5804
71 1 5.09776 3.4846 17.4244
98 2 0.936394 6.13753 12.5686
104 2 3.54575 1.0284 9.98747
242 3 0.566647 7.2706 17.5934
297 2 3.1301 3.28612 11.976
128 2 -0.074183 1.37165 11.9461
66 1 -1.17598 1.86348 12.0209
235 3 1.40737 5.48074 9.01959
298 2 4.87235 1.7901 13.9299
143 2 5.32411 2.31223 16.4462
145 2 5.43603 2.08612 9.80578
146 2 5.73693 0.765025 11.0505
209 3 0.11061 1.61884 14.6258
294 2 1.66953 1.62869 12.5427
211 3 -0.980206 3.95425 9.14783
214 3 -0.490994 4.1995 13.6501
215 3 -2.62078 7.27532 10.5545
216 3 -1.66671 6.46132 13.1832
228 3 2.37794 2.7951 16.2518
236 3 0.198804 6.73017 11.221
239 3 4.14044 4.34392 14.7492
305 3 0.0522477 2.48906 17.4486
241 3 0.0886779 6.36009 15.1698
243 3 -1.88585 6.63825 16.9094
244 3 3.00984 7.11899 10.6146
245 3 3.6175 6.07092 12.9197
106 2 3.82437 4.83633 17.3529
292 1 3.1556 2.30689 11.4504
293 1 4.2191 0.818026 14.3197
295 2 2.42521 2.31127 10.5093
94 2 -0.828167 1.2616 9.05013
345 2 3.42376 0.938558 15.1619
129 2 -1.31285 2.75858 11.3469
18 4 -5.18777 11.3447 3.0585
19 4 -3.14266 9.66369 7.7309
20 4 -4.43883 11.8347 6.05173
24 4 -0.25586 13.9813 7.47957
39 4 2.36573 9.30278 2.70677
40 4 2.40543 9.40184 8.37904
42 4 1.28659 11.6833 6.43579
75 1 0.666541 9.64943 1.92513
86 1 -6.21855 12.8533 1.94712
99 2 -4.49851 12.2151 1.6859
100 2 -3.25683 12.925 6.38403
111 2 -0.295561 11.2526 5.91797
153 2 0.887045 10.764 1.51858
154 2 -0.115004 9.48926 2.7815
155 2 0.573772 8.8675 1.07007
309 2 -0.768649 7.70318 3.27123
186 2 -5.69519 13.8576 2.31657
218 3 -2.15265 8.30758 7.16127
219 3 -4.40873 11.7684 4.33917
220 3 -4.04434 10.3922 6.55059
221 3 -5.78082 12.4103 6.71334
335 2 -0.66505 9.95177 0.464343
246 3 2.09461 8.43714 4.22875
247 3 3.07421 8.52814 1.53462
7 4 -5.83039 14.2064 7.28778
250 3 -1.34325 13.1517 8.367
252 3 1.77904 10.4462 7.34589
231 3 0.120603 7.7104 5.89408
341 2 -5.10382 13.4809 0.41463
306 4 -2.41698 7.64413 2.64288
307 4 -2.25116 9.37751 0.246635
308 1 -2.00577 9.02372 3.91631
310 2 -3.27914 10.7337 0.44247
311 2 -2.09613 10.0253 3.31458
312 2 -1.06912 8.9615 4.65936
313 2 -3.03596 8.79622 4.52519
315 3 -2.60291 8.28439 1.25819
249 3 -2.01504 10.724 8.2293
348 2 0.642157 13.4228 1.32058
253 3 1.05145 13.0476 7.33065
31 4 1.56171 7.3636 5.23448
21 4 -2.01639 10.5907 14.205
22 4 -3.23882 12.1024 11.7588
41 4 -1.48815 11.8004 9.19929
68 1 -3.30028 8.96971 14.3629
69 1 -0.839512 9.07748 11.6204
77 1 1.09411 9.40526 14.9418
101 2 -0.275002 10.66 14.243
102 2 -2.47682 11.4196 15.607
103 2 -4.69686 11.4312 11.3463
112 2 -0.644928 8.78353 15.712
113 2 0.0275213 11.2811 9.83354
114 2 -0.274021 12.2059 11.927
133 2 -2.14541 8.63736 14.1737
134 2 -3.84764 9.13637 13.3348
135 2 -3.77125 8.156 14.9654
136 2 -0.140118 9.27665 10.7516
137 2 -0.296922 9.16253 12.5814
138 2 -1.77916 9.75962 11.6411
159 2 0.610315 10.2535 15.6745
321 2 -4.37011 14.7493 17.3994
161 2 0.327444 8.85054 14.199
127 2 -6.77498 14.302 13.8987
248 3 1.35915 8.32025 9.09027
222 3 -2.63209 11.3008 12.9803
223 3 -3.69066 13.5987 12.2757
334 2 -3.44144 9.51633 16.2613
251 3 -2.37519 11.9555 10.5139
339 2 -4.76047 10.1454 14.8832
316 4 -6.75201 12.9491 9.82506
317 2 -5.3035 12.267 9.37737
318 3 -6.80772 14.2653 8.98819
320 1 -5.42274 14.5721 17.1002
160 2 1.72778 8.67865 15.6213
322 2 -5.63239 13.8472 16.1437
344 2 -2.13742 14.1118 14.5855
199 2 1.13907 11.481 16.0906
217 3 -4.11633 8.99389 8.84752
319 3 -6.72726 13.1343 11.4415
14 4 -4.21925 7.76257 9.92937
326 1 3.04497 7.77349 16.7332
254 3 2.93958 8.80482 12.7066
1 4 14.3738 1.70911 3.5208
2 1 12.9282 2.70587 2.71862
3 2 12.8252 2.51026 1.63969
4 2 12.0779 2.39055 3.38797
340 2 13.3135 3.68329 2.94193
11 4 11.3341 5.56171 4.17379
46 4 8.2193 1.24875 2.70012
49 4 10.0929 3.88938 2.03498
50 4 6.13872 6.88892 3.76834
51 4 8.5204 6.33803 0.868544
52 4 9.7281 5.997 7.94774
35 4 4.47388 6.55787 6.32479
67 1 12.3189 4.842 5.74308
162 2 8.18051 0.676177 0.101559
82 1 7.07573 3.92244 8.43156
95 2 13.7234 2.33979 7.05102
8 4 13.8617 2.64469 8.73802
117 2 11.3679 3.89802 0.881354
120 2 10.7039 5.12559 6.84227
131 2 11.613 3.99842 6.08013
342 2 13.2678 4.43572 5.15254
157 2 6.44258 6.80651 7.50214
173 2 7.87629 3.52117 7.69788
234 3 6.46202 2.87185 5.86368
158 2 4.84196 7.36381 8.59462
175 2 6.97363 5.10154 8.58832
260 3 9.31533 2.4521 2.23564
261 3 10.8415 4.34446 3.33306
262 3 5.93427 5.50109 2.96581
337 2 11.7968 1.10654 2.31418
264 3 9.1218 4.93079 1.36999
336 2 7.0707 1.11463 8.45994
267 3 10.2386 6.47234 4.82736
268 3 7.62694 7.0717 4.5546
269 3 8.72187 6.92092 7.22864
168 2 10.1142 1.85619 8.48729
324 2 12.4957 5.36373 1.13549
263 3 4.94728 6.89171 4.84545
78 1 7.68883 0.325423 1.12154
118 2 6.7309 6.25866 0.671787
119 2 8.88101 4.67245 8.61098
132 2 12.6542 5.27675 6.72964
170 2 12.3288 0.635638 12.0735
27 4 8.0842 0.987494 14.0917
29 4 6.52337 2.99699 12.1214
332 2 7.92668 7.00796 16.2351
47 4 9.73926 3.33742 14.757
48 4 11.2177 2.57642 10.484
55 4 11.0248 5.08272 12.5441
73 1 7.99715 4.09492 11.5587
79 1 8.41094 4.29169 15.7064
80 1 9.61346 2.3061 9.44076
81 1 11.3205 1.15154 11.9373
333 2 13.2523 2.18721 13.5142
130 2 13.6323 1.14681 11.6831
109 2 5.96478 5.99074 14.1054
116 2 10.057 3.57249 16.4736
325 2 9.79376 5.44288 17.1983
121 2 6.19006 6.83661 9.34172
273 3 7.9706 7.53415 11.1533
147 2 7.47297 5.03245 11.0774
148 2 8.63393 3.41403 10.8417
149 2 8.54436 4.35419 12.4984
164 2 8.67564 5.21704 16.4763
165 2 7.60053 3.65984 16.0797
166 2 7.9966 4.77242 14.6123
167 2 9.29578 1.42799 10.1943
331 2 6.11184 6.13958 16.6247
169 2 8.72181 2.96845 9.18232
328 2 4.03383 7.51393 17.2346
174 2 6.76968 3.1712 9.35459
172 2 11.0392 1.70173 12.872
265 3 10.5572 6.65923 9.03642
229 3 7.21634 2.05634 13.2748
258 3 9.46914 1.58812 14.5444
259 3 12.497 2.43251 9.52319
343 2 10.7194 6.89255 16.6976
270 3 10.8515 4.1103 13.8539
271 3 11.0683 4.02665 11.431
274 3 9.8999 6.21115 12.395
96 2 11.6964 4.92335 15.8982
323 1 10.8339 5.89105 17.1573
329 1 6.78354 7.12235 16.7428
144 2 7.18085 1.53768 10.1916
142 2 5.96231 4.10984 17.387
171 2 10.4718 0.47407 11.5882
240 3 5.3895 4.07581 12.4816
38 4 3.74985 7.55397 11.9678
105 2 7.01657 0.599246 15.3387
45 4 5.31038 13.8444 2.96302
57 4 8.96347 9.22136 1.65801
58 4 3.5319 11.7864 4.34687
59 4 6.28978 11.6362 1.13595
62 4 5.96991 11.515 6.41303
349 2 8.59713 12.3655 3.09857
83 1 5.83637 8.3788 2.49914
84 1 9.29128 9.17693 5.2465
122 2 8.70456 10.0784 0.205359
87 1 7.46784 11.7031 5.22376
88 1 6.00287 13.3212 7.21206
110 2 3.89185 8.70143 7.83583