ITEM: TIMESTEP
0
ITEM: NUMBER OF ATOMS
350
ITEM: BOX BOUNDS xy xz yz pp pp pp
-8.0552999999999990e+00 1.5678200000000000e+01 -7.0408999999999997e+00
0.0000000000000000e+00 1.4894400000000001e+01 -1.0144000000000000e+00
0.0000000000000000e+00 1.7638300000000001e+01 6.7500000000000004e-01
ITEM: ATOMS id type q x y z
234 3 -0.850265 5.97022 2.79439 6.64402
9 4 1.49144 0.406459 2.42512 5.7704
13 4 1.45699 -0.241442 4.69704 8.07683
15 4 1.39695 -1.45461 7.26704 6.60457
23 4 1.34047 3.22897 2.79716 4.06281
26 4 1.41116 5.73825 1.5977 5.56051
30 4 1.29111 4.77099 4.8296 2.40726
233 3 -0.874001 4.23853 3.00791 8.57089
32 4 1.24222 3.35152 7.00147 0.587357
33 4 1.34155 5.05763 3.77136 7.44164
139 2 0.178024 3.21895 0.660738 3.11183
70 1 -0.662906 2.77457 1.5972 2.6551
74 1 -0.6853 0.669321 5.77429 3.83989
97 2 0.029882 -2.59919 6.87167 5.35766
108 2 -0.00129751 5.62526 3.56714 1.5078
304 3 -0.793202 -0.171282 1.57392 2.24083
140 2 0.152693 3.35709 1.81921 1.68687
141 2 0.261613 1.65946 1.46969 2.4861
150 2 0.233691 1.42869 5.11238 4.33674
151 2 0.207776 0.994089 6.07531 2.81849
152 2 0.153367 -0.469116 5.45078 3.88783
346 2 0.128677 6.18084 2.02965 0.8084
207 3 -0.787659 -1.05081 2.34988 4.78016
208 3 -0.828664 0.470445 0.875108 6.42086
212 3 -0.850201 0.151477 3.54385 6.90652
213 3 -0.858218 -1.08733 5.97093 7.3899
224 3 -0.811011 1.74608 2.79052 4.93459
225 3 -0.864724 2.35635 1.13193 8.29995
226 3 -0.832511 4.41007 1.97368 4.74633
336 2 0.00370789 6.50451 0.882875 8.50793
230 3 -0.820665 3.56038 4.22006 3.28687
232 3 -0.845847 4.19762 5.82069 1.32967
302 2 0.211956 1.43484 3.82594 2.11939
35 4 1.39186 3.9256 6.60913 6.26779
303 2 0.264499 1.66157 4.7725 0.542742
237 3 -0.840818 2.52482 7.06621 5.74546
238 3 -0.796467 4.20729 4.96227 6.641
342 2 0.146693 -1.72737 5.33493 4.53732
314 3 -0.834195 -3.15787 7.06918 3.02083
299 4 1.22929 0.366006 2.33569 0.591672
300 1 -0.649177 1.58979 3.69379 1.01192
301 2 0.176208 2.55881 3.06405 0.666843
6 4 1.18652 1.44253 1.48424 16.1694
10 4 1.03643 -0.563007 2.31534 13.5973
12 4 1.01019 -2.52935 5.06004 16.7722
297 2 0.232655 3.70126 2.83999 12.2782
16 4 1.28795 0.257363 5.40696 13.8306
106 2 0.0175713 3.98448 4.63114 17.5365
295 2 0.167296 1.93036 1.93631 12.1772
28 4 0.987491 4.00802 3.53616 16.1526
34 4 1.54857 1.25344 6.77099 9.66973
36 4 1.27319 4.73707 4.93373 13.3957
37 4 1.18031 -0.0752217 6.94284 16.2668
66 1 -0.686583 -0.0780193 1.75797 11.866
17 4 1.28768 -1.03693 7.2622 11.6015
211 3 -0.81201 -1.08098 3.81127 9.17422
305 3 -0.768822 0.328399 1.92426 17.3931
98 2 0.136145 1.87183 5.34737 13.1774
104 2 -0.0292484 3.14469 1.91327 10.7296
38 4 1.48515 3.54702 7.23503 11.8387
72 1 -0.678763 6.32689 1.6307 10.4032
128 2 0.175591 0.258741 2.74187 11.4025
129 2 0.15075 -1.08917 1.42439 11.5294
130 2 0.18912 0.75291 0.972908 11.7287
298 2 0.154691 5.74896 1.64773 14.5678
143 2 0.0842097 5.71519 2.60847 16.524
145 2 0.171166 5.26424 1.52872 10.1486
292 1 -0.663154 3.05309 2.02845 12.6998
209 3 -0.764645 0.345085 1.43962 14.5549
294 2 0.227123 2.9953 2.19722 13.8564
240 3 -0.812575 5.31815 3.81889 12.4737
214 3 -0.820468 -0.194609 3.88545 13.7486
25 4 1.02544 2.98694 2.32682 9.06903
216 3 -0.871628 -0.482227 6.48568 13.0263
228 3 -0.796755 2.7551 2.43307 16.1304
236 3 -0.813405 -0.213723 6.73606 10.3845
239 3 -0.817304 4.38549 4.28326 14.801
215 3 -0.793739 -2.95676 7.40108 11.4167
241 3 -0.834332 0.715343 5.91417 15.2947
243 3 -0.789726 -1.6393 6.46128 16.6994
244 3 -0.871189 2.42122 6.98029 10.7246
245 3 -0.807616 3.47844 5.68319 12.8357
338 2 0.108426 -3.4054 6.18396 12.2299
210 3 -0.807397 -1.84567 3.75627 17.4378
293 1 -0.68402 5.20624 0.605796 14.6268
107 2 0.071151 1.79195 3.5045 9.22042
242 3 -0.803145 0.77075 7.20606 17.6042
146 2 0.173004 6.89171 0.664591 10.5017
235 3 -0.787863 1.26655 5.24268 8.92483
328 2 0.178142 3.02262 7.52828 15.9523
296 2 -0.00493226 5.52693 0.461488 11.8332
94 2 0.092888 -0.912407 1.23437 9.18878
335 2 -0.019655 -0.325089 10.4261 0.18478
19 4 1.48002 -2.94759 9.41322 8.27173
20 4 1.29258 -4.27033 11.8401 6.38447
24 4 1.16567 -0.98465 13.6874 7.62472
39 4 1.32129 2.31803 9.29547 2.66208
40 4 1.37423 1.92916 9.49136 8.1867
42 4 1.27486 0.697652 11.5601 6.10779
75 1 -0.650371 0.811119 10.2376 1.83197
315 3 -0.758272 -2.64962 9.26437 0.971963
99 2 0.122769 -4.81917 13.0596 2.42176
100 2 0.100184 -2.91031 12.7793 6.21722
111 2 0.00767527 -0.705927 10.9918 5.21627
153 2 0.160006 0.111754 9.34713 1.58008
154 2 0.153113 1.33039 10.64 0.90714
155 2 0.168879 0.498419 11.0231 2.63024
227 3 -0.780238 -1.77114 14.088 6.22464
248 3 -0.837655 1.28421 8.11376 8.62838
218 3 -0.882376 -2.22615 8.31188 7.3551
219 3 -0.822902 -4.97594 11.5991 4.90778
220 3 -0.829398 -3.81182 10.5594 7.05709
221 3 -0.834842 -5.22128 12.7455 7.2654
309 2 0.106923 -0.713467 8.58683 3.40564
246 3 -0.803265 1.48581 8.38877 3.80842
247 3 -0.794629 3.03717 8.4385 1.46229
253 3 -0.820886 0.325908 12.7755 7.10634
122 2 0.0797113 -4.24828 9.26379 0.936078
252 3 -0.788059 1.18241 10.2834 7.05376
86 1 -0.665917 -6.07027 13.1058 2.53557
186 2 0.199967 -6.35769 13.7488 3.4068
306 4 0.891702 -2.51144 8.51459 2.80841
307 4 0.564137 -2.08131 10.4239 0.117543
308 1 -0.658475 -1.7146 9.81059 4.01813
310 2 -0.0486091 -1.69093 11.9139 0.887603
311 2 0.15227 -1.46595 10.7845 3.56615
312 2 0.205673 -1.74047 9.67889 5.13265
313 2 0.0561242 -3.50332 9.67311 3.87349
250 3 -0.84507 -1.91621 12.8574 8.63517
231 3 -0.849874 -0.260899 7.80207 5.7385
185 2 0.205726 -6.52288 13.5923 1.65149
31 4 1.37254 1.08439 7.35066 4.95421
18 4 1.00069 -5.76785 11.3917 3.51422
158 2 0.184086 3.50315 7.78108 8.68205
7 4 1.36323 -5.81122 14.4022 7.66084
21 4 0.699527 -2.63304 9.8876 14.3972
22 4 1.2551 -3.78273 11.8486 12.2317
41 4 1.26116 -1.87689 11.6982 9.81657
68 1 -0.662335 -3.70811 8.37256 14.5785
69 1 -0.699323 -0.424785 9.02688 11.7373
77 1 -0.656343 1.44105 9.39129 14.7094
101 2 -0.0713568 -0.930228 9.95901 14.3762
102 2 -0.0897485 -2.87259 10.5133 16.057
103 2 0.117751 -5.40904 11.6085 11.738
112 2 -0.0266448 -0.182749 8.38666 15.4054
113 2 0.0591363 -0.329632 11.9681 10.4173
114 2 -0.0517152 -0.164758 11.9185 13.0967
127 2 0.077472 -6.74026 14.0858 14.1063
249 3 -0.789505 -1.68649 10.2051 9.17269
135 2 0.152657 -3.50604 8.21805 15.6946
136 2 0.234078 -0.0889981 9.30596 10.6606
137 2 0.184879 0.390968 9.17038 12.4926
138 2 0.180394 -1.31614 9.61455 12.0145
159 2 0.180214 1.49022 8.28992 14.4528
160 2 0.112616 0.405344 10.0424 14.3854
161 2 0.142013 1.76507 9.73438 15.8292
341 2 0.155782 -3.87471 14.3505 17.2221
133 2 0.160221 -2.95955 7.75738 13.8484
222 3 -0.811027 -3.25436 10.8173 13.2741
223 3 -0.782371 -3.74966 13.3797 12.9457
322 2 0.133555 -5.78228 13.6763 17.349
251 3 -0.891825 -2.86869 11.8746 10.9885
217 3 -0.832156 -4.0053 9.02075 9.38457
344 2 0.124898 -1.27391 13.8403 14.5891
318 3 -0.782503 -7.08858 14.0634 9.07831
319 3 -0.773678 -6.36637 12.7415 11.328
320 1 -0.671046 -4.84913 14.0639 16.6902
321 2 0.149374 -4.85609 13.5849 15.6143
291 4 0.852387 -2.87369 14.7046 12.9668
334 2 -0.0129465 -4.35363 12.2117 17.0906
317 2 0.0584167 -5.18911 11.9959 8.98162
345 2 0.172277 -2.37838 14.7453 15.5424
1 4 1.22771 14.4152 1.44515 3.4464
2 1 -0.664521 12.9143 2.36998 2.62466
3 2 0.150551 13.0726 1.9554 1.52428
4 2 0.166732 11.8924 2.27334 3.04068
118 2 0.0338603 6.68976 6.47829 0.927022
11 4 1.35686 11.6656 5.79493 3.52945
46 4 1.00462 8.30959 1.60455 3.37317
49 4 1.24459 9.81733 3.95788 2.06559
50 4 1.32684 6.24898 6.80316 4.25951
51 4 1.08553 8.43055 6.50995 0.949412
52 4 1.02349 10.0882 5.57549 8.46658
54 4 1.30093 9.38876 6.94703 5.46418
257 3 -0.76755 7.09638 1.54008 4.45428
268 3 -0.778431 7.84636 6.82197 4.92629
324 2 0.215521 12.8191 3.82649 1.21582
95 2 -0.0124532 13.3918 2.23924 7.30632
263 3 -0.833409 5.13495 7.09803 5.37359
117 2 -0.010301 10.0875 2.99969 0.683675
120 2 0.0435865 11.0545 4.01881 8.1651
131 2 0.199644 12.6332 3.89393 4.57318
269 3 -0.788411 9.72055 6.2294 7.08125
267 3 -0.80258 10.5416 6.36774 4.46724
340 2 0.185598 13.2572 3.53072 2.77266
157 2 0.170405 4.84527 6.49204 8.52483
173 2 0.170588 6.41822 5.80384 7.91522
337 2 -0.0208989 11.7529 0.809232 2.11781
260 3 -0.788774 9.04074 3.05419 3.12852
261 3 -0.822201 11.2125 4.54312 2.57267
262 3 -0.813472 5.85247 5.47592 3.29294
348 2 0.134676 9.44918 0.684546 1.28324
264 3 -0.826965 8.88227 5.1555 1.52253
168 2 0.148697 9.05059 3.37213 7.96901
174 2 0.188406 7.3017 4.10815 7.97482
132 2 0.181305 12.636 5.21573 5.90176
67 1 -0.664872 12.8573 4.99195 4.87066
82 1 -0.682447 6.73796 4.93118 8.52821
78 1 -0.678117 8.51833 0.380245 1.89554
115 2 0.0626825 9.37717 0.31154 3.65766
162 2 0.121588 7.46606 0.841489 1.49324
142 2 0.171579 7.4341 3.22659 0.229894
323 1 -0.633341 12.6596 4.57348 0.242939
76 1 -0.697115 4.35658 7.39521 7.97699
343 2 0.198803 12.8136 5.67076 0.528422
71 1 -0.66498 5.48012 3.44044 17.6319
27 4 1.20827 8.33517 0.913677 13.9894
29 4 1.02648 6.73892 2.84214 11.9598
119 2 0.0323281 8.46269 5.37895 9.12143
47 4 0.859118 9.91686 3.32327 15.0004
48 4 1.04473 11.1428 2.68812 10.6211
55 4 1.26014 10.9327 5.17965 12.7435
73 1 -0.682795 7.78841 4.3995 11.5342
79 1 -0.662115 8.92743 4.30986 16.4529
96 2 0.082735 12.4195 4.64334 15.2453
81 1 -0.670576 10.8995 1.17382 11.7648
165 2 0.150103 7.98697 4.1896 17.0986
105 2 -0.0133771 7.09752 0.701477 15.1901
109 2 -0.00212109 5.97312 6.03702 13.5296
116 2 0.0274315 10.2664 3.09137 16.7988
331 2 0.164468 5.60945 6.44094 16.7269
121 2 -0.00500319 6.74847 6.63778 9.50006
333 2 -0.0273513 13.4215 1.9871 13.8236
147 2 0.143029 7.33948 4.66535 10.4011
148 2 0.236552 8.88213 4.29079 11.5924
149 2 0.209703 7.4479 5.15029 12.3144
164 2 0.153109 9.24218 5.36283 16.5084
265 3 -0.853516 10.8977 6.42744 9.52748
166 2 0.0550116 8.355 4.21425 14.83
167 2 0.0948717 9.60046 1.98482 9.19099
80 1 -0.648751 9.55286 3.30854 9.01303
169 2 0.142068 8.86823 3.82355 9.89933
171 2 0.13614 9.97725 0.826172 11.0587
175 2 0.145359 6.01752 4.56043 9.3765
172 2 0.245904 10.5742 1.43908 12.8046
144 2 0.14082 6.90084 2.43955 9.6986
229 3 -0.83133 7.63724 1.86776 12.9542
258 3 -0.807612 9.63764 1.71067 14.6949
259 3 -0.821708 12.525 2.51429 9.82381
266 3 -0.867705 5.02445 7.20557 11.1337
270 3 -0.785899 11.3423 4.39 14.051
271 3 -0.802583 10.8801 4.08848 11.6093
274 3 -0.86372 9.66035 6.07461 12.8971
325 2 0.147429 10.5538 4.99028 17.2683
332 2 0.151178 7.526 6.15353 16.5439
329 1 -0.683349 6.58584 6.90993 16.8478
56 4 1.43546 9.07884 7.56149 12.3757
273 3 -0.840574 7.51817 7.50845 11.9633
8 4 0.992493 13.7772 2.52671 8.93832
170 2 0.177888 11.7958 0.5563 11.6917
45 4 1.15615 5.2489 13.5418 2.79485
57 4 0.927776 9.72664 9.42639 1.15532
58 4 1.4993 3.35412 11.6334 4.39982
59 4 0.935339 6.71447 11.5162 1.21385
62 4 1.13369 5.67363 11.3486 6.40885
126 2 0.0217133 2.79394 13.2328 8.68705
83 1 -0.687626 6.15549 8.42036 3.15116
84 1 -0.657604 9.57315 8.78522 5.57065
85 1 -0.678532 8.55598 9.08913 8.23766
87 1 -0.688694 6.94142 11.1669 4.81929
88 1 -0.668293 5.83013 13.0512 7.29673
110 2 0.0442112 3.42384 9.02409 7.40315
200 2 0.215682 3.8193 11.1879 0.468782
123 2 -0.00991978 8.35706 11.9296 1.55404
163 2 0.171014 1.38788 13.4721 2.23009
125 2 -0.00456133 6.56506 10.2216 2.26462
5 3 -0.781781 6.65432 14.0052 3.71144
156 2 0.203203 5.06148 8.22909 7.69766
176 2 0.18039 5.8582 8.03622 2.15916
177 2 0.162613 7.13758 8.96013 3.21254
178 2 0.20896 5.21435 8.9109 3.69988
179 2 0.188894 10.2388 9.01648 4.61353
180 2 0.204223 10.0622 9.20518 6.58594
181 2 0.178468 8.43696 9.03823 5.40024
182 2 0.199029 9.38469 9.64525 7.68386
183 2 0.174876 7.92546 8.38301 7.56139
187 2 0.154095 6.65704 10.2402 4.1096
188 2 0.173436 7.96545 11.0852 5.24897
189 2 0.211242 6.77021 12.2176 4.41996
190 2 0.228331 6.49969 13.0007 8.23738
191 2 0.152401 4.83352 13.5165 7.51847
275 3 -0.826853 9.01316 7.99398 1.09543
277 3 -0.830534 3.25683 10.4883 3.31868
278 3 -0.820473 4.03333 13.0195 3.75592
350 2 0.176775 6.39267 13.5652 6.31888
280 3 -0.825855 5.62471 12.6132 1.57888
285 3 -0.797936 4.1127 11.1884 5.77245
286 3 -0.796259 6.25324 10.3582 7.49707
349 2 0.0499814 8.31312 12.1523 3.69421
276 3 -0.88013 9.75772 10.2668 2.4107
279 3 -0.803992 1.75422 11.9139 4.95549
43 4 1.27802 2.92391 10.0278 13.7208
44 4 1.19486 1.33558 12.4038 12.6178
254 3 -0.794386 3.27566 8.47521 12.8508
330 2 0.168463 6.58055 7.9157 16.191
60 4 1.2573 7.06776 10.0325 8.97374
61 4 1.09439 2.37864 12.0062 9.86993
63 4 1.02654 8.44893 10.1363 14.4548
64 4 0.981586 4.25576 12.0366 16.1278
65 4 0.952867 8.17448 12.9069 13.0187
89 1 -0.644478 6.73384 9.57545 15.1006
90 1 -0.663031 4.63241 13.5745 15.0551
91 1 -0.652631 2.57542 12.1323 17.0393
92 1 -0.677761 4.15389 12.7387 9.99302
93 1 -0.661701 6.45268 13.2173 12.5259
288 3 -0.743368 4.10844 10.5778 14.8453
290 3 -0.804161 8.24845 11.5106 13.6999
327 2 0.189266 3.31361 9.2263 16.8272
192 2 0.125011 7.1564 9.68828 16.2679
193 2 0.191599 6.72569 8.53608 14.6997
194 2 0.300159 5.71413 10.0262 14.9945
195 2 0.20332 4.63602 13.0243 14.0407
196 2 0.149793 5.65895 13.8795 15.4617
197 2 0.236957 3.95489 14.4636 15.0345
199 2 0.151756 2.42073 13.2839 16.8789
326 1 -0.661348 3.56148 8.10491 16.7812
284 3 -0.831222 1.24533 12.6509 10.8884
202 2 0.188204 4.53035 11.8645 10.7015
203 2 0.16579 4.179 13.7804 10.6312
204 2 0.204214 5.85278 12.2954 12.8124
205 2 0.187644 6.57206 13.4321 11.3911
206 2 0.111462 6.32904 14.2097 13.2297
53 4 1.2679 6.41423 7.72215 10.8146
255 3 -0.861924 2.22601 11.1523 12.9436
256 3 -0.840895 1.60262 13.7155 13.4709
272 3 -0.850991 9.93662 8.18073 11.1156
289 3 -0.769908 5.53468 11.754 17.4123
281 3 -0.814768 6.3642 9.24179 10.1268
282 3 -0.750207 7.82445 11.5468 9.56865
339 2 -0.0603784 9.37486 10.5131 15.7879
287 3 -0.768354 9.11474 8.76593 13.7824
14 4 1.4937 11.2869 7.7219 10.3519
184 2 0.215463 8.95208 8.60892 9.16138
124 2 -0.0613983 8.30544 11.0447 17.4859
198 2 0.145074 1.72517 11.4554 16.617
283 3 -0.866766 2.26103 10.6007 9.20096
201 2 0.182329 4.77249 12.8194 9.00559
316 4 1.1854 9.06644 12.5728 9.74356
134 2 0.252284 10.8664 8.55964 14.2537
347 2 0.181723 4.65921 7.76629 16.9531
ITEM: TIMESTEP
100
ITEM: NUMBER OF ATOMS
350
ITEM: BOX BOUNDS xy xz yz pp pp pp
-8.0600397999999984e+00 1.5678200000000000e+01 -7.0408999999999997e+00
0.0000000000000000e+00 1.4894400000000001e+01 -1.0191397999999996e+00
0.0000000000000000e+00 1.7638300000000001e+01 6.7500000000000004e-01
ITEM: ATOMS id type q x y z
234 3 -0.841723 6.102 2.63303 6.65328
9 4 1.50334 0.390231 2.25158 5.77473
13 4 1.47827 -0.165026 4.67161 7.94371
15 4 1.34825 -1.38581 7.16301 6.5997
23 4 1.32808 3.19306 2.56761 4.00832
26 4 1.45333 5.76954 1.54909 5.43237
30 4 1.30422 4.71315 5.0207 2.48452
233 3 -0.863436 4.35646 2.88133 8.56155
71 1 -0.645925 6.24788 2.75545 0.0640124
33 4 1.35354 5.17361 3.62528 7.47267
139 2 0.17462 3.4109 0.391214 3.04597
70 1 -0.684204 2.95142 1.29855 2.5994
74 1 -0.65583 0.766543 5.71989 4.02219
97 2 0.0203987 -2.55996 6.76185 5.40667
108 2 0.0180334 5.52448 3.77353 1.60569
304 3 -0.808397 -0.218211 1.41985 2.16685
140 2 0.162523 3.43154 1.61806 1.61713
141 2 0.228075 1.8069 1.25117 2.52466
150 2 0.230026 1.49456 4.97792 4.63729
151 2 0.195998 0.986706 5.84128 2.90465
152 2 0.160711 -0.37075 5.48985 4.28393
346 2 0.159923 6.12182 2.28092 1.04445
207 3 -0.844032 -0.800499 2.18531 4.7414
208 3 -0.832847 0.43349 0.74609 6.50257
212 3 -0.839145 0.229782 3.58747 6.78891
213 3 -0.875177 -1.03204 5.79239 7.29243
224 3 -0.813451 1.87675 2.47531 4.93227
225 3 -0.880907 2.22254 1.15484 8.29513
226 3 -0.85146 4.47708 2.01413 4.65351
336 2 0.00739308 6.80401 0.839317 8.57581
230 3 -0.803914 3.59863 4.1976 3.30672
232 3 -0.861478 4.18551 5.92413 1.32299
302 2 0.17546 0.883051 3.84009 2.2636
35 4 1.38217 4.11421 6.42048 6.41016
303 2 0.282684 1.5223 4.76348 0.640156
237 3 -0.816632 2.54921 6.81854 5.92823
238 3 -0.840154 4.41134 4.92597 6.79439
342 2 0.152329 -1.7173 5.22742 4.45344
314 3 -0.800401 -3.17032 7.10292 2.96269
299 4 1.25991 0.374407 2.26464 0.669838
300 1 -0.657312 1.42263 3.76341 1.23908
301 2 0.188067 2.44943 3.31921 1.44317
343 2 0.210133 -2.80076 5.69133 0.728135
31 4 1.33928 1.3017 7.29396 4.95095
6 4 1.26525 1.29131 1.64091 16.2172
10 4 1.02327 -0.51962 2.44615 13.5671
12 4 1.02441 -2.57166 5.01066 16.8098
297 2 0.205013 3.26669 3.04154 12.2081
16 4 1.31411 0.365652 5.38504 13.7675
106 2 0.0501405 3.98417 4.65404 17.5283
295 2 0.199997 1.74339 1.94303 12.4119
28 4 1.04419 3.96235 3.44062 16.0865
34 4 1.52666 1.04137 6.83479 9.66743
291 4 0.863161 4.13039 0.588902 12.8706
37 4 1.21806 -0.0867717 6.82301 16.3067
66 1 -0.680632 -0.200325 1.94499 11.7714
17 4 1.30731 -1.15548 7.32327 11.856
211 3 -0.820707 -1.0288 3.80626 9.05524
305 3 -0.811657 0.228745 2.06511 17.3435
98 2 0.125955 2.04243 5.58758 13.2084
104 2 -0.0172991 3.03084 2.04794 10.6807
38 4 1.48161 3.57128 7.24385 11.8267
72 1 -0.660354 6.34551 1.62944 10.3147
128 2 0.17182 0.245217 2.74635 11.0056
296 2 0.00426276 4.82592 0.818756 11.2806
130 2 0.1845 0.345154 0.975357 11.7958
298 2 0.15949 5.68387 1.47789 14.7613
143 2 0.0564966 5.47137 2.25488 16.5576
145 2 0.18372 5.40344 1.13292 9.86127
292 1 -0.652791 2.88117 2.07252 12.7016
209 3 -0.748191 0.47107 1.42339 14.5435
294 2 0.228585 2.90791 2.1659 13.8202
242 3 -0.774837 0.86293 7.06448 17.5648
214 3 -0.836153 -0.0253239 3.91164 13.6688
25 4 0.989922 2.92721 2.40013 9.00233
216 3 -0.871891 -0.634257 6.39213 13.0948
228 3 -0.81127 2.65943 2.57309 16.1514
236 3 -0.815423 -0.29634 6.86794 10.4877
239 3 -0.796702 4.42317 4.21205 14.7933
215 3 -0.802897 -2.83179 7.43687 11.5076
241 3 -0.832801 0.615302 5.84249 15.2681
243 3 -0.801583 -1.59827 6.32198 16.7121
244 3 -0.80952 2.31816 7.04341 10.8447
245 3 -0.801137 3.57236 5.58722 12.7509
338 2 0.0944149 -3.54994 6.33075 12.4555
210 3 -0.773973 -1.84306 3.65114 17.3263
235 3 -0.786561 1.38011 5.31858 8.83601
107 2 0.0945198 1.89979 3.7934 9.05851
129 2 0.151998 -1.3027 1.75395 11.4734
162 2 0.141994 0.344843 14.2105 2.01309
19 4 1.53 -3.00232 9.49947 8.19366
20 4 1.2847 -4.28345 11.9592 6.43484
24 4 1.20934 -0.87313 13.7071 7.62519
39 4 1.29751 2.34015 9.38094 2.51963
40 4 1.32509 1.85344 9.42445 8.11761
42 4 1.2898 0.695391 11.511 6.07035
75 1 -0.674905 0.981978 10.1718 1.38489
315 3 -0.75776 -2.56012 9.48495 1.05499
99 2 0.0691072 -4.66294 12.8209 2.14015
100 2 0.0986216 -2.96383 12.9422 6.27229
111 2 0.0017195 -0.682416 11.0398 5.10587
153 2 0.169074 0.131917 9.4105 1.36296
154 2 0.152023 1.54399 10.4725 0.409139
155 2 0.151261 0.726873 11.0577 2.0279
227 3 -0.790004 -1.76447 14.1304 6.31254
248 3 -0.844332 1.1989 8.15411 8.78364
218 3 -0.840209 -2.17997 8.33364 7.40793
219 3 -0.810237 -4.96002 11.6223 4.93724
220 3 -0.807947 -3.66187 10.6946 7.02124
221 3 -0.849326 -5.2949 12.5223 7.48083
309 2 0.114024 -0.928147 8.65246 3.57064
246 3 -0.79016 1.59763 8.42687 3.74278
247 3 -0.811441 3.23587 8.48412 1.4903
253 3 -0.825774 0.369024 12.7358 7.06157
122 2 0.0542869 -4.16399 9.17731 0.889674
252 3 -0.802578 0.893759 10.1962 6.93077
86 1 -0.647049 -6.10572 13.0689 2.40509
186 2 0.186685 -6.19718 13.7801 3.33118
306 4 0.878629 -2.64866 8.60705 2.83526
307 4 0.556365 -2.13816 10.5599 0.00497799
308 1 -0.652506 -1.80353 9.61156 4.31475
310 2 -0.0508066 -1.84472 12.0955 0.625113
311 2 0.132076 -1.63912 10.6792 3.90865
312 2 0.232541 -1.52955 9.54037 5.40971
313 2 0.0683663 -3.55133 9.68075 3.95648
250 3 -0.855343 -1.76365 12.9604 8.63649
231 3 -0.818989 -0.110991 7.56644 5.78286
185 2 0.207352 -6.65572 13.4918 1.48768
32 4 1.26675 3.53059 7.14549 0.637586
18 4 0.959569 -5.68697 11.5193 3.49615
158 2 0.18675 3.43834 7.58315 8.3273
7 4 1.33337 -5.80016 14.3234 7.71641
322 2 0.142944 -4.54586 13.0616 0.0179106
21 4 0.725531 -2.74838 9.85234 14.3899
22 4 1.22326 -3.78575 11.9663 12.1371
41 4 1.25101 -1.7765 11.7771 9.75776
68 1 -0.667077 -3.74714 8.36142 14.5701
69 1 -0.698984 -0.411202 9.06088 12.1679
77 1 -0.692932 1.36334 9.33962 14.9321
101 2 -0.0702802 -1.01726 9.93758 14.6107
102 2 -0.0918497 -2.9725 10.5482 15.9765
103 2 0.0875734 -5.37716 11.6758 11.7923
112 2 -0.0196168 -0.223738 8.38909 15.6201
113 2 0.0575963 -0.21585 11.9788 10.4082
114 2 -0.0732681 -0.123578 11.9154 13.0731
127 2 0.0658528 -7.03905 14.1141 14.0276
249 3 -0.801471 -1.88464 10.3616 8.98272
135 2 0.141096 -3.64154 8.18314 15.7375
136 2 0.212167 0.204414 9.10164 11.2318
137 2 0.144448 0.278302 9.19523 13.2365
138 2 0.172999 -1.30045 9.7433 12.0989
159 2 0.1392 1.30135 8.26569 14.472
160 2 0.103907 0.308117 9.98226 14.9125
161 2 0.169 1.77301 9.27935 15.9707
341 2 0.157419 -4.17338 14.0207 16.3197
293 1 -0.663416 -1.83293 14.7038 14.5491
222 3 -0.786949 -3.25785 10.8333 13.2742
223 3 -0.803006 -3.75208 13.5045 12.7111
133 2 0.156994 -2.95409 7.69103 13.8344
251 3 -0.866766 -2.98562 11.8717 10.843
217 3 -0.833091 -4.18469 8.92754 9.112
344 2 0.109151 -1.10123 13.9837 14.0499
318 3 -0.768017 -7.27604 14.0472 9.01421
319 3 -0.795812 -6.67339 12.7796 11.3149
320 1 -0.667289 -5.21321 14.1014 16.5855
321 2 0.146133 -5.88343 13.5796 15.7043
328 2 0.159041 3.01128 7.85753 16.0514
334 2 -0.0258488 -4.39387 12.3467 17.1066
317 2 0.0875027 -5.17669 12.0657 9.16559
345 2 0.13371 -2.4368 14.249 15.487
335 2 -0.0141988 -1.34545 11.2121 17.5609
1 4 1.24635 14.4093 1.44039 3.38345
2 1 -0.677201 12.8926 2.42902 2.70486
3 2 0.149827 12.7608 2.21616 1.60761
4 2 0.155691 11.9368 2.26022 3.34712
118 2 0.0463249 6.64992 6.49983 1.06311
11 4 1.34426 11.5505 5.79604 3.66599
46 4 1.03208 8.30903 1.47724 3.54679
49 4 1.29059 9.8428 3.97805 2.01646
50 4 1.33306 6.29704 6.94446 4.15858
51 4 1.09474 8.37448 6.57265 1.03147
52 4 1.03333 10.0372 5.739 8.49106
54 4 1.32184 9.24213 6.98406 5.53715
257 3 -0.838953 7.0464 1.43455 4.4474
268 3 -0.801896 7.75578 6.86073 4.93626
324 2 0.195932 12.8442 3.84211 1.29046
95 2 -0.0279743 13.2712 2.24753 7.39419
263 3 -0.815943 5.16934 7.02845 5.35669
117 2 0.0108525 10.5638 3.24047 0.57035
120 2 0.0391184 10.9744 4.23097 7.99836
131 2 0.194388 12.691 3.82508 4.49645
269 3 -0.812871 9.57397 6.32732 7.11142
267 3 -0.807838 10.3762 6.33463 4.56711
340 2 0.166874 13.4616 3.49678 2.89245
157 2 0.165275 5.09398 6.71854 8.52344
173 2 0.183037 6.53936 5.79757 7.80286
337 2 -0.0154071 11.6458 0.938324 2.17455
260 3 -0.815663 9.04357 2.77038 2.68715
261 3 -0.814191 11.0787 4.57469 2.77222
262 3 -0.842555 5.97633 5.72153 3.08568
348 2 0.155707 9.24172 0.203816 1.61734
264 3 -0.818522 9.05409 5.22496 1.56829
168 2 0.134224 9.16397 3.6275 8.02471
174 2 0.161057 7.36897 3.97509 8.1659
132 2 0.157643 12.6503 5.1531 5.9042
67 1 -0.661258 12.8442 4.94126 4.73789
82 1 -0.672248 6.74243 4.94852 8.51507
323 1 -0.65638 12.744 4.63243 0.357031
115 2 0.0592694 9.49876 0.326986 4.09057
142 2 0.159867 7.2545 3.29445 0.0574765
170 2 0.178158 11.7509 0.646436 11.5479
27 4 1.19084 8.2793 0.858021 13.9656
29 4 1.05239 6.83645 2.89736 11.8819
119 2 0.0171542 8.39746 5.48642 9.25289
47 4 0.863684 9.67612 3.4512 15.052
48 4 1.09451 11.1251 2.86361 10.6074
55 4 1.27768 10.8582 5.22481 12.8308
73 1 -0.69845 7.79622 4.53532 11.4174
79 1 -0.668865 8.9044 4.46312 16.4975
96 2 0.0867546 12.169 4.80225 15.4241
81 1 -0.669036 10.8409 1.33078 11.6594
165 2 0.155019 8.15671 4.37169 17.3034
240 3 -0.789548 5.54375 3.71796 12.4723
109 2 -0.0191668 6.04068 6.11163 13.7562
116 2 0.0198195 10.3497 3.34249 16.7225
331 2 0.159791 5.49402 6.42522 17.1354
121 2 -0.0182216 6.93654 6.6224 9.52899
333 2 -0.0296156 13.4639 2.29864 13.8436
147 2 0.153136 7.40233 4.68356 10.3751
148 2 0.241484 8.90815 4.42479 11.4877
149 2 0.21862 7.36444 5.30881 12.1028
164 2 0.158745 9.20148 5.54995 16.3491
265 3 -0.853632 11.0499 6.41172 9.41334
166 2 0.047674 7.98327 4.26659 14.9336
167 2 0.116392 9.52856 2.12162 9.0787
80 1 -0.672552 9.65079 3.3446 9.046
169 2 0.130644 8.91364 3.83524 9.88479
171 2 0.179051 9.9287 0.898338 11.2143
175 2 0.14669 5.95932 4.84329 9.33592
172 2 0.233106 10.6786 1.615 12.7124
144 2 0.144653 6.78986 2.47423 9.61853
229 3 -0.804641 7.60404 1.84758 12.9297
258 3 -0.791957 9.3115 1.78392 14.6991
259 3 -0.829825 12.5253 2.58849 9.92089
266 3 -0.858957 4.94325 7.30842 11.1591
270 3 -0.80274 11.1017 4.62552 14.2289
271 3 -0.824556 10.8445 4.11624 11.7019
274 3 -0.85354 9.54461 6.0857 12.8182
325 2 0.143702 10.6686 5.08706 17.3404
332 2 0.160234 7.28645 5.964 16.7399
329 1 -0.703586 6.49118 6.85389 16.9908
8 4 0.988668 13.7244 2.56097 8.96329
94 2 0.113059 14.6716 1.16858 9.19477
36 4 1.19485 4.88617 4.95483 13.3724
146 2 0.162767 7.13183 0.854078 10.6915
45 4 1.19418 5.18761 13.6066 2.81088
57 4 0.934687 9.86864 9.234 1.30969
58 4 1.47153 3.30051 11.5978 4.48807
59 4 0.95347 6.60499 11.6368 1.0487
62 4 1.10913 5.73412 11.3016 6.45188
126 2 0.0294087 2.74972 13.0083 8.50631
83 1 -0.691944 6.37684 8.68533 3.16432
84 1 -0.664385 9.8113 8.7754 5.64484
85 1 -0.680759 8.51118 8.81916 8.32386
87 1 -0.68809 7.04366 11.3321 4.90875
88 1 -0.686041 5.86937 13.04 7.29169
76 1 -0.695166 4.49239 7.50153 7.9667
200 2 0.216319 3.93782 11.6385 0.50297
123 2 -0.0185874 8.20346 11.9668 1.50779
163 2 0.220654 1.70439 13.2302 2.87823
125 2 0.00102887 6.41485 10.1665 1.82823
5 3 -0.778951 6.53809 14.0255 3.66705
156 2 0.253851 5.08748 8.47016 7.80002
176 2 0.168036 5.95312 8.49495 2.09972
177 2 0.173108 7.32469 9.24467 3.13804
178 2 0.193907 5.58645 9.13738 3.91047
179 2 0.2123 10.4412 8.75549 4.68647
180 2 0.218048 10.3774 9.00279 6.58591
181 2 0.17204 8.83516 9.38235 5.59335
182 2 0.218521 9.44564 9.42658 7.9993
183 2 0.196621 8.13212 8.20238 7.55263
187 2 0.157493 6.77323 10.2837 4.337
188 2 0.170799 8.0519 11.3029 5.44413
189 2 0.23782 6.819 12.2978 4.37952
190 2 0.219096 6.26213 12.9218 8.33219
191 2 0.147562 4.7893 13.4501 7.17406
275 3 -0.856099 9.11627 7.92282 1.17064
277 3 -0.803973 3.27613 10.4918 3.3137
278 3 -0.805072 3.97333 13.0248 3.70041
350 2 0.205234 6.61787 13.453 6.58581
280 3 -0.841257 5.69313 12.7276 1.57765
285 3 -0.812346 4.22272 11.1062 5.69183
286 3 -0.790393 6.07262 10.2062 7.5893
349 2 0.0575632 8.32797 12.1401 3.57625
276 3 -0.831424 9.85472 10.0723 2.63462
279 3 -0.850523 1.77663 11.9955 5.01408
110 2 0.0363229 3.34564 9.02056 7.3832
78 1 -0.678867 1.45117 14.1552 2.38755
124 2 -0.0645442 9.4655 10.2892 0.0109256
43 4 1.29367 2.80109 9.86521 13.7514
44 4 1.13912 1.44665 12.3448 12.7085
254 3 -0.805324 3.33888 8.51194 12.8847
330 2 0.161428 6.54191 7.79125 16.2608
60 4 1.31224 7.15242 10.0835 8.96935
61 4 1.11351 2.39936 11.8931 9.82249
63 4 1.00314 8.39499 9.98951 14.5887
64 4 1.01789 4.24405 12.0168 16.02
65 4 0.972243 8.15684 12.8355 12.9527
89 1 -0.651335 6.68167 9.40941 15.057
90 1 -0.65334 4.69463 13.7221 15.2593
91 1 -0.662184 2.6024 12.3127 17.0589
92 1 -0.685063 4.06464 12.8285 9.92704
93 1 -0.667415 6.43756 13.3194 12.5162
288 3 -0.726957 3.89631 10.503 14.9098
290 3 -0.769801 8.32626 11.4522 13.7576
327 2 0.218837 3.7761 9.42662 16.765
192 2 0.119914 6.93091 9.48925 16.2638
193 2 0.181645 6.65293 8.32689 14.5819
194 2 0.268978 5.69995 9.93222 14.8325
195 2 0.21548 3.76693 13.8874 14.6473
196 2 0.165219 5.58899 13.3744 14.6423
197 2 0.172938 4.85918 14.5946 15.9494
199 2 0.147884 2.19292 13.3014 16.7354
326 1 -0.68204 3.68215 8.33348 16.8799
284 3 -0.802791 1.3015 12.5314 10.8065
202 2 0.183162 4.48668 12.0791 10.7853
203 2 0.17215 3.89315 13.8386 10.498
204 2 0.178676 5.92468 12.4187 13.1539
205 2 0.196916 6.28168 13.2375 11.3751
206 2 0.128114 6.36466 14.3361 12.9817
53 4 1.25075 6.44033 7.76842 10.7439
255 3 -0.842909 2.41685 11.1955 13.0448
256 3 -0.819514 1.80874 13.7885 13.1976
272 3 -0.848148 10.2193 8.11942 11.234
289 3 -0.787713 5.46914 11.8716 17.1716
281 3 -0.812646 6.43851 9.25657 10.0689
282 3 -0.833147 7.9523 11.4329 9.39195
339 2 -0.0591849 9.3774 10.2304 15.9464
287 3 -0.76018 9.10921 8.81772 13.7139
14 4 1.48396 11.4163 7.72859 10.2757
184 2 0.17563 8.62566 8.26553 9.31201
105 2 -0.0287731 0.0376248 14.5994 15.0965
198 2 0.149635 1.87139 11.4607 16.797
56 4 1.43727 9.09042 7.60057 12.3431
201 2 0.178289 4.73872 12.9419 9.01986
316 4 1.2378 8.93764 12.5697 9.74346
134 2 0.257277 10.8774 8.45865 14.2031
273 3 -0.851019 7.52662 7.56694 11.8822
347 2 0.176994 4.76789 7.87336 16.7882
283 3 -0.861534 2.31462 10.496 9.16051
ITEM: TIMESTEP
200
ITEM: NUMBER OF ATOMS
350
ITEM: BOX BOUNDS xy xz yz pp pp pp
-8.0647796000000014e+00 1.5678200000000000e+01 -7.0408999999999997e+00
0.0000000000000000e+00 1.4894400000000001e+01 -1.0238796000000008e+00
0.0000000000000000e+00 1.7638300000000001e+01 6.7500000000000004e-01
ITEM: ATOMS id type q x y z
234 3 -0.867649 6.24926 2.60205 6.75746
9 4 1.49818 0.545272 2.17337 5.60684
13 4 1.39733 -0.224788 4.7565 7.89431
15 4 1.35432 -1.2758 7.22493 6.56047
23 4 1.33444 3.29824 2.51883 3.95246
26 4 1.4965 5.87948 1.65465 5.49935
30 4 1.31991 4.82318 4.95882 2.56478
233 3 -0.890786 4.43231 2.82195 8.70122
32 4 1.27326 3.43883 7.03156 0.698664
33 4 1.33536 5.30813 3.56612 7.60174
139 2 0.163359 3.8787 0.374796 2.85561
70 1 -0.671627 3.12805 1.19933 2.54546
74 1 -0.691434 0.699246 5.53839 4.15351
97 2 0.0297545 -2.30117 6.83166 5.21101
108 2 0.00178058 5.60069 3.64292 1.73087
304 3 -0.829802 -0.446012 1.43881 1.94841
140 2 0.164619 3.44237 1.78019 1.59448
141 2 0.215995 2.07942 0.919655 2.62301
150 2 0.234709 1.59727 4.87858 4.51001
151 2 0.181919 0.716905 5.66832 3.04181
152 2 0.176057 -0.289089 5.11844 4.52038
346 2 0.152743 6.3523 2.41083 1.04952
207 3 -0.822053 -0.725671 2.26268 4.43492
208 3 -0.845055 0.550625 0.761828 6.35439
212 3 -0.778128 0.451075 3.42098 6.70282
213 3 -0.88163 -1.23738 5.7643 7.23858
224 3 -0.833513 1.91902 2.4048 4.70784
225 3 -0.8606 2.18683 1.42088 8.39379
226 3 -0.849878 4.59904 2.08456 4.73391
336 2 0.0253022 6.81794 1.00987 8.35061
230 3 -0.801436 3.66958 4.15579 3.31881
232 3 -0.850936 4.19652 5.8759 1.46733
302 2 0.207132 1.19668 3.72214 2.53053
35 4 1.31171 4.18632 6.46252 6.3684
303 2 0.259202 1.27705 4.68422 1.00267
237 3 -0.808301 2.57342 6.76486 5.92542
238 3 -0.801004 4.55121 4.78535 6.83435
342 2 0.167452 -1.64923 5.11638 4.8001
314 3 -0.771388 -3.18792 7.13299 3.01363
299 4 1.2808 0.259355 2.31331 0.719105
300 1 -0.678459 1.35345 3.68885 1.41994