ITEM: TIMESTEP
0
ITEM: NUMBER OF ATOMS
350
ITEM: BOX BOUNDS xy xz yz pp pp pp
-8.0552999999999990e+00 1.5678200000000000e+01 -7.0408999999999997e+00
0.0000000000000000e+00 1.4894400000000001e+01 -1.0144000000000000e+00
0.0000000000000000e+00 1.7638300000000001e+01 6.7500000000000004e-01
ITEM: ATOMS id type q x y z
233 3 -0.855509 4.44016 3.11041 8.7936
9 4 1.4419 0.269441 2.46959 5.91689
13 4 1.45072 -0.304538 4.85566 8.05069
300 1 -0.658898 0.928046 3.82829 1.54868
23 4 1.39184 3.28509 2.74319 4.29588
26 4 1.43429 5.91644 1.65448 5.56701
30 4 1.29444 4.72594 4.78825 2.55381
15 4 1.36044 -1.55541 7.22022 6.70947
32 4 1.30332 3.21932 6.84279 0.759183
33 4 1.35376 5.20688 3.81139 7.5193
346 2 0.137595 6.0081 2.25704 0.82653
70 1 -0.639514 2.85992 1.68647 2.647
74 1 -0.667733 1.04671 5.54952 4.02286
97 2 0.0244411 -2.66056 6.42783 5.7261
31 4 1.32117 1.13123 7.0931 5.12532
304 3 -0.783473 -0.402392 1.34212 2.21788
140 2 0.180752 3.22919 2.30537 1.78561
141 2 0.22572 1.78684 1.43423 2.68057
150 2 0.202606 1.39269 5.70472 2.90681
151 2 0.174234 -0.0748982 5.21531 4.15801
152 2 0.247672 1.71365 4.85187 4.64839
108 2 0.00293479 5.42759 3.50826 1.52784
207 3 -0.812772 -0.883767 2.52248 4.67224
208 3 -0.867104 0.169062 1.11119 6.73371
212 3 -0.854709 -0.0529891 3.91575 6.74683
213 3 -0.842575 -1.37082 6.05989 7.81117
224 3 -0.824066 1.92983 2.64577 5.12646
225 3 -0.862626 2.3008 1.39751 8.3109
226 3 -0.856504 4.56589 1.99809 4.75264
301 2 0.221819 1.97581 4.08668 1.14635
230 3 -0.857815 3.65604 4.10121 3.50539
232 3 -0.852008 4.08031 5.68963 1.43751
302 2 0.201122 0.964553 3.45714 2.64056
35 4 1.41034 4.06737 6.42299 6.24489
303 2 0.201634 0.204901 4.69521 1.40232
237 3 -0.84214 2.54944 6.74131 6.01174
238 3 -0.87778 4.48286 4.96586 6.70078
342 2 0.191091 -1.72916 5.03456 5.0312
139 2 0.16098 3.58719 0.775183 2.96232
299 4 1.19413 0.12983 2.37472 0.757111
314 3 -0.798128 -2.79298 7.16789 3.3329
231 3 -0.879105 -0.193038 7.21033 5.94041
234 3 -0.857358 6.08077 2.75037 6.67337
336 2 -0.00581209 6.8745 0.924175 8.46241
7 4 1.43525 1.26937 0.332036 7.67194
6 4 1.10839 1.40984 1.60659 16.4184
10 4 0.998808 -0.481387 2.41765 14.059
12 4 1.02169 -2.67958 5.04387 16.6768
297 2 0.209088 3.01583 3.17622 12.1598
16 4 1.28746 0.24343 5.46948 13.8087
338 2 0.106464 -3.34549 6.10193 11.9487
295 2 0.180465 1.75327 1.82091 12.3731
28 4 0.994885 4.05374 3.61761 16.039
34 4 1.53404 1.30624 6.92277 9.59523
291 4 0.871947 4.18485 0.807985 13.0151
37 4 1.21686 -0.145606 6.9095 16.2817
66 1 -0.682016 -0.859247 1.95941 12.2227
17 4 1.3055 -0.980815 7.34087 11.6239
106 2 0.045208 4.13222 4.83288 17.3758
305 3 -0.771713 0.314732 2.2778 17.4899
98 2 0.130543 1.75046 5.4782 12.9394
104 2 -0.0106256 2.9314 2.27339 10.7265
38 4 1.49932 3.68408 7.38816 11.8355
210 3 -0.791265 -2.19981 3.69873 17.4326
128 2 0.224848 -0.677736 2.81337 11.6417
296 2 0.0335397 4.8192 1.42784 11.4738
130 2 0.176785 -0.391112 1.04773 11.7392
298 2 0.164676 5.88335 1.78433 14.5256
143 2 0.0610105 5.77343 2.65382 16.2173
145 2 0.183581 5.32563 1.11115 9.93804
292 1 -0.652883 2.79832 2.21985 12.7278
209 3 -0.758491 0.521662 1.13704 14.7275
294 2 0.227358 2.72162 2.37249 13.8767
72 1 -0.658235 6.27795 1.61374 10.2821
214 3 -0.830229 -0.0191144 3.91937 13.8888
25 4 1.00883 3.00226 2.57916 9.07664
216 3 -0.860645 -0.744674 6.37633 12.9338
228 3 -0.784648 2.78828 2.4808 16.2011
236 3 -0.844744 0.0933924 6.88223 10.5766
239 3 -0.832527 4.30366 4.28789 14.6441
211 3 -0.81946 -0.78443 3.81567 9.16321
241 3 -0.842928 0.652584 6.0442 15.2102
243 3 -0.812627 -1.58176 6.23843 16.6288
244 3 -0.812965 2.85588 7.29969 10.4528
245 3 -0.792987 3.30871 5.52029 12.4849
215 3 -0.792948 -2.88454 7.31305 11.0499
107 2 0.108646 1.94863 3.91046 9.09969
36 4 1.24513 4.6159 4.88399 13.1963
242 3 -0.795742 0.78461 7.03488 17.5845
328 2 0.176032 2.71099 7.64554 15.9972
345 2 0.170791 4.61597 0.744665 15.453
293 1 -0.686241 5.30794 0.83625 14.5956
235 3 -0.787552 1.45233 5.45445 8.90796
240 3 -0.82543 5.43746 3.82328 12.3413
307 4 0.557833 -2.0616 10.6757 0.256653
19 4 1.5266 -3.02476 9.60466 8.00429
20 4 1.26115 -4.29304 12.2203 6.26354
24 4 1.20915 -0.769691 13.7486 7.65198
39 4 1.33457 2.28957 9.29382 2.73128
40 4 1.35364 1.90206 9.44855 8.07449
42 4 1.26852 0.655911 11.5705 6.20293
75 1 -0.653927 1.13188 10.1294 1.4022
315 3 -0.765177 -2.46347 9.57015 1.29384
99 2 0.070726 -4.62991 12.6876 2.42419
100 2 0.0444962 -2.88404 12.933 5.66745
111 2 0.00492945 -0.955077 11.228 5.49005
153 2 0.162843 1.23977 11.2562 1.61609
154 2 0.143789 0.163021 9.57926 1.8091
155 2 0.164565 1.51584 9.75447 0.392921
250 3 -0.836128 -1.78226 12.9055 8.62381
227 3 -0.813587 -1.40306 14.1949 6.31407
218 3 -0.886584 -2.28345 8.59568 7.03596
219 3 -0.79519 -5.13355 11.6289 4.89339
220 3 -0.79293 -3.86837 10.8978 7.17186
221 3 -0.881166 -5.10365 13.2342 7.04338
309 2 0.0723175 -0.506753 8.33584 3.28395
246 3 -0.776047 1.45402 8.46523 3.95606
247 3 -0.790402 2.99356 8.20084 1.71998
253 3 -0.847452 0.476743 12.7068 7.30253
335 2 -0.0163345 -0.380351 11.0432 0.416698
252 3 -0.824417 0.986361 10.2958 6.94238
86 1 -0.657297 -6.12122 12.7219 1.985
186 2 0.241011 -6.60225 13.7713 1.85516
306 4 0.895408 -2.20329 8.53732 3.00003
158 2 0.174055 3.72516 7.43826 8.35676
308 1 -0.673258 -1.39811 9.76842 4.28599
310 2 -0.00138857 -2.37365 12.337 0.689344
311 2 0.148897 -0.981327 10.6729 3.82579
312 2 0.23262 -0.896776 9.53413 5.27181
313 2 0.117827 -2.7361 9.76986 4.41696
322 2 0.175369 -4.66324 13.2089 0.683936
248 3 -0.836108 1.09405 8.24682 8.63707
163 2 0.17052 0.804459 13.5629 2.39974
122 2 0.0593776 -4.01597 9.07794 1.19348
341 2 0.165936 -3.01077 14.0651 0.11198
21 4 0.709246 -2.6858 10.0747 14.5324
22 4 1.26404 -3.5661 12.0554 12.2642
41 4 1.30127 -1.74559 11.7394 9.70008
68 1 -0.664019 -3.37646 8.3694 14.2622
69 1 -0.701968 -0.642198 9.10871 12.0609
77 1 -0.690138 1.17136 9.31482 14.7122
101 2 -0.0575969 -0.974511 10.17 14.5491
102 2 -0.100953 -2.92906 10.7421 16.2038
103 2 0.112051 -5.2539 11.8831 11.8362
112 2 -0.0394343 -0.258075 8.56547 15.7978
113 2 0.0872413 -0.168525 11.7936 10.4772
114 2 -0.0582806 -0.104406 12.0992 13.4685
127 2 0.0876224 -6.93127 14.0148 13.9493
249 3 -0.794708 -1.85573 10.348 8.97328
135 2 0.154475 -4.10487 8.13188 15.0997
136 2 0.194716 0.0364973 9.45632 11.1224
137 2 0.161915 -0.0949209 9.19793 13.0995
138 2 0.200662 -1.62429 9.6575 12.0241
159 2 0.154662 0.796635 8.35756 14.3004
160 2 0.114616 0.373141 10.1923 14.6312
161 2 0.161902 1.58474 9.22012 15.7452
199 2 0.138258 1.16016 11.4177 16.3308
317 2 0.0337173 -5.35472 11.7825 9.16539
222 3 -0.81744 -3.12791 11.0186 13.3912
223 3 -0.81413 -3.42273 13.5792 12.7151
319 3 -0.770023 -6.5492 12.6446 11.2502
251 3 -0.849693 -2.79152 11.8692 10.9258
217 3 -0.830287 -4.05117 8.96237 9.1125
344 2 0.117362 -1.12848 14.0759 14.2707
133 2 0.136707 -2.26434 7.85002 14.3445
334 2 0.00225013 -4.21183 12.3442 16.9309
320 1 -0.651352 -4.83885 14.0111 17.5092
321 2 0.123951 -5.22425 14.0237 16.4158
284 3 -0.801087 1.13019 12.4861 11.0567
134 2 0.231343 -3.80254 8.36575 13.2159
318 3 -0.78472 -6.91424 14.0494 9.18199
14 4 1.53794 -4.24086 7.77955 10.1875
1 4 1.19305 14.3021 1.51522 3.52245
2 1 -0.686343 12.8329 2.32181 2.65184
3 2 0.166204 12.6763 1.96972 1.5668
4 2 0.151219 11.9297 2.15832 3.2946
118 2 0.0597663 6.72368 6.75951 0.687121
11 4 1.27633 11.7516 5.64418 3.74422
46 4 1.02551 8.37474 1.50422 3.30568
49 4 1.2594 10.0119 4.08384 1.95331
50 4 1.35992 6.30809 6.76398 4.22924
51 4 1.00023 8.61409 6.52915 0.59162
52 4 1.04109 10.0077 5.67471 8.4522
54 4 1.37735 9.32134 6.75612 5.52965
257 3 -0.789369 7.28684 1.57907 4.38726
268 3 -0.816903 7.813 6.71079 5.03646
324 2 0.202022 12.6644 5.09957 0.782636
95 2 -0.0102653 13.5693 2.37146 7.33401
142 2 0.180319 7.365 3.38618 0.234345
117 2 0.0145867 10.6463 3.22255 0.610213
120 2 0.0622012 11.0228 4.09874 8.3358
131 2 0.206917 12.7276 3.59945 4.52784
269 3 -0.83323 9.66677 6.22197 7.01794
267 3 -0.80575 10.4934 6.10943 4.61718
340 2 0.216062 13.1671 3.40149 2.65159
157 2 0.143983 5.5852 6.93234 8.12862
173 2 0.163815 6.53477 5.95963 7.84527
337 2 -0.0156924 11.7677 0.608695 2.39402
260 3 -0.779909 9.21482 2.91726 2.71138
261 3 -0.842292 11.3746 4.62498 2.62534
262 3 -0.819753 5.98466 5.58485 3.2405
78 1 -0.685387 8.24452 0.253922 1.89298
264 3 -0.810343 9.06064 5.23756 1.43362
168 2 0.153171 8.83054 3.38118 7.92124
174 2 0.173743 7.62863 4.26891 8.12661
132 2 0.155738 12.1575 4.8115 5.81163
67 1 -0.669573 12.8699 4.65776 4.89368
82 1 -0.674688 6.78059 4.9679 8.42477
263 3 -0.816821 5.04661 7.15581 5.17077
162 2 0.136978 7.39135 0.911503 1.32208
348 2 0.155485 9.00445 0.0514067 1.12142
146 2 0.160172 7.06669 0.886606 10.4082
27 4 1.13366 8.47931 0.918196 13.768
29 4 1.07876 6.79345 2.95961 11.8599
343 2 0.157563 11.2812 6.85231 16.861
47 4 0.908894 10.0752 3.19056 14.8151
48 4 1.03177 11.1453 2.50639 10.4708
55 4 1.21736 11.1063 5.06066 12.5121
73 1 -0.689792 7.9224 4.38347 11.3717
79 1 -0.657144 9.043 3.84779 16.3603
96 2 0.0855324 12.2791 4.65947 15.1296
81 1 -0.650037 11.0981 1.03583 11.7424
165 2 0.153716 8.21569 3.13471 16.6058
273 3 -0.831593 7.76386 7.34863 11.9254
109 2 0.0158335 5.61896 6.14602 13.4734
116 2 0.0352228 10.6424 3.09652 16.6287
331 2 0.16345 5.86026 5.45186 17.1685
121 2 -0.0293652 6.52817 6.44205 9.71501
333 2 -0.0109038 13.7853 2.40471 14.9769
147 2 0.13873 7.6096 4.84071 10.3698
148 2 0.240407 9.02997 4.16682 11.3874
149 2 0.206139 7.54274 5.10534 12.2695
164 2 0.145135 8.92655 4.84523 16.9427
265 3 -0.869388 10.9114 6.50746 9.35614
166 2 0.061653 8.53936 4.25513 14.7057
167 2 0.0883189 9.75775 2.14775 9.1799
266 3 -0.898499 5.17841 7.41743 11.6639
169 2 0.148424 8.8282 3.76548 9.69775
119 2 -0.000382859 8.48523 5.38258 9.19623
175 2 0.148952 6.20046 4.77757 9.39142
172 2 0.236123 10.9737 1.66228 12.7346
144 2 0.165787 6.64646 2.5015 9.64204
229 3 -0.840993 7.61459 1.94175 12.75
258 3 -0.822873 9.73384 1.70255 14.5225
259 3 -0.822686 12.529 2.56712 9.69341
323 1 -0.678578 11.4309 5.8043 17.2839
270 3 -0.769568 11.477 4.20997 13.8368
271 3 -0.794876 10.8879 3.79937 11.5143
274 3 -0.856685 9.8219 5.9871 12.8099
325 2 0.142079 10.5218 5.03974 16.9284
332 2 0.0627537 7.70962 6.761 16.4359
329 1 -0.638873 6.20482 6.62983 16.8237
330 2 0.160075 5.59956 7.08768 15.9716
129 2 0.138048 13.6559 1.76302 12.4554
347 2 0.184054 4.381 7.49083 17.005
8 4 0.979218 13.8956 2.57762 8.92805
171 2 0.163515 10.1767 0.58048 11.3089
56 4 1.46964 9.32051 7.47592 12.3816
105 2 -0.0174146 7.24178 0.607971 14.9985
80 1 -0.669591 9.46859 3.33089 8.87351
94 2 0.0965334 14.6967 1.10329 9.21777
71 1 -0.651614 5.40095 3.58332 17.5815
45 4 1.21775 5.28678 13.5035 3.26468
57 4 0.895843 10.0256 9.31659 1.32169
58 4 1.507 3.14735 11.615 4.53383
59 4 0.969557 6.41148 11.5061 1.15504
62 4 1.16622 5.39029 11.2294 6.43841
126 2 0.0382576 2.44478 13.159 8.3803
83 1 -0.675414 6.22115 8.36383 3.02177
84 1 -0.668531 9.81237 8.54117 5.35351
85 1 -0.693942 8.34336 9.22466 8.0626
87 1 -0.648043 6.8499 10.4406 5.44943
88 1 -0.688611 5.61757 13.1354 6.80199
76 1 -0.667206 4.72115 7.5874 7.75584
18 4 1.00204 9.83518 11.3716 3.4618
123 2 -0.0253571 8.10483 11.8185 1.07231
185 2 0.122601 9.55474 12.1774 1.0173
125 2 0.00983403 6.48054 9.96185 1.89742
5 3 -0.7903 6.52979 14.0012 4.16272
156 2 0.251862 5.04538 8.71902 7.79123
176 2 0.179778 5.86691 7.91594 1.99956
177 2 0.171257 7.28328 8.77189 2.99175
178 2 0.225527 5.40865 8.96604 3.48662
179 2 0.22087 10.5405 8.59581 4.51387
180 2 0.208338 10.2492 8.90865 6.30579
181 2 0.196895 8.83831 8.99354 5.15453
182 2 0.18573 9.03194 10.0835 7.71938
183 2 0.169526 7.86292 8.59269 7.26388
187 2 0.176937 6.68751 9.63919 4.55576
188 2 0.176764 7.50603 9.9834 6.39794
189 2 0.158904 7.16276 11.4813 5.06726
190 2 0.200112 6.37997 13.2649 7.63041
191 2 0.150416 4.58203 13.5623 7.01551
275 3 -0.815999 9.21269 8.03055 0.860639
277 3 -0.802415 3.16395 10.4552 3.24003
278 3 -0.821357 3.94602 13.0369 4.00876
350 2 0.254054 6.10115 13.527 5.74033
280 3 -0.82758 5.84332 12.4675 2.18923
285 3 -0.853558 4.00081 10.995 5.6647
286 3 -0.765138 5.62552 10.4267 7.82248
349 2 0.0721741 8.22592 12.2932 3.13472
276 3 -0.838342 9.69364 10.007 2.70895
201 2 0.175099 4.6202 13.0101 8.50215
110 2 0.0429355 3.32838 8.87006 7.25639
279 3 -0.831051 1.66771 12.1082 4.8521
115 2 0.0825031 2.34879 14.315 3.49107
43 4 1.35247 2.77995 9.79285 13.6509
44 4 1.2025 1.39332 12.3501 12.6766
254 3 -0.86135 3.17111 8.51908 12.8139
326 1 -0.653988 3.32441 8.00977 16.961
60 4 1.23129 7.00822 10.0845 9.08998
61 4 1.04469 2.36937 11.9974 9.67091
63 4 1.01623 8.13909 9.80679 14.28
64 4 1.03245 3.80251 11.8543 15.9966
65 4 0.938843 8.11264 12.7968 12.8881
89 1 -0.652778 6.47293 9.34623 15.1427
90 1 -0.64717 4.42671 13.2892 14.8925
91 1 -0.659672 1.98465 12.2449 16.4226
92 1 -0.681137 3.97839 12.8315 9.56069
93 1 -0.670868 6.42542 13.1866 12.2766
288 3 -0.754064 3.77281 10.3776 14.8473
290 3 -0.782652 8.20348 11.4026 13.6556
327 2 0.183612 3.41174 9.16918 17.0082
192 2 0.167356 6.4608 8.35161 15.8336
193 2 0.201517 6.06093 9.1665 14.0681
194 2 0.195899 5.93244 10.2754 15.6173
195 2 0.256283 3.73476 14.1596 14.8114
196 2 0.206414 4.61275 12.6582 13.9747
197 2 0.147014 5.37998 13.5765 15.4732
184 2 0.173969 8.84586 8.60081 8.96047
316 4 1.23678 8.90246 12.5261 9.67598
200 2 0.154046 1.86026 13.0453 15.6205
202 2 0.182176 4.585 11.8117 10.0966
203 2 0.158866 4.04252 13.7551 10.2866
204 2 0.190842 5.86392 12.2069 12.4004
205 2 0.187324 6.52851 13.4995 11.1311
206 2 0.128664 6.18135 14.0506 13.0174
170 2 0.185842 4.94202 14.4862 11.8726
255 3 -0.82528 2.20844 11.0211 12.7972
256 3 -0.820588 2.00006 13.673 13.3239
272 3 -0.85473 10.3397 8.21377 11.3563
289 3 -0.805255 4.73287 12.0476 17.399
281 3 -0.825983 6.61997 9.12098 10.3089
282 3 -0.811348 7.67705 11.587 9.3017
339 2 -0.00197185 8.21233 9.74633 16.0044
287 3 -0.768474 8.9662 8.62498 13.7044
53 4 1.27444 6.54504 7.63961 10.9549
198 2 0.174834 1.87434 12.741 17.4053
283 3 -0.848229 2.29754 10.5737 9.06255
124 2 -0.0726446 9.09639 11.0445 17.626
ITEM: TIMESTEP
100
ITEM: NUMBER OF ATOMS
350
ITEM: BOX BOUNDS xy xz yz pp pp pp
-8.0552999999999990e+00 1.5678200000000000e+01 -7.0408999999999997e+00
0.0000000000000000e+00 1.4894400000000001e+01 -1.0144000000000000e+00
0.0000000000000000e+00 1.7603023400000001e+01 6.7500000000000004e-01
ITEM: ATOMS id type q x y z
233 3 -0.869008 4.38941 3.01222 8.62436
9 4 1.48334 0.272841 2.57543 5.87626
13 4 1.38511 -0.203795 4.84221 8.10188
300 1 -0.65701 1.24591 3.74169 1.50523
23 4 1.31835 3.23497 2.66941 4.19583
26 4 1.40278 5.92718 1.59627 5.61899
30 4 1.27067 4.5918 4.7662 2.50733
15 4 1.31828 -1.44632 7.20218 6.85073
32 4 1.35337 3.10323 6.93509 0.740106
33 4 1.35893 5.33475 3.67026 7.57978
346 2 0.142771 6.00729 2.20234 0.68238
70 1 -0.68197 2.87247 1.31242 2.85818
74 1 -0.67291 0.852979 5.81661 3.95285
97 2 0.0131712 -2.57532 6.51026 5.78849
235 3 -0.774004 1.48349 5.38404 8.57459
304 3 -0.797519 -0.375525 1.26847 2.2011
140 2 0.172048 2.95362 1.85596 1.86988
141 2 0.209871 1.86431 0.89931 3.09899
150 2 0.230692 1.50977 5.7752 3.08478
151 2 0.152775 -0.286193 5.96247 3.67973
152 2 0.255982 1.08965 4.94799 4.71403
108 2 -0.00177442 5.30631 3.40349 1.56296
207 3 -0.821916 -0.683295 2.37993 4.5984
208 3 -0.851103 0.306676 1.10238 6.79835
212 3 -0.852435 -0.0773212 4.01705 6.66367
213 3 -0.833665 -1.24148 6.11985 8.09157
224 3 -0.769871 1.71866 2.8085 5.10997
225 3 -0.881349 2.26938 1.44831 8.37392
226 3 -0.833669 4.51331 2.17396 4.9354
301 2 0.204675 2.32021 3.77229 1.19713
230 3 -0.81656 3.57072 4.16261 3.55513
232 3 -0.839122 3.90874 5.7088 1.43373
302 2 0.195239 1.0357 3.37592 2.67657
35 4 1.37789 4.16477 6.51468 6.30457
303 2 0.226039 0.625933 4.65181 1.16345
237 3 -0.800853 2.69135 7.00153 5.93443
238 3 -0.7732 4.47397 4.86752 6.81287
342 2 0.152184 -1.91665 5.14083 4.84825
139 2 0.15278 3.80745 0.598707 3.08424
299 4 1.19595 0.367972 2.31135 0.721805
314 3 -0.842419 -3.00494 7.10478 3.03233
7 4 1.47255 1.27785 0.393366 7.7706
162 2 0.134672 7.10139 0.685737 1.65788
242 3 -0.83748 1.74107 6.39627 0.0326341
6 4 1.11457 1.47998 1.53559 16.3832
10 4 1.02832 -0.598208 2.39003 13.9988
12 4 1.02624 -2.58731 5.08539 16.8315
297 2 0.230499 3.22647 3.00747 12.4852
16 4 1.26873 0.237585 5.49025 13.7337
338 2 0.108072 -3.36107 6.14376 12.1553
295 2 0.190211 1.85645 1.70454 12.1468
28 4 1.0442 4.01866 3.48415 16.0407
34 4 1.4919 1.44241 6.8865 9.60344
291 4 0.862786 4.13933 0.630122 12.861
37 4 1.26279 -0.131803 6.87365 16.38
66 1 -0.701941 -1.02184 1.89533 12.2044
17 4 1.27717 -1.04084 7.2056 11.6848
106 2 0.0774626 4.14356 4.87646 17.4376
305 3 -0.786288 0.395021 2.11086 17.4018
98 2 0.112271 1.7323 5.59897 12.9283
104 2 -0.0212258 2.9192 2.34026 10.7677
38 4 1.35631 3.6508 7.09716 11.7194
210 3 -0.804107 -1.913 3.81991 17.5861
128 2 0.222961 -0.98206 2.86739 11.5642
296 2 0.00788611 4.89127 0.976586 11.2814
130 2 0.1803 -0.266257 1.15568 11.972
298 2 0.182758 5.9655 1.72101 14.3617
143 2 0.0253068 5.52656 2.45892 16.1524
145 2 0.202489 5.36429 1.58673 9.92864
292 1 -0.65552 2.69902 2.02806 12.7314
209 3 -0.758497 0.448169 1.30934 14.6993
294 2 0.213992 2.53969 2.01063 13.8737
72 1 -0.661614 6.40523 1.68313 10.2949
214 3 -0.806951 -0.194447 3.94406 13.8522
25 4 1.04434 2.98467 2.58964 9.10573
216 3 -0.842609 -0.9113 6.41723 13.1122
228 3 -0.811222 2.7904 2.6044 16.366
236 3 -0.828767 0.227739 6.78604 10.7632
239 3 -0.811877 4.22763 4.36244 14.7347
211 3 -0.800527 -0.67414 3.59198 9.31763
241 3 -0.825624 0.642543 6.16114 15.155
243 3 -0.833613 -1.62212 6.34593 16.6022
244 3 -0.871289 2.84058 7.16999 10.2874
245 3 -0.799643 3.26184 5.28416 12.3627
215 3 -0.790473 -2.88192 7.26442 11.0675
107 2 0.112654 1.99674 3.9311 9.03397
36 4 1.14941 4.56464 4.92096 13.2182
71 1 -0.657355 5.29574 3.65835 17.5849
240 3 -0.789323 5.42437 3.56599 12.4255
293 1 -0.67017 5.38798 0.724913 14.3726
146 2 0.171396 6.96146 0.755519 10.269
307 4 0.559814 -2.05332 10.7092 0.217869
19 4 1.50712 -2.94366 9.60379 7.98288
20 4 1.23127 -4.40062 12.0918 6.28222
24 4 1.18802 -0.698664 13.7817 7.68895
39 4 1.33719 2.3001 9.36093 2.67788
40 4 1.37642 1.96398 9.49555 7.99486
42 4 1.22988 0.630775 11.4937 6.15398
75 1 -0.658084 0.821278 10.3376 1.83173
315 3 -0.749864 -2.54256 9.63497 1.26087
99 2 0.0964846 -4.71575 12.9592 2.46959
100 2 0.0507805 -3.06707 12.9353 6.03402
111 2 -0.000237576 -0.935906 11.1207 5.60475
153 2 0.160724 1.09682 11.4249 1.70761
154 2 0.18276 0.00722787 10.1586 2.67671
155 2 0.153982 0.732459 9.7431 0.903106
250 3 -0.827504 -1.81904 13.0356 8.71826
227 3 -0.812852 -1.3622 14.2959 6.23668
218 3 -0.883834 -2.18258 8.56776 7.08123
219 3 -0.798678 -5.11007 11.6964 4.85642
220 3 -0.80959 -3.91994 10.7055 7.09283
221 3 -0.863226 -5.15325 13.2263 7.11964
309 2 0.0779504 -0.711846 8.47786 3.32523
246 3 -0.789503 1.48157 8.64064 3.9099
247 3 -0.835643 2.74312 8.15008 1.67514
253 3 -0.837108 0.480418 12.8684 7.23886
335 2 -0.0227499 -0.427889 11.1142 0.45034
252 3 -0.812657 1.04559 10.1001 6.87091
86 1 -0.659457 -6.1775 12.8411 2.08892
186 2 0.266436 -6.65766 13.9965 2.1949
306 4 0.920924 -2.45762 8.54609 2.94794
341 2 0.16295 -3.06082 14.1532 0.477815
308 1 -0.655299 -1.54505 9.70366 4.25463
310 2 0.00889366 -2.36227 12.327 0.848877
311 2 0.146692 -1.26188 10.7016 3.79571
312 2 0.246058 -1.06609 9.42609 5.23768
313 2 0.0954619 -3.1907 9.55682 4.48087
322 2 0.182599 -4.72764 13.2234 0.765082
248 3 -0.798752 1.21835 8.26138 8.67668
320 1 -0.644282 -3.78847 13.3853 0.110588
122 2 0.0691052 -4.05147 9.13487 0.892677
279 3 -0.800014 1.67218 11.7431 4.92173
31 4 1.32921 1.21332 7.33703 5.0122
231 3 -0.833435 -0.124077 7.34262 5.91276
317 2 0.0348813 -5.34723 11.8945 8.81015
21 4 0.709006 -2.89091 10.1299 14.5311
22 4 1.2186 -3.74618 12.044 12.2479
41 4 1.29158 -1.70117 11.815 9.73724
68 1 -0.643933 -3.39665 8.4685 13.875
69 1 -0.677809 -0.488663 8.97901 11.9783
77 1 -0.68598 1.11896 9.23744 14.7487
101 2 -0.0593324 -1.19384 10.0579 14.5557
102 2 -0.110876 -3.01453 10.7213 16.2083
103 2 0.112156 -5.36994 11.6619 11.8625
112 2 -0.0102871 -0.385164 8.37987 15.695
113 2 0.0723655 -0.147443 11.9958 10.3854
114 2 -0.0541073 -0.196263 11.9769 13.0745
127 2 0.0637719 -6.94534 14.0236 13.9785
249 3 -0.809266 -1.81428 10.4866 8.94945
135 2 0.14992 -4.27102 8.27407 14.7548
136 2 0.219633 0.216906 9.07449 11.0741
137 2 0.159651 0.0741452 9.1511 13.0603
138 2 0.180706 -1.43417 9.63777 11.9238
159 2 0.178837 0.970154 8.14726 14.1788
160 2 0.106014 0.138188 9.96406 14.5615
161 2 0.157248 1.49901 9.21623 15.7945
199 2 0.152863 1.30962 11.2285 16.3513
283 3 -0.859164 2.24193 10.5725 9.0876
222 3 -0.813929 -3.29695 11.118 13.4279
223 3 -0.797979 -3.78723 13.5592 12.8252
319 3 -0.757957 -6.5252 12.5518 11.2686
251 3 -0.843229 -2.71064 11.9531 10.951
217 3 -0.810769 -3.96395 8.86381 9.07329
344 2 0.115325 -1.0424 13.9703 13.9163
133 2 0.179684 -2.38578 7.90005 14.0509
334 2 -0.00601657 -4.32015 12.3944 16.9966
254 3 -0.772835 3.0739 8.2195 12.9253
321 2 0.0957409 -5.00195 14.0378 16.6127
345 2 0.142964 -2.27682 14.7472 15.2889
134 2 0.249175 -3.83303 8.51512 12.8267
318 3 -0.810582 -6.88862 13.9667 9.22453
328 2 0.183957 2.83446 8.24974 16.1037
1 4 1.21957 14.3277 1.47959 3.41898
2 1 -0.668422 12.8655 2.47123 2.70363
3 2 0.163854 12.6239 2.34299 1.61446
4 2 0.153918 11.9548 2.27483 3.42787
118 2 0.0600246 6.69382 6.66529 0.824861
11 4 1.32636 11.8113 5.7788 3.58309
46 4 1.0824 8.30755 1.76099 3.32737
49 4 1.26842 10.0096 3.98978 1.86887
50 4 1.37764 6.29241 6.78256 4.02711
51 4 1.06628 8.58386 6.45419 0.716154
52 4 1.01272 10.0932 5.54527 8.42591
54 4 1.27394 9.40687 6.94843 5.34849
257 3 -0.795295 7.17949 1.70451 4.41064
268 3 -0.774657 7.80169 6.86993 4.64356
324 2 0.186035 12.5849 5.02963 0.782138
95 2 -0.0223969 13.6395 2.33477 7.32265
142 2 0.176429 7.33586 3.38219 0.135951
117 2 -0.00908333 10.658 3.09499 0.528451
120 2 0.0260587 10.8914 4.00967 8.08767
131 2 0.191282 12.6034 3.68158 4.69845
269 3 -0.775773 9.65855 6.18395 7.01318
267 3 -0.783581 10.607 6.4189 4.43762
340 2 0.188306 13.338 3.51942 2.90708
157 2 0.135786 5.73798 6.88185 8.07426
173 2 0.160161 6.59604 5.8046 7.97395
337 2 -0.0213945 11.7555 0.830176 2.40333
260 3 -0.808378 9.17333 2.94967 2.79916
261 3 -0.814297 11.2663 4.57565 2.64841
262 3 -0.809252 5.92905 5.54121 3.09205
78 1 -0.674721 8.20204 0.437843 1.955
264 3 -0.824959 9.06117 5.1218 1.34877
168 2 0.156531 8.83264 3.44053 8.16494
174 2 0.172461 7.69825 4.20767 8.32127
132 2 0.160051 12.208 4.96889 6.06298
67 1 -0.661478 12.6614 4.75169 5.02079
82 1 -0.667546 6.71314 4.83166 8.56222
263 3 -0.825672 5.2127 6.93579 5.19865
348 2 0.136542 8.94694 0.587611 1.06618
115 2 0.0522886 9.30667 0.344892 3.57326
158 2 0.206886 3.91754 7.40907 8.56044
234 3 -0.796194 6.47302 2.65006 6.98604
336 2 0.0213718 7.08191 0.874578 8.62816
80 1 -0.669074 9.47588 3.27661 9.11787
27 4 1.19134 8.52592 0.871453 13.918
29 4 1.0329 6.84289 2.95229 11.9275
343 2 0.168104 11.369 6.71604 16.7885
47 4 0.907618 10.0534 3.2471 14.99
48 4 1.08974 11.1987 2.80334 10.4658
55 4 1.24384 11.0417 5.14085 12.6842
73 1 -0.677707 7.88049 4.49661 11.6752
79 1 -0.669205 8.83771 3.93798 16.3824
96 2 0.104577 12.2936 4.66089 15.3198
81 1 -0.665071 11.0724 1.26305 11.5842
165 2 0.145334 7.98574 3.22413 16.573
273 3 -0.834121 7.86588 7.32653 11.5327
109 2 0.0273018 5.59214 6.20511 13.3034
116 2 0.0090018 10.4828 3.23528 16.7814
331 2 0.174136 5.99612 5.47657 17.0352
121 2 -0.0135519 6.60916 6.6079 9.41168
333 2 -0.0186553 13.5835 2.27106 14.7386
147 2 0.147568 7.29382 4.9747 10.8029
148 2 0.237154 9.04002 4.39841 11.5045
149 2 0.194661 7.56595 4.99323 12.6511
164 2 0.16642 8.72018 4.87016 16.9651
265 3 -0.873983 10.944 6.3905 9.39392
166 2 0.0745685 8.47707 4.36291 14.7704
167 2 0.109753 9.6081 2.0048 9.25845
266 3 -0.890334 5.29052 7.21536 11.6453
169 2 0.139155 8.84575 3.80052 10.0236
119 2 0.0120961 8.56067 5.37137 9.21104
175 2 0.139192 6.18308 4.65592 9.57677
172 2 0.219616 10.9488 1.70806 12.6661
144 2 0.148567 7.00217 2.58834 9.70558
229 3 -0.793984 7.71674 1.86517 12.9698
258 3 -0.836331 9.75393 1.75188 14.5922
259 3 -0.831595 12.5805 2.58172 9.65529
323 1 -0.69495 11.3481 5.69947 17.2593
270 3 -0.787834 11.3776 4.36061 14.0643
271 3 -0.832264 10.9211 4.04052 11.5068
274 3 -0.855656 9.7943 6.12683 12.9182
325 2 0.158702 10.4621 5.04152 16.922
332 2 0.0810133 7.55175 6.9116 16.3391
329 1 -0.652852 6.19192 6.66021 16.8916
330 2 0.161771 5.36425 6.94105 16.1467
129 2 0.158722 13.6562 1.55772 12.2628
347 2 0.181855 4.43235 7.70732 17.0543
8 4 0.977936 13.9483 2.47205 8.95247
171 2 0.171824 10.0448 0.898566 11.2507
56 4 1.46992 9.31995 7.52945 12.3407
105 2 -0.0126952 7.22046 0.602946 15.0527
94 2 0.0955606 14.6165 0.919464 9.16422
170 2 0.170685 11.9472 0.5637 11.4983
45 4 1.22933 5.18471 13.5966 3.15151
57 4 0.919152 9.97147 9.25326 1.23146
58 4 1.48371 3.28277 11.5437 4.40109
59 4 0.939292 6.37131 11.54 1.11292
62 4 1.16989 5.3358 11.1494 6.4754
126 2 0.0281949 2.77054 13.1599 8.50259
83 1 -0.690488 6.16688 8.50493 3.0231
84 1 -0.667057 9.71774 8.69061 5.59085
85 1 -0.689936 8.29983 9.16153 8.02285
87 1 -0.657708 6.86108 10.6123 5.48238
88 1 -0.690442 5.59383 13.0693 6.84513
76 1 -0.69749 4.78493 7.56723 7.81405
18 4 0.975386 9.84638 11.4267 3.38721
123 2 -0.0205202 8.04034 12.0438 1.08558
184 2 0.200724 8.90151 8.5737 8.8101
125 2 -0.00101638 6.58373 10.1017 2.02805
5 3 -0.791599 6.36065 14.1109 4.06539
156 2 0.243268 5.11558 8.63325 7.74021
176 2 0.168285 5.82804 8.13553 2.03385
177 2 0.166928 7.29988 8.78739 3.14327
178 2 0.198828 5.44338 9.1782 3.61657
179 2 0.22391 10.4381 8.92707 4.7713
180 2 0.220353 10.1686 8.83263 6.62449
181 2 0.177792 8.64995 9.24825 5.45129
182 2 0.168675 8.91087 10.0025 7.46273
183 2 0.162287 7.78057 8.40278 7.26035
187 2 0.156949 6.63596 9.83752 4.50869
188 2 0.158711 7.44779 10.0527 6.45631
189 2 0.160293 7.08273 11.7798 5.25388
190 2 0.19455 6.37741 13.1892 7.61102
191 2 0.153637 4.58227 13.405 7.21247
275 3 -0.827167 9.26282 7.84601 1.01665
277 3 -0.830142 3.31126 10.5841 3.08816
278 3 -0.825673 4.0009 13.0115 4.08788
350 2 0.247284 5.93669 13.5509 5.81927
280 3 -0.823842 5.60891 12.5938 2.02213
285 3 -0.837085 4.01643 10.8137 5.70499
286 3 -0.783893 5.57789 10.4788 7.88685
349 2 0.0380316 8.24206 12.1436 3.32469
276 3 -0.823549 9.95029 9.98818 2.59965
201 2 0.170472 4.76813 12.8988 8.64668
110 2 0.058845 3.47076 8.94756 7.25582
198 2 0.185146 3.23278 11.4555 0.205802
185 2 0.129905 9.42974 12.4425 1.05022
163 2 0.158031 1.25739 13.5743 2.42441
43 4 1.25414 2.71164 9.7142 13.8103
44 4 1.17634 1.33776 12.3384 12.5525
284 3 -0.796231 1.23534 12.6535 10.9318
326 1 -0.652636 3.41594 8.28505 17.1137
60 4 1.26015 7.06043 10.169 9.01365
61 4 1.03484 2.51611 11.9392 9.74537
63 4 1.01379 8.13089 9.81842 14.2347
64 4 0.985786 3.83329 11.9183 15.8727
65 4 0.933493 8.151 12.7602 12.964
89 1 -0.652915 6.55144 9.33747 15.1969
90 1 -0.6615 4.34132 13.2908 14.6146
91 1 -0.630741 2.10565 11.9854 16.6624
92 1 -0.64622 4.1849 12.7393 9.80291
93 1 -0.65863 6.47173 13.0599 12.3537
288 3 -0.718125 3.75907 10.1932 14.9248
290 3 -0.802967 8.16443 11.327 13.6818
327 2 0.187064 3.55304 9.35422 17.5625
192 2 0.18251 6.36725 8.34913 15.7907
193 2 0.170083 6.03306 9.21728 13.9817
194 2 0.212421 6.05156 10.174 15.7207
195 2 0.231053 3.776 14.3076 14.6438
196 2 0.220632 4.19394 12.8151 13.6437
197 2 0.145095 5.45314 13.4147 14.8853
53 4 1.30312 6.5391 7.63258 10.8149
316 4 1.25987 8.96903 12.4981 9.64691
200 2 0.110502 1.90532 13.0739 16.0525
202 2 0.167324 4.58202 11.7445 10.544
203 2 0.162112 4.20768 13.7929 10.5131
204 2 0.187375 5.75202 12.2099 12.6722
205 2 0.204209 6.69874 13.1482 11.1625
206 2 0.134041 6.19079 14.0555 12.8224
14 4 1.55907 11.413 7.65434 10.1563
255 3 -0.810707 2.28848 11.0671 12.9292
256 3 -0.827686 1.77422 13.6963 13.2695
272 3 -0.857293 10.3286 8.17916 11.2193
289 3 -0.785773 4.87588 11.9548 17.3089
281 3 -0.819378 6.61048 9.06338 10.1759
282 3 -0.841728 7.76989 11.5331 9.35869
339 2 -0.00155628 8.14919 9.96653 16.0054
287 3 -0.774561 9.15846 8.62815 13.7621
124 2 -0.0762765 8.45953 10.9161 17.6137
ITEM: TIMESTEP
200
ITEM: NUMBER OF ATOMS
350
ITEM: BOX BOUNDS xy xz yz pp pp pp
-8.0552999999999990e+00 1.5678200000000000e+01 -7.0408999999999997e+00
0.0000000000000000e+00 1.4894400000000001e+01 -1.0144000000000000e+00
0.0000000000000000e+00 1.7567746800000002e+01 6.7500000000000004e-01
ITEM: ATOMS id type q x y z
233 3 -0.849826 4.39147 2.88253 8.75811
9 4 1.53733 0.405991 2.66727 5.80433
13 4 1.45814 -0.192101 4.79633 7.98186
300 1 -0.652365 1.50195 3.51343 1.34821
23 4 1.39364 3.22372 2.70737 4.29953
26 4 1.54423 5.89582 1.70358 5.58331
30 4 1.26846 4.6482 4.72343 2.42674
15 4 1.34667 -1.37114 7.30868 6.75933
32 4 1.32113 3.12896 7.0331 0.766635
33 4 1.34867 5.25117 3.79961 7.6212
346 2 0.128336 5.85741 2.06475 0.550846
70 1 -0.645747 2.93646 1.22376 3.07656
74 1 -0.68944 0.986803 6.12787 3.76237
97 2 0.0110652 -2.56461 6.73907 5.68217
235 3 -0.78626 1.4466 5.37762 8.59542
304 3 -0.802223 -0.393555 1.30705 2.27215
140 2 0.151321 3.05929 1.63032 1.93596
141 2 0.198695 1.85386 0.916781 3.35954
150 2 0.216311 1.35527 6.48661 2.80291
151 2 0.15988 -0.137987 5.91042 3.76061
152 2 0.214398 1.52587 5.25737 4.18813
108 2 -0.0126216 5.40043 3.46518 1.52585
207 3 -0.826126 -0.828048 2.35296 4.65438
208 3 -0.826993 0.428945 1.27797 6.81163
212 3 -0.893428 0.0514273 3.89945 6.68995
213 3 -0.835638 -1.23794 6.00298 7.75223
224 3 -0.847068 1.90934 2.76496 5.22197
225 3 -0.851452 2.31139 1.25513 8.47184
226 3 -0.838067 4.48384 2.09647 5.0146
301 2 0.17564 2.55726 2.93062 1.3375
230 3 -0.845558 3.5649 3.97756 3.26858
232 3 -0.817763 3.91053 5.7924 1.50454
302 2 0.185847 1.13452 3.72322 2.42908
35 4 1.39368 4.33051 6.57824 6.30404
303 2 0.232693 1.48917 4.44431 0.681636
237 3 -0.81902 2.76122 6.92659 5.92455
238 3 -0.800895 4.4905 4.97374 6.81623
342 2 0.174207 -1.86062 5.21148 4.88839
139 2 0.169897 3.75997 0.470512 3.36233
299 4 1.22757 0.310766 2.28504 0.763693
314 3 -0.821742 -2.95614 7.12895 2.93127