ITEM: TIMESTEP
0
ITEM: NUMBER OF ATOMS
350
ITEM: BOX BOUNDS xy xz yz pp pp pp
-8.0552999999999990e+00 1.5678200000000000e+01 -7.0408999999999997e+00
0.0000000000000000e+00 1.4894400000000001e+01 -1.0144000000000000e+00
0.0000000000000000e+00 1.7638300000000001e+01 6.7500000000000004e-01
ITEM: ATOMS id type q x y z
233 3 -0.855509 4.44016 3.11041 8.7936
9 4 1.4419 0.269441 2.46959 5.91689
13 4 1.45072 -0.304538 4.85566 8.05069
300 1 -0.658898 0.928046 3.82829 1.54868
23 4 1.39184 3.28509 2.74319 4.29588
26 4 1.43429 5.91644 1.65448 5.56701
30 4 1.29444 4.72594 4.78825 2.55381
15 4 1.36044 -1.55541 7.22022 6.70947
32 4 1.30332 3.21932 6.84279 0.759183
33 4 1.35376 5.20688 3.81139 7.5193
346 2 0.137595 6.0081 2.25704 0.82653
70 1 -0.639514 2.85992 1.68647 2.647
74 1 -0.667733 1.04671 5.54952 4.02286
97 2 0.0244411 -2.66056 6.42783 5.7261
31 4 1.32117 1.13123 7.0931 5.12532
304 3 -0.783473 -0.402392 1.34212 2.21788
140 2 0.180752 3.22919 2.30537 1.78561
141 2 0.22572 1.78684 1.43423 2.68057
150 2 0.202606 1.39269 5.70472 2.90681
151 2 0.174234 -0.0748982 5.21531 4.15801
152 2 0.247672 1.71365 4.85187 4.64839
108 2 0.00293479 5.42759 3.50826 1.52784
207 3 -0.812772 -0.883767 2.52248 4.67224
208 3 -0.867104 0.169062 1.11119 6.73371
212 3 -0.854709 -0.0529891 3.91575 6.74683
213 3 -0.842575 -1.37082 6.05989 7.81117
224 3 -0.824066 1.92983 2.64577 5.12646
225 3 -0.862626 2.3008 1.39751 8.3109
226 3 -0.856504 4.56589 1.99809 4.75264
301 2 0.221819 1.97581 4.08668 1.14635
230 3 -0.857815 3.65604 4.10121 3.50539
232 3 -0.852008 4.08031 5.68963 1.43751
302 2 0.201122 0.964553 3.45714 2.64056
35 4 1.41034 4.06737 6.42299 6.24489
303 2 0.201634 0.204901 4.69521 1.40232
237 3 -0.84214 2.54944 6.74131 6.01174
238 3 -0.87778 4.48286 4.96586 6.70078
342 2 0.191091 -1.72916 5.03456 5.0312
139 2 0.16098 3.58719 0.775183 2.96232
299 4 1.19413 0.12983 2.37472 0.757111
314 3 -0.798128 -2.79298 7.16789 3.3329
231 3 -0.879105 -0.193038 7.21033 5.94041
234 3 -0.857358 6.08077 2.75037 6.67337
336 2 -0.00581209 6.8745 0.924175 8.46241
7 4 1.43525 1.26937 0.332036 7.67194
6 4 1.10839 1.40984 1.60659 16.4184
10 4 0.998808 -0.481387 2.41765 14.059
12 4 1.02169 -2.67958 5.04387 16.6768
297 2 0.209088 3.01583 3.17622 12.1598
16 4 1.28746 0.24343 5.46948 13.8087
338 2 0.106464 -3.34549 6.10193 11.9487
295 2 0.180465 1.75327 1.82091 12.3731
28 4 0.994885 4.05374 3.61761 16.039
34 4 1.53404 1.30624 6.92277 9.59523
291 4 0.871947 4.18485 0.807985 13.0151
37 4 1.21686 -0.145606 6.9095 16.2817
66 1 -0.682016 -0.859247 1.95941 12.2227
17 4 1.3055 -0.980815 7.34087 11.6239
106 2 0.045208 4.13222 4.83288 17.3758
305 3 -0.771713 0.314732 2.2778 17.4899
98 2 0.130543 1.75046 5.4782 12.9394
104 2 -0.0106256 2.9314 2.27339 10.7265
38 4 1.49932 3.68408 7.38816 11.8355
210 3 -0.791265 -2.19981 3.69873 17.4326
128 2 0.224848 -0.677736 2.81337 11.6417
296 2 0.0335397 4.8192 1.42784 11.4738
130 2 0.176785 -0.391112 1.04773 11.7392
298 2 0.164676 5.88335 1.78433 14.5256
143 2 0.0610105 5.77343 2.65382 16.2173
145 2 0.183581 5.32563 1.11115 9.93804
292 1 -0.652883 2.79832 2.21985 12.7278
209 3 -0.758491 0.521662 1.13704 14.7275
294 2 0.227358 2.72162 2.37249 13.8767
72 1 -0.658235 6.27795 1.61374 10.2821
214 3 -0.830229 -0.0191144 3.91937 13.8888
25 4 1.00883 3.00226 2.57916 9.07664
216 3 -0.860645 -0.744674 6.37633 12.9338
228 3 -0.784648 2.78828 2.4808 16.2011
236 3 -0.844744 0.0933924 6.88223 10.5766
239 3 -0.832527 4.30366 4.28789 14.6441
211 3 -0.81946 -0.78443 3.81567 9.16321
241 3 -0.842928 0.652584 6.0442 15.2102
243 3 -0.812627 -1.58176 6.23843 16.6288
244 3 -0.812965 2.85588 7.29969 10.4528
245 3 -0.792987 3.30871 5.52029 12.4849
215 3 -0.792948 -2.88454 7.31305 11.0499
107 2 0.108646 1.94863 3.91046 9.09969
36 4 1.24513 4.6159 4.88399 13.1963
242 3 -0.795742 0.78461 7.03488 17.5845
328 2 0.176032 2.71099 7.64554 15.9972
345 2 0.170791 4.61597 0.744665 15.453
293 1 -0.686241 5.30794 0.83625 14.5956
235 3 -0.787552 1.45233 5.45445 8.90796
240 3 -0.82543 5.43746 3.82328 12.3413
307 4 0.557833 -2.0616 10.6757 0.256653
19 4 1.5266 -3.02476 9.60466 8.00429
20 4 1.26115 -4.29304 12.2203 6.26354
24 4 1.20915 -0.769691 13.7486 7.65198
39 4 1.33457 2.28957 9.29382 2.73128
40 4 1.35364 1.90206 9.44855 8.07449
42 4 1.26852 0.655911 11.5705 6.20293
75 1 -0.653927 1.13188 10.1294 1.4022
315 3 -0.765177 -2.46347 9.57015 1.29384
99 2 0.070726 -4.62991 12.6876 2.42419
100 2 0.0444962 -2.88404 12.933 5.66745
111 2 0.00492945 -0.955077 11.228 5.49005
153 2 0.162843 1.23977 11.2562 1.61609
154 2 0.143789 0.163021 9.57926 1.8091
155 2 0.164565 1.51584 9.75447 0.392921
250 3 -0.836128 -1.78226 12.9055 8.62381
227 3 -0.813587 -1.40306 14.1949 6.31407
218 3 -0.886584 -2.28345 8.59568 7.03596
219 3 -0.79519 -5.13355 11.6289 4.89339
220 3 -0.79293 -3.86837 10.8978 7.17186
221 3 -0.881166 -5.10365 13.2342 7.04338
309 2 0.0723175 -0.506753 8.33584 3.28395
246 3 -0.776047 1.45402 8.46523 3.95606
247 3 -0.790402 2.99356 8.20084 1.71998
253 3 -0.847452 0.476743 12.7068 7.30253
335 2 -0.0163345 -0.380351 11.0432 0.416698
252 3 -0.824417 0.986361 10.2958 6.94238
86 1 -0.657297 -6.12122 12.7219 1.985
186 2 0.241011 -6.60225 13.7713 1.85516
306 4 0.895408 -2.20329 8.53732 3.00003
158 2 0.174055 3.72516 7.43826 8.35676
308 1 -0.673258 -1.39811 9.76842 4.28599
310 2 -0.00138857 -2.37365 12.337 0.689344
311 2 0.148897 -0.981327 10.6729 3.82579
312 2 0.23262 -0.896776 9.53413 5.27181
313 2 0.117827 -2.7361 9.76986 4.41696
322 2 0.175369 -4.66324 13.2089 0.683936
248 3 -0.836108 1.09405 8.24682 8.63707
163 2 0.17052 0.804459 13.5629 2.39974
122 2 0.0593776 -4.01597 9.07794 1.19348
341 2 0.165936 -3.01077 14.0651 0.11198
21 4 0.709246 -2.6858 10.0747 14.5324
22 4 1.26404 -3.5661 12.0554 12.2642
41 4 1.30127 -1.74559 11.7394 9.70008
68 1 -0.664019 -3.37646 8.3694 14.2622
69 1 -0.701968 -0.642198 9.10871 12.0609
77 1 -0.690138 1.17136 9.31482 14.7122
101 2 -0.0575969 -0.974511 10.17 14.5491
102 2 -0.100953 -2.92906 10.7421 16.2038
103 2 0.112051 -5.2539 11.8831 11.8362
112 2 -0.0394343 -0.258075 8.56547 15.7978
113 2 0.0872413 -0.168525 11.7936 10.4772
114 2 -0.0582806 -0.104406 12.0992 13.4685
127 2 0.0876224 -6.93127 14.0148 13.9493
249 3 -0.794708 -1.85573 10.348 8.97328
135 2 0.154475 -4.10487 8.13188 15.0997
136 2 0.194716 0.0364973 9.45632 11.1224
137 2 0.161915 -0.0949209 9.19793 13.0995
138 2 0.200662 -1.62429 9.6575 12.0241
159 2 0.154662 0.796635 8.35756 14.3004
160 2 0.114616 0.373141 10.1923 14.6312
161 2 0.161902 1.58474 9.22012 15.7452
199 2 0.138258 1.16016 11.4177 16.3308
317 2 0.0337173 -5.35472 11.7825 9.16539
222 3 -0.81744 -3.12791 11.0186 13.3912
223 3 -0.81413 -3.42273 13.5792 12.7151
319 3 -0.770023 -6.5492 12.6446 11.2502
251 3 -0.849693 -2.79152 11.8692 10.9258
217 3 -0.830287 -4.05117 8.96237 9.1125
344 2 0.117362 -1.12848 14.0759 14.2707
133 2 0.136707 -2.26434 7.85002 14.3445
334 2 0.00225013 -4.21183 12.3442 16.9309
320 1 -0.651352 -4.83885 14.0111 17.5092
321 2 0.123951 -5.22425 14.0237 16.4158
284 3 -0.801087 1.13019 12.4861 11.0567
134 2 0.231343 -3.80254 8.36575 13.2159
318 3 -0.78472 -6.91424 14.0494 9.18199
14 4 1.53794 -4.24086 7.77955 10.1875
1 4 1.19305 14.3021 1.51522 3.52245
2 1 -0.686343 12.8329 2.32181 2.65184
3 2 0.166204 12.6763 1.96972 1.5668
4 2 0.151219 11.9297 2.15832 3.2946
118 2 0.0597663 6.72368 6.75951 0.687121
11 4 1.27633 11.7516 5.64418 3.74422
46 4 1.02551 8.37474 1.50422 3.30568
49 4 1.2594 10.0119 4.08384 1.95331
50 4 1.35992 6.30809 6.76398 4.22924
51 4 1.00023 8.61409 6.52915 0.59162
52 4 1.04109 10.0077 5.67471 8.4522
54 4 1.37735 9.32134 6.75612 5.52965
257 3 -0.789369 7.28684 1.57907 4.38726
268 3 -0.816903 7.813 6.71079 5.03646
324 2 0.202022 12.6644 5.09957 0.782636
95 2 -0.0102653 13.5693 2.37146 7.33401
142 2 0.180319 7.365 3.38618 0.234345
117 2 0.0145867 10.6463 3.22255 0.610213
120 2 0.0622012 11.0228 4.09874 8.3358
131 2 0.206917 12.7276 3.59945 4.52784
269 3 -0.83323 9.66677 6.22197 7.01794
267 3 -0.80575 10.4934 6.10943 4.61718
340 2 0.216062 13.1671 3.40149 2.65159
157 2 0.143983 5.5852 6.93234 8.12862
173 2 0.163815 6.53477 5.95963 7.84527
337 2 -0.0156924 11.7677 0.608695 2.39402
260 3 -0.779909 9.21482 2.91726 2.71138
261 3 -0.842292 11.3746 4.62498 2.62534
262 3 -0.819753 5.98466 5.58485 3.2405
78 1 -0.685387 8.24452 0.253922 1.89298
264 3 -0.810343 9.06064 5.23756 1.43362
168 2 0.153171 8.83054 3.38118 7.92124
174 2 0.173743 7.62863 4.26891 8.12661
132 2 0.155738 12.1575 4.8115 5.81163
67 1 -0.669573 12.8699 4.65776 4.89368
82 1 -0.674688 6.78059 4.9679 8.42477
263 3 -0.816821 5.04661 7.15581 5.17077
162 2 0.136978 7.39135 0.911503 1.32208
348 2 0.155485 9.00445 0.0514067 1.12142
146 2 0.160172 7.06669 0.886606 10.4082
27 4 1.13366 8.47931 0.918196 13.768
29 4 1.07876 6.79345 2.95961 11.8599
343 2 0.157563 11.2812 6.85231 16.861
47 4 0.908894 10.0752 3.19056 14.8151
48 4 1.03177 11.1453 2.50639 10.4708
55 4 1.21736 11.1063 5.06066 12.5121
73 1 -0.689792 7.9224 4.38347 11.3717
79 1 -0.657144 9.043 3.84779 16.3603
96 2 0.0855324 12.2791 4.65947 15.1296
81 1 -0.650037 11.0981 1.03583 11.7424
165 2 0.153716 8.21569 3.13471 16.6058
273 3 -0.831593 7.76386 7.34863 11.9254
109 2 0.0158335 5.61896 6.14602 13.4734
116 2 0.0352228 10.6424 3.09652 16.6287
331 2 0.16345 5.86026 5.45186 17.1685
121 2 -0.0293652 6.52817 6.44205 9.71501
333 2 -0.0109038 13.7853 2.40471 14.9769
147 2 0.13873 7.6096 4.84071 10.3698
148 2 0.240407 9.02997 4.16682 11.3874
149 2 0.206139 7.54274 5.10534 12.2695
164 2 0.145135 8.92655 4.84523 16.9427
265 3 -0.869388 10.9114 6.50746 9.35614
166 2 0.061653 8.53936 4.25513 14.7057
167 2 0.0883189 9.75775 2.14775 9.1799
266 3 -0.898499 5.17841 7.41743 11.6639
169 2 0.148424 8.8282 3.76548 9.69775
119 2 -0.000382859 8.48523 5.38258 9.19623
175 2 0.148952 6.20046 4.77757 9.39142
172 2 0.236123 10.9737 1.66228 12.7346
144 2 0.165787 6.64646 2.5015 9.64204
229 3 -0.840993 7.61459 1.94175 12.75
258 3 -0.822873 9.73384 1.70255 14.5225
259 3 -0.822686 12.529 2.56712 9.69341
323 1 -0.678578 11.4309 5.8043 17.2839
270 3 -0.769568 11.477 4.20997 13.8368
271 3 -0.794876 10.8879 3.79937 11.5143
274 3 -0.856685 9.8219 5.9871 12.8099
325 2 0.142079 10.5218 5.03974 16.9284
332 2 0.0627537 7.70962 6.761 16.4359
329 1 -0.638873 6.20482 6.62983 16.8237
330 2 0.160075 5.59956 7.08768 15.9716
129 2 0.138048 13.6559 1.76302 12.4554
347 2 0.184054 4.381 7.49083 17.005
8 4 0.979218 13.8956 2.57762 8.92805
171 2 0.163515 10.1767 0.58048 11.3089
56 4 1.46964 9.32051 7.47592 12.3816
105 2 -0.0174146 7.24178 0.607971 14.9985
80 1 -0.669591 9.46859 3.33089 8.87351
94 2 0.0965334 14.6967 1.10329 9.21777
71 1 -0.651614 5.40095 3.58332 17.5815
45 4 1.21775 5.28678 13.5035 3.26468
57 4 0.895843 10.0256 9.31659 1.32169
58 4 1.507 3.14735 11.615 4.53383
59 4 0.969557 6.41148 11.5061 1.15504
62 4 1.16622 5.39029 11.2294 6.43841
126 2 0.0382576 2.44478 13.159 8.3803
83 1 -0.675414 6.22115 8.36383 3.02177
84 1 -0.668531 9.81237 8.54117 5.35351
85 1 -0.693942 8.34336 9.22466 8.0626
87 1 -0.648043 6.8499 10.4406 5.44943
88 1 -0.688611 5.61757 13.1354 6.80199
76 1 -0.667206 4.72115 7.5874 7.75584
18 4 1.00204 9.83518 11.3716 3.4618
123 2 -0.0253571 8.10483 11.8185 1.07231
185 2 0.122601 9.55474 12.1774 1.0173
125 2 0.00983403 6.48054 9.96185 1.89742
5 3 -0.7903 6.52979 14.0012 4.16272
156 2 0.251862 5.04538 8.71902 7.79123
176 2 0.179778 5.86691 7.91594 1.99956
177 2 0.171257 7.28328 8.77189 2.99175
178 2 0.225527 5.40865 8.96604 3.48662
179 2 0.22087 10.5405 8.59581 4.51387
180 2 0.208338 10.2492 8.90865 6.30579
181 2 0.196895 8.83831 8.99354 5.15453
182 2 0.18573 9.03194 10.0835 7.71938
183 2 0.169526 7.86292 8.59269 7.26388
187 2 0.176937 6.68751 9.63919 4.55576
188 2 0.176764 7.50603 9.9834 6.39794
189 2 0.158904 7.16276 11.4813 5.06726
190 2 0.200112 6.37997 13.2649 7.63041
191 2 0.150416 4.58203 13.5623 7.01551
275 3 -0.815999 9.21269 8.03055 0.860639
277 3 -0.802415 3.16395 10.4552 3.24003
278 3 -0.821357 3.94602 13.0369 4.00876
350 2 0.254054 6.10115 13.527 5.74033
280 3 -0.82758 5.84332 12.4675 2.18923
285 3 -0.853558 4.00081 10.995 5.6647
286 3 -0.765138 5.62552 10.4267 7.82248
349 2 0.0721741 8.22592 12.2932 3.13472
276 3 -0.838342 9.69364 10.007 2.70895
201 2 0.175099 4.6202 13.0101 8.50215
110 2 0.0429355 3.32838 8.87006 7.25639
279 3 -0.831051 1.66771 12.1082 4.8521
115 2 0.0825031 2.34879 14.315 3.49107
43 4 1.35247 2.77995 9.79285 13.6509
44 4 1.2025 1.39332 12.3501 12.6766
254 3 -0.86135 3.17111 8.51908 12.8139
326 1 -0.653988 3.32441 8.00977 16.961
60 4 1.23129 7.00822 10.0845 9.08998
61 4 1.04469 2.36937 11.9974 9.67091
63 4 1.01623 8.13909 9.80679 14.28
64 4 1.03245 3.80251 11.8543 15.9966
65 4 0.938843 8.11264 12.7968 12.8881
89 1 -0.652778 6.47293 9.34623 15.1427
90 1 -0.64717 4.42671 13.2892 14.8925
91 1 -0.659672 1.98465 12.2449 16.4226
92 1 -0.681137 3.97839 12.8315 9.56069
93 1 -0.670868 6.42542 13.1866 12.2766
288 3 -0.754064 3.77281 10.3776 14.8473
290 3 -0.782652 8.20348 11.4026 13.6556
327 2 0.183612 3.41174 9.16918 17.0082
192 2 0.167356 6.4608 8.35161 15.8336
193 2 0.201517 6.06093 9.1665 14.0681
194 2 0.195899 5.93244 10.2754 15.6173
195 2 0.256283 3.73476 14.1596 14.8114
196 2 0.206414 4.61275 12.6582 13.9747
197 2 0.147014 5.37998 13.5765 15.4732
184 2 0.173969 8.84586 8.60081 8.96047
316 4 1.23678 8.90246 12.5261 9.67598
200 2 0.154046 1.86026 13.0453 15.6205
202 2 0.182176 4.585 11.8117 10.0966
203 2 0.158866 4.04252 13.7551 10.2866
204 2 0.190842 5.86392 12.2069 12.4004
205 2 0.187324 6.52851 13.4995 11.1311
206 2 0.128664 6.18135 14.0506 13.0174
170 2 0.185842 4.94202 14.4862 11.8726
255 3 -0.82528 2.20844 11.0211 12.7972
256 3 -0.820588 2.00006 13.673 13.3239
272 3 -0.85473 10.3397 8.21377 11.3563
289 3 -0.805255 4.73287 12.0476 17.399
281 3 -0.825983 6.61997 9.12098 10.3089
282 3 -0.811348 7.67705 11.587 9.3017
339 2 -0.00197185 8.21233 9.74633 16.0044
287 3 -0.768474 8.9662 8.62498 13.7044
53 4 1.27444 6.54504 7.63961 10.9549
198 2 0.174834 1.87434 12.741 17.4053
283 3 -0.848229 2.29754 10.5737 9.06255
124 2 -0.0726446 9.09639 11.0445 17.626
ITEM: TIMESTEP
100
ITEM: NUMBER OF ATOMS
350
ITEM: BOX BOUNDS xy xz yz pp pp pp
-8.0552999999999990e+00 1.5678200000000000e+01 -7.0408999999999997e+00
0.0000000000000000e+00 1.4863043600000001e+01 -1.0144000000000000e+00
0.0000000000000000e+00 1.7638300000000001e+01 6.4364360000000076e-01
ITEM: ATOMS id type q x y z
233 3 -0.869005 4.38942 3.01222 8.62436
9 4 1.48332 0.272885 2.57543 5.87624
13 4 1.38512 -0.203805 4.8422 8.10188
300 1 -0.657198 1.24596 3.74181 1.50533
23 4 1.31848 3.23526 2.66955 4.1955
26 4 1.40281 5.92715 1.59629 5.61898
30 4 1.271 4.59241 4.76568 2.50665
15 4 1.31828 -1.44632 7.20217 6.85073
32 4 1.35364 3.10309 6.93511 0.740275
33 4 1.35893 5.33475 3.67026 7.57978
346 2 0.14304 6.0044 2.20527 0.686718
70 1 -0.681916 2.87253 1.31251 2.85822
74 1 -0.672942 0.85299 5.8166 3.95285
97 2 0.0131753 -2.57532 6.51024 5.78846
235 3 -0.773997 1.48349 5.38403 8.57458
304 3 -0.797453 -0.375525 1.26831 2.20116
140 2 0.172136 2.95347 1.85536 1.86957
141 2 0.209852 1.86425 0.899562 3.09938
150 2 0.230531 1.50983 5.77518 3.08483
151 2 0.152771 -0.286148 5.96252 3.67967
152 2 0.255942 1.08957 4.94795 4.714
108 2 -0.00189761 5.30368 3.39804 1.56629
207 3 -0.82192 -0.683271 2.37993 4.5984
208 3 -0.851098 0.306695 1.10238 6.79834
212 3 -0.852427 -0.077318 4.01705 6.66366
213 3 -0.833677 -1.24148 6.11985 8.09156
224 3 -0.769839 1.7187 2.80868 5.10989
225 3 -0.881352 2.26938 1.4483 8.37392
226 3 -0.833657 4.51332 2.17396 4.93542
301 2 0.204561 2.32006 3.77216 1.19719
230 3 -0.816835 3.57173 4.16182 3.5539
232 3 -0.839243 3.90885 5.70922 1.43378
302 2 0.195276 1.0358 3.3763 2.6764
35 4 1.37785 4.16477 6.51468 6.30458
303 2 0.225729 0.626328 4.652 1.16355
237 3 -0.800869 2.69135 7.00151 5.93443
238 3 -0.773224 4.47396 4.86752 6.81286
342 2 0.152183 -1.91666 5.14086 4.84826
139 2 0.152771 3.80749 0.598567 3.08439
299 4 1.1961 0.36781 2.31132 0.721926
314 3 -0.842372 -3.00493 7.10481 3.03228
7 4 1.47255 1.27785 0.393369 7.7706
162 2 0.134789 7.10121 0.686324 1.65732
242 3 -0.838219 1.74118 6.39926 0.0293592
6 4 1.11431 1.48 1.53651 16.3828
10 4 1.02857 -0.5983 2.39003 13.9987
12 4 1.02626 -2.58731 5.08541 16.8315
297 2 0.230505 3.22628 3.00739 12.4853
16 4 1.26873 0.23758 5.49027 13.7338
338 2 0.108072 -3.36108 6.14377 12.1553
295 2 0.190241 1.85638 1.70446 12.1468
28 4 1.04363 4.01777 3.48511 16.039
34 4 1.49194 1.44237 6.8865 9.60341
291 4 0.8628 4.13931 0.630128 12.861
37 4 1.26385 -0.131864 6.87363 16.38
66 1 -0.701893 -1.02189 1.89534 12.2043
17 4 1.2772 -1.04085 7.2056 11.6848
106 2 0.0772518 4.14784 4.87677 17.4329
305 3 -0.786352 0.39416 2.11058 17.4025
98 2 0.112332 1.73233 5.59898 12.9283
104 2 -0.0212169 2.9192 2.34028 10.7677
38 4 1.35638 3.65067 7.09757 11.7191
210 3 -0.804159 -1.91301 3.81994 17.5861
128 2 0.222944 -0.982156 2.86742 11.5641
296 2 0.0079023 4.89125 0.976585 11.2814
130 2 0.180342 -0.266349 1.15568 11.9717
298 2 0.182732 5.96564 1.7211 14.3617
143 2 0.0250707 5.52147 2.45684 16.1547
145 2 0.202498 5.36432 1.5867 9.92858
292 1 -0.655508 2.69897 2.02798 12.7313
209 3 -0.75865 0.447086 1.30879 14.6977
294 2 0.214005 2.5396 2.01042 13.8737
72 1 -0.661607 6.40524 1.68312 10.2949
214 3 -0.807033 -0.194427 3.94407 13.8522
25 4 1.04436 2.98467 2.58964 9.10572
216 3 -0.842646 -0.911307 6.41723 13.1122
228 3 -0.811393 2.79016 2.60586 16.3642
236 3 -0.828771 0.227728 6.78604 10.7633
239 3 -0.812159 4.22628 4.36324 14.7324
211 3 -0.800531 -0.674136 3.59198 9.31764
241 3 -0.825677 0.642577 6.16112 15.155
243 3 -0.833811 -1.62212 6.34592 16.6022
244 3 -0.871351 2.84056 7.17003 10.2873
245 3 -0.79951 3.26162 5.28443 12.3621
215 3 -0.790485 -2.88193 7.26442 11.0675
107 2 0.112668 1.99672 3.9311 9.03396
36 4 1.14971 4.56474 4.921 13.2174
71 1 -0.657259 5.2965 3.65795 17.5891
240 3 -0.789449 5.42467 3.5658 12.425
293 1 -0.670165 5.38788 0.725146 14.3727
146 2 0.171398 6.96146 0.755519 10.269
307 4 0.559599 -2.05409 10.7105 0.217739
19 4 1.50714 -2.94366 9.60379 7.98288
20 4 1.23121 -4.40064 12.0918 6.2822
24 4 1.18803 -0.698666 13.7817 7.68895
39 4 1.33724 2.3001 9.36094 2.67789
40 4 1.37642 1.96398 9.49556 7.99485
42 4 1.22988 0.630768 11.4937 6.15397
75 1 -0.65804 0.821124 10.3376 1.83162
315 3 -0.749734 -2.54271 9.63532 1.26068
99 2 0.0966771 -4.71512 12.959 2.46588
100 2 0.0507754 -3.06709 12.9353 6.03405
111 2 -0.000243922 -0.935837 11.1206 5.60463
153 2 0.160708 1.0968 11.4249 1.70754
154 2 0.182744 0.00702485 10.1588 2.67664
155 2 0.154045 0.732267 9.74315 0.902987
250 3 -0.827494 -1.81903 13.0356 8.71827
227 3 -0.812863 -1.36221 14.2959 6.23669
218 3 -0.883829 -2.18258 8.56776 7.08123
219 3 -0.798603 -5.11008 11.6963 4.8563
220 3 -0.809579 -3.91994 10.7055 7.09283
221 3 -0.863222 -5.15325 13.2263 7.11964
309 2 0.0779764 -0.711679 8.478 3.32506
246 3 -0.789516 1.48156 8.64064 3.90991
247 3 -0.835642 2.743 8.15015 1.67516
253 3 -0.837098 0.480405 12.8684 7.23886
335 2 -0.0226814 -0.428431 11.1154 0.451376
252 3 -0.812645 1.04559 10.1001 6.87092
86 1 -0.659487 -6.17487 12.8414 2.08668
186 2 0.266338 -6.65597 13.9963 2.19353
306 4 0.92087 -2.45767 8.54618 2.94788
341 2 0.16264 -3.05558 14.1533 0.470205
308 1 -0.655302 -1.54505 9.7036 4.25449
310 2 0.00870601 -2.36547 12.3267 0.849381
311 2 0.146678 -1.26196 10.7015 3.79545
312 2 0.246059 -1.06629 9.42607 5.23767
313 2 0.0954353 -3.19098 9.5567 4.48061
322 2 0.182966 -4.72457 13.2272 0.761218
248 3 -0.798765 1.21833 8.2614 8.67667
320 1 -0.644813 -3.78863 13.3878 0.105225
122 2 0.0689873 -4.05224 9.13497 0.892559
279 3 -0.800016 1.67218 11.7431 4.92173
31 4 1.32919 1.21332 7.33704 5.01219
231 3 -0.833422 -0.124071 7.34263 5.91277
317 2 0.0348859 -5.34723 11.8945 8.81014
21 4 0.709002 -2.89094 10.1299 14.5312
22 4 1.2186 -3.74618 12.044 12.2479
41 4 1.29157 -1.70117 11.815 9.73724
68 1 -0.643958 -3.39662 8.46857 13.875
69 1 -0.677817 -0.488648 8.97901 11.9783
77 1 -0.685963 1.11896 9.23748 14.7487
101 2 -0.0593249 -1.19378 10.0579 14.5558
102 2 -0.110817 -3.01486 10.722 16.2079
103 2 0.112183 -5.37 11.6619 11.8625
112 2 -0.010102 -0.385339 8.37995 15.6946
113 2 0.0723585 -0.14744 11.9958 10.3854
114 2 -0.0541048 -0.196267 11.9769 13.0745
127 2 0.0641663 -6.94553 14.0246 13.9785
249 3 -0.809264 -1.81429 10.4866 8.94946
135 2 0.149909 -4.27094 8.2742 14.7548
136 2 0.219622 0.216912 9.07447 11.0742
137 2 0.159646 0.0741492 9.15109 13.0603
138 2 0.180699 -1.43414 9.63777 11.9238
159 2 0.178841 0.970065 8.1473 14.1789
160 2 0.106035 0.138194 9.9641 14.5615
161 2 0.157437 1.499 9.21634 15.7945
199 2 0.152928 1.31006 11.2277 16.3549
283 3 -0.859175 2.24193 10.5725 9.0876
222 3 -0.813929 -3.29695 11.118 13.4279
223 3 -0.797974 -3.78722 13.5592 12.8252
319 3 -0.757956 -6.52518 12.5518 11.2685
251 3 -0.843232 -2.71064 11.9531 10.951
217 3 -0.81077 -3.96395 8.86381 9.0733
344 2 0.115313 -1.04263 13.9703 13.9167
133 2 0.179684 -2.3859 7.90015 14.0509
334 2 -0.00600471 -4.32248 12.3939 16.996
254 3 -0.772891 3.07386 8.21955 12.9253
321 2 0.0960578 -5.00403 14.0379 16.6087
345 2 0.142994 -2.277 14.7476 15.289
134 2 0.249171 -3.83301 8.51519 12.8268
318 3 -0.810591 -6.88862 13.9667 9.22452
328 2 0.184005 2.83333 8.24882 16.1038
1 4 1.21957 14.3278 1.47958 3.41899
2 1 -0.668419 12.8655 2.47125 2.70362
3 2 0.163857 12.6239 2.343 1.61445
4 2 0.153929 11.9548 2.27482 3.42788
118 2 0.0598635 6.69505 6.66932 0.824758
11 4 1.32635 11.8113 5.77879 3.58307
46 4 1.08245 8.30754 1.76105 3.32731
49 4 1.26827 10.0096 3.98976 1.86874
50 4 1.37754 6.29224 6.78235 4.02692
51 4 1.06636 8.58441 6.45507 0.716386
52 4 1.01271 10.0932 5.54527 8.4259
54 4 1.27389 9.40686 6.94844 5.34849
257 3 -0.795271 7.17949 1.70452 4.41063
268 3 -0.774571 7.80161 6.86986 4.64345
324 2 0.186044 12.5848 5.02963 0.782106
95 2 -0.0223884 13.6396 2.33476 7.32264
142 2 0.176671 7.33636 3.37882 0.137102
117 2 -0.00908319 10.658 3.09469 0.528471
120 2 0.0260538 10.8913 4.00966 8.08766
131 2 0.191284 12.6034 3.6816 4.69843
269 3 -0.775776 9.65855 6.18395 7.01318
267 3 -0.783561 10.607 6.41889 4.43762
340 2 0.188293 13.3379 3.51951 2.90704
157 2 0.135784 5.73798 6.88183 8.07428
173 2 0.160161 6.59606 5.80457 7.97395
337 2 -0.021387 11.7555 0.830179 2.40334
260 3 -0.808343 9.17341 2.94973 2.79931
261 3 -0.814258 11.2662 4.57566 2.64837
262 3 -0.809195 5.92923 5.54094 3.09148
78 1 -0.674719 8.2016 0.438214 1.95465
264 3 -0.824855 9.06102 5.12206 1.34825
168 2 0.156525 8.83264 3.44053 8.16495
174 2 0.172456 7.69825 4.20766 8.32129
132 2 0.160054 12.2079 4.96892 6.06291
67 1 -0.661486 12.6614 4.75169 5.02077
82 1 -0.667551 6.71315 4.83166 8.56223
263 3 -0.825669 5.21266 6.93578 5.19866
348 2 0.136542 8.94677 0.58805 1.06604
115 2 0.0522555 9.30646 0.344751 3.57272
158 2 0.206885 3.9175 7.40905 8.56041
234 3 -0.796197 6.47301 2.65007 6.98605
336 2 0.0213696 7.08191 0.87457 8.62815
80 1 -0.669071 9.47588 3.27661 9.11787
27 4 1.19132 8.52592 0.871455 13.918
29 4 1.03304 6.84296 2.95223 11.9274
343 2 0.168113 11.3691 6.71604 16.7885
47 4 0.907615 10.0534 3.2471 14.99
48 4 1.08975 11.1987 2.80334 10.4658
55 4 1.24384 11.0418 5.14083 12.6842
73 1 -0.677719 7.8805 4.49663 11.6752
79 1 -0.669211 8.83774 3.93803 16.3824
96 2 0.104554 12.2937 4.66094 15.3199
81 1 -0.66507 11.0724 1.26306 11.5842
165 2 0.145291 7.98578 3.2242 16.5731
273 3 -0.834132 7.86588 7.32652 11.5327
109 2 0.0272875 5.59241 6.20549 13.3033
116 2 0.00901288 10.4828 3.23536 16.7814
331 2 0.173478 5.99503 5.4752 17.0375
121 2 -0.0135505 6.60916 6.6079 9.41166
333 2 -0.018653 13.5834 2.27107 14.7387
147 2 0.147574 7.29383 4.9747 10.8029
148 2 0.237155 9.04003 4.39841 11.5045
149 2 0.194633 7.56601 4.99327 12.6511
164 2 0.166461 8.72025 4.87024 16.965
265 3 -0.87398 10.944 6.39049 9.39392
166 2 0.0745326 8.47699 4.36286 14.7703
167 2 0.109752 9.60811 2.00478 9.25847
266 3 -0.89037 5.29057 7.21543 11.6452
169 2 0.139152 8.84575 3.80053 10.0236
119 2 0.0120995 8.56068 5.37138 9.21105
175 2 0.139201 6.18308 4.65592 9.57678
172 2 0.219614 10.9487 1.70809 12.6661
144 2 0.148561 7.00225 2.58833 9.70554
229 3 -0.794018 7.71676 1.86518 12.9698
258 3 -0.836315 9.75394 1.75187 14.5922
259 3 -0.831601 12.5805 2.58172 9.65529
323 1 -0.694959 11.3481 5.69949 17.2593
270 3 -0.787846 11.3776 4.3606 14.0643
271 3 -0.832267 10.9211 4.04052 11.5069
274 3 -0.855654 9.79431 6.12681 12.9182
325 2 0.158699 10.4621 5.04152 16.922
332 2 0.0814179 7.54889 6.91174 16.3411
329 1 -0.652558 6.19279 6.6622 16.8911
330 2 0.161671 5.36491 6.93942 16.1448
129 2 0.158712 13.6561 1.55775 12.2627
347 2 0.181779 4.43352 7.70862 17.0546
8 4 0.977935 13.9483 2.47205 8.95247
171 2 0.171823 10.0448 0.898571 11.2507
56 4 1.46992 9.31995 7.52942 12.3407
105 2 -0.0126945 7.22039 0.603017 15.0526
94 2 0.0955511 14.6165 0.919461 9.16423
170 2 0.170675 11.9472 0.563688 11.4983
45 4 1.22932 5.18471 13.5966 3.15152
57 4 0.919057 9.97166 9.25394 1.23129
58 4 1.4837 3.28278 11.5437 4.4011
59 4 0.939256 6.37145 11.54 1.11301
62 4 1.16989 5.33581 11.1494 6.4754
126 2 0.0282008 2.77055 13.1599 8.50259
83 1 -0.69045 6.16689 8.50484 3.02314
84 1 -0.667067 9.71772 8.69061 5.59081
85 1 -0.689935 8.29984 9.16152 8.02285
87 1 -0.657696 6.86106 10.6123 5.48239
88 1 -0.690446 5.59383 13.0693 6.84513
76 1 -0.697485 4.78491 7.56722 7.81404
18 4 0.975286 9.8464 11.427 3.38683
123 2 -0.0204958 8.04081 12.044 1.08653
184 2 0.200728 8.90151 8.57369 8.8101
125 2 -0.000994206 6.58342 10.1017 2.02818
5 3 -0.791594 6.36065 14.1109 4.0654
156 2 0.243265 5.11557 8.63324 7.74021
176 2 0.168294 5.82786 8.1355 2.0338
177 2 0.166935 7.29991 8.78727 3.1432
178 2 0.198825 5.44333 9.17806 3.61679
179 2 0.223935 10.4381 8.92698 4.77127
180 2 0.220359 10.1686 8.83269 6.62441
181 2 0.177802 8.64983 9.24812 5.45131
182 2 0.168682 8.91088 10.0025 7.46273
183 2 0.162285 7.78057 8.40278 7.26036
187 2 0.156955 6.63594 9.83744 4.50868
188 2 0.158715 7.44778 10.0527 6.45634
189 2 0.160301 7.08266 11.7798 5.25386
190 2 0.194552 6.3774 13.1892 7.61101
191 2 0.153638 4.58226 13.405 7.21247
275 3 -0.827284 9.26351 7.84646 1.01703
277 3 -0.830111 3.31125 10.5841 3.08818
278 3 -0.825681 4.00089 13.0115 4.08787
350 2 0.247281 5.93669 13.5509 5.81927
280 3 -0.823825 5.6089 12.5938 2.02213
285 3 -0.837083 4.01643 10.8137 5.70499
286 3 -0.783893 5.57789 10.4788 7.88686
349 2 0.037804 8.24354 12.1447 3.32363
276 3 -0.823552 9.95032 9.98863 2.59964
201 2 0.170474 4.76813 12.8988 8.64668
110 2 0.0588434 3.47076 8.94756 7.2558
198 2 0.185177 3.23173 11.4614 0.203512
185 2 0.130062 9.43255 12.4434 1.04815
163 2 0.157981 1.25671 13.5746 2.42406
43 4 1.2542 2.71161 9.71417 13.8103
44 4 1.17633 1.33776 12.3384 12.5525
284 3 -0.79624 1.23534 12.6535 10.9318
326 1 -0.652303 3.41539 8.28568 17.1136
60 4 1.26015 7.06044 10.169 9.01365
61 4 1.03482 2.51611 11.9392 9.74537
63 4 1.0139 8.13203 9.81922 14.2341
64 4 0.985724 3.8333 11.9182 15.8725
65 4 0.933626 8.15102 12.7603 12.964
89 1 -0.652517 6.54981 9.34264 15.1946
90 1 -0.661508 4.34149 13.2909 14.6145
91 1 -0.630957 2.10555 11.9865 16.6619
92 1 -0.646216 4.1849 12.7392 9.80291
93 1 -0.65866 6.47164 13.0599 12.3537
288 3 -0.718142 3.75911 10.1931 14.9248
290 3 -0.803141 8.16525 11.3274 13.6813
327 2 0.187175 3.55132 9.35515 17.5616
192 2 0.182074 6.36531 8.35218 15.7908
193 2 0.170212 6.03337 9.22057 13.9799
194 2 0.212817 6.04902 10.1791 15.7164
195 2 0.231088 3.77613 14.3076 14.6435
196 2 0.220594 4.1941 12.8151 13.6437
197 2 0.145084 5.45336 13.415 14.8849
53 4 1.30313 6.5391 7.63259 10.8149
316 4 1.25988 8.96903 12.4981 9.64691
200 2 0.110602 1.90352 13.0714 16.0465
202 2 0.167304 4.58201 11.7445 10.544
203 2 0.162111 4.20769 13.7929 10.5131
204 2 0.18733 5.75178 12.2099 12.6721
205 2 0.204193 6.69858 13.1482 11.1625
206 2 0.134064 6.19051 14.0555 12.8222
14 4 1.55906 11.413 7.65434 10.1563
255 3 -0.810728 2.28848 11.0671 12.9292
256 3 -0.827725 1.77422 13.6963 13.2695
272 3 -0.857297 10.3287 8.17917 11.2193
289 3 -0.785686 4.87582 11.9549 17.309
281 3 -0.819393 6.61048 9.06339 10.1759
282 3 -0.841732 7.76989 11.5331 9.35869
339 2 -0.00160022 8.14896 9.96712 16.0048
287 3 -0.774735 9.15843 8.62803 13.7621
124 2 -0.0762286 8.45823 10.918 17.6108
ITEM: TIMESTEP
200
ITEM: NUMBER OF ATOMS
350
ITEM: BOX BOUNDS xy xz yz pp pp pp
-8.0552999999999990e+00 1.5678200000000000e+01 -7.0408999999999997e+00
0.0000000000000000e+00 1.4831687200000001e+01 -1.0144000000000000e+00
0.0000000000000000e+00 1.7638300000000001e+01 6.1228720000000081e-01
ITEM: ATOMS id type q x y z
233 3 -0.849416 4.39134 2.88252 8.75808
9 4 1.53513 0.407684 2.66725 5.80236
13 4 1.45761 -0.19211 4.79611 7.98105
300 1 -0.652818 1.50577 3.522 1.34897
23 4 1.39078 3.2251 2.70773 4.29345
26 4 1.54146 5.89687 1.70363 5.58295
30 4 1.27128 4.64348 4.73538 2.40662
15 4 1.34569 -1.37242 7.30773 6.75779
32 4 1.33294 3.11916 7.03276 0.744701
33 4 1.34831 5.25132 3.79916 7.6201
346 2 0.133303 5.81155 2.09791 0.482676
70 1 -0.64624 2.93605 1.22337 3.07869
74 1 -0.688912 0.990175 6.12919 3.75804
97 2 0.0112073 -2.56843 6.73319 5.68111
235 3 -0.785958 1.44586 5.37728 8.59532
304 3 -0.799856 -0.399698 1.31373 2.24318
140 2 0.150555 3.06172 1.61781 1.93235
141 2 0.198566 1.85646 0.91881 3.35722
150 2 0.215583 1.36113 6.49759 2.79724
151 2 0.159365 -0.133754 5.90718 3.74824
152 2 0.214465 1.52834 5.25793 4.17425
108 2 -0.0119014 5.40437 3.50048 1.51113
207 3 -0.824654 -0.823588 2.34625 4.6434
208 3 -0.826448 0.430447 1.27902 6.8103
212 3 -0.892995 0.0508409 3.89795 6.68882
213 3 -0.835362 -1.23804 6.00275 7.75107
224 3 -0.84618 1.91061 2.76945 5.2173
225 3 -0.851126 2.31155 1.2546 8.47175
226 3 -0.836043 4.48344 2.09923 5.01321
301 2 0.175306 2.56089 2.93102 1.33789
230 3 -0.843415 3.57249 3.97789 3.25046
232 3 -0.81945 3.89849 5.79839 1.49186
302 2 0.185249 1.13822 3.72186 2.43411
234 3 -0.825369 6.1348 2.83481 6.63778
303 2 0.232495 1.5015 4.44731 0.693695
237 3 -0.817766 2.7641 6.92664 5.92382
238 3 -0.800408 4.49179 4.97509 6.81479
342 2 0.173982 -1.8662 5.21141 4.88559
139 2 0.169635 3.75424 0.464717 3.36285
299 4 1.23518 0.306995 2.30563 0.742305
314 3 -0.819947 -2.95841 7.13438 2.92771
7 4 1.45527 1.21468 0.323821 7.76494