ITEM: TIMESTEP
0
ITEM: NUMBER OF ATOMS
350
ITEM: BOX BOUNDS xy xz yz pp pp pp
-8.0552999999999990e+00 1.5678200000000000e+01 -7.0408999999999997e+00
0.0000000000000000e+00 1.4894400000000001e+01 -1.0144000000000000e+00
0.0000000000000000e+00 1.7638300000000001e+01 6.7500000000000004e-01
ITEM: ATOMS id type q x y z
233 3 -0.855509 4.44016 3.11041 8.7936
9 4 1.4419 0.269441 2.46959 5.91689
13 4 1.45072 -0.304538 4.85566 8.05069
300 1 -0.658898 0.928046 3.82829 1.54868
23 4 1.39184 3.28509 2.74319 4.29588
26 4 1.43429 5.91644 1.65448 5.56701
30 4 1.29444 4.72594 4.78825 2.55381
15 4 1.36044 -1.55541 7.22022 6.70947
32 4 1.30332 3.21932 6.84279 0.759183
33 4 1.35376 5.20688 3.81139 7.5193
346 2 0.137595 6.0081 2.25704 0.82653
70 1 -0.639514 2.85992 1.68647 2.647
74 1 -0.667733 1.04671 5.54952 4.02286
97 2 0.0244411 -2.66056 6.42783 5.7261
31 4 1.32117 1.13123 7.0931 5.12532
304 3 -0.783473 -0.402392 1.34212 2.21788
140 2 0.180752 3.22919 2.30537 1.78561
141 2 0.22572 1.78684 1.43423 2.68057
150 2 0.202606 1.39269 5.70472 2.90681
151 2 0.174234 -0.0748982 5.21531 4.15801
152 2 0.247672 1.71365 4.85187 4.64839
108 2 0.00293479 5.42759 3.50826 1.52784
207 3 -0.812772 -0.883767 2.52248 4.67224
208 3 -0.867104 0.169062 1.11119 6.73371
212 3 -0.854709 -0.0529891 3.91575 6.74683
213 3 -0.842575 -1.37082 6.05989 7.81117
224 3 -0.824066 1.92983 2.64577 5.12646
225 3 -0.862626 2.3008 1.39751 8.3109
226 3 -0.856504 4.56589 1.99809 4.75264
301 2 0.221819 1.97581 4.08668 1.14635
230 3 -0.857815 3.65604 4.10121 3.50539
232 3 -0.852008 4.08031 5.68963 1.43751
302 2 0.201122 0.964553 3.45714 2.64056
35 4 1.41034 4.06737 6.42299 6.24489
303 2 0.201634 0.204901 4.69521 1.40232
237 3 -0.84214 2.54944 6.74131 6.01174
238 3 -0.87778 4.48286 4.96586 6.70078
342 2 0.191091 -1.72916 5.03456 5.0312
139 2 0.16098 3.58719 0.775183 2.96232
299 4 1.19413 0.12983 2.37472 0.757111
314 3 -0.798128 -2.79298 7.16789 3.3329
231 3 -0.879105 -0.193038 7.21033 5.94041
234 3 -0.857358 6.08077 2.75037 6.67337
336 2 -0.00581209 6.8745 0.924175 8.46241
7 4 1.43525 1.26937 0.332036 7.67194
6 4 1.10839 1.40984 1.60659 16.4184
10 4 0.998808 -0.481387 2.41765 14.059
12 4 1.02169 -2.67958 5.04387 16.6768
297 2 0.209088 3.01583 3.17622 12.1598
16 4 1.28746 0.24343 5.46948 13.8087
338 2 0.106464 -3.34549 6.10193 11.9487
295 2 0.180465 1.75327 1.82091 12.3731
28 4 0.994885 4.05374 3.61761 16.039
34 4 1.53404 1.30624 6.92277 9.59523
291 4 0.871947 4.18485 0.807985 13.0151
37 4 1.21686 -0.145606 6.9095 16.2817
66 1 -0.682016 -0.859247 1.95941 12.2227
17 4 1.3055 -0.980815 7.34087 11.6239
106 2 0.045208 4.13222 4.83288 17.3758
305 3 -0.771713 0.314732 2.2778 17.4899
98 2 0.130543 1.75046 5.4782 12.9394
104 2 -0.0106256 2.9314 2.27339 10.7265
38 4 1.49932 3.68408 7.38816 11.8355
210 3 -0.791265 -2.19981 3.69873 17.4326
128 2 0.224848 -0.677736 2.81337 11.6417
296 2 0.0335397 4.8192 1.42784 11.4738
130 2 0.176785 -0.391112 1.04773 11.7392
298 2 0.164676 5.88335 1.78433 14.5256
143 2 0.0610105 5.77343 2.65382 16.2173
145 2 0.183581 5.32563 1.11115 9.93804
292 1 -0.652883 2.79832 2.21985 12.7278
209 3 -0.758491 0.521662 1.13704 14.7275
294 2 0.227358 2.72162 2.37249 13.8767
72 1 -0.658235 6.27795 1.61374 10.2821
214 3 -0.830229 -0.0191144 3.91937 13.8888
25 4 1.00883 3.00226 2.57916 9.07664
216 3 -0.860645 -0.744674 6.37633 12.9338
228 3 -0.784648 2.78828 2.4808 16.2011
236 3 -0.844744 0.0933924 6.88223 10.5766
239 3 -0.832527 4.30366 4.28789 14.6441
211 3 -0.81946 -0.78443 3.81567 9.16321
241 3 -0.842928 0.652584 6.0442 15.2102
243 3 -0.812627 -1.58176 6.23843 16.6288
244 3 -0.812965 2.85588 7.29969 10.4528
245 3 -0.792987 3.30871 5.52029 12.4849
215 3 -0.792948 -2.88454 7.31305 11.0499
107 2 0.108646 1.94863 3.91046 9.09969
36 4 1.24513 4.6159 4.88399 13.1963
242 3 -0.795742 0.78461 7.03488 17.5845
328 2 0.176032 2.71099 7.64554 15.9972
345 2 0.170791 4.61597 0.744665 15.453
293 1 -0.686241 5.30794 0.83625 14.5956
235 3 -0.787552 1.45233 5.45445 8.90796
240 3 -0.82543 5.43746 3.82328 12.3413
307 4 0.557833 -2.0616 10.6757 0.256653
19 4 1.5266 -3.02476 9.60466 8.00429
20 4 1.26115 -4.29304 12.2203 6.26354
24 4 1.20915 -0.769691 13.7486 7.65198
39 4 1.33457 2.28957 9.29382 2.73128
40 4 1.35364 1.90206 9.44855 8.07449
42 4 1.26852 0.655911 11.5705 6.20293
75 1 -0.653927 1.13188 10.1294 1.4022
315 3 -0.765177 -2.46347 9.57015 1.29384
99 2 0.070726 -4.62991 12.6876 2.42419
100 2 0.0444962 -2.88404 12.933 5.66745
111 2 0.00492945 -0.955077 11.228 5.49005
153 2 0.162843 1.23977 11.2562 1.61609
154 2 0.143789 0.163021 9.57926 1.8091
155 2 0.164565 1.51584 9.75447 0.392921
250 3 -0.836128 -1.78226 12.9055 8.62381
227 3 -0.813587 -1.40306 14.1949 6.31407
218 3 -0.886584 -2.28345 8.59568 7.03596
219 3 -0.79519 -5.13355 11.6289 4.89339
220 3 -0.79293 -3.86837 10.8978 7.17186
221 3 -0.881166 -5.10365 13.2342 7.04338
309 2 0.0723175 -0.506753 8.33584 3.28395
246 3 -0.776047 1.45402 8.46523 3.95606
247 3 -0.790402 2.99356 8.20084 1.71998
253 3 -0.847452 0.476743 12.7068 7.30253
335 2 -0.0163345 -0.380351 11.0432 0.416698
252 3 -0.824417 0.986361 10.2958 6.94238
86 1 -0.657297 -6.12122 12.7219 1.985
186 2 0.241011 -6.60225 13.7713 1.85516
306 4 0.895408 -2.20329 8.53732 3.00003
158 2 0.174055 3.72516 7.43826 8.35676
308 1 -0.673258 -1.39811 9.76842 4.28599
310 2 -0.00138857 -2.37365 12.337 0.689344
311 2 0.148897 -0.981327 10.6729 3.82579
312 2 0.23262 -0.896776 9.53413 5.27181
313 2 0.117827 -2.7361 9.76986 4.41696
322 2 0.175369 -4.66324 13.2089 0.683936
248 3 -0.836108 1.09405 8.24682 8.63707
163 2 0.17052 0.804459 13.5629 2.39974
122 2 0.0593776 -4.01597 9.07794 1.19348
341 2 0.165936 -3.01077 14.0651 0.11198
21 4 0.709246 -2.6858 10.0747 14.5324
22 4 1.26404 -3.5661 12.0554 12.2642
41 4 1.30127 -1.74559 11.7394 9.70008
68 1 -0.664019 -3.37646 8.3694 14.2622
69 1 -0.701968 -0.642198 9.10871 12.0609
77 1 -0.690138 1.17136 9.31482 14.7122
101 2 -0.0575969 -0.974511 10.17 14.5491
102 2 -0.100953 -2.92906 10.7421 16.2038
103 2 0.112051 -5.2539 11.8831 11.8362
112 2 -0.0394343 -0.258075 8.56547 15.7978
113 2 0.0872413 -0.168525 11.7936 10.4772
114 2 -0.0582806 -0.104406 12.0992 13.4685
127 2 0.0876224 -6.93127 14.0148 13.9493
249 3 -0.794708 -1.85573 10.348 8.97328
135 2 0.154475 -4.10487 8.13188 15.0997
136 2 0.194716 0.0364973 9.45632 11.1224
137 2 0.161915 -0.0949209 9.19793 13.0995
138 2 0.200662 -1.62429 9.6575 12.0241
159 2 0.154662 0.796635 8.35756 14.3004
160 2 0.114616 0.373141 10.1923 14.6312
161 2 0.161902 1.58474 9.22012 15.7452
199 2 0.138258 1.16016 11.4177 16.3308
317 2 0.0337173 -5.35472 11.7825 9.16539
222 3 -0.81744 -3.12791 11.0186 13.3912
223 3 -0.81413 -3.42273 13.5792 12.7151
319 3 -0.770023 -6.5492 12.6446 11.2502
251 3 -0.849693 -2.79152 11.8692 10.9258
217 3 -0.830287 -4.05117 8.96237 9.1125
344 2 0.117362 -1.12848 14.0759 14.2707
133 2 0.136707 -2.26434 7.85002 14.3445
334 2 0.00225013 -4.21183 12.3442 16.9309
320 1 -0.651352 -4.83885 14.0111 17.5092
321 2 0.123951 -5.22425 14.0237 16.4158
284 3 -0.801087 1.13019 12.4861 11.0567
134 2 0.231343 -3.80254 8.36575 13.2159
318 3 -0.78472 -6.91424 14.0494 9.18199
14 4 1.53794 -4.24086 7.77955 10.1875
1 4 1.19305 14.3021 1.51522 3.52245
2 1 -0.686343 12.8329 2.32181 2.65184
3 2 0.166204 12.6763 1.96972 1.5668
4 2 0.151219 11.9297 2.15832 3.2946
118 2 0.0597663 6.72368 6.75951 0.687121
11 4 1.27633 11.7516 5.64418 3.74422
46 4 1.02551 8.37474 1.50422 3.30568
49 4 1.2594 10.0119 4.08384 1.95331
50 4 1.35992 6.30809 6.76398 4.22924
51 4 1.00023 8.61409 6.52915 0.59162
52 4 1.04109 10.0077 5.67471 8.4522
54 4 1.37735 9.32134 6.75612 5.52965
257 3 -0.789369 7.28684 1.57907 4.38726
268 3 -0.816903 7.813 6.71079 5.03646
324 2 0.202022 12.6644 5.09957 0.782636
95 2 -0.0102653 13.5693 2.37146 7.33401
142 2 0.180319 7.365 3.38618 0.234345
117 2 0.0145867 10.6463 3.22255 0.610213
120 2 0.0622012 11.0228 4.09874 8.3358
131 2 0.206917 12.7276 3.59945 4.52784
269 3 -0.83323 9.66677 6.22197 7.01794
267 3 -0.80575 10.4934 6.10943 4.61718
340 2 0.216062 13.1671 3.40149 2.65159
157 2 0.143983 5.5852 6.93234 8.12862
173 2 0.163815 6.53477 5.95963 7.84527
337 2 -0.0156924 11.7677 0.608695 2.39402
260 3 -0.779909 9.21482 2.91726 2.71138
261 3 -0.842292 11.3746 4.62498 2.62534
262 3 -0.819753 5.98466 5.58485 3.2405
78 1 -0.685387 8.24452 0.253922 1.89298
264 3 -0.810343 9.06064 5.23756 1.43362
168 2 0.153171 8.83054 3.38118 7.92124
174 2 0.173743 7.62863 4.26891 8.12661
132 2 0.155738 12.1575 4.8115 5.81163
67 1 -0.669573 12.8699 4.65776 4.89368
82 1 -0.674688 6.78059 4.9679 8.42477
263 3 -0.816821 5.04661 7.15581 5.17077
162 2 0.136978 7.39135 0.911503 1.32208
348 2 0.155485 9.00445 0.0514067 1.12142
146 2 0.160172 7.06669 0.886606 10.4082
27 4 1.13366 8.47931 0.918196 13.768
29 4 1.07876 6.79345 2.95961 11.8599
343 2 0.157563 11.2812 6.85231 16.861
47 4 0.908894 10.0752 3.19056 14.8151
48 4 1.03177 11.1453 2.50639 10.4708
55 4 1.21736 11.1063 5.06066 12.5121
73 1 -0.689792 7.9224 4.38347 11.3717
79 1 -0.657144 9.043 3.84779 16.3603
96 2 0.0855324 12.2791 4.65947 15.1296
81 1 -0.650037 11.0981 1.03583 11.7424
165 2 0.153716 8.21569 3.13471 16.6058
273 3 -0.831593 7.76386 7.34863 11.9254
109 2 0.0158335 5.61896 6.14602 13.4734
116 2 0.0352228 10.6424 3.09652 16.6287
331 2 0.16345 5.86026 5.45186 17.1685
121 2 -0.0293652 6.52817 6.44205 9.71501
333 2 -0.0109038 13.7853 2.40471 14.9769
147 2 0.13873 7.6096 4.84071 10.3698
148 2 0.240407 9.02997 4.16682 11.3874
149 2 0.206139 7.54274 5.10534 12.2695
164 2 0.145135 8.92655 4.84523 16.9427
265 3 -0.869388 10.9114 6.50746 9.35614
166 2 0.061653 8.53936 4.25513 14.7057
167 2 0.0883189 9.75775 2.14775 9.1799
266 3 -0.898499 5.17841 7.41743 11.6639
169 2 0.148424 8.8282 3.76548 9.69775
119 2 -0.000382859 8.48523 5.38258 9.19623
175 2 0.148952 6.20046 4.77757 9.39142
172 2 0.236123 10.9737 1.66228 12.7346
144 2 0.165787 6.64646 2.5015 9.64204
229 3 -0.840993 7.61459 1.94175 12.75
258 3 -0.822873 9.73384 1.70255 14.5225
259 3 -0.822686 12.529 2.56712 9.69341
323 1 -0.678578 11.4309 5.8043 17.2839
270 3 -0.769568 11.477 4.20997 13.8368
271 3 -0.794876 10.8879 3.79937 11.5143
274 3 -0.856685 9.8219 5.9871 12.8099
325 2 0.142079 10.5218 5.03974 16.9284
332 2 0.0627537 7.70962 6.761 16.4359
329 1 -0.638873 6.20482 6.62983 16.8237
330 2 0.160075 5.59956 7.08768 15.9716
129 2 0.138048 13.6559 1.76302 12.4554
347 2 0.184054 4.381 7.49083 17.005
8 4 0.979218 13.8956 2.57762 8.92805
171 2 0.163515 10.1767 0.58048 11.3089
56 4 1.46964 9.32051 7.47592 12.3816
105 2 -0.0174146 7.24178 0.607971 14.9985
80 1 -0.669591 9.46859 3.33089 8.87351
94 2 0.0965334 14.6967 1.10329 9.21777
71 1 -0.651614 5.40095 3.58332 17.5815
45 4 1.21775 5.28678 13.5035 3.26468
57 4 0.895843 10.0256 9.31659 1.32169
58 4 1.507 3.14735 11.615 4.53383
59 4 0.969557 6.41148 11.5061 1.15504
62 4 1.16622 5.39029 11.2294 6.43841
126 2 0.0382576 2.44478 13.159 8.3803
83 1 -0.675414 6.22115 8.36383 3.02177
84 1 -0.668531 9.81237 8.54117 5.35351
85 1 -0.693942 8.34336 9.22466 8.0626
87 1 -0.648043 6.8499 10.4406 5.44943
88 1 -0.688611 5.61757 13.1354 6.80199
76 1 -0.667206 4.72115 7.5874 7.75584
18 4 1.00204 9.83518 11.3716 3.4618
123 2 -0.0253571 8.10483 11.8185 1.07231
185 2 0.122601 9.55474 12.1774 1.0173
125 2 0.00983403 6.48054 9.96185 1.89742
5 3 -0.7903 6.52979 14.0012 4.16272
156 2 0.251862 5.04538 8.71902 7.79123
176 2 0.179778 5.86691 7.91594 1.99956
177 2 0.171257 7.28328 8.77189 2.99175
178 2 0.225527 5.40865 8.96604 3.48662
179 2 0.22087 10.5405 8.59581 4.51387
180 2 0.208338 10.2492 8.90865 6.30579
181 2 0.196895 8.83831 8.99354 5.15453
182 2 0.18573 9.03194 10.0835 7.71938
183 2 0.169526 7.86292 8.59269 7.26388
187 2 0.176937 6.68751 9.63919 4.55576
188 2 0.176764 7.50603 9.9834 6.39794
189 2 0.158904 7.16276 11.4813 5.06726
190 2 0.200112 6.37997 13.2649 7.63041
191 2 0.150416 4.58203 13.5623 7.01551
275 3 -0.815999 9.21269 8.03055 0.860639
277 3 -0.802415 3.16395 10.4552 3.24003
278 3 -0.821357 3.94602 13.0369 4.00876
350 2 0.254054 6.10115 13.527 5.74033
280 3 -0.82758 5.84332 12.4675 2.18923
285 3 -0.853558 4.00081 10.995 5.6647
286 3 -0.765138 5.62552 10.4267 7.82248
349 2 0.0721741 8.22592 12.2932 3.13472
276 3 -0.838342 9.69364 10.007 2.70895
201 2 0.175099 4.6202 13.0101 8.50215
110 2 0.0429355 3.32838 8.87006 7.25639
279 3 -0.831051 1.66771 12.1082 4.8521
115 2 0.0825031 2.34879 14.315 3.49107
43 4 1.35247 2.77995 9.79285 13.6509
44 4 1.2025 1.39332 12.3501 12.6766
254 3 -0.86135 3.17111 8.51908 12.8139
326 1 -0.653988 3.32441 8.00977 16.961
60 4 1.23129 7.00822 10.0845 9.08998
61 4 1.04469 2.36937 11.9974 9.67091
63 4 1.01623 8.13909 9.80679 14.28
64 4 1.03245 3.80251 11.8543 15.9966
65 4 0.938843 8.11264 12.7968 12.8881
89 1 -0.652778 6.47293 9.34623 15.1427
90 1 -0.64717 4.42671 13.2892 14.8925
91 1 -0.659672 1.98465 12.2449 16.4226
92 1 -0.681137 3.97839 12.8315 9.56069
93 1 -0.670868 6.42542 13.1866 12.2766
288 3 -0.754064 3.77281 10.3776 14.8473
290 3 -0.782652 8.20348 11.4026 13.6556
327 2 0.183612 3.41174 9.16918 17.0082
192 2 0.167356 6.4608 8.35161 15.8336
193 2 0.201517 6.06093 9.1665 14.0681
194 2 0.195899 5.93244 10.2754 15.6173
195 2 0.256283 3.73476 14.1596 14.8114
196 2 0.206414 4.61275 12.6582 13.9747
197 2 0.147014 5.37998 13.5765 15.4732
184 2 0.173969 8.84586 8.60081 8.96047
316 4 1.23678 8.90246 12.5261 9.67598
200 2 0.154046 1.86026 13.0453 15.6205
202 2 0.182176 4.585 11.8117 10.0966
203 2 0.158866 4.04252 13.7551 10.2866
204 2 0.190842 5.86392 12.2069 12.4004
205 2 0.187324 6.52851 13.4995 11.1311
206 2 0.128664 6.18135 14.0506 13.0174
170 2 0.185842 4.94202 14.4862 11.8726
255 3 -0.82528 2.20844 11.0211 12.7972
256 3 -0.820588 2.00006 13.673 13.3239
272 3 -0.85473 10.3397 8.21377 11.3563
289 3 -0.805255 4.73287 12.0476 17.399
281 3 -0.825983 6.61997 9.12098 10.3089
282 3 -0.811348 7.67705 11.587 9.3017
339 2 -0.00197185 8.21233 9.74633 16.0044
287 3 -0.768474 8.9662 8.62498 13.7044
53 4 1.27444 6.54504 7.63961 10.9549
198 2 0.174834 1.87434 12.741 17.4053
283 3 -0.848229 2.29754 10.5737 9.06255
124 2 -0.0726446 9.09639 11.0445 17.626
ITEM: TIMESTEP
100
ITEM: NUMBER OF ATOMS
350
ITEM: BOX BOUNDS xy xz yz pp pp pp
-8.0905766000000003e+00 1.5678200000000000e+01 -7.0761766000000001e+00
0.0000000000000000e+00 1.4894400000000001e+01 -1.0144000000000000e+00
0.0000000000000000e+00 1.7638300000000001e+01 6.7500000000000004e-01
ITEM: ATOMS id type q x y z
233 3 -0.86899 4.38943 3.01223 8.62436
9 4 1.48329 0.272913 2.57543 5.87622
13 4 1.38512 -0.203802 4.8422 8.10188
300 1 -0.657103 1.24593 3.74177 1.50527
23 4 1.31842 3.2355 2.66973 4.19527
26 4 1.40278 5.92722 1.59623 5.61902
30 4 1.27101 4.59275 4.76477 2.50594
15 4 1.31828 -1.44632 7.20218 6.85073
32 4 1.35321 3.10322 6.935 0.740378
33 4 1.35894 5.33477 3.67024 7.57975
346 2 0.142868 6.00677 2.21057 0.693484
70 1 -0.681899 2.87256 1.31251 2.85821
74 1 -0.672951 0.853003 5.8166 3.95286
97 2 0.0131765 -2.57533 6.51028 5.7885
235 3 -0.773998 1.48349 5.38403 8.57458
304 3 -0.797467 -0.375525 1.26833 2.20115
140 2 0.172159 2.95352 1.85531 1.86948
141 2 0.20986 1.86428 0.899728 3.09954
150 2 0.23054 1.50989 5.77518 3.08487
151 2 0.152753 -0.286119 5.96255 3.67962
152 2 0.255934 1.08952 4.94792 4.71401
108 2 -0.00204053 5.30536 3.3971 1.5689
207 3 -0.821917 -0.683254 2.37993 4.5984
208 3 -0.851096 0.306707 1.10238 6.79833
212 3 -0.852412 -0.0773139 4.01705 6.66366
213 3 -0.833674 -1.24148 6.11985 8.09157
224 3 -0.769794 1.71872 2.80881 5.10984
225 3 -0.881345 2.26938 1.4483 8.37393
226 3 -0.833643 4.51344 2.17398 4.93533
301 2 0.20471 2.32014 3.77231 1.19724
230 3 -0.816925 3.57229 4.16164 3.55332
232 3 -0.83898 3.90914 5.70903 1.43369
302 2 0.195232 1.03572 3.37616 2.67647
35 4 1.37783 4.16477 6.51468 6.30457
303 2 0.225898 0.626139 4.65188 1.1635
237 3 -0.800861 2.69134 7.00151 5.93444
238 3 -0.773217 4.47395 4.86751 6.81286
342 2 0.152186 -1.91661 5.1408 4.84831
139 2 0.152735 3.80761 0.598482 3.08446
299 4 1.19607 0.367874 2.31132 0.721894
314 3 -0.842431 -3.00494 7.10479 3.03231
7 4 1.47255 1.27785 0.393369 7.7706
162 2 0.134751 7.10233 0.685785 1.6573
242 3 -0.837932 1.74126 6.39616 0.0294057
6 4 1.11461 1.47958 1.53595 16.3827
10 4 1.02855 -0.598284 2.39005 13.9987
12 4 1.02627 -2.58725 5.0854 16.8315
297 2 0.230502 3.2265 3.00715 12.4853
16 4 1.26877 0.237586 5.49026 13.7338
338 2 0.108073 -3.36107 6.14377 12.1553
295 2 0.190199 1.85672 1.70462 12.1462
28 4 1.04346 4.01829 3.48359 16.0388
34 4 1.49193 1.44237 6.88649 9.6034
291 4 0.862771 4.13941 0.630106 12.8608
37 4 1.26387 -0.131826 6.87361 16.38
66 1 -0.701928 -1.02188 1.89532 12.2043
17 4 1.27719 -1.04084 7.20559 11.6848
106 2 0.0775734 4.14753 4.87677 17.4306
305 3 -0.786308 0.394419 2.11044 17.4024
98 2 0.112344 1.73233 5.59897 12.9283
104 2 -0.0212524 2.91909 2.34039 10.7677
38 4 1.35632 3.65067 7.0975 11.7192
210 3 -0.804152 -1.913 3.81991 17.5861
128 2 0.222946 -0.982121 2.86739 11.5642
296 2 0.00787764 4.89154 0.976484 11.2816
130 2 0.180343 -0.266359 1.15569 11.9718
298 2 0.182655 5.96619 1.72026 14.3627
143 2 0.0249093 5.52037 2.45493 16.1583
145 2 0.202504 5.36436 1.58675 9.92864
292 1 -0.655643 2.69878 2.0281 12.7315
209 3 -0.758661 0.447397 1.30909 14.6982
294 2 0.214172 2.53871 2.01099 13.8727
72 1 -0.661616 6.40523 1.6831 10.2949
214 3 -0.807001 -0.194443 3.94407 13.8522
25 4 1.04436 2.98467 2.58964 9.10573
216 3 -0.842652 -0.911304 6.41723 13.1122
228 3 -0.811165 2.78951 2.6053 16.3648
236 3 -0.82877 0.227731 6.78604 10.7632
239 3 -0.811925 4.22608 4.36309 14.7331
211 3 -0.80053 -0.674134 3.59198 9.31764
241 3 -0.825528 0.642552 6.16114 15.155
243 3 -0.833786 -1.6221 6.34594 16.6022
244 3 -0.871339 2.84056 7.17001 10.2873
245 3 -0.799482 3.26165 5.28433 12.3622
215 3 -0.790487 -2.88193 7.26442 11.0675
107 2 0.112668 1.99673 3.93109 9.03394
36 4 1.14948 4.56479 4.9211 13.2174
71 1 -0.65701 5.29607 3.65992 17.5891
240 3 -0.789441 5.4246 3.56586 12.4251
293 1 -0.670187 5.38735 0.725089 14.3726
146 2 0.171408 6.96146 0.755555 10.269
307 4 0.559854 -2.05327 10.7091 0.217899
19 4 1.50714 -2.94366 9.60379 7.98288
20 4 1.23121 -4.40064 12.0918 6.28218
24 4 1.188 -0.69865 13.7817 7.68899
39 4 1.33719 2.30013 9.36091 2.67788
40 4 1.37642 1.96398 9.49556 7.99485
42 4 1.22988 0.630773 11.4937 6.15397
75 1 -0.65805 0.821213 10.3376 1.83171
315 3 -0.749859 -2.54266 9.635 1.26088
99 2 0.0966797 -4.71528 12.9591 2.46628
100 2 0.0507838 -3.06709 12.9353 6.03407
111 2 -0.000239693 -0.93588 11.1207 5.60471
153 2 0.160718 1.09684 11.425 1.70761
154 2 0.182734 0.00711946 10.1587 2.67677
155 2 0.153942 0.732286 9.74316 0.90298
250 3 -0.827486 -1.81904 13.0356 8.71829
227 3 -0.812858 -1.36227 14.2959 6.23669
218 3 -0.883826 -2.18258 8.56776 7.08123
219 3 -0.798606 -5.11006 11.6963 4.85626
220 3 -0.809583 -3.91994 10.7055 7.09282
221 3 -0.863215 -5.15325 13.2263 7.11963
309 2 0.0779335 -0.711742 8.47799 3.32513
246 3 -0.78952 1.48155 8.64064 3.9099
247 3 -0.8358 2.74303 8.15011 1.67513
253 3 -0.837105 0.480415 12.8684 7.23886
335 2 -0.0227579 -0.427421 11.1146 0.450241
252 3 -0.812641 1.04559 10.1001 6.87092
86 1 -0.659455 -6.17552 12.8411 2.08715
186 2 0.266351 -6.65643 13.9962 2.19369
306 4 0.920902 -2.45765 8.54611 2.94792
341 2 0.162559 -3.05646 14.1469 0.469697
308 1 -0.655298 -1.54504 9.70366 4.25457
310 2 0.00857499 -2.36366 12.3266 0.846303
311 2 0.14668 -1.26191 10.7016 3.7956
312 2 0.246058 -1.06619 9.42609 5.23769
313 2 0.0954583 -3.19081 9.55681 4.48078
322 2 0.182884 -4.72662 13.2233 0.759752
248 3 -0.798762 1.21834 8.2614 8.67667
320 1 -0.644901 -3.79046 13.3833 0.10375
122 2 0.0690485 -4.05198 9.13435 0.892705
279 3 -0.800018 1.67219 11.7431 4.92171
31 4 1.32918 1.21333 7.33704 5.01219
231 3 -0.833418 -0.124072 7.34263 5.91276
317 2 0.0348826 -5.34723 11.8945 8.81014
21 4 0.70901 -2.89091 10.1298 14.5311
22 4 1.2186 -3.74621 12.0439 12.2478
41 4 1.29158 -1.70117 11.815 9.73726
68 1 -0.643961 -3.39666 8.46847 13.8749
69 1 -0.67782 -0.488657 8.97901 11.9783
77 1 -0.68598 1.11895 9.23745 14.7487
101 2 -0.0593443 -1.19377 10.0578 14.5557
102 2 -0.110865 -3.01446 10.7211 16.2082
103 2 0.112164 -5.37 11.6618 11.8625
112 2 -0.0102592 -0.38523 8.38009 15.6949
113 2 0.072363 -0.147443 11.9958 10.3854
114 2 -0.0541101 -0.196267 11.9769 13.0745
127 2 0.0639932 -6.9455 14.024 13.9785
249 3 -0.809267 -1.81429 10.4866 8.94946
135 2 0.149927 -4.27094 8.27409 14.7547
136 2 0.219623 0.216919 9.07447 11.0741
137 2 0.159645 0.0741446 9.1511 13.0603
138 2 0.180696 -1.43415 9.63778 11.9238
159 2 0.17885 0.970156 8.14725 14.1788
160 2 0.106014 0.138247 9.96407 14.5614
161 2 0.15733 1.49887 9.21629 15.7946
199 2 0.152865 1.30959 11.2281 16.3509
283 3 -0.859175 2.24193 10.5725 9.0876
222 3 -0.813911 -3.29696 11.118 13.4279
223 3 -0.797934 -3.78725 13.5591 12.8252
319 3 -0.757965 -6.5252 12.5518 11.2686
251 3 -0.843238 -2.71064 11.9531 10.951
217 3 -0.810772 -3.96395 8.86381 9.0733
344 2 0.115356 -1.04347 13.9698 13.918
133 2 0.179673 -2.38587 7.90004 14.0508
334 2 -0.00577868 -4.32081 12.3922 16.9931
254 3 -0.772867 3.07387 8.21955 12.9253
321 2 0.0961413 -5.00603 14.0366 16.6074
345 2 0.142911 -2.27913 14.748 15.2884
134 2 0.249175 -3.83305 8.51509 12.8267
318 3 -0.81059 -6.88862 13.9667 9.22452
328 2 0.18403 2.83368 8.24938 16.104
1 4 1.21955 14.3278 1.47959 3.41898
2 1 -0.668416 12.8654 2.47125 2.70362
3 2 0.163858 12.6238 2.34303 1.61447
4 2 0.153932 11.9548 2.27485 3.4279
118 2 0.0599563 6.69403 6.66762 0.824818
11 4 1.32636 11.8113 5.77883 3.5831
46 4 1.08247 8.30771 1.76086 3.32753
49 4 1.2684 10.0097 3.98996 1.8688
50 4 1.3774 6.29204 6.78212 4.02667
51 4 1.06623 8.5839 6.45452 0.716016
52 4 1.01271 10.0932 5.54527 8.4259
54 4 1.27384 9.40686 6.94846 5.3485
257 3 -0.79532 7.17965 1.70433 4.41067
268 3 -0.774475 7.80151 6.86979 4.64332
324 2 0.186011 12.5849 5.02982 0.781939
95 2 -0.0223864 13.6396 2.33475 7.32264
142 2 0.176501 7.33638 3.38325 0.132898
117 2 -0.00906416 10.6579 3.09484 0.528542
120 2 0.0260527 10.8913 4.00966 8.08766
131 2 0.191284 12.6034 3.6816 4.69847
269 3 -0.775765 9.65855 6.18396 7.01317
267 3 -0.783553 10.607 6.41893 4.43763
340 2 0.188293 13.3379 3.5195 2.90703
157 2 0.135787 5.73797 6.88185 8.07432
173 2 0.160165 6.59605 5.80456 7.97395
337 2 -0.0213719 11.7555 0.830177 2.40335
260 3 -0.808269 9.17347 2.9495 2.79941
261 3 -0.814309 11.2663 4.57574 2.64834
262 3 -0.80904 5.92945 5.54043 3.09099
78 1 -0.674711 8.20256 0.437671 1.95499
264 3 -0.824893 9.06114 5.12169 1.34849
168 2 0.156522 8.83265 3.44053 8.16496
174 2 0.172454 7.69824 4.20765 8.3213
132 2 0.160052 12.208 4.96891 6.06301
67 1 -0.66148 12.6614 4.75169 5.02082
82 1 -0.667545 6.71314 4.83165 8.56222
263 3 -0.825637 5.21265 6.9357 5.19858
348 2 0.136577 8.94788 0.587088 1.06648
115 2 0.0522725 9.30759 0.345371 3.57319
158 2 0.206886 3.91747 7.40905 8.56038
234 3 -0.796211 6.47301 2.65005 6.98605
336 2 0.021371 7.08197 0.874601 8.6282
80 1 -0.669064 9.47588 3.27661 9.11787
27 4 1.19132 8.5259 0.871443 13.918
29 4 1.033 6.84295 2.95224 11.9274
343 2 0.168108 11.3691 6.71617 16.7884
47 4 0.907626 10.0534 3.24708 14.99
48 4 1.08976 11.1987 2.80334 10.4658
55 4 1.24385 11.0417 5.14085 12.6842
73 1 -0.677715 7.8805 4.49663 11.6752
79 1 -0.669212 8.83775 3.93805 16.3823
96 2 0.104558 12.2937 4.66097 15.3199
81 1 -0.665131 11.0727 1.26313 11.5843
165 2 0.145264 7.98574 3.2242 16.5729
273 3 -0.834137 7.8659 7.32652 11.5327
109 2 0.0273212 5.59251 6.20565 13.3031
116 2 0.00901468 10.4828 3.2353 16.7814
331 2 0.173613 5.99444 5.47552 17.0374
121 2 -0.0135503 6.60919 6.60789 9.41167
333 2 -0.0186605 13.5835 2.2711 14.7387
147 2 0.147567 7.29382 4.97468 10.8029
148 2 0.23716 9.04003 4.39841 11.5045
149 2 0.194634 7.56602 4.99331 12.6511
164 2 0.166434 8.72028 4.87021 16.965
265 3 -0.873978 10.944 6.39049 9.39392
166 2 0.074525 8.47709 4.3629 14.7702
167 2 0.109754 9.60812 2.00478 9.25849
266 3 -0.890362 5.2906 7.21541 11.6452
169 2 0.139159 8.84574 3.80054 10.0236
119 2 0.0120999 8.56067 5.37138 9.21103
175 2 0.139199 6.18307 4.65591 9.57678
172 2 0.21964 10.9488 1.70796 12.6663
144 2 0.148562 7.00222 2.58834 9.70553
229 3 -0.794001 7.71674 1.86517 12.9698
258 3 -0.836329 9.75393 1.75187 14.5922
259 3 -0.831629 12.5805 2.58172 9.65528
323 1 -0.694968 11.3482 5.69964 17.259
270 3 -0.787837 11.3776 4.36061 14.0643
271 3 -0.83225 10.9211 4.04052 11.5069
274 3 -0.855662 9.7943 6.12684 12.9182
325 2 0.158687 10.4621 5.04162 16.9217
332 2 0.0814075 7.54876 6.91166 16.3409
329 1 -0.652812 6.19273 6.6613 16.8912
330 2 0.161741 5.36465 6.94014 16.1461
129 2 0.158699 13.6562 1.55774 12.2627
347 2 0.181805 4.43293 7.70777 17.0541
8 4 0.97793 13.9483 2.47205 8.95247
171 2 0.171871 10.0458 0.896784 11.2507
56 4 1.46991 9.31995 7.52944 12.3407
105 2 -0.0127378 7.22006 0.602842 15.0523
94 2 0.0955452 14.6165 0.91946 9.16424
170 2 0.170712 11.9482 0.565496 11.4969
45 4 1.22935 5.18472 13.5966 3.15152
57 4 0.919168 9.9715 9.25317 1.23107
58 4 1.48373 3.28277 11.5437 4.40108
59 4 0.939241 6.37139 11.54 1.11299
62 4 1.1699 5.33581 11.1494 6.4754
126 2 0.0281906 2.77055 13.1599 8.5026
83 1 -0.69043 6.16692 8.5047 3.02315
84 1 -0.667062 9.71771 8.69061 5.59076
85 1 -0.689937 8.29984 9.16152 8.02285
87 1 -0.657687 6.86102 10.6122 5.48238
88 1 -0.690451 5.59383 13.0693 6.84512
76 1 -0.697478 4.78491 7.56722 7.81403
18 4 0.975342 9.84642 11.427 3.38678
123 2 -0.0204885 8.04066 12.0439 1.08607
184 2 0.200726 8.90152 8.5737 8.8101
125 2 -0.00098648 6.58317 10.1016 2.02816
5 3 -0.791603 6.36066 14.1109 4.06539
156 2 0.243266 5.11555 8.63324 7.74019
176 2 0.168265 5.82794 8.13515 2.0338
177 2 0.166954 7.30003 8.78712 3.1433
178 2 0.198823 5.44326 9.17787 3.61676
179 2 0.223922 10.4379 8.92728 4.77107
180 2 0.220361 10.1686 8.83274 6.62435
181 2 0.17778 8.64967 9.24789 5.45129
182 2 0.168681 8.91089 10.0025 7.46271
183 2 0.162285 7.78057 8.40278 7.26037
187 2 0.156962 6.63592 9.83738 4.50868
188 2 0.158714 7.44776 10.0527 6.45634
189 2 0.160297 7.08261 11.7797 5.25382
190 2 0.19455 6.37739 13.1892 7.61101
191 2 0.153632 4.58226 13.405 7.21247
275 3 -0.827293 9.26296 7.84624 1.0168
277 3 -0.830124 3.31125 10.5841 3.08816
278 3 -0.825679 4.00095 13.0115 4.08789
350 2 0.24728 5.93669 13.5509 5.81927
280 3 -0.823824 5.60891 12.5938 2.02213
285 3 -0.837073 4.01643 10.8137 5.70499
286 3 -0.783894 5.57789 10.4788 7.88686
349 2 0.0378676 8.24317 12.1445 3.3239
276 3 -0.823475 9.95029 9.98861 2.59936
201 2 0.170468 4.76814 12.8988 8.64667
110 2 0.0588474 3.47076 8.94757 7.25579
198 2 0.185247 3.23217 11.4565 0.203863
185 2 0.130067 9.43176 12.443 1.04849
163 2 0.158026 1.25745 13.5742 2.42472
43 4 1.25419 2.71164 9.7142 13.8103
44 4 1.17634 1.33776 12.3384 12.5525
284 3 -0.796238 1.23534 12.6535 10.9318
326 1 -0.652365 3.41557 8.28522 17.1138
60 4 1.26015 7.06044 10.169 9.01364
61 4 1.03482 2.51611 11.9392 9.74537
63 4 1.01387 8.13126 9.81865 14.2345
64 4 0.985766 3.83339 11.9182 15.8725
65 4 0.93356 8.15099 12.7602 12.964
89 1 -0.652888 6.55104 9.33915 15.1962
90 1 -0.66146 4.34139 13.2908 14.6146
91 1 -0.630883 2.1054 11.9855 16.6618
92 1 -0.646262 4.18492 12.7392 9.80291
93 1 -0.658628 6.47172 13.0599 12.3537
288 3 -0.718129 3.75913 10.1931 14.9248
290 3 -0.80301 8.16462 11.3271 13.6817
327 2 0.187074 3.55196 9.35442 17.5627
192 2 0.182452 6.36695 8.35068 15.7902
193 2 0.170087 6.03311 9.2185 13.9809
194 2 0.212543 6.05083 10.1754 15.7197
195 2 0.23107 3.77604 14.3076 14.6437
196 2 0.220605 4.194 12.8151 13.6436
197 2 0.145075 5.45338 13.4149 14.8851
53 4 1.30312 6.53913 7.63259 10.8149
316 4 1.25986 8.96904 12.4981 9.64691
200 2 0.110528 1.90476 13.0732 16.0504
202 2 0.167314 4.58202 11.7445 10.5439
203 2 0.162111 4.20803 13.7925 10.513
204 2 0.187362 5.75202 12.2099 12.6722
205 2 0.20419 6.69873 13.1482 11.1624
206 2 0.134063 6.19073 14.0555 12.8223
14 4 1.55907 11.413 7.65433 10.1563
255 3 -0.810721 2.28849 11.0671 12.9292
256 3 -0.827699 1.77422 13.6963 13.2695
272 3 -0.857295 10.3286 8.17916 11.2193
289 3 -0.785731 4.87585 11.9548 17.3089
281 3 -0.819393 6.61048 9.06339 10.1759
282 3 -0.841734 7.7699 11.5331 9.35869
339 2 -0.00157719 8.14918 9.9665 16.0053
287 3 -0.774631 9.15847 8.62812 13.7621
124 2 -0.0762257 8.46024 10.9188 17.6128
ITEM: TIMESTEP
200
ITEM: NUMBER OF ATOMS
350
ITEM: BOX BOUNDS xy xz yz pp pp pp
-8.1258531999999999e+00 1.5678200000000000e+01 -7.1114531999999997e+00
0.0000000000000000e+00 1.4894400000000001e+01 -1.0144000000000000e+00
0.0000000000000000e+00 1.7638300000000001e+01 6.7500000000000004e-01
ITEM: ATOMS id type q x y z
233 3 -0.848727 4.39586 2.88889 8.76398
9 4 1.53757 0.412263 2.6638 5.80401
13 4 1.45772 -0.194098 4.79512 7.983
300 1 -0.652502 1.50791 3.50838 1.32831
23 4 1.39386 3.23315 2.70248 4.29878
26 4 1.53813 5.90128 1.70523 5.58378
30 4 1.27169 4.64564 4.73249 2.41216
15 4 1.34537 -1.37253 7.30752 6.75817
32 4 1.33028 3.11237 7.01797 0.73993
33 4 1.34746 5.25556 3.80098 7.61719
346 2 0.131194 5.81279 2.05698 0.50551
70 1 -0.644719 2.93943 1.22362 3.07804
74 1 -0.68862 0.989333 6.12854 3.75985
97 2 0.0110053 -2.56728 6.73492 5.68053
235 3 -0.786295 1.44581 5.38293 8.59552
304 3 -0.802673 -0.377612 1.31391 2.25664
140 2 0.151944 3.06421 1.62385 1.93264
141 2 0.198589 1.85744 0.919718 3.35706
150 2 0.214918 1.36201 6.49272 2.7982
151 2 0.159711 -0.135873 5.91106 3.75004
152 2 0.21443 1.5247 5.25607 4.17932
108 2 -0.011024 5.41046 3.49269 1.50617
207 3 -0.826879 -0.813619 2.35991 4.6437
208 3 -0.828664 0.438806 1.27434 6.80575
212 3 -0.892001 0.0523002 3.89404 6.69219
213 3 -0.835265 -1.23861 6.00247 7.75249
224 3 -0.845711 1.91497 2.77009 5.21788
225 3 -0.851261 2.31998 1.26416 8.46415
226 3 -0.838148 4.48061 2.08645 5.01914
301 2 0.176581 2.56713 2.93604 1.31932
230 3 -0.845214 3.57846 3.96881 3.25282
232 3 -0.820677 3.89819 5.79226 1.49449
302 2 0.184823 1.13937 3.70139 2.4211
234 3 -0.827866 6.13914 2.83639 6.6365
303 2 0.233035 1.49293 4.44081 0.686689
237 3 -0.8183 2.76263 6.92693 5.92382
238 3 -0.801321 4.4912 4.97473 6.81415
342 2 0.174693 -1.86328 5.20355 4.87605
139 2 0.169438 3.75684 0.459331 3.35974
299 4 1.23492 0.317194 2.28114 0.74043
314 3 -0.820457 -2.95852 7.13397 2.92957
7 4 1.45067 1.22323 0.326504 7.76345