ITEM: TIMESTEP
0
ITEM: NUMBER OF ATOMS
350
ITEM: BOX BOUNDS xy xz yz pp pp pp
-8.0552999999999990e+00 1.5678200000000000e+01 -7.0408999999999997e+00
0.0000000000000000e+00 1.4894400000000001e+01 -1.0144000000000000e+00
0.0000000000000000e+00 1.7638300000000001e+01 6.7500000000000004e-01
ITEM: ATOMS id type q x y z
225 3 -0.818304 2.51829 0.555654 8.76319
9 4 1.49298 0.7223 2.42944 5.80253
13 4 1.42595 0.286519 4.79046 7.9741
235 3 -0.815476 1.56194 5.66927 8.71619
23 4 1.27534 3.1633 2.3674 3.68695
26 4 1.49474 5.69335 1.65892 5.4338
30 4 1.31608 5.10829 4.83182 2.29502
210 3 -0.762797 -1.47351 3.58221 0.0758789
32 4 1.2872 3.62183 6.92784 0.46533
33 4 1.41027 4.61573 3.82562 7.27445
35 4 1.37014 4.00005 6.72523 6.12657
70 1 -0.656112 3.29807 1.29297 2.12838
74 1 -0.6815 0.884568 5.77364 3.7161
97 2 0.023391 -2.58436 6.46991 6.01422
15 4 1.37603 -1.21822 7.13023 6.79746
346 2 0.152448 5.79829 1.99381 0.969199
140 2 0.178021 4.04264 1.76616 1.29742
141 2 0.183883 2.32577 0.973336 1.67255
150 2 0.221136 1.85192 5.15536 3.76493
151 2 0.17448 0.638612 6.24232 2.70611
152 2 0.173601 -0.0134875 5.24177 4.17808
139 2 0.160892 3.8137 0.334941 2.67132
207 3 -0.786954 -0.857171 2.30494 5.0086
208 3 -0.870099 0.942974 1.14097 6.71697
212 3 -0.85834 0.664806 3.78436 6.74864
213 3 -0.874771 -0.979046 5.76668 7.63008
224 3 -0.826919 1.74177 2.59923 4.47047
304 3 -0.798386 -0.881284 2.00426 2.40434
226 3 -0.807814 4.38646 1.68594 4.4949
324 2 0.0634392 -2.17542 6.00409 1.23441
230 3 -0.754257 4.09172 3.88556 3.1014
232 3 -0.855349 4.40893 5.89043 1.4354
233 3 -0.823234 3.52968 3.08336 8.19447
314 3 -0.829144 -3.29431 7.23278 3.83518
303 2 0.207459 0.687321 4.56733 0.830856
237 3 -0.832966 2.5297 7.24178 5.83593
238 3 -0.830675 4.19065 5.06541 6.41837
309 2 0.00749554 -0.882004 6.646 3.52755
234 3 -0.855906 5.60255 2.69701 6.6341
299 4 1.26422 -0.395909 2.50018 0.913421
300 1 -0.643004 1.09884 3.55855 1.24713
301 2 0.206295 2.01805 3.1962 0.642524
302 2 0.217522 1.16679 3.55496 2.39727
348 2 0.151068 6.59018 0.752786 2.18558
106 2 0.0681072 4.21695 3.43336 0.21474
342 2 0.124123 -2.52438 4.7283 5.18856
6 4 1.23896 0.225426 1.39671 16.3405
10 4 1.04367 -1.08095 2.24144 13.4414
12 4 0.998028 -2.74439 5.83445 17.293
107 2 0.0702802 0.984367 2.72792 9.40121
16 4 1.22186 -0.128643 5.25498 13.7249
305 3 -0.762897 -0.708713 2.16184 17.3632
294 2 0.0652126 2.36519 1.40063 14.2724
28 4 1.0158 3.02363 3.08845 16.083
34 4 1.49715 1.61323 7.01728 9.54241
36 4 1.1957 3.94684 4.94124 13.741
37 4 1.21913 0.0536874 6.87199 16.2529
211 3 -0.779579 -0.312211 3.54937 9.39218
242 3 -0.810464 1.32413 7.02226 17.2555
72 1 -0.678468 5.91118 1.98322 10.5532
292 1 -0.63288 2.63411 2.16348 12.6935
98 2 0.117282 1.2555 5.38263 12.7502
104 2 -0.00853011 2.9133 2.21645 10.7344
297 2 0.233054 2.26078 3.18504 12.9956
295 2 0.163608 1.87974 1.68765 12.0485
142 2 0.139032 5.23505 3.69198 17.1617
128 2 0.197648 0.0997645 2.12921 11.1359
130 2 0.174893 0.299331 0.633027 12.2417
298 2 0.15028 5.68682 1.48763 14.7304
143 2 0.0277809 4.26209 1.79764 16.3574
145 2 0.176766 4.96463 2.25652 9.9668
338 2 0.131081 -2.8617 5.68582 12.8721
209 3 -0.762478 -0.727531 1.13854 14.7079
244 3 -0.838972 3.00669 7.25506 10.4032
25 4 0.99081 2.56066 2.12184 9.0553
214 3 -0.804242 -0.540595 3.71424 13.5631
146 2 0.189514 5.93501 0.95037 10.8611
216 3 -0.788893 -1.35252 6.19343 13.0028
228 3 -0.798438 1.61085 2.26186 16.1893
236 3 -0.795051 0.297822 6.7446 10.702
239 3 -0.845884 3.44581 3.95665 14.8494
296 2 0.116305 3.97808 2.17827 12.0666
241 3 -0.803765 0.348373 5.69 15.2166
243 3 -0.829919 -1.43597 6.68524 16.8595
66 1 -0.679622 -0.391953 1.45249 11.8989
245 3 -0.822909 2.93132 5.63798 12.7765
71 1 -0.656725 4.39997 3.1082 17.6199
215 3 -0.783603 -2.55686 7.36652 10.6259
291 4 0.834334 3.91965 0.76816 13.4001
17 4 1.24988 -1.05049 7.29272 11.4189
8 4 0.955562 -1.50879 2.63995 8.84164
38 4 1.42732 3.6021 7.21453 11.9238
240 3 -0.751481 5.14652 3.91968 12.8576
18 4 1.01589 -5.4206 11.5888 3.17859
19 4 1.50006 -2.55345 9.6289 8.01445
20 4 1.26762 -4.0193 11.984 6.12374
24 4 1.23864 -0.544821 13.7763 7.35724
39 4 1.34452 2.50627 9.17239 2.57606
40 4 1.3594 2.09689 9.63059 7.8272
42 4 1.33614 0.851729 11.5221 5.9064
75 1 -0.653112 1.25607 10.337 1.66231
227 3 -0.795024 -1.49113 14.0549 6.14171
99 2 0.0189298 -4.83648 12.8322 1.91869
100 2 0.106275 -2.8085 13.0721 5.81288
111 2 0.0133399 -0.615693 10.964 5.09079
153 2 0.171321 1.3331 9.86729 0.651816
154 2 0.169247 1.60615 11.4131 1.7256
155 2 0.168118 0.250036 10.1474 2.17562
248 3 -0.814994 1.39851 8.43767 8.59937
313 2 0.25349 -2.45452 9.90828 5.15395
218 3 -0.871372 -1.73629 8.50553 7.36975
219 3 -0.799345 -4.72256 11.7756 4.57175
220 3 -0.811225 -3.34669 10.6122 6.59696
221 3 -0.854301 -5.01615 12.7166 7.02263
310 2 -0.0680847 -2.94608 10.3261 0.258936
246 3 -0.82572 1.51999 8.4117 3.60928
247 3 -0.796598 3.05567 8.38369 1.28096
315 3 -0.807684 -1.8679 8.39874 1.83007
335 2 -0.033681 -0.28991 10.2077 0.359762
252 3 -0.847506 1.18834 10.2374 6.6632
322 2 0.178757 -5.91485 13.2129 0.537455
7 4 1.37016 -5.61343 14.1162 7.73342
306 4 1.05382 -2.02116 7.93533 3.32317
307 4 0.570291 -1.68994 9.25198 0.478294
308 1 -0.665447 -1.75053 9.59805 4.24869
186 2 0.20089 -6.36204 14.0586 3.08425
311 2 0.146659 -1.88527 10.312 3.31303
312 2 0.19958 -0.674635 9.3475 4.55527
253 3 -0.866324 0.58172 12.8275 6.72549
162 2 0.164862 0.80104 13.5324 2.63016
31 4 1.37261 1.19689 7.31837 4.84852
250 3 -0.817359 -1.26968 13.16 8.69181
231 3 -0.897111 -0.19242 7.38519 5.64363
86 1 -0.664979 -6.55306 13.1928 2.42619
124 2 -0.0444288 -4.29857 8.74532 0.747135
21 4 0.673186 -2.92547 10.2752 14.4872
22 4 1.25163 -3.49979 12.2761 11.9889
41 4 1.30138 -1.50867 11.9421 9.77215
68 1 -0.644805 -4.10086 8.89792 15.2577
69 1 -0.702536 -0.661548 9.01007 12.0045
77 1 -0.678315 1.73156 9.25334 14.9646
101 2 -0.0814792 -1.63508 10.9686 15.4437
102 2 -0.00257431 -4.1622 10.4903 15.95
103 2 0.0987931 -5.21022 12.315 11.6574
112 2 -0.0267505 0.068083 8.26422 15.3434
113 2 -0.00641369 -0.202594 12.0631 10.9149
114 2 -0.0407481 -0.172721 12.0697 12.6694
133 2 0.0266384 -2.49529 8.57845 14.2999
249 3 -0.77522 -1.37709 10.6065 8.94206
344 2 0.143802 -0.991855 13.8212 14.5099
136 2 0.193082 0.367082 9.27482 11.5921
137 2 0.127896 -0.682067 8.99088 13.1353
138 2 0.200291 -1.47101 9.62886 11.5653
159 2 0.154805 1.75348 8.14186 14.6615
160 2 0.135041 0.798337 9.83534 14.5379
293 1 -0.67276 -1.7388 14.6183 14.8612
341 2 0.126566 -5.34193 13.9914 17.1529
14 4 1.49354 -4.06399 7.8571 9.8665
222 3 -0.7877 -3.19525 11.1762 13.1967
223 3 -0.841509 -3.29269 13.6548 12.6319
319 3 -0.777988 -6.64842 12.9097 11.1993
251 3 -0.856357 -2.79389 12.013 10.6189
334 2 -0.00497088 -2.78937 8.91834 16.752
345 2 0.132402 -2.25323 14.3915 15.8327
135 2 0.165472 -4.28575 8.05013 16.0734
217 3 -0.818645 -3.76328 9.22998 9.00155
320 1 -0.690746 -6.51017 13.9535 17.1157
161 2 0.168876 2.09113 9.53542 16.0586
134 2 0.191202 -4.82244 8.71171 14.4318
321 2 0.142089 -6.9789 13.2491 16.3261
127 2 0.0604792 -7.22383 13.9392 14.1286
1 4 1.21176 14.0016 1.55748 3.834
2 1 -0.685877 12.2467 2.2052 3.40153
3 2 0.176998 12.5418 2.70253 2.35817
4 2 0.16055 11.2879 1.66539 3.32482
337 2 -0.00565986 12.0901 0.655406 2.18963
11 4 1.23012 11.2612 5.67947 4.48472
46 4 1.07741 8.17311 1.6935 3.5379
49 4 1.2732 9.84649 4.073 2.35654
50 4 1.37767 6.18206 7.0069 4.05767
51 4 1.07394 8.29453 6.53498 1.21594
52 4 0.998107 9.92315 5.99944 8.19975
336 2 -0.0163856 7.22032 1.03122 7.77048
67 1 -0.675503 12.0969 4.74304 5.9409
325 2 0.165336 11.4346 5.43514 0.561168
257 3 -0.859671 6.95017 1.69362 4.55054
54 4 1.27738 8.79958 7.20719 5.79482
268 3 -0.857749 7.52105 7.0795 4.98241
117 2 -0.00100518 10.7198 3.3308 1.08519
120 2 -0.00354014 10.5181 4.75655 7.16298
131 2 0.152073 11.5738 3.78617 6.01182
168 2 0.128489 10.016 3.2595 8.51607
157 2 0.177844 5.75169 6.95156 7.93131
269 3 -0.814134 8.66837 6.76334 7.62114
340 2 0.190675 12.2119 2.93082 4.24509
95 2 -0.00516731 13.6646 2.98369 7.30218
175 2 0.175532 6.64359 5.03028 8.17244
260 3 -0.847246 8.94889 2.85221 2.85336
261 3 -0.839536 10.9652 4.62559 3.3255
262 3 -0.812209 6.19097 5.57494 3.14246
132 2 0.181222 12.3158 5.19299 6.95777
264 3 -0.830975 9.00323 5.2893 1.83954
118 2 0.0243252 6.58883 6.50539 0.84495
267 3 -0.837917 10.0423 6.30317 5.27705
163 2 0.156302 8.24296 0.560412 1.21097
78 1 -0.661471 7.75917 0.374269 2.18715
82 1 -0.663445 5.74415 4.65326 8.7544
108 2 0.00200232 6.06437 3.88348 1.15599
263 3 -0.827778 4.87176 7.26343 4.86479
115 2 0.048906 9.09997 0.167258 3.59559
94 2 0.078826 14.796 1.08549 8.71417
323 1 -0.671933 11.128 6.67172 17.6128
27 4 1.15579 8.17799 0.963744 13.9562
29 4 1.04236 6.39588 3.02242 12.1169
173 2 0.172378 5.85489 3.69609 9.49523
47 4 1.07561 9.83722 3.3731 14.7792
48 4 1.09061 11.4867 2.64897 10.6042
55 4 1.25369 11.254 5.02887 12.6768
73 1 -0.669764 7.75775 4.27696 11.5972
79 1 -0.652193 9.91248 3.7399 16.7168
80 1 -0.654197 9.87945 2.78762 9.54458
81 1 -0.656313 11.5138 1.07924 11.967
144 2 0.133579 6.9267 2.37895 9.9986
96 2 0.0709727 11.4012 6.02628 16.0745
109 2 -0.030828 4.83996 6.15557 14.538
116 2 0.164976 10.6672 2.85421 16.861
273 3 -0.868816 7.96902 7.15065 11.2076
121 2 0.0222973 6.24578 6.40326 9.54235
171 2 0.151039 10.4647 0.775321 11.4477
147 2 0.157916 7.87487 4.53342 10.4973
148 2 0.201351 8.75273 4.14215 12.1058
149 2 0.206585 7.14022 5.17662 12.0971
164 2 0.151331 10.3884 4.91265 17.0852
165 2 0.134501 8.97241 3.5054 17.2168
166 2 -0.00365685 8.53434 4.31117 15.4127
167 2 0.119808 9.76447 1.64984 9.45635
333 2 0.0257073 12.931 2.17925 12.819
169 2 0.156782 8.99995 3.25374 10.322
129 2 0.15666 14.3214 0.970068 11.4266
332 2 0.136083 7.89448 6.28708 16.8305
172 2 0.208397 11.2104 1.62075 12.9207
331 2 0.135428 6.00263 6.01431 16.8698
229 3 -0.806803 7.28709 1.95607 13.0825
258 3 -0.820602 9.44891 1.92375 14.5957
259 3 -0.804121 12.8855 2.56145 9.71852
266 3 -0.838858 5.29128 7.0526 11.8218
270 3 -0.827238 10.9362 4.20271 14.0479
271 3 -0.8162 11.3381 3.95723 11.528
274 3 -0.828745 10.1976 6.24516 12.5209
174 2 0.176344 4.91953 5.36669 9.10308
265 3 -0.870319 11.091 6.80486 8.83785
329 1 -0.692775 6.77954 6.7778 16.998
119 2 7.94544e-06 9.46799 4.67799 9.2805
330 2 0.163593 6.72802 7.65892 16.2455
56 4 1.52005 9.29825 7.56481 11.96
53 4 1.29147 6.47958 7.50674 10.825
343 2 0.154857 10.8228 7.71855 17.5982
45 4 1.20167 5.45774 13.346 2.88703
57 4 0.95999 10.2242 8.77227 1.96326
58 4 1.479 3.49917 11.6353 4.33013
59 4 0.933325 7.02794 11.4867 0.976741
62 4 1.15279 5.83452 11.3457 6.44893
318 3 -0.81761 8.44281 13.7128 8.70263
83 1 -0.685049 6.06854 8.46601 2.72554
84 1 -0.67436 9.62538 8.997 5.69038
76 1 -0.699458 4.89273 7.63217 7.61483
87 1 -0.661942 7.2035 11.1731 5.26585
88 1 -0.681474 6.03225 13.2887 6.99026
5 3 -0.777549 6.5262 14.035 4.11703
350 2 0.238903 6.25196 13.6557 5.85937
123 2 -0.0143782 8.67992 11.8319 1.04394
110 2 0.0385051 3.5926 9.06286 7.17344
125 2 0.0111693 6.91242 9.86049 1.61926
126 2 -0.00522813 3.12445 13.4786 8.53936
156 2 0.230914 5.28992 8.59946 7.04829
176 2 0.164972 6.086 8.05225 1.67131
177 2 0.148412 7.07997 8.89876 3.06001
178 2 0.277261 5.23192 9.18304 2.96304
179 2 0.177277 9.35562 9.30457 4.62478
180 2 0.22342 10.7144 8.78256 5.77175
181 2 0.175322 9.2003 9.67124 6.55284
182 2 0.158246 9.2062 10.3665 7.75041
185 2 0.182958 8.39615 13.5066 1.58696
187 2 0.162756 8.17764 10.3557 5.38097
188 2 0.195332 7.53227 12.2726 5.32628
189 2 0.175983 6.44988 10.8445 4.38027
190 2 0.249009 6.96949 13.4085 7.7313
191 2 0.147019 5.06821 13.678 7.38966
275 3 -0.852117 8.9967 7.93991 1.42831
277 3 -0.769799 3.69465 10.1388 3.29199
278 3 -0.852009 4.04632 12.9251 3.5414
85 1 -0.70496 8.84578 9.56822 8.57762
280 3 -0.858745 6.23382 12.3913 1.97302
285 3 -0.833349 4.49201 11.2436 5.57509
286 3 -0.798614 6.21902 10.3481 7.69982
349 2 0.125847 8.39075 12.2786 3.20406
276 3 -0.880624 10.1619 10.1801 2.54926
158 2 0.200532 4.25323 7.79293 8.52119
122 2 0.111275 11.1688 7.88182 3.11155
201 2 0.18326 5.05822 13.0125 8.70169
183 2 0.255703 8.79546 8.43534 8.16999
279 3 -0.851432 1.9527 11.7565 4.73125
283 3 -0.856363 2.59236 10.8138 8.79777
43 4 1.21567 2.97642 9.8953 13.7319
44 4 1.22125 1.46837 12.459 12.4182
316 4 1.19223 8.57465 12.4329 9.74434
317 2 0.0177864 9.67775 11.2981 9.06829
60 4 1.28394 7.05351 9.99308 9.15058
61 4 1.12028 2.71876 12.1202 9.61348
63 4 1.03619 8.48698 9.78252 14.2613
64 4 1.10461 4.38171 12.0253 15.9614
65 4 0.955075 8.0884 12.6712 12.9479
89 1 -0.654094 6.88375 9.31285 15.0529
90 1 -0.661628 4.3221 13.6953 14.9206
91 1 -0.656639 2.52351 11.9845 16.6669
92 1 -0.656801 4.4801 12.855 9.74921
93 1 -0.641729 6.34285 12.7521 12.4426
326 1 -0.687599 3.95013 8.30983 16.9759
339 2 -0.016884 9.84851 9.85108 15.3659
184 2 0.231303 9.45374 9.59492 9.5044
192 2 0.115299 7.35197 9.48336 16.199
193 2 0.166985 6.8112 8.22507 14.7358
194 2 0.273061 5.869 9.90427 14.8535
195 2 0.169979 3.65299 14.2129 15.6619
196 2 0.235593 3.70267 13.5478 13.9999
197 2 0.180478 5.25972 14.223 14.7872
199 2 0.145595 2.41003 12.9287 17.3475
170 2 0.165809 5.13806 14.3634 12.2005
289 3 -0.808684 5.52132 12.0701 17.0811
202 2 0.21134 4.89825 11.8169 10.2529
203 2 0.164261 4.45791 13.8172 10.5025
204 2 0.238553 6.1277 11.6528 12.1836
205 2 0.176935 6.45824 13.4642 11.5261
206 2 0.156931 5.54758 13.1724 13.419
290 3 -0.782844 8.33037 11.2989 13.5499
198 2 0.172252 1.94889 12.0399 15.6961
256 3 -0.837394 1.61021 13.8371 13.1815
272 3 -0.812468 10.348 8.27052 11.0475
284 3 -0.846607 1.82655 12.4515 10.8539
281 3 -0.84464 6.4217 8.90461 10.0485
282 3 -0.780925 7.25643 11.5401 9.96057
254 3 -0.825118 3.22688 8.53492 12.7544
287 3 -0.782048 8.87364 8.73585 13.1871
288 3 -0.740322 4.2965 10.8024 14.8381
255 3 -0.806923 2.21389 11.1674 13.0898
200 2 0.183924 2.52864 10.9957 17.1848
347 2 0.181833 4.01667 9.34415 17.3229
105 2 -0.0153965 0.178108 14.6934 15.2925
327 2 0.168108 3.53516 8.22744 15.934
328 2 0.163073 5.01521 7.76521 17.0518
ITEM: TIMESTEP
100
ITEM: NUMBER OF ATOMS
350
ITEM: BOX BOUNDS xy xz yz pp pp pp
-8.0552999999999990e+00 1.5678200000000000e+01 -7.0408999999999997e+00
0.0000000000000000e+00 1.4863043600000001e+01 -1.0144000000000000e+00
0.0000000000000000e+00 1.7638300000000001e+01 6.4364360000000076e-01
ITEM: ATOMS id type q x y z
225 3 -0.855925 2.35188 0.543567 8.65491
9 4 1.55101 0.569327 2.44833 5.70912
13 4 1.48769 0.274917 4.89357 7.89133
235 3 -0.786527 1.55969 5.56838 8.52482
23 4 1.31316 3.31812 2.57186 3.70039
26 4 1.43008 5.62067 1.61021 5.42748
30 4 1.30122 5.01762 4.77296 2.33292
210 3 -0.774327 -1.64682 3.7626 0.180599
32 4 1.25474 3.60715 7.04134 0.506935
33 4 1.44669 4.61862 3.72758 7.30659
35 4 1.39129 3.98855 6.62776 6.05177
70 1 -0.665681 2.87466 1.46466 2.17615
74 1 -0.684131 0.904644 5.66587 3.89763
97 2 -0.00314231 -2.56973 6.5302 5.7064
15 4 1.36709 -1.27351 7.17216 6.66932
346 2 0.155525 5.34261 1.75464 1.074
140 2 0.170677 3.71541 1.7512 1.33756
141 2 0.204508 1.8092 1.6743 1.87755
150 2 0.243841 1.78205 5.08425 4.19428
151 2 0.164977 0.870489 5.84631 2.75262
152 2 0.182245 -0.0309461 5.35512 4.41108
139 2 0.177462 2.9778 0.443808 2.71147
207 3 -0.842561 -0.82051 2.36359 4.9407
208 3 -0.854921 0.848541 1.02966 6.55096
212 3 -0.838273 0.490866 3.81869 6.64855
213 3 -0.839597 -0.955674 5.93311 7.67444
224 3 -0.789302 1.75605 2.66534 4.70316
71 1 -0.667623 5.22853 2.15208 0.0723612
226 3 -0.82789 4.30449 1.58239 4.49265
324 2 0.086795 -2.4453 6.43096 0.953147
230 3 -0.847219 3.91047 3.91451 3.24927
232 3 -0.819786 4.39676 5.77464 1.35924
233 3 -0.8405 3.65416 2.88633 8.2007
314 3 -0.759996 -3.46325 7.0852 3.8
303 2 0.208104 0.862085 4.65652 0.696046
237 3 -0.845115 2.47516 7.05002 5.85979
238 3 -0.816597 4.21044 5.0313 6.56831
309 2 -0.00823268 -0.703913 6.63401 3.45633
234 3 -0.840428 5.70284 2.86375 6.52032
299 4 1.22873 -0.408652 2.63007 0.801975
300 1 -0.688286 1.14038 3.64022 1.21931
301 2 0.195787 2.02609 3.12377 0.755811
302 2 0.204769 1.27928 3.71492 2.29928
348 2 0.163231 6.56653 0.437076 2.03038
106 2 0.0443163 4.07743 3.50534 0.221812
108 2 -0.00854043 5.77662 3.58782 1.31501
8 4 0.958509 -1.47467 2.59564 8.76928
304 3 -0.79237 -1.00755 1.85942 2.25724
6 4 1.23013 0.216878 1.45712 16.4626
10 4 1.01664 -1.1819 2.31325 13.5322
12 4 0.999041 -2.75721 5.97655 17.3476
107 2 0.077677 1.12142 2.77662 9.3921
16 4 1.21046 -0.153897 5.30342 13.7063
240 3 -0.808676 5.32338 3.93539 12.8386
294 2 0.0841997 2.49885 1.39263 14.3029
28 4 0.99839 2.942 3.1947 16.2703
34 4 1.50692 1.50016 6.98505 9.66267
36 4 1.17547 4.26196 4.90879 13.5767
37 4 1.20773 0.000679655 6.84844 16.1977
211 3 -0.796183 -0.283523 3.55365 9.15868
242 3 -0.796141 1.21274 7.13306 17.1568
72 1 -0.681498 5.72002 1.92565 10.7261
292 1 -0.608975 2.45583 2.04792 12.7116
98 2 0.0778972 1.35325 5.39306 12.871
104 2 -0.0189228 2.96124 2.01234 10.8032
297 2 0.21478 2.06242 3.1109 12.9141
295 2 0.149176 1.79289 1.39665 12
142 2 0.141625 5.19047 3.27802 17.4393
128 2 0.199863 -0.931831 2.82018 11.287
130 2 0.173187 0.469864 1.6653 11.7822
298 2 0.141148 5.59026 1.51646 14.7014
143 2 0.0623635 4.04414 1.56739 16.5567
145 2 0.156145 4.68422 2.36071 10.4345
338 2 0.108543 -2.8246 5.92489 13.2247
209 3 -0.757363 -0.662429 1.22219 14.7325
244 3 -0.863831 2.83594 7.06335 10.5995
25 4 0.997475 2.65021 2.01208 9.12247
214 3 -0.807169 -0.728691 3.86039 13.6267
146 2 0.166763 5.73052 0.857381 11.1967
216 3 -0.838395 -1.2695 6.38034 13.1718
228 3 -0.802316 1.6181 2.30005 16.3407
236 3 -0.816055 0.032865 6.96952 10.4688
239 3 -0.765896 3.56445 4.04924 14.9247
296 2 0.0892019 3.97337 2.18009 12.1388
241 3 -0.783005 0.26214 5.51913 15.2698
243 3 -0.846415 -1.44802 6.78014 16.9254
66 1 -0.690579 -0.681364 1.76644 11.8285
245 3 -0.792891 3.06284 5.42134 12.6767
38 4 1.38355 3.63099 7.12996 11.9339
215 3 -0.821946 -2.66431 7.3578 10.742
291 4 0.807077 4.0069 0.717259 13.303
17 4 1.30082 -1.26229 7.24093 11.4549
305 3 -0.771992 -0.836144 1.98071 17.5646
174 2 0.186627 4.75836 5.38763 9.16308
18 4 1.00126 -5.37186 11.5197 3.28469
19 4 1.52602 -2.59022 9.60229 8.02009
20 4 1.30556 -4.11065 12.0508 6.23138
24 4 1.26228 -0.558139 13.6586 7.28529
39 4 1.28287 2.47972 9.31831 2.48121
40 4 1.38452 1.9556 9.57504 7.92264
42 4 1.33101 0.877103 11.426 5.83514
75 1 -0.679388 1.33826 10.7244 1.71521
227 3 -0.814274 -1.50578 14.0381 6.13907
99 2 0.0241297 -4.68235 12.6191 1.9636
100 2 0.130789 -2.93649 13.3085 6.27058
111 2 0.0142023 -0.638604 11.0563 4.95839
153 2 0.137054 1.40216 10.6475 0.547959
154 2 0.190063 1.84027 11.6481 2.10189
155 2 0.153634 0.329738 10.5161 2.21594
248 3 -0.830281 1.52035 8.3436 8.73808
313 2 0.242083 -2.47613 9.88756 5.19823
218 3 -0.896388 -1.87536 8.36843 7.38143
219 3 -0.81027 -4.62067 11.8393 4.78456
220 3 -0.818437 -3.3235 10.7786 6.78363
221 3 -0.853417 -5.31678 12.6154 7.12259
310 2 -0.0611482 -2.26948 10.6986 0.454105
246 3 -0.819448 1.50263 8.49814 3.65014
247 3 -0.824626 3.19427 8.2874 1.47821
315 3 -0.800887 -1.99327 8.44649 1.92187
335 2 -0.0246123 0.0750893 9.74926 0.55631
252 3 -0.87069 1.09293 10.1401 6.72214
322 2 0.17711 -5.68402 13.2299 0.615355
7 4 1.37153 -5.71876 14.1328 7.65944
306 4 0.938943 -1.87718 7.90538 3.43823
307 4 0.597371 -1.56747 9.15013 0.617321
308 1 -0.677947 -1.79272 9.56135 4.36972
186 2 0.192813 -6.16502 14.0262 2.95489
311 2 0.167013 -1.82817 10.2294 3.41858
312 2 0.180209 -0.684338 9.35239 4.7721
253 3 -0.863385 0.510372 12.6143 6.73163
162 2 0.174485 1.03279 13.5128 2.23247
31 4 1.40613 1.28403 7.3677 4.85278
250 3 -0.846342 -1.42317 13.1074 8.53693
231 3 -0.903492 -0.0547171 7.40294 5.65431
86 1 -0.644658 -6.43422 13.0561 2.42929
21 4 0.704767 -2.86494 10.4195 14.3636
22 4 1.27041 -3.49003 12.0462 11.9124
41 4 1.33849 -1.49181 11.9314 9.60358
68 1 -0.642901 -3.99807 8.97572 15.0797
69 1 -0.662113 -0.858392 8.97716 11.9052
77 1 -0.681445 1.49199 9.48859 14.8669
101 2 -0.0844206 -1.68555 11.334 15.1762
102 2 -0.00486521 -4.23432 10.7516 15.5675
103 2 0.097566 -5.14383 12.1515 11.4423
112 2 -0.0295744 -0.141579 8.26574 15.2655
113 2 0.00326085 -0.139191 12.1308 10.7501
114 2 -0.0411639 -0.195584 11.9389 12.6092
133 2 0.0450807 -2.38568 8.5374 14.5482
249 3 -0.791977 -1.40652 10.5139 9.0045
344 2 0.156075 -1.09345 13.8474 14.1133
136 2 0.200643 0.112762 9.25234 11.2939
137 2 0.124752 -0.677311 9.00373 13.0558
138 2 0.228199 -1.78167 9.58914 11.5697
159 2 0.132525 1.61685 8.30378 14.7115
160 2 0.12517 0.524827 9.96826 14.4529
293 1 -0.67487 -1.76569 14.5798 14.7146
341 2 0.151757 -5.19359 14.0191 16.9865
14 4 1.5192 -4.05363 7.79989 9.83446
222 3 -0.826545 -3.26193 10.9118 12.9875
223 3 -0.794342 -3.22891 13.518 12.5699
319 3 -0.779099 -6.54733 12.9306 11.3441
251 3 -0.859285 -2.67297 11.9764 10.6237
334 2 -0.0298955 -2.93252 9.13776 16.7812
345 2 0.137156 -2.28307 14.1311 15.6136
135 2 0.160601 -4.18804 8.25752 15.9997
217 3 -0.825681 -3.75014 9.27275 9.00052
320 1 -0.659729 -6.30721 14.0111 17.0931
161 2 0.159656 1.73892 9.84039 15.8926
321 2 0.141374 -6.89568 13.3757 16.2624
134 2 0.205639 -4.73271 8.72445 14.2765
1 4 1.21137 14.082 1.59994 3.66626
2 1 -0.660265 12.2957 2.22178 3.50877
3 2 0.170231 12.1477 2.47441 2.38733
4 2 0.152854 11.5385 1.49057 3.90546
337 2 -0.00931338 11.9312 0.639109 2.29217
11 4 1.2683 11.1803 5.60987 4.49516
46 4 1.08216 8.06589 1.59384 3.43013
49 4 1.24833 9.82039 4.02376 2.35556
50 4 1.32113 6.29978 7.031 4.00317
51 4 1.00387 8.44231 6.58665 1.07951
52 4 0.986766 9.92804 5.81158 8.26304
336 2 -0.0292894 7.42569 0.69517 7.88004
67 1 -0.70185 12.1877 4.81622 5.99503
325 2 0.166492 11.177 5.68487 0.356055
257 3 -0.831868 6.96509 1.65092 4.50058
54 4 1.29755 8.90552 7.22049 5.84375
342 2 0.14862 13.1281 4.5806 5.38556
117 2 0.0103629 10.6993 3.26353 1.09051
120 2 -0.00929751 10.4991 4.7237 7.09437
131 2 0.158166 11.7684 3.90006 6.40517
168 2 0.132957 10.0375 3.14504 8.5786
157 2 0.167733 5.61279 7.00509 7.84277
269 3 -0.807658 8.7992 6.75484 7.70778
340 2 0.198301 12.4525 3.2206 4.17327
95 2 -0.000635093 13.8151 2.62452 7.14512
175 2 0.161623 6.48803 4.99557 8.51513
260 3 -0.834324 8.89881 2.83884 2.95317
261 3 -0.828388 10.9523 4.54469 3.39754
262 3 -0.79616 6.16635 5.54038 3.06439
132 2 0.17843 12.4214 5.60936 6.84501
264 3 -0.840968 9.16975 5.28857 1.6461
118 2 0.0420898 6.73729 6.3882 0.847978
267 3 -0.848829 9.92094 6.2884 5.13146
163 2 0.141062 8.26731 0.805164 1.13975
78 1 -0.681307 7.70231 0.317985 2.01551
263 3 -0.812047 4.87618 7.04152 4.74025
94 2 0.0881435 14.7154 0.984234 8.80866
323 1 -0.653283 11.0082 6.90705 17.443
27 4 1.1832 8.28783 1.01596 14.0075
29 4 1.04899 6.53061 2.98638 12.1645
173 2 0.165199 5.68037 3.67578 9.66075
47 4 1.09432 9.98103 3.3844 14.9181
48 4 1.09597 11.6082 2.83809 10.5722
55 4 1.25145 11.393 5.11649 12.8835
73 1 -0.670251 7.81929 4.33244 11.5161
79 1 -0.653174 9.64886 3.93621 16.7787
80 1 -0.669682 9.93031 2.76943 9.63841
81 1 -0.674912 11.7001 1.07293 11.7526
328 2 0.169452 4.99952 7.75879 16.9795
96 2 0.0756131 11.4267 6.07041 16.0602
109 2 -0.0201671 5.05136 6.22266 14.2847
116 2 0.147927 10.2413 3.04772 17.25
273 3 -0.826828 7.96116 7.04186 11.2805
121 2 0.00134388 6.37672 6.25218 9.57488
171 2 0.158034 10.8198 0.731466 11.0784
147 2 0.153149 7.58055 4.55533 10.4615
148 2 0.210506 8.92271 4.28794 11.7024
149 2 0.217644 7.41545 5.13042 12.2493
164 2 0.152887 10.226 5.17262 17.0007
165 2 0.124526 8.52596 3.89768 17.0835
166 2 0.0114972 8.56775 4.40316 15.2135
167 2 0.144223 9.74724 1.64187 9.66199
333 2 0.0167611 12.8658 2.01573 13.023
169 2 0.157518 9.10549 3.28661 10.4
129 2 0.167429 14.337 0.963559 11.5035
332 2 0.130618 7.95671 6.32911 16.6949
172 2 0.198869 11.3185 1.53683 12.6759
331 2 0.13574 6.05414 6.04441 16.5827
229 3 -0.811078 7.51511 2.02848 13.1501
258 3 -0.818168 9.60646 1.9375 14.6066
259 3 -0.812359 12.8305 2.8167 9.53667
266 3 -0.842549 5.31109 7.20817 11.8267
270 3 -0.835444 11.0438 4.26419 14.263
271 3 -0.803283 11.6024 4.0666 11.6939
274 3 -0.86585 10.1856 6.13459 12.5552
56 4 1.52369 9.43075 7.38136 11.9535
53 4 1.2857 6.46065 7.4531 10.8206
329 1 -0.675169 6.81983 6.85088 16.8827
119 2 -0.010803 9.33539 4.64982 9.36098
144 2 0.156759 6.50844 2.05888 9.96652
82 1 -0.651343 5.53727 4.59453 8.85248
265 3 -0.847259 11.1223 6.61203 8.83757
45 4 1.22301 5.47156 13.3536 2.88577
57 4 0.931616 10.2266 8.81634 1.80828
58 4 1.46386 3.55178 11.4774 4.2949
59 4 0.960404 6.9598 11.5322 0.894478
62 4 1.12161 5.92198 11.4336 6.47986
115 2 0.0504769 1.8617 14.2825 3.52144
83 1 -0.667701 6.22675 8.6481 2.93078
84 1 -0.664864 9.74604 8.9371 5.65207
76 1 -0.682894 4.68337 7.68096 7.53843
87 1 -0.677954 7.32028 11.0679 5.16575
88 1 -0.672478 6.12226 13.3787 6.91979
5 3 -0.772136 6.55499 13.9239 3.99268
350 2 0.234942 6.33953 13.7951 5.82029
123 2 -0.00956281 8.70869 11.7485 1.0657
110 2 0.0374859 3.37634 9.03202 7.09323
125 2 0.025552 6.94365 9.98287 1.56125
126 2 0.0144007 3.24076 13.3456 8.51235
156 2 0.209804 5.08111 8.62745 7.08603
176 2 0.16211 6.32406 8.1341 1.87096
177 2 0.181213 7.19856 9.18761 3.28622
178 2 0.276084 5.23347 9.17595 3.08807
179 2 0.194233 9.27766 9.29952 4.6896
180 2 0.206176 10.8663 8.69482 5.58193
181 2 0.178147 9.59743 9.67751 6.50673
182 2 0.16824 9.144 10.1878 7.78127
185 2 0.198753 8.5558 13.2762 1.57038
187 2 0.174003 8.21981 10.318 5.38578
188 2 0.1956 7.58854 12.2104 5.06538
189 2 0.180101 6.63824 10.7149 4.3622
190 2 0.241088 7.06473 13.3914 7.65125
191 2 0.145136 5.14379 13.8644 7.28196
275 3 -0.818155 8.77511 8.18076 1.4684
277 3 -0.8225 3.64444 10.1286 3.43409
278 3 -0.830151 4.07116 12.7223 3.37252
85 1 -0.687891 8.77483 9.52842 8.68007
280 3 -0.846482 6.24275 12.3986 1.89419
285 3 -0.818551 4.49783 11.439 5.69764
286 3 -0.784716 6.18345 10.54 7.86282
349 2 0.112643 8.51469 12.1882 3.55345
276 3 -0.852885 10.2777 10.1305 2.60686
158 2 0.19692 3.94086 7.9226 8.38405
122 2 0.123622 11.1933 7.73996 2.74384
201 2 0.192434 5.20078 12.8802 8.63106
183 2 0.270512 8.74253 8.41473 8.42508
279 3 -0.833257 1.9087 11.865 4.70706
124 2 -0.0604374 11.2346 8.72955 0.467603
268 3 -0.833027 7.6125 7.34521 5.01538
199 2 0.171701 3.93531 12.2738 0.0551246
43 4 1.23454 2.90717 9.96395 13.7317
44 4 1.16919 1.42773 12.3986 12.3472
316 4 1.21279 8.66884 12.5226 9.83616
317 2 0.0212315 9.58827 11.3313 9.07326
60 4 1.31228 6.98863 10.1368 9.29423
61 4 1.07489 2.80463 12.0474 9.68126
63 4 1.01838 8.57395 9.74262 14.1366
64 4 1.08356 4.35858 12.0343 15.7993
65 4 0.968499 7.95412 12.6282 12.9049
89 1 -0.653802 6.90302 9.31669 14.9
90 1 -0.652116 4.51191 13.7946 14.9533
91 1 -0.661857 2.74218 12.1704 16.879
92 1 -0.641775 4.57737 12.7402 9.73901
93 1 -0.67009 6.22078 12.546 12.447
326 1 -0.658619 3.86385 8.27872 16.9115
339 2 -0.00880538 9.94056 9.82079 15.2395
184 2 0.219368 9.39324 9.69501 9.5853
192 2 0.101515 7.46664 9.32156 16.05
193 2 0.184467 6.82649 8.26258 14.4739
194 2 0.287449 5.96152 9.86932 14.8336
195 2 0.175208 3.87646 14.3687 15.7272
196 2 0.203254 4.0781 13.9047 13.9336
197 2 0.171185 5.58159 14.2502 14.9605
105 2 -0.0150722 0.235542 14.7674 15.2224
170 2 0.159866 5.38125 14.5041 11.9582
289 3 -0.786626 5.49735 12.1105 16.9841
202 2 0.186126 4.88524 11.6705 10.3796
203 2 0.166976 4.69109 13.7071 10.4376
204 2 0.222204 6.09294 11.4022 12.3239
205 2 0.191411 6.25657 13.0496 11.4071
206 2 0.159785 5.44232 13.0819 13.3283
290 3 -0.791841 8.41864 11.3367 13.5914
198 2 0.143359 2.05138 12.4984 16.0771
256 3 -0.800663 1.48791 13.8534 13.2315
272 3 -0.834153 10.384 8.11315 10.8798
284 3 -0.808378 1.80064 12.7592 10.7543
281 3 -0.834391 6.42848 8.90837 10.1212
282 3 -0.817475 7.34631 11.6018 9.90627
254 3 -0.769951 3.36124 8.55141 12.8813
287 3 -0.786541 9.00799 8.53923 13.2022
288 3 -0.749275 4.27756 10.6907 14.7609
255 3 -0.834901 2.212 11.1195 12.8761
200 2 0.161128 2.50741 11.1239 17.3128
347 2 0.170889 3.91145 9.38737 17.2423
127 2 0.0821547 8.00077 14.0332 13.974
327 2 0.175714 3.3621 8.15058 15.9009
283 3 -0.84882 2.49135 10.6748 8.94416
330 2 0.165057 6.76939 7.76755 16.1535
343 2 0.131995 10.5963 7.93383 17.1247
318 3 -0.813246 8.36134 13.7469 8.89442
ITEM: TIMESTEP
200
ITEM: NUMBER OF ATOMS
350
ITEM: BOX BOUNDS xy xz yz pp pp pp
-8.0552999999999990e+00 1.5678200000000000e+01 -7.0408999999999997e+00
0.0000000000000000e+00 1.4831687200000001e+01 -1.0144000000000000e+00
0.0000000000000000e+00 1.7638300000000001e+01 6.1228720000000081e-01
ITEM: ATOMS id type q x y z
225 3 -0.814211 2.37215 0.405147 8.67045
9 4 1.53975 0.604974 2.5068 5.65983
13 4 1.43854 0.25992 4.81138 7.87066
235 3 -0.807493 1.44111 5.66675 8.70474
23 4 1.35168 3.19765 2.69994 3.80608
26 4 1.44361 5.62783 1.64221 5.40355
30 4 1.26101 4.94725 4.8697 2.35287
210 3 -0.808382 -1.66432 3.753 0.170272
32 4 1.21156 3.5107 6.97513 0.383672
33 4 1.34272 4.70484 3.69061 7.47373
35 4 1.3942 4.06316 6.52165 6.11594
70 1 -0.647966 2.94084 1.49375 2.34285
74 1 -0.671691 0.854781 5.82131 3.70407
97 2 0.00412541 -2.46361 6.43334 5.77982
15 4 1.39237 -1.31104 7.11733 6.74583
346 2 0.135301 5.36834 1.83798 1.23528
140 2 0.157358 3.77396 1.77035 1.43957
141 2 0.183877 1.85384 1.85026 2.07664
150 2 0.235237 1.86081 5.13964 3.90258
151 2 0.185135 0.812008 6.37168 2.73993
152 2 0.157936 -0.128353 5.31228 4.0597
139 2 0.165408 3.04475 0.418248 2.84558
207 3 -0.836578 -0.92679 2.27207 5.06816
208 3 -0.823062 0.817775 0.94749 6.45496
212 3 -0.857137 0.646886 3.80102 6.59247
213 3 -0.859164 -0.984981 5.84035 7.54772
224 3 -0.836077 1.7315 2.61986 4.609
71 1 -0.653327 5.24485 2.25253 0.143794
226 3 -0.831113 4.22501 1.88515 4.65848
324 2 0.0427768 -2.54721 6.14302 1.27905
230 3 -0.813353 3.73034 4.19438 3.29907
232 3 -0.824557 4.25162 5.81762 1.29629
233 3 -0.797401 3.55519 2.77675 8.33999
314 3 -0.825547 -3.4576 7.09323 3.71247
303 2 0.193335 0.371802 4.94819 1.00639
237 3 -0.841994 2.63795 7.09141 5.66326
238 3 -0.787972 4.07268 4.84806 6.57517
309 2 -0.0128395 -0.85407 6.63524 3.18317
234 3 -0.803298 5.79349 2.75326 6.62299
299 4 1.24193 -0.532139 2.72792 0.772274
300 1 -0.662874 0.856278 3.93175 1.30642
301 2 0.181248 1.72836 3.59502 0.579366