ITEM: TIMESTEP
0
ITEM: NUMBER OF ATOMS
350
ITEM: BOX BOUNDS xy xz yz pp pp pp
-8.0552999999999990e+00 1.5678200000000000e+01 -7.0408999999999997e+00
0.0000000000000000e+00 1.4894400000000001e+01 -1.0144000000000000e+00
0.0000000000000000e+00 1.7638300000000001e+01 6.7500000000000004e-01
ITEM: ATOMS id type q x y z
234 3 -0.850265 5.97022 2.79439 6.64402
9 4 1.49144 0.406459 2.42512 5.7704
13 4 1.45699 -0.241442 4.69704 8.07683
15 4 1.39695 -1.45461 7.26704 6.60457
23 4 1.34047 3.22897 2.79716 4.06281
26 4 1.41116 5.73825 1.5977 5.56051
30 4 1.29111 4.77099 4.8296 2.40726
233 3 -0.874001 4.23853 3.00791 8.57089
32 4 1.24222 3.35152 7.00147 0.587357
33 4 1.34155 5.05763 3.77136 7.44164
139 2 0.178024 3.21895 0.660738 3.11183
70 1 -0.662906 2.77457 1.5972 2.6551
74 1 -0.6853 0.669321 5.77429 3.83989
97 2 0.029882 -2.59919 6.87167 5.35766
108 2 -0.00129751 5.62526 3.56714 1.5078
304 3 -0.793202 -0.171282 1.57392 2.24083
140 2 0.152693 3.35709 1.81921 1.68687
141 2 0.261613 1.65946 1.46969 2.4861
150 2 0.233691 1.42869 5.11238 4.33674
151 2 0.207776 0.994089 6.07531 2.81849
152 2 0.153367 -0.469116 5.45078 3.88783
346 2 0.128677 6.18084 2.02965 0.8084
207 3 -0.787659 -1.05081 2.34988 4.78016
208 3 -0.828664 0.470445 0.875108 6.42086
212 3 -0.850201 0.151477 3.54385 6.90652
213 3 -0.858218 -1.08733 5.97093 7.3899
224 3 -0.811011 1.74608 2.79052 4.93459
225 3 -0.864724 2.35635 1.13193 8.29995
226 3 -0.832511 4.41007 1.97368 4.74633
336 2 0.00370789 6.50451 0.882875 8.50793
230 3 -0.820665 3.56038 4.22006 3.28687
232 3 -0.845847 4.19762 5.82069 1.32967
302 2 0.211956 1.43484 3.82594 2.11939
35 4 1.39186 3.9256 6.60913 6.26779
303 2 0.264499 1.66157 4.7725 0.542742
237 3 -0.840818 2.52482 7.06621 5.74546
238 3 -0.796467 4.20729 4.96227 6.641
342 2 0.146693 -1.72737 5.33493 4.53732
314 3 -0.834195 -3.15787 7.06918 3.02083
299 4 1.22929 0.366006 2.33569 0.591672
300 1 -0.649177 1.58979 3.69379 1.01192
301 2 0.176208 2.55881 3.06405 0.666843
6 4 1.18652 1.44253 1.48424 16.1694
10 4 1.03643 -0.563007 2.31534 13.5973
12 4 1.01019 -2.52935 5.06004 16.7722
297 2 0.232655 3.70126 2.83999 12.2782
16 4 1.28795 0.257363 5.40696 13.8306
106 2 0.0175713 3.98448 4.63114 17.5365
295 2 0.167296 1.93036 1.93631 12.1772
28 4 0.987491 4.00802 3.53616 16.1526
34 4 1.54857 1.25344 6.77099 9.66973
36 4 1.27319 4.73707 4.93373 13.3957
37 4 1.18031 -0.0752217 6.94284 16.2668
66 1 -0.686583 -0.0780193 1.75797 11.866
17 4 1.28768 -1.03693 7.2622 11.6015
211 3 -0.81201 -1.08098 3.81127 9.17422
305 3 -0.768822 0.328399 1.92426 17.3931
98 2 0.136145 1.87183 5.34737 13.1774
104 2 -0.0292484 3.14469 1.91327 10.7296
38 4 1.48515 3.54702 7.23503 11.8387
72 1 -0.678763 6.32689 1.6307 10.4032
128 2 0.175591 0.258741 2.74187 11.4025
129 2 0.15075 -1.08917 1.42439 11.5294
130 2 0.18912 0.75291 0.972908 11.7287
298 2 0.154691 5.74896 1.64773 14.5678
143 2 0.0842097 5.71519 2.60847 16.524
145 2 0.171166 5.26424 1.52872 10.1486
292 1 -0.663154 3.05309 2.02845 12.6998
209 3 -0.764645 0.345085 1.43962 14.5549
294 2 0.227123 2.9953 2.19722 13.8564
240 3 -0.812575 5.31815 3.81889 12.4737
214 3 -0.820468 -0.194609 3.88545 13.7486
25 4 1.02544 2.98694 2.32682 9.06903
216 3 -0.871628 -0.482227 6.48568 13.0263
228 3 -0.796755 2.7551 2.43307 16.1304
236 3 -0.813405 -0.213723 6.73606 10.3845
239 3 -0.817304 4.38549 4.28326 14.801
215 3 -0.793739 -2.95676 7.40108 11.4167
241 3 -0.834332 0.715343 5.91417 15.2947
243 3 -0.789726 -1.6393 6.46128 16.6994
244 3 -0.871189 2.42122 6.98029 10.7246
245 3 -0.807616 3.47844 5.68319 12.8357
338 2 0.108426 -3.4054 6.18396 12.2299
210 3 -0.807397 -1.84567 3.75627 17.4378
293 1 -0.68402 5.20624 0.605796 14.6268
107 2 0.071151 1.79195 3.5045 9.22042
242 3 -0.803145 0.77075 7.20606 17.6042
146 2 0.173004 6.89171 0.664591 10.5017
235 3 -0.787863 1.26655 5.24268 8.92483
328 2 0.178142 3.02262 7.52828 15.9523
296 2 -0.00493226 5.52693 0.461488 11.8332
94 2 0.092888 -0.912407 1.23437 9.18878
335 2 -0.019655 -0.325089 10.4261 0.18478
19 4 1.48002 -2.94759 9.41322 8.27173
20 4 1.29258 -4.27033 11.8401 6.38447
24 4 1.16567 -0.98465 13.6874 7.62472
39 4 1.32129 2.31803 9.29547 2.66208
40 4 1.37423 1.92916 9.49136 8.1867
42 4 1.27486 0.697652 11.5601 6.10779
75 1 -0.650371 0.811119 10.2376 1.83197
315 3 -0.758272 -2.64962 9.26437 0.971963
99 2 0.122769 -4.81917 13.0596 2.42176
100 2 0.100184 -2.91031 12.7793 6.21722
111 2 0.00767527 -0.705927 10.9918 5.21627
153 2 0.160006 0.111754 9.34713 1.58008
154 2 0.153113 1.33039 10.64 0.90714
155 2 0.168879 0.498419 11.0231 2.63024
227 3 -0.780238 -1.77114 14.088 6.22464
248 3 -0.837655 1.28421 8.11376 8.62838
218 3 -0.882376 -2.22615 8.31188 7.3551
219 3 -0.822902 -4.97594 11.5991 4.90778
220 3 -0.829398 -3.81182 10.5594 7.05709
221 3 -0.834842 -5.22128 12.7455 7.2654
309 2 0.106923 -0.713467 8.58683 3.40564
246 3 -0.803265 1.48581 8.38877 3.80842
247 3 -0.794629 3.03717 8.4385 1.46229
253 3 -0.820886 0.325908 12.7755 7.10634
122 2 0.0797113 -4.24828 9.26379 0.936078
252 3 -0.788059 1.18241 10.2834 7.05376
86 1 -0.665917 -6.07027 13.1058 2.53557
186 2 0.199967 -6.35769 13.7488 3.4068
306 4 0.891702 -2.51144 8.51459 2.80841
307 4 0.564137 -2.08131 10.4239 0.117543
308 1 -0.658475 -1.7146 9.81059 4.01813
310 2 -0.0486091 -1.69093 11.9139 0.887603
311 2 0.15227 -1.46595 10.7845 3.56615
312 2 0.205673 -1.74047 9.67889 5.13265
313 2 0.0561242 -3.50332 9.67311 3.87349
250 3 -0.84507 -1.91621 12.8574 8.63517
231 3 -0.849874 -0.260899 7.80207 5.7385
185 2 0.205726 -6.52288 13.5923 1.65149
31 4 1.37254 1.08439 7.35066 4.95421
18 4 1.00069 -5.76785 11.3917 3.51422
158 2 0.184086 3.50315 7.78108 8.68205
7 4 1.36323 -5.81122 14.4022 7.66084
21 4 0.699527 -2.63304 9.8876 14.3972
22 4 1.2551 -3.78273 11.8486 12.2317
41 4 1.26116 -1.87689 11.6982 9.81657
68 1 -0.662335 -3.70811 8.37256 14.5785
69 1 -0.699323 -0.424785 9.02688 11.7373
77 1 -0.656343 1.44105 9.39129 14.7094
101 2 -0.0713568 -0.930228 9.95901 14.3762
102 2 -0.0897485 -2.87259 10.5133 16.057
103 2 0.117751 -5.40904 11.6085 11.738
112 2 -0.0266448 -0.182749 8.38666 15.4054
113 2 0.0591363 -0.329632 11.9681 10.4173
114 2 -0.0517152 -0.164758 11.9185 13.0967
127 2 0.077472 -6.74026 14.0858 14.1063
249 3 -0.789505 -1.68649 10.2051 9.17269
135 2 0.152657 -3.50604 8.21805 15.6946
136 2 0.234078 -0.0889981 9.30596 10.6606
137 2 0.184879 0.390968 9.17038 12.4926
138 2 0.180394 -1.31614 9.61455 12.0145
159 2 0.180214 1.49022 8.28992 14.4528
160 2 0.112616 0.405344 10.0424 14.3854
161 2 0.142013 1.76507 9.73438 15.8292
341 2 0.155782 -3.87471 14.3505 17.2221
133 2 0.160221 -2.95955 7.75738 13.8484
222 3 -0.811027 -3.25436 10.8173 13.2741
223 3 -0.782371 -3.74966 13.3797 12.9457
322 2 0.133555 -5.78228 13.6763 17.349
251 3 -0.891825 -2.86869 11.8746 10.9885
217 3 -0.832156 -4.0053 9.02075 9.38457
344 2 0.124898 -1.27391 13.8403 14.5891
318 3 -0.782503 -7.08858 14.0634 9.07831
319 3 -0.773678 -6.36637 12.7415 11.328
320 1 -0.671046 -4.84913 14.0639 16.6902
321 2 0.149374 -4.85609 13.5849 15.6143
291 4 0.852387 -2.87369 14.7046 12.9668
334 2 -0.0129465 -4.35363 12.2117 17.0906
317 2 0.0584167 -5.18911 11.9959 8.98162
345 2 0.172277 -2.37838 14.7453 15.5424
1 4 1.22771 14.4152 1.44515 3.4464
2 1 -0.664521 12.9143 2.36998 2.62466
3 2 0.150551 13.0726 1.9554 1.52428
4 2 0.166732 11.8924 2.27334 3.04068
118 2 0.0338603 6.68976 6.47829 0.927022
11 4 1.35686 11.6656 5.79493 3.52945
46 4 1.00462 8.30959 1.60455 3.37317
49 4 1.24459 9.81733 3.95788 2.06559
50 4 1.32684 6.24898 6.80316 4.25951
51 4 1.08553 8.43055 6.50995 0.949412
52 4 1.02349 10.0882 5.57549 8.46658
54 4 1.30093 9.38876 6.94703 5.46418
257 3 -0.76755 7.09638 1.54008 4.45428
268 3 -0.778431 7.84636 6.82197 4.92629
324 2 0.215521 12.8191 3.82649 1.21582
95 2 -0.0124532 13.3918 2.23924 7.30632
263 3 -0.833409 5.13495 7.09803 5.37359
117 2 -0.010301 10.0875 2.99969 0.683675
120 2 0.0435865 11.0545 4.01881 8.1651
131 2 0.199644 12.6332 3.89393 4.57318
269 3 -0.788411 9.72055 6.2294 7.08125
267 3 -0.80258 10.5416 6.36774 4.46724
340 2 0.185598 13.2572 3.53072 2.77266
157 2 0.170405 4.84527 6.49204 8.52483
173 2 0.170588 6.41822 5.80384 7.91522
337 2 -0.0208989 11.7529 0.809232 2.11781
260 3 -0.788774 9.04074 3.05419 3.12852
261 3 -0.822201 11.2125 4.54312 2.57267
262 3 -0.813472 5.85247 5.47592 3.29294
348 2 0.134676 9.44918 0.684546 1.28324
264 3 -0.826965 8.88227 5.1555 1.52253
168 2 0.148697 9.05059 3.37213 7.96901
174 2 0.188406 7.3017 4.10815 7.97482
132 2 0.181305 12.636 5.21573 5.90176
67 1 -0.664872 12.8573 4.99195 4.87066
82 1 -0.682447 6.73796 4.93118 8.52821
78 1 -0.678117 8.51833 0.380245 1.89554
115 2 0.0626825 9.37717 0.31154 3.65766
162 2 0.121588 7.46606 0.841489 1.49324
142 2 0.171579 7.4341 3.22659 0.229894
323 1 -0.633341 12.6596 4.57348 0.242939
76 1 -0.697115 4.35658 7.39521 7.97699
343 2 0.198803 12.8136 5.67076 0.528422
71 1 -0.66498 5.48012 3.44044 17.6319
27 4 1.20827 8.33517 0.913677 13.9894
29 4 1.02648 6.73892 2.84214 11.9598
119 2 0.0323281 8.46269 5.37895 9.12143
47 4 0.859118 9.91686 3.32327 15.0004
48 4 1.04473 11.1428 2.68812 10.6211
55 4 1.26014 10.9327 5.17965 12.7435
73 1 -0.682795 7.78841 4.3995 11.5342
79 1 -0.662115 8.92743 4.30986 16.4529
96 2 0.082735 12.4195 4.64334 15.2453
81 1 -0.670576 10.8995 1.17382 11.7648
165 2 0.150103 7.98697 4.1896 17.0986
105 2 -0.0133771 7.09752 0.701477 15.1901
109 2 -0.00212109 5.97312 6.03702 13.5296
116 2 0.0274315 10.2664 3.09137 16.7988
331 2 0.164468 5.60945 6.44094 16.7269
121 2 -0.00500319 6.74847 6.63778 9.50006
333 2 -0.0273513 13.4215 1.9871 13.8236
147 2 0.143029 7.33948 4.66535 10.4011
148 2 0.236552 8.88213 4.29079 11.5924
149 2 0.209703 7.4479 5.15029 12.3144
164 2 0.153109 9.24218 5.36283 16.5084
265 3 -0.853516 10.8977 6.42744 9.52748
166 2 0.0550116 8.355 4.21425 14.83
167 2 0.0948717 9.60046 1.98482 9.19099
80 1 -0.648751 9.55286 3.30854 9.01303
169 2 0.142068 8.86823 3.82355 9.89933
171 2 0.13614 9.97725 0.826172 11.0587
175 2 0.145359 6.01752 4.56043 9.3765
172 2 0.245904 10.5742 1.43908 12.8046
144 2 0.14082 6.90084 2.43955 9.6986
229 3 -0.83133 7.63724 1.86776 12.9542
258 3 -0.807612 9.63764 1.71067 14.6949
259 3 -0.821708 12.525 2.51429 9.82381
266 3 -0.867705 5.02445 7.20557 11.1337
270 3 -0.785899 11.3423 4.39 14.051
271 3 -0.802583 10.8801 4.08848 11.6093
274 3 -0.86372 9.66035 6.07461 12.8971
325 2 0.147429 10.5538 4.99028 17.2683
332 2 0.151178 7.526 6.15353 16.5439
329 1 -0.683349 6.58584 6.90993 16.8478
56 4 1.43546 9.07884 7.56149 12.3757
273 3 -0.840574 7.51817 7.50845 11.9633
8 4 0.992493 13.7772 2.52671 8.93832
170 2 0.177888 11.7958 0.5563 11.6917
45 4 1.15615 5.2489 13.5418 2.79485
57 4 0.927776 9.72664 9.42639 1.15532
58 4 1.4993 3.35412 11.6334 4.39982
59 4 0.935339 6.71447 11.5162 1.21385
62 4 1.13369 5.67363 11.3486 6.40885
126 2 0.0217133 2.79394 13.2328 8.68705
83 1 -0.687626 6.15549 8.42036 3.15116
84 1 -0.657604 9.57315 8.78522 5.57065
85 1 -0.678532 8.55598 9.08913 8.23766
87 1 -0.688694 6.94142 11.1669 4.81929
88 1 -0.668293 5.83013 13.0512 7.29673
110 2 0.0442112 3.42384 9.02409 7.40315
200 2 0.215682 3.8193 11.1879 0.468782
123 2 -0.00991978 8.35706 11.9296 1.55404
163 2 0.171014 1.38788 13.4721 2.23009
125 2 -0.00456133 6.56506 10.2216 2.26462
5 3 -0.781781 6.65432 14.0052 3.71144
156 2 0.203203 5.06148 8.22909 7.69766
176 2 0.18039 5.8582 8.03622 2.15916
177 2 0.162613 7.13758 8.96013 3.21254
178 2 0.20896 5.21435 8.9109 3.69988
179 2 0.188894 10.2388 9.01648 4.61353
180 2 0.204223 10.0622 9.20518 6.58594
181 2 0.178468 8.43696 9.03823 5.40024
182 2 0.199029 9.38469 9.64525 7.68386
183 2 0.174876 7.92546 8.38301 7.56139
187 2 0.154095 6.65704 10.2402 4.1096
188 2 0.173436 7.96545 11.0852 5.24897
189 2 0.211242 6.77021 12.2176 4.41996
190 2 0.228331 6.49969 13.0007 8.23738
191 2 0.152401 4.83352 13.5165 7.51847
275 3 -0.826853 9.01316 7.99398 1.09543
277 3 -0.830534 3.25683 10.4883 3.31868
278 3 -0.820473 4.03333 13.0195 3.75592
350 2 0.176775 6.39267 13.5652 6.31888
280 3 -0.825855 5.62471 12.6132 1.57888
285 3 -0.797936 4.1127 11.1884 5.77245
286 3 -0.796259 6.25324 10.3582 7.49707
349 2 0.0499814 8.31312 12.1523 3.69421
276 3 -0.88013 9.75772 10.2668 2.4107
279 3 -0.803992 1.75422 11.9139 4.95549
43 4 1.27802 2.92391 10.0278 13.7208
44 4 1.19486 1.33558 12.4038 12.6178
254 3 -0.794386 3.27566 8.47521 12.8508
330 2 0.168463 6.58055 7.9157 16.191
60 4 1.2573 7.06776 10.0325 8.97374
61 4 1.09439 2.37864 12.0062 9.86993
63 4 1.02654 8.44893 10.1363 14.4548
64 4 0.981586 4.25576 12.0366 16.1278
65 4 0.952867 8.17448 12.9069 13.0187
89 1 -0.644478 6.73384 9.57545 15.1006
90 1 -0.663031 4.63241 13.5745 15.0551
91 1 -0.652631 2.57542 12.1323 17.0393
92 1 -0.677761 4.15389 12.7387 9.99302
93 1 -0.661701 6.45268 13.2173 12.5259
288 3 -0.743368 4.10844 10.5778 14.8453
290 3 -0.804161 8.24845 11.5106 13.6999
327 2 0.189266 3.31361 9.2263 16.8272
192 2 0.125011 7.1564 9.68828 16.2679
193 2 0.191599 6.72569 8.53608 14.6997
194 2 0.300159 5.71413 10.0262 14.9945
195 2 0.20332 4.63602 13.0243 14.0407
196 2 0.149793 5.65895 13.8795 15.4617
197 2 0.236957 3.95489 14.4636 15.0345
199 2 0.151756 2.42073 13.2839 16.8789
326 1 -0.661348 3.56148 8.10491 16.7812
284 3 -0.831222 1.24533 12.6509 10.8884
202 2 0.188204 4.53035 11.8645 10.7015
203 2 0.16579 4.179 13.7804 10.6312
204 2 0.204214 5.85278 12.2954 12.8124
205 2 0.187644 6.57206 13.4321 11.3911
206 2 0.111462 6.32904 14.2097 13.2297
53 4 1.2679 6.41423 7.72215 10.8146
255 3 -0.861924 2.22601 11.1523 12.9436
256 3 -0.840895 1.60262 13.7155 13.4709
272 3 -0.850991 9.93662 8.18073 11.1156
289 3 -0.769908 5.53468 11.754 17.4123
281 3 -0.814768 6.3642 9.24179 10.1268
282 3 -0.750207 7.82445 11.5468 9.56865
339 2 -0.0603784 9.37486 10.5131 15.7879
287 3 -0.768354 9.11474 8.76593 13.7824
14 4 1.4937 11.2869 7.7219 10.3519
184 2 0.215463 8.95208 8.60892 9.16138
124 2 -0.0613983 8.30544 11.0447 17.4859
198 2 0.145074 1.72517 11.4554 16.617
283 3 -0.866766 2.26103 10.6007 9.20096
201 2 0.182329 4.77249 12.8194 9.00559
316 4 1.1854 9.06644 12.5728 9.74356
134 2 0.252284 10.8664 8.55964 14.2537
347 2 0.181723 4.65921 7.76629 16.9531
ITEM: TIMESTEP
100
ITEM: NUMBER OF ATOMS
350
ITEM: BOX BOUNDS xy xz yz pp pp pp
-8.0552999999999990e+00 1.5678200000000000e+01 -7.0408999999999997e+00
0.0000000000000000e+00 1.4894400000000001e+01 -1.0144000000000000e+00
0.0000000000000000e+00 1.7644179433333335e+01 6.7500000000000004e-01
ITEM: ATOMS id type q x y z
234 3 -0.841721 6.102 2.63303 6.65328
9 4 1.50334 0.390233 2.25158 5.77473
13 4 1.47826 -0.165025 4.67161 7.94371
15 4 1.34825 -1.38581 7.16301 6.5997
23 4 1.3281 3.19307 2.56762 4.00831
26 4 1.45333 5.76954 1.54909 5.43237
30 4 1.30427 4.71299 5.02089 2.48443
233 3 -0.863437 4.35646 2.88133 8.56155
71 1 -0.645901 6.24742 2.75511 0.0629993
33 4 1.35355 5.17361 3.62528 7.47267
139 2 0.17462 3.41091 0.391212 3.04599
70 1 -0.684194 2.95142 1.29856 2.5994
74 1 -0.655834 0.766543 5.71989 4.02219
97 2 0.0203995 -2.55996 6.76185 5.40667
108 2 0.0180018 5.52354 3.77383 1.60385
304 3 -0.808395 -0.21821 1.41985 2.16685
140 2 0.16252 3.43156 1.61805 1.61713
141 2 0.228075 1.80688 1.25118 2.52464
150 2 0.230018 1.49456 4.97792 4.63729
151 2 0.195991 0.986708 5.84128 2.90465
152 2 0.160713 -0.37075 5.48986 4.28392
346 2 0.160019 6.12232 2.28064 1.0429
207 3 -0.844031 -0.800499 2.18531 4.7414
208 3 -0.832847 0.43349 0.74609 6.50257
212 3 -0.839145 0.229781 3.58747 6.78891
213 3 -0.875178 -1.03204 5.79239 7.29243
224 3 -0.813453 1.87675 2.47532 4.93226
225 3 -0.880906 2.22253 1.15484 8.29512
226 3 -0.851447 4.47708 2.01412 4.65352
336 2 0.00739309 6.804 0.839314 8.57581
230 3 -0.803933 3.59871 4.19753 3.3067
232 3 -0.861577 4.18543 5.92429 1.32305
302 2 0.175453 0.88301 3.84008 2.26362
35 4 1.38217 4.11421 6.42048 6.41015
303 2 0.282673 1.52232 4.76347 0.640159
237 3 -0.816634 2.54921 6.81854 5.92823
238 3 -0.840151 4.41134 4.92597 6.79439
342 2 0.152331 -1.7173 5.22742 4.45344
314 3 -0.800398 -3.17032 7.10292 2.96269
299 4 1.25992 0.374415 2.26464 0.669838
300 1 -0.657324 1.42262 3.76339 1.23908
301 2 0.188046 2.44943 3.31917 1.44317
343 2 0.210137 -2.80078 5.69132 0.728143
31 4 1.33927 1.3017 7.29396 4.95095
6 4 1.26531 1.29127 1.64089 16.2172
10 4 1.02328 -0.519619 2.44614 13.5671
12 4 1.02441 -2.57166 5.01066 16.8098
297 2 0.205009 3.26668 3.04153 12.2081
16 4 1.3141 0.365651 5.38504 13.7675
106 2 0.0500898 3.98357 4.65202 17.5282
295 2 0.199994 1.74339 1.94304 12.4119
28 4 1.04444 3.96186 3.44092 16.0865
34 4 1.52666 1.04137 6.83479 9.66742
291 4 0.863174 4.13039 0.588897 12.8706
37 4 1.21806 -0.0867715 6.82301 16.3067
66 1 -0.680632 -0.200339 1.94499 11.7714
17 4 1.30731 -1.15548 7.32327 11.856
211 3 -0.820706 -1.0288 3.80626 9.05524
305 3 -0.81168 0.228724 2.06511 17.3435
98 2 0.125947 2.04242 5.58758 13.2084
104 2 -0.0172991 3.03085 2.04793 10.6807
38 4 1.48162 3.57128 7.24386 11.8267
72 1 -0.660356 6.34551 1.62943 10.3147
128 2 0.171819 0.245204 2.74635 11.0056
296 2 0.00425934 4.8259 0.818735 11.2806
130 2 0.1845 0.345138 0.975354 11.7958
298 2 0.15951 5.68398 1.47785 14.7612
143 2 0.0561353 5.47313 2.24976 16.5525
145 2 0.183718 5.40343 1.13292 9.86126
292 1 -0.652792 2.88116 2.07251 12.7016
209 3 -0.748191 0.471043 1.42339 14.5435
294 2 0.228606 2.90784 2.16595 13.8202
242 3 -0.774848 0.862929 7.06448 17.5648
214 3 -0.836157 -0.0253236 3.91164 13.6688
25 4 0.98992 2.92721 2.40013 9.00232
216 3 -0.871891 -0.634258 6.39213 13.0948
228 3 -0.811333 2.65924 2.57297 16.1511
236 3 -0.815422 -0.29634 6.86794 10.4877
239 3 -0.796697 4.42304 4.21218 14.7933
215 3 -0.802896 -2.8318 7.43687 11.5076
241 3 -0.832815 0.615308 5.84249 15.2681
243 3 -0.801582 -1.59827 6.32198 16.7121
244 3 -0.809523 2.31815 7.04342 10.8447
245 3 -0.801136 3.57237 5.58725 12.7509
338 2 0.0944154 -3.54994 6.33075 12.4555
210 3 -0.773974 -1.84306 3.65114 17.3263
235 3 -0.786561 1.38011 5.31858 8.83601
107 2 0.094519 1.89979 3.7934 9.05852
129 2 0.151999 -1.30272 1.75395 11.4734
162 2 0.142002 0.344846 14.2105 2.01308
19 4 1.53 -3.00232 9.49947 8.19366
20 4 1.2847 -4.28345 11.9592 6.43484
24 4 1.20934 -0.87313 13.7071 7.62519
39 4 1.29751 2.34014 9.38094 2.51963
40 4 1.32509 1.85344 9.42445 8.11761
42 4 1.2898 0.695391 11.511 6.07035
75 1 -0.674905 0.98198 10.1718 1.38489
315 3 -0.757758 -2.56013 9.48495 1.05499
99 2 0.0691084 -4.66294 12.8209 2.14015
100 2 0.0986212 -2.96383 12.9422 6.27229
111 2 0.0017186 -0.682416 11.0398 5.10588
153 2 0.169074 0.131915 9.4105 1.36296
154 2 0.152024 1.54399 10.4725 0.409139
155 2 0.15126 0.726881 11.0577 2.02791
227 3 -0.790005 -1.76447 14.1304 6.31254
248 3 -0.844332 1.1989 8.15411 8.78364
218 3 -0.840209 -2.17997 8.33364 7.40793
219 3 -0.810238 -4.96002 11.6223 4.93724
220 3 -0.807948 -3.66187 10.6946 7.02124
221 3 -0.849327 -5.2949 12.5223 7.48083
309 2 0.114023 -0.928149 8.65245 3.57063
246 3 -0.790162 1.59763 8.42687 3.74278
247 3 -0.81145 3.23586 8.48413 1.4903
253 3 -0.825774 0.369024 12.7358 7.06157
122 2 0.054282 -4.16401 9.17736 0.889625
252 3 -0.802577 0.893759 10.1962 6.93077
86 1 -0.647048 -6.10572 13.0689 2.40509
186 2 0.186685 -6.19718 13.7801 3.33118
306 4 0.878632 -2.64866 8.60705 2.83526
307 4 0.556365 -2.13816 10.5599 0.00497799
308 1 -0.652506 -1.80353 9.61156 4.31475
310 2 -0.0507992 -1.84472 12.0955 0.6251
311 2 0.132074 -1.63911 10.6792 3.90864
312 2 0.232542 -1.52955 9.54037 5.40971
313 2 0.0683655 -3.55132 9.68075 3.95649
250 3 -0.855344 -1.76365 12.9604 8.63649
231 3 -0.818989 -0.110991 7.56644 5.78286
185 2 0.207355 -6.65572 13.4918 1.48768
32 4 1.2668 3.53058 7.1455 0.637593
18 4 0.959566 -5.68697 11.5193 3.49615
158 2 0.18675 3.43834 7.58315 8.32729
7 4 1.33337 -5.80016 14.3234 7.71641
322 2 0.142919 -4.54578 13.0614 0.0180315
21 4 0.725529 -2.74838 9.85234 14.3899
22 4 1.22326 -3.78575 11.9663 12.1371
41 4 1.25101 -1.7765 11.7771 9.75776
68 1 -0.667077 -3.74714 8.36142 14.5701
69 1 -0.698981 -0.411202 9.06088 12.1679
77 1 -0.692934 1.36334 9.33962 14.9321
101 2 -0.0702793 -1.01726 9.93758 14.6107
102 2 -0.0918495 -2.9725 10.5482 15.9765
103 2 0.0875725 -5.37717 11.6758 11.7923
112 2 -0.0196173 -0.223738 8.38909 15.6201
113 2 0.0575946 -0.21585 11.9788 10.4082
114 2 -0.073269 -0.123578 11.9154 13.0731
127 2 0.0658502 -7.03905 14.1141 14.0276
249 3 -0.80147 -1.88464 10.3616 8.98272
135 2 0.141096 -3.64154 8.18314 15.7375
136 2 0.212168 0.204413 9.10164 11.2318
137 2 0.144449 0.278302 9.19523 13.2365
138 2 0.172997 -1.30045 9.7433 12.0989
159 2 0.1392 1.30135 8.26569 14.472
160 2 0.103907 0.308117 9.98226 14.9125
161 2 0.168998 1.77301 9.27935 15.9707
341 2 0.157428 -4.17335 14.0208 16.3196
293 1 -0.663408 -1.83294 14.7038 14.5491
222 3 -0.78695 -3.25785 10.8333 13.2742
223 3 -0.803005 -3.75208 13.5045 12.7111
133 2 0.156996 -2.95409 7.69103 13.8344
251 3 -0.866768 -2.98562 11.8717 10.8431
217 3 -0.833092 -4.18469 8.92754 9.112
344 2 0.109149 -1.10127 13.9836 14.0499
318 3 -0.768018 -7.27604 14.0472 9.01421
319 3 -0.795813 -6.67339 12.7796 11.3149
320 1 -0.667238 -5.2132 14.1014 16.5855
321 2 0.146106 -5.8835 13.5795 15.7043
328 2 0.159034 3.01127 7.85751 16.0514
334 2 -0.0258443 -4.39384 12.3467 17.1066
317 2 0.087503 -5.17669 12.0657 9.16559
345 2 0.133728 -2.43679 14.249 15.487
335 2 -0.0141967 -1.34545 11.2121 17.5609
1 4 1.24636 14.4093 1.44039 3.38345
2 1 -0.677203 12.8926 2.42902 2.70486
3 2 0.149827 12.7608 2.21616 1.60761
4 2 0.155689 11.9368 2.26022 3.34712
118 2 0.0463205 6.64992 6.49985 1.06311
11 4 1.34426 11.5505 5.79604 3.66599
46 4 1.03208 8.30902 1.47724 3.54679
49 4 1.2906 9.8428 3.97804 2.01646
50 4 1.33302 6.29704 6.94446 4.15858
51 4 1.09474 8.37448 6.57265 1.03147
52 4 1.03333 10.0372 5.739 8.49106
54 4 1.32184 9.24213 6.98406 5.53715
257 3 -0.838947 7.0464 1.43455 4.44741
268 3 -0.801888 7.75577 6.86073 4.93625
324 2 0.195931 12.8442 3.84211 1.29045
95 2 -0.0279751 13.2712 2.24753 7.39419
263 3 -0.815948 5.16935 7.02845 5.35667
117 2 0.0108526 10.5638 3.24046 0.570353
120 2 0.0391192 10.9744 4.23097 7.99836
131 2 0.194388 12.691 3.82508 4.49645
269 3 -0.812869 9.57397 6.32732 7.11142
267 3 -0.807837 10.3762 6.33463 4.56711
340 2 0.166876 13.4616 3.49678 2.89245
157 2 0.165276 5.09398 6.71854 8.52344
173 2 0.183038 6.53936 5.79757 7.80286
337 2 -0.0154086 11.6458 0.938324 2.17454
260 3 -0.815664 9.04357 2.77038 2.68716
261 3 -0.814192 11.0787 4.57469 2.77222
262 3 -0.842514 5.97639 5.72141 3.08561
348 2 0.15571 9.24173 0.203808 1.61734
264 3 -0.818513 9.05409 5.22496 1.56829
168 2 0.134227 9.16397 3.62749 8.02471
174 2 0.161059 7.36897 3.97509 8.1659
132 2 0.157643 12.6503 5.1531 5.9042
67 1 -0.661258 12.8442 4.94125 4.73789
82 1 -0.672247 6.74243 4.94852 8.51507
323 1 -0.656379 12.744 4.63243 0.357031
115 2 0.0592665 9.49875 0.326986 4.09058
142 2 0.159918 7.25364 3.29378 0.0565587
170 2 0.178158 11.7509 0.646435 11.548
27 4 1.19084 8.2793 0.858023 13.9656
29 4 1.05239 6.83646 2.89735 11.8819
119 2 0.0171534 8.39746 5.48642 9.25288
47 4 0.863687 9.67612 3.4512 15.052
48 4 1.0945 11.1251 2.86361 10.6074
55 4 1.27768 10.8582 5.22481 12.8308
73 1 -0.698451 7.79623 4.53533 11.4174
79 1 -0.668858 8.90439 4.46311 16.4975
96 2 0.0867545 12.169 4.80225 15.4241
81 1 -0.669039 10.8409 1.33078 11.6594
165 2 0.15503 8.15669 4.37164 17.3034
240 3 -0.789558 5.54376 3.71797 12.4723
109 2 -0.0191622 6.04075 6.11166 13.7562
116 2 0.0198202 10.3497 3.3425 16.7225
331 2 0.159792 5.49402 6.42519 17.1354
121 2 -0.0182231 6.93654 6.6224 9.52899
333 2 -0.0296156 13.4639 2.29864 13.8436
147 2 0.153135 7.40233 4.68356 10.3751
148 2 0.241483 8.90815 4.42479 11.4877
149 2 0.218622 7.36445 5.30882 12.1028
164 2 0.158743 9.20146 5.54995 16.3491
265 3 -0.853633 11.0499 6.41172 9.41334
166 2 0.0476849 7.98328 4.2666 14.9336
167 2 0.116391 9.52856 2.12162 9.0787
80 1 -0.672551 9.65079 3.3446 9.046
169 2 0.130641 8.91364 3.83524 9.88479
171 2 0.179049 9.9287 0.898335 11.2143
175 2 0.146689 5.95932 4.84329 9.33592
172 2 0.233104 10.6786 1.615 12.7124
144 2 0.144651 6.78986 2.47422 9.61852
229 3 -0.804645 7.60404 1.84758 12.9297
258 3 -0.791955 9.3115 1.78392 14.6991
259 3 -0.829823 12.5253 2.58849 9.92089
266 3 -0.858959 4.94326 7.30842 11.1591
270 3 -0.80274 11.1017 4.62552 14.2289
271 3 -0.824556 10.8445 4.11624 11.7019
274 3 -0.853541 9.54461 6.0857 12.8182
325 2 0.143701 10.6686 5.08706 17.3404
332 2 0.16024 7.28646 5.96401 16.7399
329 1 -0.703584 6.49117 6.85388 16.9908
8 4 0.988668 13.7244 2.56097 8.96329
94 2 0.11306 14.6716 1.16858 9.19477
36 4 1.19485 4.88619 4.95485 13.3724
146 2 0.162766 7.13183 0.854069 10.6914
45 4 1.19418 5.18761 13.6066 2.81088
57 4 0.934673 9.86862 9.234 1.30965
58 4 1.47153 3.30051 11.5978 4.48807
59 4 0.953472 6.60499 11.6368 1.0487
62 4 1.10913 5.73412 11.3016 6.45188
126 2 0.0294093 2.74972 13.0083 8.50631
83 1 -0.691946 6.37685 8.68531 3.16434
84 1 -0.664383 9.8113 8.7754 5.64484
85 1 -0.680761 8.51119 8.81916 8.32386
87 1 -0.688089 7.04366 11.3321 4.90875
88 1 -0.686041 5.86937 13.04 7.29169
76 1 -0.695166 4.49239 7.50153 7.9667
200 2 0.216318 3.93782 11.6385 0.502972
123 2 -0.0185861 8.20346 11.9668 1.5078
163 2 0.220654 1.70437 13.2303 2.87824
125 2 0.00102849 6.41487 10.1665 1.82827
5 3 -0.778948 6.53809 14.0255 3.66705
156 2 0.253851 5.08748 8.47016 7.80001
176 2 0.168029 5.95312 8.49487 2.09973
177 2 0.173111 7.32469 9.24465 3.13804
178 2 0.193905 5.58642 9.13739 3.91048
179 2 0.212301 10.4412 8.7555 4.68648
180 2 0.218048 10.3774 9.00279 6.58591
181 2 0.172041 8.83516 9.38236 5.59335
182 2 0.218521 9.44564 9.42658 7.9993
183 2 0.196622 8.13212 8.20239 7.55263
187 2 0.157494 6.77323 10.2836 4.33701
188 2 0.170798 8.0519 11.3029 5.44413
189 2 0.237821 6.819 12.2978 4.37952
190 2 0.219096 6.26213 12.9218 8.33219
191 2 0.147563 4.7893 13.4501 7.17406
275 3 -0.8561 9.11629 7.9228 1.17066
277 3 -0.803975 3.27613 10.4918 3.3137
278 3 -0.805073 3.97333 13.0248 3.70041
350 2 0.205233 6.61787 13.453 6.58581
280 3 -0.841256 5.69313 12.7276 1.57765
285 3 -0.812346 4.22272 11.1062 5.69183
286 3 -0.790394 6.07262 10.2062 7.5893
349 2 0.0575635 8.32796 12.1401 3.57625
276 3 -0.831417 9.85472 10.0724 2.6346
279 3 -0.850525 1.77663 11.9955 5.01408
110 2 0.0363216 3.34564 9.02056 7.3832
78 1 -0.678867 1.45117 14.1552 2.38754
124 2 -0.0645365 9.46526 10.2893 0.0108227
43 4 1.29368 2.80109 9.86521 13.7514
44 4 1.13911 1.44665 12.3448 12.7085
254 3 -0.805325 3.33888 8.51195 12.8847
330 2 0.161426 6.54189 7.79126 16.2608
60 4 1.31224 7.15242 10.0835 8.96935
61 4 1.11351 2.39936 11.8931 9.82249
63 4 1.00314 8.39499 9.98951 14.5887
64 4 1.01789 4.24405 12.0168 16.02
65 4 0.972244 8.15684 12.8355 12.9527
89 1 -0.651335 6.68167 9.40941 15.057
90 1 -0.65334 4.69463 13.7221 15.2593
91 1 -0.662183 2.6024 12.3127 17.0589
92 1 -0.685061 4.06464 12.8285 9.92704
93 1 -0.667415 6.43756 13.3194 12.5162
288 3 -0.726957 3.89631 10.503 14.9098
290 3 -0.769803 8.32626 11.4522 13.7576
327 2 0.218835 3.77611 9.42665 16.765
192 2 0.119911 6.93091 9.48925 16.2638
193 2 0.181645 6.65293 8.3269 14.5819
194 2 0.268978 5.69995 9.93222 14.8325
195 2 0.215478 3.76693 13.8874 14.6473
196 2 0.165219 5.58899 13.3744 14.6423
197 2 0.172938 4.85918 14.5946 15.9494
199 2 0.147886 2.19292 13.3014 16.7354
326 1 -0.682038 3.68216 8.33348 16.8799
284 3 -0.802794 1.3015 12.5314 10.8065
202 2 0.183162 4.48668 12.0791 10.7853
203 2 0.172149 3.89315 13.8386 10.498
204 2 0.178677 5.92468 12.4187 13.1539
205 2 0.196916 6.28167 13.2375 11.3751
206 2 0.128115 6.36466 14.3361 12.9817
53 4 1.25074 6.44033 7.76842 10.7439
255 3 -0.842909 2.41685 11.1955 13.0448
256 3 -0.819516 1.80874 13.7885 13.1976
272 3 -0.848149 10.2193 8.11942 11.234
289 3 -0.787711 5.46914 11.8716 17.1716
281 3 -0.812646 6.43851 9.25657 10.0689
282 3 -0.833148 7.9523 11.4329 9.39195
339 2 -0.0591898 9.3774 10.2304 15.9464
287 3 -0.760181 9.10921 8.81772 13.7139
14 4 1.48396 11.4163 7.72859 10.2757
184 2 0.17563 8.62566 8.26553 9.31201
105 2 -0.0287709 0.0376286 14.5994 15.0965
198 2 0.149636 1.87139 11.4607 16.797
56 4 1.43727 9.09042 7.60057 12.3431
201 2 0.178289 4.73872 12.9419 9.01986
316 4 1.2378 8.93764 12.5697 9.74346
134 2 0.257275 10.8774 8.45865 14.2031
273 3 -0.851021 7.52662 7.56694 11.8822
347 2 0.176995 4.76788 7.87336 16.7882
283 3 -0.861533 2.31462 10.496 9.16051
ITEM: TIMESTEP
200
ITEM: NUMBER OF ATOMS
350
ITEM: BOX BOUNDS xy xz yz pp pp pp
-8.0552999999999990e+00 1.5678200000000000e+01 -7.0408999999999997e+00
0.0000000000000000e+00 1.4894400000000001e+01 -1.0144000000000000e+00
0.0000000000000000e+00 1.7650058866666669e+01 6.7500000000000004e-01
ITEM: ATOMS id type q x y z
234 3 -0.867664 6.24922 2.6019 6.75733
9 4 1.49801 0.545408 2.17321 5.60647
13 4 1.39725 -0.224797 4.75654 7.89426
15 4 1.35418 -1.27594 7.2248 6.56014
23 4 1.33429 3.29785 2.51933 3.95112
26 4 1.49624 5.8792 1.65481 5.49927
30 4 1.32013 4.82276 4.95896 2.56171
233 3 -0.890791 4.43233 2.82196 8.70111
32 4 1.27267 3.4364 7.02971 0.694451
33 4 1.33519 5.3081 3.56609 7.60157
139 2 0.163343 3.87974 0.375467 2.85789
70 1 -0.671304 3.12794 1.19922 2.54518
74 1 -0.691191 0.698858 5.53815 4.15344
97 2 0.0297162 -2.29846 6.83256 5.21013
108 2 0.00278806 5.60507 3.64283 1.71932
304 3 -0.830168 -0.448117 1.44084 1.94583
140 2 0.164782 3.44071 1.77732 1.59075
141 2 0.215881 2.07892 0.920003 2.62623
150 2 0.234609 1.59746 4.87819 4.50944
151 2 0.181928 0.715804 5.66829 3.04179
152 2 0.175837 -0.290011 5.11699 4.52235
346 2 0.152913 6.35716 2.40752 1.04467
207 3 -0.822141 -0.725565 2.26212 4.43405
208 3 -0.84512 0.550671 0.762067 6.35418
212 3 -0.778072 0.450882 3.42077 6.70253
213 3 -0.881661 -1.23741 5.76433 7.23851
224 3 -0.833487 1.91921 2.40555 4.70719
225 3 -0.860562 2.18686 1.42086 8.39376
226 3 -0.849545 4.59876 2.08483 4.73344
336 2 0.0253234 6.81796 1.00979 8.35114
230 3 -0.801469 3.67117 4.15534 3.31593
232 3 -0.850612 4.19238 5.87476 1.46556
302 2 0.206705 1.19037 3.725 2.52436
35 4 1.31165 4.18706 6.46279 6.36775
303 2 0.259616 1.28122 4.6837 0.992436
237 3 -0.80812 2.57379 6.76478 5.9251
238 3 -0.800995 4.55139 4.78557 6.83416
342 2 0.166833 -1.64509 5.11607 4.79863
314 3 -0.771146 -3.18829 7.13353 3.01343
299 4 1.28204 0.255276 2.31411 0.714532
300 1 -0.678397 1.35294 3.68853 1.41457