ITEM: TIMESTEP
0
ITEM: NUMBER OF ATOMS
350
ITEM: BOX BOUNDS xy xz yz pp pp pp
-8.0552999999999990e+00 1.5678200000000000e+01 -7.0408999999999997e+00
0.0000000000000000e+00 1.4894400000000001e+01 -1.0144000000000000e+00
0.0000000000000000e+00 1.7638300000000001e+01 6.7500000000000004e-01
ITEM: ATOMS id type q x y z
225 3 -0.818304 2.51829 0.555654 8.76319
9 4 1.49298 0.7223 2.42944 5.80253
13 4 1.42595 0.286519 4.79046 7.9741
235 3 -0.815476 1.56194 5.66927 8.71619
23 4 1.27534 3.1633 2.3674 3.68695
26 4 1.49474 5.69335 1.65892 5.4338
30 4 1.31608 5.10829 4.83182 2.29502
210 3 -0.762797 -1.47351 3.58221 0.0758789
32 4 1.2872 3.62183 6.92784 0.46533
33 4 1.41027 4.61573 3.82562 7.27445
35 4 1.37014 4.00005 6.72523 6.12657
70 1 -0.656112 3.29807 1.29297 2.12838
74 1 -0.6815 0.884568 5.77364 3.7161
97 2 0.023391 -2.58436 6.46991 6.01422
15 4 1.37603 -1.21822 7.13023 6.79746
346 2 0.152448 5.79829 1.99381 0.969199
140 2 0.178021 4.04264 1.76616 1.29742
141 2 0.183883 2.32577 0.973336 1.67255
150 2 0.221136 1.85192 5.15536 3.76493
151 2 0.17448 0.638612 6.24232 2.70611
152 2 0.173601 -0.0134875 5.24177 4.17808
139 2 0.160892 3.8137 0.334941 2.67132
207 3 -0.786954 -0.857171 2.30494 5.0086
208 3 -0.870099 0.942974 1.14097 6.71697
212 3 -0.85834 0.664806 3.78436 6.74864
213 3 -0.874771 -0.979046 5.76668 7.63008
224 3 -0.826919 1.74177 2.59923 4.47047
304 3 -0.798386 -0.881284 2.00426 2.40434
226 3 -0.807814 4.38646 1.68594 4.4949
324 2 0.0634392 -2.17542 6.00409 1.23441
230 3 -0.754257 4.09172 3.88556 3.1014
232 3 -0.855349 4.40893 5.89043 1.4354
233 3 -0.823234 3.52968 3.08336 8.19447
314 3 -0.829144 -3.29431 7.23278 3.83518
303 2 0.207459 0.687321 4.56733 0.830856
237 3 -0.832966 2.5297 7.24178 5.83593
238 3 -0.830675 4.19065 5.06541 6.41837
309 2 0.00749554 -0.882004 6.646 3.52755
234 3 -0.855906 5.60255 2.69701 6.6341
299 4 1.26422 -0.395909 2.50018 0.913421
300 1 -0.643004 1.09884 3.55855 1.24713
301 2 0.206295 2.01805 3.1962 0.642524
302 2 0.217522 1.16679 3.55496 2.39727
348 2 0.151068 6.59018 0.752786 2.18558
106 2 0.0681072 4.21695 3.43336 0.21474
342 2 0.124123 -2.52438 4.7283 5.18856
6 4 1.23896 0.225426 1.39671 16.3405
10 4 1.04367 -1.08095 2.24144 13.4414
12 4 0.998028 -2.74439 5.83445 17.293
107 2 0.0702802 0.984367 2.72792 9.40121
16 4 1.22186 -0.128643 5.25498 13.7249
305 3 -0.762897 -0.708713 2.16184 17.3632
294 2 0.0652126 2.36519 1.40063 14.2724
28 4 1.0158 3.02363 3.08845 16.083
34 4 1.49715 1.61323 7.01728 9.54241
36 4 1.1957 3.94684 4.94124 13.741
37 4 1.21913 0.0536874 6.87199 16.2529
211 3 -0.779579 -0.312211 3.54937 9.39218
242 3 -0.810464 1.32413 7.02226 17.2555
72 1 -0.678468 5.91118 1.98322 10.5532
292 1 -0.63288 2.63411 2.16348 12.6935
98 2 0.117282 1.2555 5.38263 12.7502
104 2 -0.00853011 2.9133 2.21645 10.7344
297 2 0.233054 2.26078 3.18504 12.9956
295 2 0.163608 1.87974 1.68765 12.0485
142 2 0.139032 5.23505 3.69198 17.1617
128 2 0.197648 0.0997645 2.12921 11.1359
130 2 0.174893 0.299331 0.633027 12.2417
298 2 0.15028 5.68682 1.48763 14.7304
143 2 0.0277809 4.26209 1.79764 16.3574
145 2 0.176766 4.96463 2.25652 9.9668
338 2 0.131081 -2.8617 5.68582 12.8721
209 3 -0.762478 -0.727531 1.13854 14.7079
244 3 -0.838972 3.00669 7.25506 10.4032
25 4 0.99081 2.56066 2.12184 9.0553
214 3 -0.804242 -0.540595 3.71424 13.5631
146 2 0.189514 5.93501 0.95037 10.8611
216 3 -0.788893 -1.35252 6.19343 13.0028
228 3 -0.798438 1.61085 2.26186 16.1893
236 3 -0.795051 0.297822 6.7446 10.702
239 3 -0.845884 3.44581 3.95665 14.8494
296 2 0.116305 3.97808 2.17827 12.0666
241 3 -0.803765 0.348373 5.69 15.2166
243 3 -0.829919 -1.43597 6.68524 16.8595
66 1 -0.679622 -0.391953 1.45249 11.8989
245 3 -0.822909 2.93132 5.63798 12.7765
71 1 -0.656725 4.39997 3.1082 17.6199
215 3 -0.783603 -2.55686 7.36652 10.6259
291 4 0.834334 3.91965 0.76816 13.4001
17 4 1.24988 -1.05049 7.29272 11.4189
8 4 0.955562 -1.50879 2.63995 8.84164
38 4 1.42732 3.6021 7.21453 11.9238
240 3 -0.751481 5.14652 3.91968 12.8576
18 4 1.01589 -5.4206 11.5888 3.17859
19 4 1.50006 -2.55345 9.6289 8.01445
20 4 1.26762 -4.0193 11.984 6.12374
24 4 1.23864 -0.544821 13.7763 7.35724
39 4 1.34452 2.50627 9.17239 2.57606
40 4 1.3594 2.09689 9.63059 7.8272
42 4 1.33614 0.851729 11.5221 5.9064
75 1 -0.653112 1.25607 10.337 1.66231
227 3 -0.795024 -1.49113 14.0549 6.14171
99 2 0.0189298 -4.83648 12.8322 1.91869
100 2 0.106275 -2.8085 13.0721 5.81288
111 2 0.0133399 -0.615693 10.964 5.09079
153 2 0.171321 1.3331 9.86729 0.651816
154 2 0.169247 1.60615 11.4131 1.7256
155 2 0.168118 0.250036 10.1474 2.17562
248 3 -0.814994 1.39851 8.43767 8.59937
313 2 0.25349 -2.45452 9.90828 5.15395
218 3 -0.871372 -1.73629 8.50553 7.36975
219 3 -0.799345 -4.72256 11.7756 4.57175
220 3 -0.811225 -3.34669 10.6122 6.59696
221 3 -0.854301 -5.01615 12.7166 7.02263
310 2 -0.0680847 -2.94608 10.3261 0.258936
246 3 -0.82572 1.51999 8.4117 3.60928
247 3 -0.796598 3.05567 8.38369 1.28096
315 3 -0.807684 -1.8679 8.39874 1.83007
335 2 -0.033681 -0.28991 10.2077 0.359762
252 3 -0.847506 1.18834 10.2374 6.6632
322 2 0.178757 -5.91485 13.2129 0.537455
7 4 1.37016 -5.61343 14.1162 7.73342
306 4 1.05382 -2.02116 7.93533 3.32317
307 4 0.570291 -1.68994 9.25198 0.478294
308 1 -0.665447 -1.75053 9.59805 4.24869
186 2 0.20089 -6.36204 14.0586 3.08425
311 2 0.146659 -1.88527 10.312 3.31303
312 2 0.19958 -0.674635 9.3475 4.55527
253 3 -0.866324 0.58172 12.8275 6.72549
162 2 0.164862 0.80104 13.5324 2.63016
31 4 1.37261 1.19689 7.31837 4.84852
250 3 -0.817359 -1.26968 13.16 8.69181
231 3 -0.897111 -0.19242 7.38519 5.64363
86 1 -0.664979 -6.55306 13.1928 2.42619
124 2 -0.0444288 -4.29857 8.74532 0.747135
21 4 0.673186 -2.92547 10.2752 14.4872
22 4 1.25163 -3.49979 12.2761 11.9889
41 4 1.30138 -1.50867 11.9421 9.77215
68 1 -0.644805 -4.10086 8.89792 15.2577
69 1 -0.702536 -0.661548 9.01007 12.0045
77 1 -0.678315 1.73156 9.25334 14.9646
101 2 -0.0814792 -1.63508 10.9686 15.4437
102 2 -0.00257431 -4.1622 10.4903 15.95
103 2 0.0987931 -5.21022 12.315 11.6574
112 2 -0.0267505 0.068083 8.26422 15.3434
113 2 -0.00641369 -0.202594 12.0631 10.9149
114 2 -0.0407481 -0.172721 12.0697 12.6694
133 2 0.0266384 -2.49529 8.57845 14.2999
249 3 -0.77522 -1.37709 10.6065 8.94206
344 2 0.143802 -0.991855 13.8212 14.5099
136 2 0.193082 0.367082 9.27482 11.5921
137 2 0.127896 -0.682067 8.99088 13.1353
138 2 0.200291 -1.47101 9.62886 11.5653
159 2 0.154805 1.75348 8.14186 14.6615
160 2 0.135041 0.798337 9.83534 14.5379
293 1 -0.67276 -1.7388 14.6183 14.8612
341 2 0.126566 -5.34193 13.9914 17.1529
14 4 1.49354 -4.06399 7.8571 9.8665
222 3 -0.7877 -3.19525 11.1762 13.1967
223 3 -0.841509 -3.29269 13.6548 12.6319
319 3 -0.777988 -6.64842 12.9097 11.1993
251 3 -0.856357 -2.79389 12.013 10.6189
334 2 -0.00497088 -2.78937 8.91834 16.752
345 2 0.132402 -2.25323 14.3915 15.8327
135 2 0.165472 -4.28575 8.05013 16.0734
217 3 -0.818645 -3.76328 9.22998 9.00155
320 1 -0.690746 -6.51017 13.9535 17.1157
161 2 0.168876 2.09113 9.53542 16.0586
134 2 0.191202 -4.82244 8.71171 14.4318
321 2 0.142089 -6.9789 13.2491 16.3261
127 2 0.0604792 -7.22383 13.9392 14.1286
1 4 1.21176 14.0016 1.55748 3.834
2 1 -0.685877 12.2467 2.2052 3.40153
3 2 0.176998 12.5418 2.70253 2.35817
4 2 0.16055 11.2879 1.66539 3.32482
337 2 -0.00565986 12.0901 0.655406 2.18963
11 4 1.23012 11.2612 5.67947 4.48472
46 4 1.07741 8.17311 1.6935 3.5379
49 4 1.2732 9.84649 4.073 2.35654
50 4 1.37767 6.18206 7.0069 4.05767
51 4 1.07394 8.29453 6.53498 1.21594
52 4 0.998107 9.92315 5.99944 8.19975
336 2 -0.0163856 7.22032 1.03122 7.77048
67 1 -0.675503 12.0969 4.74304 5.9409
325 2 0.165336 11.4346 5.43514 0.561168
257 3 -0.859671 6.95017 1.69362 4.55054
54 4 1.27738 8.79958 7.20719 5.79482
268 3 -0.857749 7.52105 7.0795 4.98241
117 2 -0.00100518 10.7198 3.3308 1.08519
120 2 -0.00354014 10.5181 4.75655 7.16298
131 2 0.152073 11.5738 3.78617 6.01182
168 2 0.128489 10.016 3.2595 8.51607
157 2 0.177844 5.75169 6.95156 7.93131
269 3 -0.814134 8.66837 6.76334 7.62114
340 2 0.190675 12.2119 2.93082 4.24509
95 2 -0.00516731 13.6646 2.98369 7.30218
175 2 0.175532 6.64359 5.03028 8.17244
260 3 -0.847246 8.94889 2.85221 2.85336
261 3 -0.839536 10.9652 4.62559 3.3255
262 3 -0.812209 6.19097 5.57494 3.14246
132 2 0.181222 12.3158 5.19299 6.95777
264 3 -0.830975 9.00323 5.2893 1.83954
118 2 0.0243252 6.58883 6.50539 0.84495
267 3 -0.837917 10.0423 6.30317 5.27705
163 2 0.156302 8.24296 0.560412 1.21097
78 1 -0.661471 7.75917 0.374269 2.18715
82 1 -0.663445 5.74415 4.65326 8.7544
108 2 0.00200232 6.06437 3.88348 1.15599
263 3 -0.827778 4.87176 7.26343 4.86479
115 2 0.048906 9.09997 0.167258 3.59559
94 2 0.078826 14.796 1.08549 8.71417
323 1 -0.671933 11.128 6.67172 17.6128
27 4 1.15579 8.17799 0.963744 13.9562
29 4 1.04236 6.39588 3.02242 12.1169
173 2 0.172378 5.85489 3.69609 9.49523
47 4 1.07561 9.83722 3.3731 14.7792
48 4 1.09061 11.4867 2.64897 10.6042
55 4 1.25369 11.254 5.02887 12.6768
73 1 -0.669764 7.75775 4.27696 11.5972
79 1 -0.652193 9.91248 3.7399 16.7168
80 1 -0.654197 9.87945 2.78762 9.54458
81 1 -0.656313 11.5138 1.07924 11.967
144 2 0.133579 6.9267 2.37895 9.9986
96 2 0.0709727 11.4012 6.02628 16.0745
109 2 -0.030828 4.83996 6.15557 14.538
116 2 0.164976 10.6672 2.85421 16.861
273 3 -0.868816 7.96902 7.15065 11.2076
121 2 0.0222973 6.24578 6.40326 9.54235
171 2 0.151039 10.4647 0.775321 11.4477
147 2 0.157916 7.87487 4.53342 10.4973
148 2 0.201351 8.75273 4.14215 12.1058
149 2 0.206585 7.14022 5.17662 12.0971
164 2 0.151331 10.3884 4.91265 17.0852
165 2 0.134501 8.97241 3.5054 17.2168
166 2 -0.00365685 8.53434 4.31117 15.4127
167 2 0.119808 9.76447 1.64984 9.45635
333 2 0.0257073 12.931 2.17925 12.819
169 2 0.156782 8.99995 3.25374 10.322
129 2 0.15666 14.3214 0.970068 11.4266
332 2 0.136083 7.89448 6.28708 16.8305
172 2 0.208397 11.2104 1.62075 12.9207
331 2 0.135428 6.00263 6.01431 16.8698
229 3 -0.806803 7.28709 1.95607 13.0825
258 3 -0.820602 9.44891 1.92375 14.5957
259 3 -0.804121 12.8855 2.56145 9.71852
266 3 -0.838858 5.29128 7.0526 11.8218
270 3 -0.827238 10.9362 4.20271 14.0479
271 3 -0.8162 11.3381 3.95723 11.528
274 3 -0.828745 10.1976 6.24516 12.5209
174 2 0.176344 4.91953 5.36669 9.10308
265 3 -0.870319 11.091 6.80486 8.83785
329 1 -0.692775 6.77954 6.7778 16.998
119 2 7.94544e-06 9.46799 4.67799 9.2805
330 2 0.163593 6.72802 7.65892 16.2455
56 4 1.52005 9.29825 7.56481 11.96
53 4 1.29147 6.47958 7.50674 10.825
343 2 0.154857 10.8228 7.71855 17.5982
45 4 1.20167 5.45774 13.346 2.88703
57 4 0.95999 10.2242 8.77227 1.96326
58 4 1.479 3.49917 11.6353 4.33013
59 4 0.933325 7.02794 11.4867 0.976741
62 4 1.15279 5.83452 11.3457 6.44893
318 3 -0.81761 8.44281 13.7128 8.70263
83 1 -0.685049 6.06854 8.46601 2.72554
84 1 -0.67436 9.62538 8.997 5.69038
76 1 -0.699458 4.89273 7.63217 7.61483
87 1 -0.661942 7.2035 11.1731 5.26585
88 1 -0.681474 6.03225 13.2887 6.99026
5 3 -0.777549 6.5262 14.035 4.11703
350 2 0.238903 6.25196 13.6557 5.85937
123 2 -0.0143782 8.67992 11.8319 1.04394
110 2 0.0385051 3.5926 9.06286 7.17344
125 2 0.0111693 6.91242 9.86049 1.61926
126 2 -0.00522813 3.12445 13.4786 8.53936
156 2 0.230914 5.28992 8.59946 7.04829
176 2 0.164972 6.086 8.05225 1.67131
177 2 0.148412 7.07997 8.89876 3.06001
178 2 0.277261 5.23192 9.18304 2.96304
179 2 0.177277 9.35562 9.30457 4.62478
180 2 0.22342 10.7144 8.78256 5.77175
181 2 0.175322 9.2003 9.67124 6.55284
182 2 0.158246 9.2062 10.3665 7.75041
185 2 0.182958 8.39615 13.5066 1.58696
187 2 0.162756 8.17764 10.3557 5.38097
188 2 0.195332 7.53227 12.2726 5.32628
189 2 0.175983 6.44988 10.8445 4.38027
190 2 0.249009 6.96949 13.4085 7.7313
191 2 0.147019 5.06821 13.678 7.38966
275 3 -0.852117 8.9967 7.93991 1.42831
277 3 -0.769799 3.69465 10.1388 3.29199
278 3 -0.852009 4.04632 12.9251 3.5414
85 1 -0.70496 8.84578 9.56822 8.57762
280 3 -0.858745 6.23382 12.3913 1.97302
285 3 -0.833349 4.49201 11.2436 5.57509
286 3 -0.798614 6.21902 10.3481 7.69982
349 2 0.125847 8.39075 12.2786 3.20406
276 3 -0.880624 10.1619 10.1801 2.54926
158 2 0.200532 4.25323 7.79293 8.52119
122 2 0.111275 11.1688 7.88182 3.11155
201 2 0.18326 5.05822 13.0125 8.70169
183 2 0.255703 8.79546 8.43534 8.16999
279 3 -0.851432 1.9527 11.7565 4.73125
283 3 -0.856363 2.59236 10.8138 8.79777
43 4 1.21567 2.97642 9.8953 13.7319
44 4 1.22125 1.46837 12.459 12.4182
316 4 1.19223 8.57465 12.4329 9.74434
317 2 0.0177864 9.67775 11.2981 9.06829
60 4 1.28394 7.05351 9.99308 9.15058
61 4 1.12028 2.71876 12.1202 9.61348
63 4 1.03619 8.48698 9.78252 14.2613
64 4 1.10461 4.38171 12.0253 15.9614
65 4 0.955075 8.0884 12.6712 12.9479
89 1 -0.654094 6.88375 9.31285 15.0529
90 1 -0.661628 4.3221 13.6953 14.9206
91 1 -0.656639 2.52351 11.9845 16.6669
92 1 -0.656801 4.4801 12.855 9.74921
93 1 -0.641729 6.34285 12.7521 12.4426
326 1 -0.687599 3.95013 8.30983 16.9759
339 2 -0.016884 9.84851 9.85108 15.3659
184 2 0.231303 9.45374 9.59492 9.5044
192 2 0.115299 7.35197 9.48336 16.199
193 2 0.166985 6.8112 8.22507 14.7358
194 2 0.273061 5.869 9.90427 14.8535
195 2 0.169979 3.65299 14.2129 15.6619
196 2 0.235593 3.70267 13.5478 13.9999
197 2 0.180478 5.25972 14.223 14.7872
199 2 0.145595 2.41003 12.9287 17.3475
170 2 0.165809 5.13806 14.3634 12.2005
289 3 -0.808684 5.52132 12.0701 17.0811
202 2 0.21134 4.89825 11.8169 10.2529
203 2 0.164261 4.45791 13.8172 10.5025
204 2 0.238553 6.1277 11.6528 12.1836
205 2 0.176935 6.45824 13.4642 11.5261
206 2 0.156931 5.54758 13.1724 13.419
290 3 -0.782844 8.33037 11.2989 13.5499
198 2 0.172252 1.94889 12.0399 15.6961
256 3 -0.837394 1.61021 13.8371 13.1815
272 3 -0.812468 10.348 8.27052 11.0475
284 3 -0.846607 1.82655 12.4515 10.8539
281 3 -0.84464 6.4217 8.90461 10.0485
282 3 -0.780925 7.25643 11.5401 9.96057
254 3 -0.825118 3.22688 8.53492 12.7544
287 3 -0.782048 8.87364 8.73585 13.1871
288 3 -0.740322 4.2965 10.8024 14.8381
255 3 -0.806923 2.21389 11.1674 13.0898
200 2 0.183924 2.52864 10.9957 17.1848
347 2 0.181833 4.01667 9.34415 17.3229
105 2 -0.0153965 0.178108 14.6934 15.2925
327 2 0.168108 3.53516 8.22744 15.934
328 2 0.163073 5.01521 7.76521 17.0518
ITEM: TIMESTEP
100
ITEM: NUMBER OF ATOMS
350
ITEM: BOX BOUNDS xy xz yz pp pp pp
-8.0552999999999990e+00 1.5678200000000000e+01 -7.0408999999999997e+00
0.0000000000000000e+00 1.4894400000000001e+01 -1.0144000000000000e+00
0.0000000000000000e+00 1.7673576600000001e+01 6.7500000000000004e-01
ITEM: ATOMS id type q x y z
225 3 -0.855922 2.35188 0.543566 8.65492
9 4 1.55098 0.569325 2.44833 5.70909
13 4 1.48769 0.27492 4.89356 7.89133
235 3 -0.786528 1.55969 5.56839 8.52483
23 4 1.31277 3.31816 2.57207 3.69952
26 4 1.43006 5.6209 1.61013 5.42766
30 4 1.30038 5.01665 4.77082 2.331
210 3 -0.77422 -1.64647 3.76234 0.180747
32 4 1.25472 3.60719 7.04138 0.506984
33 4 1.44674 4.61862 3.72757 7.30657
35 4 1.39131 3.98859 6.62776 6.05174
70 1 -0.665907 2.87641 1.46495 2.17512
74 1 -0.684097 0.904655 5.66587 3.89763
97 2 -0.00314539 -2.56973 6.5302 5.7064
15 4 1.36708 -1.27351 7.17216 6.66932
346 2 0.155439 5.34433 1.74515 1.07112
140 2 0.170714 3.71752 1.74836 1.33631
141 2 0.204256 1.8113 1.67675 1.87683
150 2 0.243921 1.78212 5.08429 4.19424
151 2 0.165014 0.870479 5.84627 2.75262
152 2 0.182258 -0.0309159 5.3551 4.41109
139 2 0.177501 2.97708 0.444324 2.71047
207 3 -0.842515 -0.820518 2.36357 4.94068
208 3 -0.854899 0.848542 1.02966 6.55095
212 3 -0.838257 0.490865 3.8187 6.64854
213 3 -0.839604 -0.955672 5.93311 7.67444
224 3 -0.789149 1.75598 2.66528 4.70307
71 1 -0.666933 5.23041 2.14395 0.0687619
226 3 -0.827554 4.30455 1.58247 4.49264
324 2 0.0868035 -2.44526 6.43077 0.953108
230 3 -0.847109 3.91032 3.91516 3.24963
232 3 -0.819659 4.39647 5.77493 1.35979
233 3 -0.840488 3.65416 2.88633 8.20071
314 3 -0.759996 -3.46324 7.08521 3.8
303 2 0.208086 0.86111 4.65627 0.696411
237 3 -0.845083 2.47516 7.05003 5.8598
238 3 -0.816506 4.21044 5.03131 6.56833
309 2 -0.00821619 -0.703906 6.63401 3.45633
234 3 -0.840393 5.70287 2.86373 6.52034
299 4 1.22859 -0.408441 2.62892 0.800715
300 1 -0.688256 1.14022 3.63961 1.21892
301 2 0.195632 2.0262 3.12418 0.754972
302 2 0.204683 1.27938 3.71379 2.29948
348 2 0.163235 6.56671 0.436765 2.0306
106 2 0.0434202 4.08202 3.49928 0.220405
108 2 -0.00893229 5.76803 3.58401 1.31215
8 4 0.958517 -1.47467 2.59564 8.76928
304 3 -0.792183 -1.00709 1.85932 2.25679
6 4 1.23005 0.216654 1.45669 16.462
10 4 1.01682 -1.18193 2.31324 13.5322
12 4 0.998959 -2.75718 5.97648 17.3477
107 2 0.0776765 1.12141 2.77662 9.39209
16 4 1.21045 -0.153899 5.30344 13.7063
240 3 -0.808683 5.32341 3.93539 12.8386
294 2 0.0841473 2.49868 1.39231 14.3027
28 4 0.998463 2.94113 3.19536 16.2688
34 4 1.50692 1.50016 6.98505 9.66267
36 4 1.1755 4.26199 4.90882 13.5766
37 4 1.2077 0.000681552 6.84845 16.1977
211 3 -0.796182 -0.283523 3.55366 9.15869
242 3 -0.796143 1.21276 7.13304 17.1567
72 1 -0.681505 5.72002 1.92565 10.7261
292 1 -0.608971 2.45582 2.04793 12.7116
98 2 0.077889 1.35323 5.39308 12.8709
104 2 -0.0189256 2.96124 2.01234 10.8032
297 2 0.21477 2.0624 3.11091 12.9141
295 2 0.149179 1.79287 1.39667 12
142 2 0.141582 5.19216 3.26989 17.4332
128 2 0.199856 -0.931834 2.82014 11.2872
130 2 0.173194 0.469857 1.66534 11.7822
298 2 0.14119 5.59029 1.51625 14.7014
143 2 0.0628558 4.03735 1.56285 16.5531
145 2 0.15614 4.68422 2.36071 10.4345
338 2 0.108544 -2.82461 5.92489 13.2247
209 3 -0.757438 -0.662474 1.22206 14.7316
244 3 -0.863834 2.83594 7.06335 10.5995
25 4 0.997473 2.65021 2.01208 9.12247
214 3 -0.807213 -0.728665 3.86039 13.6267
146 2 0.166761 5.73053 0.857382 11.1967
216 3 -0.838389 -1.2695 6.38034 13.1718
228 3 -0.80243 1.61804 2.30012 16.3405
236 3 -0.816055 0.0328641 6.96951 10.4688
239 3 -0.76624 3.56421 4.04917 14.9243
296 2 0.0892106 3.97336 2.18012 12.1388
241 3 -0.783082 0.26216 5.51911 15.2698
243 3 -0.846383 -1.44804 6.78013 16.9254
66 1 -0.690585 -0.681365 1.76642 11.8284
245 3 -0.79289 3.06283 5.42136 12.6767
38 4 1.38356 3.63099 7.12999 11.9339
215 3 -0.821945 -2.66431 7.3578 10.742
291 4 0.807104 4.00691 0.717252 13.303
17 4 1.30083 -1.26229 7.24093 11.4549
305 3 -0.772096 -0.837858 1.97882 17.5624
174 2 0.186625 4.75836 5.38764 9.16309
18 4 1.00125 -5.37187 11.5197 3.28469
19 4 1.52603 -2.59022 9.60229 8.02009
20 4 1.30557 -4.11066 12.0508 6.23138
24 4 1.26225 -0.558129 13.6586 7.28529
39 4 1.28289 2.47972 9.31831 2.48121
40 4 1.38451 1.9556 9.57504 7.92264
42 4 1.33099 0.877106 11.426 5.83514
75 1 -0.679393 1.33826 10.7244 1.71521
227 3 -0.814301 -1.50575 14.0381 6.13907
99 2 0.0241482 -4.68236 12.6192 1.96353
100 2 0.130783 -2.93656 13.3085 6.27064
111 2 0.0141997 -0.638603 11.0564 4.95839
153 2 0.137063 1.40214 10.6475 0.547964
154 2 0.190059 1.84025 11.6481 2.10188
155 2 0.153639 0.329752 10.5161 2.21593
248 3 -0.830286 1.52035 8.3436 8.73808
313 2 0.24208 -2.47613 9.88757 5.19824
218 3 -0.896396 -1.87535 8.36843 7.38143
219 3 -0.810262 -4.62067 11.8393 4.78456
220 3 -0.818431 -3.3235 10.7786 6.78363
221 3 -0.853413 -5.31678 12.6154 7.12259
310 2 -0.0611299 -2.26949 10.6986 0.454101
246 3 -0.819436 1.50262 8.49814 3.65015
247 3 -0.824569 3.19426 8.28744 1.47819
315 3 -0.80089 -1.99327 8.4465 1.92187
335 2 -0.0246023 0.0750877 9.74926 0.556311
252 3 -0.870695 1.09293 10.1401 6.72214
322 2 0.177108 -5.68373 13.229 0.615175
7 4 1.37154 -5.71876 14.1328 7.65944
306 4 0.938938 -1.87718 7.90538 3.43823
307 4 0.597386 -1.56747 9.15013 0.617322
308 1 -0.677955 -1.79272 9.56135 4.36972
186 2 0.192807 -6.16526 14.0262 2.95501
311 2 0.167017 -1.82817 10.2294 3.41858
312 2 0.180202 -0.684336 9.35239 4.7721
253 3 -0.86338 0.510386 12.6143 6.73163
162 2 0.174494 1.03306 13.5127 2.23251
31 4 1.40616 1.28403 7.3677 4.85278
250 3 -0.846332 -1.42318 13.1074 8.53695
231 3 -0.903493 -0.0547163 7.40294 5.65431
86 1 -0.644671 -6.43421 13.0561 2.42928
21 4 0.704756 -2.86494 10.4195 14.3636
22 4 1.2704 -3.49003 12.0462 11.9124
41 4 1.33849 -1.49182 11.9314 9.60359
68 1 -0.64291 -3.99806 8.97572 15.0797
69 1 -0.662106 -0.858393 8.97716 11.9052
77 1 -0.681446 1.492 9.4886 14.8669
101 2 -0.0844099 -1.68554 11.334 15.1762
102 2 -0.00486155 -4.23432 10.7516 15.5675
103 2 0.0975575 -5.14382 12.1515 11.4424
112 2 -0.0295722 -0.14158 8.26574 15.2654
113 2 0.00325451 -0.139196 12.1308 10.7501
114 2 -0.0411692 -0.195585 11.9389 12.6092
133 2 0.0450862 -2.38568 8.5374 14.5482
249 3 -0.791974 -1.40651 10.5139 9.0045
344 2 0.156087 -1.09322 13.8474 14.1128
136 2 0.20065 0.112765 9.25234 11.2939
137 2 0.124754 -0.677314 9.00373 13.0558
138 2 0.228196 -1.78167 9.58914 11.5697
159 2 0.13252 1.61685 8.30379 14.7115
160 2 0.125171 0.524829 9.96826 14.4529
293 1 -0.674842 -1.76553 14.5796 14.7144
341 2 0.151742 -5.19306 14.0174 16.9872
14 4 1.51921 -4.05364 7.79989 9.83446
222 3 -0.826551 -3.26193 10.9118 12.9875
223 3 -0.794335 -3.22891 13.518 12.5699
319 3 -0.779109 -6.54733 12.9306 11.3441
251 3 -0.859294 -2.67298 11.9764 10.6237
334 2 -0.0298927 -2.93253 9.13776 16.7812
345 2 0.137213 -2.28269 14.1305 15.6133
135 2 0.160603 -4.18803 8.25749 15.9997
217 3 -0.825679 -3.75014 9.27275 9.00052
320 1 -0.659623 -6.30668 14.0102 17.0932
161 2 0.159653 1.73892 9.84039 15.8926
321 2 0.141333 -6.89466 13.374 16.2628
134 2 0.205635 -4.73271 8.72445 14.2765
1 4 1.21121 14.082 1.59998 3.66614
2 1 -0.660263 12.2958 2.22174 3.50878
3 2 0.170228 12.148 2.47435 2.38726
4 2 0.152858 11.5386 1.49054 3.90544
337 2 -0.009314 11.9312 0.639105 2.29214
11 4 1.26831 11.1803 5.60987 4.49517
46 4 1.08218 8.06592 1.59385 3.43016
49 4 1.24836 9.82039 4.02377 2.35555
50 4 1.32066 6.29982 7.03107 4.00302
51 4 1.0039 8.44229 6.58666 1.07947
52 4 0.98675 9.92804 5.81158 8.26304
336 2 -0.0293058 7.42571 0.695128 7.88007
67 1 -0.701854 12.1877 4.81622 5.99503
325 2 0.166489 11.177 5.6849 0.356073
257 3 -0.831858 6.96513 1.65091 4.50062
54 4 1.29752 8.90548 7.2205 5.84373
342 2 0.148622 13.1281 4.5806 5.38555
117 2 0.0103646 10.6993 3.26355 1.0905
120 2 -0.00929568 10.4991 4.72371 7.09437
131 2 0.158165 11.7684 3.90006 6.40517
168 2 0.13295 10.0375 3.14504 8.5786
157 2 0.167742 5.61278 7.00507 7.84276
269 3 -0.807649 8.7992 6.75484 7.70778
340 2 0.19829 12.4527 3.22067 4.17334
95 2 -0.000633263 13.8151 2.62452 7.14512
175 2 0.16163 6.48805 4.99557 8.51514
260 3 -0.834281 8.89882 2.83884 2.95316
261 3 -0.82838 10.9523 4.54469 3.39755
262 3 -0.794903 6.16723 5.53892 3.06326
132 2 0.178426 12.4214 5.60936 6.84501
264 3 -0.840909 9.16974 5.28857 1.64609
118 2 0.0421341 6.73748 6.3881 0.848145
267 3 -0.848809 9.92093 6.2884 5.13146
163 2 0.141102 8.26721 0.805055 1.13974
78 1 -0.681295 7.70242 0.317853 2.01558
263 3 -0.81189 4.87628 7.04145 4.74016
94 2 0.0881444 14.7154 0.984238 8.80867
323 1 -0.653265 11.0082 6.90702 17.443
27 4 1.18323 8.28782 1.01596 14.0075
29 4 1.04901 6.53061 2.98637 12.1645
173 2 0.165194 5.68035 3.67576 9.66073
47 4 1.09432 9.98103 3.3844 14.9181
48 4 1.09598 11.6082 2.83809 10.5722
55 4 1.25144 11.393 5.11649 12.8835
73 1 -0.670251 7.81929 4.33244 11.5161
79 1 -0.653182 9.64886 3.9362 16.7787
80 1 -0.669687 9.93031 2.76943 9.63841
81 1 -0.674913 11.7001 1.07293 11.7526
328 2 0.169426 4.99961 7.75878 16.9795
96 2 0.0756087 11.4267 6.0702 16.0602
109 2 -0.0202065 5.05134 6.22263 14.2848
116 2 0.147932 10.2413 3.04772 17.25
273 3 -0.826825 7.96116 7.04186 11.2805
121 2 0.00133812 6.37673 6.25219 9.57486
171 2 0.158033 10.8198 0.731469 11.0784
147 2 0.153142 7.58055 4.55533 10.4615
148 2 0.210509 8.92271 4.28794 11.7024
149 2 0.217646 7.41545 5.13042 12.2493
164 2 0.152876 10.226 5.17261 17.0007
165 2 0.124528 8.52596 3.89765 17.0835
166 2 0.0114908 8.56775 4.40315 15.2135
167 2 0.144217 9.74724 1.64187 9.66199
333 2 0.016757 12.8659 2.01582 13.023
169 2 0.157513 9.1055 3.28661 10.4
129 2 0.167447 14.3371 0.9636 11.5033
332 2 0.130598 7.95689 6.32914 16.6949
172 2 0.198866 11.3185 1.53682 12.6759
331 2 0.135697 6.05434 6.0444 16.5825
229 3 -0.811079 7.51511 2.02848 13.1501
258 3 -0.818167 9.60645 1.9375 14.6066
259 3 -0.81236 12.8305 2.8167 9.53667
266 3 -0.842552 5.31109 7.20817 11.8267
270 3 -0.835454 11.0438 4.26419 14.263
271 3 -0.803286 11.6024 4.0666 11.6939
274 3 -0.865848 10.1856 6.13459 12.5552
56 4 1.52371 9.43075 7.38136 11.9535
53 4 1.2857 6.46066 7.45311 10.8206
329 1 -0.675166 6.81988 6.85089 16.8827
119 2 -0.0108064 9.33539 4.64982 9.36098
144 2 0.15675 6.50843 2.05888 9.96651
82 1 -0.651338 5.53727 4.59453 8.85249
265 3 -0.847259 11.1223 6.61203 8.83757
45 4 1.22298 5.47156 13.3536 2.88577
57 4 0.931606 10.2266 8.81633 1.80827
58 4 1.46385 3.55178 11.4774 4.2949
59 4 0.960429 6.9598 11.5321 0.8945
62 4 1.12159 5.92197 11.4335 6.47986
115 2 0.0504717 1.86178 14.2825 3.52154
83 1 -0.667677 6.22673 8.64773 2.93099
84 1 -0.664872 9.74603 8.93709 5.65208
76 1 -0.682892 4.68337 7.68095 7.53842
87 1 -0.677963 7.32029 11.0679 5.16576
88 1 -0.672475 6.12226 13.3787 6.91979
5 3 -0.772111 6.55501 13.9239 3.99267
350 2 0.23495 6.33953 13.7951 5.82028
123 2 -0.00956059 8.70867 11.7484 1.06574
110 2 0.0374837 3.37633 9.03202 7.09323
125 2 0.0255598 6.94319 9.98305 1.56156
126 2 0.014402 3.24076 13.3456 8.51235
156 2 0.209804 5.08111 8.62744 7.08601
176 2 0.162091 6.32406 8.1334 1.87112
177 2 0.181236 7.19878 9.18675 3.28679
178 2 0.2761 5.23353 9.17582 3.08813
179 2 0.194221 9.27765 9.2995 4.6896
180 2 0.20617 10.8663 8.69481 5.58194
181 2 0.178143 9.59742 9.67751 6.50673
182 2 0.168237 9.14401 10.1878 7.78127
185 2 0.198796 8.55593 13.2761 1.57029
187 2 0.173995 8.21981 10.318 5.38579
188 2 0.195599 7.58854 12.2104 5.06537
189 2 0.180104 6.63824 10.7149 4.36221
190 2 0.241093 7.06472 13.3914 7.65124
191 2 0.145137 5.14379 13.8644 7.28195
275 3 -0.818161 8.77512 8.18074 1.46839
277 3 -0.822488 3.64444 10.1286 3.43409
278 3 -0.830155 4.07116 12.7223 3.37252
85 1 -0.687899 8.77483 9.52842 8.68006
280 3 -0.846478 6.24275 12.3986 1.89418
285 3 -0.818551 4.49783 11.439 5.69764
286 3 -0.78472 6.18345 10.54 7.86282
349 2 0.112639 8.5147 12.1881 3.55326
276 3 -0.852891 10.2777 10.1305 2.60686
158 2 0.196916 3.94086 7.9226 8.38405
122 2 0.123621 11.1933 7.73995 2.74384
201 2 0.192438 5.20078 12.8802 8.63106
183 2 0.270506 8.74253 8.41473 8.42508
279 3 -0.83327 1.9087 11.865 4.70706
124 2 -0.0604442 11.2346 8.72953 0.467604
268 3 -0.832954 7.61242 7.3452 5.01531
199 2 0.171703 3.93532 12.2738 0.055118
43 4 1.23455 2.90718 9.96394 13.7317
44 4 1.16917 1.42773 12.3986 12.3472
316 4 1.21279 8.66884 12.5226 9.83616
317 2 0.0212383 9.58827 11.3313 9.07326
60 4 1.31227 6.98863 10.1368 9.29423
61 4 1.0749 2.80463 12.0474 9.68126
63 4 1.01838 8.57396 9.74262 14.1366
64 4 1.08357 4.35858 12.0343 15.7993
65 4 0.968522 7.95411 12.6281 12.9048
89 1 -0.653794 6.90301 9.31671 14.9
90 1 -0.652122 4.51191 13.7946 14.9533
91 1 -0.661857 2.74218 12.1704 16.879
92 1 -0.641773 4.57737 12.7402 9.73901
93 1 -0.670088 6.2208 12.546 12.447
326 1 -0.658651 3.86389 8.27869 16.9115
339 2 -0.00881181 9.94056 9.82079 15.2395
184 2 0.219373 9.39324 9.69501 9.5853
192 2 0.101513 7.46663 9.32158 16.05
193 2 0.18446 6.82647 8.26259 14.4739
194 2 0.287455 5.96151 9.86933 14.8336
195 2 0.175222 3.87643 14.3687 15.7272
196 2 0.20325 4.07814 13.9047 13.9335
197 2 0.171227 5.58159 14.2502 14.9605
105 2 -0.0150473 0.235625 14.7674 15.2225
170 2 0.159873 5.38123 14.5041 11.9581
289 3 -0.786611 5.49734 12.1104 16.9841
202 2 0.186125 4.88523 11.6705 10.3796
203 2 0.166977 4.69109 13.7071 10.4376
204 2 0.222202 6.09294 11.4021 12.3239
205 2 0.19141 6.25657 13.0496 11.4071
206 2 0.159788 5.44233 13.0819 13.3283
290 3 -0.791856 8.41865 11.3367 13.5914
198 2 0.143361 2.05138 12.4984 16.0771
256 3 -0.800664 1.48791 13.8534 13.2315
272 3 -0.834152 10.384 8.11315 10.8798
284 3 -0.808381 1.80064 12.7593 10.7543
281 3 -0.834396 6.42848 8.90837 10.1212
282 3 -0.817473 7.34631 11.6018 9.90627
254 3 -0.769954 3.36124 8.55142 12.8813
287 3 -0.78654 9.00799 8.53923 13.2022
288 3 -0.749269 4.27756 10.6907 14.7609
255 3 -0.834902 2.212 11.1195 12.8761
200 2 0.161129 2.50741 11.1239 17.3128
347 2 0.170896 3.9115 9.38739 17.2424
127 2 0.0822523 8.0007 14.0331 13.9738
327 2 0.175697 3.36213 8.1506 15.9009
283 3 -0.848821 2.49135 10.6748 8.94416
330 2 0.165051 6.76951 7.7675 16.1534
343 2 0.131989 10.5963 7.93383 17.1247
318 3 -0.813245 8.36134 13.747 8.89442
ITEM: TIMESTEP
200
ITEM: NUMBER OF ATOMS
350
ITEM: BOX BOUNDS xy xz yz pp pp pp
-8.0552999999999990e+00 1.5678200000000000e+01 -7.0408999999999997e+00
0.0000000000000000e+00 1.4894400000000001e+01 -1.0144000000000000e+00
0.0000000000000000e+00 1.7708853200000000e+01 6.7500000000000004e-01
ITEM: ATOMS id type q x y z
225 3 -0.814116 2.372 0.405343 8.67022
9 4 1.54246 0.604923 2.50476 5.65419
13 4 1.43715 0.259571 4.81129 7.87027
235 3 -0.80728 1.44095 5.66672 8.70463
23 4 1.35192 3.19631 2.7034 3.80334
26 4 1.44256 5.62842 1.64251 5.40345
30 4 1.25678 4.94595 4.86197 2.34482
210 3 -0.813733 -1.65701 3.73127 0.171437
32 4 1.21259 3.50687 6.96834 0.365602
33 4 1.34247 4.70509 3.69032 7.47319
35 4 1.3941 4.06457 6.52098 6.11409
70 1 -0.648189 2.93778 1.49025 2.33785
74 1 -0.671482 0.854085 5.82117 3.70385
97 2 0.00475288 -2.46379 6.43029 5.77929
15 4 1.39166 -1.31169 7.11744 6.74528
346 2 0.136983 5.36488 1.85367 1.22207
140 2 0.157924 3.76683 1.7704 1.4406
141 2 0.185143 1.85435 1.84334 2.07492
150 2 0.235075 1.85759 5.13508 3.89829
151 2 0.185464 0.813083 6.37278 2.74031
152 2 0.157789 -0.129401 5.31096 4.05393
139 2 0.165485 3.04941 0.418981 2.84852
207 3 -0.836587 -0.921659 2.27203 5.06357
208 3 -0.822508 0.8167 0.950559 6.45361
212 3 -0.855867 0.646622 3.79872 6.58946
213 3 -0.858946 -0.984896 5.84052 7.54741
224 3 -0.837199 1.73208 2.61403 4.60582
71 1 -0.652298 5.23987 2.24972 0.134539
226 3 -0.830537 4.22687 1.8884 4.65527
324 2 0.039507 -2.51227 6.18201 1.217
230 3 -0.814328 3.72663 4.19262 3.29223
232 3 -0.818531 4.24462 5.81798 1.27731
233 3 -0.797412 3.55542 2.7767 8.3394
314 3 -0.824192 -3.45985 7.09078 3.71154
303 2 0.193001 0.375935 4.9512 0.99246
237 3 -0.841449 2.63957 7.0912 5.66201
238 3 -0.78815 4.0732 4.84851 6.57522
309 2 -0.0129624 -0.855723 6.63164 3.18401
234 3 -0.803396 5.79361 2.75301 6.62293
299 4 1.24549 -0.536752 2.71702 0.756411
300 1 -0.663354 0.857578 3.92691 1.28735
301 2 0.18582 1.68648 3.57997 0.563948