ITEM: TIMESTEP
0
ITEM: NUMBER OF ATOMS
350
ITEM: BOX BOUNDS xy xz yz pp pp pp
-8.0552999999999990e+00 1.5678200000000000e+01 -7.0408999999999997e+00
0.0000000000000000e+00 1.4894400000000001e+01 -1.0144000000000000e+00
0.0000000000000000e+00 1.7638300000000001e+01 6.7500000000000004e-01
ITEM: ATOMS id type x y z
346 2 5.81271 2.12731 0.835397
9 4 0.60979 2.48792 5.81982
13 4 0.180468 4.83282 8.07666
15 4 -1.27788 6.98784 6.55955
23 4 3.42874 2.45159 4.02245
26 4 6.19348 1.51692 5.00419
30 4 4.69633 4.70216 2.36646
314 3 -3.22981 6.45605 3.31822
32 4 3.25759 6.75452 0.507854
33 4 5.59678 3.65948 7.17564
108 2 5.18085 3.4387 1.3377
70 1 2.70418 1.19198 2.75274
74 1 1.36917 5.59615 3.96791
97 2 -2.20807 6.15352 5.39153
231 3 -0.0175386 7.24628 5.64572
31 4 1.42475 7.15586 5.03728
140 2 3.25252 1.46912 1.75152
141 2 1.55768 1.32993 2.67444
150 2 2.07126 4.90583 4.52053
151 2 1.74948 5.9621 2.99563
152 2 0.363129 5.14889 3.89135
304 3 -0.180854 1.54526 2.30646
207 3 -0.728559 2.63939 4.71709
208 3 0.381335 0.993456 6.43179
212 3 0.466947 3.84225 6.77296
213 3 -0.910053 6.01464 7.72039
224 3 1.99578 2.48657 4.93443
225 3 2.6332 0.699375 7.59694
226 3 4.65661 1.59449 4.4635
303 2 0.925911 4.83779 1.07009
230 3 3.87248 3.89809 3.47353
232 3 3.80882 5.56883 1.43216
233 3 4.41868 2.66032 7.92855
301 2 2.43669 3.71899 0.666195
302 2 1.70981 3.75893 2.3388
237 3 2.80643 6.82502 6.26955
238 3 4.99227 5.07783 6.77621
300 1 1.47392 3.86247 1.27102
139 2 2.99297 0.201128 3.16762
299 4 0.127881 2.63098 0.826997
25 4 3.27655 1.81913 8.47042
163 2 7.03631 0.537885 0.986975
210 3 -1.21682 3.43099 0.309106
8 4 -1.55834 2.57433 8.80465
6 4 1.03826 1.85425 16.2607
10 4 -0.648364 2.49437 13.6256
12 4 -2.77665 5.46212 17.3719
296 2 4.22796 2.03707 11.0456
16 4 -0.358059 5.63719 13.6775
17 4 -1.33182 7.24309 11.2804
291 4 3.16383 0.702224 12.9668
28 4 3.77955 3.58409 16.1335
34 4 1.51401 6.86367 9.90352
36 4 4.56633 5.13159 13.5189
37 4 -0.380424 6.97928 16.3085
107 2 2.12925 2.85797 9.11
338 2 -3.06411 5.60534 12.8748
72 1 6.19509 1.68631 10.6038
71 1 5.1465 3.27106 17.5283
98 2 0.866091 6.03602 12.5978
104 2 3.7202 0.915514 9.88549
242 3 0.86224 7.07928 17.3547
297 2 2.87365 3.17564 11.5022
128 2 -0.0999095 1.47696 11.6231
66 1 -1.21908 1.81156 11.948
235 3 1.56435 5.55573 8.9312
298 2 4.58639 2.24534 13.974
143 2 5.37144 2.19462 16.4057
145 2 5.56966 2.29563 9.86591
146 2 5.56229 0.872555 11.1033
209 3 0.29674 1.57028 14.4823
294 2 1.66861 1.55078 12.595
211 3 -0.565864 3.67817 9.1892
214 3 -0.642233 4.04098 13.5157
215 3 -2.76967 7.0923 10.5891
216 3 -1.69095 6.44615 13.0984
228 3 2.44171 2.68673 16.214
236 3 0.0609455 6.56386 11.0219
239 3 4.19522 4.3905 14.8648
305 3 -0.155077 2.47565 17.3175
241 3 0.0292821 6.00433 15.145
243 3 -1.8372 6.59473 16.8996
244 3 2.9441 7.32593 10.5642
245 3 3.25447 5.979 12.9323
106 2 3.84337 4.69074 17.4531
292 1 3.11141 2.08568 11.3587
293 1 4.4354 1.11625 14.2389
295 2 2.33333 1.60969 10.5842
240 3 5.22406 4.02812 12.4658
345 2 3.68198 0.94226 15.148
129 2 -1.61266 2.69442 11.374
38 4 3.54467 7.3936 12.0729
327 2 3.01814 7.57942 15.8516
94 2 -0.721229 1.06383 8.9559
18 4 -5.27427 11.4204 3.1037
19 4 -3.02989 9.58006 7.69645
20 4 -4.41654 11.7959 6.19836
24 4 -0.360845 14.0446 7.46544
39 4 2.3491 9.34942 2.74653
40 4 2.15973 9.44802 8.51564
42 4 1.17065 11.6656 6.43988
75 1 0.734772 9.98404 1.93419
86 1 -6.10172 12.8832 2.02173
99 2 -4.30015 12.2385 1.89975
100 2 -3.01766 12.767 6.43291
111 2 -0.282836 11.3731 5.72806
153 2 0.95528 11.0928 2.10107
154 2 -0.207227 9.59281 2.60424
155 2 0.927295 9.53664 0.8436
309 2 -0.618887 7.57246 3.2886
186 2 -5.42137 13.7772 2.28951
218 3 -2.18534 8.21719 6.99691
219 3 -4.66016 11.7294 4.47192
220 3 -4.12779 10.3482 6.80327
221 3 -5.62709 12.563 6.75498
335 2 -0.707612 10.2026 0.633043
246 3 1.78106 8.35866 4.01199
247 3 3.12861 8.32245 1.64085
7 4 -5.80223 14.1467 7.28746
250 3 -1.53895 13.3468 8.37893
252 3 1.53548 10.3903 7.2989
227 3 -0.708484 14.4114 5.9693
341 2 -5.13581 13.4147 0.329461
306 4 -2.26749 7.56958 2.67015
307 4 -2.27362 9.52992 0.395226
308 1 -1.73378 9.09579 3.77664
310 2 -3.23254 10.7988 0.730633
311 2 -1.82827 10.0049 3.16627
312 2 -0.836492 9.20283 4.48645
313 2 -2.72413 8.96063 4.46803
315 3 -2.37325 8.24462 1.30519
249 3 -1.83822 10.5803 8.18742
348 2 0.972126 13.0705 1.63787
253 3 0.997957 12.9679 7.54153
21 4 -1.91593 10.6144 14.2357
22 4 -3.33371 12.0322 11.7629
41 4 -1.5534 11.9297 9.13698
68 1 -3.05536 8.91613 14.6351
69 1 -0.98447 9.09175 11.4488
77 1 1.01574 9.48607 15.1205
101 2 -0.154733 10.7399 14.1658
102 2 -2.36437 11.3856 15.6676
103 2 -4.74032 11.1936 11.645
112 2 -0.634546 8.56158 15.6122
113 2 -0.0827415 11.6522 9.81435
114 2 -0.0342669 12.2152 11.7656
133 2 -1.88547 8.69737 14.1051
134 2 -3.85358 8.77612 13.8567
135 2 -3.14905 8.09089 15.4314
136 2 -0.224388 9.4121 10.7297
137 2 -0.652805 9.08821 12.5708
138 2 -1.99018 9.65724 11.2981
159 2 0.585824 10.3283 15.7455
321 2 -4.45343 14.366 16.9273
161 2 0.440964 9.05264 14.1755
127 2 -6.75242 14.2186 13.7784
248 3 1.14295 8.38694 9.06916
222 3 -2.58771 11.2902 12.9993
223 3 -3.56902 13.4695 12.402
334 2 -3.42486 9.73474 16.3484
251 3 -2.57742 11.977 10.3808
339 2 -4.55976 10.1989 14.8804
344 2 -1.73446 14.6601 14.0682
317 2 -5.16447 12.0563 9.56479
318 3 -6.72872 14.0557 9.03894
320 1 -5.64092 14.4159 16.9337
160 2 1.5705 8.71291 15.7753
322 2 -6.12603 13.7923 16.0755
254 3 2.92516 8.82484 13.0082
199 2 1.35101 11.0881 16.6889
217 3 -3.87623 8.9338 8.90387
319 3 -6.80486 12.9654 11.45
1 4 14.4344 1.78134 3.47837
2 1 12.865 2.65752 2.9454
3 2 12.6014 2.52535 1.84588
4 2 11.9686 2.43301 3.62595
340 2 13.1958 3.75154 3.14184
11 4 11.215 5.57329 4.02369
46 4 8.47028 1.24167 2.56136
49 4 10.0069 3.89298 1.83436
50 4 6.12686 6.84928 3.80209
51 4 8.55356 6.3458 0.600443
52 4 9.73396 5.85564 7.91914
35 4 4.3633 6.55656 6.31212
67 1 12.07 4.75482 5.60017
265 3 10.8692 6.48898 8.79316
82 1 7.03579 4.01627 8.39401
95 2 13.8494 2.50013 7.10941
342 2 13.0315 4.40894 5.15508
117 2 11.3313 3.95577 0.792352
120 2 10.475 4.7369 6.81448
131 2 11.3367 3.88924 5.81497
132 2 12.2581 5.3501 6.57511
157 2 6.14501 6.98276 7.75395
173 2 7.94043 3.76414 7.69433
234 3 6.57693 2.87977 5.93937
257 3 7.29806 1.42954 3.76018
175 2 6.82848 5.0875 8.67648
260 3 9.38039 2.39597 1.97879
261 3 10.6218 4.3906 3.20753
262 3 6.0686 5.51083 2.86824
337 2 11.9196 1.0591 2.22948
264 3 9.00451 4.85575 1.16702
336 2 7.14413 1.26921 8.21303
267 3 10.0775 6.4597 4.73304
268 3 7.60212 7.06577 4.61053
269 3 8.8288 6.95037 7.26268
168 2 10.2319 2.01692 8.38197
324 2 12.6655 5.33547 1.02256
263 3 4.91681 7.04325 4.90043
54 4 8.9182 7.23349 5.42787
118 2 6.85317 6.44519 0.0314877
170 2 12.3586 0.807718 11.8584
27 4 8.1966 1.00843 13.9949
29 4 6.52017 2.9314 12.171
332 2 8.54173 7.14713 16.2713
47 4 9.84227 3.30865 14.8172
48 4 11.2541 2.67125 10.3721
55 4 11.061 4.97784 12.5913
73 1 7.95163 4.05558 11.5731
79 1 8.3553 4.17397 15.7374
80 1 9.67252 2.41427 9.3325
81 1 11.2955 1.23127 11.7528
333 2 13.3829 1.88814 13.5695
130 2 13.7723 0.883491 11.9117
109 2 5.75302 6.19404 13.9699
116 2 10.0155 3.62461 16.573
325 2 9.86146 5.63514 17.1245
121 2 6.19125 7.39674 9.49731
273 3 7.7911 7.42581 11.4703
147 2 7.40113 4.99194 11.3108
148 2 8.64387 3.50147 10.7546
149 2 8.52852 4.23382 12.5854
164 2 8.79052 5.02232 16.4229
165 2 7.66858 3.51473 16.2876
166 2 7.91296 4.5438 14.6835
167 2 9.34185 1.4821 9.95455
331 2 6.82003 6.12378 16.014
169 2 8.71272 3.01179 8.97948
328 2 4.40888 7.00022 17.0083
174 2 6.84084 3.1677 9.32271
172 2 11.0695 1.93134 12.6643
119 2 8.73533 4.8837 8.88734
229 3 7.15356 2.02928 13.345
258 3 9.573 1.69186 14.5689
259 3 12.6496 2.63412 9.46163
343 2 11.0299 6.95266 16.7591
270 3 10.6702 4.15912 13.8794
271 3 11.0619 3.97896 11.3351
274 3 9.97366 6.23915 12.5237
96 2 11.5317 5.07397 15.9192
323 1 10.9096 5.87852 17.0294
329 1 7.26587 7.12158 16.3683
144 2 7.16257 1.24595 10.2347
171 2 10.399 0.558284 11.4663
142 2 6.04635 3.9258 17.5996
45 4 5.29004 13.8113 2.93879
57 4 8.99832 9.23268 1.64661
58 4 3.48419 11.8637 4.45847
59 4 6.45414 11.7054 1.0628
62 4 6.0217 11.4671 6.24455
349 2 8.60038 12.6989 2.96722
83 1 5.84788 8.4145 2.58126
84 1 9.22561 9.11774 5.45312
122 2 8.94909 9.98063 0.162506
87 1 7.55316 11.7403 5.0231
88 1 5.96547 13.1394 7.18589
110 2 3.47158 8.57887 7.78075
286 3 6.38309 10.2995 7.34196
123 2 8.09519 11.724 1.31725
124 2 7.53329 9.56903 2.4077
125 2 5.96803 10.28 1.8656
126 2 2.28609 12.8445 8.61844
156 2 5.56735 8.66185 7.592
176 2 4.64301 8.37859 2.21664
177 2 6.5844 8.32544 1.70954
178 2 6.05172 9.24264 3.34276
179 2 8.3833 9.7032 4.87517
180 2 10.1903 9.22455 4.9536
181 2 9.3068 9.41642 6.56925
182 2 9.39411 10.4228 7.81776
183 2 8.91132 8.55759 7.9819
187 2 7.73499 10.891 4.26455
188 2 8.41714 11.9094 5.75431
189 2 7.16192 12.7406 4.45439
190 2 6.70068 13.0791 8.08122
191 2 4.96822 13.4884 7.39447
275 3 8.87381 7.73893 1.39327
277 3 3.10745 10.7654 3.14639
278 3 4.00856 13.2909 3.84469
85 1 8.93526 9.62704 8.53063
280 3 5.76339 12.9373 1.65774
285 3 4.77828 11.187 5.37233
350 2 6.40971 13.7774 6.29934
76 1 5.19045 7.59502 7.75875
78 1 1.136 14.1291 1.29355
162 2 1.80749 14.1469 0.441183
276 3 10.1176 9.93652 2.56802
5 3 6.57935 14.1552 3.77596
279 3 2.20318 11.9503 5.3635
115 2 2.29594 13.9579 2.89172
198 2 3.21977 11.3839 0.43374
185 2 9.05924 13.035 1.01473
158 2 4.63342 7.4639 8.70963
43 4 2.5952 10.0143 13.9684
288 3 3.71328 10.4286 15.1715
53 4 6.47309 8.12538 10.9873
283 3 2.78701 10.4412 9.60234
60 4 7.27657 10.3082 9.00046
61 4 2.98351 11.9975 9.87634
63 4 9.4931 10.0521 14.3456
64 4 3.76436 11.8653 16.0012
65 4 8.51434 12.8259 12.96
89 1 8.87778 10.028 16.1446
90 1 4.01098 13.3779 14.8261
91 1 2.11494 11.9359 16.9645
92 1 4.78067 12.6945 10.1571
93 1 6.58023 12.7924 12.9667
290 3 9.01573 11.5179 13.7115
289 3 5.17612 12.1238 17.2004
184 2 9.54141 9.52866 9.49482
192 2 9.44537 9.12276 16.5778
193 2 7.76554 9.86377 15.9956
56 4 9.29313 7.6577 12.0501
195 2 4.97658 13.0645 14.1434
196 2 4.23171 14.2324 15.5114
197 2 3.10936 13.5647 14.17
200 2 1.93054 13.0927 16.401
14 4 11.4177 7.6191 9.81915
194 2 9.18501 11.1349 16.433
202 2 5.19397 11.8873 10.8368
203 2 4.59974 13.7142 10.7501
204 2 6.40447 11.8172 13.546
205 2 5.89202 12.8374 11.8494
206 2 6.52386 13.7865 13.667
201 2 5.26478 12.7948 9.10474
255 3 1.96104 11.2604 13.2953
256 3 1.33166 13.9602 13.0976
272 3 10.3436 8.13579 10.8628
330 2 6.7746 8.07672 15.9384
281 3 6.63617 9.56626 10.332
282 3 7.81899 11.7396 9.32812
284 3 2.15919 12.5685 11.0504
287 3 9.23986 8.6926 13.3733
316 4 8.97111 12.7073 9.84579
326 1 3.59121 7.75703 16.8528
44 4 1.45638 12.5138 12.4255
266 3 5.17504 7.72599 11.894
347 2 3.80312 8.83627 17.1017
105 2 0.269119 14.7839 15.3548
ITEM: TIMESTEP
100
ITEM: NUMBER OF ATOMS
350
ITEM: BOX BOUNDS xy xz yz pp pp pp
-8.0552999999999990e+00 1.5678200000000000e+01 -7.0408999999999997e+00
0.0000000000000000e+00 1.4901847200000001e+01 -1.0144000000000000e+00
0.0000000000000000e+00 1.7638300000000001e+01 6.7533749999999948e-01
ITEM: ATOMS id type x y z
346 2 6.00038 2.25847 0.802434
9 4 0.537821 2.62178 5.74803
13 4 0.143176 4.939 8.18124
15 4 -1.29008 7.12428 6.62993
23 4 3.33501 2.41755 4.03093
26 4 6.06375 1.47882 5.11658
30 4 4.59139 4.73882 2.37007
314 3 -3.26672 6.43908 3.34265
32 4 3.17264 6.96212 0.637618
33 4 5.5976 3.61711 7.08905
108 2 5.23777 3.4493 1.34044
70 1 2.77684 1.24099 2.58002
74 1 1.36734 5.87018 4.06458
97 2 -2.09314 6.08207 5.52308
227 3 6.2544 0.260215 6.0968
107 2 1.96923 2.93898 8.72637
140 2 3.28288 1.62234 1.63004
141 2 1.58045 1.40405 2.55355
150 2 1.88402 4.97049 4.42791
151 2 1.91546 6.33159 3.17754
152 2 0.268777 5.71483 3.88779
304 3 -0.0955364 1.73648 2.35602
207 3 -0.865438 2.65334 4.85928
208 3 0.321573 1.00608 6.36333
212 3 0.457291 3.9365 6.78179
213 3 -0.96085 6.13065 7.75752
224 3 1.99361 2.7243 4.81564
225 3 2.61374 0.651535 7.59361
226 3 4.52932 1.57234 4.58129
303 2 0.562238 4.99921 1.34539
230 3 3.75396 3.79356 3.2972
232 3 3.75364 5.76534 1.564
233 3 4.46436 2.53684 7.97836
301 2 2.23848 4.17359 0.895938
302 2 1.41774 3.90843 2.59567
237 3 2.88147 6.87226 6.39486
238 3 4.90388 4.94752 6.64706
300 1 1.25375 4.11598 1.50451
139 2 3.09782 0.211766 2.84123
299 4 0.210189 2.72831 0.858355
25 4 3.21508 1.80525 8.43098
163 2 6.71799 0.404746 1.03512
210 3 -1.27165 3.4514 0.208349
94 2 -0.763369 1.29139 8.77205
6 4 1.05834 1.88711 16.2341
10 4 -0.624854 2.48492 13.6386
12 4 -2.94406 5.48047 17.2603
296 2 4.29692 2.23306 11.094
16 4 -0.373562 5.65967 13.6368
17 4 -1.38217 7.33043 11.407
291 4 3.24601 0.789168 12.9133
28 4 3.7834 3.69343 16.1247
34 4 1.54195 6.88859 9.87737
36 4 4.59484 5.05987 13.4813
37 4 -0.414712 7.00546 16.3303
326 1 3.37994 7.56915 16.8064
338 2 -3.05962 5.82378 12.9006
72 1 6.2485 1.93132 10.6914
71 1 5.24854 3.44262 17.4687
98 2 0.813 6.29957 12.5466
104 2 3.57473 1.15191 9.9611
242 3 0.724623 7.30369 17.5295
297 2 3.08235 3.29268 12.0589
128 2 -0.04195 1.54955 11.5979
66 1 -1.17974 1.86099 11.9202
235 3 1.52912 5.57874 8.88736
298 2 4.76677 2.11226 14.1577
143 2 5.40164 2.35765 16.4374
145 2 5.4696 2.27486 9.95591
146 2 5.89314 1.01094 11.2373
209 3 0.365929 1.5499 14.4562
294 2 1.75742 1.49358 12.4396
211 3 -0.761394 3.76254 9.35829
214 3 -0.543211 4.06185 13.575
215 3 -2.71436 7.11218 10.5139
216 3 -1.72396 6.54771 13.2445
228 3 2.41878 2.77748 16.3
236 3 0.0646834 6.66104 11.104
239 3 4.1693 4.41461 14.7919
305 3 -0.0517587 2.5556 17.3149
241 3 0.103141 6.18821 15.1376
243 3 -1.91655 6.60011 16.9784
244 3 2.87598 7.03174 10.6303
245 3 3.42688 6.01817 12.9081
106 2 4.04083 4.90258 17.4407
292 1 3.17112 2.37481 11.436
293 1 4.43559 1.03127 14.2771
295 2 2.3926 2.42978 10.5522
240 3 5.30319 3.90042 12.5064
345 2 3.41687 0.856868 15.085
129 2 -1.35727 2.90602 11.4338
327 2 2.88002 7.38392 15.8383
18 4 -5.15315 11.4898 2.99319
19 4 -2.98089 9.50295 7.72808
20 4 -4.49333 11.7955 6.08024
24 4 -0.358967 14.0211 7.62043
39 4 2.33416 9.35692 2.756
40 4 2.30006 9.45381 8.47164
42 4 1.18124 11.7247 6.49956
75 1 0.57238 9.73175 2.06324
86 1 -6.05722 12.9001 1.88058
99 2 -4.22153 12.3186 1.67064
100 2 -3.20815 12.6664 6.70553
111 2 -0.184937 11.2478 5.7021
153 2 0.651561 10.8613 1.9962
154 2 -0.278138 9.45948 2.73018
155 2 0.696119 9.10086 1.08622
309 2 -0.690592 7.48949 3.18918
186 2 -5.4066 13.8753 2.21581
218 3 -2.20305 8.32932 6.98292
219 3 -4.5848 11.8405 4.42704
220 3 -4.14093 10.3523 6.58413
221 3 -5.71786 12.4365 6.82795
335 2 -0.732428 10.1313 0.592765
246 3 2.11159 8.50861 4.08817
247 3 3.21463 8.6273 1.54072
7 4 -5.81782 14.2298 7.33435
250 3 -1.51891 13.2343 8.36205
252 3 1.75341 10.4755 7.44751
231 3 0.212218 7.54218 5.91997
341 2 -5.03756 13.553 0.255071
306 4 -2.37764 7.57641 2.6751
307 4 -2.28856 9.42729 0.333089
308 1 -1.78864 8.9046 3.96223
310 2 -3.51278 10.5284 0.497679
311 2 -1.70798 9.82778 3.29422
312 2 -0.923664 8.74272 4.59718
313 2 -2.80998 8.81292 4.60335
315 3 -2.48667 8.19006 1.23313
249 3 -2.10697 10.6178 8.34078
348 2 0.92419 13.1369 1.03329
253 3 0.923289 13.0739 7.37302
31 4 1.6852 7.32427 5.26443
21 4 -2.02276 10.5464 14.2191
22 4 -3.38581 12.0943 11.6574
41 4 -1.54789 11.8166 9.22487
68 1 -3.03437 8.82692 14.6166
69 1 -0.866895 9.11384 11.4532
77 1 1.04611 9.44843 15.0059
101 2 -0.282073 10.6809 14.2324
102 2 -2.10576 11.4403 15.7412
103 2 -4.86866 11.4816 11.3106
112 2 -0.609709 8.62241 15.7729
113 2 0.0812342 11.4575 9.56134
114 2 -0.258967 11.9382 12.3125
133 2 -1.82979 8.64919 14.351
134 2 -3.59836 8.7084 13.6113
135 2 -3.35545 8.02069 15.2602
136 2 -0.149204 9.12478 10.539
137 2 -0.387488 9.43352 12.4252
138 2 -1.91056 9.63511 11.2348
159 2 0.674166 10.4105 15.6028
321 2 -4.34803 14.4574 16.8021
161 2 0.34102 9.02042 14.2539
127 2 -6.73925 14.2617 13.8906
248 3 1.34264 8.35481 9.0511
222 3 -2.74454 11.2141 12.9326
223 3 -3.64245 13.628 12.1289
334 2 -3.42895 9.80266 16.2044
251 3 -2.35297 11.9099 10.5176
339 2 -4.5572 10.0543 14.6497
316 4 -6.65263 12.8713 9.82048
317 2 -5.16902 12.1472 9.40621
318 3 -6.76464 14.3092 9.07685
320 1 -5.52298 14.4341 16.8276
160 2 1.61018 8.67407 15.6511
322 2 -5.96673 13.7896 15.9382
254 3 3.00393 8.68867 12.9678
199 2 1.43377 11.138 16.4989
217 3 -3.93005 9.0864 9.09992
319 3 -6.71903 13.043 11.4067
344 2 -1.84691 14.3891 14.2614
1 4 14.4603 1.68902 3.62556
2 1 13.0725 2.65345 2.79854
3 2 12.883 2.44151 1.71529
4 2 12.1908 2.31612 3.53423
340 2 13.2008 3.81099 2.96222
11 4 11.159 5.58872 4.06209
46 4 8.26704 1.33709 2.42066
49 4 10.0959 3.84334 1.89949
50 4 6.14832 6.8299 3.79456
51 4 8.5629 6.33914 0.792192
52 4 9.74781 5.98048 7.91062
35 4 4.41761 6.46554 6.31656
67 1 12.1044 4.72113 5.57863
162 2 8.49437 0.504919 0.278793
82 1 7.01708 4.09579 8.36559
95 2 13.5539 2.90603 7.15079
342 2 13.0794 4.0818 5.17018
117 2 11.4083 3.80736 0.726837
120 2 10.5914 4.92641 6.85084
131 2 11.2784 3.85669 5.55219
132 2 12.2403 5.21462 6.58859
157 2 6.21986 6.90261 7.83459
173 2 7.89376 3.85682 7.61704
234 3 6.36794 2.92407 5.90501
257 3 7.22166 1.49873 3.68481
175 2 6.96253 5.17238 8.65705
260 3 9.32889 2.42225 1.99113
261 3 10.6765 4.34146 3.28141
262 3 6.00757 5.48496 2.90525
337 2 11.8043 1.06702 2.45431
264 3 9.12965 4.99459 1.31667
336 2 7.25109 1.1072 8.59648
267 3 10.1483 6.5891 4.82189
268 3 7.56632 7.08053 4.52389
269 3 8.68418 6.94964 7.30969
168 2 10.3614 2.31029 8.37009
324 2 12.2061 5.47109 0.922863
263 3 4.99497 7.08051 4.84889
54 4 8.87899 7.28145 5.46829
118 2 6.82134 6.14795 0.604843
119 2 8.88114 4.81131 8.70901
158 2 4.52981 7.2872 8.65753
8 4 13.9853 2.7304 8.78545
170 2 12.3913 0.695024 11.8384
27 4 8.10388 0.909333 14.1509
29 4 6.6059 3.04346 12.2975
332 2 8.11724 7.19486 16.1647
47 4 9.75722 3.34364 14.7282
48 4 11.2155 2.66404 10.4973
55 4 11.0777 5.09948 12.5377
73 1 7.95229 4.20879 11.4483
79 1 8.31686 4.22598 15.6433
80 1 9.66574 2.46362 9.3305
81 1 11.3272 1.14894 11.8076
333 2 13.4117 1.78929 13.5317
130 2 13.7412 1.05437 11.582
109 2 5.8023 6.11191 13.8708
116 2 10.0469 3.66502 16.4123
325 2 9.74 5.4295 16.9906
121 2 6.05647 6.82961 9.46079
273 3 7.8719 7.52026 11.2983
147 2 7.36991 4.99348 10.9183
148 2 8.67916 3.55829 10.7039
149 2 8.49282 4.56705 12.3882
164 2 8.65951 5.27039 15.9758
165 2 7.67277 3.71111 16.4523
166 2 7.68175 4.38319 14.6045
167 2 9.37329 1.41397 9.76114
331 2 6.62393 6.05668 16.2361
169 2 8.72497 3.01106 9.02567
328 2 4.14614 6.75845 17.021
174 2 6.85135 3.3134 9.24355
172 2 11.0131 1.58058 12.7979
265 3 10.7314 6.48058 8.92879
229 3 7.2192 1.98947 13.4743
258 3 9.46519 1.71506 14.4648
259 3 12.6995 2.51582 9.72481
343 2 10.7856 7.07557 16.6868
270 3 10.7469 4.24229 13.8183
271 3 11.0888 4.14133 11.2419
274 3 9.96384 6.22318 12.4823
96 2 11.7577 5.18262 15.7302
323 1 10.8166 5.96871 17.1131
329 1 7.00636 7.00776 16.6104
144 2 7.23129 1.7524 10.1847
38 4 3.68411 7.48977 12.0319
142 2 6.29182 3.91772 17.4902
171 2 10.5843 0.468556 11.4467
45 4 5.31846 13.7583 2.90347
57 4 9.04491 9.20125 1.77325
58 4 3.38342 11.7374 4.38106
59 4 6.33478 11.6229 1.10042
62 4 5.92089 11.4353 6.41155
349 2 8.72099 12.6144 3.04458
83 1 5.86784 8.44851 2.64443
84 1 9.17316 9.17585 5.46966
122 2 9.05846 9.98764 0.233279
87 1 7.46693 11.7877 5.19783
88 1 5.98178 13.1395 7.32638
110 2 3.6855 8.70993 7.72919
286 3 6.23744 10.3471 7.5211
123 2 8.01386 11.8446 1.31246
124 2 7.5159 9.49924 2.38771
125 2 5.89617 10.3405 2.09425
126 2 2.93163 12.8093 8.43606
156 2 5.57772 8.64067 7.66897
176 2 4.80015 8.51897 2.19903
177 2 6.66244 8.33534 1.8342
178 2 6.01566 9.31934 3.36594
179 2 8.3796 9.7713 4.90644
180 2 10.2597 9.18987 5.03272
181 2 9.00252 9.33794 6.68526
182 2 9.37219 10.2657 7.97167
183 2 8.75177 8.45027 8.08665
187 2 7.58745 10.8483 4.44914
188 2 8.38123 11.9747 5.898
189 2 7.10837 12.7645 4.61655
190 2 6.47285 13.2853 8.27617
191 2 4.78071 13.3215 7.43175
275 3 9.05274 7.71276 1.37122
277 3 3.19251 10.7092 3.25164
278 3 4.08902 13.1255 3.6271
85 1 8.86297 9.4701 8.64634
280 3 5.59436 12.8786 1.63671
285 3 4.63744 11.3034 5.49917
350 2 6.48535 13.797 6.62742
76 1 5.29445 7.53231 7.7746
78 1 0.849045 14.2595 1.1283
198 2 2.97813 11.5546 0.344152
276 3 10.1316 9.98114 2.61256
5 3 6.53433 14.1948 3.83762
279 3 2.07173 12.0222 5.17154
115 2 2.09037 14.008 2.555
185 2 9.17482 13.0594 0.862672
43 4 2.57112 10.0202 13.9227
288 3 3.65906 10.3822 15.1126
53 4 6.45212 7.90055 10.7512
283 3 2.98299 10.4143 9.65426
60 4 7.26182 10.3872 9.0788
61 4 3.01022 12.0079 9.90823
63 4 9.40693 10.0606 14.319
64 4 3.84177 11.862 16.0968
65 4 8.46574 12.8962 12.951
89 1 8.73077 10.1058 16.0616
90 1 4.01795 13.3861 14.9032
91 1 2.04611 12.044 16.8579
92 1 4.82835 12.5296 10.2614
93 1 6.54761 12.789 13.0475
290 3 8.96002 11.4625 13.6308
289 3 5.02868 11.959 17.2302
184 2 9.38854 9.37882 9.70398
192 2 9.67054 9.72381 16.574
193 2 7.82757 9.25946 15.7819
266 3 5.22604 7.78251 11.7305
195 2 4.96064 13.1372 14.2101
196 2 4.09853 14.2636 15.5693
197 2 3.03305 13.4358 14.3203
200 2 1.82749 12.9737 16.2341
14 4 11.4563 7.65552 9.86984
194 2 8.48229 11.2189 16.3601
202 2 5.33305 11.7535 10.8523
203 2 4.67226 13.6468 10.8386
204 2 6.42123 11.8103 13.6938
205 2 5.96613 12.7468 12.0642
206 2 6.45848 13.8205 13.5888
201 2 5.35932 12.6692 9.18574
255 3 1.93727 11.3241 13.2781
256 3 1.31721 13.8719 13.2692
272 3 10.4625 8.24242 11.0522
330 2 6.42506 7.90401 16.3084
281 3 6.47785 9.41831 10.2426
282 3 7.77689 11.7868 9.49861
284 3 1.94959 12.6291 10.97
287 3 9.17842 8.72331 13.3261
347 2 3.75172 8.69408 17.026
105 2 0.45417 14.5625 15.6274
44 4 1.32716 12.4682 12.4068
56 4 9.33244 7.58388 12.0446
ITEM: TIMESTEP
200
ITEM: NUMBER OF ATOMS
350
ITEM: BOX BOUNDS xy xz yz pp pp pp
-8.0552999999999990e+00 1.5678200000000000e+01 -7.0408999999999997e+00
0.0000000000000000e+00 1.4909294400000000e+01 -1.0144000000000000e+00
0.0000000000000000e+00 1.7638300000000001e+01 6.7567500000000003e-01
ITEM: ATOMS id type x y z
346 2 6.00919 2.36836 0.872722
9 4 0.477616 2.5167 5.77619
13 4 0.0603485 4.89999 8.21449
15 4 -1.22006 7.20457 6.62574
23 4 3.2221 2.36842 4.07846
26 4 6.04814 1.44575 4.93776
30 4 4.53406 4.74285 2.39316
314 3 -3.271 6.48583 3.35768
32 4 2.92658 6.91222 0.597318
33 4 5.64065 3.57792 7.14118
108 2 5.12611 3.5446 1.31511
70 1 2.69137 1.22812 2.56428
74 1 1.47489 5.89173 4.11493
97 2 -2.03944 6.33059 5.39454
227 3 6.35206 0.379372 6.08125
107 2 2.0185 2.79935 8.65416
140 2 3.22962 1.64641 1.64137
141 2 1.56488 1.36944 2.59705
150 2 1.72337 5.03157 4.88163
151 2 2.3147 6.00317 3.31252
152 2 0.442048 5.76624 3.61679
304 3 -0.171032 1.5647 2.37736
207 3 -0.910758 2.76288 4.68237
208 3 0.268742 1.08037 6.45065
212 3 0.581165 3.75244 6.88541
213 3 -0.763003 6.11932 7.68341
224 3 1.86195 2.45275 4.95101
225 3 2.70465 0.448775 7.59802
226 3 4.39141 1.50941 4.58791
303 2 0.548245 4.93712 1.4368
230 3 3.75082 3.81742 3.41288
232 3 3.7494 5.81997 1.51065
233 3 4.4491 2.5916 7.96093
301 2 1.95428 3.92927 0.509058
302 2 1.55933 3.74455 2.46618
237 3 2.93057 6.89228 6.48845
238 3 5.09165 5.02021 6.7497
300 1 1.14893 4.00185 1.44134
139 2 3.00964 0.179269 2.818
299 4 0.0853695 2.56708 0.811104
25 4 3.25125 1.70721 8.4057
163 2 6.52045 0.729412 1.29434
210 3 -1.21736 3.34258 0.276801
257 3 7.01113 1.38416 3.7089
6 4 0.981802 1.9356 16.3251
10 4 -0.714596 2.58421 13.7131
12 4 -2.92222 5.49946 17.373
296 2 4.26031 2.15023 11.0494
16 4 -0.300379 5.80583 13.7554
17 4 -1.25968 7.29474 11.3841
291 4 3.12344 0.737986 12.8836
28 4 3.74014 3.60105 16.0575
34 4 1.609 6.9339 9.84344
36 4 4.71292 5.09965 13.5052
37 4 -0.450846 7.20839 16.3774
327 2 2.72566 7.06638 15.9002
338 2 -3.08869 5.83982 12.831
72 1 6.15155 1.71504 10.5914
71 1 5.09521 3.48566 17.419
98 2 0.941293 6.13285 12.5748
104 2 3.55014 1.03214 9.9879
242 3 0.567857 7.27741 17.5931
297 2 3.13125 3.28795 11.9775
128 2 -0.0696116 1.38832 11.9472
66 1 -1.18327 1.85389 12.0275
235 3 1.40637 5.48694 9.01976
298 2 4.87659 1.79062 13.9322
143 2 5.29238 2.28763 16.4518
145 2 5.47892 2.09268 9.78867
146 2 5.71303 0.775629 11.0611
209 3 0.112431 1.62074 14.626
294 2 1.67206 1.62794 12.5414
211 3 -0.981398 3.95939 9.14865
214 3 -0.491064 4.20386 13.6501
215 3 -2.6246 7.28407 10.5547
216 3 -1.66662 6.46732 13.1792
228 3 2.37952 2.79778 16.25
236 3 0.198808 6.73912 11.218
239 3 4.14219 4.34844 14.7475
305 3 0.0526508 2.49244 17.4488
241 3 0.087129 6.36531 15.1697
243 3 -1.88602 6.64355 16.9077
244 3 3.01152 7.12534 10.616
245 3 3.62222 6.07983 12.9179
106 2 3.83624 4.83612 17.3608
292 1 3.15777 2.30995 11.4519
293 1 4.22341 0.819281 14.3193
295 2 2.42787 2.31519 10.511
94 2 -0.828805 1.26359 9.05483
345 2 3.42819 0.940266 15.161
129 2 -1.36105 2.73248 11.3359
18 4 -5.19534 11.3553 3.05842
19 4 -3.14584 9.6735 7.73156
20 4 -4.44409 11.8462 6.05223
24 4 -0.255236 13.9935 7.47872
39 4 2.36944 9.31137 2.70758
40 4 2.40769 9.41074 8.37897
42 4 1.28918 11.6945 6.43518
75 1 0.672446 9.6602 1.92183
86 1 -6.22424 12.8651 1.94575
99 2 -4.50409 12.2261 1.68631
100 2 -3.26107 12.9361 6.38418
111 2 -0.292693 11.2617 5.91539
153 2 0.894609 10.7728 1.51281
154 2 -0.11177 9.50275 2.78208
155 2 0.578392 8.87497 1.06968
309 2 -0.773173 7.70974 3.27368
186 2 -5.69974 13.8715 2.31637
218 3 -2.15346 8.31597 7.16376
219 3 -4.41448 11.7788 4.34009
220 3 -4.04959 10.4033 6.5514
221 3 -5.78665 12.4241 6.71249
335 2 -0.66382 9.96073 0.464223
246 3 2.09702 8.44558 4.2297
247 3 3.07775 8.53652 1.53613
7 4 -5.83557 14.2208 7.28816
250 3 -1.3439 13.1644 8.36519
252 3 1.78025 10.457 7.34684
231 3 0.119561 7.7171 5.89497
341 2 -5.10853 13.4958 0.413201
306 4 -2.42088 7.65108 2.64336
307 4 -2.25235 9.38596 0.247504
308 1 -2.01145 9.02894 3.91972
310 2 -3.28035 10.7432 0.441554
311 2 -2.09906 10.0325 3.32187
312 2 -1.0746 8.96234 4.66315
313 2 -3.04137 8.80249 4.5275
315 3 -2.60568 8.29222 1.2586
249 3 -2.01921 10.7343 8.22921
348 2 0.640799 13.4396 1.32349
253 3 1.05058 13.0582 7.32785
31 4 1.56474 7.37068 5.23429
21 4 -2.02094 10.6001 14.2037
22 4 -3.24127 12.115 11.7583
41 4 -1.49055 11.8113 9.19847
68 1 -3.30355 8.98325 14.3625
69 1 -0.842792 9.08156 11.6203
77 1 1.09316 9.41008 14.9362
101 2 -0.280586 10.6511 14.2154
102 2 -2.47471 11.4287 15.6078
103 2 -4.70047 11.4449 11.3461
112 2 -0.65655 8.77811 15.704
113 2 0.0253906 11.2908 9.83331
114 2 -0.273413 12.2096 11.9377
133 2 -2.14946 8.6478 14.1745
134 2 -3.84986 9.14779 13.3349
135 2 -3.77782 8.17475 14.9683
136 2 -0.13808 9.27368 10.7495
137 2 -0.303905 9.15935 12.5874
138 2 -1.78929 9.76701 11.6375
159 2 0.653807 10.2715 15.6424
321 2 -4.3771 14.7675 17.3989
161 2 0.321752 8.85052 14.1984
127 2 -6.78074 14.3157 13.89
248 3 1.3615 8.32895 9.0909
222 3 -2.6354 11.3119 12.9793
223 3 -3.69263 13.6122 12.2753
334 2 -3.44439 9.52534 16.259
251 3 -2.37731 11.9677 10.5136
339 2 -4.77655 10.1583 14.8782
316 4 -6.759 12.9609 9.82311
317 2 -5.30876 12.2867 9.37986
318 3 -6.81513 14.2782 8.98674
320 1 -5.42888 14.5883 17.0999
160 2 1.73662 8.69491 15.6105
322 2 -5.6378 13.8607 16.1456
344 2 -2.14025 14.1275 14.5864
199 2 1.17999 11.4885 16.0709
217 3 -4.12173 9.00199 8.84765
319 3 -6.73479 13.1475 11.4378
14 4 -4.22448 7.77031 9.92931
326 1 3.04903 7.78034 16.7356
254 3 2.97552 8.81986 12.718
1 4 14.388 1.7089 3.52156
2 1 12.9418 2.70762 2.71917
3 2 12.8386 2.51114 1.64155
4 2 12.0905 2.39385 3.38893
340 2 13.328 3.68522 2.94269
11 4 11.3455 5.56814 4.17291
46 4 8.22783 1.25276 2.70142
49 4 10.1029 3.89484 2.03583
50 4 6.14455 6.89626 3.76881
51 4 8.52897 6.34547 0.86554
52 4 9.73915 6.0057 7.94824
35 4 4.47869 6.56379 6.32498
67 1 12.3305 4.84899 5.74391
162 2 8.18925 0.6756 0.102332
82 1 7.08177 3.92513 8.43562
95 2 13.7442 2.3421 7.05163
8 4 13.8775 2.64766 8.73879
117 2 11.3891 3.91123 0.877821
120 2 10.7089 5.13004 6.83678
131 2 11.6274 4.00297 6.08419
342 2 13.2773 4.44225 5.14635
157 2 6.45182 6.81751 7.49017
173 2 7.88291 3.50819 7.70779
234 3 6.46706 2.87532 5.86381
158 2 4.86038 7.36663 8.60041
175 2 6.98258 5.10841 8.56499
260 3 9.32256 2.45538 2.23794
261 3 10.8534 4.34991 3.33378
262 3 5.94004 5.50794 2.96647
337 2 11.8099 1.1069 2.3165
264 3 9.1322 4.93675 1.37109
336 2 7.09435 1.10631 8.47289
267 3 10.2475 6.47906 4.82632
268 3 7.63458 7.07878 4.55589
269 3 8.73158 6.93111 7.2294
168 2 10.1462 1.85884 8.47175
324 2 12.5167 5.37566 1.14295
263 3 4.95167 6.89826 4.84539
78 1 7.69773 0.328181 1.12237
118 2 6.72147 6.26344 0.680109
119 2 8.88545 4.67779 8.60129
132 2 12.6718 5.28279 6.72882
170 2 12.3843 0.650317 12.1193
27 4 8.08773 1.00373 14.0801
29 4 6.53697 2.98838 12.1372
332 2 7.9309 7.04036 16.2355
47 4 9.75229 3.3403 14.7599
48 4 11.2324 2.61251 10.4658
55 4 11.0376 5.10082 12.5333
73 1 7.99611 4.09765 11.5317
79 1 8.41585 4.28957 15.7217
80 1 9.64093 2.31323 9.42804
81 1 11.3343 1.15026 11.9414
333 2 13.2606 2.17225 13.5062
130 2 13.6817 1.09843 11.751
109 2 5.96691 5.9904 14.1367
116 2 10.08 3.55659 16.4731
325 2 9.81604 5.47888 17.2661
121 2 6.25625 6.86296 9.31694
273 3 7.95704 7.50978 11.1206
147 2 7.46697 4.97877 10.9774
148 2 8.62699 3.39914 10.8406
149 2 8.54168 4.46326 12.4183
164 2 8.73098 5.1526 16.5058
165 2 7.62649 3.67652 16.1344
166 2 7.9576 4.77436 14.7063
167 2 9.30471 1.45789 10.1833
331 2 6.1577 6.18766 16.5865
169 2 8.74331 2.99004 9.18033
328 2 4.03815 7.49109 17.1856
174 2 6.7985 3.20517 9.38314
172 2 11.0473 1.78177 12.8155
265 3 10.5998 6.63806 9.05441
229 3 7.23813 2.07873 13.2808
258 3 9.49159 1.63366 14.5532
259 3 12.4903 2.4486 9.5238
343 2 10.7451 6.93303 16.6837
270 3 10.8299 4.14698 13.8518
271 3 11.0651 3.99496 11.4062
274 3 9.90122 6.20278 12.4003
96 2 11.6863 4.93665 15.9114
323 1 10.8559 5.90821 17.1753
329 1 6.76625 7.1545 16.7483
144 2 7.17988 1.49205 10.232
142 2 6.01726 4.03144 17.323
38 4 3.74888 7.54231 11.9926
240 3 5.40251 4.09225 12.4868
171 2 10.4652 0.471578 11.6344
45 4 5.31658 13.8568 2.96494
57 4 8.97076 9.22904 1.65895
58 4 3.53593 11.7985 4.34702
59 4 6.29913 11.6488 1.13819
62 4 5.9757 11.5256 6.41355
349 2 8.60338 12.3751 3.09775
83 1 5.84326 8.38703 2.49909
84 1 9.30073 9.18602 5.24508
122 2 8.68395 10.1122 0.222785
87 1 7.47725 11.7155 5.22469
88 1 6.00865 13.3326 7.21411
110 2 3.8931 8.70888 7.83801