ITEM: TIMESTEP
0
ITEM: NUMBER OF ATOMS
350
ITEM: BOX BOUNDS xy xz yz pp pp pp
-8.0552999999999990e+00 1.5678200000000000e+01 -7.0408999999999997e+00
0.0000000000000000e+00 1.4894400000000001e+01 -1.0144000000000000e+00
0.0000000000000000e+00 1.7638300000000001e+01 6.7500000000000004e-01
ITEM: ATOMS id type q x y z
225 3 -0.818304 2.51829 0.555654 8.76319
9 4 1.49298 0.7223 2.42944 5.80253
13 4 1.42595 0.286519 4.79046 7.9741
235 3 -0.815476 1.56194 5.66927 8.71619
23 4 1.27534 3.1633 2.3674 3.68695
26 4 1.49474 5.69335 1.65892 5.4338
30 4 1.31608 5.10829 4.83182 2.29502
210 3 -0.762797 -1.47351 3.58221 0.0758789
32 4 1.2872 3.62183 6.92784 0.46533
33 4 1.41027 4.61573 3.82562 7.27445
35 4 1.37014 4.00005 6.72523 6.12657
70 1 -0.656112 3.29807 1.29297 2.12838
74 1 -0.6815 0.884568 5.77364 3.7161
97 2 0.023391 -2.58436 6.46991 6.01422
15 4 1.37603 -1.21822 7.13023 6.79746
346 2 0.152448 5.79829 1.99381 0.969199
140 2 0.178021 4.04264 1.76616 1.29742
141 2 0.183883 2.32577 0.973336 1.67255
150 2 0.221136 1.85192 5.15536 3.76493
151 2 0.17448 0.638612 6.24232 2.70611
152 2 0.173601 -0.0134875 5.24177 4.17808
139 2 0.160892 3.8137 0.334941 2.67132
207 3 -0.786954 -0.857171 2.30494 5.0086
208 3 -0.870099 0.942974 1.14097 6.71697
212 3 -0.85834 0.664806 3.78436 6.74864
213 3 -0.874771 -0.979046 5.76668 7.63008
224 3 -0.826919 1.74177 2.59923 4.47047
304 3 -0.798386 -0.881284 2.00426 2.40434
226 3 -0.807814 4.38646 1.68594 4.4949
324 2 0.0634392 -2.17542 6.00409 1.23441
230 3 -0.754257 4.09172 3.88556 3.1014
232 3 -0.855349 4.40893 5.89043 1.4354
233 3 -0.823234 3.52968 3.08336 8.19447
314 3 -0.829144 -3.29431 7.23278 3.83518
303 2 0.207459 0.687321 4.56733 0.830856
237 3 -0.832966 2.5297 7.24178 5.83593
238 3 -0.830675 4.19065 5.06541 6.41837
309 2 0.00749554 -0.882004 6.646 3.52755
234 3 -0.855906 5.60255 2.69701 6.6341
299 4 1.26422 -0.395909 2.50018 0.913421
300 1 -0.643004 1.09884 3.55855 1.24713
301 2 0.206295 2.01805 3.1962 0.642524
302 2 0.217522 1.16679 3.55496 2.39727
348 2 0.151068 6.59018 0.752786 2.18558
106 2 0.0681072 4.21695 3.43336 0.21474
342 2 0.124123 -2.52438 4.7283 5.18856
6 4 1.23896 0.225426 1.39671 16.3405
10 4 1.04367 -1.08095 2.24144 13.4414
12 4 0.998028 -2.74439 5.83445 17.293
107 2 0.0702802 0.984367 2.72792 9.40121
16 4 1.22186 -0.128643 5.25498 13.7249
305 3 -0.762897 -0.708713 2.16184 17.3632
294 2 0.0652126 2.36519 1.40063 14.2724
28 4 1.0158 3.02363 3.08845 16.083
34 4 1.49715 1.61323 7.01728 9.54241
36 4 1.1957 3.94684 4.94124 13.741
37 4 1.21913 0.0536874 6.87199 16.2529
211 3 -0.779579 -0.312211 3.54937 9.39218
242 3 -0.810464 1.32413 7.02226 17.2555
72 1 -0.678468 5.91118 1.98322 10.5532
292 1 -0.63288 2.63411 2.16348 12.6935
98 2 0.117282 1.2555 5.38263 12.7502
104 2 -0.00853011 2.9133 2.21645 10.7344
297 2 0.233054 2.26078 3.18504 12.9956
295 2 0.163608 1.87974 1.68765 12.0485
142 2 0.139032 5.23505 3.69198 17.1617
128 2 0.197648 0.0997645 2.12921 11.1359
130 2 0.174893 0.299331 0.633027 12.2417
298 2 0.15028 5.68682 1.48763 14.7304
143 2 0.0277809 4.26209 1.79764 16.3574
145 2 0.176766 4.96463 2.25652 9.9668
338 2 0.131081 -2.8617 5.68582 12.8721
209 3 -0.762478 -0.727531 1.13854 14.7079
244 3 -0.838972 3.00669 7.25506 10.4032
25 4 0.99081 2.56066 2.12184 9.0553
214 3 -0.804242 -0.540595 3.71424 13.5631
146 2 0.189514 5.93501 0.95037 10.8611
216 3 -0.788893 -1.35252 6.19343 13.0028
228 3 -0.798438 1.61085 2.26186 16.1893
236 3 -0.795051 0.297822 6.7446 10.702
239 3 -0.845884 3.44581 3.95665 14.8494
296 2 0.116305 3.97808 2.17827 12.0666
241 3 -0.803765 0.348373 5.69 15.2166
243 3 -0.829919 -1.43597 6.68524 16.8595
66 1 -0.679622 -0.391953 1.45249 11.8989
245 3 -0.822909 2.93132 5.63798 12.7765
71 1 -0.656725 4.39997 3.1082 17.6199
215 3 -0.783603 -2.55686 7.36652 10.6259
291 4 0.834334 3.91965 0.76816 13.4001
17 4 1.24988 -1.05049 7.29272 11.4189
8 4 0.955562 -1.50879 2.63995 8.84164
38 4 1.42732 3.6021 7.21453 11.9238
240 3 -0.751481 5.14652 3.91968 12.8576
18 4 1.01589 -5.4206 11.5888 3.17859
19 4 1.50006 -2.55345 9.6289 8.01445
20 4 1.26762 -4.0193 11.984 6.12374
24 4 1.23864 -0.544821 13.7763 7.35724
39 4 1.34452 2.50627 9.17239 2.57606
40 4 1.3594 2.09689 9.63059 7.8272
42 4 1.33614 0.851729 11.5221 5.9064
75 1 -0.653112 1.25607 10.337 1.66231
227 3 -0.795024 -1.49113 14.0549 6.14171
99 2 0.0189298 -4.83648 12.8322 1.91869
100 2 0.106275 -2.8085 13.0721 5.81288
111 2 0.0133399 -0.615693 10.964 5.09079
153 2 0.171321 1.3331 9.86729 0.651816
154 2 0.169247 1.60615 11.4131 1.7256
155 2 0.168118 0.250036 10.1474 2.17562
248 3 -0.814994 1.39851 8.43767 8.59937
313 2 0.25349 -2.45452 9.90828 5.15395
218 3 -0.871372 -1.73629 8.50553 7.36975
219 3 -0.799345 -4.72256 11.7756 4.57175
220 3 -0.811225 -3.34669 10.6122 6.59696
221 3 -0.854301 -5.01615 12.7166 7.02263
310 2 -0.0680847 -2.94608 10.3261 0.258936
246 3 -0.82572 1.51999 8.4117 3.60928
247 3 -0.796598 3.05567 8.38369 1.28096
315 3 -0.807684 -1.8679 8.39874 1.83007
335 2 -0.033681 -0.28991 10.2077 0.359762
252 3 -0.847506 1.18834 10.2374 6.6632
322 2 0.178757 -5.91485 13.2129 0.537455
7 4 1.37016 -5.61343 14.1162 7.73342
306 4 1.05382 -2.02116 7.93533 3.32317
307 4 0.570291 -1.68994 9.25198 0.478294
308 1 -0.665447 -1.75053 9.59805 4.24869
186 2 0.20089 -6.36204 14.0586 3.08425
311 2 0.146659 -1.88527 10.312 3.31303
312 2 0.19958 -0.674635 9.3475 4.55527
253 3 -0.866324 0.58172 12.8275 6.72549
162 2 0.164862 0.80104 13.5324 2.63016
31 4 1.37261 1.19689 7.31837 4.84852
250 3 -0.817359 -1.26968 13.16 8.69181
231 3 -0.897111 -0.19242 7.38519 5.64363
86 1 -0.664979 -6.55306 13.1928 2.42619
124 2 -0.0444288 -4.29857 8.74532 0.747135
21 4 0.673186 -2.92547 10.2752 14.4872
22 4 1.25163 -3.49979 12.2761 11.9889
41 4 1.30138 -1.50867 11.9421 9.77215
68 1 -0.644805 -4.10086 8.89792 15.2577
69 1 -0.702536 -0.661548 9.01007 12.0045
77 1 -0.678315 1.73156 9.25334 14.9646
101 2 -0.0814792 -1.63508 10.9686 15.4437
102 2 -0.00257431 -4.1622 10.4903 15.95
103 2 0.0987931 -5.21022 12.315 11.6574
112 2 -0.0267505 0.068083 8.26422 15.3434
113 2 -0.00641369 -0.202594 12.0631 10.9149
114 2 -0.0407481 -0.172721 12.0697 12.6694
133 2 0.0266384 -2.49529 8.57845 14.2999
249 3 -0.77522 -1.37709 10.6065 8.94206
344 2 0.143802 -0.991855 13.8212 14.5099
136 2 0.193082 0.367082 9.27482 11.5921
137 2 0.127896 -0.682067 8.99088 13.1353
138 2 0.200291 -1.47101 9.62886 11.5653
159 2 0.154805 1.75348 8.14186 14.6615
160 2 0.135041 0.798337 9.83534 14.5379
293 1 -0.67276 -1.7388 14.6183 14.8612
341 2 0.126566 -5.34193 13.9914 17.1529
14 4 1.49354 -4.06399 7.8571 9.8665
222 3 -0.7877 -3.19525 11.1762 13.1967
223 3 -0.841509 -3.29269 13.6548 12.6319
319 3 -0.777988 -6.64842 12.9097 11.1993
251 3 -0.856357 -2.79389 12.013 10.6189
334 2 -0.00497088 -2.78937 8.91834 16.752
345 2 0.132402 -2.25323 14.3915 15.8327
135 2 0.165472 -4.28575 8.05013 16.0734
217 3 -0.818645 -3.76328 9.22998 9.00155
320 1 -0.690746 -6.51017 13.9535 17.1157
161 2 0.168876 2.09113 9.53542 16.0586
134 2 0.191202 -4.82244 8.71171 14.4318
321 2 0.142089 -6.9789 13.2491 16.3261
127 2 0.0604792 -7.22383 13.9392 14.1286
1 4 1.21176 14.0016 1.55748 3.834
2 1 -0.685877 12.2467 2.2052 3.40153
3 2 0.176998 12.5418 2.70253 2.35817
4 2 0.16055 11.2879 1.66539 3.32482
337 2 -0.00565986 12.0901 0.655406 2.18963
11 4 1.23012 11.2612 5.67947 4.48472
46 4 1.07741 8.17311 1.6935 3.5379
49 4 1.2732 9.84649 4.073 2.35654
50 4 1.37767 6.18206 7.0069 4.05767
51 4 1.07394 8.29453 6.53498 1.21594
52 4 0.998107 9.92315 5.99944 8.19975
336 2 -0.0163856 7.22032 1.03122 7.77048
67 1 -0.675503 12.0969 4.74304 5.9409
325 2 0.165336 11.4346 5.43514 0.561168
257 3 -0.859671 6.95017 1.69362 4.55054
54 4 1.27738 8.79958 7.20719 5.79482
268 3 -0.857749 7.52105 7.0795 4.98241
117 2 -0.00100518 10.7198 3.3308 1.08519
120 2 -0.00354014 10.5181 4.75655 7.16298
131 2 0.152073 11.5738 3.78617 6.01182
168 2 0.128489 10.016 3.2595 8.51607
157 2 0.177844 5.75169 6.95156 7.93131
269 3 -0.814134 8.66837 6.76334 7.62114
340 2 0.190675 12.2119 2.93082 4.24509
95 2 -0.00516731 13.6646 2.98369 7.30218
175 2 0.175532 6.64359 5.03028 8.17244
260 3 -0.847246 8.94889 2.85221 2.85336
261 3 -0.839536 10.9652 4.62559 3.3255
262 3 -0.812209 6.19097 5.57494 3.14246
132 2 0.181222 12.3158 5.19299 6.95777
264 3 -0.830975 9.00323 5.2893 1.83954
118 2 0.0243252 6.58883 6.50539 0.84495
267 3 -0.837917 10.0423 6.30317 5.27705
163 2 0.156302 8.24296 0.560412 1.21097
78 1 -0.661471 7.75917 0.374269 2.18715
82 1 -0.663445 5.74415 4.65326 8.7544
108 2 0.00200232 6.06437 3.88348 1.15599
263 3 -0.827778 4.87176 7.26343 4.86479
115 2 0.048906 9.09997 0.167258 3.59559
94 2 0.078826 14.796 1.08549 8.71417
323 1 -0.671933 11.128 6.67172 17.6128
27 4 1.15579 8.17799 0.963744 13.9562
29 4 1.04236 6.39588 3.02242 12.1169
173 2 0.172378 5.85489 3.69609 9.49523
47 4 1.07561 9.83722 3.3731 14.7792
48 4 1.09061 11.4867 2.64897 10.6042
55 4 1.25369 11.254 5.02887 12.6768
73 1 -0.669764 7.75775 4.27696 11.5972
79 1 -0.652193 9.91248 3.7399 16.7168
80 1 -0.654197 9.87945 2.78762 9.54458
81 1 -0.656313 11.5138 1.07924 11.967
144 2 0.133579 6.9267 2.37895 9.9986
96 2 0.0709727 11.4012 6.02628 16.0745
109 2 -0.030828 4.83996 6.15557 14.538
116 2 0.164976 10.6672 2.85421 16.861
273 3 -0.868816 7.96902 7.15065 11.2076
121 2 0.0222973 6.24578 6.40326 9.54235
171 2 0.151039 10.4647 0.775321 11.4477
147 2 0.157916 7.87487 4.53342 10.4973
148 2 0.201351 8.75273 4.14215 12.1058
149 2 0.206585 7.14022 5.17662 12.0971
164 2 0.151331 10.3884 4.91265 17.0852
165 2 0.134501 8.97241 3.5054 17.2168
166 2 -0.00365685 8.53434 4.31117 15.4127
167 2 0.119808 9.76447 1.64984 9.45635
333 2 0.0257073 12.931 2.17925 12.819
169 2 0.156782 8.99995 3.25374 10.322
129 2 0.15666 14.3214 0.970068 11.4266
332 2 0.136083 7.89448 6.28708 16.8305
172 2 0.208397 11.2104 1.62075 12.9207
331 2 0.135428 6.00263 6.01431 16.8698
229 3 -0.806803 7.28709 1.95607 13.0825
258 3 -0.820602 9.44891 1.92375 14.5957
259 3 -0.804121 12.8855 2.56145 9.71852
266 3 -0.838858 5.29128 7.0526 11.8218
270 3 -0.827238 10.9362 4.20271 14.0479
271 3 -0.8162 11.3381 3.95723 11.528
274 3 -0.828745 10.1976 6.24516 12.5209
174 2 0.176344 4.91953 5.36669 9.10308
265 3 -0.870319 11.091 6.80486 8.83785
329 1 -0.692775 6.77954 6.7778 16.998
119 2 7.94544e-06 9.46799 4.67799 9.2805
330 2 0.163593 6.72802 7.65892 16.2455
56 4 1.52005 9.29825 7.56481 11.96
53 4 1.29147 6.47958 7.50674 10.825
343 2 0.154857 10.8228 7.71855 17.5982
45 4 1.20167 5.45774 13.346 2.88703
57 4 0.95999 10.2242 8.77227 1.96326
58 4 1.479 3.49917 11.6353 4.33013
59 4 0.933325 7.02794 11.4867 0.976741
62 4 1.15279 5.83452 11.3457 6.44893
318 3 -0.81761 8.44281 13.7128 8.70263
83 1 -0.685049 6.06854 8.46601 2.72554
84 1 -0.67436 9.62538 8.997 5.69038
76 1 -0.699458 4.89273 7.63217 7.61483
87 1 -0.661942 7.2035 11.1731 5.26585
88 1 -0.681474 6.03225 13.2887 6.99026
5 3 -0.777549 6.5262 14.035 4.11703
350 2 0.238903 6.25196 13.6557 5.85937
123 2 -0.0143782 8.67992 11.8319 1.04394
110 2 0.0385051 3.5926 9.06286 7.17344
125 2 0.0111693 6.91242 9.86049 1.61926
126 2 -0.00522813 3.12445 13.4786 8.53936
156 2 0.230914 5.28992 8.59946 7.04829
176 2 0.164972 6.086 8.05225 1.67131
177 2 0.148412 7.07997 8.89876 3.06001
178 2 0.277261 5.23192 9.18304 2.96304
179 2 0.177277 9.35562 9.30457 4.62478
180 2 0.22342 10.7144 8.78256 5.77175
181 2 0.175322 9.2003 9.67124 6.55284
182 2 0.158246 9.2062 10.3665 7.75041
185 2 0.182958 8.39615 13.5066 1.58696
187 2 0.162756 8.17764 10.3557 5.38097
188 2 0.195332 7.53227 12.2726 5.32628
189 2 0.175983 6.44988 10.8445 4.38027
190 2 0.249009 6.96949 13.4085 7.7313
191 2 0.147019 5.06821 13.678 7.38966
275 3 -0.852117 8.9967 7.93991 1.42831
277 3 -0.769799 3.69465 10.1388 3.29199
278 3 -0.852009 4.04632 12.9251 3.5414
85 1 -0.70496 8.84578 9.56822 8.57762
280 3 -0.858745 6.23382 12.3913 1.97302
285 3 -0.833349 4.49201 11.2436 5.57509
286 3 -0.798614 6.21902 10.3481 7.69982
349 2 0.125847 8.39075 12.2786 3.20406
276 3 -0.880624 10.1619 10.1801 2.54926
158 2 0.200532 4.25323 7.79293 8.52119
122 2 0.111275 11.1688 7.88182 3.11155
201 2 0.18326 5.05822 13.0125 8.70169
183 2 0.255703 8.79546 8.43534 8.16999
279 3 -0.851432 1.9527 11.7565 4.73125
283 3 -0.856363 2.59236 10.8138 8.79777
43 4 1.21567 2.97642 9.8953 13.7319
44 4 1.22125 1.46837 12.459 12.4182
316 4 1.19223 8.57465 12.4329 9.74434
317 2 0.0177864 9.67775 11.2981 9.06829
60 4 1.28394 7.05351 9.99308 9.15058
61 4 1.12028 2.71876 12.1202 9.61348
63 4 1.03619 8.48698 9.78252 14.2613
64 4 1.10461 4.38171 12.0253 15.9614
65 4 0.955075 8.0884 12.6712 12.9479
89 1 -0.654094 6.88375 9.31285 15.0529
90 1 -0.661628 4.3221 13.6953 14.9206
91 1 -0.656639 2.52351 11.9845 16.6669
92 1 -0.656801 4.4801 12.855 9.74921
93 1 -0.641729 6.34285 12.7521 12.4426
326 1 -0.687599 3.95013 8.30983 16.9759
339 2 -0.016884 9.84851 9.85108 15.3659
184 2 0.231303 9.45374 9.59492 9.5044
192 2 0.115299 7.35197 9.48336 16.199
193 2 0.166985 6.8112 8.22507 14.7358
194 2 0.273061 5.869 9.90427 14.8535
195 2 0.169979 3.65299 14.2129 15.6619
196 2 0.235593 3.70267 13.5478 13.9999
197 2 0.180478 5.25972 14.223 14.7872
199 2 0.145595 2.41003 12.9287 17.3475
170 2 0.165809 5.13806 14.3634 12.2005
289 3 -0.808684 5.52132 12.0701 17.0811
202 2 0.21134 4.89825 11.8169 10.2529
203 2 0.164261 4.45791 13.8172 10.5025
204 2 0.238553 6.1277 11.6528 12.1836
205 2 0.176935 6.45824 13.4642 11.5261
206 2 0.156931 5.54758 13.1724 13.419
290 3 -0.782844 8.33037 11.2989 13.5499
198 2 0.172252 1.94889 12.0399 15.6961
256 3 -0.837394 1.61021 13.8371 13.1815
272 3 -0.812468 10.348 8.27052 11.0475
284 3 -0.846607 1.82655 12.4515 10.8539
281 3 -0.84464 6.4217 8.90461 10.0485
282 3 -0.780925 7.25643 11.5401 9.96057
254 3 -0.825118 3.22688 8.53492 12.7544
287 3 -0.782048 8.87364 8.73585 13.1871
288 3 -0.740322 4.2965 10.8024 14.8381
255 3 -0.806923 2.21389 11.1674 13.0898
200 2 0.183924 2.52864 10.9957 17.1848
347 2 0.181833 4.01667 9.34415 17.3229
105 2 -0.0153965 0.178108 14.6934 15.2925
327 2 0.168108 3.53516 8.22744 15.934
328 2 0.163073 5.01521 7.76521 17.0518
ITEM: TIMESTEP
100
ITEM: NUMBER OF ATOMS
350
ITEM: BOX BOUNDS xy xz yz pp pp pp
-8.0552999999999990e+00 1.5678200000000000e+01 -7.0408999999999997e+00
0.0000000000000000e+00 1.4924188800000000e+01 -1.0144000000000000e+00
0.0000000000000000e+00 1.7638300000000001e+01 6.7634999999999934e-01
ITEM: ATOMS id type q x y z
225 3 -0.855929 2.35188 0.543569 8.65491
9 4 1.55101 0.569323 2.44833 5.70911
13 4 1.48768 0.274917 4.89357 7.89133
235 3 -0.786532 1.55969 5.56839 8.52482
23 4 1.31304 3.31813 2.57203 3.70048
26 4 1.43007 5.62069 1.6102 5.42751
30 4 1.30072 5.01693 4.77175 2.33192
210 3 -0.774187 -1.64666 3.76235 0.180482
32 4 1.25475 3.60718 7.04136 0.506966
33 4 1.4467 4.61861 3.72758 7.30658
35 4 1.3913 3.98857 6.62776 6.05175
70 1 -0.665503 2.87332 1.46356 2.17717
74 1 -0.684121 0.904646 5.66588 3.89764
97 2 -0.00314418 -2.56973 6.5302 5.7064
15 4 1.36709 -1.27351 7.17216 6.66932
346 2 0.155627 5.34218 1.74635 1.07244
140 2 0.17038 3.71604 1.74737 1.33731
141 2 0.204575 1.80876 1.6749 1.87777
150 2 0.243884 1.78207 5.08428 4.19428
151 2 0.165004 0.870485 5.8463 2.75262
152 2 0.182252 -0.0309354 5.3551 4.41108
139 2 0.177485 2.97402 0.443228 2.71384
207 3 -0.842547 -0.820519 2.36358 4.94071
208 3 -0.854913 0.848542 1.02966 6.55096
212 3 -0.838261 0.490867 3.8187 6.64855
213 3 -0.8396 -0.955673 5.93311 7.67444
224 3 -0.789286 1.75609 2.6654 4.70321
71 1 -0.667426 5.22947 2.14424 0.0710519
226 3 -0.827856 4.30451 1.58243 4.49265
324 2 0.0867778 -2.44514 6.43059 0.95311
230 3 -0.847222 3.91033 3.91496 3.24952
232 3 -0.81972 4.39661 5.77482 1.35954
233 3 -0.840504 3.65415 2.88633 8.2007
314 3 -0.759997 -3.46324 7.08521 3.8
303 2 0.208034 0.86055 4.65615 0.695625
237 3 -0.845098 2.47516 7.05003 5.8598
238 3 -0.81656 4.21043 5.03131 6.56832
309 2 -0.00821941 -0.703916 6.63401 3.45632
234 3 -0.840412 5.70284 2.86375 6.52033
299 4 1.22833 -0.408214 2.62902 0.801371
300 1 -0.688107 1.14036 3.6397 1.21903
301 2 0.195601 2.02721 3.12419 0.755358
302 2 0.204709 1.27878 3.71438 2.29976
348 2 0.163274 6.56655 0.43571 2.02999
106 2 0.0436709 4.08263 3.50047 0.224118
108 2 -0.00878889 5.76919 3.58389 1.31352
8 4 0.958506 -1.47467 2.59564 8.76928
304 3 -0.792192 -1.00752 1.85965 2.25719
6 4 1.22968 0.216588 1.45702 16.4628
10 4 1.01664 -1.1819 2.31323 13.5322
12 4 0.998927 -2.7572 5.97648 17.3477
107 2 0.0776744 1.12143 2.77662 9.39208
16 4 1.21043 -0.153891 5.30343 13.7063
240 3 -0.80865 5.32337 3.93543 12.8386
294 2 0.0842935 2.49917 1.39296 14.3016
28 4 0.998284 2.94254 3.19411 16.2713
34 4 1.50691 1.50016 6.98504 9.66268
36 4 1.17532 4.26194 4.90877 13.5767
37 4 1.20769 0.000694358 6.84846 16.1977
211 3 -0.796182 -0.283526 3.55366 9.15869
242 3 -0.796105 1.21276 7.13306 17.1567
72 1 -0.681489 5.72003 1.92566 10.726
292 1 -0.60895 2.45571 2.04802 12.7116
98 2 0.0778979 1.35325 5.39307 12.871
104 2 -0.0189086 2.9611 2.01237 10.8033
297 2 0.214786 2.06225 3.11103 12.914
295 2 0.149207 1.79288 1.39663 12.0002
142 2 0.141555 5.19328 3.26714 17.4369
128 2 0.199864 -0.93185 2.82016 11.287
130 2 0.173201 0.469752 1.66526 11.782
298 2 0.14085 5.59217 1.51751 14.701
143 2 0.0625416 4.03904 1.56164 16.5541
145 2 0.156145 4.68421 2.36069 10.4344
338 2 0.108539 -2.82461 5.92489 13.2247
209 3 -0.757378 -0.662534 1.22223 14.7323
244 3 -0.863823 2.83594 7.06335 10.5995
25 4 0.997465 2.65021 2.01208 9.12248
214 3 -0.807178 -0.728686 3.86039 13.6267
146 2 0.166755 5.73046 0.857347 11.1967
216 3 -0.838389 -1.26951 6.38034 13.1718
228 3 -0.802209 1.61825 2.30059 16.3409
236 3 -0.816051 0.0328664 6.96951 10.4688
239 3 -0.765714 3.56468 4.04879 14.9253
296 2 0.0891634 3.97382 2.17989 12.139
241 3 -0.782994 0.262131 5.5191 15.2698
243 3 -0.846394 -1.44803 6.78013 16.9254
66 1 -0.69058 -0.681387 1.76641 11.8284
245 3 -0.792903 3.06284 5.42132 12.6768
38 4 1.38356 3.631 7.12994 11.9339
215 3 -0.821944 -2.6643 7.3578 10.742
291 4 0.807123 4.00709 0.717291 13.3031
17 4 1.30083 -1.26229 7.24093 11.4549
305 3 -0.771992 -0.836951 1.97737 17.5657
174 2 0.186624 4.75837 5.38763 9.16309
18 4 1.00124 -5.37187 11.5198 3.28469
19 4 1.52603 -2.59022 9.60229 8.02009
20 4 1.30556 -4.11066 12.0508 6.23138
24 4 1.26228 -0.558137 13.6586 7.28529
39 4 1.28288 2.47972 9.31831 2.48121
40 4 1.38452 1.9556 9.57504 7.92264
42 4 1.331 0.8771 11.426 5.83514
75 1 -0.679391 1.33826 10.7244 1.71521
227 3 -0.814279 -1.50579 14.0381 6.13908
99 2 0.0241317 -4.68229 12.619 1.96359
100 2 0.130789 -2.93652 13.3085 6.27058
111 2 0.0142038 -0.638604 11.0564 4.95839
153 2 0.137053 1.40215 10.6475 0.547961
154 2 0.190062 1.84026 11.6481 2.10188
155 2 0.153639 0.329751 10.5161 2.21594
248 3 -0.830284 1.52035 8.34359 8.73808
313 2 0.242079 -2.47613 9.88758 5.19824
218 3 -0.896392 -1.87535 8.36843 7.38143
219 3 -0.810273 -4.62068 11.8393 4.78455
220 3 -0.818436 -3.3235 10.7786 6.78362
221 3 -0.853416 -5.31677 12.6154 7.12259
310 2 -0.061136 -2.2695 10.6986 0.4541
246 3 -0.819441 1.50262 8.49813 3.65014
247 3 -0.824598 3.19426 8.28742 1.47819
315 3 -0.800884 -1.99327 8.4465 1.92187
335 2 -0.0246059 0.0750816 9.74927 0.556309
252 3 -0.870693 1.09294 10.1401 6.72214
322 2 0.177139 -5.68368 13.2291 0.615147
7 4 1.37153 -5.71876 14.1328 7.65944
306 4 0.938944 -1.87718 7.90538 3.43823
307 4 0.597383 -1.56747 9.15013 0.617321
308 1 -0.677952 -1.79272 9.56135 4.36971
186 2 0.192782 -6.1641 14.0266 2.95432
311 2 0.167017 -1.82817 10.2294 3.41858
312 2 0.180204 -0.684337 9.35239 4.77209
253 3 -0.863383 0.510373 12.6143 6.73164
162 2 0.174501 1.03326 13.513 2.2323
31 4 1.40615 1.28403 7.3677 4.85278
250 3 -0.846341 -1.42317 13.1074 8.53693
231 3 -0.90349 -0.054717 7.40294 5.65432
86 1 -0.644618 -6.43417 13.0562 2.42926
21 4 0.704764 -2.86495 10.4195 14.3636
22 4 1.2704 -3.49005 12.0462 11.9124
41 4 1.33849 -1.49181 11.9314 9.60358
68 1 -0.642908 -3.99806 8.97572 15.0797
69 1 -0.66211 -0.85839 8.97716 11.9052
77 1 -0.681444 1.492 9.4886 14.8669
101 2 -0.0844237 -1.68554 11.334 15.1762
102 2 -0.00485514 -4.23433 10.7516 15.5675
103 2 0.0975671 -5.14385 12.1515 11.4424
112 2 -0.0295729 -0.141579 8.26574 15.2654
113 2 0.00325847 -0.139206 12.1308 10.7501
114 2 -0.0411834 -0.195601 11.939 12.6093
133 2 0.0450855 -2.38568 8.5374 14.5482
249 3 -0.791973 -1.40651 10.5139 9.0045
344 2 0.156046 -1.09429 13.8453 14.1138
136 2 0.200643 0.112768 9.25234 11.2939
137 2 0.124755 -0.677318 9.00373 13.0558
138 2 0.228196 -1.78166 9.58914 11.5697
159 2 0.132527 1.61685 8.30378 14.7115
160 2 0.125166 0.524835 9.96826 14.4529
293 1 -0.674605 -1.76607 14.5788 14.7145
341 2 0.151752 -5.1931 14.0177 16.9866
14 4 1.51921 -4.05364 7.7999 9.83446
222 3 -0.82655 -3.26193 10.9118 12.9875
223 3 -0.794298 -3.22893 13.518 12.5699
319 3 -0.779099 -6.54733 12.9306 11.3441
251 3 -0.859288 -2.67298 11.9764 10.6237
334 2 -0.0298917 -2.93252 9.13775 16.7812
345 2 0.137241 -2.28228 14.1317 15.6144
135 2 0.160603 -4.18805 8.2575 15.9997
217 3 -0.825679 -3.75014 9.27275 9.00052
320 1 -0.659519 -6.30656 14.0102 17.0928
161 2 0.159652 1.73893 9.84039 15.8926
321 2 0.141399 -6.89458 13.3742 16.2625
134 2 0.205637 -4.73271 8.72445 14.2765
1 4 1.21136 14.082 1.59997 3.6662
2 1 -0.660249 12.2957 2.22177 3.50877
3 2 0.170262 12.1478 2.4744 2.38736
4 2 0.152846 11.5386 1.49052 3.90547
337 2 -0.00930401 11.9312 0.639131 2.29219
11 4 1.26831 11.1803 5.60988 4.49517
46 4 1.08222 8.06587 1.59405 3.43027
49 4 1.24839 9.82039 4.02381 2.35552
50 4 1.32083 6.2998 7.03105 4.0031
51 4 1.0039 8.44228 6.58669 1.07947
52 4 0.986755 9.92804 5.81158 8.26304
336 2 -0.0292942 7.42569 0.695174 7.88004
67 1 -0.701858 12.1877 4.81622 5.99504
325 2 0.166492 11.177 5.68488 0.356021
257 3 -0.831877 6.96514 1.65102 4.50055
54 4 1.29754 8.9055 7.22049 5.84374
342 2 0.148625 13.1281 4.5806 5.38556
117 2 0.0103569 10.6992 3.26345 1.09051
120 2 -0.00929954 10.4991 4.7237 7.09437
131 2 0.158161 11.7684 3.90006 6.40516
168 2 0.13295 10.0375 3.14504 8.5786
157 2 0.16774 5.61278 7.00508 7.84277
269 3 -0.807652 8.7992 6.75484 7.70778
340 2 0.198296 12.4526 3.22062 4.17334
95 2 -0.000634232 13.8151 2.62454 7.14512
175 2 0.161629 6.48804 4.99557 8.51513
260 3 -0.834311 8.89875 2.83907 2.95313
261 3 -0.828371 10.9523 4.54469 3.39755
262 3 -0.795409 6.16694 5.53945 3.06374
132 2 0.178426 12.4214 5.60936 6.84502
264 3 -0.840924 9.16975 5.28859 1.64606
118 2 0.0421165 6.73747 6.38822 0.848101
267 3 -0.848815 9.92094 6.2884 5.13147
163 2 0.141071 8.26661 0.804806 1.13928
78 1 -0.681301 7.70225 0.317897 2.01543
263 3 -0.811971 4.87623 7.04149 4.7402
94 2 0.0881429 14.7154 0.984236 8.80866
323 1 -0.653256 11.0082 6.90703 17.443
27 4 1.1832 8.2878 1.01583 14.0074
29 4 1.04897 6.53062 2.98638 12.1645
173 2 0.165196 5.68037 3.67577 9.66073
47 4 1.0943 9.98101 3.38438 14.9181
48 4 1.09598 11.6082 2.83809 10.5722
55 4 1.25143 11.393 5.11649 12.8835
73 1 -0.670249 7.81928 4.33243 11.5161
79 1 -0.653175 9.64886 3.9362 16.7787
80 1 -0.669679 9.93031 2.76943 9.6384
81 1 -0.67491 11.7001 1.07294 11.7526
328 2 0.16944 4.99961 7.75878 16.9795
96 2 0.0756143 11.4267 6.07028 16.0602
109 2 -0.0201728 5.05128 6.22264 14.2847
116 2 0.147929 10.2414 3.0477 17.25
273 3 -0.826827 7.96116 7.04186 11.2805
121 2 0.00133999 6.37671 6.2522 9.57487
171 2 0.158039 10.8198 0.731472 11.0784
147 2 0.153146 7.58055 4.55533 10.4615
148 2 0.21051 8.92271 4.28793 11.7024
149 2 0.217647 7.41544 5.13043 12.2494
164 2 0.15288 10.226 5.17263 17.0007
165 2 0.124515 8.52595 3.89766 17.0835
166 2 0.0114986 8.56775 4.40317 15.2135
167 2 0.144222 9.74724 1.64187 9.66198
333 2 0.0167559 12.8659 2.01577 13.023
169 2 0.157518 9.10549 3.28661 10.4
129 2 0.167433 14.337 0.96359 11.5034
332 2 0.130607 7.95688 6.32913 16.695
172 2 0.198862 11.3185 1.53682 12.6759
331 2 0.135739 6.05433 6.0444 16.5825
229 3 -0.811077 7.51511 2.02844 13.1501
258 3 -0.818156 9.60638 1.93749 14.6067
259 3 -0.812358 12.8305 2.8167 9.53668
266 3 -0.842542 5.31108 7.20817 11.8267
270 3 -0.835447 11.0438 4.26417 14.263
271 3 -0.803284 11.6024 4.0666 11.6939
274 3 -0.865845 10.1856 6.13459 12.5552
56 4 1.52371 9.43075 7.38136 11.9535
53 4 1.28569 6.46065 7.4531 10.8206
329 1 -0.675168 6.81988 6.85089 16.8826
119 2 -0.0108039 9.33539 4.64982 9.36098
144 2 0.156754 6.50844 2.05889 9.96649
82 1 -0.651345 5.53728 4.59453 8.85248
265 3 -0.847258 11.1223 6.61203 8.83757
45 4 1.22301 5.47156 13.3536 2.88576
57 4 0.931613 10.2266 8.81633 1.80828
58 4 1.46385 3.55178 11.4774 4.2949
59 4 0.960443 6.9598 11.5322 0.894489
62 4 1.12159 5.92198 11.4335 6.47986
115 2 0.050406 1.86347 14.2833 3.52198
83 1 -0.667704 6.22674 8.64788 2.9309
84 1 -0.664873 9.74603 8.93709 5.65207
76 1 -0.682889 4.68337 7.68096 7.53842
87 1 -0.677957 7.32028 11.0679 5.16576
88 1 -0.672478 6.12225 13.3787 6.91979
5 3 -0.772118 6.55499 13.9239 3.99268
350 2 0.234947 6.33952 13.7951 5.82028
123 2 -0.0095708 8.70868 11.7485 1.06572
110 2 0.0374862 3.37634 9.03202 7.09323
125 2 0.0255563 6.9434 9.98297 1.56142
126 2 0.0143996 3.24077 13.3456 8.51234
156 2 0.209808 5.08112 8.62745 7.08602
176 2 0.162099 6.32405 8.1337 1.87108
177 2 0.18123 7.19866 9.18711 3.28653
178 2 0.276093 5.23351 9.17587 3.08811
179 2 0.194225 9.27767 9.29952 4.68959
180 2 0.206169 10.8663 8.69481 5.58194
181 2 0.178144 9.59741 9.67751 6.50673
182 2 0.168237 9.14401 10.1878 7.78127
185 2 0.19891 8.55593 13.2762 1.57031
187 2 0.173997 8.21981 10.318 5.38578
188 2 0.195605 7.58855 12.2104 5.06538
189 2 0.180103 6.63824 10.7149 4.36221
190 2 0.24109 7.06472 13.3914 7.65125
191 2 0.14513 5.14379 13.8644 7.28196
275 3 -0.818169 8.77512 8.18074 1.46839
277 3 -0.822493 3.64444 10.1286 3.43409
278 3 -0.830156 4.07116 12.7223 3.37252
85 1 -0.687896 8.77483 9.52842 8.68006
280 3 -0.846476 6.24275 12.3986 1.89419
285 3 -0.818555 4.49783 11.439 5.69764
286 3 -0.784718 6.18345 10.54 7.86282
349 2 0.112659 8.51476 12.1883 3.55331
276 3 -0.852891 10.2777 10.1305 2.60686
158 2 0.196916 3.94086 7.9226 8.38405
122 2 0.123621 11.1933 7.73995 2.74384
201 2 0.192436 5.20078 12.8802 8.63106
183 2 0.270511 8.74253 8.41473 8.42507
279 3 -0.833254 1.90871 11.865 4.70706
124 2 -0.0604371 11.2346 8.72953 0.467606
268 3 -0.83298 7.61245 7.3452 5.01534
199 2 0.171701 3.93531 12.2738 0.055114
43 4 1.23454 2.90718 9.96394 13.7317
44 4 1.16919 1.42774 12.3986 12.3472
316 4 1.21279 8.66884 12.5226 9.83616
317 2 0.021234 9.58827 11.3313 9.07326
60 4 1.31228 6.98863 10.1368 9.29423
61 4 1.0749 2.80463 12.0474 9.68125
63 4 1.01837 8.57395 9.74262 14.1366
64 4 1.08356 4.35858 12.0343 15.7993
65 4 0.968499 7.95412 12.6282 12.9049
89 1 -0.653797 6.90301 9.31671 14.9
90 1 -0.652122 4.5119 13.7946 14.9533
91 1 -0.661859 2.74218 12.1704 16.879
92 1 -0.641772 4.57737 12.7402 9.73902
93 1 -0.670084 6.22079 12.546 12.447
326 1 -0.658629 3.86389 8.2787 16.9115
339 2 -0.00880692 9.94057 9.82079 15.2395
184 2 0.21937 9.39325 9.695 9.5853
192 2 0.10151 7.46663 9.32158 16.05
193 2 0.18446 6.82647 8.26259 14.4739
194 2 0.287452 5.96151 9.86933 14.8336
195 2 0.175213 3.87645 14.3687 15.7272
196 2 0.203254 4.07812 13.9047 13.9335
197 2 0.171204 5.58159 14.2502 14.9605
105 2 -0.0151223 0.235419 14.7681 15.2227
170 2 0.159868 5.38123 14.5041 11.9582
289 3 -0.786614 5.49734 12.1104 16.9841
202 2 0.186129 4.88524 11.6705 10.3796
203 2 0.166979 4.69109 13.7071 10.4376
204 2 0.222204 6.09294 11.4022 12.3239
205 2 0.19141 6.25657 13.0496 11.4071
206 2 0.159786 5.44233 13.0819 13.3283
290 3 -0.791842 8.41864 11.3367 13.5914
198 2 0.143348 2.05138 12.4984 16.0771
256 3 -0.800669 1.48803 13.8534 13.2314
272 3 -0.834153 10.384 8.11315 10.8798
284 3 -0.808373 1.80064 12.7592 10.7543
281 3 -0.834395 6.42848 8.90837 10.1212
282 3 -0.81747 7.34631 11.6018 9.90627
254 3 -0.769941 3.36124 8.55141 12.8813
287 3 -0.786541 9.00798 8.53923 13.2021
288 3 -0.749272 4.27756 10.6907 14.7609
255 3 -0.834908 2.212 11.1195 12.8761
200 2 0.161127 2.50741 11.1239 17.3128
347 2 0.170895 3.91149 9.38736 17.2423
127 2 0.0822243 8.00076 14.0333 13.974
327 2 0.175711 3.36212 8.15059 15.9009
283 3 -0.84882 2.49135 10.6748 8.94416
330 2 0.165051 6.76952 7.76749 16.1534
343 2 0.131991 10.5963 7.93383 17.1247
318 3 -0.813248 8.36134 13.747 8.89441
ITEM: TIMESTEP
200
ITEM: NUMBER OF ATOMS
350
ITEM: BOX BOUNDS xy xz yz pp pp pp
-8.0552999999999990e+00 1.5678200000000000e+01 -7.0408999999999997e+00
0.0000000000000000e+00 1.4953977600000000e+01 -1.0144000000000000e+00
0.0000000000000000e+00 1.7638300000000001e+01 6.7769999999999975e-01
ITEM: ATOMS id type q x y z
225 3 -0.81772 2.36665 0.386996 8.66544
9 4 1.54383 0.603127 2.49424 5.65805
13 4 1.43947 0.257001 4.8088 7.87063
235 3 -0.80812 1.4378 5.66437 8.70242
23 4 1.35408 3.19431 2.69708 3.81652
26 4 1.43877 5.62834 1.63439 5.40251
30 4 1.25504 4.95029 4.854 2.36004
210 3 -0.813078 -1.66001 3.72764 0.178732
32 4 1.21024 3.50465 6.96631 0.378046
33 4 1.34076 4.70266 3.68669 7.48011
35 4 1.39321 4.06283 6.51856 6.11655
70 1 -0.649195 2.94247 1.47789 2.35301
74 1 -0.670773 0.854727 5.82066 3.70455
97 2 0.00440039 -2.46403 6.43257 5.7818
15 4 1.39194 -1.31036 7.11762 6.74804
346 2 0.136306 5.36372 1.83823 1.25163
140 2 0.156751 3.77165 1.76762 1.44993
141 2 0.185858 1.86413 1.8171 2.08552
150 2 0.235013 1.85998 5.13313 3.90084
151 2 0.184705 0.815602 6.37677 2.74031
152 2 0.15699 -0.131234 5.3127 4.05648
139 2 0.167276 3.06749 0.409983 2.84281
207 3 -0.836464 -0.923534 2.25161 5.07241
208 3 -0.823375 0.814432 0.939742 6.45718
212 3 -0.855483 0.637717 3.79091 6.58888
213 3 -0.859064 -0.984429 5.83823 7.54856
224 3 -0.838766 1.7319 2.61087 4.61298
71 1 -0.65146 5.24723 2.22959 0.155788
226 3 -0.831852 4.22921 1.8792 4.66359
324 2 0.0413499 -2.56966 6.11963 1.27063
230 3 -0.814557 3.72989 4.18435 3.30427
232 3 -0.819457 4.24816 5.81765 1.29727
233 3 -0.797917 3.55212 2.76673 8.33207
314 3 -0.825179 -3.45956 7.09288 3.71301
303 2 0.192408 0.378987 4.94604 0.995967
237 3 -0.841405 2.638 7.08901 5.66327
238 3 -0.787758 4.07204 4.84273 6.57613
309 2 -0.0129914 -0.854775 6.63655 3.18795
234 3 -0.800103 5.7932 2.73921 6.63327
299 4 1.24159 -0.540002 2.70669 0.772575
300 1 -0.66313 0.852034 3.91679 1.30382
301 2 0.182221 1.7195 3.58148 0.592285