ITEM: TIMESTEP
0
ITEM: NUMBER OF ATOMS
350
ITEM: BOX BOUNDS xy xz yz pp pp pp
-8.0552999999999990e+00 1.5678200000000000e+01 -7.0408999999999997e+00
0.0000000000000000e+00 1.4894400000000001e+01 -1.0144000000000000e+00
0.0000000000000000e+00 1.7638300000000001e+01 6.7500000000000004e-01
ITEM: ATOMS id type x y z
346 2 5.81271 2.12731 0.835397
9 4 0.60979 2.48792 5.81982
13 4 0.180468 4.83282 8.07666
15 4 -1.27788 6.98784 6.55955
23 4 3.42874 2.45159 4.02245
26 4 6.19348 1.51692 5.00419
30 4 4.69633 4.70216 2.36646
314 3 -3.22981 6.45605 3.31822
32 4 3.25759 6.75452 0.507854
33 4 5.59678 3.65948 7.17564
108 2 5.18085 3.4387 1.3377
70 1 2.70418 1.19198 2.75274
74 1 1.36917 5.59615 3.96791
97 2 -2.20807 6.15352 5.39153
231 3 -0.0175386 7.24628 5.64572
31 4 1.42475 7.15586 5.03728
140 2 3.25252 1.46912 1.75152
141 2 1.55768 1.32993 2.67444
150 2 2.07126 4.90583 4.52053
151 2 1.74948 5.9621 2.99563
152 2 0.363129 5.14889 3.89135
304 3 -0.180854 1.54526 2.30646
207 3 -0.728559 2.63939 4.71709
208 3 0.381335 0.993456 6.43179
212 3 0.466947 3.84225 6.77296
213 3 -0.910053 6.01464 7.72039
224 3 1.99578 2.48657 4.93443
225 3 2.6332 0.699375 7.59694
226 3 4.65661 1.59449 4.4635
303 2 0.925911 4.83779 1.07009
230 3 3.87248 3.89809 3.47353
232 3 3.80882 5.56883 1.43216
233 3 4.41868 2.66032 7.92855
301 2 2.43669 3.71899 0.666195
302 2 1.70981 3.75893 2.3388
237 3 2.80643 6.82502 6.26955
238 3 4.99227 5.07783 6.77621
300 1 1.47392 3.86247 1.27102
139 2 2.99297 0.201128 3.16762
299 4 0.127881 2.63098 0.826997
25 4 3.27655 1.81913 8.47042
163 2 7.03631 0.537885 0.986975
210 3 -1.21682 3.43099 0.309106
8 4 -1.55834 2.57433 8.80465
6 4 1.03826 1.85425 16.2607
10 4 -0.648364 2.49437 13.6256
12 4 -2.77665 5.46212 17.3719
296 2 4.22796 2.03707 11.0456
16 4 -0.358059 5.63719 13.6775
17 4 -1.33182 7.24309 11.2804
291 4 3.16383 0.702224 12.9668
28 4 3.77955 3.58409 16.1335
34 4 1.51401 6.86367 9.90352
36 4 4.56633 5.13159 13.5189
37 4 -0.380424 6.97928 16.3085
107 2 2.12925 2.85797 9.11
338 2 -3.06411 5.60534 12.8748
72 1 6.19509 1.68631 10.6038
71 1 5.1465 3.27106 17.5283
98 2 0.866091 6.03602 12.5978
104 2 3.7202 0.915514 9.88549
242 3 0.86224 7.07928 17.3547
297 2 2.87365 3.17564 11.5022
128 2 -0.0999095 1.47696 11.6231
66 1 -1.21908 1.81156 11.948
235 3 1.56435 5.55573 8.9312
298 2 4.58639 2.24534 13.974
143 2 5.37144 2.19462 16.4057
145 2 5.56966 2.29563 9.86591
146 2 5.56229 0.872555 11.1033
209 3 0.29674 1.57028 14.4823
294 2 1.66861 1.55078 12.595
211 3 -0.565864 3.67817 9.1892
214 3 -0.642233 4.04098 13.5157
215 3 -2.76967 7.0923 10.5891
216 3 -1.69095 6.44615 13.0984
228 3 2.44171 2.68673 16.214
236 3 0.0609455 6.56386 11.0219
239 3 4.19522 4.3905 14.8648
305 3 -0.155077 2.47565 17.3175
241 3 0.0292821 6.00433 15.145
243 3 -1.8372 6.59473 16.8996
244 3 2.9441 7.32593 10.5642
245 3 3.25447 5.979 12.9323
106 2 3.84337 4.69074 17.4531
292 1 3.11141 2.08568 11.3587
293 1 4.4354 1.11625 14.2389
295 2 2.33333 1.60969 10.5842
240 3 5.22406 4.02812 12.4658
345 2 3.68198 0.94226 15.148
129 2 -1.61266 2.69442 11.374
38 4 3.54467 7.3936 12.0729
327 2 3.01814 7.57942 15.8516
94 2 -0.721229 1.06383 8.9559
18 4 -5.27427 11.4204 3.1037
19 4 -3.02989 9.58006 7.69645
20 4 -4.41654 11.7959 6.19836
24 4 -0.360845 14.0446 7.46544
39 4 2.3491 9.34942 2.74653
40 4 2.15973 9.44802 8.51564
42 4 1.17065 11.6656 6.43988
75 1 0.734772 9.98404 1.93419
86 1 -6.10172 12.8832 2.02173
99 2 -4.30015 12.2385 1.89975
100 2 -3.01766 12.767 6.43291
111 2 -0.282836 11.3731 5.72806
153 2 0.95528 11.0928 2.10107
154 2 -0.207227 9.59281 2.60424
155 2 0.927295 9.53664 0.8436
309 2 -0.618887 7.57246 3.2886
186 2 -5.42137 13.7772 2.28951
218 3 -2.18534 8.21719 6.99691
219 3 -4.66016 11.7294 4.47192
220 3 -4.12779 10.3482 6.80327
221 3 -5.62709 12.563 6.75498
335 2 -0.707612 10.2026 0.633043
246 3 1.78106 8.35866 4.01199
247 3 3.12861 8.32245 1.64085
7 4 -5.80223 14.1467 7.28746
250 3 -1.53895 13.3468 8.37893
252 3 1.53548 10.3903 7.2989
227 3 -0.708484 14.4114 5.9693
341 2 -5.13581 13.4147 0.329461
306 4 -2.26749 7.56958 2.67015
307 4 -2.27362 9.52992 0.395226
308 1 -1.73378 9.09579 3.77664
310 2 -3.23254 10.7988 0.730633
311 2 -1.82827 10.0049 3.16627
312 2 -0.836492 9.20283 4.48645
313 2 -2.72413 8.96063 4.46803
315 3 -2.37325 8.24462 1.30519
249 3 -1.83822 10.5803 8.18742
348 2 0.972126 13.0705 1.63787
253 3 0.997957 12.9679 7.54153
21 4 -1.91593 10.6144 14.2357
22 4 -3.33371 12.0322 11.7629
41 4 -1.5534 11.9297 9.13698
68 1 -3.05536 8.91613 14.6351
69 1 -0.98447 9.09175 11.4488
77 1 1.01574 9.48607 15.1205
101 2 -0.154733 10.7399 14.1658
102 2 -2.36437 11.3856 15.6676
103 2 -4.74032 11.1936 11.645
112 2 -0.634546 8.56158 15.6122
113 2 -0.0827415 11.6522 9.81435
114 2 -0.0342669 12.2152 11.7656
133 2 -1.88547 8.69737 14.1051
134 2 -3.85358 8.77612 13.8567
135 2 -3.14905 8.09089 15.4314
136 2 -0.224388 9.4121 10.7297
137 2 -0.652805 9.08821 12.5708
138 2 -1.99018 9.65724 11.2981
159 2 0.585824 10.3283 15.7455
321 2 -4.45343 14.366 16.9273
161 2 0.440964 9.05264 14.1755
127 2 -6.75242 14.2186 13.7784
248 3 1.14295 8.38694 9.06916
222 3 -2.58771 11.2902 12.9993
223 3 -3.56902 13.4695 12.402
334 2 -3.42486 9.73474 16.3484
251 3 -2.57742 11.977 10.3808
339 2 -4.55976 10.1989 14.8804
344 2 -1.73446 14.6601 14.0682
317 2 -5.16447 12.0563 9.56479
318 3 -6.72872 14.0557 9.03894
320 1 -5.64092 14.4159 16.9337
160 2 1.5705 8.71291 15.7753
322 2 -6.12603 13.7923 16.0755
254 3 2.92516 8.82484 13.0082
199 2 1.35101 11.0881 16.6889
217 3 -3.87623 8.9338 8.90387
319 3 -6.80486 12.9654 11.45
1 4 14.4344 1.78134 3.47837
2 1 12.865 2.65752 2.9454
3 2 12.6014 2.52535 1.84588
4 2 11.9686 2.43301 3.62595
340 2 13.1958 3.75154 3.14184
11 4 11.215 5.57329 4.02369
46 4 8.47028 1.24167 2.56136
49 4 10.0069 3.89298 1.83436
50 4 6.12686 6.84928 3.80209
51 4 8.55356 6.3458 0.600443
52 4 9.73396 5.85564 7.91914
35 4 4.3633 6.55656 6.31212
67 1 12.07 4.75482 5.60017
265 3 10.8692 6.48898 8.79316
82 1 7.03579 4.01627 8.39401
95 2 13.8494 2.50013 7.10941
342 2 13.0315 4.40894 5.15508
117 2 11.3313 3.95577 0.792352
120 2 10.475 4.7369 6.81448
131 2 11.3367 3.88924 5.81497
132 2 12.2581 5.3501 6.57511
157 2 6.14501 6.98276 7.75395
173 2 7.94043 3.76414 7.69433
234 3 6.57693 2.87977 5.93937
257 3 7.29806 1.42954 3.76018
175 2 6.82848 5.0875 8.67648
260 3 9.38039 2.39597 1.97879
261 3 10.6218 4.3906 3.20753
262 3 6.0686 5.51083 2.86824
337 2 11.9196 1.0591 2.22948
264 3 9.00451 4.85575 1.16702
336 2 7.14413 1.26921 8.21303
267 3 10.0775 6.4597 4.73304
268 3 7.60212 7.06577 4.61053
269 3 8.8288 6.95037 7.26268
168 2 10.2319 2.01692 8.38197
324 2 12.6655 5.33547 1.02256
263 3 4.91681 7.04325 4.90043
54 4 8.9182 7.23349 5.42787
118 2 6.85317 6.44519 0.0314877
170 2 12.3586 0.807718 11.8584
27 4 8.1966 1.00843 13.9949
29 4 6.52017 2.9314 12.171
332 2 8.54173 7.14713 16.2713
47 4 9.84227 3.30865 14.8172
48 4 11.2541 2.67125 10.3721
55 4 11.061 4.97784 12.5913
73 1 7.95163 4.05558 11.5731
79 1 8.3553 4.17397 15.7374
80 1 9.67252 2.41427 9.3325
81 1 11.2955 1.23127 11.7528
333 2 13.3829 1.88814 13.5695
130 2 13.7723 0.883491 11.9117
109 2 5.75302 6.19404 13.9699
116 2 10.0155 3.62461 16.573
325 2 9.86146 5.63514 17.1245
121 2 6.19125 7.39674 9.49731
273 3 7.7911 7.42581 11.4703
147 2 7.40113 4.99194 11.3108
148 2 8.64387 3.50147 10.7546
149 2 8.52852 4.23382 12.5854
164 2 8.79052 5.02232 16.4229
165 2 7.66858 3.51473 16.2876
166 2 7.91296 4.5438 14.6835
167 2 9.34185 1.4821 9.95455
331 2 6.82003 6.12378 16.014
169 2 8.71272 3.01179 8.97948
328 2 4.40888 7.00022 17.0083
174 2 6.84084 3.1677 9.32271
172 2 11.0695 1.93134 12.6643
119 2 8.73533 4.8837 8.88734
229 3 7.15356 2.02928 13.345
258 3 9.573 1.69186 14.5689
259 3 12.6496 2.63412 9.46163
343 2 11.0299 6.95266 16.7591
270 3 10.6702 4.15912 13.8794
271 3 11.0619 3.97896 11.3351
274 3 9.97366 6.23915 12.5237
96 2 11.5317 5.07397 15.9192
323 1 10.9096 5.87852 17.0294
329 1 7.26587 7.12158 16.3683
144 2 7.16257 1.24595 10.2347
171 2 10.399 0.558284 11.4663
142 2 6.04635 3.9258 17.5996
45 4 5.29004 13.8113 2.93879
57 4 8.99832 9.23268 1.64661
58 4 3.48419 11.8637 4.45847
59 4 6.45414 11.7054 1.0628
62 4 6.0217 11.4671 6.24455
349 2 8.60038 12.6989 2.96722
83 1 5.84788 8.4145 2.58126
84 1 9.22561 9.11774 5.45312
122 2 8.94909 9.98063 0.162506
87 1 7.55316 11.7403 5.0231
88 1 5.96547 13.1394 7.18589
110 2 3.47158 8.57887 7.78075
286 3 6.38309 10.2995 7.34196
123 2 8.09519 11.724 1.31725
124 2 7.53329 9.56903 2.4077
125 2 5.96803 10.28 1.8656
126 2 2.28609 12.8445 8.61844
156 2 5.56735 8.66185 7.592
176 2 4.64301 8.37859 2.21664
177 2 6.5844 8.32544 1.70954
178 2 6.05172 9.24264 3.34276
179 2 8.3833 9.7032 4.87517
180 2 10.1903 9.22455 4.9536
181 2 9.3068 9.41642 6.56925
182 2 9.39411 10.4228 7.81776
183 2 8.91132 8.55759 7.9819
187 2 7.73499 10.891 4.26455
188 2 8.41714 11.9094 5.75431
189 2 7.16192 12.7406 4.45439
190 2 6.70068 13.0791 8.08122
191 2 4.96822 13.4884 7.39447
275 3 8.87381 7.73893 1.39327
277 3 3.10745 10.7654 3.14639
278 3 4.00856 13.2909 3.84469
85 1 8.93526 9.62704 8.53063
280 3 5.76339 12.9373 1.65774
285 3 4.77828 11.187 5.37233
350 2 6.40971 13.7774 6.29934
76 1 5.19045 7.59502 7.75875
78 1 1.136 14.1291 1.29355
162 2 1.80749 14.1469 0.441183
276 3 10.1176 9.93652 2.56802
5 3 6.57935 14.1552 3.77596
279 3 2.20318 11.9503 5.3635
115 2 2.29594 13.9579 2.89172
198 2 3.21977 11.3839 0.43374
185 2 9.05924 13.035 1.01473
158 2 4.63342 7.4639 8.70963
43 4 2.5952 10.0143 13.9684
288 3 3.71328 10.4286 15.1715
53 4 6.47309 8.12538 10.9873
283 3 2.78701 10.4412 9.60234
60 4 7.27657 10.3082 9.00046
61 4 2.98351 11.9975 9.87634
63 4 9.4931 10.0521 14.3456
64 4 3.76436 11.8653 16.0012
65 4 8.51434 12.8259 12.96
89 1 8.87778 10.028 16.1446
90 1 4.01098 13.3779 14.8261
91 1 2.11494 11.9359 16.9645
92 1 4.78067 12.6945 10.1571
93 1 6.58023 12.7924 12.9667
290 3 9.01573 11.5179 13.7115
289 3 5.17612 12.1238 17.2004
184 2 9.54141 9.52866 9.49482
192 2 9.44537 9.12276 16.5778
193 2 7.76554 9.86377 15.9956
56 4 9.29313 7.6577 12.0501
195 2 4.97658 13.0645 14.1434
196 2 4.23171 14.2324 15.5114
197 2 3.10936 13.5647 14.17
200 2 1.93054 13.0927 16.401
14 4 11.4177 7.6191 9.81915
194 2 9.18501 11.1349 16.433
202 2 5.19397 11.8873 10.8368
203 2 4.59974 13.7142 10.7501
204 2 6.40447 11.8172 13.546
205 2 5.89202 12.8374 11.8494
206 2 6.52386 13.7865 13.667
201 2 5.26478 12.7948 9.10474
255 3 1.96104 11.2604 13.2953
256 3 1.33166 13.9602 13.0976
272 3 10.3436 8.13579 10.8628
330 2 6.7746 8.07672 15.9384
281 3 6.63617 9.56626 10.332
282 3 7.81899 11.7396 9.32812
284 3 2.15919 12.5685 11.0504
287 3 9.23986 8.6926 13.3733
316 4 8.97111 12.7073 9.84579
326 1 3.59121 7.75703 16.8528
44 4 1.45638 12.5138 12.4255
266 3 5.17504 7.72599 11.894
347 2 3.80312 8.83627 17.1017
105 2 0.269119 14.7839 15.3548
ITEM: TIMESTEP
100
ITEM: NUMBER OF ATOMS
350
ITEM: BOX BOUNDS xy xz yz pp pp pp
-8.0593276500000002e+00 1.5686039100000000e+01 -7.0444204499999996e+00
0.0000000000000000e+00 1.4894400000000001e+01 -1.0149072000000015e+00
0.0000000000000000e+00 1.7638300000000001e+01 6.7500000000000004e-01
ITEM: ATOMS id type x y z
346 2 6.00338 2.25734 0.802434
9 4 0.53809 2.62047 5.74803
13 4 0.143247 4.93653 8.18124
15 4 -1.29072 7.12072 6.62993
23 4 3.33668 2.41635 4.03093
26 4 6.06678 1.47808 5.11658
30 4 4.59368 4.73645 2.37007
314 3 -3.26835 6.43586 3.34265
32 4 3.17423 6.95864 0.637618
33 4 5.6004 3.6153 7.08905
108 2 5.24039 3.44757 1.34044
70 1 2.77823 1.24037 2.58002
74 1 1.36802 5.86724 4.06458
97 2 -2.09419 6.07903 5.52308
227 3 6.25752 0.260085 6.0968
107 2 1.97022 2.93751 8.72637
140 2 3.28452 1.62153 1.63004
141 2 1.58124 1.40335 2.55355
150 2 1.88496 4.968 4.42791
151 2 1.91641 6.32842 3.17754
152 2 0.268912 5.71197 3.88779
304 3 -0.0955841 1.73561 2.35602
207 3 -0.865871 2.65202 4.85928
208 3 0.321734 1.00558 6.36333
212 3 0.457519 3.93453 6.78179
213 3 -0.961331 6.12759 7.75752
224 3 1.9946 2.72294 4.81564
225 3 2.61504 0.651209 7.59361
226 3 4.53159 1.57155 4.58129
303 2 0.562519 4.99672 1.34539
230 3 3.75583 3.79166 3.2972
232 3 3.75551 5.76246 1.564
233 3 4.4666 2.53557 7.97836
301 2 2.2396 4.1715 0.895938
302 2 1.41845 3.90648 2.59567
237 3 2.88291 6.86883 6.39486
238 3 4.90633 4.94505 6.64706
300 1 1.25438 4.11392 1.50451
139 2 3.09937 0.21166 2.84123
299 4 0.210294 2.72694 0.858355
25 4 3.21669 1.80435 8.43098
163 2 6.72135 0.404544 1.03512
210 3 -1.27228 3.44967 0.208349
94 2 -0.763751 1.29074 8.77205
6 4 1.05887 1.88617 16.2341
10 4 -0.625166 2.48368 13.6386
12 4 -2.94553 5.47773 17.2603
296 2 4.29907 2.23194 11.094
16 4 -0.373749 5.65684 13.6368
17 4 -1.38286 7.32677 11.407
291 4 3.24763 0.788774 12.9133
28 4 3.78529 3.69158 16.1247
34 4 1.54272 6.88515 9.87737
36 4 4.59714 5.05734 13.4813
37 4 -0.414919 7.00196 16.3303
326 1 3.38163 7.56537 16.8064
338 2 -3.06115 5.82087 12.9006
72 1 6.25163 1.93036 10.6914
71 1 5.25116 3.4409 17.4687
98 2 0.813406 6.29642 12.5466
104 2 3.57652 1.15133 9.9611
242 3 0.724986 7.30004 17.5295
297 2 3.08389 3.29104 12.0589
128 2 -0.041971 1.54877 11.5979
66 1 -1.18033 1.86006 11.9202
235 3 1.52988 5.57595 8.88736
298 2 4.76915 2.1112 14.1577
143 2 5.40434 2.35648 16.4374
145 2 5.47233 2.27373 9.95591
146 2 5.89608 1.01044 11.2373
209 3 0.366112 1.54912 14.4562
294 2 1.7583 1.49283 12.4396
211 3 -0.761774 3.76066 9.35829
214 3 -0.543483 4.05982 13.575
215 3 -2.71572 7.10863 10.5139
216 3 -1.72483 6.54444 13.2445
228 3 2.41999 2.77609 16.3
236 3 0.0647157 6.65771 11.104
239 3 4.17139 4.4124 14.7919
305 3 -0.0517846 2.55432 17.3149
241 3 0.103193 6.18512 15.1376
243 3 -1.91751 6.59682 16.9784
244 3 2.87742 7.02823 10.6303
245 3 3.42859 6.01516 12.9081
106 2 4.04285 4.90013 17.4407
292 1 3.17271 2.37363 11.436
293 1 4.43781 1.03075 14.2771
295 2 2.39379 2.42856 10.5522
240 3 5.30584 3.89847 12.5064
345 2 3.41858 0.85644 15.085
129 2 -1.35795 2.90456 11.4338
327 2 2.88146 7.38023 15.8383
18 4 -5.15572 11.484 2.99319
19 4 -2.98238 9.4982 7.72808
20 4 -4.49557 11.7896 6.08024
24 4 -0.359146 14.0141 7.62043
39 4 2.33533 9.35225 2.756
40 4 2.30121 9.44909 8.47164
42 4 1.18183 11.7189 6.49956
75 1 0.572666 9.72688 2.06324
86 1 -6.06025 12.8936 1.88058
99 2 -4.22364 12.3125 1.67064
100 2 -3.20975 12.6601 6.70553
111 2 -0.185029 11.2422 5.7021
153 2 0.651887 10.8559 1.9962
154 2 -0.278277 9.45475 2.73018
155 2 0.696467 9.09631 1.08622
309 2 -0.690938 7.48575 3.18918
186 2 -5.4093 13.8684 2.21581
218 3 -2.20415 8.32516 6.98292
219 3 -4.58709 11.8346 4.42704
220 3 -4.143 10.3471 6.58413
221 3 -5.72072 12.4303 6.82795
335 2 -0.732794 10.1262 0.592765
246 3 2.11265 8.50435 4.08817
247 3 3.21624 8.62299 1.54072
7 4 -5.82073 14.2227 7.33435
250 3 -1.51967 13.2277 8.36205
252 3 1.75428 10.4702 7.44751
231 3 0.212324 7.53841 5.91997
341 2 -5.04008 13.5463 0.255071
306 4 -2.37883 7.57263 2.6751
307 4 -2.2897 9.42257 0.333089
308 1 -1.78953 8.90015 3.96223
310 2 -3.51454 10.5232 0.497679
311 2 -1.70883 9.82287 3.29422
312 2 -0.924126 8.73835 4.59718
313 2 -2.81139 8.80852 4.60335
315 3 -2.48791 8.18597 1.23313
249 3 -2.10802 10.6124 8.34078
348 2 0.924652 13.1303 1.03329
253 3 0.923751 13.0673 7.37302
31 4 1.68604 7.32061 5.26443
21 4 -2.02377 10.5411 14.2191
22 4 -3.3875 12.0883 11.6574
41 4 -1.54867 11.8107 9.22487
68 1 -3.03589 8.82251 14.6166
69 1 -0.867328 9.10928 11.4532
77 1 1.04664 9.4437 15.0059
101 2 -0.282214 10.6756 14.2324
102 2 -2.10681 11.4346 15.7412
103 2 -4.87109 11.4759 11.3106
112 2 -0.610014 8.6181 15.7729
113 2 0.0812748 11.4518 9.56134
114 2 -0.259097 11.9322 12.3125
133 2 -1.8307 8.64487 14.351
134 2 -3.60016 8.70405 13.6113
135 2 -3.35712 8.01668 15.2602
136 2 -0.149278 9.12022 10.539
137 2 -0.387681 9.42881 12.4252
138 2 -1.91152 9.6303 11.2348
159 2 0.674503 10.4052 15.6028
321 2 -4.3502 14.4502 16.8021
161 2 0.341191 9.01591 14.2539
127 2 -6.74262 14.2545 13.8906
248 3 1.34331 8.35063 9.0511
222 3 -2.74591 11.2085 12.9326
223 3 -3.64427 13.6212 12.1289
334 2 -3.43067 9.79776 16.2044
251 3 -2.35414 11.904 10.5176
339 2 -4.55948 10.0492 14.6497
316 4 -6.65596 12.8649 9.82048
317 2 -5.17161 12.1411 9.40621
318 3 -6.76802 14.3021 9.07685
320 1 -5.52574 14.4269 16.8276
160 2 1.61098 8.66974 15.6511
322 2 -5.96971 13.7828 15.9382
254 3 3.00543 8.68433 12.9678
199 2 1.43449 11.1324 16.4989
217 3 -3.93201 9.08186 9.09992
319 3 -6.72238 13.0365 11.4067
344 2 -1.84784 14.3819 14.2614
1 4 14.4675 1.68818 3.62556
2 1 13.079 2.65212 2.79854
3 2 12.8894 2.44029 1.71529
4 2 12.1969 2.31496 3.53423
340 2 13.2074 3.80909 2.96222
11 4 11.1646 5.58593 4.06209
46 4 8.27117 1.33642 2.42066
49 4 10.1009 3.84142 1.89949
50 4 6.15139 6.82649 3.79456
51 4 8.56718 6.33598 0.792192
52 4 9.75268 5.97749 7.91062
35 4 4.41982 6.46231 6.31656
67 1 12.1104 4.71877 5.57863
162 2 8.49862 0.504667 0.278793
82 1 7.02058 4.09374 8.36559
95 2 13.5607 2.90458 7.15079
342 2 13.086 4.07976 5.17018
117 2 11.414 3.80546 0.726837
120 2 10.5967 4.92395 6.85084
131 2 11.284 3.85476 5.55219
132 2 12.2464 5.21201 6.58859
157 2 6.22297 6.89917 7.83459
173 2 7.8977 3.85489 7.61704
234 3 6.37112 2.92261 5.90501
257 3 7.22527 1.49798 3.68481
175 2 6.96601 5.1698 8.65705
260 3 9.33355 2.42104 1.99113
261 3 10.6818 4.33929 3.28141
262 3 6.01057 5.48222 2.90525
337 2 11.8102 1.06649 2.45431
264 3 9.13422 4.9921 1.31667
336 2 7.25471 1.10665 8.59648
267 3 10.1534 6.58581 4.82189
268 3 7.5701 7.07699 4.52389
269 3 8.68852 6.94616 7.30969
168 2 10.3666 2.30914 8.37009
324 2 12.2122 5.46836 0.922863
263 3 4.99746 7.07697 4.84889
54 4 8.88343 7.27781 5.46829
118 2 6.82475 6.14487 0.604843
119 2 8.88558 4.80891 8.70901
158 2 4.53207 7.28356 8.65753
8 4 13.9923 2.72903 8.78545
170 2 12.3975 0.694677 11.8384
27 4 8.10793 0.908878 14.1509
29 4 6.6092 3.04194 12.2975
332 2 8.1213 7.19127 16.1647
47 4 9.7621 3.34197 14.7282
48 4 11.2211 2.66271 10.4973
55 4 11.0832 5.09693 12.5377
73 1 7.95626 4.20669 11.4483
79 1 8.32102 4.22387 15.6433
80 1 9.67057 2.46239 9.3305
81 1 11.3329 1.14837 11.8076
333 2 13.4184 1.78839 13.5317
130 2 13.7481 1.05384 11.582
109 2 5.8052 6.10885 13.8708
116 2 10.0519 3.66318 16.4123
325 2 9.74487 5.42678 16.9906
121 2 6.0595 6.8262 9.46079
273 3 7.87583 7.5165 11.2983
147 2 7.37359 4.99098 10.9183
148 2 8.6835 3.55651 10.7039
149 2 8.49707 4.56477 12.3882
164 2 8.66384 5.26775 15.9758
165 2 7.67661 3.70926 16.4523
166 2 7.68559 4.381 14.6045
167 2 9.37798 1.41326 9.76114
331 2 6.62724 6.05365 16.2361
169 2 8.72933 3.00955 9.02567
328 2 4.14821 6.75507 17.021
174 2 6.85478 3.31175 9.24355
172 2 11.0186 1.57979 12.7979
265 3 10.7367 6.47734 8.92879
229 3 7.22281 1.98848 13.4743
258 3 9.46992 1.7142 14.4648
259 3 12.7058 2.51457 9.72481
343 2 10.791 7.07204 16.6868
270 3 10.7523 4.24017 13.8183
271 3 11.0944 4.13926 11.2419
274 3 9.96883 6.22007 12.4823
96 2 11.7636 5.18003 15.7302
323 1 10.822 5.96573 17.1131
329 1 7.00986 7.00426 16.6104
144 2 7.2349 1.75152 10.1847
38 4 3.68596 7.48603 12.0319
142 2 6.29496 3.91576 17.4902
171 2 10.5896 0.468322 11.4467
45 4 5.32112 13.7514 2.90347
57 4 9.04943 9.19665 1.77325
58 4 3.38512 11.7315 4.38106
59 4 6.33795 11.617 1.10042
62 4 5.92385 11.4296 6.41155
349 2 8.72535 12.6081 3.04458
83 1 5.87077 8.44428 2.64443
84 1 9.17775 9.17126 5.46966
122 2 9.06299 9.98265 0.233279
87 1 7.47066 11.7818 5.19783
88 1 5.98477 13.1329 7.32638
110 2 3.68734 8.70557 7.72919
286 3 6.24056 10.3419 7.5211
123 2 8.01786 11.8387 1.31246
124 2 7.51965 9.49449 2.38771
125 2 5.89912 10.3354 2.09425
126 2 2.9331 12.8029 8.43606
156 2 5.58051 8.63635 7.66897
176 2 4.80255 8.51471 2.19903
177 2 6.66577 8.33118 1.8342
178 2 6.01867 9.31468 3.36594
179 2 8.38379 9.76642 4.90644
180 2 10.2648 9.18528 5.03272
181 2 9.00702 9.33327 6.68526
182 2 9.37687 10.2605 7.97167
183 2 8.75614 8.44605 8.08665
187 2 7.59124 10.8429 4.44914
188 2 8.38542 11.9688 5.898
189 2 7.11193 12.7581 4.61655
190 2 6.47609 13.2786 8.27617
191 2 4.7831 13.3149 7.43175
275 3 9.05727 7.70891 1.37122
277 3 3.19411 10.7039 3.25164
278 3 4.09107 13.1189 3.6271
85 1 8.8674 9.46537 8.64634
280 3 5.59716 12.8722 1.63671
285 3 4.63976 11.2978 5.49917
350 2 6.48859 13.7901 6.62742
76 1 5.29709 7.52855 7.7746
78 1 0.84947 14.2523 1.1283
198 2 2.97962 11.5489 0.344152
276 3 10.1367 9.97615 2.61256
5 3 6.5376 14.1877 3.83762
279 3 2.07277 12.0162 5.17154
115 2 2.09141 14.001 2.555
185 2 9.17941 13.0528 0.862672
43 4 2.57241 10.0152 13.9227
288 3 3.66089 10.377 15.1126
53 4 6.45534 7.8966 10.7512
283 3 2.98448 10.4091 9.65426
60 4 7.26545 10.382 9.0788
61 4 3.01172 12.0019 9.90823
63 4 9.41164 10.0556 14.319
64 4 3.84369 11.8561 16.0968
65 4 8.46997 12.8897 12.951
89 1 8.73513 10.1007 16.0616
90 1 4.01996 13.3794 14.9032
91 1 2.04713 12.038 16.8579
92 1 4.83077 12.5234 10.2614
93 1 6.55089 12.7826 13.0475
290 3 8.9645 11.4567 13.6308
289 3 5.03119 11.9531 17.2302
184 2 9.39324 9.37413 9.70398
192 2 9.67537 9.71895 16.574
193 2 7.83148 9.25483 15.7819
266 3 5.22865 7.77862 11.7305
195 2 4.96312 13.1306 14.2101
196 2 4.10058 14.2565 15.5693
197 2 3.03457 13.4291 14.3203
200 2 1.82841 12.9673 16.2341
14 4 11.4621 7.65169 9.86984
194 2 8.48653 11.2133 16.3601
202 2 5.33572 11.7476 10.8523
203 2 4.6746 13.6399 10.8386
204 2 6.42444 11.8044 13.6938
205 2 5.96911 12.7404 12.0642
206 2 6.46171 13.8136 13.5888
201 2 5.362 12.6628 9.18574
255 3 1.93824 11.3185 13.2781
256 3 1.31787 13.865 13.2692
272 3 10.4677 8.2383 11.0522
330 2 6.42828 7.90006 16.3084
281 3 6.48109 9.41361 10.2426
282 3 7.78078 11.7809 9.49861
284 3 1.95057 12.6228 10.97
287 3 9.18301 8.71895 13.3261
347 2 3.75359 8.68974 17.026
105 2 0.454397 14.5552 15.6274
44 4 1.32783 12.4619 12.4068
56 4 9.33711 7.58009 12.0446
ITEM: TIMESTEP
200
ITEM: NUMBER OF ATOMS
350
ITEM: BOX BOUNDS xy xz yz pp pp pp
-8.0633553000000013e+00 1.5693878200000000e+01 -7.0479408999999995e+00
0.0000000000000000e+00 1.4894400000000001e+01 -1.0154144000000009e+00
0.0000000000000000e+00 1.7638300000000001e+01 6.7500000000000004e-01
ITEM: ATOMS id type x y z
346 2 5.96095 2.34605 0.861043
9 4 0.478495 2.51446 5.77534
13 4 0.060179 4.8948 8.21487
15 4 -1.22113 7.19698 6.6251
23 4 3.22561 2.36604 4.07899
26 4 6.05371 1.44454 4.93714
30 4 4.5388 4.73727 2.3936
314 3 -3.27489 6.47969 3.3591
32 4 2.92915 6.90515 0.597626
33 4 5.64567 3.57404 7.14024
108 2 5.13098 3.53654 1.32183
70 1 2.69378 1.22765 2.56408
74 1 1.4773 5.88484 4.1149
97 2 -2.04057 6.3222 5.39385
227 3 6.35799 0.378528 6.07998
107 2 2.02389 2.79864 8.65539
140 2 3.2314 1.64672 1.64141
141 2 1.56534 1.36811 2.59684
150 2 1.72368 5.02507 4.88292
151 2 2.31866 5.99442 3.3136
152 2 0.444824 5.7603 3.61543
304 3 -0.170347 1.56272 2.37763
207 3 -0.91124 2.76119 4.68164
208 3 0.269357 1.07877 6.45026
212 3 0.581829 3.74902 6.88473
213 3 -0.762957 6.11378 7.68384
224 3 1.86346 2.45011 4.95151
225 3 2.70686 0.448738 7.59836
226 3 4.39604 1.50735 4.58762
303 2 0.546797 4.93261 1.4391
230 3 3.75407 3.81454 3.41395
232 3 3.75353 5.81325 1.50959
233 3 4.45449 2.58861 7.96073
301 2 1.95238 3.92827 0.506749
302 2 1.56203 3.74075 2.46442
237 3 2.9333 6.88513 6.48771
238 3 5.09676 5.0154 6.74988
300 1 1.14854 3.99868 1.44122
139 2 3.01219 0.178898 2.81685
299 4 0.0858474 2.56448 0.811098
25 4 3.2552 1.70562 8.40582
163 2 6.52745 0.727966 1.29472
210 3 -1.21821 3.33828 0.276404
257 3 7.01734 1.38313 3.70829
6 4 0.983151 1.93396 16.3256
10 4 -0.713974 2.58253 13.7123
12 4 -2.92446 5.49439 17.3742
296 2 4.26328 2.14813 11.0493
16 4 -0.301451 5.80085 13.7545
17 4 -1.2615 7.28546 11.3832
291 4 3.12628 0.73825 12.8839
28 4 3.74465 3.59706 16.0581
34 4 1.61077 6.92649 9.84356
36 4 4.71671 5.09345 13.5041
37 4 -0.451338 7.20173 16.378
327 2 2.7656 7.02439 15.9242
338 2 -3.0977 5.82437 12.8418
72 1 6.15361 1.7163 10.5853
71 1 5.10339 3.4882 17.4263
98 2 0.937013 6.13718 12.5659
104 2 3.55399 1.03077 9.98772
242 3 0.568504 7.26986 17.5933
297 2 3.13618 3.28636 11.9777
128 2 -0.0773801 1.37134 11.9459
66 1 -1.17974 1.86235 12.022
235 3 1.40777 5.4805 9.02036
298 2 4.88202 1.78986 13.9288
143 2 5.32315 2.31288 16.4472
145 2 5.44165 2.09495 9.81606
146 2 5.74459 0.767877 11.0593
209 3 0.112021 1.61864 14.6261
294 2 1.67439 1.62884 12.5417
211 3 -0.982333 3.95499 9.14862
214 3 -0.490761 4.19935 13.6496
215 3 -2.62646 7.27579 10.5554
216 3 -1.67087 6.45979 13.1806
228 3 2.38198 2.79579 16.251
236 3 0.198004 6.73211 11.2204
239 3 4.14647 4.34374 14.7481
305 3 0.0531787 2.49014 17.449
241 3 0.0865053 6.35978 15.1693
243 3 -1.88758 6.63769 16.9079
244 3 3.0142 7.11731 10.6149
245 3 3.62714 6.07188 12.9168
106 2 3.83525 4.8289 17.3731
292 1 3.16206 2.3087 11.4517
293 1 4.22742 0.818324 14.319
295 2 2.43091 2.31454 10.511
94 2 -0.82797 1.26177 9.05374
345 2 3.43199 0.939309 15.1623
129 2 -1.31767 2.75853 11.349
18 4 -5.20044 11.344 3.05835
19 4 -3.14902 9.66369 7.73124
20 4 -4.4492 11.8345 6.0518
24 4 -0.255554 13.9797 7.47735
39 4 2.37204 9.30214 2.70759
40 4 2.41036 9.40141 8.37977
42 4 1.29129 11.6828 6.43464
75 1 0.673145 9.6498 1.92219
86 1 -6.23126 12.8527 1.94566
99 2 -4.5094 12.2135 1.68573
100 2 -3.26689 12.9253 6.3837
111 2 -0.290674 11.2488 5.91347
153 2 0.894474 10.7635 1.51379
154 2 -0.111833 9.49204 2.78147
155 2 0.579053 8.86563 1.06907
309 2 -0.774065 7.69996 3.27201
186 2 -5.70634 13.8569 2.31581
218 3 -2.15628 8.3071 7.16326
219 3 -4.41952 11.7677 4.33978
220 3 -4.05272 10.3928 6.55097
221 3 -5.79363 12.4106 6.71238
335 2 -0.662564 9.95019 0.46421
246 3 2.0993 8.43705 4.2297
247 3 3.08118 8.5287 1.53655
7 4 -5.84126 14.2064 7.28814
250 3 -1.34423 13.1517 8.36635
252 3 1.78336 10.4462 7.34638
231 3 0.118785 7.71016 5.89496
341 2 -5.11431 13.4815 0.413022
306 4 -2.42346 7.64332 2.64329
307 4 -2.25377 9.37737 0.247817
308 1 -2.01057 9.02042 3.91842
310 2 -3.27943 10.736 0.443634
311 2 -2.09657 10.0236 3.31943
312 2 -1.0737 8.95214 4.66169
313 2 -3.04191 8.79634 4.5267
315 3 -2.60842 8.28354 1.25817
249 3 -2.02187 10.7236 8.2295
348 2 0.642462 13.4243 1.32168
253 3 1.05088 13.0457 7.32733
31 4 1.56683 7.3628 5.23434
21 4 -2.02224 10.5897 14.2041
22 4 -3.24427 12.1023 11.7581
41 4 -1.49236 11.7999 9.19862
68 1 -3.30779 8.97247 14.3638
69 1 -0.84354 9.07534 11.6208
77 1 1.09539 9.4009 14.9372
101 2 -0.279566 10.6389 14.2166
102 2 -2.47821 11.418 15.6072
103 2 -4.70345 11.4309 11.3449
112 2 -0.654392 8.77293 15.7055
113 2 0.0237325 11.2781 9.83359
114 2 -0.271063 12.2054 11.9253
133 2 -2.15345 8.6363 14.1762
134 2 -3.85379 9.13878 13.3348
135 2 -3.78183 8.16087 14.9674
136 2 -0.13916 9.27114 10.7502
137 2 -0.301745 9.15574 12.585
138 2 -1.78404 9.76196 11.6399
159 2 0.655935 10.2656 15.6513
321 2 -4.38276 14.7507 17.3991
161 2 0.32277 8.84263 14.2
127 2 -6.79039 14.2996 13.8975
248 3 1.36311 8.32077 9.091
222 3 -2.63765 11.3002 12.9794
223 3 -3.69758 13.5988 12.2753
334 2 -3.44857 9.51739 16.2614
251 3 -2.37982 11.9568 10.5132
339 2 -4.77023 10.1491 14.8808
316 4 -6.76621 12.949 9.82456
317 2 -5.31649 12.2663 9.37763
318 3 -6.82077 14.265 8.98731
320 1 -5.43498 14.5723 17.1
160 2 1.73417 8.67182 15.6156
322 2 -5.64392 13.8452 16.1463
344 2 -2.14321 14.1127 14.5849
199 2 1.16823 11.4587 16.0912
217 3 -4.12538 8.99417 8.84679
319 3 -6.74236 13.1341 11.4412
14 4 -4.22959 7.76276 9.92902
326 1 3.04741 7.77582 16.7329
254 3 2.94727 8.80446 12.7063
1 4 14.4028 1.70742 3.52137
2 1 12.9567 2.70652 2.71942
3 2 12.8512 2.51008 1.64209
4 2 12.1058 2.39339 3.39077
340 2 13.3438 3.68374 2.94181
11 4 11.3565 5.56255 4.1734
46 4 8.2357 1.25041 2.70178
49 4 10.1139 3.89029 2.03615
50 4 6.15068 6.88909 3.76867
51 4 8.53839 6.33795 0.868696
52 4 9.74708 5.99816 7.9469
35 4 4.48306 6.55763 6.32484
67 1 12.3427 4.84346 5.74369
162 2 8.19692 0.676663 0.102973
82 1 7.09051 3.91923 8.43141
95 2 13.7578 2.33858 7.05065
8 4 13.8923 2.64449 8.73794
117 2 11.3911 3.9022 0.875864
120 2 10.7253 5.12615 6.84277
131 2 11.636 3.99971 6.0831
342 2 13.2896 4.43627 5.14942
157 2 6.45362 6.80714 7.49981
173 2 7.89392 3.51664 7.69988
234 3 6.473 2.87257 5.8636
158 2 4.85349 7.36252 8.59501
175 2 6.98949 5.09802 8.58658
260 3 9.33275 2.45173 2.23802
261 3 10.8641 4.34548 3.33373
262 3 5.94538 5.50206 2.96627
337 2 11.8214 1.10802 2.31831
264 3 9.14248 4.93017 1.37052
336 2 7.10619 1.11608 8.44487
267 3 10.2574 6.47267 4.82565
268 3 7.64271 7.07147 4.55609
269 3 8.74048 6.92325 7.22818
168 2 10.1393 1.86685 8.48511
324 2 12.5112 5.33957 1.13281
263 3 4.95731 6.89216 4.84569
78 1 7.70528 0.327125 1.12252
118 2 6.74814 6.25774 0.673207
119 2 8.89611 4.66918 8.60585
132 2 12.6805 5.27916 6.72819
170 2 12.3577 0.638641 12.0681
27 4 8.1008 0.98746 14.0905
29 4 6.53637 2.99605 12.1216
332 2 7.94229 7.00915 16.2349
47 4 9.75692 3.33793 14.7549
48 4 11.2397 2.57657 10.4834
55 4 11.0456 5.08397 12.5445
73 1 8.01416 4.09596 11.5603
79 1 8.43188 4.29102 15.7056
80 1 9.63381 2.31006 9.44166
81 1 11.3436 1.15164 11.9368
333 2 13.2819 2.18785 13.5176
130 2 13.6534 1.14346 11.6805
109 2 5.97444 5.99029 14.1082
116 2 10.0793 3.56896 16.4712
325 2 9.82189 5.45891 17.2052
121 2 6.2049 6.83795 9.34154
273 3 7.98573 7.53469 11.1537
147 2 7.48598 5.03199 11.0764
148 2 8.65205 3.41555 10.8431
149 2 8.56419 4.36196 12.4972
164 2 8.71635 5.21513 16.4497
165 2 7.61138 3.68659 16.0989
166 2 8.00038 4.76721 14.6194
167 2 9.3164 1.42534 10.1937
331 2 6.12673 6.13881 16.6263
169 2 8.73766 2.96557 9.18375
328 2 4.03645 7.51158 17.2314
174 2 6.78305 3.1696 9.35662
172 2 11.0646 1.70343 12.8693
265 3 10.5758 6.65852 9.03706
229 3 7.23106 2.05685 13.2746
258 3 9.48864 1.58776 14.5417
259 3 12.5224 2.4358 9.52151
343 2 10.7255 6.89742 16.7083
270 3 10.8725 4.11148 13.8547
271 3 11.0885 4.02701 11.432
274 3 9.91864 6.21156 12.3943
96 2 11.7155 4.93413 15.8886
323 1 10.8552 5.89032 17.1549
329 1 6.7985 7.12223 16.7436
144 2 7.18717 1.53626 10.1859
142 2 5.97593 4.1049 17.3945
171 2 10.4961 0.472029 11.591
240 3 5.40171 4.07692 12.4831
38 4 3.75763 7.55285 11.9664
105 2 7.03369 0.598934 15.3384
45 4 5.32202 13.8438 2.96506
57 4 8.9793 9.22105 1.65761
58 4 3.53938 11.7871 4.34714
59 4 6.30361 11.6367 1.13619
62 4 5.98229 11.5146 6.41368
349 2 8.61115 12.3653 3.0951
83 1 5.84879 8.37922 2.49956
84 1 9.31002 9.17731 5.24535
122 2 8.72279 10.0779 0.203284
87 1 7.48391 11.704 5.22494
88 1 6.01571 13.3188 7.21499