LAMMPS (2 Aug 2023 - Update 2)
  using 2 OpenMP thread(s) per MPI task
Reading data file ...
  triclinic box = (0 0 0) to (15.6782 14.2194 17.6383) with tilt (-7.0409 -1.0144 0.675)
  2 by 2 by 2 MPI processor grid
  reading atoms ...
  350 atoms
Finding 1-2 1-3 1-4 neighbors ...
  special bond factors lj:    0        0        0       
  special bond factors coul:  0        0        0       
     0 = max # of 1-2 neighbors
     0 = max # of 1-3 neighbors
     0 = max # of 1-4 neighbors
     1 = max # of special neighbors
  special bonds CPU = 0.001 seconds
  read_data CPU = 0.009 seconds
*****Minimization starts.*****

CITE-CITE-CITE-CITE-CITE-CITE-CITE-CITE-CITE-CITE-CITE-CITE-CITE

Your simulation uses code contributions which should be cited:
- pair reaxff command: doi:10.1016/j.parco.2011.08.005
- fix qeq/reaxff command: doi:10.1016/j.parco.2011.08.005
The log file lists these citations in BibTeX format.

CITE-CITE-CITE-CITE-CITE-CITE-CITE-CITE-CITE-CITE-CITE-CITE-CITE

WARNING: Fix qeq/reaxff group is not charge neutral, net charge = -10.66 (src/REAXFF/fix_qeq_reaxff.cpp:392)
Neighbor list info ...
  update: every = 1 steps, delay = 0 steps, check = yes
  max neighbors/atom: 2000, page size: 100000
  master list distance cutoff = 12
  ghost atom cutoff = 12
  binsize = 6, bins = 4 3 3
  2 neighbor lists, perpetual/occasional/extra = 2 0 0
  (1) pair reaxff, perpetual
      attributes: half, newton off, ghost
      pair build: half/bin/newtoff/ghost
      stencil: full/ghost/bin/3d
      bin: standard
  (2) fix qeq/reaxff, perpetual, copy from (1)
      attributes: half, newton off
      pair build: copy
      stencil: none
      bin: none
Setting up cg style minimization ...
  Unit style    : real
  Current step  : 0
Per MPI rank memory allocation (min/avg/max) = 125.2 | 125.9 | 126.5 Mbytes
   Step          Temp          E_pair         E_mol          TotEng         Press     
         0   0             -38963.433      0             -38963.433      98861.431    
        17   0             -40803.845      0             -40803.845     -5276.3209    
Loop time of 1.46076 on 16 procs for 17 steps with 350 atoms

96.7% CPU use with 8 MPI tasks x 2 OpenMP threads

Minimization stats:
  Stopping criterion = energy tolerance
  Energy initial, next-to-last, final = 
     -38963.4331511333  -40803.8405193825   -40803.845231026
  Force two-norm initial, final = 2132.8673 199.02251
  Force max component initial, final = 293.99991 78.993013
  Final line search alpha, max atom move = 0.00012065211 0.0095306739
  Iterations, force evaluations = 17 34

MPI task timing breakdown:
Section |  min time  |  avg time  |  max time  |%varavg| %total
---------------------------------------------------------------
Pair    | 0.76564    | 1.0555     | 1.1779     |  16.1 | 72.26
Bond    | 1.3058e-05 | 1.8348e-05 | 2.4242e-05 |   0.0 |  0.00
Neigh   | 0          | 0          | 0          |   0.0 |  0.00
Comm    | 0.021445   | 0.14387    | 0.43365    |  43.7 |  9.85
Output  | 0          | 0          | 0          |   0.0 |  0.00
Modify  | 0.25918    | 0.25929    | 0.25953    |   0.0 | 17.75
Other   |            | 0.002072   |            |       |  0.14

Nlocal:          43.75 ave          49 max          38 min
Histogram: 2 1 0 1 0 0 0 1 1 2
Nghost:        3161.62 ave        3189 max        3136 min
Histogram: 1 0 2 0 1 1 1 0 1 1
Neighs:        27163.5 ave       30447 max       23708 min
Histogram: 2 1 0 1 0 0 0 2 0 2

Total # of neighbors = 217308
Ave neighs/atom = 620.88
Ave special neighs/atom = 0
Neighbor list builds = 0
Dangerous builds = 0
System init for write_data ...
WARNING: New thermo_style command, previous thermo_modify settings will be lost (src/output.cpp:903)
Neighbor list info ...
  update: every = 10 steps, delay = 0 steps, check = no
  max neighbors/atom: 2000, page size: 100000
  master list distance cutoff = 12
  ghost atom cutoff = 12
  binsize = 6, bins = 4 3 3
  2 neighbor lists, perpetual/occasional/extra = 2 0 0
  (1) pair reaxff, perpetual
      attributes: half, newton off, ghost
      pair build: half/bin/newtoff/ghost
      stencil: full/ghost/bin/3d
      bin: standard
  (2) fix qeq/reaxff, perpetual, copy from (1)
      attributes: half, newton off
      pair build: copy
      stencil: none
      bin: none
Setting up Verlet run ...
  Unit style    : real
  Current step  : 0
  Time step     : 0.5
Per MPI rank memory allocation (min/avg/max) = 123.6 | 124.3 | 124.9 Mbytes
   Step          Temp          PotEng         Press         Density         Volume    
         0   300           -40803.845     -1648.1241      1.6516858      3932.1873    
       100   294.24462     -40761.892      3401.7754      1.6516858      3932.1873    
       200   333.38328     -40779.692     -2102.59        1.6516858      3932.1873    
       300   329.32683     -40825.024      6557.0546      1.6516858      3932.1873    
       400   348.08467     -40901.383     -18068.61       1.6516858      3932.1873    
       500   338.63573     -40954.756     -5045.1068      1.6516858      3932.1873    
       600   321.40623     -40995.459     -934.16371      1.6516858      3932.1873    
       700   295.49311     -40996.436     -6415.7726      1.6516858      3932.1873    
       800   298.24548     -41017.321      1415.2651      1.6516858      3932.1873    
       900   282.99338     -41019.317     -9417.557       1.6516858      3932.1873    
      1000   293.90363     -41030.062     -4474.9232      1.6516858      3932.1873    
      1100   302.05786     -41047.952     -11561.834      1.6516858      3932.1873    
      1200   313.31408     -41066.346     -10508.727      1.6516858      3932.1873    
      1300   301.95221     -41070.096     -6459.4509      1.6516858      3932.1873    
      1400   301.98469     -41098.49       5026.2435      1.6516858      3932.1873    
      1500   292.00396     -41098.428      7856.172       1.6516858      3932.1873    
      1600   296.0056      -41096.086     -882.5105       1.6516858      3932.1873    
      1700   301.27252     -41091.045      1599.711       1.6516858      3932.1873    
      1800   301.46124     -41079.224     -15044.086      1.6516858      3932.1873    
      1900   313.36765     -41059.991     -6750.4677      1.6516858      3932.1873    
      2000   351.01921     -41089.985     -13.009616      1.6516858      3932.1873    
      2100   328.67134     -41101.142      6453.5863      1.6516858      3932.1873    
      2200   298.62072     -41093.727     -15789.933      1.6516858      3932.1873    
      2300   301.89269     -41110.301      1570.7366      1.6516858      3932.1873    
      2400   277.19633     -41103.408     -8214.8863      1.6516858      3932.1873    
      2500   299.03587     -41132.718     -2284.5453      1.6516858      3932.1873    
      2600   296.4502      -41098.018     -5772.4662      1.6516858      3932.1873    
      2700   307.39648     -41087.067     -1907.1969      1.6516858      3932.1873    
      2800   317.43272     -41108.185     -20972.927      1.6516858      3932.1873    
      2900   297.30562     -41110.656     -4406.6589      1.6516858      3932.1873    
      3000   292.71852     -41114.839     -14193.222      1.6516858      3932.1873    
      3100   278.29878     -41111.476     -8089.645       1.6516858      3932.1873    
      3200   287.74055     -41116.086     -10185.603      1.6516858      3932.1873    
      3300   318.70043     -41119.56       4319.5223      1.6516858      3932.1873    
      3400   308.44791     -41103.692     -13920.79       1.6516858      3932.1873    
      3500   297.05356     -41105.38      -4725.9102      1.6516858      3932.1873    
      3600   281.44655     -41113.834     -3324.5671      1.6516858      3932.1873    
      3700   283.20065     -41118.425     -2978.226       1.6516858      3932.1873    
      3800   314.54369     -41114.829     -5760.0864      1.6516858      3932.1873    
      3900   286.46947     -41072.45      -19989.038      1.6516858      3932.1873    
      4000   304.57352     -41104.893     -15403.275      1.6516858      3932.1873    
      4100   288.4523      -41112.508     -28354.666      1.6516858      3932.1873    
      4200   300.54136     -41130.191     -530.99247      1.6516858      3932.1873    
      4300   291.20704     -41125.46      -10335.263      1.6516858      3932.1873    
      4400   301.11776     -41131.822     -10727.852      1.6516858      3932.1873    
      4500   295.2227      -41120.554     -14451.327      1.6516858      3932.1873    
      4600   326.46929     -41131.734     -10506.496      1.6516858      3932.1873    
      4700   315.90653     -41129.333      5360.2271      1.6516858      3932.1873    
      4800   308.55294     -41152.169      1951.0512      1.6516858      3932.1873    
      4900   298.83937     -41146.727     -3497.2218      1.6516858      3932.1873    
      5000   284.96264     -41123.293     -7330.3714      1.6516858      3932.1873    
Loop time of 217.408 on 16 procs for 5000 steps with 350 atoms

Performance: 0.994 ns/day, 24.156 hours/ns, 22.998 timesteps/s, 8.049 katom-step/s
99.4% CPU use with 8 MPI tasks x 2 OpenMP threads

MPI task timing breakdown:
Section |  min time  |  avg time  |  max time  |%varavg| %total
---------------------------------------------------------------
Pair    | 119.72     | 162.96     | 179.49     | 177.8 | 74.96
Bond    | 0.0014369  | 0.001755   | 0.0020926  |   0.5 |  0.00
Neigh   | 11.369     | 14.937     | 16.468     |  49.6 |  6.87
Comm    | 3.7594     | 20.283     | 63.544     | 504.2 |  9.33
Output  | 0.0029283  | 0.0031355  | 0.0041912  |   0.7 |  0.00
Modify  | 17.583     | 19.111     | 22.681     |  43.9 |  8.79
Other   |            | 0.1083     |            |       |  0.05

Nlocal:          43.75 ave          47 max          36 min
Histogram: 1 0 0 1 0 1 0 0 0 5
Nghost:        3110.12 ave        3157 max        3074 min
Histogram: 1 1 1 1 0 0 3 0 0 1
Neighs:        27261.6 ave       29217 max       22752 min
Histogram: 1 0 0 1 0 1 0 0 1 4

Total # of neighbors = 218093
Ave neighs/atom = 623.12286
Ave special neighs/atom = 0
Neighbor list builds = 500
Dangerous builds not checked
System init for write_data ...
System init for write_restart ...
  using 2 OpenMP thread(s) per MPI task
Reading restart file ...
  restart file = 2 Aug 2023, LAMMPS = 2 Aug 2023
  restoring atom style full from restart
  triclinic box = (0 0 0) to (15.6782 14.2194 17.6383) with tilt (-7.0409 -1.0144 0.675)
  2 by 2 by 2 MPI processor grid
  pair style reaxff stores no restart info
  350 atoms
Finding 1-2 1-3 1-4 neighbors ...
  special bond factors lj:    0        0        0       
  special bond factors coul:  0        0        0       
     0 = max # of 1-2 neighbors
     0 = max # of 1-3 neighbors
     0 = max # of 1-4 neighbors
     1 = max # of special neighbors
  special bonds CPU = 0.000 seconds
  read_restart CPU = 0.003 seconds
*****debug*****
xy = -7.0408999999999997144, deltaxy = 0.70409
xz = -1.0143999999999999684, deltaxz = 0.10144
yz = 0.67500000000000004441, deltayz = -0.0675
*****
*****Negative-deform 1 starts.*****
Resetting global fix info from restart file:
  fix style: nvt, fix ID: fnvt
All restart file global fix info was re-assigned
Neighbor list info ...
  update: every = 10 steps, delay = 0 steps, check = no
  max neighbors/atom: 2000, page size: 100000
  master list distance cutoff = 12
  ghost atom cutoff = 12
  binsize = 6, bins = 4 3 3
  2 neighbor lists, perpetual/occasional/extra = 2 0 0
  (1) pair reaxff, perpetual
      attributes: half, newton off, ghost
      pair build: half/bin/newtoff/ghost
      stencil: full/ghost/bin/3d
      bin: standard
  (2) fix qeq/reaxff, perpetual, copy from (1)
      attributes: half, newton off
      pair build: copy
      stencil: none
      bin: none
Setting up Verlet run ...
  Unit style    : real
  Current step  : 0
  Time step     : 0.5
Per MPI rank memory allocation (min/avg/max) = 121.4 | 122.5 | 123.9 Mbytes
   Step          Temp          PotEng         Press          Volume           Lx             Ly             Lz      
         0   284.96264     -41123.293     -7330.3916      3932.1873      15.6782        14.2194        17.6383      
       100   299.65149     -41118.287     -12745.668      3924.3229      15.646844      14.2194        17.6383      
       200   329.03189     -41109.574     -2132.1014      3916.4586      15.615487      14.2194        17.6383      
       300   311.58396     -41101.16      -5139.3358      3908.5942      15.584131      14.2194        17.6383      
       400   297.33279     -41122.29       949.26182      3900.7298      15.552774      14.2194        17.6383      
       500   304.82936     -41148.989     -9778.0706      3892.8654      15.521418      14.2194        17.6383      
       600   290.32265     -41147.713     -3262.4737      3885.0011      15.490062      14.2194        17.6383      
       700   283.90199     -41140.629     -2775.5556      3877.1367      15.458705      14.2194        17.6383      
       800   312.00139     -41162.94      -7461.6891      3869.2723      15.427349      14.2194        17.6383      
       900   289.86938     -41148.357      8913.9321      3861.4079      15.395992      14.2194        17.6383      
      1000   294.82178     -41166.284      1500.3078      3853.5436      15.364636      14.2194        17.6383      
      1100   282.16412     -41151.906     -364.70441      3845.6792      15.33328       14.2194        17.6383      
      1200   300.53802     -41145.647     -1882.131       3837.8148      15.301923      14.2194        17.6383      
      1300   326.9339      -41137.86       13681.247      3829.9504      15.270567      14.2194        17.6383      
      1400   355.39229     -41123.285     -518.98909      3822.0861      15.23921       14.2194        17.6383      
      1500   320.50384     -41106.904     -10687.947      3814.2217      15.207854      14.2194        17.6383      
      1600   306.54203     -41128.03       10687.953      3806.3573      15.176498      14.2194        17.6383      
      1700   292.79555     -41130.778     -3893.8466      3798.4929      15.145141      14.2194        17.6383      
      1800   296.25849     -41146.565     -4159.6953      3790.6286      15.113785      14.2194        17.6383      
      1900   305.44183     -41155.978     -2090.6205      3782.7642      15.082428      14.2194        17.6383      
      2000   289.08632     -41156.056     -6509.796       3774.8998      15.051072      14.2194        17.6383      
      2100   279.20384     -41157.923      18068.901      3767.0354      15.019716      14.2194        17.6383      
      2200   295.29532     -41158.31       14920.839      3759.1711      14.988359      14.2194        17.6383      
      2300   293.43221     -41135.065      5896.7959      3751.3067      14.957003      14.2194        17.6383      
      2400   289.88872     -41113.236      14354.781      3743.4423      14.925646      14.2194        17.6383      
      2500   284.46353     -41111.32       1475.5337      3735.5779      14.89429       14.2194        17.6383      
      2600   278.35641     -41125.675      6531.9795      3727.7136      14.862934      14.2194        17.6383      
      2700   296.21564     -41140.377     -6305.7636      3719.8492      14.831577      14.2194        17.6383      
      2800   302.3313      -41147.276      5605.4879      3711.9848      14.800221      14.2194        17.6383      
      2900   305.09271     -41156.077      9905.1356      3704.1204      14.768864      14.2194        17.6383      
      3000   281.37816     -41157.558      16485.488      3696.2561      14.737508      14.2194        17.6383      
      3100   299.66086     -41158.957      5776.5646      3688.3917      14.706152      14.2194        17.6383      
      3200   296.40676     -41136.463      11252.275      3680.5273      14.674795      14.2194        17.6383      
      3300   306.87715     -41134.359      10081.51       3672.6629      14.643439      14.2194        17.6383      
      3400   303.60528     -41133.875      750.57862      3664.7986      14.612082      14.2194        17.6383      
      3500   282.10298     -41122.59       20492.209      3656.9342      14.580726      14.2194        17.6383      
      3600   315.72471     -41146.185      12284.668      3649.0698      14.54937       14.2194        17.6383      
      3700   307.2764      -41142.381      18038.41       3641.2054      14.518013      14.2194        17.6383      
      3800   303.85212     -41150.944     -4253.3377      3633.3411      14.486657      14.2194        17.6383      
      3900   286.22376     -41137.622      17806.542      3625.4767      14.4553        14.2194        17.6383      
      4000   296.49193     -41137.519      10021.366      3617.6123      14.423944      14.2194        17.6383      
      4100   294.10752     -41118.13       27622.954      3609.7479      14.392588      14.2194        17.6383      
      4200   293.43955     -41117.623      20094.181      3601.8836      14.361231      14.2194        17.6383      
      4300   294.54172     -41135.238      5409.7588      3594.0192      14.329875      14.2194        17.6383      
      4400   286.83771     -41131.837      19531.737      3586.1548      14.298518      14.2194        17.6383      
      4500   305.68726     -41151.947      16097.363      3578.2904      14.267162      14.2194        17.6383      
      4600   283.24568     -41137.616      13033.267      3570.4261      14.235806      14.2194        17.6383      
      4700   264.89984     -41131.428      20100.777      3562.5617      14.204449      14.2194        17.6383      
      4800   284.61219     -41155.836      18579.886      3554.6973      14.173093      14.2194        17.6383      
      4900   287.33415     -41139.65       7227.1738      3546.8329      14.141736      14.2194        17.6383      
      5000   312.99703     -41125.535      21910.291      3538.9686      14.11038       14.2194        17.6383      
Loop time of 232.651 on 16 procs for 5000 steps with 350 atoms

Performance: 0.928 ns/day, 25.850 hours/ns, 21.491 timesteps/s, 7.522 katom-step/s
99.5% CPU use with 8 MPI tasks x 2 OpenMP threads

MPI task timing breakdown:
Section |  min time  |  avg time  |  max time  |%varavg| %total
---------------------------------------------------------------
Pair    | 129.62     | 169.21     | 193.26     | 178.1 | 72.73
Bond    | 0.0015013  | 0.0017307  | 0.0021196  |   0.6 |  0.00
Neigh   | 11.84      | 15.095     | 17.202     |  50.8 |  6.49
Comm    | 2.8953     | 26.949     | 66.561     | 446.4 | 11.58
Output  | 0.014922   | 0.016625   | 0.017962   |   0.8 |  0.01
Modify  | 19.159     | 21.267     | 24.514     |  42.8 |  9.14
Other   |            | 0.1116     |            |       |  0.05

Nlocal:          43.75 ave          48 max          38 min
Histogram: 1 0 0 0 2 2 0 0 0 3
Nghost:        3285.88 ave        3326 max        3257 min
Histogram: 2 0 1 0 3 0 1 0 0 1
Neighs:        30311.6 ave       33254 max       26630 min
Histogram: 1 0 0 2 2 0 0 0 2 1

Total # of neighbors = 242493
Ave neighs/atom = 692.83714
Ave special neighs/atom = 0
Neighbor list builds = 500
Dangerous builds not checked
  using 2 OpenMP thread(s) per MPI task
Reading restart file ...
  restart file = 2 Aug 2023, LAMMPS = 2 Aug 2023
  restoring atom style full from restart
  triclinic box = (0 0 0) to (15.6782 14.2194 17.6383) with tilt (-7.0409 -1.0144 0.675)
  2 by 2 by 2 MPI processor grid
  pair style reaxff stores no restart info
  350 atoms
Finding 1-2 1-3 1-4 neighbors ...
  special bond factors lj:    0        0        0       
  special bond factors coul:  0        0        0       
     0 = max # of 1-2 neighbors
     0 = max # of 1-3 neighbors
     0 = max # of 1-4 neighbors
     1 = max # of special neighbors
  special bonds CPU = 0.000 seconds
  read_restart CPU = 0.003 seconds
*****Positive-deform 1 starts.*****
Resetting global fix info from restart file:
  fix style: nvt, fix ID: fnvt
All restart file global fix info was re-assigned
Neighbor list info ...
  update: every = 10 steps, delay = 0 steps, check = no
  max neighbors/atom: 2000, page size: 100000
  master list distance cutoff = 12
  ghost atom cutoff = 12
  binsize = 6, bins = 4 3 3
  2 neighbor lists, perpetual/occasional/extra = 2 0 0
  (1) pair reaxff, perpetual
      attributes: half, newton off, ghost
      pair build: half/bin/newtoff/ghost
      stencil: full/ghost/bin/3d
      bin: standard
  (2) fix qeq/reaxff, perpetual, copy from (1)
      attributes: half, newton off
      pair build: copy
      stencil: none
      bin: none
Setting up Verlet run ...
  Unit style    : real
  Current step  : 0
  Time step     : 0.5
Per MPI rank memory allocation (min/avg/max) = 121.5 | 122.5 | 123.9 Mbytes
   Step          Temp          PotEng         Press          Volume           Lx             Ly             Lz      
         0   284.96264     -41123.293     -7330.3916      3932.1873      15.6782        14.2194        17.6383      
       100   299.57779     -41118.575     -12841.05       3940.0517      15.709556      14.2194        17.6383      
       200   336.63179     -41116.244     -7291.1838      3947.9161      15.740913      14.2194        17.6383      
       300   301.33137     -41088.682     -3929.9895      3955.7804      15.772269      14.2194        17.6383      
       400   296.28353     -41116.374     -6592.1025      3963.6448      15.803626      14.2194        17.6383      
       500   292.20007     -41126.098      2210.175       3971.5092      15.834982      14.2194        17.6383      
       600   304.60091     -41146.784     -15040.296      3979.3736      15.866338      14.2194        17.6383      
       700   284.3353      -41137.425     -17476.779      3987.2379      15.897695      14.2194        17.6383      
       800   296.51756     -41140.235     -5309.109       3995.1023      15.929051      14.2194        17.6383      
       900   318.01245     -41135.155     -10779.379      4002.9667      15.960408      14.2194        17.6383      
      1000   326.99982     -41111.762     -13835.885      4010.831       15.991764      14.2194        17.6383      
      1100   315.30896     -41119.638     -11762.721      4018.6954      16.02312       14.2194        17.6383      
      1200   290.0093      -41102.934     -9351.9596      4026.5598      16.054477      14.2194        17.6383      
      1300   310.44115     -41129.92      -19251.13       4034.4242      16.085833      14.2194        17.6383      
      1400   298.89535     -41128.377     -17351.516      4042.2885      16.11719       14.2194        17.6383      
      1500   283.09961     -41116.654     -17789.422      4050.1529      16.148546      14.2194        17.6383      
      1600   297.77171     -41117.567     -18205.021      4058.0173      16.179902      14.2194        17.6383      
      1700   311.95573     -41097.258     -18922.819      4065.8817      16.211259      14.2194        17.6383      
      1800   306.85175     -41067.289     -12978.737      4073.746       16.242615      14.2194        17.6383      
      1900   301.7571      -41074.512     -786.56268      4081.6104      16.273972      14.2194        17.6383      
      2000   299.00856     -41096.227     -9765.8513      4089.4748      16.305328      14.2194        17.6383      
      2100   308.7999      -41108.688     -2896.9323      4097.3392      16.336684      14.2194        17.6383      
      2200   297.95683     -41097.666     -5868.2218      4105.2035      16.368041      14.2194        17.6383      
      2300   285.50668     -41100.061     -9037.8692      4113.0679      16.399397      14.2194        17.6383      
      2400   272.68501     -41102.666     -16357.884      4120.9323      16.430754      14.2194        17.6383      
      2500   299.64691     -41111.524     -14088.792      4128.7967      16.46211       14.2194        17.6383      
      2600   309.52058     -41100.797     -10985.162      4136.661       16.493466      14.2194        17.6383      
      2700   300.80768     -41083.509     -17925.443      4144.5254      16.524823      14.2194        17.6383      
      2800   304.83324     -41086.468     -5972.6994      4152.3898      16.556179      14.2194        17.6383      
      2900   277.82595     -41055.758     -21163.115      4160.2542      16.587536      14.2194        17.6383      
      3000   303.1691      -41084.537      980.82524      4168.1185      16.618892      14.2194        17.6383      
      3100   294.11862     -41082.12      -16710.108      4175.9829      16.650248      14.2194        17.6383      
      3200   288.88969     -41097.313     -21620.656      4183.8473      16.681605      14.2194        17.6383      
      3300   278.70859     -41103.086     -19563.127      4191.7117      16.712961      14.2194        17.6383      
      3400   276.12255     -41070.818     -26612.238      4199.576       16.744318      14.2194        17.6383      
      3500   313.37614     -41076.003     -16870.331      4207.4404      16.775674      14.2194        17.6383      
      3600   303.73733     -41056.384     -17415.135      4215.3048      16.80703       14.2194        17.6383      
      3700   285.86363     -41049.634     -18338.082      4223.1692      16.838387      14.2194        17.6383      
      3800   287.73418     -41059.608     -16014.182      4231.0335      16.869743      14.2194        17.6383      
      3900   294.24927     -41056.389     -13627.727      4238.8979      16.9011        14.2194        17.6383      
      4000   310.35316     -41059.226     -20032.05       4246.7623      16.932456      14.2194        17.6383      
      4100   295.72252     -41046.445     -18410.503      4254.6267      16.963812      14.2194        17.6383      
      4200   281.8256      -41048.817     -18872.465      4262.491       16.995169      14.2194        17.6383      
      4300   275.98021     -41046.547     -22599.999      4270.3554      17.026525      14.2194        17.6383      
      4400   308.34243     -41065.073     -25652.221      4278.2198      17.057882      14.2194        17.6383      
      4500   313.94935     -41047.303     -16865.377      4286.0842      17.089238      14.2194        17.6383      
      4600   307.52063     -41026.664     -11331.932      4293.9485      17.120594      14.2194        17.6383      
      4700   300.02933     -41019.183     -21802.528      4301.8129      17.151951      14.2194        17.6383      
      4800   297.56851     -41018.854     -27250.793      4309.6773      17.183307      14.2194        17.6383      
      4900   287.39098     -41018.243     -20286.968      4317.5417      17.214664      14.2194        17.6383      
      5000   278.17429     -41015.752     -24584.189      4325.406       17.24602       14.2194        17.6383      
Loop time of 205.009 on 16 procs for 5000 steps with 350 atoms

Performance: 1.054 ns/day, 22.779 hours/ns, 24.389 timesteps/s, 8.536 katom-step/s
99.5% CPU use with 8 MPI tasks x 2 OpenMP threads

MPI task timing breakdown:
Section |  min time  |  avg time  |  max time  |%varavg| %total
---------------------------------------------------------------
Pair    | 114.79     | 148.05     | 170.66     | 186.8 | 72.21
Bond    | 0.0012762  | 0.0017171  | 0.0022508  |   0.8 |  0.00
Neigh   | 9.5232     | 12.158     | 14.356     |  57.0 |  5.93
Comm    | 1.734      | 24.332     | 57.581     | 460.8 | 11.87
Output  | 0.016803   | 0.018601   | 0.020076   |   0.9 |  0.01
Modify  | 18.104     | 20.34      | 22.998     |  44.3 |  9.92
Other   |            | 0.1127     |            |       |  0.05

Nlocal:          43.75 ave          54 max          37 min
Histogram: 2 1 1 1 0 1 0 0 1 1
Nghost:        2913.38 ave        2963 max        2871 min
Histogram: 2 1 0 0 1 2 0 0 0 2
Neighs:        24717.1 ave       30261 max       21041 min
Histogram: 2 1 1 1 0 1 0 0 1 1

Total # of neighbors = 197737
Ave neighs/atom = 564.96286
Ave special neighs/atom = 0
Neighbor list builds = 500
Dangerous builds not checked
  using 2 OpenMP thread(s) per MPI task
Reading restart file ...
  restart file = 2 Aug 2023, LAMMPS = 2 Aug 2023
  restoring atom style full from restart
  triclinic box = (0 0 0) to (15.6782 14.2194 17.6383) with tilt (-7.0409 -1.0144 0.675)
  2 by 2 by 2 MPI processor grid
  pair style reaxff stores no restart info
  350 atoms
Finding 1-2 1-3 1-4 neighbors ...
  special bond factors lj:    0        0        0       
  special bond factors coul:  0        0        0       
     0 = max # of 1-2 neighbors
     0 = max # of 1-3 neighbors
     0 = max # of 1-4 neighbors
     1 = max # of special neighbors
  special bonds CPU = 0.000 seconds
  read_restart CPU = 0.003 seconds
*****debug*****
xy = -7.0408999999999997144, deltaxy = 0.70409
xz = -1.0143999999999999684, deltaxz = 0.10144
yz = 0.67500000000000004441, deltayz = -0.0675
*****
*****Negative-deform 2 starts.*****
Resetting global fix info from restart file:
  fix style: nvt, fix ID: fnvt
All restart file global fix info was re-assigned
Neighbor list info ...
  update: every = 10 steps, delay = 0 steps, check = no
  max neighbors/atom: 2000, page size: 100000
  master list distance cutoff = 12
  ghost atom cutoff = 12
  binsize = 6, bins = 4 3 3
  2 neighbor lists, perpetual/occasional/extra = 2 0 0
  (1) pair reaxff, perpetual
      attributes: half, newton off, ghost
      pair build: half/bin/newtoff/ghost
      stencil: full/ghost/bin/3d
      bin: standard
  (2) fix qeq/reaxff, perpetual, copy from (1)
      attributes: half, newton off
      pair build: copy
      stencil: none
      bin: none
Setting up Verlet run ...
  Unit style    : real
  Current step  : 0
  Time step     : 0.5
Per MPI rank memory allocation (min/avg/max) = 121.4 | 122.5 | 123.9 Mbytes
   Step          Temp          PotEng         Press          Volume           Lx             Ly             Lz      
         0   284.96264     -41123.293     -7330.3916      3932.1873      15.6782        14.2194        17.6383      
       100   299.65844     -41118.459     -12759.086      3924.3229      15.6782        14.190961      17.6383      
       200   335.00395     -41114.806     -2475.4644      3916.4586      15.6782        14.162522      17.6383      
       300   306.27886     -41099.053     -10693.629      3908.5942      15.6782        14.134084      17.6383      
       400   293.86774     -41123.114     -4628.965       3900.7298      15.6782        14.105645      17.6383      
       500   291.72805     -41142.403     -8823.5093      3892.8654      15.6782        14.077206      17.6383      
       600   299.32142     -41158.38       1191.1216      3885.0011      15.6782        14.048767      17.6383      
       700   282.01873     -41148.525      8258.6065      3877.1367      15.6782        14.020328      17.6383      
       800   300.47757     -41147.192     -9521.6463      3869.2723      15.6782        13.99189       17.6383      
       900   304.46003     -41120.737     -2514.0883      3861.4079      15.6782        13.963451      17.6383      
      1000   308.14069     -41134.771     -5652.3158      3853.5436      15.6782        13.935012      17.6383      
      1100   296.91522     -41150.279      6338.2665      3845.6792      15.6782        13.906573      17.6383      
      1200   298.15646     -41150.996     -2435.5365      3837.8148      15.6782        13.878134      17.6383      
      1300   293.93722     -41142.424      12131.547      3829.9504      15.6782        13.849696      17.6383      
      1400   302.46099     -41146.716     -6.3470537      3822.0861      15.6782        13.821257      17.6383      
      1500   301.73508     -41164.238     -1454.7145      3814.2217      15.6782        13.792818      17.6383      
      1600   283.47713     -41171.702      1515.67        3806.3573      15.6782        13.764379      17.6383      
      1700   285.31532     -41163.332     -9201.2322      3798.4929      15.6782        13.73594       17.6383      
      1800   315.05538     -41167.576      8751.9835      3790.6286      15.6782        13.707502      17.6383      
      1900   321.92121     -41158.305      6173.5666      3782.7642      15.6782        13.679063      17.6383      
      2000   305.14111     -41154.311      6478.5776      3774.8998      15.6782        13.650624      17.6383      
      2100   293.92455     -41145.461     -191.33491      3767.0354      15.6782        13.622185      17.6383      
      2200   289.94288     -41141.915      8426.4225      3759.1711      15.6782        13.593746      17.6383      
      2300   296.37705     -41165.513      9731.8874      3751.3067      15.6782        13.565308      17.6383      
      2400   289.80681     -41185.289      1184.9568      3743.4423      15.6782        13.536869      17.6383      
      2500   302.12648     -41191.541      10057.178      3735.5779      15.6782        13.50843       17.6383      
      2600   307.60229     -41176.708      1107.1252      3727.7136      15.6782        13.479991      17.6383      
      2700   311.73156     -41164.176      17216.324      3719.8492      15.6782        13.451552      17.6383      
      2800   316.92562     -41185.482     -1746.3106      3711.9848      15.6782        13.423114      17.6383      
      2900   291.49182     -41179.227      19199.612      3704.1204      15.6782        13.394675      17.6383      
      3000   292.00541     -41170.779      10783.749      3696.2561      15.6782        13.366236      17.6383      
      3100   296.66608     -41163.505      16966.251      3688.3917      15.6782        13.337797      17.6383      
      3200   317.07658     -41182.601      19597.529      3680.5273      15.6782        13.309358      17.6383      
      3300   288.33053     -41173.727      22108.877      3672.6629      15.6782        13.28092       17.6383      
      3400   297.17588     -41188.585      1645.0201      3664.7986      15.6782        13.252481      17.6383      
      3500   307.52241     -41181.161      20202.317      3656.9342      15.6782        13.224042      17.6383      
      3600   322.25482     -41157.384      17269.348      3649.0698      15.6782        13.195603      17.6383      
      3700   308.11771     -41128.585      4811.1476      3641.2054      15.6782        13.167164      17.6383      
      3800   299.36381     -41145.858      21623.01       3633.3411      15.6782        13.138726      17.6383      
      3900   315.67713     -41175.18       26523.293      3625.4767      15.6782        13.110287      17.6383      
      4000   300.35202     -41172.932      6822.2827      3617.6123      15.6782        13.081848      17.6383      
      4100   295.15281     -41172.869      23545.176      3609.7479      15.6782        13.053409      17.6383      
      4200   311.34641     -41187.192      25830.136      3601.8836      15.6782        13.02497       17.6383      
      4300   279.93887     -41169.642      22789.804      3594.0192      15.6782        12.996532      17.6383      
      4400   280.30567     -41174.22       31085.058      3586.1548      15.6782        12.968093      17.6383      
      4500   306.39        -41191.749      27849.575      3578.2904      15.6782        12.939654      17.6383      
      4600   297.91681     -41174.13       11683.839      3570.4261      15.6782        12.911215      17.6383      
      4700   312.27321     -41176.467      17709.711      3562.5617      15.6782        12.882776      17.6383      
      4800   302.92611     -41159.203      27885.54       3554.6973      15.6782        12.854338      17.6383      
      4900   303.98197     -41152.217      13113.35       3546.8329      15.6782        12.825899      17.6383      
      5000   294.30251     -41156.975      23444.898      3538.9686      15.6782        12.79746       17.6383      
Loop time of 244.566 on 16 procs for 5000 steps with 350 atoms

Performance: 0.883 ns/day, 27.174 hours/ns, 20.444 timesteps/s, 7.156 katom-step/s
99.4% CPU use with 8 MPI tasks x 2 OpenMP threads

MPI task timing breakdown:
Section |  min time  |  avg time  |  max time  |%varavg| %total
---------------------------------------------------------------
Pair    | 136.89     | 181.29     | 203.66     | 167.9 | 74.13
Bond    | 0.001464   | 0.0017962  | 0.0021048  |   0.5 |  0.00
Neigh   | 12.376     | 16.444     | 18.934     |  52.0 |  6.72
Comm    | 1.5946     | 23.966     | 68.339     | 461.4 |  9.80
Output  | 0.017177   | 0.019202   | 0.020995   |   1.0 |  0.01
Modify  | 20.203     | 22.716     | 26.832     |  44.7 |  9.29
Other   |            | 0.1307     |            |       |  0.05

Nlocal:          43.75 ave          51 max          36 min
Histogram: 2 0 0 0 1 1 2 1 0 1
Nghost:        3407.12 ave        3437 max        3381 min
Histogram: 1 1 3 0 0 0 0 0 1 2
Neighs:        30248.1 ave       35114 max       25031 min
Histogram: 2 0 0 0 1 1 2 1 0 1

Total # of neighbors = 241985
Ave neighs/atom = 691.38571
Ave special neighs/atom = 0
Neighbor list builds = 500
Dangerous builds not checked
  using 2 OpenMP thread(s) per MPI task
Reading restart file ...
  restart file = 2 Aug 2023, LAMMPS = 2 Aug 2023
  restoring atom style full from restart
  triclinic box = (0 0 0) to (15.6782 14.2194 17.6383) with tilt (-7.0409 -1.0144 0.675)
  2 by 2 by 2 MPI processor grid
  pair style reaxff stores no restart info
  350 atoms
Finding 1-2 1-3 1-4 neighbors ...
  special bond factors lj:    0        0        0       
  special bond factors coul:  0        0        0       
     0 = max # of 1-2 neighbors
     0 = max # of 1-3 neighbors
     0 = max # of 1-4 neighbors
     1 = max # of special neighbors
  special bonds CPU = 0.000 seconds
  read_restart CPU = 0.003 seconds
*****Positive-deform 2 starts.*****
Resetting global fix info from restart file:
  fix style: nvt, fix ID: fnvt
All restart file global fix info was re-assigned
Neighbor list info ...
  update: every = 10 steps, delay = 0 steps, check = no
  max neighbors/atom: 2000, page size: 100000
  master list distance cutoff = 12
  ghost atom cutoff = 12
  binsize = 6, bins = 4 3 3
  2 neighbor lists, perpetual/occasional/extra = 2 0 0
  (1) pair reaxff, perpetual
      attributes: half, newton off, ghost
      pair build: half/bin/newtoff/ghost
      stencil: full/ghost/bin/3d
      bin: standard
  (2) fix qeq/reaxff, perpetual, copy from (1)
      attributes: half, newton off
      pair build: copy
      stencil: none
      bin: none
Setting up Verlet run ...
  Unit style    : real
  Current step  : 0
  Time step     : 0.5
Per MPI rank memory allocation (min/avg/max) = 121.5 | 122.5 | 123.9 Mbytes
   Step          Temp          PotEng         Press          Volume           Lx             Ly             Lz      
         0   284.96264     -41123.293     -7330.3916      3932.1873      15.6782        14.2194        17.6383      
       100   299.67524     -41118.497     -12835.775      3940.0517      15.6782        14.247839      17.6383      
       200   332.54576     -41113.037     -8575.0114      3947.9161      15.6782        14.276278      17.6383      
       300   305.93386     -41093.505     -4687.5087      3955.7804      15.6782        14.304716      17.6383      
       400   302.921       -41126.028     -5823.6176      3963.6448      15.6782        14.333155      17.6383      
       500   285.71441     -41122.441     -4480.6671      3971.5092      15.6782        14.361594      17.6383      
       600   291.91153     -41138.449      465.58524      3979.3736      15.6782        14.390033      17.6383      
       700   285.00485     -41141.966     -16807.548      3987.2379      15.6782        14.418472      17.6383      
       800   297.88415     -41132.047     -18008.882      3995.1023      15.6782        14.44691       17.6383      
       900   303.40164     -41104.463     -13314.021      4002.9667      15.6782        14.475349      17.6383      
      1000   308.39047     -41106.407     -19794.83       4010.831       15.6782        14.503788      17.6383      
      1100   308.34652     -41118.116     -8637.7898      4018.6954      15.6782        14.532227      17.6383      
      1200   298.28747     -41110.38      -16124.419      4026.5598      15.6782        14.560666      17.6383      
      1300   292.44629     -41095.398     -3806.0581      4034.4242      15.6782        14.589104      17.6383      
      1400   288.30633     -41084.558     -15372.701      4042.2885      15.6782        14.617543      17.6383      
      1500   328.14936     -41098.089     -12832.677      4050.1529      15.6782        14.645982      17.6383      
      1600   306.0711      -41074.803     -28892.24       4058.0173      15.6782        14.674421      17.6383      
      1700   294.77195     -41083.266     -8684.0365      4065.8817      15.6782        14.70286       17.6383      
      1800   291.37693     -41088.968     -9066.24        4073.746       15.6782        14.731298      17.6383      
      1900   294.58244     -41087.642     -5266.2876      4081.6104      15.6782        14.759737      17.6383      
      2000   294.95227     -41079.767     -21378.423      4089.4748      15.6782        14.788176      17.6383      
      2100   299.6661      -41057.7       -16669.664      4097.3392      15.6782        14.816615      17.6383      
      2200   318.71235     -41052.285     -13300.029      4105.2035      15.6782        14.845054      17.6383      
      2300   310.21458     -41059.098     -14150.039      4113.0679      15.6782        14.873492      17.6383      
      2400   310.12004     -41078.362     -15215.87       4120.9323      15.6782        14.901931      17.6383      
      2500   302.18464     -41068.061     -17931.57       4128.7967      15.6782        14.93037       17.6383      
      2600   317.09196     -41078.469     -18629.694      4136.661       15.6782        14.958809      17.6383      
      2700   284.45107     -41047.477     -8417.7698      4144.5254      15.6782        14.987248      17.6383      
      2800   284.20624     -41058.633     -19402.99       4152.3898      15.6782        15.015686      17.6383      
      2900   287.8698      -41057.561     -10933.745      4160.2542      15.6782        15.044125      17.6383      
      3000   285.75751     -41020.239     -21170.923      4168.1185      15.6782        15.072564      17.6383      
      3100   305.67609     -41015.224     -17894.187      4175.9829      15.6782        15.101003      17.6383      
      3200   293.91572     -41002.923     -18663.324      4183.8473      15.6782        15.129442      17.6383      
      3300   288.48952     -41011.67      -26267.319      4191.7117      15.6782        15.15788       17.6383      
      3400   291.40241     -41010.741     -25248.013      4199.576       15.6782        15.186319      17.6383      
      3500   290.13403     -41003.937     -23804.921      4207.4404      15.6782        15.214758      17.6383      
      3600   297.49421     -41012.94      -26485.546      4215.3048      15.6782        15.243197      17.6383      
      3700   278.1653      -40992.414     -23249.519      4223.1692      15.6782        15.271636      17.6383      
      3800   278.90087     -40989.898     -20921.01       4231.0335      15.6782        15.300074      17.6383      
      3900   294.60618     -41005.882     -19494.016      4238.8979      15.6782        15.328513      17.6383      
      4000   293.15086     -41006.93      -26748.482      4246.7623      15.6782        15.356952      17.6383      
      4100   306.65836     -40998.341     -37821.913      4254.6267      15.6782        15.385391      17.6383      
      4200   322.82887     -40988.537     -23452.189      4262.491       15.6782        15.41383       17.6383      
      4300   301.6517      -40990.349     -13226.388      4270.3554      15.6782        15.442268      17.6383      
      4400   304.59004     -41011.908     -15078.302      4278.2198      15.6782        15.470707      17.6383      
      4500   292.83678     -41004.555     -23101.146      4286.0842      15.6782        15.499146      17.6383      
      4600   303.19571     -41006.09      -20631.301      4293.9485      15.6782        15.527585      17.6383      
      4700   316.39536     -40995.444     -19840.669      4301.8129      15.6782        15.556024      17.6383      
      4800   322.61479     -40982.688     -24555.156      4309.6773      15.6782        15.584462      17.6383      
      4900   309.37627     -40991.341     -20940.054      4317.5417      15.6782        15.612901      17.6383      
      5000   307.00651     -41002.416     -19829.082      4325.406       15.6782        15.64134       17.6383      
Loop time of 207.377 on 16 procs for 5000 steps with 350 atoms

Performance: 1.042 ns/day, 23.042 hours/ns, 24.111 timesteps/s, 8.439 katom-step/s
99.4% CPU use with 8 MPI tasks x 2 OpenMP threads

MPI task timing breakdown:
Section |  min time  |  avg time  |  max time  |%varavg| %total
---------------------------------------------------------------
Pair    | 115.63     | 150.83     | 169.81     | 132.5 | 72.73
Bond    | 0.0014365  | 0.0017718  | 0.0020693  |   0.5 |  0.00
Neigh   | 11.518     | 14.096     | 15.897     |  35.3 |  6.80
Comm    | 3.1777     | 22.151     | 57.335     | 345.6 | 10.68
Output  | 0.016423   | 0.018484   | 0.020249   |   1.0 |  0.01
Modify  | 18.344     | 20.155     | 22.749     |  29.6 |  9.72
Other   |            | 0.125      |            |       |  0.06

Nlocal:          43.75 ave          50 max          37 min
Histogram: 1 0 2 1 0 0 1 1 0 2
Nghost:         2840.5 ave        2904 max        2790 min
Histogram: 1 0 1 2 0 2 1 0 0 1
Neighs:        24695.4 ave       28009 max       21068 min
Histogram: 1 0 2 1 0 0 0 2 0 2

Total # of neighbors = 197563
Ave neighs/atom = 564.46571
Ave special neighs/atom = 0
Neighbor list builds = 500
Dangerous builds not checked
  using 2 OpenMP thread(s) per MPI task
Reading restart file ...
  restart file = 2 Aug 2023, LAMMPS = 2 Aug 2023
  restoring atom style full from restart
  triclinic box = (0 0 0) to (15.6782 14.2194 17.6383) with tilt (-7.0409 -1.0144 0.675)
  2 by 2 by 2 MPI processor grid
  pair style reaxff stores no restart info
  350 atoms
Finding 1-2 1-3 1-4 neighbors ...
  special bond factors lj:    0        0        0       
  special bond factors coul:  0        0        0       
     0 = max # of 1-2 neighbors
     0 = max # of 1-3 neighbors
     0 = max # of 1-4 neighbors
     1 = max # of special neighbors
  special bonds CPU = 0.000 seconds
  read_restart CPU = 0.003 seconds
*****debug*****
xy = -7.0408999999999997144, deltaxy = 0.70409
xz = -1.0143999999999999684, deltaxz = 0.10144
yz = 0.67500000000000004441, deltayz = -0.0675
*****
*****Negative-deform 3 starts.*****
Resetting global fix info from restart file:
  fix style: nvt, fix ID: fnvt
All restart file global fix info was re-assigned
Neighbor list info ...
  update: every = 10 steps, delay = 0 steps, check = no
  max neighbors/atom: 2000, page size: 100000
  master list distance cutoff = 12
  ghost atom cutoff = 12
  binsize = 6, bins = 4 3 3
  2 neighbor lists, perpetual/occasional/extra = 2 0 0
  (1) pair reaxff, perpetual
      attributes: half, newton off, ghost
      pair build: half/bin/newtoff/ghost
      stencil: full/ghost/bin/3d
      bin: standard
  (2) fix qeq/reaxff, perpetual, copy from (1)
      attributes: half, newton off
      pair build: copy
      stencil: none
      bin: none
Setting up Verlet run ...
  Unit style    : real
  Current step  : 0
  Time step     : 0.5
Per MPI rank memory allocation (min/avg/max) = 121.4 | 122.5 | 123.9 Mbytes
   Step          Temp          PotEng         Press          Volume           Lx             Ly             Lz      
         0   284.96264     -41123.293     -7330.3916      3932.1873      15.6782        14.2194        17.6383      
       100   299.79151     -41118.141     -12904.344      3924.3229      15.6782        14.2194        17.603023    
       200   338.28098     -41116.516     -1421.0334      3916.4586      15.6782        14.2194        17.567747    
       300   309.77395     -41099.793     -3283.9721      3908.5942      15.6782        14.2194        17.53247     
       400   309.62014     -41129.7       -3354.5339      3900.7298      15.6782        14.2194        17.497194    
       500   296.23373     -41137.127      3837.6266      3892.8654      15.6782        14.2194        17.461917    
       600   306.05411     -41160.878     -8281.414       3885.0011      15.6782        14.2194        17.42664     
       700   290.51581     -41155.549     -10369.427      3877.1367      15.6782        14.2194        17.391364    
       800   295.69877     -41145.708     -16402.063      3869.2723      15.6782        14.2194        17.356087    
       900   319.12257     -41134.649      12391.345      3861.4079      15.6782        14.2194        17.320811    
      1000   308.44243     -41117.281     -9444.6036      3853.5436      15.6782        14.2194        17.285534    
      1100   281.18884     -41125.483      57.629907      3845.6792      15.6782        14.2194        17.250257    
      1200   274.60941     -41116.362     -10891.764      3837.8148      15.6782        14.2194        17.214981    
      1300   303.72679     -41131.793     -7866.8277      3829.9504      15.6782        14.2194        17.179704    
      1400   287.06999     -41117.462      13435.675      3822.0861      15.6782        14.2194        17.144428    
      1500   298.37089     -41149.767      4581.0845      3814.2217      15.6782        14.2194        17.109151    
      1600   280.49225     -41138.24       12177.842      3806.3573      15.6782        14.2194        17.073874    
      1700   292.16662     -41127.775      6278.5066      3798.4929      15.6782        14.2194        17.038598    
      1800   329.07057     -41143.77       9028.5402      3790.6286      15.6782        14.2194        17.003321    
      1900   311.07782     -41135.767      13207.189      3782.7642      15.6782        14.2194        16.968045    
      2000   296.13152     -41132.891      12679.338      3774.8998      15.6782        14.2194        16.932768    
      2100   293.46263     -41132.609      280.23966      3767.0354      15.6782        14.2194        16.897491    
      2200   305.53812     -41143.452      2223.7229      3759.1711      15.6782        14.2194        16.862215    
      2300   305.26695     -41146.911     -3228.7248      3751.3067      15.6782        14.2194        16.826938    
      2400   272.81024     -41131.143      16974.343      3743.4423      15.6782        14.2194        16.791662    
      2500   294.98677     -41142.631      2801.6095      3735.5779      15.6782        14.2194        16.756385    
      2600   299.20822     -41124.662      8094.2122      3727.7136      15.6782        14.2194        16.721108    
      2700   296.01565     -41106.709     -3278.5619      3719.8492      15.6782        14.2194        16.685832    
      2800   301.08649     -41124.805      8085.4829      3711.9848      15.6782        14.2194        16.650555    
      2900   289.52607     -41128.331      12688.414      3704.1204      15.6782        14.2194        16.615279    
      3000   293.43268     -41135.445      8238.1857      3696.2561      15.6782        14.2194        16.580002    
      3100   294.76712     -41124.273      8212.2492      3688.3917      15.6782        14.2194        16.544725    
      3200   288.11776     -41106.62       11169.716      3680.5273      15.6782        14.2194        16.509449    
      3300   332.04201     -41131.789      19373.948      3672.6629      15.6782        14.2194        16.474172    
      3400   317.12314     -41144.074      1287.903       3664.7986      15.6782        14.2194        16.438896    
      3500   304.70916     -41130.92       6436.5477      3656.9342      15.6782        14.2194        16.403619    
      3600   275.37268     -41101.47       16907.842      3649.0698      15.6782        14.2194        16.368342    
      3700   297.08587     -41132.6        9644.1932      3641.2054      15.6782        14.2194        16.333066    
      3800   292.67717     -41131.114      12035.499      3633.3411      15.6782        14.2194        16.297789    
      3900   270.15271     -41119.473      1944.5324      3625.4767      15.6782        14.2194        16.262513    
      4000   285.69128     -41121.685      3630.6103      3617.6123      15.6782        14.2194        16.227236    
      4100   308.1385      -41097.882      21529.972      3609.7479      15.6782        14.2194        16.191959    
      4200   318.78496     -41097.038      19510.048      3601.8836      15.6782        14.2194        16.156683    
      4300   339.15517     -41142.924      26650.478      3594.0192      15.6782        14.2194        16.121406    
      4400   298.73812     -41110.788      5848.5369      3586.1548      15.6782        14.2194        16.08613     
      4500   310.27255     -41130.423      10605.844      3578.2904      15.6782        14.2194        16.050853    
      4600   296.71557     -41126.407      21319.334      3570.4261      15.6782        14.2194        16.015576    
      4700   282.06927     -41108.797      5628.8552      3562.5617      15.6782        14.2194        15.9803      
      4800   282.30161     -41113.357      15099.745      3554.6973      15.6782        14.2194        15.945023    
      4900   276.42824     -41122.061      8584.2143      3546.8329      15.6782        14.2194        15.909747    
      5000   302.5074      -41140.56       4102.3712      3538.9686      15.6782        14.2194        15.87447     
Loop time of 237.993 on 16 procs for 5000 steps with 350 atoms

Performance: 0.908 ns/day, 26.444 hours/ns, 21.009 timesteps/s, 7.353 katom-step/s
99.5% CPU use with 8 MPI tasks x 2 OpenMP threads

MPI task timing breakdown:
Section |  min time  |  avg time  |  max time  |%varavg| %total
---------------------------------------------------------------
Pair    | 141.08     | 171.33     | 195.05     | 158.0 | 71.99
Bond    | 0.0014517  | 0.0017749  | 0.0021482  |   0.5 |  0.00
Neigh   | 12.584     | 15.25      | 17.497     |  48.5 |  6.41
Comm    | 5.505      | 29.204     | 59.401     | 382.2 | 12.27
Output  | 0.018059   | 0.020539   | 0.022267   |   1.1 |  0.01
Modify  | 19.628     | 21.954     | 24.625     |  41.0 |  9.22
Other   |            | 0.2304     |            |       |  0.10

Nlocal:          43.75 ave          49 max          35 min
Histogram: 1 0 0 0 2 0 1 2 0 2
Nghost:        3322.38 ave        3363 max        3278 min
Histogram: 1 1 0 2 0 0 1 1 1 1
Neighs:        30270.2 ave       33788 max       24457 min
Histogram: 1 0 0 0 2 0 1 2 0 2

Total # of neighbors = 242162
Ave neighs/atom = 691.89143
Ave special neighs/atom = 0
Neighbor list builds = 500
Dangerous builds not checked
  using 2 OpenMP thread(s) per MPI task
Reading restart file ...
  restart file = 2 Aug 2023, LAMMPS = 2 Aug 2023
  restoring atom style full from restart
  triclinic box = (0 0 0) to (15.6782 14.2194 17.6383) with tilt (-7.0409 -1.0144 0.675)
  2 by 2 by 2 MPI processor grid
  pair style reaxff stores no restart info
  350 atoms
Finding 1-2 1-3 1-4 neighbors ...
  special bond factors lj:    0        0        0       
  special bond factors coul:  0        0        0       
     0 = max # of 1-2 neighbors
     0 = max # of 1-3 neighbors
     0 = max # of 1-4 neighbors
     1 = max # of special neighbors
  special bonds CPU = 0.000 seconds
  read_restart CPU = 0.003 seconds
*****Positive-deform 3 starts.*****
Resetting global fix info from restart file:
  fix style: nvt, fix ID: fnvt
All restart file global fix info was re-assigned
Neighbor list info ...
  update: every = 10 steps, delay = 0 steps, check = no
  max neighbors/atom: 2000, page size: 100000
  master list distance cutoff = 12
  ghost atom cutoff = 12
  binsize = 6, bins = 4 3 3
  2 neighbor lists, perpetual/occasional/extra = 2 0 0
  (1) pair reaxff, perpetual
      attributes: half, newton off, ghost
      pair build: half/bin/newtoff/ghost
      stencil: full/ghost/bin/3d
      bin: standard
  (2) fix qeq/reaxff, perpetual, copy from (1)
      attributes: half, newton off
      pair build: copy
      stencil: none
      bin: none
Setting up Verlet run ...
  Unit style    : real
  Current step  : 0
  Time step     : 0.5
Per MPI rank memory allocation (min/avg/max) = 121.4 | 122.5 | 123.9 Mbytes
   Step          Temp          PotEng         Press          Volume           Lx             Ly             Lz      
         0   284.96264     -41123.293     -7330.3916      3932.1873      15.6782        14.2194        17.6383      
       100   299.55434     -41118.797     -12691.957      3940.0517      15.6782        14.2194        17.673577    
       200   329.97606     -41109.348     -6928.7507      3947.9161      15.6782        14.2194        17.708853    
       300   301.36185     -41089.79      -4577.7847      3955.7804      15.6782        14.2194        17.74413     
       400   297.25389     -41120.073     -3348.865       3963.6448      15.6782        14.2194        17.779406    
       500   288.63558     -41120.941      4285.5811      3971.5092      15.6782        14.2194        17.814683    
       600   302.36697     -41145.142     -8753.3352      3979.3736      15.6782        14.2194        17.84996     
       700   293.55826     -41150.234     -10209.357      3987.2379      15.6782        14.2194        17.885236    
       800   293.29133     -41146.547     -11804.876      3995.1023      15.6782        14.2194        17.920513    
       900   302.02349     -41138.304     -8188.1633      4002.9667      15.6782        14.2194        17.955789    
      1000   308.81653     -41105.998     -13780.989      4010.831       15.6782        14.2194        17.991066    
      1100   314.84176     -41110.884     -19948.679      4018.6954      15.6782        14.2194        18.026343    
      1200   291.17847     -41102.242     -24409.87       4026.5598      15.6782        14.2194        18.061619    
      1300   307.88019     -41111.822     -8641.63        4034.4242      15.6782        14.2194        18.096896    
      1400   311.4707      -41121.109     -13892.797      4042.2885      15.6782        14.2194        18.132172    
      1500   289.95076     -41104.204     -8853.3147      4050.1529      15.6782        14.2194        18.167449    
      1600   296.12468     -41113.83      -11152.316      4058.0173      15.6782        14.2194        18.202726    
      1700   317.14455     -41118.261     -9265.8331      4065.8817      15.6782        14.2194        18.238002    
      1800   315.02945     -41073.397     -15926.516      4073.746       15.6782        14.2194        18.273279    
      1900   312.0647      -41068.011     -15315.645      4081.6104      15.6782        14.2194        18.308555    
      2000   317.88257     -41098.346     -21383.805      4089.4748      15.6782        14.2194        18.343832    
      2100   308.34344     -41102.658     -10074.767      4097.3392      15.6782        14.2194        18.379109    
      2200   287.66464     -41094.355     -15251.803      4105.2035      15.6782        14.2194        18.414385    
      2300   312.7159      -41110.968     -18296.634      4113.0679      15.6782        14.2194        18.449662    
      2400   306.42441     -41086.246     -9013.0859      4120.9323      15.6782        14.2194        18.484938    
      2500   310.97608     -41074.515     -13279.994      4128.7967      15.6782        14.2194        18.520215    
      2600   307.89317     -41073.596     -24867.32       4136.661       15.6782        14.2194        18.555492    
      2700   296.03838     -41080.888     -7511.7966      4144.5254      15.6782        14.2194        18.590768    
      2800   291.58914     -41084.23      -14527.358      4152.3898      15.6782        14.2194        18.626045    
      2900   288.53232     -41079.029     -12342.853      4160.2542      15.6782        14.2194        18.661321    
      3000   316.31426     -41071.777     -13207.015      4168.1185      15.6782        14.2194        18.696598    
      3100   319.16882     -41042.902     -15107.53       4175.9829      15.6782        14.2194        18.731875    
      3200   302.47289     -41035.325     -6232.2816      4183.8473      15.6782        14.2194        18.767151    
      3300   316.0053      -41070.235     -8173.1248      4191.7117      15.6782        14.2194        18.802428    
      3400   315.37476     -41070.261     -26389.465      4199.576       15.6782        14.2194        18.837704    
      3500   307.97642     -41061.096     -5369.133       4207.4404      15.6782        14.2194        18.872981    
      3600   282.26868     -41038.338     -30349.847      4215.3048      15.6782        14.2194        18.908258    
      3700   292.02825     -41058.804     -32843.985      4223.1692      15.6782        14.2194        18.943534    
      3800   271.36023     -41057.347     -24616.439      4231.0335      15.6782        14.2194        18.978811    
      3900   302.4223      -41060.018     -20270.684      4238.8979      15.6782        14.2194        19.014087    
      4000   297.14656     -41029.43      -25508.518      4246.7623      15.6782        14.2194        19.049364    
      4100   290.77687     -41020.299     -15411.443      4254.6267      15.6782        14.2194        19.084641    
      4200   285.04141     -41018.951     -14901.405      4262.491       15.6782        14.2194        19.119917    
      4300   296.84108     -41039.91      -20264.47       4270.3554      15.6782        14.2194        19.155194    
      4400   276.8595      -41022.469     -17731.105      4278.2198      15.6782        14.2194        19.19047     
      4500   290.78973     -41010.846     -23315.094      4286.0842      15.6782        14.2194        19.225747    
      4600   311.56527     -40997.292     -27595.977      4293.9485      15.6782        14.2194        19.261024    
      4700   321.83782     -41016.938     -28341.786      4301.8129      15.6782        14.2194        19.2963      
      4800   290.51586     -41002.025     -23708.196      4309.6773      15.6782        14.2194        19.331577    
      4900   296.10274     -41009.492     -23665.43       4317.5417      15.6782        14.2194        19.366853    
      5000   291.56811     -41001.121     -32088.737      4325.406       15.6782        14.2194        19.40213     
Loop time of 206.355 on 16 procs for 5000 steps with 350 atoms

Performance: 1.047 ns/day, 22.928 hours/ns, 24.230 timesteps/s, 8.481 katom-step/s
99.4% CPU use with 8 MPI tasks x 2 OpenMP threads

MPI task timing breakdown:
Section |  min time  |  avg time  |  max time  |%varavg| %total
---------------------------------------------------------------
Pair    | 113.39     | 147.46     | 171.2      | 207.4 | 71.46
Bond    | 0.0014226  | 0.0017236  | 0.0021326  |   0.6 |  0.00
Neigh   | 9.5496     | 12.345     | 14.436     |  58.2 |  5.98
Comm    | 2.1178     | 25.845     | 59.9       | 495.1 | 12.52
Output  | 0.017056   | 0.019376   | 0.020916   |   0.9 |  0.01
Modify  | 18.449     | 20.571     | 23.402     |  45.8 |  9.97
Other   |            | 0.1086     |            |       |  0.05

Nlocal:          43.75 ave          57 max          37 min
Histogram: 3 1 0 1 0 0 2 0 0 1
Nghost:        2875.75 ave        2925 max        2842 min
Histogram: 2 1 1 0 1 0 2 0 0 1
Neighs:        24698.4 ave       31706 max       21155 min
Histogram: 3 1 1 0 0 1 1 0 0 1

Total # of neighbors = 197587
Ave neighs/atom = 564.53429
Ave special neighs/atom = 0
Neighbor list builds = 500
Dangerous builds not checked
  using 2 OpenMP thread(s) per MPI task
Reading restart file ...
  restart file = 2 Aug 2023, LAMMPS = 2 Aug 2023
  restoring atom style full from restart
  triclinic box = (0 0 0) to (15.6782 14.2194 17.6383) with tilt (-7.0409 -1.0144 0.675)
  2 by 2 by 2 MPI processor grid
  pair style reaxff stores no restart info
  350 atoms
Finding 1-2 1-3 1-4 neighbors ...
  special bond factors lj:    0        0        0       
  special bond factors coul:  0        0        0       
     0 = max # of 1-2 neighbors
     0 = max # of 1-3 neighbors
     0 = max # of 1-4 neighbors
     1 = max # of special neighbors
  special bonds CPU = 0.000 seconds
  read_restart CPU = 0.003 seconds
*****debug*****
xy = -7.0408999999999997144, deltaxy = 0.70409
xz = -1.0143999999999999684, deltaxz = 0.10144
yz = 0.67500000000000004441, deltayz = -0.0675
*****
*****Negative-deform 4 starts.*****
Resetting global fix info from restart file:
  fix style: nvt, fix ID: fnvt
All restart file global fix info was re-assigned
Neighbor list info ...
  update: every = 10 steps, delay = 0 steps, check = no
  max neighbors/atom: 2000, page size: 100000
  master list distance cutoff = 12
  ghost atom cutoff = 12
  binsize = 6, bins = 4 3 3
  2 neighbor lists, perpetual/occasional/extra = 2 0 0
  (1) pair reaxff, perpetual
      attributes: half, newton off, ghost
      pair build: half/bin/newtoff/ghost
      stencil: full/ghost/bin/3d
      bin: standard
  (2) fix qeq/reaxff, perpetual, copy from (1)
      attributes: half, newton off
      pair build: copy
      stencil: none
      bin: none
Setting up Verlet run ...
  Unit style    : real
  Current step  : 0
  Time step     : 0.5
Per MPI rank memory allocation (min/avg/max) = 121.4 | 122.5 | 123.9 Mbytes
   Step          Temp          PotEng         Press          Volume           Lx             Ly             Lz      
         0   284.96264     -41123.293     -7330.3916      3932.1873      15.6782        14.2194        17.6383      
       100   299.53994     -41118.612     -12696.161      3932.1873      15.6782        14.2194        17.6383      
       200   332.3248      -41116.947     -6050.4418      3932.1873      15.6782        14.2194        17.6383      
       300   312.72533     -41105.384     -7550.5945      3932.1873      15.6782        14.2194        17.6383      
       400   298.78544     -41131.969     -9439.1119      3932.1873      15.6782        14.2194        17.6383      
       500   287.0939      -41131.171     -6208.0106      3932.1873      15.6782        14.2194        17.6383      
       600   313.47609     -41167.316     -415.8035       3932.1873      15.6782        14.2194        17.6383      
       700   279.87817     -41143.144     -9309.3112      3932.1873      15.6782        14.2194        17.6383      
       800   304.35345     -41160.305     -9959.0263      3932.1873      15.6782        14.2194        17.6383      
       900   303.06094     -41125.592     -9365.354       3932.1873      15.6782        14.2194        17.6383      
      1000   303.89042     -41117.651     -4227.0081      3932.1873      15.6782        14.2194        17.6383      
      1100   308.55465     -41134.59      -9711.4539      3932.1873      15.6782        14.2194        17.6383      
      1200   297.29928     -41134.339      3082.8847      3932.1873      15.6782        14.2194        17.6383      
      1300   285.37194     -41127.725     -9392.6793      3932.1873      15.6782        14.2194        17.6383      
      1400   305.97422     -41145.884     -8209.4804      3932.1873      15.6782        14.2194        17.6383      
      1500   292.39441     -41135.443     -2150.2701      3932.1873      15.6782        14.2194        17.6383      
      1600   298.71164     -41142.605     -16991.75       3932.1873      15.6782        14.2194        17.6383      
      1700   301.41395     -41141.581     -9426.2985      3932.1873      15.6782        14.2194        17.6383      
      1800   312.4859      -41123.574     -2785.219       3932.1873      15.6782        14.2194        17.6383      
      1900   320.25815     -41117.49      -2005.7849      3932.1873      15.6782        14.2194        17.6383      
      2000   297.3636      -41114.923     -9578.3074      3932.1873      15.6782        14.2194        17.6383      
      2100   308.44582     -41145.839      2048.2664      3932.1873      15.6782        14.2194        17.6383      
      2200   287.32243     -41129.512     -5276.6177      3932.1873      15.6782        14.2194        17.6383      
      2300   288.53326     -41138.588     -5367.1777      3932.1873      15.6782        14.2194        17.6383      
      2400   294.16688     -41149.051      1286.6687      3932.1873      15.6782        14.2194        17.6383      
      2500   294.9905      -41155.511     -12848.413      3932.1873      15.6782        14.2194        17.6383      
      2600   306.48579     -41152.947     -3948.901       3932.1873      15.6782        14.2194        17.6383      
      2700   317.36031     -41138.35       637.85682      3932.1873      15.6782        14.2194        17.6383      
      2800   312.88449     -41125.219     -5726.2365      3932.1873      15.6782        14.2194        17.6383      
      2900   319.79414     -41151.453     -5637.0164      3932.1873      15.6782        14.2194        17.6383      
      3000   287.70219     -41143.75       339.01828      3932.1873      15.6782        14.2194        17.6383      
      3100   292.96273     -41148.082     -13948.942      3932.1873      15.6782        14.2194        17.6383      
      3200   293.05244     -41133.022     -9425.9194      3932.1873      15.6782        14.2194        17.6383      
      3300   294.25088     -41110.686     -15501.584      3932.1873      15.6782        14.2194        17.6383      
      3400   337.43592     -41120.879     -16974.909      3932.1873      15.6782        14.2194        17.6383      
      3500   321.10735     -41116.848     -9045.96        3932.1873      15.6782        14.2194        17.6383      
      3600   310.09204     -41132.214      9702.3507      3932.1873      15.6782        14.2194        17.6383      
      3700   294.6554      -41132.976     -11270.114      3932.1873      15.6782        14.2194        17.6383      
      3800   296.61591     -41138.25      -13246.848      3932.1873      15.6782        14.2194        17.6383      
      3900   302.0036      -41128.132      1001.7056      3932.1873      15.6782        14.2194        17.6383      
      4000   309.52741     -41108.77      -10257.749      3932.1873      15.6782        14.2194        17.6383      
      4100   328.88425     -41129.299     -320.39212      3932.1873      15.6782        14.2194        17.6383      
      4200   324.79339     -41157.279      265.08807      3932.1873      15.6782        14.2194        17.6383      
      4300   309.83918     -41153.481      1168.174       3932.1873      15.6782        14.2194        17.6383      
      4400   278.46641     -41130.266      2217.3815      3932.1873      15.6782        14.2194        17.6383      
      4500   288.99031     -41142.787     -7421.4696      3932.1873      15.6782        14.2194        17.6383      
      4600   303.90764     -41146.659     -7201.6076      3932.1873      15.6782        14.2194        17.6383      
      4700   308.70046     -41123.573     -10480.009      3932.1873      15.6782        14.2194        17.6383      
      4800   315.46532     -41125.93       3180.5292      3932.1873      15.6782        14.2194        17.6383      
      4900   298.68135     -41125.117     -10458.4        3932.1873      15.6782        14.2194        17.6383      
      5000   301.82979     -41137.322     -4695.3434      3932.1873      15.6782        14.2194        17.6383      
Loop time of 220.402 on 16 procs for 5000 steps with 350 atoms

Performance: 0.980 ns/day, 24.489 hours/ns, 22.686 timesteps/s, 7.940 katom-step/s
99.5% CPU use with 8 MPI tasks x 2 OpenMP threads

MPI task timing breakdown:
Section |  min time  |  avg time  |  max time  |%varavg| %total
---------------------------------------------------------------
Pair    | 123.52     | 154.03     | 182.49     | 206.5 | 69.88
Bond    | 0.0014031  | 0.0017319  | 0.0020373  |   0.5 |  0.00
Neigh   | 11.34      | 14.11      | 16.821     |  63.5 |  6.40
Comm    | 2.3811     | 30.819     | 61.292     | 461.4 | 13.98
Output  | 0.017282   | 0.019469   | 0.020876   |   1.0 |  0.01
Modify  | 18.565     | 21.314     | 24.105     |  52.2 |  9.67
Other   |            | 0.1105     |            |       |  0.05

Nlocal:          43.75 ave          47 max          37 min
Histogram: 1 0 0 0 0 1 2 0 1 3
Nghost:        3138.25 ave        3159 max        3116 min
Histogram: 2 0 1 0 1 1 0 0 0 3
Neighs:        27242.2 ave       29061 max       23320 min
Histogram: 1 0 0 0 0 2 1 0 1 3

Total # of neighbors = 217938
Ave neighs/atom = 622.68
Ave special neighs/atom = 0
Neighbor list builds = 500
Dangerous builds not checked
  using 2 OpenMP thread(s) per MPI task
Reading restart file ...
  restart file = 2 Aug 2023, LAMMPS = 2 Aug 2023
  restoring atom style full from restart
  triclinic box = (0 0 0) to (15.6782 14.2194 17.6383) with tilt (-7.0409 -1.0144 0.675)
  2 by 2 by 2 MPI processor grid
  pair style reaxff stores no restart info
  350 atoms
Finding 1-2 1-3 1-4 neighbors ...
  special bond factors lj:    0        0        0       
  special bond factors coul:  0        0        0       
     0 = max # of 1-2 neighbors
     0 = max # of 1-3 neighbors
     0 = max # of 1-4 neighbors
     1 = max # of special neighbors
  special bonds CPU = 0.000 seconds
  read_restart CPU = 0.003 seconds
*****Positive-deform 4 starts.*****
Resetting global fix info from restart file:
  fix style: nvt, fix ID: fnvt
All restart file global fix info was re-assigned
Neighbor list info ...
  update: every = 10 steps, delay = 0 steps, check = no
  max neighbors/atom: 2000, page size: 100000
  master list distance cutoff = 12
  ghost atom cutoff = 12
  binsize = 6, bins = 4 3 3
  2 neighbor lists, perpetual/occasional/extra = 2 0 0
  (1) pair reaxff, perpetual
      attributes: half, newton off, ghost
      pair build: half/bin/newtoff/ghost
      stencil: full/ghost/bin/3d
      bin: standard
  (2) fix qeq/reaxff, perpetual, copy from (1)
      attributes: half, newton off
      pair build: copy
      stencil: none
      bin: none
Setting up Verlet run ...
  Unit style    : real
  Current step  : 0
  Time step     : 0.5
Per MPI rank memory allocation (min/avg/max) = 121.5 | 122.5 | 123.9 Mbytes
   Step          Temp          PotEng         Press          Volume           Lx             Ly             Lz      
         0   284.96264     -41123.293     -7330.3916      3932.1873      15.6782        14.2194        17.6383      
       100   299.78479     -41118.381     -12899.699      3932.1873      15.6782        14.2194        17.6383      
       200   332.28694     -41112.563     -5009.3699      3932.1873      15.6782        14.2194        17.6383      
       300   300.27785     -41090.191     -6036.6282      3932.1873      15.6782        14.2194        17.6383      
       400   292.88966     -41123.574     -10090.74       3932.1873      15.6782        14.2194        17.6383      
       500   275.44233     -41121.46      -8528.9854      3932.1873      15.6782        14.2194        17.6383      
       600   299.92408     -41153.152     -14674.504      3932.1873      15.6782        14.2194        17.6383      
       700   292.98487     -41151.791     -5689.4301      3932.1873      15.6782        14.2194        17.6383      
       800   286.21219     -41126.685     -5614.5824      3932.1873      15.6782        14.2194        17.6383      
       900   284.45223     -41095.578     -8752.055       3932.1873      15.6782        14.2194        17.6383      
      1000   305.21028     -41117.38      -10266.768      3932.1873      15.6782        14.2194        17.6383      
      1100   315.71421     -41143.936      3823.2582      3932.1873      15.6782        14.2194        17.6383      
      1200   293.41213     -41125.614     -25078.766      3932.1873      15.6782        14.2194        17.6383      
      1300   284.21089     -41113.193     -8071.8983      3932.1873      15.6782        14.2194        17.6383      
      1400   319.66534     -41145.944     -9965.549       3932.1873      15.6782        14.2194        17.6383      
      1500   297.1145      -41153.437     -12169.757      3932.1873      15.6782        14.2194        17.6383      
      1600   288.93968     -41155.656     -9323.4619      3932.1873      15.6782        14.2194        17.6383      
      1700   293.8807      -41145.186     -6243.8955      3932.1873      15.6782        14.2194        17.6383      
      1800   299.96019     -41140.556     -5008.188       3932.1873      15.6782        14.2194        17.6383      
      1900   302.43484     -41140.651     -10261.599      3932.1873      15.6782        14.2194        17.6383      
      2000   284.90797     -41123.2       -13078.439      3932.1873      15.6782        14.2194        17.6383      
      2100   278.08042     -41119.066     -9827.8192      3932.1873      15.6782        14.2194        17.6383      
      2200   291.4089      -41151.19      -10625.728      3932.1873      15.6782        14.2194        17.6383      
      2300   286.64266     -41159.692     -1825.0127      3932.1873      15.6782        14.2194        17.6383      
      2400   297.72803     -41160.345     -6176.773       3932.1873      15.6782        14.2194        17.6383      
      2500   306.48979     -41142.218     -16656.59       3932.1873      15.6782        14.2194        17.6383      
      2600   332.81878     -41149.948     -8761.3531      3932.1873      15.6782        14.2194        17.6383      
      2700   307.7242      -41132.58      -11185.04       3932.1873      15.6782        14.2194        17.6383      
      2800   304.68594     -41143.271     -7383.7645      3932.1873      15.6782        14.2194        17.6383      
      2900   297.45627     -41136.213     -30.01829       3932.1873      15.6782        14.2194        17.6383      
      3000   312.58023     -41150.318     -5862.7465      3932.1873      15.6782        14.2194        17.6383      
      3100   308.41802     -41142.741     -8538.8424      3932.1873      15.6782        14.2194        17.6383      
      3200   283.72748     -41127.335     -7724.8614      3932.1873      15.6782        14.2194        17.6383      
      3300   281.72395     -41138.441     -1654.3965      3932.1873      15.6782        14.2194        17.6383      
      3400   301.74857     -41166.252     -11077.217      3932.1873      15.6782        14.2194        17.6383      
      3500   301.42538     -41153.202     -7538.1599      3932.1873      15.6782        14.2194        17.6383      
      3600   333.87441     -41155.543     -12381.789      3932.1873      15.6782        14.2194        17.6383      
      3700   320.08104     -41155.618     -15054.443      3932.1873      15.6782        14.2194        17.6383      
      3800   319.97301     -41179.079     -16538.443      3932.1873      15.6782        14.2194        17.6383      
      3900   299.95932     -41166.235      2836.6364      3932.1873      15.6782        14.2194        17.6383      
      4000   289.48922     -41161.48      -5744.0897      3932.1873      15.6782        14.2194        17.6383      
      4100   290.74734     -41162.808     -12899.93       3932.1873      15.6782        14.2194        17.6383      
      4200   307.57058     -41163.436     -9958.7732      3932.1873      15.6782        14.2194        17.6383      
      4300   301.71257     -41130.777     -4635.9537      3932.1873      15.6782        14.2194        17.6383      
[...]
      4400   297.03253     -41122.013     -3320.7282      3932.1873      15.6782        14.2194        17.6383      
      4500   315.49222     -41131.002     -11943.211      3932.1873      15.6782        14.2194        17.6383      
      4600   286.18024     -41107.265     -5768.7472      3932.1873      15.6782        14.2194        17.6383      
      4700   285.15447     -41115.85      -16841.982      3932.1873      15.6782        14.2194        17.6383      
      4800   295.0433      -41131.032     -1607.8593      3932.1873      15.6782        14.2194        17.6383      
      4900   303.23615     -41128.397     -6414.9853      3932.1873      15.6782        14.2194        17.6383      
      5000   312.62936     -41123.648     -420.63118      3932.1873      15.6782        14.2194        17.6383      
Loop time of 221.601 on 16 procs for 5000 steps with 350 atoms

Performance: 0.975 ns/day, 24.622 hours/ns, 22.563 timesteps/s, 7.897 katom-step/s
99.4% CPU use with 8 MPI tasks x 2 OpenMP threads

MPI task timing breakdown:
Section |  min time  |  avg time  |  max time  |%varavg| %total
---------------------------------------------------------------
Pair    | 125.21     | 166.25     | 183.29     | 151.2 | 75.02
Bond    | 0.0015322  | 0.001782   | 0.0021     |   0.5 |  0.00
Neigh   | 11.756     | 15.146     | 16.617     |  42.7 |  6.84
Comm    | 2.4158     | 19.453     | 60.454     | 441.6 |  8.78
Output  | 0.016738   | 0.018904   | 0.020455   |   1.0 |  0.01
Modify  | 19.101     | 20.614     | 24.053     |  37.2 |  9.30
Other   |            | 0.1217     |            |       |  0.05

Nlocal:          43.75 ave          47 max          39 min
Histogram: 1 0 0 1 0 0 3 2 0 1
Nghost:        3100.25 ave        3168 max        3033 min
Histogram: 2 0 1 1 0 0 1 0 2 1
Neighs:        27249.9 ave       29198 max       24366 min
Histogram: 1 0 0 1 0 0 3 2 0 1

Total # of neighbors = 217999
Ave neighs/atom = 622.85429
Ave special neighs/atom = 0
Neighbor list builds = 500
Dangerous builds not checked
  using 2 OpenMP thread(s) per MPI task
Reading restart file ...
  restart file = 2 Aug 2023, LAMMPS = 2 Aug 2023
  restoring atom style full from restart
  triclinic box = (0 0 0) to (15.6782 14.2194 17.6383) with tilt (-7.0409 -1.0144 0.675)
  2 by 2 by 2 MPI processor grid
  pair style reaxff stores no restart info
  350 atoms
Finding 1-2 1-3 1-4 neighbors ...
  special bond factors lj:    0        0        0       
  special bond factors coul:  0        0        0       
     0 = max # of 1-2 neighbors
     0 = max # of 1-3 neighbors
     0 = max # of 1-4 neighbors
     1 = max # of special neighbors
  special bonds CPU = 0.000 seconds
  read_restart CPU = 0.003 seconds
*****debug*****
xy = -7.0408999999999997144, deltaxy = 0.70409
xz = -1.0143999999999999684, deltaxz = 0.10144
yz = 0.67500000000000004441, deltayz = -0.0675
*****
*****Negative-deform 6 starts.*****
Resetting global fix info from restart file:
  fix style: nvt, fix ID: fnvt
All restart file global fix info was re-assigned
Neighbor list info ...
  update: every = 10 steps, delay = 0 steps, check = no
  max neighbors/atom: 2000, page size: 100000
  master list distance cutoff = 12
  ghost atom cutoff = 12
  binsize = 6, bins = 4 3 3
  2 neighbor lists, perpetual/occasional/extra = 2 0 0
  (1) pair reaxff, perpetual
      attributes: half, newton off, ghost
      pair build: half/bin/newtoff/ghost
      stencil: full/ghost/bin/3d
      bin: standard
  (2) fix qeq/reaxff, perpetual, copy from (1)
      attributes: half, newton off
      pair build: copy
      stencil: none
      bin: none
Setting up Verlet run ...
  Unit style    : real
  Current step  : 0
  Time step     : 0.5
Per MPI rank memory allocation (min/avg/max) = 121.4 | 122.5 | 123.9 Mbytes
   Step          Temp          PotEng         Press          Volume           Lx             Ly             Lz      
         0   284.96264     -41123.293     -7330.3916      3932.1873      15.6782        14.2194        17.6383      
       100   299.79018     -41118.524     -12889.762      3932.1873      15.6782        14.2194        17.6383      
       200   337.72562     -41120.376     -5942.207       3932.1873      15.6782        14.2194        17.6383      
       300   303.94547     -41095.829     -6931.0793      3932.1873      15.6782        14.2194        17.6383      
       400   300.98722     -41133.41      -7480.5628      3932.1873      15.6782        14.2194        17.6383      
       500   285.5815      -41134.487     -4212.8547      3932.1873      15.6782        14.2194        17.6383      
       600   309.6372      -41164.451     -5287.1179      3932.1873      15.6782        14.2194        17.6383      
       700   295.10284     -41159.513     -8471.4808      3932.1873      15.6782        14.2194        17.6383      
       800   291.11304     -41149.137     -20439.251      3932.1873      15.6782        14.2194        17.6383      
       900   296.29778     -41122.122     -1680.7639      3932.1873      15.6782        14.2194        17.6383      
      1000   319.96967     -41129.44      -3245.7449      3932.1873      15.6782        14.2194        17.6383      
      1100   307.1534      -41134.1       -8122.968       3932.1873      15.6782        14.2194        17.6383      
      1200   292.08237     -41131.333      5903.5749      3932.1873      15.6782        14.2194        17.6383      
      1300   300.07361     -41134.876     -13059.962      3932.1873      15.6782        14.2194        17.6383      
      1400   306.23126     -41143.02      -6378.7507      3932.1873      15.6782        14.2194        17.6383      
      1500   297.4946      -41136.901     -12199.911      3932.1873      15.6782        14.2194        17.6383      
      1600   282.2854      -41143.827     -9517.9896      3932.1873      15.6782        14.2194        17.6383      
      1700   295.37757     -41165.494     -10598.512      3932.1873      15.6782        14.2194        17.6383      
      1800   278.71794     -41142.646     -7437.9715      3932.1873      15.6782        14.2194        17.6383      
      1900   288.16314     -41114.536     -20117.621      3932.1873      15.6782        14.2194        17.6383      
      2000   301.90844     -41123.503     -20704.884      3932.1873      15.6782        14.2194        17.6383      
      2100   292.45508     -41120.783     -1618.1391      3932.1873      15.6782        14.2194        17.6383      
      2200   301.69931     -41134.249     -12046.851      3932.1873      15.6782        14.2194        17.6383      
      2300   279.00198     -41129.205     -9732.5404      3932.1873      15.6782        14.2194        17.6383      
      2400   299.69886     -41171.499     -12377.576      3932.1873      15.6782        14.2194        17.6383      
      2500   286.14638     -41151.904     -10632.429      3932.1873      15.6782        14.2194        17.6383      
      2600   321.1563      -41157.569     -4296.4615      3932.1873      15.6782        14.2194        17.6383      
      2700   300.29035     -41125.218     -9231.9395      3932.1873      15.6782        14.2194        17.6383      
      2800   317.85408     -41140.398     -13522.186      3932.1873      15.6782        14.2194        17.6383      
      2900   288.54051     -41120.816     -17218.645      3932.1873      15.6782        14.2194        17.6383      
      3000   297.08587     -41144.067     -12545.503      3932.1873      15.6782        14.2194        17.6383      
      3100   283.53839     -41154.551     -1906.9341      3932.1873      15.6782        14.2194        17.6383      
      3200   281.5609      -41148.511     -1088.8106      3932.1873      15.6782        14.2194        17.6383      
      3300   309.00476     -41143.976     -14381.482      3932.1873      15.6782        14.2194        17.6383      
      3400   307.3744      -41127.6       -13817.123      3932.1873      15.6782        14.2194        17.6383      
      3500   321.86651     -41142.868     -1441.0108      3932.1873      15.6782        14.2194        17.6383      
      3600   297.44185     -41132.467      139.49217      3932.1873      15.6782        14.2194        17.6383      
      3700   311.4635      -41147.562     -2858.7509      3932.1873      15.6782        14.2194        17.6383      
      3800   306.92979     -41125.999     -172.84213      3932.1873      15.6782        14.2194        17.6383      
      3900   325.02918     -41116.14      -3350.2033      3932.1873      15.6782        14.2194        17.6383      
      4000   312.44246     -41103.737      351.90132      3932.1873      15.6782        14.2194        17.6383      
      4100   293.83878     -41113.642     -13057.565      3932.1873      15.6782        14.2194        17.6383      
      4200   300.91957     -41126.945     -7387.4817      3932.1873      15.6782        14.2194        17.6383      
      4300   312.74453     -41140.3       -14393.155      3932.1873      15.6782        14.2194        17.6383      
      4400   289.90182     -41121.761     -929.04844      3932.1873      15.6782        14.2194        17.6383      
      4500   297.29197     -41129.413      6282.9415      3932.1873      15.6782        14.2194        17.6383      
      4600   325.35674     -41128.639      1833.5952      3932.1873      15.6782        14.2194        17.6383      
      4700   323.1582      -41113.656     -10767.636      3932.1873      15.6782        14.2194        17.6383      
      4800   303.68876     -41112.88      -14394.287      3932.1873      15.6782        14.2194        17.6383      
      4900   304.11565     -41129.448      2213.8592      3932.1873      15.6782        14.2194        17.6383      
      5000   297.58197     -41120.192     -15972.06       3932.1873      15.6782        14.2194        17.6383      
Loop time of 215.787 on 16 procs for 5000 steps with 350 atoms

Performance: 1.001 ns/day, 23.976 hours/ns, 23.171 timesteps/s, 8.110 katom-step/s
99.4% CPU use with 8 MPI tasks x 2 OpenMP threads

MPI task timing breakdown:
Section |  min time  |  avg time  |  max time  |%varavg| %total
---------------------------------------------------------------
Pair    | 121.23     | 150.82     | 179.99     | 167.1 | 69.89
Bond    | 0.001325   | 0.0016281  | 0.0020015  |   0.6 |  0.00
Neigh   | 10.57      | 13.03      | 15.75      |  49.9 |  6.04
Comm    | 1.4051     | 30.572     | 60.177     | 371.2 | 14.17
Output  | 0.015824   | 0.017475   | 0.019077   |   0.8 |  0.01
Modify  | 18.486     | 21.235     | 23.691     |  39.4 |  9.84
Other   |            | 0.1115     |            |       |  0.05

Nlocal:          43.75 ave          48 max          38 min
Histogram: 1 0 1 0 0 0 2 2 1 1
Nghost:        3223.25 ave        3242 max        3207 min
Histogram: 1 1 1 0 1 2 0 0 1 1
Neighs:        27214.4 ave       29832 max       23843 min
Histogram: 1 1 0 0 0 2 1 1 1 1

Total # of neighbors = 217715
Ave neighs/atom = 622.04286
Ave special neighs/atom = 0
Neighbor list builds = 500
Dangerous builds not checked
  using 2 OpenMP thread(s) per MPI task
Reading restart file ...
  restart file = 2 Aug 2023, LAMMPS = 2 Aug 2023
  restoring atom style full from restart
  triclinic box = (0 0 0) to (15.6782 14.2194 17.6383) with tilt (-7.0409 -1.0144 0.675)
  2 by 2 by 2 MPI processor grid
  pair style reaxff stores no restart info
  350 atoms
Finding 1-2 1-3 1-4 neighbors ...
  special bond factors lj:    0        0        0       
  special bond factors coul:  0        0        0       
     0 = max # of 1-2 neighbors
     0 = max # of 1-3 neighbors
     0 = max # of 1-4 neighbors
     1 = max # of special neighbors
  special bonds CPU = 0.000 seconds
  read_restart CPU = 0.003 seconds
*****Positive-deform 6 starts.*****
Resetting global fix info from restart file:
  fix style: nvt, fix ID: fnvt
All restart file global fix info was re-assigned
Neighbor list info ...
  update: every = 10 steps, delay = 0 steps, check = no
  max neighbors/atom: 2000, page size: 100000
  master list distance cutoff = 12
  ghost atom cutoff = 12
  binsize = 6, bins = 4 3 3
  2 neighbor lists, perpetual/occasional/extra = 2 0 0
  (1) pair reaxff, perpetual
      attributes: half, newton off, ghost
      pair build: half/bin/newtoff/ghost
      stencil: full/ghost/bin/3d
      bin: standard
  (2) fix qeq/reaxff, perpetual, copy from (1)
      attributes: half, newton off
      pair build: copy
      stencil: none
      bin: none
Setting up Verlet run ...
  Unit style    : real
  Current step  : 0
  Time step     : 0.5
Per MPI rank memory allocation (min/avg/max) = 121.5 | 122.5 | 123.9 Mbytes
   Step          Temp          PotEng         Press          Volume           Lx             Ly             Lz      
         0   284.96264     -41123.293     -7330.3916      3932.1873      15.6782        14.2194        17.6383      
       100   299.54392     -41118.416     -12706.962      3932.1873      15.6782        14.2194        17.6383      
       200   330.29833     -41111.816     -3972.78        3932.1873      15.6782        14.2194        17.6383      
       300   298.78653     -41088.883     -3168.2293      3932.1873      15.6782        14.2194        17.6383      
       400   296.93133     -41126.62      -7188.5433      3932.1873      15.6782        14.2194        17.6383      
       500   287.26737     -41131.246      5325.4667      3932.1873      15.6782        14.2194        17.6383      
       600   308.01151     -41159.527     -1520.5836      3932.1873      15.6782        14.2194        17.6383      
       700   290.62256     -41151.741     -10997.49       3932.1873      15.6782        14.2194        17.6383      
       800   288.21433     -41133.916     -10351.478      3932.1873      15.6782        14.2194        17.6383      
       900   293.19405     -41105.313     -1106.2653      3932.1873      15.6782        14.2194        17.6383      
      1000   312.86558     -41124.029     -4628.0176      3932.1873      15.6782        14.2194        17.6383      
      1100   300.31548     -41134.127     -7521.1431      3932.1873      15.6782        14.2194        17.6383      
      1200   276.91488     -41108.913     -761.50292      3932.1873      15.6782        14.2194        17.6383      
      1300   304.18454     -41122.735     -10948.742      3932.1873      15.6782        14.2194        17.6383      
      1400   297.90671     -41122.045     -6587.4687      3932.1873      15.6782        14.2194        17.6383      
      1500   305.04938     -41140.883      344.82992      3932.1873      15.6782        14.2194        17.6383      
      1600   304.12131     -41147.952     -17165.814      3932.1873      15.6782        14.2194        17.6383      
      1700   290.79368     -41140.638     -6674.8475      3932.1873      15.6782        14.2194        17.6383      
      1800   280.82603     -41123.007     -13930.387      3932.1873      15.6782        14.2194        17.6383      
      1900   306.09387     -41112.225     -9582.8889      3932.1873      15.6782        14.2194        17.6383      
      2000   314.32415     -41110.891     -3363.2545      3932.1873      15.6782        14.2194        17.6383      
      2100   288.31517     -41096.093     -12085.897      3932.1873      15.6782        14.2194        17.6383      
      2200   286.83891     -41114.737     -20573.484      3932.1873      15.6782        14.2194        17.6383      
      2300   300.75383     -41126.805     -7890.1923      3932.1873      15.6782        14.2194        17.6383      
      2400   294.41352     -41107.552     -5637.3974      3932.1873      15.6782        14.2194        17.6383      
      2500   298.59009     -41092.355     -5712.874       3932.1873      15.6782        14.2194        17.6383      
      2600   315.92956     -41110.828     -16138.773      3932.1873      15.6782        14.2194        17.6383      
      2700   299.99995     -41130.154     -14312.553      3932.1873      15.6782        14.2194        17.6383      
      2800   291.0426      -41121.607     -5483.4596      3932.1873      15.6782        14.2194        17.6383      
      2900   290.34823     -41106.709     -2794.1594      3932.1873      15.6782        14.2194        17.6383      
      3000   288.01507     -41077.356     -19297.078      3932.1873      15.6782        14.2194        17.6383      
      3100   311.24355     -41087.418     -1491.1472      3932.1873      15.6782        14.2194        17.6383      
      3200   306.03969     -41084.351     -950.24394      3932.1873      15.6782        14.2194        17.6383      
      3300   299.59343     -41087.986     -1448.8166      3932.1873      15.6782        14.2194        17.6383      
      3400   295.99284     -41082.506     -7083.0361      3932.1873      15.6782        14.2194        17.6383      
      3500   295.24153     -41085.424      1864.9781      3932.1873      15.6782        14.2194        17.6383      
      3600   285.94617     -41102.448     -21120.643      3932.1873      15.6782        14.2194        17.6383      
      3700   285.04107     -41093.418     -9241.9605      3932.1873      15.6782        14.2194        17.6383      
      3800   310.2028      -41086.371     -1786.7751      3932.1873      15.6782        14.2194        17.6383      
      3900   310.04903     -41072.855     -3237.6936      3932.1873      15.6782        14.2194        17.6383      
      4000   298.85355     -41059.9       -3036.2636      3932.1873      15.6782        14.2194        17.6383      
      4100   288.74831     -41073.034     -1790.4597      3932.1873      15.6782        14.2194        17.6383      
      4200   280.14652     -41085.162      1347.9425      3932.1873      15.6782        14.2194        17.6383      
      4300   291.24823     -41082.935     -4377.6343      3932.1873      15.6782        14.2194        17.6383      
      4400   296.38149     -41065.848     -11472.383      3932.1873      15.6782        14.2194        17.6383      
      4500   312.90559     -41068.123     -3405.9364      3932.1873      15.6782        14.2194        17.6383      
      4600   302.85391     -41065.32      -9170.4558      3932.1873      15.6782        14.2194        17.6383      
      4700   303.11781     -41067.983     -7043.6205      3932.1873      15.6782        14.2194        17.6383      
      4800   286.71016     -41056.812     -6342.6682      3932.1873      15.6782        14.2194        17.6383      
      4900   289.08677     -41071.556     -17690.922      3932.1873      15.6782        14.2194        17.6383      
      5000   286.91292     -41097.679     -6780.1562      3932.1873      15.6782        14.2194        17.6383      
Loop time of 208.088 on 16 procs for 5000 steps with 350 atoms

Performance: 1.038 ns/day, 23.121 hours/ns, 24.028 timesteps/s, 8.410 katom-step/s
99.5% CPU use with 8 MPI tasks x 2 OpenMP threads

MPI task timing breakdown:
Section |  min time  |  avg time  |  max time  |%varavg| %total
---------------------------------------------------------------
Pair    | 113.1      | 135.21     | 172.32     | 218.3 | 64.98
Bond    | 0.0010772  | 0.0015151  | 0.0019223  |   0.8 |  0.00
Neigh   | 10.832     | 12.893     | 16.623     |  67.8 |  6.20
Comm    | 1.2715     | 38.391     | 60.578     | 409.6 | 18.45
Output  | 0.014618   | 0.016008   | 0.017448   |   0.7 |  0.01
Modify  | 17.737     | 21.477     | 23.473     |  52.8 | 10.32
Other   |            | 0.09993    |            |       |  0.05

Nlocal:          43.75 ave          48 max          39 min
Histogram: 1 1 0 0 1 2 1 0 1 1
Nghost:        2998.12 ave        3036 max        2959 min
Histogram: 2 0 0 2 0 0 0 2 1 1
Neighs:        27234.8 ave       29831 max       24341 min
Histogram: 1 1 0 0 1 2 1 0 1 1

Total # of neighbors = 217878
Ave neighs/atom = 622.50857
Ave special neighs/atom = 0
Neighbor list builds = 500
Dangerous builds not checked
Total wall time: 0:47:38
