LAMMPS (2 Aug 2023 - Update 2)
  using 1 OpenMP thread(s) per MPI task
Reading data file ...
  triclinic box = (0 0 0) to (15.0372 13.535 17.6074) with tilt (-7.4931 -0.1585 0.0807)
WARNING: Triclinic box skew is large. LAMMPS will run inefficiently. (src/domain.cpp:220)
  2 by 2 by 2 MPI processor grid
  reading atoms ...
  366 atoms
Finding 1-2 1-3 1-4 neighbors ...
  special bond factors lj:    0        0        0       
  special bond factors coul:  0        0        0       
     0 = max # of 1-2 neighbors
     0 = max # of 1-3 neighbors
     0 = max # of 1-4 neighbors
     1 = max # of special neighbors
  special bonds CPU = 0.001 seconds
  read_data CPU = 0.007 seconds
WARNING: Van der Waals parameters for element SI indicate inner wall+shielding, but earlier atoms indicate a different van der Waals method. This may cause division-by-zero errors. Keeping van der Waals setting for earlier atoms. (src/REAXFF/reaxff_ffield.cpp:251)
System init for write_restart ...
WARNING: Fix qeq/reaxff group is not charge neutral, net charge = -29.52 (src/REAXFF/fix_qeq_reaxff.cpp:392)
Neighbor list info ...
  update: every = 1 steps, delay = 0 steps, check = yes
  max neighbors/atom: 2000, page size: 100000
  master list distance cutoff = 12
  ghost atom cutoff = 12
  binsize = 6, bins = 4 3 3
  2 neighbor lists, perpetual/occasional/extra = 2 0 0
  (1) pair reaxff, perpetual
      attributes: half, newton off, ghost
      pair build: half/bin/newtoff/ghost
      stencil: full/ghost/bin/3d
      bin: standard
  (2) fix qeq/reaxff, perpetual, copy from (1)
      attributes: half, newton off
      pair build: copy
      stencil: none
      bin: none
  using 1 OpenMP thread(s) per MPI task
Reading restart file ...
  restart file = 2 Aug 2023, LAMMPS = 2 Aug 2023
  restoring atom style full from restart
  triclinic box = (0 0 0) to (15.0372 13.535 17.6074) with tilt (-7.4931 -0.1585 0.0807)
WARNING: Triclinic box skew is large. LAMMPS will run inefficiently. (src/domain.cpp:220)
  2 by 2 by 2 MPI processor grid
  pair style reaxff stores no restart info
  366 atoms
Finding 1-2 1-3 1-4 neighbors ...
  special bond factors lj:    0        0        0       
  special bond factors coul:  0        0        0       
     0 = max # of 1-2 neighbors
     0 = max # of 1-3 neighbors
     0 = max # of 1-4 neighbors
     1 = max # of special neighbors
  special bonds CPU = 0.000 seconds
  read_restart CPU = 0.004 seconds
*****Positive-deform 3 starts.*****
WARNING: Van der Waals parameters for element SI indicate inner wall+shielding, but earlier atoms indicate a different van der Waals method. This may cause division-by-zero errors. Keeping van der Waals setting for earlier atoms. (src/REAXFF/reaxff_ffield.cpp:251)

CITE-CITE-CITE-CITE-CITE-CITE-CITE-CITE-CITE-CITE-CITE-CITE-CITE

Your simulation uses code contributions which should be cited:
- pair reaxff command: doi:10.1016/j.parco.2011.08.005
- fix qeq/reaxff command: doi:10.1016/j.parco.2011.08.005
The log file lists these citations in BibTeX format.

CITE-CITE-CITE-CITE-CITE-CITE-CITE-CITE-CITE-CITE-CITE-CITE-CITE

WARNING: Compute rdf cutoff less than neighbor cutoff - forcing a needless neighbor list build (src/compute_rdf.cpp:179)
WARNING: Fix qeq/reaxff group is not charge neutral, net charge = -29.52 (src/REAXFF/fix_qeq_reaxff.cpp:392)
Neighbor list info ...
  update: every = 10 steps, delay = 0 steps, check = no
  max neighbors/atom: 2000, page size: 100000
  master list distance cutoff = 12
  ghost atom cutoff = 12
  binsize = 6, bins = 4 3 3
  3 neighbor lists, perpetual/occasional/extra = 2 1 0
  (1) pair reaxff, perpetual
      attributes: half, newton off, ghost
      pair build: half/bin/newtoff/ghost
      stencil: full/ghost/bin/3d
      bin: standard
  (2) compute rdf, occasional
      attributes: half, newton on, cut 7
      pair build: half/bin/newton/tri
      stencil: half/bin/3d/tri
      bin: standard
  (3) fix qeq/reaxff, perpetual, copy from (1)
      attributes: half, newton off
      pair build: copy
      stencil: none
      bin: none
Setting up Verlet run ...
  Unit style    : real
  Current step  : 0
  Time step     : 0.5
Per MPI rank memory allocation (min/avg/max) = 142.1 | 144.8 | 148.3 Mbytes
   Step          Temp          Press          Volume           Lz          Density    
         0   300            24821.802      3583.6077      17.6074        1.9939932    
       100   483.35289      23382.707      3585.3995      17.616204      1.9929967    
       200   360.10806      20458.305      3587.1914      17.625007      1.9920012    
       300   383.40108      17843.767      3588.9832      17.633811      1.9910067    
       400   299.10603      1844.5348      3590.775       17.642615      1.9900132    
       500   284.08109     -14512.94       3592.5668      17.651418      1.9890206    
       600   280.25331      3860.8558      3594.3586      17.660222      1.9880291    
       700   298.61178      9916.4972      3596.1504      17.669026      1.9870386    
       800   297.57681      12527.935      3597.9422      17.67783       1.986049     
       900   337.53135      15571.272      3599.734       17.686633      1.9850604    
      1000   302.22814      1128.9619      3601.5258      17.695437      1.9840728    
      1100   301.47399      11416.735      3603.3176      17.704241      1.9830862    
      1200   293.86048      16830.402      3605.1094      17.713044      1.9821006    
      1300   278.89218      24305.858      3606.9012      17.721848      1.9811159    
      1400   293.42192      15680.98       3608.693       17.730652      1.9801323    
      1500   306.38311      17576.945      3610.4848      17.739455      1.9791496    
      1600   329.08987     -578.21346      3612.2766      17.748259      1.9781679    
      1700   318.06679      7355.877       3614.0684      17.757063      1.9771871    
      1800   311.21296      5024.5987      3615.8602      17.765867      1.9762073    
      1900   291.63756      4051.6946      3617.652       17.77467       1.9752285    
      2000   286.36871      12283.902      3619.4438      17.783474      1.9742507    
      2100   293.25868      7566.0209      3621.2356      17.792278      1.9732738    
      2200   319.72683      6098.4691      3623.0274      17.801081      1.9722979    
      2300   305.80822      11574.143      3624.8192      17.809885      1.971323     
      2400   307.91853      13951.259      3626.611       17.818689      1.970349     
      2500   297.52362      399.46072      3628.4028      17.827492      1.969376     
      2600   284.31266      20093.339      3630.1946      17.836296      1.9684039    
      2700   279.94909      13326.817      3631.9865      17.8451        1.9674329    
      2800   285.18213      6222.6571      3633.7783      17.853904      1.9664627    
      2900   311.08415      1509.9272      3635.5701      17.862707      1.9654935    
      3000   295.56443     -2105.5097      3637.3619      17.871511      1.9645253    
      3100   315.68517      8769.7008      3639.1537      17.880315      1.963558     
      3200   296.51952      2492.9909      3640.9455      17.889118      1.9625917    
      3300   285.69384     -7172.5949      3642.7373      17.897922      1.9616264    
      3400   314.54872     -2983.7746      3644.5291      17.906726      1.9606619    
      3500   291.0896       3355.4295      3646.3209      17.915529      1.9596985    
      3600   303.8001      -1086.4663      3648.1127      17.924333      1.958736     
      3700   288.6504      -595.13691      3649.9045      17.933137      1.9577744    
      3800   298.33994      17291.149      3651.6963      17.941941      1.9568137    
      3900   311.08037      11639.097      3653.4881      17.950744      1.955854     
      4000   331.08423      1858.5876      3655.2799      17.959548      1.9548953    
      4100   296.61373      6583.9517      3657.0717      17.968352      1.9539375    
      4200   299.08796      6456.9477      3658.8635      17.977155      1.9529806    
      4300   296.41598      6570.1703      3660.6553      17.985959      1.9520247    
      4400   297.80823      3235.4766      3662.4471      17.994763      1.9510697    
      4500   330.10158      5772.6165      3664.2389      18.003566      1.9501156    
      4600   331.64603     -5917.9309      3666.0307      18.01237       1.9491625    
      4700   294.60135      6783.2955      3667.8225      18.021174      1.9482103    
      4800   293.28838     -3330.791       3669.6143      18.029978      1.947259     
      4900   283.92359     -3916.1162      3671.4061      18.038781      1.9463086    
      5000   296.52217     -4092.1231      3673.1979      18.047585      1.9453592    
      5100   297.49626      1416.3402      3674.9897      18.056389      1.9444107    
      5200   305.25901     -6520.0815      3676.7815      18.065192      1.9434632    
      5300   295.12134     -6129.6256      3678.5734      18.073996      1.9425165    
      5400   295.59445      6707.5475      3680.3652      18.0828        1.9415708    
      5500   290.09021     -7446.6382      3682.157       18.091603      1.940626     
      5600   310.29254     -7172.2872      3683.9488      18.100407      1.9396821    
      5700   280.08308     -1031.5154      3685.7406      18.109211      1.9387391    
      5800   282.89858     -5007.6929      3687.5324      18.118015      1.9377971    
      5900   286.6139      -15578.375      3689.3242      18.126818      1.9368559    
      6000   307.54356     -1537.0608      3691.116       18.135622      1.9359157    
      6100   320.71081     -13773.322      3692.9078      18.144426      1.9349764    
      6200   297.40622     -7554.0294      3694.6996      18.153229      1.934038     
      6300   315.73446     -4236.4798      3696.4914      18.162033      1.9331005    
      6400   292.73041     -1264.24        3698.2832      18.170837      1.932164     
      6500   298.70416      6331.8015      3700.075       18.17964       1.9312283    
      6600   305.91977     -1890.086       3701.8668      18.188444      1.9302935    
      6700   324.0609      -10244.679      3703.6586      18.197248      1.9293596    
      6800   317.34451     -18940.747      3705.4504      18.206052      1.9284267    
      6900   304.19142     -1237.6432      3707.2422      18.214855      1.9274946    
      7000   295.03129     -9736.1332      3709.034       18.223659      1.9265635    
      7100   305.43534     -217.94278      3710.8258      18.232463      1.9256332    
      7200   285.3153      -10424.366      3712.6176      18.241266      1.9247039    
      7300   295.0908      -15774.615      3714.4094      18.25007       1.9237754    
      7400   311.31946     -5275.7934      3716.2012      18.258874      1.9228478    
      7500   314.80661     -4194.9759      3717.993       18.267677      1.9219212    
      7600   334.06347      2349.6634      3719.7848      18.276481      1.9209954    
      7700   293.25689     -2985.4498      3721.5766      18.285285      1.9200705    
      7800   306.08664     -3658.0462      3723.3684      18.294089      1.9191465    
      7900   311.38757     -7577.8717      3725.1603      18.302892      1.9182234    
      8000   292.51479     -8233.7446      3726.9521      18.311696      1.9173012    
      8100   326.56651      2055.1395      3728.7439      18.3205        1.9163798    
      8200   326.35493     -14613.751      3730.5357      18.329303      1.9154594    
      8300   298.28835     -5917.3531      3732.3275      18.338107      1.9145398    
      8400   274.35286     -19564.344      3734.1193      18.346911      1.9136211    
      8500   292.70076     -4285.7277      3735.9111      18.355714      1.9127033    
      8600   308.02413      2251.4602      3737.7029      18.364518      1.9117864    
      8700   316.39124     -8758.1065      3739.4947      18.373322      1.9108703    
      8800   292.9867       1381.0404      3741.2865      18.382126      1.9099552    
      8900   279.7058      -6624.337       3743.0783      18.390929      1.9090409    
      9000   308.4649      -9963.5205      3744.8701      18.399733      1.9081275    
      9100   296.84023      4310.1123      3746.6619      18.408537      1.9072149    
      9200   299.13826     -5535.538       3748.4537      18.41734       1.9063032    
      9300   302.53204     -2495.3367      3750.2455      18.426144      1.9053924    
      9400   306.47766      1182.7067      3752.0373      18.434948      1.9044825    
      9500   275.31504     -3030.2726      3753.8291      18.443751      1.9035735    
      9600   292.22247     -9062.0212      3755.6209      18.452555      1.9026653    
      9700   311.62299     -2339.1321      3757.4127      18.461359      1.9017579    
      9800   299.84752     -3970.9866      3759.2045      18.470163      1.9008515    
      9900   310.61126     -299.07893      3760.9963      18.478966      1.8999459    
     10000   306.51313     -5776.5842      3762.7881      18.48777       1.8990411    
     10100   299.92085     -13430.548      3764.5799      18.496574      1.8981373    
     10200   282.37413     -6492.6522      3766.3717      18.505377      1.8972343    
     10300   281.40097     -6253.8717      3768.1635      18.514181      1.8963321    
     10400   302.13017     -9306.9694      3769.9553      18.522985      1.8954308    
     10500   310.13828     -1151.7571      3771.7472      18.531788      1.8945304    
     10600   311.55411     -6689.0481      3773.539       18.540592      1.8936308    
     10700   285.69245     -6492.2674      3775.3308      18.549396      1.892732     
     10800   303.31399     -9648.323       3777.1226      18.5582        1.8918342    
     10900   295.37626     -12572.351      3778.9144      18.567003      1.8909371    
     11000   289.44168     -12287.875      3780.7062      18.575807      1.8900409    
     11100   308.37863     -14984.689      3782.498       18.584611      1.8891456    
     11200   308.36318     -6876.5372      3784.2898      18.593414      1.8882511    
     11300   300.01981     -3603.0307      3786.0816      18.602218      1.8873575    
     11400   300.64581     -6243.1887      3787.8734      18.611022      1.8864647    
     11500   289.37191     -6250.1249      3789.6652      18.619825      1.8855728    
     11600   294.52191     -6045.2218      3791.457       18.628629      1.8846817    
     11700   311.65036     -7131.6333      3793.2488      18.637433      1.8837914    
     11800   311.00507     -7894.2351      3795.0406      18.646237      1.882902     
     11900   301.37459     -15245.371      3796.8324      18.65504       1.8820134    
     12000   300.19876     -6695.4426      3798.6242      18.663844      1.8811257    
     12100   301.72303     -18153.394      3800.416       18.672648      1.8802388    
     12200   286.52459     -20747.73       3802.2078      18.681451      1.8793527    
     12300   290.53991     -9595.107       3803.9996      18.690255      1.8784674    
     12400   302.09838     -7857.3186      3805.7914      18.699059      1.877583     
     12500   309.45666     -10902.206      3807.5832      18.707862      1.8766995    
     12600   284.1196      -20230.592      3809.375       18.716666      1.8758167    
     12700   299.47794     -2166.2022      3811.1668      18.72547       1.8749348    
     12800   317.50566      2248.3436      3812.9586      18.734274      1.8740538    
     12900   307.79731     -7473.7295      3814.7504      18.743077      1.8731735    
     13000   290.06611     -13612.898      3816.5422      18.751881      1.8722941    
     13100   295.35153     -18771.597      3818.3341      18.760685      1.8714155    
     13200   308.76488     -13609.936      3820.1259      18.769488      1.8705377    
     13300   292.80749     -18357.799      3821.9177      18.778292      1.8696608    
     13400   285.97809     -9533.1454      3823.7095      18.787096      1.8687846    
     13500   297.39258     -3665.7603      3825.5013      18.795899      1.8679093    
     13600   319.67257     -12947.131      3827.2931      18.804703      1.8670348    
     13700   320.64784     -13993.194      3829.0849      18.813507      1.8661612    
     13800   292.97691     -19126.696      3830.8767      18.822311      1.8652883    
     13900   291.48383     -25465.034      3832.6685      18.831114      1.8644163    
     14000   293.23238     -12732.445      3834.4603      18.839918      1.863545     
     14100   298.66986     -1808.6017      3836.2521      18.848722      1.8626746    
     14200   325.96647     -8427.7945      3838.0439      18.857525      1.861805     
     14300   322.46113     -8694.7263      3839.8357      18.866329      1.8609363    
     14400   302.18806     -14640.507      3841.6275      18.875133      1.8600683    
     14500   292.792       -17179.24       3843.4193      18.883936      1.8592011    
     14600   288.18812     -9863.6614      3845.2111      18.89274       1.8583348    
     14700   275.48965     -22151.001      3847.0029      18.901544      1.8574692    
     14800   292.71763     -13780.245      3848.7947      18.910348      1.8566045    
     14900   323.36473     -16045.072      3850.5865      18.919151      1.8557405    
     15000   320.1014      -22338.46       3852.3783      18.927955      1.8548774    
     15100   281.69258     -12855.013      3854.1701      18.936759      1.8540151    
     15200   306.45397     -19788.265      3855.9619      18.945562      1.8531535    
     15300   296.4378      -11056.333      3857.7537      18.954366      1.8522928    
     15400   286.04531     -17657.09       3859.5455      18.96317       1.8514329    
     15500   282.16307     -17102.778      3861.3373      18.971973      1.8505737    
     15600   305.43747     -4250.3349      3863.1292      18.980777      1.8497154    
     15700   278.45748     -11919.127      3864.921       18.989581      1.8488579    
     15800   298.60604     -11272.073      3866.7128      18.998385      1.8480011    
     15900   315.3266      -14591.039      3868.5046      19.007188      1.8471452    
     16000   312.83216     -14631.665      3870.2964      19.015992      1.84629      
     16100   286.02693     -13155.191      3872.0882      19.024796      1.8454356    
     16200   283.41978     -9583.6987      3873.88        19.033599      1.8445821    
     16300   302.02912     -7447.7808      3875.6718      19.042403      1.8437293    
     16400   298.65493     -24743.325      3877.4636      19.051207      1.8428773    
     16500   311.52602     -24265.071      3879.2554      19.06001       1.842026     
     16600   304.0749      -12242.25       3881.0472      19.068814      1.8411756    
     16700   300.48361     -15684.942      3882.839       19.077618      1.840326     
     16800   294.07354     -21007.283      3884.6308      19.086422      1.8394771    
     16900   272.72807     -7530.4287      3886.4226      19.095225      1.838629     
     17000   283.30178     -22992.694      3888.2144      19.104029      1.8377817    
     17100   307.55311     -12630.084      3890.0062      19.112833      1.8369352    
     17200   307.79705     -13661.647      3891.798       19.121636      1.8360895    
     17300   313.93764     -13904.964      3893.5898      19.13044       1.8352445    
     17400   294.44835     -18829.357      3895.3816      19.139244      1.8344004    
     17500   285.28376     -26311.727      3897.1734      19.148047      1.833557     
     17600   266.36723     -9445.4449      3898.9652      19.156851      1.8327143    
     17700   276.39899     -24220.927      3900.757       19.165655      1.8318725    
     17800   324.17553     -16559.626      3902.5488      19.174459      1.8310314    
     17900   293.61499     -13705.206      3904.3406      19.183262      1.8301911    
     18000   308.54326     -10693.641      3906.1324      19.192066      1.8293516    
     18100   287.1843      -27426.547      3907.9242      19.20087       1.8285128    
     18200   315.39438     -27712.905      3909.7161      19.209673      1.8276748    
     18300   299.98129     -7383.8099      3911.5079      19.218477      1.8268376    
     18400   287.31268     -21578.951      3913.2997      19.227281      1.8260011    
     18500   286.67144     -18967.356      3915.0915      19.236084      1.8251654    
     18600   286.32015     -31397.594      3916.8833      19.244888      1.8243305    
     18700   301.15881     -27172.331      3918.6751      19.253692      1.8234963    
     18800   299.27782     -25506.038      3920.4669      19.262496      1.8226629    
     18900   289.63294     -22079.172      3922.2587      19.271299      1.8218302    
     19000   301.34889     -9404.559       3924.0505      19.280103      1.8209984    
     19100   313.6113      -16365.77       3925.8423      19.288907      1.8201672    
     19200   306.73904     -23091.666      3927.6341      19.29771       1.8193369    
     19300   290.90351     -15816.04       3929.4259      19.306514      1.8185072    
     19400   295.7889      -23519.532      3931.2177      19.315318      1.8176784    
     19500   295.66115     -5741.0874      3933.0095      19.324121      1.8168503    
     19600   305.28646     -12953.693      3934.8013      19.332925      1.8160229    
     19700   306.77651     -22203.46       3936.5931      19.341729      1.8151964    
     19800   284.58106     -22122.832      3938.3849      19.350533      1.8143705    
     19900   288.17404     -20579.325      3940.1767      19.359336      1.8135454    
     20000   306.27495     -24658.919      3941.9685      19.36814       1.8127211    
     20100   330.24132     -27205.797      3943.7603      19.376944      1.8118975    
     20200   312.45888     -12778.374      3945.5521      19.385747      1.8110747    
     20300   288.98619     -25038.346      3947.3439      19.394551      1.8102526    
     20400   291.63487     -28718.987      3949.1357      19.403355      1.8094312    
     20500   280.28474     -19064.708      3950.9275      19.412158      1.8086106    
     20600   302.43335     -31284.847      3952.7193      19.420962      1.8077908    
     20700   297.06003     -21575.099      3954.5111      19.429766      1.8069716    
     20800   332.45445     -22497.244      3956.303       19.43857       1.8061533    
     20900   271.62075     -21670.575      3958.0948      19.447373      1.8053356    
     21000   290.15597     -26689.477      3959.8866      19.456177      1.8045187    
     21100   304.84999     -30162.739      3961.6784      19.464981      1.8037026    
     21200   305.93073     -25235.359      3963.4702      19.473784      1.8028872    
     21300   290.42954     -24534.526      3965.262       19.482588      1.8020725    
     21400   269.05006     -39747.217      3967.0538      19.491392      1.8012585    
     21500   284.01269     -21828.316      3968.8456      19.500195      1.8004453    
     21600   277.86344     -20834.56       3970.6374      19.508999      1.7996329    
     21700   294.958       -17934.289      3972.4292      19.517803      1.7988211    
     21800   315.36357     -24389.486      3974.221       19.526607      1.7980101    
     21900   292.36937     -26336.442      3976.0128      19.53541       1.7971998    
     22000   294.02087     -31140.202      3977.8046      19.544214      1.7963903    
     22100   283.28525     -30035.797      3979.5964      19.553018      1.7955814    
     22200   291.09836     -24158.325      3981.3882      19.561821      1.7947734    
     22300   306.4096      -23973.994      3983.18        19.570625      1.793966     
     22400   307.11155     -21987.344      3984.9718      19.579429      1.7931594    
     22500   300.75429     -38019.234      3986.7636      19.588232      1.7923534    
     22600   300.29293     -21450.058      3988.5554      19.597036      1.7915482    
     22700   276.55349     -28641.749      3990.3472      19.60584       1.7907438    
     22800   272.59654     -33101.787      3992.139       19.614644      1.78994      
     22900   280.71509     -27003.421      3993.9308      19.623447      1.789137     
     23000   302.13404     -24227.665      3995.7226      19.632251      1.7883347    
     23100   305.21445     -28608.46       3997.5144      19.641055      1.7875331    
     23200   314.21191     -29133.556      3999.3062      19.649858      1.7867323    
     23300   313.0249      -28234.633      4001.098       19.658662      1.7859321    
     23400   305.1652      -29872.638      4002.8899      19.667466      1.7851327    
     23500   293.41463     -26373.952      4004.6817      19.676269      1.784334     
     23600   284.26746     -23326.193      4006.4735      19.685073      1.783536     
     23700   286.10998     -23388.535      4008.2653      19.693877      1.7827387    
     23800   306.05112     -25282.758      4010.0571      19.702681      1.7819421    
     23900   307.53117     -19477.766      4011.8489      19.711484      1.7811462    
     24000   307.23355     -28319.951      4013.6407      19.720288      1.7803511    
     24100   287.02032     -18971.082      4015.4325      19.729092      1.7795566    
     24200   296.39979     -32529.919      4017.2243      19.737895      1.7787629    
     24300   292.04486     -22701.308      4019.0161      19.746699      1.7779699    
     24400   310.44951     -35486.766      4020.8079      19.755503      1.7771775    
     24500   309.76472     -36720.991      4022.5997      19.764306      1.7763859    
     24600   297.22735     -27814.062      4024.3915      19.77311       1.775595     
     24700   302.07012     -19955.174      4026.1833      19.781914      1.7748048    
     24800   330.26774     -23925.446      4027.9751      19.790718      1.7740153    
     24900   308.45808     -31445.534      4029.7669      19.799521      1.7732265    
     25000   308.40964     -24771.494      4031.5587      19.808325      1.7724384    
     25100   302.77854     -37463.004      4033.3505      19.817129      1.771651     
     25200   283.43392     -24227.651      4035.1423      19.825932      1.7708643    
     25300   295.87844     -25379.885      4036.9341      19.834736      1.7700783    
     25400   301.85016     -25018.803      4038.7259      19.84354       1.769293     
     25500   310.022       -26314.073      4040.5177      19.852343      1.7685084    
     25600   326.24188     -37225.866      4042.3095      19.861147      1.7677245    
     25700   304.62916     -40884.038      4044.1013      19.869951      1.7669412    
     25800   287.82758     -33155.247      4045.8931      19.878755      1.7661587    
     25900   294.78085     -42736.452      4047.6849      19.887558      1.7653769    
     26000   310.86198     -33037.915      4049.4768      19.896362      1.7645958    
     26100   308.62348     -39834.536      4051.2686      19.905166      1.7638153    
     26200   293.04677     -39779.58       4053.0604      19.913969      1.7630355    
     26300   285.35523     -30446.329      4054.8522      19.922773      1.7622565    
     26400   296.85591     -31277.469      4056.644       19.931577      1.7614781    
     26500   301.69874     -37706.545      4058.4358      19.94038       1.7607004    
     26600   314.21256     -25829.31       4060.2276      19.949184      1.7599234    
     26700   296.01938     -34787.137      4062.0194      19.957988      1.7591471    
     26800   306.04872     -30581.812      4063.8112      19.966792      1.7583714    
     26900   305.31883     -31264.074      4065.603       19.975595      1.7575965    
     27000   304.68321     -36714.01       4067.3948      19.984399      1.7568222    
     27100   298.29243     -39618.845      4069.1866      19.993203      1.7560486    
     27200   286.30443     -37351.67       4070.9784      20.002006      1.7552757    
     27300   274.74653     -34976.259      4072.7702      20.01081       1.7545035    
     27400   283.6851      -30266.831      4074.562       20.019614      1.7537319    
     27500   282.60459     -33049.342      4076.3538      20.028417      1.7529611    
     27600   290.12213     -39120.204      4078.1456      20.037221      1.7521909    
     27700   308.66779     -41178.894      4079.9374      20.046025      1.7514213    
     27800   301.02542     -45263.79       4081.7292      20.054829      1.7506525    
     27900   303.669       -39537.518      4083.521       20.063632      1.7498843    
     28000   306.473       -41039.489      4085.3128      20.072436      1.7491168    
     28100   285.56287     -33175.035      4087.1046      20.08124       1.74835      
     28200   303.03925     -42266.5        4088.8964      20.090043      1.7475839    
     28300   314.96938     -41922.784      4090.6882      20.098847      1.7468184    
     28400   314.14422     -34576.601      4092.48        20.107651      1.7460536    
     28500   316.32694     -37073.146      4094.2718      20.116454      1.7452895    
     28600   290.64655     -37884.415      4096.0637      20.125258      1.744526     
     28700   288.05686     -32235.079      4097.8555      20.134062      1.7437632    
     28800   307.90277     -32636.109      4099.6473      20.142866      1.743001     
     28900   318.58532     -34543.888      4101.4391      20.151669      1.7422396    
     29000   304.37677     -37931.54       4103.2309      20.160473      1.7414788    
     29100   303.15936     -45427.87       4105.0227      20.169277      1.7407186    
     29200   287.44        -39432.115      4106.8145      20.17808       1.7399592    
     29300   308.33601     -38706.453      4108.6063      20.186884      1.7392003    
     29400   312.60462     -38174.588      4110.3981      20.195688      1.7384422    
     29500   299.00978     -30750.739      4112.1899      20.204491      1.7376847    
     29600   306.82678     -43610.222      4113.9817      20.213295      1.7369279    
     29700   313.67773     -41429.638      4115.7735      20.222099      1.7361717    
     29800   285.17189     -49221.441      4117.5653      20.230903      1.7354162    
     29900   287.06147     -32955.571      4119.3571      20.239706      1.7346613    
     30000   298.30652     -32442.325      4121.1489      20.24851       1.7339071    
     30100   312.18176     -40996.785      4122.9407      20.257314      1.7331536    
     30200   327.91349     -38412.034      4124.7325      20.266117      1.7324007    
     30300   303.56307     -43392.758      4126.5243      20.274921      1.7316485    
     30400   290.71331     -42734.153      4128.3161      20.283725      1.7308969    
     30500   303.22556     -36195.643      4130.1079      20.292528      1.7301459    
     30600   293.26634     -32737.709      4131.8997      20.301332      1.7293957    
     30700   299.37262     -43762.134      4133.6915      20.310136      1.728646     
     30800   303.98418     -45402.357      4135.4833      20.31894       1.7278971    
     30900   323.76309     -31843.65       4137.2751      20.327743      1.7271487    
     31000   302.14362     -44283.594      4139.0669      20.336547      1.726401     
     31100   289.23418     -34238.061      4140.8588      20.345351      1.725654     
     31200   299.77344     -33378.664      4142.6506      20.354154      1.7249076    
     31300   303.43269     -44509.055      4144.4424      20.362958      1.7241619    
     31400   294.16929     -33910.818      4146.2342      20.371762      1.7234168    
     31500   298.64273     -44112.079      4148.026       20.380565      1.7226723    
     31600   318.42746     -43129.566      4149.8178      20.389369      1.7219285    
     31700   301.6226      -34538.44       4151.6096      20.398173      1.7211853    
     31800   306.68233     -44086.819      4153.4014      20.406977      1.7204428    
     31900   303.87633     -51905.32       4155.1932      20.41578       1.7197009    
     32000   285.06463     -39407.936      4156.985       20.424584      1.7189597    
     32100   303.39417     -49528.635      4158.7768      20.433388      1.718219     
     32200   319.65242     -36813.533      4160.5686      20.442191      1.7174791    
     32300   287.12022     -42841.339      4162.3604      20.450995      1.7167397    
     32400   312.02387     -49362.597      4164.1522      20.459799      1.716001     
     32500   308.54221     -41889.562      4165.944       20.468602      1.715263     
     32600   275.1255      -40861.14       4167.7358      20.477406      1.7145255    
     32700   310.07946     -41260.596      4169.5276      20.48621       1.7137887    
     32800   295.61983     -49843.906      4171.3194      20.495014      1.7130526    
     32900   312.11666     -45386.255      4173.1112      20.503817      1.712317     
     33000   314.46927     -44370.865      4174.903       20.512621      1.7115821    
     33100   280.03609     -42136.85       4176.6948      20.521425      1.7108479    
     33200   319.28951     -43252.887      4178.4866      20.530228      1.7101142    
     33300   301.71057     -38219.927      4180.2784      20.539032      1.7093812    
     33400   290.17544     -40387.271      4182.0702      20.547836      1.7086488    
     33500   311.37463     -49191.948      4183.862       20.556639      1.7079171    
     33600   316.19982     -40853.853      4185.6538      20.565443      1.707186     
     33700   308.36285     -45902.652      4187.4457      20.574247      1.7064555    
     33800   292.40439     -51957.231      4189.2375      20.583051      1.7057256    
     33900   298.53911     -44793.536      4191.0293      20.591854      1.7049963    
     34000   308.42804     -34950.747      4192.8211      20.600658      1.7042677    
     34100   302.60197     -41381.91       4194.6129      20.609462      1.7035397    
     34200   308.66401     -39795.21       4196.4047      20.618265      1.7028123    
     34300   292.20506     -47998.941      4198.1965      20.627069      1.7020855    
     34400   294.80868     -49684.727      4199.9883      20.635873      1.7013594    
     34500   288.87626     -46175.77       4201.7801      20.644676      1.7006339    
     34600   307.2016      -51794.121      4203.5719      20.65348       1.6999089    
     34700   295.7608      -44925.833      4205.3637      20.662284      1.6991847    
     34800   304.66942     -41363.923      4207.1555      20.671088      1.698461     
     34900   278.4871      -44109.817      4208.9473      20.679891      1.6977379    
     35000   310.76043     -43638.516      4210.7391      20.688695      1.6970155    
     35100   292.12304     -49979.51       4212.5309      20.697499      1.6962937    
     35200   290.31936     -49165.264      4214.3227      20.706302      1.6955724    
     35300   297.19201     -44141.978      4216.1145      20.715106      1.6948518    
     35400   321.01635     -42715.429      4217.9063      20.72391       1.6941319    
     35500   295.47976     -49038.197      4219.6981      20.732713      1.6934125    
     35600   283.26437     -56578.347      4221.4899      20.741517      1.6926937    
     35700   295.79315     -42351.696      4223.2817      20.750321      1.6919756    
     35800   312.03295     -46726.567      4225.0735      20.759125      1.691258     
     35900   294.7656      -42831.219      4226.8653      20.767928      1.6905411    
     36000   318.25069     -46965.969      4228.6571      20.776732      1.6898247    
     36100   307.65127     -49203.576      4230.4489      20.785536      1.689109     
     36200   306.07698     -46350.728      4232.2407      20.794339      1.6883939    
     36300   314.92427     -51531.553      4234.0326      20.803143      1.6876794    
     36400   296.79509     -47223.149      4235.8244      20.811947      1.6869655    
     36500   283.97847     -47509.513      4237.6162      20.82075       1.6862522    
     36600   289.3233      -53868.91       4239.408       20.829554      1.6855395    
     36700   285.77617     -55735.369      4241.1998      20.838358      1.6848274    
     36800   288.8401      -42998.882      4242.9916      20.847162      1.6841159    
     36900   303.85003     -49635.348      4244.7834      20.855965      1.683405     
     37000   295.25477     -45831.542      4246.5752      20.864769      1.6826947    
     37100   289.02918     -54707.886      4248.367       20.873573      1.681985     
     37200   297.17214     -55477.494      4250.1588      20.882376      1.6812759    
     37300   287.46685     -52611.057      4251.9506      20.89118       1.6805674    
     37400   316.27336     -42937.605      4253.7424      20.899984      1.6798595    
     37500   305.61907     -53128.255      4255.5342      20.908787      1.6791522    
     37600   291.69809     -50128.132      4257.326       20.917591      1.6784455    
     37700   307.90963     -59892.456      4259.1178      20.926395      1.6777393    
     37800   299.03965     -49986.744      4260.9096      20.935199      1.6770338    
     37900   293.94643     -49443.772      4262.7014      20.944002      1.6763289    
     38000   288.68191     -46555.029      4264.4932      20.952806      1.6756245    
     38100   317.35086     -54561.121      4266.285       20.96161       1.6749208    
     38200   304.87923     -53797.443      4268.0768      20.970413      1.6742176    
     38300   283.81582     -54563.484      4269.8686      20.979217      1.6735151    
     38400   286.08023     -47920.666      4271.6604      20.988021      1.6728131    
     38500   276.44879     -51116.171      4273.4522      20.996824      1.6721117    
     38600   305.93631     -51958.704      4275.244       21.005628      1.6714109    
     38700   304.56257     -50519.628      4277.0358      21.014432      1.6707107    
     38800   294.10641     -58243.479      4278.8276      21.023236      1.6700111    
     38900   299.9523      -57046.936      4280.6195      21.032039      1.669312     
     39000   293.33084     -55788.002      4282.4113      21.040843      1.6686136    
     39100   301.4261      -54484.628      4284.2031      21.049647      1.6679157    
     39200   300.29418     -56222.73       4285.9949      21.05845       1.6672184    
     39300   298.08042     -46630.618      4287.7867      21.067254      1.6665217    
     39400   321.40101     -55310.447      4289.5785      21.076058      1.6658256    
     39500   308.6835      -45645.929      4291.3703      21.084861      1.66513      
     39600   292.49423     -55019.239      4293.1621      21.093665      1.6644351    
     39700   292.71207     -56007.802      4294.9539      21.102469      1.6637407    
     39800   312.25677     -53035.157      4296.7457      21.111273      1.6630469    
     39900   293.40543     -51944.797      4298.5375      21.120076      1.6623536    
     40000   297.06111     -40715.872      4300.3293      21.12888       1.661661     
     40100   314.11043     -61389.349      4302.1211      21.137684      1.6609689    
     40200   307.90909     -59404.007      4303.9129      21.146487      1.6602774    
     40300   285.98502     -51186.834      4305.7047      21.155291      1.6595865    
     40400   279.01189     -55369.005      4307.4965      21.164095      1.6588962    
     40500   289.85654     -44700.065      4309.2883      21.172898      1.6582064    
     40600   300.21713     -47626.803      4311.0801      21.181702      1.6575172    
     40700   304.06875     -62020.08       4312.8719      21.190506      1.6568286    
     40800   304.23755     -70359.411      4314.6637      21.19931       1.6561405    
     40900   287.15968     -52321.698      4316.4555      21.208113      1.655453     
     41000   281.18072     -54383.632      4318.2473      21.216917      1.6547661    
     41100   294.15975     -54790.267      4320.0391      21.225721      1.6540798    
     41200   308.82987     -64578.845      4321.8309      21.234524      1.653394     
     41300   298.30841     -63932.844      4323.6227      21.243328      1.6527088    
     41400   291.12337     -58633.737      4325.4145      21.252132      1.6520242    
     41500   292.39682     -61052.429      4327.2064      21.260935      1.6513401    
     41600   296.15111     -59652.948      4328.9982      21.269739      1.6506566    
     41700   297.91773     -57318.864      4330.79        21.278543      1.6499737    
     41800   298.54979     -46861.855      4332.5818      21.287347      1.6492913    
     41900   301.92741     -52712.991      4334.3736      21.29615       1.6486095    
     42000   302.41043     -56621.299      4336.1654      21.304954      1.6479283    
     42100   308.01803     -55989.779      4337.9572      21.313758      1.6472476    
     42200   299.06539     -58642.102      4339.749       21.322561      1.6465675    
     42300   296.64737     -57768.64       4341.5408      21.331365      1.6458879    
     42400   300.84676     -57362          4343.3326      21.340169      1.6452089    
     42500   308.26077     -51875.958      4345.1244      21.348972      1.6445305    
     42600   299.92993     -62529.019      4346.9162      21.357776      1.6438526    
     42700   282.55699     -60516.592      4348.708       21.36658       1.6431753    
     42800   315.84293     -61949.985      4350.4998      21.375384      1.6424985    
     42900   297.62766     -53958.749      4352.2916      21.384187      1.6418223    
     43000   291.59804     -57545.675      4354.0834      21.392991      1.6411467    
     43100   319.71159     -58035.205      4355.8752      21.401795      1.6404716    
     43200   318.76252     -54419.26       4357.667       21.410598      1.639797     
     43300   301.18794     -49632.147      4359.4588      21.419402      1.6391231    
     43400   311.70256     -52423.866      4361.2506      21.428206      1.6384496    
     43500   285.84972     -56441.539      4363.0424      21.437009      1.6377768    
     43600   283.08105     -59807.626      4364.8342      21.445813      1.6371044    
     43700   299.32589     -57595.837      4366.626       21.454617      1.6364327    
     43800   321.33354     -53353.352      4368.4178      21.463421      1.6357614    
     43900   312.57237     -56296.067      4370.2096      21.472224      1.6350908    
     44000   309.80294     -58212.411      4372.0015      21.481028      1.6344207    
     44100   283.00215     -67718.953      4373.7933      21.489832      1.6337511    
     44200   291.94941     -52619.715      4375.5851      21.498635      1.6330821    
     44300   328.58829     -53780.363      4377.3769      21.507439      1.6324136    
     44400   312.88452     -57941.407      4379.1687      21.516243      1.6317457    
     44500   300.3787      -54793.689      4380.9605      21.525046      1.6310783    
     44600   289.66414     -56253.914      4382.7523      21.53385       1.6304114    
     44700   292.33962     -53907.805      4384.5441      21.542654      1.6297452    
     44800   302.08416     -57499.645      4386.3359      21.551458      1.6290794    
     44900   300.26128     -58582.962      4388.1277      21.560261      1.6284142    
     45000   327.16152     -58825.398      4389.9195      21.569065      1.6277495    
     45100   324.38461     -53859.217      4391.7113      21.577869      1.6270854    
     45200   300.65425     -64677.982      4393.5031      21.586672      1.6264219    
     45300   284.66787     -52561.784      4395.2949      21.595476      1.6257588    
     45400   293.24035     -62025.084      4397.0867      21.60428       1.6250963    
     45500   304.9638      -58210.865      4398.8785      21.613083      1.6244344    
     45600   321.60703     -56934.981      4400.6703      21.621887      1.623773     
     45700   300.61025     -62441.399      4402.4621      21.630691      1.6231121    
     45800   291.97505     -51946.957      4404.2539      21.639495      1.6224517    
     45900   290.08198     -59363.036      4406.0457      21.648298      1.6217919    
     46000   301.68908     -58402.595      4407.8375      21.657102      1.6211327    
     46100   306.52749     -61656.893      4409.6293      21.665906      1.620474     
     46200   296.12656     -58782.173      4411.4211      21.674709      1.6198158    
     46300   311.82516     -60701.629      4413.2129      21.683513      1.6191581    
     46400   316.76587     -59717.749      4415.0047      21.692317      1.618501     
     46500   303.1705      -56209.369      4416.7965      21.70112       1.6178444    
     46600   295.75314     -56636.965      4418.5884      21.709924      1.6171883    
     46700   292.23799     -64416.183      4420.3802      21.718728      1.6165328    
     46800   303.1703      -62762.901      4422.172       21.727532      1.6158778    
     46900   307.88866     -63095.074      4423.9638      21.736335      1.6152233    
     47000   311.39576     -55487.088      4425.7556      21.745139      1.6145694    
     47100   336.57204     -45431.792      4427.5474      21.753943      1.613916     
     47200   377.49271     -44817.861      4429.3392      21.762746      1.6132631    
     47300   347.49045     -39531.057      4431.131       21.77155       1.6126108    
     47400   344.70994     -27889.87       4432.9228      21.780354      1.6119589    
     47500   303.87849     -26227.213      4434.7146      21.789157      1.6113076    
     47600   292.73538     -20195.847      4436.5064      21.797961      1.6106569    
     47700   284.73132     -25864.717      4438.2982      21.806765      1.6100066    
     47800   283.7019      -24086.325      4440.09        21.815569      1.6093569    
     47900   311.64255     -27130.202      4441.8818      21.824372      1.6087077    
     48000   310.67408     -32388.567      4443.6736      21.833176      1.608059     
     48100   296.96179     -29956.502      4445.4654      21.84198       1.6074109    
     48200   293.46894     -34690.22       4447.2572      21.850783      1.6067633    
     48300   283.07975     -37369.548      4449.049       21.859587      1.6061161    
     48400   320.487       -32543.65       4450.8408      21.868391      1.6054696    
     48500   296.96705     -32069.3        4452.6326      21.877194      1.6048235    
     48600   283.64087     -31867.478      4454.4244      21.885998      1.604178     
     48700   300.03861     -27253.444      4456.2162      21.894802      1.6035329    
     48800   295.61132     -41158.806      4458.008       21.903606      1.6028884    
     48900   298.39933     -32275.987      4459.7998      21.912409      1.6022444    
     49000   300.71064     -38700.271      4461.5916      21.921213      1.601601     
     49100   275.42474     -34953.892      4463.3834      21.930017      1.600958     
     49200   328.27137     -28536.013      4465.1753      21.93882       1.6003156    
     49300   310.79065     -29370.967      4466.9671      21.947624      1.5996736    
     49400   305.44315     -29892.842      4468.7589      21.956428      1.5990322    
     49500   309.0661      -29764.402      4470.5507      21.965231      1.5983913    
     49600   312.37662     -39448.697      4472.3425      21.974035      1.597751     
     49700   279.31653     -40371.777      4474.1343      21.982839      1.5971111    
     49800   310.0109      -44926.75       4475.9261      21.991643      1.5964717    
     49900   299.40945     -34735.167      4477.7179      22.000446      1.5958329    
     50000   322.45988     -35929.541      4479.5097      22.00925       1.5951946    
     50100   315.04277     -33989.5        4481.3015      22.018054      1.5945567    
     50200   310.22923     -37455.292      4483.0933      22.026857      1.5939194    
     50300   300.33191     -36133.828      4484.8851      22.035661      1.5932826    
     50400   285.54948     -36963.855      4486.6769      22.044465      1.5926463    
     50500   298.7819      -25782.994      4488.4687      22.053268      1.5920105    
     50600   302.99031     -24036.347      4490.2605      22.062072      1.5913753    
     50700   319.74309     -32669.615      4492.0523      22.070876      1.5907405    
     50800   315.23872     -27942.821      4493.8441      22.07968       1.5901062    
     50900   297.41617     -40551.13       4495.6359      22.088483      1.5894725    
     51000   295.55936     -30747.481      4497.4277      22.097287      1.5888392    
     51100   307.84822     -34272.226      4499.2195      22.106091      1.5882064    
     51200   287.30266     -42799.15       4501.0113      22.114894      1.5875742    
     51300   311.25398     -29887.911      4502.8031      22.123698      1.5869425    
     51400   301.77376     -36118.672      4504.5949      22.132502      1.5863112    
     51500   301.22624     -35315.042      4506.3867      22.141305      1.5856805    
     51600   289.30239     -33738.984      4508.1785      22.150109      1.5850502    
     51700   305.06079     -34320.139      4509.9703      22.158913      1.5844205    
     51800   299.85723     -37095.383      4511.7622      22.167717      1.5837913    
     51900   311.13451     -34421.186      4513.554       22.17652       1.5831625    
     52000   301.89688     -43065.16       4515.3458      22.185324      1.5825343    
     52100   306.54322     -35159.255      4517.1376      22.194128      1.5819065    
     52200   287.79997     -31150.76       4518.9294      22.202931      1.5812793    
     52300   286.35833     -35728.612      4520.7212      22.211735      1.5806526    
     52400   327.94376     -28683.735      4522.513       22.220539      1.5800263    
     52500   346.25352     -23820.347      4524.3048      22.229342      1.5794006    
     52600   346.03205     -9299.8566      4526.0966      22.238146      1.5787753    
     52700   351.58472     -5047.3615      4527.8884      22.24695       1.5781505    
     52800   292.29542     -11300.275      4529.6802      22.255754      1.5775263    
     52900   292.06802     -4485.1463      4531.472       22.264557      1.5769025    
     53000   297.90781     -15167.365      4533.2638      22.273361      1.5762792    
     53100   302.49527     -12181.097      4535.0556      22.282165      1.5756564    
     53200   314.26227     -15753.534      4536.8474      22.290968      1.5750341    
     53300   303.24186     -28152.14       4538.6392      22.299772      1.5744123    
     53400   301.34732     -16731.206      4540.431       22.308576      1.573791     
     53500   289.17421     -19259.254      4542.2228      22.317379      1.5731702    
     53600   314.75812     -14361.539      4544.0146      22.326183      1.5725498    
     53700   326.00425     -24700.106      4545.8064      22.334987      1.57193      
     53800   306.37651     -6408.1304      4547.5982      22.343791      1.5713106    
     53900   297.32267     -7044.6468      4549.39        22.352594      1.5706918    
     54000   298.3149      -9706.1695      4551.1818      22.361398      1.5700734    
     54100   298.83026     -4247.1599      4552.9736      22.370202      1.5694555    
     54200   300.61175     -15295.529      4554.7654      22.379005      1.5688381    
     54300   302.24277     -19449.224      4556.5572      22.387809      1.5682212    
     54400   289.41039     -19898.06       4558.3491      22.396613      1.5676047    
     54500   300.80224     -16235.895      4560.1409      22.405416      1.5669888    
     54600   272.3893      -15949.128      4561.9327      22.41422       1.5663733    
     54700   284.76663     -15566.947      4563.7245      22.423024      1.5657583    
     54800   301.68064     -19776.515      4565.5163      22.431828      1.5651438    
     54900   298.15011     -14325.215      4567.3081      22.440631      1.5645298    
     55000   299.18379     -19963.522      4569.0999      22.449435      1.5639162    
     55100   308.17573     -4555.4535      4570.8917      22.458239      1.5633032    
     55200   275.7798      -21271.227      4572.6835      22.467042      1.5626906    
     55300   291.12899     -9048.4705      4574.4753      22.475846      1.5620785    
     55400   273.82674     -15230.815      4576.2671      22.48465       1.5614669    
     55500   291.65055     -27076.317      4578.0589      22.493453      1.5608557    
     55600   306.65029     -17301.168      4579.8507      22.502257      1.5602451    
     55700   305.83753     -15200.616      4581.6425      22.511061      1.5596349    
     55800   316.45694     -15135.164      4583.4343      22.519865      1.5590252    
     55900   286.31788     -9463.8317      4585.2261      22.528668      1.5584159    
     56000   270.94158     -16324.7        4587.0179      22.537472      1.5578072    
     56100   295.29394     -23568.987      4588.8097      22.546276      1.5571989    
     56200   296.55584     -11996.04       4590.6015      22.555079      1.5565911    
     56300   297.19119     -19227.361      4592.3933      22.563883      1.5559838    
     56400   296.3815      -14852.417      4594.1851      22.572687      1.5553769    
     56500   311.59118     -9846.1183      4595.9769      22.58149       1.5547705    
     56600   290.2997      -15547.423      4597.7687      22.590294      1.5541646    
     56700   285.67321     -19813.439      4599.5605      22.599098      1.5535592    
     56800   302.9314      -13488.19       4601.3523      22.607902      1.5529542    
     56900   291.46746     -8020.7863      4603.1441      22.616705      1.5523497    
     57000   304.8669      -16929.43       4604.936       22.625509      1.5517457    
     57100   289.92023     -18698.382      4606.7278      22.634313      1.5511421    
     57200   295.42789     -18298.084      4608.5196      22.643116      1.550539     
     57300   295.34661     -12703.137      4610.3114      22.65192       1.5499364    
     57400   294.35796     -15444.875      4612.1032      22.660724      1.5493343    
     57500   303.19699     -12612.525      4613.895       22.669527      1.5487326    
     57600   308.11541     -16232.988      4615.6868      22.678331      1.5481314    
     57700   305.31714     -11599.704      4617.4786      22.687135      1.5475306    
     57800   278.90241     -22204.713      4619.2704      22.695939      1.5469303    
     57900   294.48283     -22051.638      4621.0622      22.704742      1.5463305    
     58000   309.6913      -13342.939      4622.854       22.713546      1.5457312    
     58100   301.02414     -14057.939      4624.6458      22.72235       1.5451323    
     58200   299.3438      -15514.692      4626.4376      22.731153      1.5445338    
     58300   314.34685     -11916.24       4628.2294      22.739957      1.5439359    
     58400   267.48464     -20233.13       4630.0212      22.748761      1.5433384    
     58500   300.8015      -18232.89       4631.813       22.757564      1.5427414    
     58600   308.64467     -17952.442      4633.6048      22.766368      1.5421448    
     58700   333.17262     -19192.57       4635.3966      22.775172      1.5415487    
     58800   308.15759     -20779.113      4637.1884      22.783976      1.540953     
     58900   281.09947     -25513.338      4638.9802      22.792779      1.5403578    
     59000   323.61174     -18663.3        4640.772       22.801583      1.5397631    
     59100   323.76011     -13485.196      4642.5638      22.810387      1.5391688    
     59200   300.08387     -18581.006      4644.3556      22.81919       1.538575     
     59300   304.85974     -21403.486      4646.1474      22.827994      1.5379816    
     59400   293.16712     -17220.951      4647.9392      22.836798      1.5373887    
     59500   289.08361     -21780.826      4649.7311      22.845601      1.5367963    
     59600   284.6692      -20336.93       4651.5229      22.854405      1.5362043    
     59700   318.72509     -13597.447      4653.3147      22.863209      1.5356128    
     59800   317.90796     -21865.098      4655.1065      22.872013      1.5350217    
     59900   307.80672     -21399.26       4656.8983      22.880816      1.5344311    
     60000   303.19684     -9457.529       4658.6901      22.88962       1.5338409    
     60100   284.74516     -8815.4183      4660.4819      22.898424      1.5332512    
     60200   284.03464     -21087.742      4662.2737      22.907227      1.532662     
     60300   288.88489     -21461.663      4664.0655      22.916031      1.5320731    
     60400   304.98469     -25292.685      4665.8573      22.924835      1.5314848    
     60500   296.37909     -19415.178      4667.6491      22.933638      1.5308969    
     60600   304.59891     -18498.115      4669.4409      22.942442      1.5303094    
     60700   293.59939     -26388.322      4671.2327      22.951246      1.5297224    
     60800   281.11066     -16903.643      4673.0245      22.96005       1.5291359    
     60900   294.32332     -15202.155      4674.8163      22.968853      1.5285498    
     61000   319.46745     -16237.465      4676.6081      22.977657      1.5279641    
     61100   316.09052     -20949.143      4678.3999      22.986461      1.5273789    
     61200   313.28115     -13624.405      4680.1917      22.995264      1.5267942    
     61300   308.24177     -18175.647      4681.9835      23.004068      1.5262099    
     61400   293.82581     -15055.26       4683.7753      23.012872      1.525626     
     61500   305.61784     -13217.461      4685.5671      23.021675      1.5250426    
     61600   309.33566     -15392.907      4687.3589      23.030479      1.5244596    
     61700   289.55241     -21106.243      4689.1507      23.039283      1.5238771    
     61800   279.13951     -19819.127      4690.9425      23.048087      1.523295     
     61900   285.77664     -17109.931      4692.7343      23.05689       1.5227134    
     62000   313.52975     -13984.146      4694.5261      23.065694      1.5221322    
     62100   305.63076     -24966.261      4696.318       23.074498      1.5215515    
     62200   308.61976     -16775.131      4698.1098      23.083301      1.5209712    
     62300   310.64218     -8931.1703      4699.9016      23.092105      1.5203913    
     62400   281.61243     -21944.417      4701.6934      23.100909      1.5198119    
     62500   299.66024     -22996.592      4703.4852      23.109712      1.5192329    
     62600   298.07125     -16160.335      4705.277       23.118516      1.5186544    
     62700   300.51418     -11781.899      4707.0688      23.12732       1.5180763    
     62800   323.98633     -24947.002      4708.8606      23.136124      1.5174986    
     62900   315.74945     -25377.152      4710.6524      23.144927      1.5169214    
     63000   313.70408     -24206.832      4712.4442      23.153731      1.5163446    
     63100   291.89018     -24278.406      4714.236       23.162535      1.5157683    
     63200   301.0049      -19849.901      4716.0278      23.171338      1.5151924    
     63300   304.93201     -20541.149      4717.8196      23.180142      1.5146169    
     63400   289.4069      -15096.123      4719.6114      23.188946      1.5140419    
     63500   280.34005     -11013.095      4721.4032      23.197749      1.5134673    
     63600   302.43215     -24306.219      4723.195       23.206553      1.5128932    
     63700   343.18835     -4209.8725      4724.9868      23.215357      1.5123195    
     63800   349.79035      15820.193      4726.7786      23.224161      1.5117462    
     63900   335.39053      4812.9893      4728.5704      23.232964      1.5111733    
     64000   320.44522      9048.4113      4730.3622      23.241768      1.5106009    
     64100   285.99411     -7704.2458      4732.154       23.250572      1.5100289    
     64200   281.7462       6658.0458      4733.9458      23.259375      1.5094574    
     64300   298.92102      8484.2582      4735.7376      23.268179      1.5088863    
     64400   308.42749      1989.372       4737.5294      23.276983      1.5083156    
     64500   301.33799     -2628.344       4739.3212      23.285786      1.5077453    
     64600   293.2461       173.1453       4741.113       23.29459       1.5071755    
     64700   300.52033     -6286.6166      4742.9049      23.303394      1.5066061    
     64800   312.84349     -8793.8982      4744.6967      23.312198      1.5060372    
     64900   315.06638      1205.9975      4746.4885      23.321001      1.5054686    
     65000   326.82337      2553.2929      4748.2803      23.329805      1.5049005    
     65100   306.64253     -13275.781      4750.0721      23.338609      1.5043329    
     65200   291.37603      2380.6738      4751.8639      23.347412      1.5037656    
     65300   303.96996      3857.6786      4753.6557      23.356216      1.5031988    
     65400   289.89089      8727.5826      4755.4475      23.36502       1.5026324    
     65500   289.39715      2771.3678      4757.2393      23.373823      1.5020664    
     65600   284.92612     -1801.5096      4759.0311      23.382627      1.5015009    
     65700   305.85574      4256.9297      4760.8229      23.391431      1.5009358    
     65800   312.54131     -4592.2443      4762.6147      23.400235      1.5003711    
     65900   319.69357     -3355.5237      4764.4065      23.409038      1.4998068    
     66000   293.59311      637.19474      4766.1983      23.417842      1.499243     
     66100   279.02976     -379.735        4767.9901      23.426646      1.4986796    
     66200   295.88602     -2009.0526      4769.7819      23.435449      1.4981166    
     66300   303.70194     -7995.5196      4771.5737      23.444253      1.497554     
     66400   325.93642      175.96999      4773.3655      23.453057      1.4969919    
     66500   316.45016      2271.6439      4775.1573      23.46186       1.4964302    
     66600   292.25623      1120.5051      4776.9491      23.470664      1.4958689    
     66700   297.96453      2927.9094      4778.7409      23.479468      1.495308     
     66800   282.24713     -8350.1657      4780.5327      23.488272      1.4947475    
     66900   313.54649     -10792.005      4782.3245      23.497075      1.4941875    
     67000   332.92494      225.77833      4784.1163      23.505879      1.4936279    
     67100   319.33413      838.68713      4785.9081      23.514683      1.4930687    
     67200   281.30412     -5879.6854      4787.6999      23.523486      1.4925099    
     67300   309.74217      1575.9062      4789.4918      23.53229       1.4919515    
     67400   298.88525     -5305.8075      4791.2836      23.541094      1.4913936    
     67500   295.90588     -4770.8819      4793.0754      23.549897      1.490836     
     67600   313.99679      1431.9377      4794.8672      23.558701      1.4902789    
     67700   318.50343      2484.6492      4796.659       23.567505      1.4897222    
     67800   309.75605      2.7783455      4798.4508      23.576309      1.4891659    
     67900   285.23776      7902.9446      4800.2426      23.585112      1.4886101    
     68000   267.84354      4667.9168      4802.0344      23.593916      1.4880546    
     68100   304.03437     -4428.016       4803.8262      23.60272       1.4874996    
     68200   309.93415     -5825.3197      4805.618       23.611523      1.486945     
     68300   320.5954      -4133.8992      4807.4098      23.620327      1.4863908    
     68400   307.9881       2369.7411      4809.2016      23.629131      1.485837     
     68500   298.28514     -1224.5053      4810.9934      23.637934      1.4852836    
     68600   309.96677      1220.1411      4812.7852      23.646738      1.4847306    
     68700   291.13223     -11106.095      4814.577       23.655542      1.484178     
     68800   298.07141      876.07557      4816.3688      23.664346      1.4836259    
     68900   304.00328      9223.9753      4818.1606      23.673149      1.4830742    
     69000   282.89605      5159.8397      4819.9524      23.681953      1.4825228    
     69100   293.32284      6268.178       4821.7442      23.690757      1.4819719    
     69200   292.22051     -131.00746      4823.536       23.69956       1.4814214    
     69300   284.99725     -2444.5209      4825.3278      23.708364      1.4808713    
     69400   305.04676     -924.08798      4827.1196      23.717168      1.4803216    
     69500   326.40382     -5258.7437      4828.9114      23.725971      1.4797723    
     69600   301.33832     -403.00278      4830.7032      23.734775      1.4792234    
     69700   286.36831     -5417.0565      4832.495       23.743579      1.478675     
     69800   286.04444      8550.4467      4834.2868      23.752383      1.4781269    
     69900   285.39077     -9226.3072      4836.0787      23.761186      1.4775792    
     70000   317.69108     -983.82155      4837.8705      23.76999       1.477032     
     70100   326.2328       6511.6745      4839.6623      23.778794      1.4764852    
     70200   317.66155      4408.3882      4841.4541      23.787597      1.4759387    
     70300   306.00128      409.52346      4843.2459      23.796401      1.4753927    
     70400   298.99598     -15447.253      4845.0377      23.805205      1.474847     
     70500   303.33194      684.19677      4846.8295      23.814008      1.4743018    
     70600   297.85771      5783.7098      4848.6213      23.822812      1.473757     
     70700   316.76774      1505.8912      4850.4131      23.831616      1.4732126    
     70800   287.04768     -3427.4463      4852.2049      23.84042       1.4726685    
     70900   289.85402      503.76534      4853.9967      23.849223      1.4721249    
     71000   289.74522      5835.1039      4855.7885      23.858027      1.4715817    
     71100   291.22614     -1422.8798      4857.5803      23.866831      1.4710389    
     71200   317.31376      2716.9326      4859.3721      23.875634      1.4704965    
     71300   297.44535      286.10657      4861.1639      23.884438      1.4699544    
     71400   299.01676     -4066.1845      4862.9557      23.893242      1.4694128    
     71500   299.37631     -1702.3306      4864.7475      23.902045      1.4688716    
     71600   301.2037      -5973.5922      4866.5393      23.910849      1.4683308    
     71700   293.75168      5703.8672      4868.3311      23.919653      1.4677904    
     71800   307.67431      1600.9316      4870.1229      23.928457      1.4672503    
     71900   281.29046     -6911.8108      4871.9147      23.93726       1.4667107    
     72000   311.88675     -3545.5782      4873.7065      23.946064      1.4661715    
     72100   288.56869      1802.0276      4875.4983      23.954868      1.4656326    
     72200   313.29678      3095.2444      4877.2901      23.963671      1.4650942    
     72300   307.3167      -190.82368      4879.0819      23.972475      1.4645561    
     72400   300.06175     -717.56473      4880.8738      23.981279      1.4640185    
     72500   274.39415     -3369.21        4882.6656      23.990082      1.4634812    
     72600   301.81817     -1108.3196      4884.4574      23.998886      1.4629444    
     72700   280.1919      -8685.3305      4886.2492      24.00769       1.4624079    
     72800   306.53561      5796.0557      4888.041       24.016494      1.4618718    
     72900   322.50039      1646.1163      4889.8328      24.025297      1.4613362    
     73000   325.27241      1399.8163      4891.6246      24.034101      1.4608009    
     73100   304.52181      6821.9591      4893.4164      24.042905      1.460266     
     73200   299.20109     -15892.712      4895.2082      24.051708      1.4597315    
     73300   278.10856      1334.6099      4897           24.060512      1.4591974    
     73400   294.35789     -6735.2651      4898.7918      24.069316      1.4586636    
     73500   309.23748      4451.8785      4900.5836      24.078119      1.4581303    
     73600   304.58959      10192.022      4902.3754      24.086923      1.4575974    
     73700   320.91055     -1457.9087      4904.1672      24.095727      1.4570648    
     73800   304.62652     -4569.9375      4905.959       24.104531      1.4565327    
     73900   294.16535      5900.1947      4907.7508      24.113334      1.4560009    
     74000   299.841       -868.82979      4909.5426      24.122138      1.4554695    
     74100   292.0076      -7356.2884      4911.3344      24.130942      1.4549385    
     74200   288.15241     -10804.859      4913.1262      24.139745      1.4544079    
     74300   315.79803     -14472.211      4914.918       24.148549      1.4538777    
     74400   280.95728     -7692.894       4916.7098      24.157353      1.4533478    
     74500   304.67685      9732.4916      4918.5016      24.166156      1.4528184    
     74600   309.45605      3053.4289      4920.2934      24.17496       1.4522893    
     74700   307.11845      1549.3234      4922.0852      24.183764      1.4517606    
     74800   268.2174      -4285.7602      4923.877       24.192568      1.4512323    
     74900   283.06078     -4744.5304      4925.6688      24.201371      1.4507044    
     75000   311.08133     -6334.5734      4927.4607      24.210175      1.4501769    
     75100   297.57461      735.06736      4929.2525      24.218979      1.4496497    
     75200   290.68575     -4112.3416      4931.0443      24.227782      1.449123     
     75300   310.19595     -30.290981      4932.8361      24.236586      1.4485966    
     75400   309.41917     -3621.6389      4934.6279      24.24539       1.4480706    
     75500   291.81518      4454.8293      4936.4197      24.254193      1.447545     
     75600   306.999        5598.6014      4938.2115      24.262997      1.4470197    
     75700   270.71174     -4690.3258      4940.0033      24.271801      1.4464949    
     75800   290.38306      7153.8718      4941.7951      24.280605      1.4459704    
     75900   304.70929      6017.3741      4943.5869      24.289408      1.4454463    
     76000   303.74322      2147.8629      4945.3787      24.298212      1.4449226    
     76100   316.68945      1578.6281      4947.1705      24.307016      1.4443993    
     76200   307.47774      2359.5607      4948.9623      24.315819      1.4438763    
     76300   290.89445     -3606.917       4950.7541      24.324623      1.4433537    
     76400   289.25236      3239.0156      4952.5459      24.333427      1.4428315    
     76500   307.62177      568.45142      4954.3377      24.34223       1.4423097    
     76600   318.22512      8268.7154      4956.1295      24.351034      1.4417883    
     76700   312.05976     -227.2333       4957.9213      24.359838      1.4412672    
     76800   295.32321     -463.46835      4959.7131      24.368642      1.4407465    
     76900   288.88371     -7457.9657      4961.5049      24.377445      1.4402262    
     77000   287.59667      97.670778      4963.2967      24.386249      1.4397063    
     77100   308.14934     -3413.2478      4965.0885      24.395053      1.4391867    
     77200   302.73923      4750.2129      4966.8803      24.403856      1.4386675    
     77300   307.6332      -4173.2308      4968.6721      24.41266       1.4381487    
     77400   305.43766     -1881.7241      4970.4639      24.421464      1.4376303    
     77500   315.46244      1400.5382      4972.2557      24.430267      1.4371122    
     77600   282.46632     -1351.6227      4974.0476      24.439071      1.4365945    
     77700   311.08603      9284.8631      4975.8394      24.447875      1.4360772    
     77800   316.75662      2695.8608      4977.6312      24.456679      1.4355603    
     77900   307.97109     -3146.8677      4979.423       24.465482      1.4350437    
     78000   281.40821      2901.8091      4981.2148      24.474286      1.4345275    
     78100   306.16502     -8905.6989      4983.0066      24.48309       1.4340116    
     78200   303.43523      594.23621      4984.7984      24.491893      1.4334962    
     78300   322.43493      1836.057       4986.5902      24.500697      1.4329811    
     78400   313.42467      5963.4987      4988.382       24.509501      1.4324664    
     78500   292.61341     -2001.4626      4990.1738      24.518304      1.431952     
     78600   292.65188      3321.1589      4991.9656      24.527108      1.431438     
     78700   295.74249      9127.6825      4993.7574      24.535912      1.4309244    
     78800   323.03776     -4669.9125      4995.5492      24.544716      1.4304112    
     78900   314.8857      -2832.2681      4997.341       24.553519      1.4298983    
     79000   279.57591     -643.01491      4999.1328      24.562323      1.4293858    
     79100   283.14106     -4187.0573      5000.9246      24.571127      1.4288737    
     79200   298.84275     -1252.0133      5002.7164      24.57993       1.4283619    
     79300   303.86965     -9469.9448      5004.5082      24.588734      1.4278505    
     79400   308.3085       1192.2397      5006.3         24.597538      1.4273394    
     79500   295.95273     -3206.8046      5008.0918      24.606341      1.4268288    
     79600   297.89957      1297.1047      5009.8836      24.615145      1.4263185    
     79700   283.39971      968.88508      5011.6754      24.623949      1.4258085    
     79800   289.59317     -8128.4822      5013.4672      24.632753      1.4252989    
     79900   299.18138      2891.7491      5015.259       24.641556      1.4247897    
     80000   291.75692      384.42413      5017.0508      24.65036       1.4242809    
     80100   309.52356     -103.86775      5018.8426      24.659164      1.4237724    
     80200   302.39372      10177.735      5020.6345      24.667967      1.4232642    
     80300   301.47703     -914.27191      5022.4263      24.676771      1.4227565    
     80400   294.00198     -4471.6433      5024.2181      24.685575      1.4222491    
     80500   295.75909     -650.67694      5026.0099      24.694378      1.421742     
     80600   298.52186     -3843.329       5027.8017      24.703182      1.4212354    
     80700   302.33767     -5245.8879      5029.5935      24.711986      1.420729     
     80800   272.08214      10526.988      5031.3853      24.72079       1.4202231    
     80900   300.86345      6919.0713      5033.1771      24.729593      1.4197175    
     81000   294.29027      300.58292      5034.9689      24.738397      1.4192122    
     81100   307.97167      3292.6748      5036.7607      24.747201      1.4187074    
     81200   310.3662      -2761.0702      5038.5525      24.756004      1.4182028    
     81300   287.10364      3570.5001      5040.3443      24.764808      1.4176987    
     81400   266.23654      1525.7334      5042.1361      24.773612      1.4171949    
     81500   276.45539     -1701.9644      5043.9279      24.782415      1.4166914    
     81600   300.2074       2056.3686      5045.7197      24.791219      1.4161884    
     81700   307.69592     -6160.4073      5047.5115      24.800023      1.4156856    
     81800   311.86586     -7104.7358      5049.3033      24.808827      1.4151832    
     81900   294.53753      4601.0137      5051.0951      24.81763       1.4146812    
     82000   292.27645      8928.1586      5052.8869      24.826434      1.4141796    
     82100   288.81623     -4811.3766      5054.6787      24.835238      1.4136783    
     82200   305.52034      4267.816       5056.4705      24.844041      1.4131773    
     82300   310.41077      6117.3678      5058.2623      24.852845      1.4126767    
     82400   305.84334     -10851.876      5060.0541      24.861649      1.4121765    
     82500   297.10145     -7041.524       5061.8459      24.870452      1.4116766    
     82600   308.41586     -7194.8662      5063.6377      24.879256      1.4111771    
     82700   293.57294     -12426.059      5065.4295      24.88806       1.4106779    
     82800   292.39835     -3493.9201      5067.2214      24.896864      1.4101791    
     82900   292.21367      5634.8099      5069.0132      24.905667      1.4096806    
     83000   331.19297      4631.5122      5070.805       24.914471      1.4091825    
     83100   296.50889      1650.6562      5072.5968      24.923275      1.4086847    
     83200   285.39353      1097.3344      5074.3886      24.932078      1.4081873    
     83300   295.00293      832.45542      5076.1804      24.940882      1.4076902    
     83400   302.36773      3730.3139      5077.9722      24.949686      1.4071935    
     83500   298.81698     -5426.0837      5079.764       24.958489      1.4066971    
     83600   308.3287      -1902.4698      5081.5558      24.967293      1.4062011    
     83700   306.08555     -1657.8777      5083.3476      24.976097      1.4057055    
     83800   296.98103      8779.203       5085.1394      24.984901      1.4052101    
     83900   299.86213      1454.3285      5086.9312      24.993704      1.4047152    
     84000   292.41764     -7450.003       5088.723       25.002508      1.4042206    
     84100   294.99458      5929.0028      5090.5148      25.011312      1.4037263    
     84200   304.34154      449.49062      5092.3066      25.020115      1.4032324    
     84300   308.65411     -13345.429      5094.0984      25.028919      1.4027388    
     84400   308.87741      2158.934       5095.8902      25.037723      1.4022456    
     84500   298.2231       2890.5413      5097.682       25.046526      1.4017527    
     84600   296.71556     -136.91126      5099.4738      25.05533       1.4012602    
     84700   273.85189      1288.0736      5101.2656      25.064134      1.400768     
     84800   303.98734      1130.0095      5103.0574      25.072938      1.4002761    
     84900   304.85556     -8729.212       5104.8492      25.081741      1.3997846    
     85000   321.55005     -6277.561       5106.641       25.090545      1.3992935    
     85100   295.28703      847.5813       5108.4328      25.099349      1.3988027    
     85200   304.67012      712.37056      5110.2246      25.108152      1.3983122    
     85300   277.98975     -7883.4347      5112.0164      25.116956      1.3978221    
     85400   281.19679      9264.7899      5113.8083      25.12576       1.3973323    
     85500   297.85427      6362.2897      5115.6001      25.134563      1.3968429    
     85600   284.49442      2990.2523      5117.3919      25.143367      1.3963538    
     85700   305.61474     -3338.3426      5119.1837      25.152171      1.395865     
     85800   296.1898      -2763.1973      5120.9755      25.160975      1.3953766    
     85900   280.54477     -1076.1513      5122.7673      25.169778      1.3948886    
     86000   271.57675      4107.4594      5124.5591      25.178582      1.3944008    
     86100   289.38254      7327.9839      5126.3509      25.187386      1.3939135    
     86200   310.71698      7366.7902      5128.1427      25.196189      1.3934264    
     86300   294.23021      3973.0095      5129.9345      25.204993      1.3929397    
     86400   301.41701      1378.6437      5131.7263      25.213797      1.3924534    
     86500   304.30288     -2691.5571      5133.5181      25.2226        1.3919673    
     86600   291.25994     -5703.2487      5135.3099      25.231404      1.3914816    
     86700   302.55498     -1053.5231      5137.1017      25.240208      1.3909963    
     86800   288.16465      3080.2782      5138.8935      25.249012      1.3905113    
[...]
     98600   309.4626       950.7566       5350.3264      26.287848      1.3355614    
     98700   311.72783      5416.5874      5352.1182      26.296652      1.3351143    
     98800   288.65416     -2955.1714      5353.91        26.305456      1.3346675    
     98900   277.20607      4552.191       5355.7018      26.314259      1.3342209    
     99000   282.03104      9363.4936      5357.4936      26.323063      1.3337747    
     99100   301.69431     -1875.0702      5359.2854      26.331867      1.3333288    
     99200   301.96252     -3360.6521      5361.0772      26.34067       1.3328832    
     99300   306.06814     -1408.5122      5362.869       26.349474      1.3324378    
     99400   304.77        -2739.5989      5364.6608      26.358278      1.3319928    
     99500   289.319        95.47166       5366.4526      26.367081      1.331548     
     99600   295.21286     -6509.5659      5368.2444      26.375885      1.3311036    
     99700   286.91834      370.95792      5370.0362      26.384689      1.3306595    
     99800   301.93097      3854.0798      5371.828       26.393493      1.3302156    
     99900   331.77254      706.26711      5373.6198      26.402296      1.3297721    
    100000   318.39933      4118.0709      5375.4116      26.4111        1.3293288    
    100100   277.82473     -3663.4555      5377.2034      26.419904      1.3288858    
    100200   301.85712     -996.19023      5378.9952      26.428707      1.3284432    
    100300   299.95775     -2071.807       5380.787       26.437511      1.3280008    
    100400   309.40928     -8062.066       5382.5788      26.446315      1.3275587    
    100500   336.25142     -3284.8241      5384.3706      26.455118      1.3271169    
    100600   319.95298      10244.466      5386.1624      26.463922      1.3266754    
    100700   288.19054     -1126.7376      5387.9542      26.472726      1.3262343    
    100800   273.17659      4308.0309      5389.7461      26.48153       1.3257933    
    100900   319.5442       3529.3593      5391.5379      26.490333      1.3253527    
    101000   298.16031     -1897.0768      5393.3297      26.499137      1.3249124    
    101100   334.62094     -1081.0309      5395.1215      26.507941      1.3244724    
    101200   311.31168     -3240.2445      5396.9133      26.516744      1.3240327    
    101300   283.55315     -6537.6427      5398.7051      26.525548      1.3235932    
    101400   279.76388      1133.1598      5400.4969      26.534352      1.3231541    
    101500   292.04561     -1159.2709      5402.2887      26.543155      1.3227152    
    101600   285.4232      -3262.6009      5404.0805      26.551959      1.3222767    
    101700   301.11798      2534.2151      5405.8723      26.560763      1.3218384    
    101800   311.14311     -3097.3508      5407.6641      26.569567      1.3214004    
    101900   273.3101       3038.6613      5409.4559      26.57837       1.3209627    
    102000   315.68746     -3037.9283      5411.2477      26.587174      1.3205253    
    102100   293.09987      1027.7557      5413.0395      26.595978      1.3200882    
    102200   297.57112     -533.50989      5414.8313      26.604781      1.3196514    
    102300   305.98466     -4873.0936      5416.6231      26.613585      1.3192148    
    102400   315.76986     -848.61035      5418.4149      26.622389      1.3187786    
    102500   315.40393      1369.3038      5420.2067      26.631192      1.3183426    
    102600   323.78092      4929.2906      5421.9985      26.639996      1.3179069    
    102700   299.86754      5501.4782      5423.7903      26.6488        1.3174716    
    102800   286.71562      6503.711       5425.5821      26.657604      1.3170365    
    102900   293.48956      3113.8995      5427.3739      26.666407      1.3166016    
    103000   308.53232      480.76902      5429.1657      26.675211      1.3161671    
    103100   307.32819      545.06385      5430.9575      26.684015      1.3157329    
    103200   326.01109     -2894.9451      5432.7493      26.692818      1.3152989    
    103300   301.94173     -4944.5327      5434.5411      26.701622      1.3148653    
    103400   308.42606      9883.7332      5436.333       26.710426      1.3144319    
    103500   296.47125     -2388.6789      5438.1248      26.719229      1.3139988    
    103600   292.55242     -7490.4961      5439.9166      26.728033      1.313566     
    103700   297.75785      4499.8584      5441.7084      26.736837      1.3131335    
    103800   295.59974      755.36483      5443.5002      26.745641      1.3127012    
    103900   291.86394      6542.1663      5445.292       26.754444      1.3122693    
    104000   282.34972      6353.6035      5447.0838      26.763248      1.3118376    
    104100   299.57577     -1033.5154      5448.8756      26.772052      1.3114062    
    104200   303.46908     -3874.0148      5450.6674      26.780855      1.3109751    
    104300   318.56907     -306.82487      5452.4592      26.789659      1.3105443    
    104400   307.96805      6517.8031      5454.251       26.798463      1.3101138    
    104500   291.04645      216.96673      5456.0428      26.807266      1.3096835    
    104600   305.90463      7610.1634      5457.8346      26.81607       1.3092536    
    104700   294.0758       780.02978      5459.6264      26.824874      1.3088239    
    104800   315.50131     -5397.2398      5461.4182      26.833678      1.3083945    
    104900   304.54723      3459.9542      5463.21        26.842481      1.3079654    
    105000   315.56199     -1246.3618      5465.0018      26.851285      1.3075365    
    105100   308.5615      -1307.493       5466.7936      26.860089      1.307108     
    105200   284.21747      4769.209       5468.5854      26.868892      1.3066797    
    105300   308.43318      8890.673       5470.3772      26.877696      1.3062517    
    105400   295.08642     -383.51339      5472.169       26.8865        1.305824     
    105500   299.57959     -5997.3963      5473.9608      26.895303      1.3053965    
    105600   299.98901     -5312.6821      5475.7526      26.904107      1.3049694    
    105700   331.0214      -1245.9428      5477.5444      26.912911      1.3045425    
    105800   311.38009     -1196.1263      5479.3362      26.921715      1.3041159    
    105900   285.17289     -3510.6801      5481.128       26.930518      1.3036896    
    106000   298.82325      522.33014      5482.9199      26.939322      1.3032635    
    106100   295.51792      1533.6415      5484.7117      26.948126      1.3028378    
    106200   293.89847     -3217.4483      5486.5035      26.956929      1.3024123    
    106300   312.64694      1063.5523      5488.2953      26.965733      1.3019871    
    106400   301.52807     -4062.4839      5490.0871      26.974537      1.3015621    
    106500   294.55122     -1343.133       5491.8789      26.98334       1.3011375    
    106600   297.19474     -2074.6484      5493.6707      26.992144      1.3007131    
    106700   282.80289      2335.667       5495.4625      27.000948      1.300289     
    106800   285.83089     -1832.199       5497.2543      27.009752      1.2998652    
    106900   308.44715     -1869.6325      5499.0461      27.018555      1.2994416    
    107000   328.76073      10671.358      5500.8379      27.027359      1.2990184    
    107100   293.46791     -1879.299       5502.6297      27.036163      1.2985954    
    107200   292.80013     -305.12901      5504.4215      27.044966      1.2981727    
    107300   300.25684     -7810.2157      5506.2133      27.05377       1.2977502    
    107400   302.96842      4443.6837      5508.0051      27.062574      1.297328     
    107500   324.8888       176.10649      5509.7969      27.071377      1.2969061    
    107600   302.3133      -960.3617       5511.5887      27.080181      1.2964845    
    107700   297.58925      1395.7079      5513.3805      27.088985      1.2960632    
    107800   295.74558      7020.7379      5515.1723      27.097789      1.2956421    
    107900   311.11962      2456.9442      5516.9641      27.106592      1.2952213    
    108000   299.59599     -3377.5758      5518.7559      27.115396      1.2948008    
    108100   289.70065      3916.5167      5520.5477      27.1242        1.2943805    
    108200   282.9442       4240.5305      5522.3395      27.133003      1.2939605    
    108300   296.71857     -780.39168      5524.1313      27.141807      1.2935408    
    108400   310.31738     -3413.86        5525.9231      27.150611      1.2931214    
    108500   297.16542     -2222.5481      5527.7149      27.159414      1.2927022    
    108600   299.79581     -3631.1108      5529.5068      27.168218      1.2922833    
    108700   295.0503      -9735.4411      5531.2986      27.177022      1.2918647    
    108800   283.00957     -6593.2565      5533.0904      27.185826      1.2914464    
    108900   291.43697      12156.16       5534.8822      27.194629      1.2910283    
    109000   305.76924     -2955.9958      5536.674       27.203433      1.2906105    
    109100   315.44378     -1806.6257      5538.4658      27.212237      1.2901929    
    109200   292.67789      4873.5643      5540.2576      27.22104       1.2897757    
    109300   311.50306     -1550.7577      5542.0494      27.229844      1.2893587    
    109400   295.13406     -4395.2227      5543.8412      27.238648      1.288942     
    109500   289.56002     -1549.1775      5545.633       27.247451      1.2885255    
    109600   295.52729     -2814.2012      5547.4248      27.256255      1.2881093    
    109700   299.4041       3362.7269      5549.2166      27.265059      1.2876934    
    109800   312.04971      2470.8555      5551.0084      27.273863      1.2872777    
    109900   280.47555      4244.8792      5552.8002      27.282666      1.2868623    
    110000   289.08696      1179.6154      5554.592       27.29147       1.2864472    
    110100   303.01856     -994.22384      5556.3838      27.300274      1.2860324    
    110200   297.71814     -1370.7028      5558.1756      27.309077      1.2856178    
    110300   300.96699      4202.2099      5559.9674      27.317881      1.2852035    
    110400   318.25283      1394.9467      5561.7592      27.326685      1.2847894    
    110500   289.03318     -4026.2115      5563.551       27.335488      1.2843757    
    110600   281.59159     -3499.7433      5565.3428      27.344292      1.2839621    
    110700   277.22701     -3074.8307      5567.1346      27.353096      1.2835489    
    110800   272.63111      8542.351       5568.9264      27.3619        1.2831359    
    110900   313.11185      1413.8503      5570.7182      27.370703      1.2827232    
    111000   301.12106     -4790.7927      5572.51        27.379507      1.2823107    
    111100   324.23081     -255.36899      5574.3018      27.388311      1.2818986    
    111200   294.14888     -4137.7925      5576.0937      27.397114      1.2814866    
    111300   293.95195      1245.9901      5577.8855      27.405918      1.281075     
    111400   274.507        4700.4525      5579.6773      27.414722      1.2806636    
    111500   298.03326      1385.5937      5581.4691      27.423525      1.2802525    
    111600   313.3808       345.28925      5583.2609      27.432329      1.2798416    
    111700   290.92328      8511.7565      5585.0527      27.441133      1.279431     
    111800   288.27126     -1734.737       5586.8445      27.449937      1.2790207    
    111900   304.89236     -87.462362      5588.6363      27.45874       1.2786106    
    112000   299.56951     -1932.9105      5590.4281      27.467544      1.2782008    
    112100   279.32706     -2766.8397      5592.2199      27.476348      1.2777912    
    112200   311.87098      2682.932       5594.0117      27.485151      1.2773819    
    112300   308.55213     -6242.026       5595.8035      27.493955      1.2769729    
    112400   271.87561      4316.3366      5597.5953      27.502759      1.2765641    
    112500   310.30728     -1610.9847      5599.3871      27.511562      1.2761556    
    112600   285.22347      795.29383      5601.1789      27.520366      1.2757474    
    112700   303.23165     -7684.2775      5602.9707      27.52917       1.2753394    
    112800   322.18107     -3885.1843      5604.7625      27.537974      1.2749317    
    112900   304.75784      2275.3599      5606.5543      27.546777      1.2745243    
    113000   301.28359      6437.6924      5608.3461      27.555581      1.2741171    
    113100   287.23418      1629.8309      5610.1379      27.564385      1.2737101    
    113200   304.87625      9326.4705      5611.9297      27.573188      1.2733034    
    113300   312.29826      6775.9833      5613.7215      27.581992      1.272897     
    113400   315.98731      8154.2401      5615.5133      27.590796      1.2724909    
    113500   297.46088     -3873.5018      5617.3051      27.599599      1.272085     
    113600   287.48995      1803.6833      5619.0969      27.608403      1.2716793    
    113700   297.09041     -7108.4183      5620.8887      27.617207      1.271274     
    113800   327.13381     -6189.7883      5622.6806      27.626011      1.2708688    
    113900   296.93393      2124.6622      5624.4724      27.634814      1.270464     
    114000   301.04712      4625.5125      5626.2642      27.643618      1.2700594    
    114100   303.36469     -3773.8664      5628.056       27.652422      1.269655     
    114200   313.26734      1574.2907      5629.8478      27.661225      1.2692509    
    114300   302.78447      1078.7443      5631.6396      27.670029      1.2688471    
    114400   287.99214     -8947.0322      5633.4314      27.678833      1.2684435    
    114500   292.64005      3365.7135      5635.2232      27.687636      1.2680402    
    114600   301.90111     -2789.9837      5637.015       27.69644       1.2676371    
    114700   301.51563     -107.16217      5638.8068      27.705244      1.2672343    
    114800   310.24751      4048.7485      5640.5986      27.714048      1.2668318    
    114900   309.53286      2997.5508      5642.3904      27.722851      1.2664295    
    115000   301.31551     -3468.5979      5644.1822      27.731655      1.2660274    
    115100   311.2407      -2840.4244      5645.974       27.740459      1.2656256    
    115200   291.97808      2461.6044      5647.7658      27.749262      1.2652241    
    115300   299.53347     -294.36025      5649.5576      27.758066      1.2648228    
    115400   305.71953     -4510.0454      5651.3494      27.76687       1.2644218    
    115500   286.99844     -2214.6221      5653.1412      27.775673      1.264021     
    115600   287.26561     -5172.6722      5654.933       27.784477      1.2636205    
    115700   293.52194      3776.2731      5656.7248      27.793281      1.2632203    
    115800   302.79911     -311.33863      5658.5166      27.802085      1.2628203    
    115900   305.88369     -7893.0881      5660.3084      27.810888      1.2624205    
    116000   286.1004       3530.7412      5662.1002      27.819692      1.262021     
    116100   272.88037      1688.1225      5663.892       27.828496      1.2616218    
    116200   272.54863      5592.2464      5665.6838      27.837299      1.2612228    
    116300   303.90328      2624.6049      5667.4757      27.846103      1.260824     
    116400   300.10393     -944.57703      5669.2675      27.854907      1.2604255    
    116500   296.26075     -4255.3573      5671.0593      27.86371       1.2600273    
    116600   313.24299      2007.4372      5672.8511      27.872514      1.2596293    
    116700   307.50257     -7645.0274      5674.6429      27.881318      1.2592316    
    116800   322.42404     -2493.4814      5676.4347      27.890122      1.2588341    
    116900   291.29769      2243.124       5678.2265      27.898925      1.2584369    
    117000   286.74513     -4038.1104      5680.0183      27.907729      1.2580399    
    117100   283.95431     -2903.6804      5681.8101      27.916533      1.2576431    
    117200   324.50892     -9759.0341      5683.6019      27.925336      1.2572467    
    117300   305.62571      4739.5369      5685.3937      27.93414       1.2568504    
    117400   309.65772      2428.2756      5687.1855      27.942944      1.2564544    
    117500   286.29404      3666.4488      5688.9773      27.951747      1.2560587    
    117600   320.61418     -5452.3546      5690.7691      27.960551      1.2556632    
    117700   290.5478      -3036.2887      5692.5609      27.969355      1.255268     
    117800   273.06595      686.41041      5694.3527      27.978159      1.254873     
    117900   295.16167     -8844.932       5696.1445      27.986962      1.2544783    
    118000   302.95607      4271.9128      5697.9363      27.995766      1.2540838    
    118100   308.40614     -4778.3606      5699.7281      28.00457       1.2536895    
    118200   311.68199      508.75695      5701.5199      28.013373      1.2532955    
    118300   301.94722     -6438.0387      5703.3117      28.022177      1.2529018    
    118400   297.76396      890.28643      5705.1035      28.030981      1.2525083    
    118500   292.82882     -1744.4641      5706.8953      28.039784      1.252115     
    118600   298.03432      550.61355      5708.6871      28.048588      1.251722     
    118700   302.18929      6620.6012      5710.4789      28.057392      1.2513293    
    118800   290.70343     -5657.0192      5712.2707      28.066196      1.2509368    
    118900   296.24443     -1327.6709      5714.0626      28.074999      1.2505445    
    119000   298.16526      2407.8407      5715.8544      28.083803      1.2501525    
    119100   304.94074     -3592.6938      5717.6462      28.092607      1.2497607    
    119200   294.65139     -2062.004       5719.438       28.10141       1.2493692    
    119300   309.44286      1037.7085      5721.2298      28.110214      1.2489779    
    119400   316.71604      1812.4513      5723.0216      28.119018      1.2485868    
    119500   309.95387      4568.2404      5724.8134      28.127821      1.2481961    
    119600   302.04148     -2770.5441      5726.6052      28.136625      1.2478055    
    119700   296.99843      1323.0235      5728.397       28.145429      1.2474152    
    119800   304.20039     -3736.9569      5730.1888      28.154233      1.2470251    
    119900   307.9087       573.75388      5731.9806      28.163036      1.2466353    
    120000   304.51488      9385.0083      5733.7724      28.17184       1.2462457    
Loop time of 4600.63 on 8 procs for 120000 steps with 366 atoms

Performance: 1.127 ns/day, 21.299 hours/ns, 26.083 timesteps/s, 9.547 katom-step/s
98.7% CPU use with 8 MPI tasks x 1 OpenMP threads

MPI task timing breakdown:
Section |  min time  |  avg time  |  max time  |%varavg| %total
---------------------------------------------------------------
Pair    | 3281.5     | 3540.1     | 3828.7     | 373.0 | 76.95
Bond    | 0.28534    | 0.32186    | 0.35891    |   4.0 |  0.01
Neigh   | 262.46     | 270.88     | 276.84     |  28.7 |  5.89
Comm    | 56.932     | 345.22     | 603.33     |1192.7 |  7.50
Output  | 0.50863    | 0.55435    | 0.60271    |   4.1 |  0.01
Modify  | 434.3      | 440.69     | 449.59     |  23.7 |  9.58
Other   |            | 2.822      |            |       |  0.06

Nlocal:          45.75 ave          54 max          39 min
Histogram: 1 0 2 0 2 1 0 0 1 1
Nghost:        2649.12 ave        2699 max        2597 min
Histogram: 2 0 1 0 1 0 2 0 0 2
Neighs:        22070.6 ave       25305 max       19521 min
Histogram: 1 0 1 3 0 1 0 1 0 1

Total # of neighbors = 176565
Ave neighs/atom = 482.41803
Ave special neighs/atom = 0
Neighbor list builds = 12000
Dangerous builds not checked
Total wall time: 1:16:40
