LAMMPS (2 Aug 2023 - Update 2)
OMP_NUM_THREADS environment is not set. Defaulting to 1 thread. (src/comm.cpp:98)
  using 1 OpenMP thread(s) per MPI task
Reading data file ...
  triclinic box = (0 0 0) to (15.0372 13.535 17.6074) with tilt (-7.4931 -0.1585 0.0807)
WARNING: Triclinic box skew is large. LAMMPS will run inefficiently. (src/domain.cpp:220)
  1 by 1 by 1 MPI processor grid
  reading atoms ...
  366 atoms
Finding 1-2 1-3 1-4 neighbors ...
  special bond factors lj:    0        0        0       
  special bond factors coul:  0        0        0       
     0 = max # of 1-2 neighbors
     0 = max # of 1-3 neighbors
     0 = max # of 1-4 neighbors
     1 = max # of special neighbors
  special bonds CPU = 0.000 seconds
  read_data CPU = 0.005 seconds
*****Minimization starts.*****

CITE-CITE-CITE-CITE-CITE-CITE-CITE-CITE-CITE-CITE-CITE-CITE-CITE

Your simulation uses code contributions which should be cited:
- pair reaxff command: doi:10.1016/j.parco.2011.08.005
- fix qeq/reaxff command: doi:10.1016/j.parco.2011.08.005
The log file lists these citations in BibTeX format.

CITE-CITE-CITE-CITE-CITE-CITE-CITE-CITE-CITE-CITE-CITE-CITE-CITE

Switching to 'neigh_modify every 1 delay 0 check yes' setting during minimization
WARNING: Fix qeq/reaxff group is not charge neutral, net charge = -29.52 (src/REAXFF/fix_qeq_reaxff.cpp:392)
Neighbor list info ...
  update: every = 1 steps, delay = 0 steps, check = yes
  max neighbors/atom: 2000, page size: 100000
  master list distance cutoff = 12
  ghost atom cutoff = 12
  binsize = 6, bins = 4 3 3
  2 neighbor lists, perpetual/occasional/extra = 2 0 0
  (1) pair reaxff, perpetual
      attributes: half, newton off, ghost
      pair build: half/bin/newtoff/ghost
      stencil: full/ghost/bin/3d
      bin: standard
  (2) fix qeq/reaxff, perpetual, copy from (1)
      attributes: half, newton off
      pair build: copy
      stencil: none
      bin: none
Setting up cg style minimization ...
  Unit style    : real
  Current step  : 0
Per MPI rank memory allocation (min/avg/max) = 268.6 | 268.6 | 268.6 Mbytes
   Step          Temp          Press         Density         PotEng         TotEng    
         0   0              75874.465      1.9939932     -43876.171     -43876.171    
        22   0              19919.056      1.9939932     -44408.886     -44408.886    
Loop time of 35.1601 on 1 procs for 22 steps with 366 atoms

22.2% CPU use with 1 MPI tasks x 1 OpenMP threads

Minimization stats:
  Stopping criterion = energy tolerance
  Energy initial, next-to-last, final = 
     -43876.1708156969  -44408.8846755382  -44408.8856844039
  Force two-norm initial, final = 945.09185 185.12538
  Force max component initial, final = 142.08594 79.85893
  Final line search alpha, max atom move = 0.0015103976 0.12061874
  Iterations, force evaluations = 22 56

MPI task timing breakdown:
Section |  min time  |  avg time  |  max time  |%varavg| %total
---------------------------------------------------------------
Pair    | 28.933     | 28.933     | 28.933     |   0.0 | 82.29
Bond    | 4.6535e-05 | 4.6535e-05 | 4.6535e-05 |   0.0 |  0.00
Neigh   | 0          | 0          | 0          |   0.0 |  0.00
Comm    | 0.028062   | 0.028062   | 0.028062   |   0.0 |  0.08
Output  | 0          | 0          | 0          |   0.0 |  0.00
Modify  | 6.0804     | 6.0804     | 6.0804     |   0.0 | 17.29
Other   |            | 0.1185     |            |       |  0.34

Nlocal:            366 ave         366 max         366 min
Histogram: 1 0 0 0 0 0 0 0 0 0
Nghost:           6459 ave        6459 max        6459 min
Histogram: 1 0 0 0 0 0 0 0 0 0
Neighs:         227187 ave      227187 max      227187 min
Histogram: 1 0 0 0 0 0 0 0 0 0

Total # of neighbors = 227187
Ave neighs/atom = 620.72951
Ave special neighs/atom = 0
Neighbor list builds = 0
Dangerous builds not checked
System init for write_data ...
*****Equilibration starts.*****
Setting up Verlet run ...
  Unit style    : real
  Current step  : 0
  Time step     : 0.5
Per MPI rank memory allocation (min/avg/max) = 267 | 267 | 267 Mbytes
   Step          Temp          Press         Density         PotEng         TotEng    
         0   300            24083.216      1.9939932     -44408.885     -44082.487    
       100   217.36096     -6817.765       1.9302942     -44283.398     -44046.91     
       200   272.01951      4622.7575      1.9132539     -44284.084     -43988.128    
       300   307.49609     -5602.7419      1.8827124     -44276.398     -43941.844    
       400   326.69323      3148.264       1.887923      -44285.13      -43929.69     
       500   326.81188     -6412.7677      1.8993723     -44330.919     -43975.349    
       600   309.8374       3031.2129      1.906097      -44353.286     -44016.185    
       700   307.85502     -4792.731       1.91429       -44383.089     -44048.144    
       800   283.24368     -5473.9769      1.9145738     -44375.613     -44067.445    
       900   285.80768     -3403.2783      1.9154425     -44379.094     -44068.137    
      1000   295.92625     -3177.8004      1.9084559     -44362.276     -44040.31     
      1100   335.97593      8628.8467      1.9149287     -44383.345     -44017.805    
      1200   325.02347      616.45518      1.9269317     -44385.319     -44031.694    
      1300   290.49823     -54.620457      1.9206754     -44378.83      -44062.769    
      1400   291.73896     -241.48076      1.9274492     -44379.464     -44062.053    
      1500   296.18025     -2258.7895      1.935181      -44375.607     -44053.364    
      1600   308.20926      9039.1805      1.943906      -44370.109     -44034.779    
      1700   317.96815      9114.7697      1.9270832     -44339.837     -43993.889    
      1800   314.54103     -832.73356      1.9322689     -44337.235     -43995.016    
      1900   306.4282       8784.0897      1.933767      -44354.847     -44021.454    
      2000   302.08256      3806.0719      1.9345077     -44371.357     -44042.692    
      2100   297.87432     -7214.4154      1.9140416     -44378.927     -44054.841    
      2200   287.24663     -1652.195       1.9303198     -44382.06      -44069.537    
      2300   274.99345     -5100.6347      1.9186265     -44382.741     -44083.55     
      2400   280.2645       6882.3231      1.9256069     -44365.569     -44060.642    
      2500   303.03153      8979.0629      1.9422871     -44357.665     -44027.968    
      2600   308.09633     -12959.264      1.9197486     -44356.388     -44021.181    
      2700   306.80831      287.89322      1.9197861     -44378.734     -44044.928    
      2800   284.12244     -10734.468      1.931788      -44381.317     -44072.193    
      2900   288.70546      7059.0746      1.9308171     -44390.73      -44076.619    
      3000   302.00905      1423.177       1.9203835     -44396.728     -44068.143    
      3100   302.34763      974.7715       1.9304291     -44370.198     -44041.245    
      3200   325.68472      11443.954      1.9276925     -44374.683     -44020.34     
      3300   304.38152     -3500.2566      1.9083203     -44362.767     -44031.601    
      3400   290.1533      -959.65911      1.9107632     -44368.036     -44052.35     
      3500   306.23748      8311.2329      1.9215798     -44391.779     -44058.594    
      3600   310.97571      11012.577      1.9277641     -44394.638     -44056.298    
      3700   303.53137      13123.248      1.9256807     -44374.154     -44043.914    
      3800   320.96858      2098.5811      1.9217416     -44378.04      -44028.828    
      3900   304.94538     -1479.7372      1.9190116     -44374.455     -44042.675    
      4000   297.85519      2314.4962      1.9185176     -44392.715     -44068.649    
      4100   285.03021     -5069.1546      1.925568      -44391.491     -44081.38     
      4200   296.92662      15401.899      1.9401991     -44393.599     -44070.545    
      4300   310.53899     -7456.2221      1.916414      -44368.019     -44030.154    
      4400   315.3607      -3318.351       1.9218821     -44367.078     -44023.967    
      4500   294.25981      1451.4577      1.9199758     -44362.149     -44041.996    
      4600   297.6225      -2623.3181      1.9308262     -44386.279     -44062.467    
      4700   295.33375     -4973.6516      1.9210233     -44398.531     -44077.21     
      4800   302.09891     -700.9287       1.9243204     -44402.434     -44073.752    
      4900   285.53313     -3618.5953      1.9194696     -44389.784     -44079.125    
      5000   297.70544     -6783.3096      1.9163254     -44408.091     -44084.188    
Loop time of 2760.52 on 1 procs for 5000 steps with 366 atoms

Performance: 0.078 ns/day, 306.724 hours/ns, 1.811 timesteps/s, 662.919 atom-step/s
22.2% CPU use with 1 MPI tasks x 1 OpenMP threads

MPI task timing breakdown:
Section |  min time  |  avg time  |  max time  |%varavg| %total
---------------------------------------------------------------
Pair    | 2287.3     | 2287.3     | 2287.3     |   0.0 | 82.86
Bond    | 0.0014724  | 0.0014724  | 0.0014724  |   0.0 |  0.00
Neigh   | 185.83     | 185.83     | 185.83     |   0.0 |  6.73
Comm    | 1.5988     | 1.5988     | 1.5988     |   0.0 |  0.06
Output  | 0.24102    | 0.24102    | 0.24102    |   0.0 |  0.01
Modify  | 285.37     | 285.37     | 285.37     |   0.0 | 10.34
Other   |            | 0.1832     |            |       |  0.01

Nlocal:            366 ave         366 max         366 min
Histogram: 1 0 0 0 0 0 0 0 0 0
Nghost:           6301 ave        6301 max        6301 min
Histogram: 1 0 0 0 0 0 0 0 0 0
Neighs:         218176 ave      218176 max      218176 min
Histogram: 1 0 0 0 0 0 0 0 0 0

Total # of neighbors = 218176
Ave neighs/atom = 596.10929
Ave special neighs/atom = 0
Neighbor list builds = 500
Dangerous builds not checked
*****Heat starts.*****
Setting up Verlet run ...
  Unit style    : real
  Current step  : 5000
  Time step     : 0.5
Per MPI rank memory allocation (min/avg/max) = 268 | 268 | 268 Mbytes
   Step          Temp          Press         Density         PotEng         TotEng    
      5000   297.70544     -6783.4582      1.9163254     -44408.091     -44084.188    
      5100   320.48002     -3712.1759      1.9163254     -44400.522     -44051.842    
      5200   341.90658     -6792.6368      1.9163254     -44357.627     -43985.634    
      5300   415.0433       9691.7749      1.9163254     -44330.554     -43878.989    
      5400   444.2245      -2742.4336      1.9163254     -44222.325     -43739.01     
      5500   527.17815      1338.2538      1.9163254     -44136.864     -43563.296    
      5600   588.35575      6482.1044      1.9163254     -43990.424     -43350.295    
      5700   709.11887     -3415.5351      1.9163254     -43869.023     -43097.505    
      5800   803.96995      14790.446      1.9163254     -43683.789     -42809.073    
      5900   972.03314      11180.144      1.9163254     -43549.892     -42492.324    
      6000   1112.8177      481.58192      1.9163254     -43362.388     -42151.647    
      6100   1234.3483      11874.298      1.9163254     -43151.425     -41808.459    
      6200   1362.2564      31704.938      1.9163254     -42954.973     -41472.844    
      6300   1511.5961      33280.379      1.9163254     -42812.505     -41167.895    
      6400   1761.5245      12469.996      1.9163254     -42835.515     -40918.984    
      6500   1751.4651      36137.447      1.9163254     -42654.887     -40749.3      
      6600   1807.6119      67958.773      1.9163254     -42573.468     -40606.794    
      6700   1821.0553      11391.802      1.9163254     -42421.191     -40439.891    
      6800   2112.0227      46679.676      1.9163254     -42436.082     -40138.211    
      6900   1992.2335      24768.15       1.9163254     -42044.882     -39877.34     
      7000   2236.5489      52148.601      1.9163254     -42043.613     -39610.257    
Loop time of 1046.19 on 1 procs for 2000 steps with 366 atoms

Performance: 0.083 ns/day, 290.608 hours/ns, 1.912 timesteps/s, 699.683 atom-step/s
22.2% CPU use with 1 MPI tasks x 1 OpenMP threads

MPI task timing breakdown:
Section |  min time  |  avg time  |  max time  |%varavg| %total
---------------------------------------------------------------
Pair    | 856.25     | 856.25     | 856.25     |   0.0 | 81.84
Bond    | 0.00046384 | 0.00046384 | 0.00046384 |   0.0 |  0.00
Neigh   | 71.149     | 71.149     | 71.149     |   0.0 |  6.80
Comm    | 0.61771    | 0.61771    | 0.61771    |   0.0 |  0.06
Output  | 0.074794   | 0.074794   | 0.074794   |   0.0 |  0.01
Modify  | 117.86     | 117.86     | 117.86     |   0.0 | 11.27
Other   |            | 0.2318     |            |       |  0.02

Nlocal:            366 ave         366 max         366 min
Histogram: 1 0 0 0 0 0 0 0 0 0
Nghost:           6321 ave        6321 max        6321 min
Histogram: 1 0 0 0 0 0 0 0 0 0
Neighs:         218255 ave      218255 max      218255 min
Histogram: 1 0 0 0 0 0 0 0 0 0

Total # of neighbors = 218255
Ave neighs/atom = 596.32514
Ave special neighs/atom = 0
Neighbor list builds = 200
Dangerous builds not checked
*****Middle equilibration starts.*****
*****Cool starts.*****
Setting up Verlet run ...
  Unit style    : real
  Current step  : 7000
  Time step     : 0.5
Per MPI rank memory allocation (min/avg/max) = 268 | 268 | 268 Mbytes
   Step          Temp          Press         Density         PotEng         TotEng    
      7000   300            26319.241      1.9163254     -42043.613     -41717.214    
      7100   1404.7725      54261.827      1.9163254     -42941.802     -41413.416    
      7200   1739.0219      31196.423      1.9163254     -42823.307     -40931.259    
      7300   1893.4026      4746.873       1.9163254     -42500.748     -40440.734    
      7400   2001.9756      48131.374      1.9163254     -42171.716     -39993.576    
      7500   2203.8435      32430.766      1.9163254     -42047.529     -39649.757    
      7600   2287.3513      57912.899      1.9163254     -42010.435     -39521.807    
      7700   2151.1683      34846.695      1.9163254     -42024.007     -39683.545    
      7800   1994.5495      41442.859      1.9163254     -42126.56      -39956.499    
      7900   1982.9734      978.51983      1.9163254     -42310.717     -40153.25     
      8000   1935.9742      20815.194      1.9163254     -42322.658     -40216.327    
      8100   1954.7925      21535.821      1.9163254     -42258.931     -40132.125    
      8200   1950.9387      24946.965      1.9163254     -42141.833     -40019.22     
      8300   2058.0904      26844.668      1.9163254     -42197.648     -39958.455    
      8400   2050.8191      52034.219      1.9163254     -42313.124     -40081.841    
      8500   2008.2447      10016.302      1.9163254     -42431.964     -40247.003    
      8600   1857.9619     -3900.021       1.9163254     -42368.927     -40347.473    
      8700   1760.7515      23052.557      1.9163254     -42309.711     -40394.021    
      8800   1850.8858      35987.785      1.9163254     -42511.941     -40498.185    
      8900   1798.2017      9432.8615      1.9163254     -42606.393     -40649.958    
      9000   1663.2867      21503.03       1.9163254     -42547.106     -40737.457    
      9100   1810.3801      23757.414      1.9163254     -42592.704     -40623.018    
      9200   1971.9555      11081.104      1.9163254     -42641.536     -40496.057    
      9300   1824.5063      8042.6485      1.9163254     -42508.596     -40523.541    
      9400   1723.3481      13585.609      1.9163254     -42485.213     -40610.217    
      9500   1794.2069      12553.791      1.9163254     -42680.574     -40728.484    
      9600   1702.8266      20213.075      1.9163254     -42657.31      -40804.642    
      9700   1629.2204      36215.304      1.9163254     -42576.365     -40803.781    
      9800   1791.19        30652.502      1.9163254     -42723.81      -40775.003    
      9900   1599.997       23567.192      1.9163254     -42585.188     -40844.399    
     10000   1528.9691      17195.833      1.9163254     -42623.232     -40959.72     
     10100   1606.1816      34115.907      1.9163254     -42767.435     -41019.916    
     10200   1529.5737      31508.005      1.9163254     -42785.546     -41121.376    
     10300   1504.1986      323.94462      1.9163254     -42843.948     -41207.387    
     10400   1453.225       5975.7379      1.9163254     -42885.668     -41304.566    
     10500   1438.4393      12616.698      1.9163254     -42874.906     -41309.891    
     10600   1485.4482      6127.2792      1.9163254     -42774.529     -41158.368    
     10700   1576.4115      19520.024      1.9163254     -42812.758     -41097.629    
     10800   1461.7663      16569.116      1.9163254     -42742.961     -41152.565    
     10900   1422.9638      28937.554      1.9163254     -42824.355     -41276.176    
     11000   1454.3137      14026.749      1.9163254     -42889.781     -41307.494    
     11100   1462.3318      24920.923      1.9163254     -42931.36      -41340.35     
     11200   1495.6896      21326.925      1.9163254     -43085.746     -41458.443    
     11300   1445.5697      22969.413      1.9163254     -43106.158     -41533.385    
     11400   1397.7106      21395.721      1.9163254     -43082.638     -41561.935    
     11500   1416.4205      16298.878      1.9163254     -43126.833     -41585.774    
     11600   1395.234       18421.691      1.9163254     -43131.598     -41613.59     
     11700   1302.3213      23348.242      1.9163254     -43095.407     -41678.487    
     11800   1197.1335      19266.135      1.9163254     -43177.212     -41874.736    
     11900   1201.6207      9021.3211      1.9163254     -43190.725     -41883.367    
     12000   1299.5309      18945.936      1.9163254     -43234.498     -41820.614    
     12100   1242.5829      15274.657      1.9163254     -43126.023     -41774.098    
     12200   1319.1064      16114.815      1.9163254     -43164.724     -41729.542    
     12300   1269.1629      3182.6175      1.9163254     -43188.575     -41807.731    
     12400   1160.5698      26903.281      1.9163254     -43211.224     -41948.529    
     12500   1118.8012      9021.4127      1.9163254     -43212.028     -41994.778    
     12600   1051.251       890.91479      1.9163254     -43175.582     -42031.825    
     12700   1070.5354     -648.26389      1.9163254     -43241.879     -42077.141    
     12800   1016.5307      19782.178      1.9163254     -43292.976     -42186.995    
     12900   1037.0772      11901.075      1.9163254     -43344.215     -42215.879    
     13000   1090.1513      10192.813      1.9163254     -43357.218     -42171.138    
     13100   1089.1778      26016.267      1.9163254     -43349.068     -42164.048    
     13200   926.72004      25960.546      1.9163254     -43352.829     -42344.562    
     13300   1003.9987      15504.062      1.9163254     -43440.525     -42348.179    
     13400   1027.0516      29646.991      1.9163254     -43448.494     -42331.066    
     13500   895.70516      16998.34       1.9163254     -43321.662     -42347.139    
     13600   962.03192      30501.203      1.9163254     -43437.492     -42390.806    
     13700   961.79365     -1827.0685      1.9163254     -43540.874     -42494.447    
     13800   937.14715      17267.938      1.9163254     -43562.786     -42543.174    
     13900   859.65493      20602.197      1.9163254     -43525.084     -42589.783    
     14000   841.37831      10763.056      1.9163254     -43531.287     -42615.871    
     14100   878.27894      8848.2375      1.9163254     -43571.299     -42615.736    
     14200   936.9525       10965.114      1.9163254     -43652.87      -42633.47     
     14300   834.83609      20157.178      1.9163254     -43657.689     -42749.391    
     14400   810.74446      19235.354      1.9163254     -43709.375     -42827.288    
     14500   768.79424      9939.2178      1.9163254     -43713.705     -42877.26     
     14600   723.58782      20135.682      1.9163254     -43693.945     -42906.685    
     14700   734.49082     -4613.9196      1.9163254     -43751.16      -42952.038    
     14800   722.15063      15405.127      1.9163254     -43810.437     -43024.741    
     14900   710.15233      6659.9004      1.9163254     -43830.885     -43058.242    
     15000   705.16765      10294.592      1.9163254     -43835.676     -43068.457    
     15100   672.12821      4266.1666      1.9163254     -43827.636     -43096.363    
     15200   660.23726      194.25433      1.9163254     -43868.382     -43150.047    
     15300   644.17735      15051.397      1.9163254     -43883.558     -43182.696    
     15400   622.88164      13800.619      1.9163254     -43904.491     -43226.799    
     15500   606.63723     -1009.7562      1.9163254     -43935.163     -43275.144    
     15600   578.05223      4192.5324      1.9163254     -43950.34      -43321.422    
     15700   574.06549     -26.920708      1.9163254     -43989.449     -43364.868    
     15800   529.15065      1499.1894      1.9163254     -43996.971     -43421.257    
     15900   541.71473      7893.0949      1.9163254     -44062.016     -43472.632    
     16000   517.79185     -892.8189       1.9163254     -44090.153     -43526.798    
     16100   486.13736      8284.1717      1.9163254     -44107.543     -43578.628    
     16200   483.68369      2209.0768      1.9163254     -44140.487     -43614.241    
     16300   426.23553      7262.4555      1.9163254     -44117.946     -43654.204    
     16400   448.14383     -4305.7098      1.9163254     -44187.824     -43700.245    
     16500   399.58242     -10298.309      1.9163254     -44174.747     -43740.003    
     16600   385.57703      6457.9518      1.9163254     -44207.606     -43788.1      
     16700   384.40247     -5286.5061      1.9163254     -44247.394     -43829.166    
     16800   359.4005      -2562.6785      1.9163254     -44268.942     -43877.916    
     16900   352.60567      4998.1677      1.9163254     -44311.286     -43927.653    
     17000   318.45181      487.58388      1.9163254     -44328.268     -43981.794    
Loop time of 4893.6 on 1 procs for 10000 steps with 366 atoms

Performance: 0.088 ns/day, 271.866 hours/ns, 2.043 timesteps/s, 747.916 atom-step/s
23.8% CPU use with 1 MPI tasks x 1 OpenMP threads

MPI task timing breakdown:
Section |  min time  |  avg time  |  max time  |%varavg| %total
---------------------------------------------------------------
Pair    | 4007.1     | 4007.1     | 4007.1     |   0.0 | 81.88
Bond    | 0.026223   | 0.026223   | 0.026223   |   0.0 |  0.00
Neigh   | 331.72     | 331.72     | 331.72     |   0.0 |  6.78
Comm    | 3.3948     | 3.3948     | 3.3948     |   0.0 |  0.07
Output  | 0.37633    | 0.37633    | 0.37633    |   0.0 |  0.01
Modify  | 550.34     | 550.34     | 550.34     |   0.0 | 11.25
Other   |            | 0.6738     |            |       |  0.01

Nlocal:            366 ave         366 max         366 min
Histogram: 1 0 0 0 0 0 0 0 0 0
Nghost:           6327 ave        6327 max        6327 min
Histogram: 1 0 0 0 0 0 0 0 0 0
Neighs:         218052 ave      218052 max      218052 min
Histogram: 1 0 0 0 0 0 0 0 0 0

Total # of neighbors = 218052
Ave neighs/atom = 595.77049
Ave special neighs/atom = 0
Neighbor list builds = 1000
Dangerous builds not checked
*****final equilibration starts.*****
Setting up Verlet run ...
  Unit style    : real
  Current step  : 17000
  Time step     : 0.5
Per MPI rank memory allocation (min/avg/max) = 268 | 268 | 268 Mbytes
   Step          Temp          Press         Density         PotEng         TotEng    
     17000   318.45181      487.59696      1.9163254     -44328.268     -43981.794    
     17100   326.66128     -4532.3258      1.9281247     -44360.77      -44005.364    
     17200   296.86363      6035.6871      1.9260103     -44365.056     -44042.07     
     17300   297.48219      2930.0994      1.9099882     -44373.611     -44049.952    
     17400   307.44312      1321.4701      1.9187476     -44405.645     -44071.148    
     17500   302.82066      5342.8181      1.9164024     -44405.966     -44076.499    
     17600   300.19272      5249.328       1.9205996     -44376.156     -44049.548    
     17700   319.13252      208.44803      1.9172022     -44374.559     -44027.345    
     17800   298.85954     -1205.7263      1.9216415     -44359.884     -44034.726    
     17900   323.06236      12585.056      1.9271744     -44392.896     -44041.406    
     18000   310.96289      764.71198      1.9221573     -44394.642     -44056.316    
     18100   302.99843     -5530.6773      1.9234162     -44403.15      -44073.489    
     18200   292.49234      3350.03        1.9405099     -44394.069     -44075.839    
     18300   309.91523     -12975.05       1.922742      -44405.668     -44068.482    
     18400   315.65188      12501.27       1.9300413     -44388.654     -44045.226    
     18500   318.80526     -2017.5819      1.9154752     -44368.032     -44021.173    
     18600   329.30788      3097.333       1.9349239     -44402.199     -44043.914    
     18700   289.78775     -9190.3613      1.9362844     -44390.035     -44074.747    
     18800   291.88264     -3236.8893      1.9465808     -44404.333     -44086.766    
     18900   310.81627     -2075.7705      1.9430109     -44420.682     -44082.515    
     19000   299.11369     -3420.7856      1.9366174     -44398.612     -44073.178    
     19100   320.94824     -10323.065      1.9139206     -44388.354     -44039.164    
     19200   329.59396     -1875.7816      1.9235699     -44397.229     -44038.632    
     19300   297.04822      6882.6056      1.9398916     -44392.724     -44069.537    
     19400   299.81314      12979.15       1.9449976     -44403.652     -44077.457    
     19500   304.33867      4709.3501      1.9436458     -44398.963     -44067.844    
     19600   316.98702      5663.0998      1.9290981     -44401.584     -44056.703    
     19700   307.36608      1514.3676      1.9210209     -44396.108     -44061.695    
     19800   287.75494     -10193.602      1.9265223     -44408.206     -44095.13     
     19900   292.78889      339.9962       1.9311631     -44418.586     -44100.033    
     20000   316.70793     -4847.6378      1.9158473     -44421.829     -44077.253    
     20100   304.42439     -200.03041      1.9236272     -44405.725     -44074.513    
     20200   298.17087      6046.3523      1.9301481     -44397.616     -44073.207    
     20300   308.06326      9662.0385      1.9210005     -44420.237     -44085.065    
     20400   281.77925      6765.4079      1.9224552     -44437.595     -44131.02     
     20500   287.28123     -4600.8876      1.9143214     -44434.232     -44121.671    
     20600   292.45029     -5728.6171      1.9155865     -44404.685     -44086.501    
     20700   302.84689      10828.138      1.9227504     -44394.946     -44065.449    
     20800   312.31807      8403.2384      1.9341273     -44396.815     -44057.014    
     20900   298.23853      6163.3425      1.9282876     -44393.117     -44068.635    
     21000   293.47867     -2982.6888      1.9145963     -44422.081     -44102.777    
     21100   285.61532     -4981.6158      1.9107648     -44413.686     -44102.938    
     21200   298.62047      12275.937      1.9256596     -44410.407     -44085.51     
     21300   299.15037      6181.8735      1.9398406     -44396.565     -44071.091    
     21400   303.32657     -4420.671       1.9095383     -44401.363     -44071.345    
     21500   292.94956     -1462.3579      1.9159188     -44398.719     -44079.992    
     21600   297.11382     -4317.7444      1.9069962     -44403.282     -44080.024    
     21700   299.16572      5030.0745      1.925846      -44402.326     -44076.835    
     21800   303.19451     -4280.7531      1.9176232     -44399.631     -44069.757    
     21900   291.85306      636.78197      1.9257955     -44390.071     -44072.536    
     22000   309.34101     -6541.3742      1.9047473     -44401.657     -44065.096    
Loop time of 947.467 on 1 procs for 5000 steps with 366 atoms

Performance: 0.228 ns/day, 105.274 hours/ns, 5.277 timesteps/s, 1.931 katom-step/s
57.5% CPU use with 1 MPI tasks x 1 OpenMP threads

MPI task timing breakdown:
Section |  min time  |  avg time  |  max time  |%varavg| %total
---------------------------------------------------------------
Pair    | 775.21     | 775.21     | 775.21     |   0.0 | 81.82
Bond    | 0.0011146  | 0.0011146  | 0.0011146  |   0.0 |  0.00
Neigh   | 67.301     | 67.301     | 67.301     |   0.0 |  7.10
Comm    | 0.56774    | 0.56774    | 0.56774    |   0.0 |  0.06
Output  | 0.064575   | 0.064575   | 0.064575   |   0.0 |  0.01
Modify  | 104.19     | 104.19     | 104.19     |   0.0 | 11.00
Other   |            | 0.1343     |            |       |  0.01

Nlocal:            366 ave         366 max         366 min
Histogram: 1 0 0 0 0 0 0 0 0 0
Nghost:           6268 ave        6268 max        6268 min
Histogram: 1 0 0 0 0 0 0 0 0 0
Neighs:         216426 ave      216426 max      216426 min
Histogram: 1 0 0 0 0 0 0 0 0 0

Total # of neighbors = 216426
Ave neighs/atom = 591.32787
Ave special neighs/atom = 0
Neighbor list builds = 500
Dangerous builds not checked
System init for write_data ...
Total wall time: 2:41:27
