LAMMPS (2 Aug 2023 - Update 2)
OMP_NUM_THREADS environment is not set. Defaulting to 1 thread. (src/comm.cpp:98)
  using 1 OpenMP thread(s) per MPI task
# Initialization
units           real
dimension       3
boundary        p p p
atom_style      full
timestep        0.5   # fs

# Define MD parameters
variable nevery equal 10                  # sampling interval
variable nrepeat equal 10                 # number of samples
variable nthermo equal ${nevery}*${nrepeat}           # interval for thermo output
variable nthermo equal 10*${nrepeat}           
variable nthermo equal 10*10           
variable nfreq equal ${nthermo} # length of one average
variable nfreq equal 100 
# 1 ps : 1e3 fs / 0.5 fs = 2e3 steps
variable nequil equal 30*${nthermo}       # steps of equilibration run 20
variable nequil equal 30*100       
variable nrun equal 30*${nthermo}          # stpes of equilibrated run 20
variable nrun equal 30*100          
variable temp equal 300.0                # temperature of initial sample
variable tdamp equal 50.0                 # time constant for thermostat
variable seed equal 123456                # seed for thermostat
variable ufac equal 1.01325e-4         # pressure unit conversion, from atm to Gpa
variable up equal 0.01                  # the deformation magnitude 2.0e-2

# Read the initial sctructure
# box tilt large
variable structure string 333U-50C-1-vasp
read_data       ${structure}.data
read_data       333U-50C-1-vasp.data
Reading data file ...
  triclinic box = (0 0 0) to (17.1722 13.1279 17.5867) with tilt (-8.382 0.0305 0.3027)
WARNING: Triclinic box skew is large. LAMMPS will run inefficiently. (src/domain.cpp:220)
  2 by 2 by 2 MPI processor grid
  reading atoms ...
  362 atoms
Finding 1-2 1-3 1-4 neighbors ...
  special bond factors lj:    0        0        0       
  special bond factors coul:  0        0        0       
     0 = max # of 1-2 neighbors
     0 = max # of 1-3 neighbors
     0 = max # of 1-4 neighbors
     1 = max # of special neighbors
  special bonds CPU = 0.001 seconds
  read_data CPU = 0.006 seconds

# Energy minimization
print "*****Minimization starts.*****"
*****Minimization starts.*****
minimize 1.0e-6 1.0e-6 100 1000
WARNING: No pairwise cutoff or binsize set. Atom sorting therefore disabled. (src/atom.cpp:2366)
WARNING: Communication cutoff is 0.0. No ghost atoms will be generated. Atoms may get lost. (src/comm_brick.cpp:210)
Per MPI rank memory allocation (min/avg/max) = 6.365 | 6.365 | 6.365 Mbytes
   Step          Temp          E_pair         E_mol          TotEng         Press     
         0   0              0              0              0              0            
         1   0              0              0              0              0            
Loop time of 4.97708e-05 on 8 procs for 1 steps with 362 atoms

53.0% CPU use with 8 MPI tasks x 1 OpenMP threads

Minimization stats:
  Stopping criterion = search direction is not downhill
  Energy initial, next-to-last, final = 
                     0                  0                  0
  Force two-norm initial, final = 0 0
  Force max component initial, final = 0 0
  Final line search alpha, max atom move = 0 0
  Iterations, force evaluations = 1 0

MPI task timing breakdown:
Section |  min time  |  avg time  |  max time  |%varavg| %total
---------------------------------------------------------------
Pair    | 0          | 0          | 0          |   0.0 |  0.00
Bond    | 1.606e-06  | 1.606e-06  | 1.606e-06  |   0.0 |  3.23
Neigh   | 0          | 0          | 0          |   0.0 |  0.00
Comm    | 4.121e-06  | 4.121e-06  | 4.121e-06  |   0.0 |  8.28
Output  | 0          | 0          | 0          |   0.0 |  0.00
Modify  | 0          | 0          | 0          |   0.0 |  0.00
Other   |            | 4.404e-05  |            |       | 88.49

Nlocal:          45.25 ave          51 max          37 min
Histogram: 1 0 0 1 1 1 0 2 1 1
Nghost:              0 ave           0 max           0 min
Histogram: 8 0 0 0 0 0 0 0 0 0
Neighs:              0 ave           0 max           0 min
Histogram: 8 0 0 0 0 0 0 0 0 0

Total # of neighbors = 0
Ave neighs/atom = 0
Ave special neighs/atom = 0
Neighbor list builds = 0
Dangerous builds = 0
min_style cg
# Save the optimized structure
write_data ${structure}_opt.data
write_data 333U-50C-1-vasp_opt.data
System init for write_data ...
WARNING: Communication cutoff is 0.0. No ghost atoms will be generated. Atoms may get lost. (src/comm_brick.cpp:210)
velocity        all create ${temp} ${seed} dist gaussian
velocity        all create 300 ${seed} dist gaussian
velocity        all create 300 123456 dist gaussian

# Equilibration
include ff.mod.lmp
# Setup forcefield, system
# undefine any fix ave/* fix before using reset_timestep
if "$(is_defined(fix,avgp))" then "unfix avgp"
reset_timestep 0

# Assign the force field
pair_style reaxff NULL safezone 3.0 mincap 150
# pair_coeff * * CHONSSi.ff O Si
# pair_coeff * * CHOSiNa.ff O Si
# pair_coeff * * SiOCHN_2018.ff O Si
# pair_coeff * * PDMSDecomp.ff Si O
pair_coeff * * CHONSi.ff C H O Si
# pair_coeff * * CHOFe.ff O Si

# charge method for reaxff
fix myqeq all qeq/reaxff 1 0.0 10.0 1.0e-6 reaxff maxiter 400
# Setup neighbor style
neighbor        2 bin
neigh_modify    every 10 delay 0 check no

# Setup output
fix avgp all ave/time  ${nevery} ${nrepeat} ${nfreq} c_thermo_press mode vector
fix avgp all ave/time  10 ${nrepeat} ${nfreq} c_thermo_press mode vector
fix avgp all ave/time  10 10 ${nfreq} c_thermo_press mode vector
fix avgp all ave/time  10 10 100 c_thermo_press mode vector
thermo		${nthermo}
thermo		100
thermo_style custom step temp pe press f_avgp[1] vol
thermo_modify norm no

# NVT
fix 4 all nvt temp ${temp} ${temp} ${tdamp}
fix 4 all nvt temp 300 ${temp} ${tdamp}
fix 4 all nvt temp 300 300 ${tdamp}
fix 4 all nvt temp 300 300 50
thermo_style custom step temp pe press f_avgp[1] density vol
WARNING: New thermo_style command, previous thermo_modify settings will be lost (src/output.cpp:903)
run ${nequil}
run 3000

CITE-CITE-CITE-CITE-CITE-CITE-CITE-CITE-CITE-CITE-CITE-CITE-CITE

Your simulation uses code contributions which should be cited:

- pair reaxff command: doi:10.1016/j.parco.2011.08.005

@Article{Aktulga12,
 author = {H. M. Aktulga and J. C. Fogarty and S. A. Pandit and A. Y. Grama},
 title = {Parallel Reactive Molecular Dynamics: {N}umerical Methods and Algorithmic Techniques},
 journal = {Parallel Computing},
 year =    2012,
 volume =  38,
 number =  {4--5},
 pages =   {245--259}
}

- fix qeq/reaxff command: doi:10.1016/j.parco.2011.08.005

@Article{Aktulga12,
 author = {H. M. Aktulga and J. C. Fogarty and S. A. Pandit and A. Y. Grama},
 title = {Parallel Reactive Molecular Dynamics: {N}umerical Methods and Algorithmic Techniques},
 journal = {Parallel Computing},
 year =    2012,
 volume =  38,
 pages =   {245--259}
}

CITE-CITE-CITE-CITE-CITE-CITE-CITE-CITE-CITE-CITE-CITE-CITE-CITE

WARNING: Fix qeq/reaxff group is not charge neutral, net charge = -7.38 (src/REAXFF/fix_qeq_reaxff.cpp:392)
Neighbor list info ...
  update: every = 10 steps, delay = 0 steps, check = no
  max neighbors/atom: 2000, page size: 100000
  master list distance cutoff = 12
  ghost atom cutoff = 12
  binsize = 6, bins = 5 3 3
  2 neighbor lists, perpetual/occasional/extra = 2 0 0
  (1) pair reaxff, perpetual
      attributes: half, newton off, ghost
      pair build: half/bin/newtoff/ghost
      stencil: full/ghost/bin/3d
      bin: standard
  (2) fix qeq/reaxff, perpetual, copy from (1)
      attributes: half, newton off
      pair build: copy
      stencil: none
      bin: none
Per MPI rank memory allocation (min/avg/max) = 129.5 | 130.8 | 131.9 Mbytes
   Step          Temp          PotEng         Press        f_avgp[1]       Density         Volume    
         0   300           -40664.228      99992.787      0              1.6616584      3964.6564    
       100   740.8413      -41529.586     -10865.282      4784.737       1.6616584      3964.6564    
       200   483.66151     -41655.737     -15689.13       973.40462      1.6616584      3964.6564    
       300   445.20455     -41908.367     -20086.048     -3990.9138      1.6616584      3964.6564    
       400   388.33782     -42054.271      11136.418      4379.5313      1.6616584      3964.6564    
       500   329.4184      -42142.088      1460.1216     -5161.8389      1.6616584      3964.6564    
       600   278.92129     -42178.288     -10564.38      -7488.1879      1.6616584      3964.6564    
       700   274.89052     -42217.21       1651.2021     -6254.7373      1.6616584      3964.6564    
       800   295.35122     -42234.634     -1371.6273     -2150.7416      1.6616584      3964.6564    
       900   308.63426     -42232.201     -4233.001      -966.30669      1.6616584      3964.6564    
      1000   306.87897     -42240.663     -9968.0073     -4106.2584      1.6616584      3964.6564    
      1100   301.70722     -42259.421     -3096.0581     -3747.5144      1.6616584      3964.6564    
      1200   301.75541     -42275.705     -31783.501     -4023.2574      1.6616584      3964.6564    
      1300   299.28222     -42282.522     -3771.6584     -5604.0143      1.6616584      3964.6564    
      1400   280.0515      -42257.507      2888.2296     -7893.1692      1.6616584      3964.6564    
      1500   307.35524     -42271.036      248.29954     -8829.5036      1.6616584      3964.6564    
      1600   313.16546     -42263.909      258.13097     -4703.7915      1.6616584      3964.6564    
      1700   314.2632      -42265.192      10465         -2918.7336      1.6616584      3964.6564    
      1800   295.97837     -42270.323     -2079.0797     -9203.4927      1.6616584      3964.6564    
      1900   286.24232     -42287.526     -3593.7428     -2414.1218      1.6616584      3964.6564    
      2000   282.68742     -42286.447     -9664.1942     -8817.8948      1.6616584      3964.6564    
      2100   294.16539     -42277.253      3492.2615     -2505.2865      1.6616584      3964.6564    
      2200   330.79624     -42297.306      1561.8081     -4744.8906      1.6616584      3964.6564    
      2300   316.43258     -42281.803     -3572.4911     -6313.6841      1.6616584      3964.6564    
      2400   312.45939     -42297.506      3447.6242     -9723.5796      1.6616584      3964.6564    
      2500   281.33349     -42289.628     -8198.8405     -12536.627      1.6616584      3964.6564    
      2600   275.7291      -42297.408     -8755.4062     -12257.392      1.6616584      3964.6564    
      2700   293.43592     -42311.035     -7631.5465     -3770.7434      1.6616584      3964.6564    
      2800   309.48118     -42314.11      -17299.58      -6613.8496      1.6616584      3964.6564    
      2900   317.13087     -42309.86      -5088.916      -5600.818       1.6616584      3964.6564    
      3000   291.54158     -42294.28      -1663.4264     -2940.0937      1.6616584      3964.6564    
Loop time of 149.525 on 8 procs for 3000 steps with 362 atoms

Performance: 0.867 ns/day, 27.690 hours/ns, 20.064 timesteps/s, 7.263 katom-step/s
98.8% CPU use with 8 MPI tasks x 1 OpenMP threads

MPI task timing breakdown:
Section |  min time  |  avg time  |  max time  |%varavg| %total
---------------------------------------------------------------
Pair    | 100.1      | 115.78     | 125.54     | 102.7 | 77.43
Bond    | 0.0086062  | 0.0090921  | 0.0099685  |   0.4 |  0.01
Neigh   | 7.5118     | 8.6298     | 9.4123     |  27.4 |  5.77
Comm    | 2.7469     | 12.521     | 28.198     | 312.2 |  8.37
Output  | 0.0016821  | 0.001878   | 0.0028201  |   0.8 |  0.00
Modify  | 11.723     | 12.512     | 13.636     |  22.9 |  8.37
Other   |            | 0.07575    |            |       |  0.05

Nlocal:          45.25 ave          49 max          43 min
Histogram: 3 1 0 0 0 1 2 0 0 1
Nghost:        3358.12 ave        3402 max        3317 min
Histogram: 1 1 0 1 1 2 0 0 1 1
Neighs:        28866.6 ave       31167 max       27316 min
Histogram: 3 0 1 0 0 1 2 0 0 1

Total # of neighbors = 230933
Ave neighs/atom = 637.93646
Ave special neighs/atom = 0
Neighbor list builds = 300
Dangerous builds not checked
# Save the optimized structure
write_data ${structure}_opt.data
write_data 333U-50C-1-vasp_opt.data
System init for write_data ...

# Save initial pressure, box size
variable pxx0 equal f_avgp[1]
variable pyy0 equal f_avgp[2]
variable pzz0 equal f_avgp[3]
variable pxy0 equal f_avgp[4]
variable pxz0 equal f_avgp[5]
variable pyz0 equal f_avgp[6]

# use tmp to save initial box length
variable tmp equal lx
variable lx0 equal ${tmp}
variable lx0 equal 17.1722
variable tmp equal ly
variable ly0 equal ${tmp}
variable ly0 equal 13.1279
variable tmp equal lz
variable lz0 equal ${tmp}
variable lz0 equal 17.5867

# define the derivatives, w.r.t. strain tensor
# Constants uses $, variables use v_
variable d1 equal -(v_pxx1-${pxx0})/(v_delta/v_len0)*${ufac}
variable d1 equal -(v_pxx1--2940.09372688555)/(v_delta/v_len0)*${ufac}
variable d1 equal -(v_pxx1--2940.09372688555)/(v_delta/v_len0)*0.000101325
variable d2 equal -(v_pyy1-${pyy0})/(v_delta/v_len0)*${ufac}
variable d2 equal -(v_pyy1--3177.13877775185)/(v_delta/v_len0)*${ufac}
variable d2 equal -(v_pyy1--3177.13877775185)/(v_delta/v_len0)*0.000101325
variable d3 equal -(v_pzz1-${pzz0})/(v_delta/v_len0)*${ufac}
variable d3 equal -(v_pzz1-2250.06600703549)/(v_delta/v_len0)*${ufac}
variable d3 equal -(v_pzz1-2250.06600703549)/(v_delta/v_len0)*0.000101325
variable d4 equal -(v_pyz1-${pyz0})/(v_delta/v_len0)*${ufac}*0.5
variable d4 equal -(v_pyz1-6574.99580513221)/(v_delta/v_len0)*${ufac}*0.5
variable d4 equal -(v_pyz1-6574.99580513221)/(v_delta/v_len0)*0.000101325*0.5
variable d5 equal -(v_pxz1-${pxz0})/(v_delta/v_len0)*${ufac}*0.5
variable d5 equal -(v_pxz1-880.810994912871)/(v_delta/v_len0)*${ufac}*0.5
variable d5 equal -(v_pxz1-880.810994912871)/(v_delta/v_len0)*0.000101325*0.5
variable d6 equal -(v_pxy1-${pxy0})/(v_delta/v_len0)*${ufac}*0.5
variable d6 equal -(v_pxy1-1496.35527502351)/(v_delta/v_len0)*${ufac}*0.5
variable d6 equal -(v_pxy1-1496.35527502351)/(v_delta/v_len0)*0.000101325*0.5

# Write restart
write_restart equil.res
System init for write_restart ...

# dir: direction
# uxx Perturbation
variable dir equal 1
include displace.mod.lmp
# Find which reference length to use
if "${dir} == 1" then    "variable len0 equal ${lx0}"
variable len0 equal ${lx0}
variable len0 equal 17.1722
if "${dir} == 2" then    "variable len0 equal ${ly0}"
if "${dir} == 3" then    "variable len0 equal ${lz0}"
if "${dir} == 4" then    "variable len0 equal ${lz0}"
if "${dir} == 5" then    "variable len0 equal ${lz0}"
if "${dir} == 6" then    "variable len0 equal ${ly0}"

# Reset box and simulation parameters
clear
OMP_NUM_THREADS environment is not set. Defaulting to 1 thread. (src/comm.cpp:98)
  using 1 OpenMP thread(s) per MPI task
# box tilt large
read_restart equil.res
Reading restart file ...
  restart file = 2 Aug 2023, LAMMPS = 2 Aug 2023
  restoring atom style full from restart
  triclinic box = (0 0 0) to (17.1722 13.1279 17.5867) with tilt (-8.382 0.0305 0.3027)
WARNING: Triclinic box skew is large. LAMMPS will run inefficiently. (src/domain.cpp:220)
  2 by 2 by 2 MPI processor grid
  pair style reaxff stores no restart info
  362 atoms
Finding 1-2 1-3 1-4 neighbors ...
  special bond factors lj:    0        0        0       
  special bond factors coul:  0        0        0       
     0 = max # of 1-2 neighbors
     0 = max # of 1-3 neighbors
     0 = max # of 1-4 neighbors
     1 = max # of special neighbors
  special bonds CPU = 0.000 seconds
  read_restart CPU = 0.003 seconds
print "*****Negative-change ${dir} starts.*****"
*****Negative-change 1 starts.*****
include ff.mod.lmp
# Setup forcefield, system
# undefine any fix ave/* fix before using reset_timestep
if "$(is_defined(fix,avgp))" then "unfix avgp"
reset_timestep 0

# Assign the force field
pair_style reaxff NULL safezone 3.0 mincap 150
# pair_coeff * * CHONSSi.ff O Si
# pair_coeff * * CHOSiNa.ff O Si
# pair_coeff * * SiOCHN_2018.ff O Si
# pair_coeff * * PDMSDecomp.ff Si O
pair_coeff * * CHONSi.ff C H O Si
# pair_coeff * * CHOFe.ff O Si

# charge method for reaxff
fix myqeq all qeq/reaxff 1 0.0 10.0 1.0e-6 reaxff maxiter 400
# Setup neighbor style
neighbor        2 bin
neigh_modify    every 10 delay 0 check no

# Setup output
fix avgp all ave/time  ${nevery} ${nrepeat} ${nfreq} c_thermo_press mode vector
fix avgp all ave/time  10 ${nrepeat} ${nfreq} c_thermo_press mode vector
fix avgp all ave/time  10 10 ${nfreq} c_thermo_press mode vector
fix avgp all ave/time  10 10 100 c_thermo_press mode vector
thermo		${nthermo}
thermo		100
thermo_style custom step temp pe press f_avgp[1] vol
thermo_modify norm no

# NVT
fix 4 all nvt temp ${temp} ${temp} ${tdamp}
fix 4 all nvt temp 300 ${temp} ${tdamp}
fix 4 all nvt temp 300 300 ${tdamp}
fix 4 all nvt temp 300 300 50
Resetting global fix info from restart file:
  fix style: nvt, fix ID: 4

# Negative deformation
variable delta equal -${up}*${len0}
variable delta equal -0.01*${len0}
variable delta equal -0.01*17.1722
variable deltaxy equal -${up}*xy
variable deltaxy equal -0.01*xy
variable deltaxz equal -${up}*xz
variable deltaxz equal -0.01*xz
variable deltayz equal -${up}*yz
variable deltayz equal -0.01*yz
if "${dir} == 1" then    "change_box all x delta 0 ${delta} xy delta ${deltaxy} xz delta ${deltaxz} remap units box"
change_box all x delta 0 ${delta} xy delta ${deltaxy} xz delta ${deltaxz} remap units box
change_box all x delta 0 -0.171722 xy delta ${deltaxy} xz delta ${deltaxz} remap units box
change_box all x delta 0 -0.171722 xy delta 0.08382 xz delta ${deltaxz} remap units box
change_box all x delta 0 -0.171722 xy delta 0.08382 xz delta -0.000305 remap units box
Changing box ...
WARNING: Triclinic box skew is large. LAMMPS will run inefficiently. (src/domain.cpp:220)
  triclinic box = (0 0 0) to (17.000478 13.1279 17.5867) with tilt (-8.382 0.0305 0.3027)
WARNING: Triclinic box skew is large. LAMMPS will run inefficiently. (src/domain.cpp:220)
  triclinic box = (0 0 0) to (17.000478 13.1279 17.5867) with tilt (-8.29818 0.0305 0.3027)
WARNING: Triclinic box skew is large. LAMMPS will run inefficiently. (src/domain.cpp:220)
  triclinic box = (0 0 0) to (17.000478 13.1279 17.5867) with tilt (-8.29818 0.030195 0.3027)
if "${dir} == 2" then    "change_box all y delta 0 ${delta} yz delta ${deltayz} remap units box"
if "${dir} == 3" then    "change_box all z delta 0 ${delta} remap units box"
if "${dir} == 4" then    "change_box all yz delta ${delta} remap units box"
if "${dir} == 5" then    "change_box all xz delta ${delta} remap units box"
if "${dir} == 6" then    "change_box all xy delta ${delta} remap units box"

# Run MD for Negative deformation
# save trajectory
dump dump_neg${dir} all custom ${nthermo} dump/neg_deform${dir}.lammpstrj id type x y z
dump dump_neg1 all custom ${nthermo} dump/neg_deform${dir}.lammpstrj id type x y z
dump dump_neg1 all custom 100 dump/neg_deform${dir}.lammpstrj id type x y z
dump dump_neg1 all custom 100 dump/neg_deform1.lammpstrj id type x y z
run ${nrun}
run 3000
All restart file global fix info was re-assigned
Neighbor list info ...
  update: every = 10 steps, delay = 0 steps, check = no
  max neighbors/atom: 2000, page size: 100000
  master list distance cutoff = 12
  ghost atom cutoff = 12
  binsize = 6, bins = 5 3 3
  2 neighbor lists, perpetual/occasional/extra = 2 0 0
  (1) pair reaxff, perpetual
      attributes: half, newton off, ghost
      pair build: half/bin/newtoff/ghost
      stencil: full/ghost/bin/3d
      bin: standard
  (2) fix qeq/reaxff, perpetual, copy from (1)
      attributes: half, newton off
      pair build: copy
      stencil: none
      bin: none
Per MPI rank memory allocation (min/avg/max) = 129.6 | 130.9 | 132.2 Mbytes
   Step          Temp          PotEng         Press        f_avgp[1]        Volume    
         0   291.54158     -42277.914      43551.551      0              3925.0098    
       100   294.82554     -42307.189     -6326.0697     -2671.5567      3925.0098    
       200   290.8959      -42321.569     -1560.4709     -4440.1189      3925.0098    
       300   275.09978     -42312.963     -13206.822     -7445.6567      3925.0098    
       400   308.09111     -42330.111     -1471.0622     -5443.9825      3925.0098    
       500   309.7638      -42315.284     -596.13949      627.4274       3925.0098    
       600   311.1617      -42311.197     -8175.2174     -3654.9448      3925.0098    
       700   302.45188     -42318.187     -3935.9861     -2653.3373      3925.0098    
       800   292.51774     -42340.111     -5173.4455     -2521.0231      3925.0098    
       900   292.98641     -42352.931     -8874.6424     -6452.147       3925.0098    
      1000   300.1409      -42346.745     -11634.872     -2814.1829      3925.0098    
      1100   313.69903     -42339.658     -11653.477     -4407.6682      3925.0098    
      1200   305.72514     -42315.957      12388.43      -973.3755       3925.0098    
      1300   309.13253     -42315.546     -1670.8402      1954.036       3925.0098    
      1400   306.50662     -42335.116     -11746.695     -8278.8664      3925.0098    
      1500   301.09162     -42355.072     -10339.082     -5219.6747      3925.0098    
      1600   287.67549     -42351.623     -6955.579      -6252.5883      3925.0098    
      1700   311.24094     -42363.85      -7594.6828     -5179.7768      3925.0098    
      1800   309.57445     -42330.216      9862.87       -3758.0746      3925.0098    
      1900   312.2821      -42331.261     -4614.6165     -4299.685       3925.0098    
      2000   302.26956     -42334.853      1558.5068     -1097.3114      3925.0098    
      2100   321.06324     -42362.115     -2196.7601     -3955.0846      3925.0098    
      2200   297.09936     -42341.523     -9049.1293     -6392.3887      3925.0098    
      2300   286.65952     -42331.282     -6645.5392     -2058.7169      3925.0098    
      2400   301.01658     -42335.224      5920.623      -1173.7074      3925.0098    
      2500   307.38131     -42319.945      8994.5382     -73.8529        3925.0098    
      2600   306.01647     -42308.819      7419.996      -5157.1609      3925.0098    
      2700   288.75466     -42307.23      -3455.9744      2000.1749      3925.0098    
      2800   297.83155     -42350.796      3034.7766      364.93468      3925.0098    
      2900   280.26238     -42335.209      4034.8323     -767.76055      3925.0098    
      3000   289.23088     -42333.688      2321.9127      1043.0428      3925.0098    
Loop time of 153.316 on 8 procs for 3000 steps with 362 atoms

Performance: 0.845 ns/day, 28.392 hours/ns, 19.567 timesteps/s, 7.083 katom-step/s
99.0% CPU use with 8 MPI tasks x 1 OpenMP threads

MPI task timing breakdown:
Section |  min time  |  avg time  |  max time  |%varavg| %total
---------------------------------------------------------------
Pair    | 102.15     | 118.05     | 128.4      | 102.1 | 77.00
Bond    | 0.0081368  | 0.0089495  | 0.0097834  |   0.5 |  0.01
Neigh   | 7.5616     | 8.7347     | 9.6138     |  27.6 |  5.70
Comm    | 3.1476     | 13.499     | 29.392     | 301.9 |  8.80
Output  | 0.0070487  | 0.010308   | 0.012086   |   1.9 |  0.01
Modify  | 12.069     | 12.939     | 14.112     |  22.7 |  8.44
Other   |            | 0.07588    |            |       |  0.05

Nlocal:          45.25 ave          50 max          39 min
Histogram: 1 0 2 1 0 0 0 1 0 3
Nghost:         3384.5 ave        3404 max        3364 min
Histogram: 2 0 0 1 0 1 1 1 0 2
Neighs:        29145.5 ave       32116 max       25364 min
Histogram: 1 0 2 1 0 0 1 0 0 3

Total # of neighbors = 233164
Ave neighs/atom = 644.09945
Ave special neighs/atom = 0
Neighbor list builds = 300
Dangerous builds not checked
undump dump_neg${dir}
undump dump_neg1

# Run equilibration
print "*****Equilibration neg${dir} starts.*****"
*****Equilibration neg1 starts.*****
include ff.mod.lmp
# Setup forcefield, system
# undefine any fix ave/* fix before using reset_timestep
if "$(is_defined(fix,avgp))" then "unfix avgp"
unfix avgp
reset_timestep 0

# Assign the force field
pair_style reaxff NULL safezone 3.0 mincap 150
# pair_coeff * * CHONSSi.ff O Si
# pair_coeff * * CHOSiNa.ff O Si
# pair_coeff * * SiOCHN_2018.ff O Si
# pair_coeff * * PDMSDecomp.ff Si O
pair_coeff * * CHONSi.ff C H O Si
# pair_coeff * * CHOFe.ff O Si

# charge method for reaxff
fix myqeq all qeq/reaxff 1 0.0 10.0 1.0e-6 reaxff maxiter 400
# Setup neighbor style
neighbor        2 bin
neigh_modify    every 10 delay 0 check no

# Setup output
fix avgp all ave/time  ${nevery} ${nrepeat} ${nfreq} c_thermo_press mode vector
fix avgp all ave/time  10 ${nrepeat} ${nfreq} c_thermo_press mode vector
fix avgp all ave/time  10 10 ${nfreq} c_thermo_press mode vector
fix avgp all ave/time  10 10 100 c_thermo_press mode vector
thermo		${nthermo}
thermo		100
thermo_style custom step temp pe press f_avgp[1] vol
WARNING: New thermo_style command, previous thermo_modify settings will be lost (src/output.cpp:903)
thermo_modify norm no

# NVT
fix 4 all nvt temp ${temp} ${temp} ${tdamp}
fix 4 all nvt temp 300 ${temp} ${tdamp}
fix 4 all nvt temp 300 300 ${tdamp}
fix 4 all nvt temp 300 300 50
run ${nequil}
run 3000
Neighbor list info ...
  update: every = 10 steps, delay = 0 steps, check = no
  max neighbors/atom: 2000, page size: 100000
  master list distance cutoff = 12
  ghost atom cutoff = 12
  binsize = 6, bins = 5 3 3
  2 neighbor lists, perpetual/occasional/extra = 2 0 0
  (1) pair reaxff, perpetual
      attributes: half, newton off, ghost
      pair build: half/bin/newtoff/ghost
      stencil: full/ghost/bin/3d
      bin: standard
  (2) fix qeq/reaxff, perpetual, copy from (1)
      attributes: half, newton off
      pair build: copy
      stencil: none
      bin: none
Per MPI rank memory allocation (min/avg/max) = 129.6 | 130.9 | 132.2 Mbytes
   Step          Temp          PotEng         Press        f_avgp[1]        Volume    
         0   289.23088     -42333.688      2321.859       0              3925.0098    
       100   297.66684     -42329.832      6874.4785      630.35687      3925.0098    
       200   314.65186     -42321.823      6275.4017     -4683.4591      3925.0098    
       300   321.37514     -42323.511      1827.544      -6646.1504      3925.0098    
       400   294.99564     -42336.927      9988.7025      168.20661      3925.0098    
       500   308.44242     -42364.35       1049.4598     -4927.2051      3925.0098    
       600   291.8897      -42341.151     -3908.0288     -1397.725       3925.0098    
       700   293.00602     -42315.837      2909.5803     -1823.6481      3925.0098    
       800   313.46206     -42320.803     -2546.5834      1306.7343      3925.0098    
       900   301.72519     -42317.835      7371.4474      699.77702      3925.0098    
      1000   289.80736     -42317.696     -1482.4864     -4458.3794      3925.0098    
      1100   306.42747     -42338.809      9155.5749     -759.01323      3925.0098    
      1200   302.38414     -42338.783      129.57668     -6257.011       3925.0098    
      1300   292.66226     -42327.64      -1745.9728     -5651.4397      3925.0098    
      1400   308.57069     -42346.544      11304.951      1608.1016      3925.0098    
      1500   296.50609     -42345.181      6898.4242     -2653.991       3925.0098    
      1600   292.16372     -42371.89       5410.3221     -259.8375       3925.0098    
      1700   277.91108     -42360.753      1871.6917      302.76338      3925.0098    
      1800   291.84489     -42355.917     -7186.3705     -3008.2675      3925.0098    
      1900   291.90537     -42343.249      2429.8603     -4009.2355      3925.0098    
      2000   279.7636      -42314.972      2852.635      -1986.2278      3925.0098    
      2100   326.30371     -42349.79      -6442.3504     -1746.4253      3925.0098    
      2200   309.62225     -42336.762     -8731.2453     -4035.2817      3925.0098    
      2300   295.04283     -42351.63      -4317.194       250.31265      3925.0098    
      2400   283.07343     -42347.537      7679.1414      1842.0243      3925.0098    
      2500   287.30761     -42333.151     -2134.6093      1398.0845      3925.0098    
      2600   323.41374     -42337.149     -11492.741     -3767.2185      3925.0098    
      2700   316.43628     -42338.145     -6328.9869     -1674.7532      3925.0098    
      2800   302.5729      -42350.195      6273.8038     -1527.8021      3925.0098    
      2900   288.81256     -42355.5        9307.6982      2458.6597      3925.0098    
      3000   300.94037     -42364.225      2624.9256      336.36207      3925.0098    
Loop time of 153.775 on 8 procs for 3000 steps with 362 atoms

Performance: 0.843 ns/day, 28.477 hours/ns, 19.509 timesteps/s, 7.062 katom-step/s
99.0% CPU use with 8 MPI tasks x 1 OpenMP threads

MPI task timing breakdown:
Section |  min time  |  avg time  |  max time  |%varavg| %total
---------------------------------------------------------------
Pair    | 100.28     | 121.12     | 129.96     |  98.1 | 78.77
Bond    | 0.0081575  | 0.0091238  | 0.0098096  |   0.6 |  0.01
Neigh   | 7.4608     | 8.9533     | 9.589      |  25.0 |  5.82
Comm    | 2.0724     | 10.913     | 31.751     | 326.9 |  7.10
Output  | 0.0013695  | 0.001606   | 0.0030455  |   1.4 |  0.00
Modify  | 12.068     | 12.698     | 14.195     |  21.0 |  8.26
Other   |            | 0.07659    |            |       |  0.05

Nlocal:          45.25 ave          49 max          41 min
Histogram: 1 0 1 1 0 2 1 0 0 2
Nghost:        3385.88 ave        3419 max        3360 min
Histogram: 2 1 0 1 1 1 0 0 0 2
Neighs:        29181.6 ave       31534 max       26441 min
Histogram: 1 0 1 0 2 1 1 0 0 2

Total # of neighbors = 233453
Ave neighs/atom = 644.89779
Ave special neighs/atom = 0
Neighbor list builds = 300
Dangerous builds not checked

# Obtain new stress tensor Negative deformation, convert index from LAMMPS to Voigt
variable pxx1 equal f_avgp[1]
variable pyy1 equal f_avgp[2]
variable pzz1 equal f_avgp[3]
variable pxy1 equal f_avgp[4]
variable pxz1 equal f_avgp[5]
variable pyz1 equal f_avgp[6]

# Compute elastic constant from pressure
# d1 = -[pxx1-pxx0]/[(]v_delta/v_len0] defined in input script
variable C1neg equal ${d1}
variable C1neg equal 33.1986883493756
variable C2neg equal ${d2}
variable C2neg equal 72.706027242816
variable C3neg equal ${d3}
variable C3neg equal 48.9882816795262
variable C4neg equal ${d4}
variable C4neg equal -14.955016167159
variable C5neg equal ${d5}
variable C5neg equal -9.46347166727684
variable C6neg equal ${d6}
variable C6neg equal -8.02672030816068

# Reset box and simulation parameters
clear
OMP_NUM_THREADS environment is not set. Defaulting to 1 thread. (src/comm.cpp:98)
  using 1 OpenMP thread(s) per MPI task
# box tilt large
read_restart equil.res
Reading restart file ...
  restart file = 2 Aug 2023, LAMMPS = 2 Aug 2023
  restoring atom style full from restart
  triclinic box = (0 0 0) to (17.1722 13.1279 17.5867) with tilt (-8.382 0.0305 0.3027)
WARNING: Triclinic box skew is large. LAMMPS will run inefficiently. (src/domain.cpp:220)
  2 by 2 by 2 MPI processor grid
  pair style reaxff stores no restart info
  362 atoms
Finding 1-2 1-3 1-4 neighbors ...
  special bond factors lj:    0        0        0       
  special bond factors coul:  0        0        0       
     0 = max # of 1-2 neighbors
     0 = max # of 1-3 neighbors
     0 = max # of 1-4 neighbors
     1 = max # of special neighbors
  special bonds CPU = 0.000 seconds
  read_restart CPU = 0.003 seconds
print "*****Positive-change ${dir} starts.*****"
*****Positive-change 1 starts.*****
include ff.mod.lmp
# Setup forcefield, system
# undefine any fix ave/* fix before using reset_timestep
if "$(is_defined(fix,avgp))" then "unfix avgp"
reset_timestep 0

# Assign the force field
pair_style reaxff NULL safezone 3.0 mincap 150
# pair_coeff * * CHONSSi.ff O Si
# pair_coeff * * CHOSiNa.ff O Si
# pair_coeff * * SiOCHN_2018.ff O Si
# pair_coeff * * PDMSDecomp.ff Si O
pair_coeff * * CHONSi.ff C H O Si
# pair_coeff * * CHOFe.ff O Si

# charge method for reaxff
fix myqeq all qeq/reaxff 1 0.0 10.0 1.0e-6 reaxff maxiter 400
# Setup neighbor style
neighbor        2 bin
neigh_modify    every 10 delay 0 check no

# Setup output
fix avgp all ave/time  ${nevery} ${nrepeat} ${nfreq} c_thermo_press mode vector
fix avgp all ave/time  10 ${nrepeat} ${nfreq} c_thermo_press mode vector
fix avgp all ave/time  10 10 ${nfreq} c_thermo_press mode vector
fix avgp all ave/time  10 10 100 c_thermo_press mode vector
thermo		${nthermo}
thermo		100
thermo_style custom step temp pe press f_avgp[1] vol
thermo_modify norm no

# NVT
fix 4 all nvt temp ${temp} ${temp} ${tdamp}
fix 4 all nvt temp 300 ${temp} ${tdamp}
fix 4 all nvt temp 300 300 ${tdamp}
fix 4 all nvt temp 300 300 50
Resetting global fix info from restart file:
  fix style: nvt, fix ID: 4

# Positive deformation
variable delta equal ${up}*${len0}
variable delta equal 0.01*${len0}
variable delta equal 0.01*17.1722
variable deltaxy equal ${up}*xy
variable deltaxy equal 0.01*xy
variable deltaxz equal ${up}*xz
variable deltaxz equal 0.01*xz
variable deltayz equal ${up}*yz
variable deltayz equal 0.01*yz
if "${dir} == 1" then    "change_box all x delta 0 ${delta} xy delta ${deltaxy} xz delta ${deltaxz} remap units box"
change_box all x delta 0 ${delta} xy delta ${deltaxy} xz delta ${deltaxz} remap units box
change_box all x delta 0 0.171722 xy delta ${deltaxy} xz delta ${deltaxz} remap units box
change_box all x delta 0 0.171722 xy delta -0.08382 xz delta ${deltaxz} remap units box
change_box all x delta 0 0.171722 xy delta -0.08382 xz delta 0.000305 remap units box
Changing box ...
WARNING: Triclinic box skew is large. LAMMPS will run inefficiently. (src/domain.cpp:220)
  triclinic box = (0 0 0) to (17.343922 13.1279 17.5867) with tilt (-8.382 0.0305 0.3027)
WARNING: Triclinic box skew is large. LAMMPS will run inefficiently. (src/domain.cpp:220)
  triclinic box = (0 0 0) to (17.343922 13.1279 17.5867) with tilt (-8.46582 0.0305 0.3027)
WARNING: Triclinic box skew is large. LAMMPS will run inefficiently. (src/domain.cpp:220)
  triclinic box = (0 0 0) to (17.343922 13.1279 17.5867) with tilt (-8.46582 0.030805 0.3027)
if "${dir} == 2" then    "change_box all y delta 0 ${delta} yz delta ${deltayz} remap units box"
if "${dir} == 3" then    "change_box all z delta 0 ${delta} remap units box"
if "${dir} == 4" then    "change_box all yz delta ${delta} remap units box"
if "${dir} == 5" then    "change_box all xz delta ${delta} remap units box"
if "${dir} == 6" then    "change_box all xy delta ${delta} remap units box"

# Run positive deformation MD
# save trajectory
dump dump_pos${dir} all custom ${nthermo} dump/pos_deform${dir}.lammpstrj id type x y z
dump dump_pos1 all custom ${nthermo} dump/pos_deform${dir}.lammpstrj id type x y z
dump dump_pos1 all custom 100 dump/pos_deform${dir}.lammpstrj id type x y z
dump dump_pos1 all custom 100 dump/pos_deform1.lammpstrj id type x y z
run ${nrun}
run 3000
All restart file global fix info was re-assigned
Neighbor list info ...
  update: every = 10 steps, delay = 0 steps, check = no
  max neighbors/atom: 2000, page size: 100000
  master list distance cutoff = 12
  ghost atom cutoff = 12
  binsize = 6, bins = 5 3 3
  2 neighbor lists, perpetual/occasional/extra = 2 0 0
  (1) pair reaxff, perpetual
      attributes: half, newton off, ghost
      pair build: half/bin/newtoff/ghost
      stencil: full/ghost/bin/3d
      bin: standard
  (2) fix qeq/reaxff, perpetual, copy from (1)
      attributes: half, newton off
      pair build: copy
      stencil: none
      bin: none
Per MPI rank memory allocation (min/avg/max) = 127.7 | 130.1 | 131.6 Mbytes
   Step          Temp          PotEng         Press        f_avgp[1]        Volume    
         0   291.54158     -42272.512     -45132.834      0              4004.3029    
       100   301.90596     -42304.475     -7201.6859     -13710.011      4004.3029    
       200   297.18176     -42309.923     -11718.1       -12241.78       4004.3029    
       300   288.4529      -42307.528     -7534.1499     -10803.903      4004.3029    
       400   292.97085     -42299.375     -119.42012     -10865.665      4004.3029    
       500   327.5652      -42322.453     -2099.5405     -11280.982      4004.3029    
       600   306.32825     -42302.275     -9532.6407     -5817.6278      4004.3029    
       700   315.09044     -42313.475     -9489.8968     -17668.878      4004.3029    
       800   296.63838     -42308.059     -4199.5744     -9551.896       4004.3029    
       900   291.79382     -42315.807     -8398.9413     -11937.756      4004.3029    
      1000   285.84764     -42311.084      2187.3939     -10238.149      4004.3029    
      1100   280.87763     -42290.761     -17831.729     -12499.243      4004.3029    
      1200   329.74629     -42316.414     -8667.381      -11939.936      4004.3029    
      1300   338.568       -42332.982     -1093.6423     -9302.8598      4004.3029    
      1400   302.31759     -42329.406     -8855.3594     -8297.4384      4004.3029    
      1500   283.7547      -42324.438     -12169.329     -12262.046      4004.3029    
      1600   283.69499     -42322.159     -8620.4977     -7181.7712      4004.3029    
      1700   297.45617     -42311.123     -11548.057     -12504.6        4004.3029    
      1800   315.30605     -42313.902     -5029.0021     -16639.113      4004.3029    
      1900   318.46425     -42331.169     -4882.3917     -11055.994      4004.3029    
      2000   308.44707     -42345.334     -7018.8658     -10189.681      4004.3029    
      2100   296.18468     -42335.615     -10665.16      -10208.408      4004.3029    
      2200   293.53251     -42327.695     -8217.0419     -10104.365      4004.3029    
      2300   295.2188      -42304.087     -3419.5329     -14618.142      4004.3029    
      2400   314.70647     -42311.128      1582.5619     -10010.559      4004.3029    
      2500   298.13269     -42304.941     -2948.1683     -9205.198       4004.3029    
      2600   296.59441     -42314.018     -4798.4188     -7875.5689      4004.3029    
      2700   304.83076     -42320.945     -12205.836     -8176.5333      4004.3029    
      2800   305.61477     -42319.815      6121.1068     -6939.6143      4004.3029    
      2900   299.7271      -42331.972     -10502.848     -13712.052      4004.3029    
      3000   290.12206     -42354.864      8312.1388     -10639.528      4004.3029    
Loop time of 148.285 on 8 procs for 3000 steps with 362 atoms

Performance: 0.874 ns/day, 27.460 hours/ns, 20.231 timesteps/s, 7.324 katom-step/s
99.0% CPU use with 8 MPI tasks x 1 OpenMP threads

MPI task timing breakdown:
Section |  min time  |  avg time  |  max time  |%varavg| %total
---------------------------------------------------------------
Pair    | 87.951     | 117.22     | 125.51     | 111.1 | 79.05
Bond    | 0.0083043  | 0.0091999  | 0.0098728  |   0.5 |  0.01
Neigh   | 6.7316     | 8.7924     | 9.4779     |  29.1 |  5.93
Comm    | 1.6443     | 9.9511     | 39.209     | 381.3 |  6.71
Output  | 0.0071605  | 0.0089917  | 0.010351   |   1.2 |  0.01
Modify  | 11.548     | 12.23      | 14.305     |  24.8 |  8.25
Other   |            | 0.07733    |            |       |  0.05

Nlocal:          45.25 ave          48 max          43 min
Histogram: 1 0 3 0 1 0 0 0 2 1
Nghost:           3334 ave        3380 max        3284 min
Histogram: 1 0 0 3 1 0 0 1 0 2
Neighs:        28542.5 ave       30259 max       26920 min
Histogram: 1 0 2 1 1 0 0 0 2 1

Total # of neighbors = 228340
Ave neighs/atom = 630.77348
Ave special neighs/atom = 0
Neighbor list builds = 300
Dangerous builds not checked
undump dump_pos${dir}
undump dump_pos1

# Run equilibration
print "*****Equilibration pos${dir} starts.*****"
*****Equilibration pos1 starts.*****
include ff.mod.lmp
# Setup forcefield, system
# undefine any fix ave/* fix before using reset_timestep
if "$(is_defined(fix,avgp))" then "unfix avgp"
unfix avgp
reset_timestep 0

# Assign the force field
pair_style reaxff NULL safezone 3.0 mincap 150
# pair_coeff * * CHONSSi.ff O Si
# pair_coeff * * CHOSiNa.ff O Si
# pair_coeff * * SiOCHN_2018.ff O Si
# pair_coeff * * PDMSDecomp.ff Si O
pair_coeff * * CHONSi.ff C H O Si
# pair_coeff * * CHOFe.ff O Si

# charge method for reaxff
fix myqeq all qeq/reaxff 1 0.0 10.0 1.0e-6 reaxff maxiter 400
# Setup neighbor style
neighbor        2 bin
neigh_modify    every 10 delay 0 check no

# Setup output
fix avgp all ave/time  ${nevery} ${nrepeat} ${nfreq} c_thermo_press mode vector
fix avgp all ave/time  10 ${nrepeat} ${nfreq} c_thermo_press mode vector
fix avgp all ave/time  10 10 ${nfreq} c_thermo_press mode vector
fix avgp all ave/time  10 10 100 c_thermo_press mode vector
thermo		${nthermo}
thermo		100
thermo_style custom step temp pe press f_avgp[1] vol
WARNING: New thermo_style command, previous thermo_modify settings will be lost (src/output.cpp:903)
thermo_modify norm no

# NVT
fix 4 all nvt temp ${temp} ${temp} ${tdamp}
fix 4 all nvt temp 300 ${temp} ${tdamp}
fix 4 all nvt temp 300 300 ${tdamp}
fix 4 all nvt temp 300 300 50
run ${nequil}
run 3000
Neighbor list info ...
  update: every = 10 steps, delay = 0 steps, check = no
  max neighbors/atom: 2000, page size: 100000
  master list distance cutoff = 12
  ghost atom cutoff = 12
  binsize = 6, bins = 5 3 3
  2 neighbor lists, perpetual/occasional/extra = 2 0 0
  (1) pair reaxff, perpetual
      attributes: half, newton off, ghost
      pair build: half/bin/newtoff/ghost
      stencil: full/ghost/bin/3d
      bin: standard
  (2) fix qeq/reaxff, perpetual, copy from (1)
      attributes: half, newton off
      pair build: copy
      stencil: none
      bin: none
Per MPI rank memory allocation (min/avg/max) = 127.7 | 129.8 | 131.6 Mbytes
   Step          Temp          PotEng         Press        f_avgp[1]        Volume    
         0   290.12206     -42354.864      8312.1876      0              4004.3029    
       100   293.22876     -42342.308      1163.3954     -9484.6451      4004.3029    
       200   299.2991      -42322.383     -19437.354     -12351.035      4004.3029    
       300   306.89228     -42326.666     -14302.371     -9776.2514      4004.3029    
       400   323.55371     -42354.933     -9536.1084     -13003.697      4004.3029    
       500   298.0114      -42347.324     -17954.807     -11810.645      4004.3029    
       600   300.19048     -42352.759      1001.5342     -5704.2625      4004.3029    
       700   307.24777     -42357.622     -45.160302     -15091.966      4004.3029    
       800   303.55156     -42334.693     -8674.3288     -8989.4761      4004.3029    
       900   306.64102     -42299.417     -1619.8509     -14871.545      4004.3029    
      1000   337.92244     -42341.531     -5650.0045     -9802.8637      4004.3029    
      1100   305.88663     -42340.021     -8646.8174     -4681.5174      4004.3029    
      1200   299.00349     -42348.306     -17534.268     -9263.7638      4004.3029    
      1300   307.8671      -42356.434     -6531.5535     -7662.1574      4004.3029    
      1400   321.31526     -42366.931     -10973.023     -13175.398      4004.3029    
      1500   306.40705     -42352.209     -8150.3694     -15369.699      4004.3029    
      1600   301.74278     -42352.691      1946.4454     -11845.48       4004.3029    
      1700   310.57475     -42368.831     -3772.3085     -8161.334       4004.3029    
      1800   296.97156     -42361.703      4607.9677     -9729.9241      4004.3029    
      1900   295.27287     -42347.863     -13225.902     -8242.5761      4004.3029    
      2000   314.54771     -42336.558     -5079.1712     -10527.866      4004.3029    
      2100   294.6189      -42325.144     -14575.012     -17288.356      4004.3029    
      2200   290.28739     -42336.567      4037.4029     -13451.84       4004.3029    
      2300   294.75561     -42360.452     -16959.305     -10181.721      4004.3029    
      2400   263.09563     -42357.663     -6981.5034     -8847.9814      4004.3029    
      2500   258.01836     -42372.284      2749.1365     -6495.926       4004.3029    
      2600   276.32208     -42357.409     -5578.5767     -10668.856      4004.3029    
      2700   307.89951     -42365.488     -7024.875      -13605.135      4004.3029    
      2800   320.61742     -42375.536     -1480.475      -13391.628      4004.3029    
      2900   318.70338     -42377.071     -5044.6969     -6203.2878      4004.3029    
      3000   294.50255     -42351.965     -17807.988     -11719.408      4004.3029    
Loop time of 149.447 on 8 procs for 3000 steps with 362 atoms

Performance: 0.867 ns/day, 27.675 hours/ns, 20.074 timesteps/s, 7.267 katom-step/s
99.1% CPU use with 8 MPI tasks x 1 OpenMP threads

MPI task timing breakdown:
Section |  min time  |  avg time  |  max time  |%varavg| %total
---------------------------------------------------------------
Pair    | 97.382     | 120.83     | 126.96     |  81.8 | 80.85
Bond    | 0.0082762  | 0.0092642  | 0.0099427  |   0.6 |  0.01
Neigh   | 7.3494     | 8.9472     | 9.4631     |  20.7 |  5.99
Comm    | 1.3732     | 7.5237     | 30.968     | 327.7 |  5.03
Output  | 0.0014409  | 0.0016418  | 0.0026568  |   1.0 |  0.00
Modify  | 11.552     | 12.062     | 13.668     |  17.8 |  8.07
Other   |            | 0.07631    |            |       |  0.05

Nlocal:          45.25 ave          49 max          40 min
Histogram: 1 0 1 0 1 1 1 0 2 1
Nghost:        3306.38 ave        3363 max        3251 min
Histogram: 1 0 1 3 0 0 1 0 0 2
Neighs:          28558 ave       30792 max       25230 min
Histogram: 1 0 1 0 1 1 0 1 1 2

Total # of neighbors = 228464
Ave neighs/atom = 631.11602
Ave special neighs/atom = 0
Neighbor list builds = 300
Dangerous builds not checked

# Obtain new stress tensor, convert index from LAMMPS to Voigt
variable pxx1 equal f_avgp[1]
variable pyy1 equal f_avgp[2]
variable pzz1 equal f_avgp[3]
variable pxy1 equal f_avgp[4]
variable pxz1 equal f_avgp[5]
variable pyz1 equal f_avgp[6]

# Compute elastic constant from pressure tensor
# d1 = -[pxx1-pxx0]/[(]v_delta/v_len0] defined in input script
variable C1pos equal ${d1}
variable C1pos equal 88.9563975965256
variable C2pos equal ${d2}
variable C2pos equal 135.014233916648
variable C3pos equal ${d3}
variable C3pos equal 29.8495815894431
variable C4pos equal ${d4}
variable C4pos equal 12.4605638301728
variable C5pos equal ${d5}
variable C5pos equal -21.7984813277555
variable C6pos equal ${d6}
variable C6pos equal 9.7031802866568

# Combine positive and negative
variable C1${dir} equal 0.5*(${C1neg}+${C1pos})
variable C11 equal 0.5*(${C1neg}+${C1pos})
variable C11 equal 0.5*(33.1986883493756+${C1pos})
variable C11 equal 0.5*(33.1986883493756+88.9563975965256)
variable C2${dir} equal 0.5*(${C2neg}+${C2pos})
variable C21 equal 0.5*(${C2neg}+${C2pos})
variable C21 equal 0.5*(72.706027242816+${C2pos})
variable C21 equal 0.5*(72.706027242816+135.014233916648)
variable C3${dir} equal 0.5*(${C3neg}+${C3pos})
variable C31 equal 0.5*(${C3neg}+${C3pos})
variable C31 equal 0.5*(48.9882816795262+${C3pos})
variable C31 equal 0.5*(48.9882816795262+29.8495815894431)
variable C4${dir} equal 0.5*(${C4neg}+${C4pos})
variable C41 equal 0.5*(${C4neg}+${C4pos})
variable C41 equal 0.5*(-14.955016167159+${C4pos})
variable C41 equal 0.5*(-14.955016167159+12.4605638301728)
variable C5${dir} equal 0.5*(${C5neg}+${C5pos})
variable C51 equal 0.5*(${C5neg}+${C5pos})
variable C51 equal 0.5*(-9.46347166727684+${C5pos})
variable C51 equal 0.5*(-9.46347166727684+-21.7984813277555)
variable C6${dir} equal 0.5*(${C6neg}+${C6pos})
variable C61 equal 0.5*(${C6neg}+${C6pos})
variable C61 equal 0.5*(-8.02672030816068+${C6pos})
variable C61 equal 0.5*(-8.02672030816068+9.7031802866568)

# Delete dir to make sure it is not reused
variable dir delete
# uyy Perturbation
variable dir equal 2
include displace.mod.lmp
# Find which reference length to use
if "${dir} == 1" then    "variable len0 equal ${lx0}"
if "${dir} == 2" then    "variable len0 equal ${ly0}"
variable len0 equal ${ly0}
variable len0 equal 13.1279
if "${dir} == 3" then    "variable len0 equal ${lz0}"
if "${dir} == 4" then    "variable len0 equal ${lz0}"
if "${dir} == 5" then    "variable len0 equal ${lz0}"
if "${dir} == 6" then    "variable len0 equal ${ly0}"

# Reset box and simulation parameters
clear
OMP_NUM_THREADS environment is not set. Defaulting to 1 thread. (src/comm.cpp:98)
  using 1 OpenMP thread(s) per MPI task
# box tilt large
read_restart equil.res
Reading restart file ...
  restart file = 2 Aug 2023, LAMMPS = 2 Aug 2023
  restoring atom style full from restart
  triclinic box = (0 0 0) to (17.1722 13.1279 17.5867) with tilt (-8.382 0.0305 0.3027)
WARNING: Triclinic box skew is large. LAMMPS will run inefficiently. (src/domain.cpp:220)
  2 by 2 by 2 MPI processor grid
  pair style reaxff stores no restart info
  362 atoms
Finding 1-2 1-3 1-4 neighbors ...
  special bond factors lj:    0        0        0       
  special bond factors coul:  0        0        0       
     0 = max # of 1-2 neighbors
     0 = max # of 1-3 neighbors
     0 = max # of 1-4 neighbors
     1 = max # of special neighbors
  special bonds CPU = 0.000 seconds
  read_restart CPU = 0.003 seconds
print "*****Negative-change ${dir} starts.*****"
*****Negative-change 2 starts.*****
include ff.mod.lmp
# Setup forcefield, system
# undefine any fix ave/* fix before using reset_timestep
if "$(is_defined(fix,avgp))" then "unfix avgp"
reset_timestep 0

# Assign the force field
pair_style reaxff NULL safezone 3.0 mincap 150
# pair_coeff * * CHONSSi.ff O Si
# pair_coeff * * CHOSiNa.ff O Si
# pair_coeff * * SiOCHN_2018.ff O Si
# pair_coeff * * PDMSDecomp.ff Si O
pair_coeff * * CHONSi.ff C H O Si
# pair_coeff * * CHOFe.ff O Si

# charge method for reaxff
fix myqeq all qeq/reaxff 1 0.0 10.0 1.0e-6 reaxff maxiter 400
# Setup neighbor style
neighbor        2 bin
neigh_modify    every 10 delay 0 check no

# Setup output
fix avgp all ave/time  ${nevery} ${nrepeat} ${nfreq} c_thermo_press mode vector
fix avgp all ave/time  10 ${nrepeat} ${nfreq} c_thermo_press mode vector
fix avgp all ave/time  10 10 ${nfreq} c_thermo_press mode vector
fix avgp all ave/time  10 10 100 c_thermo_press mode vector
thermo		${nthermo}
thermo		100
thermo_style custom step temp pe press f_avgp[1] vol
thermo_modify norm no

# NVT
fix 4 all nvt temp ${temp} ${temp} ${tdamp}
fix 4 all nvt temp 300 ${temp} ${tdamp}
fix 4 all nvt temp 300 300 ${tdamp}
fix 4 all nvt temp 300 300 50
Resetting global fix info from restart file:
  fix style: nvt, fix ID: 4

# Negative deformation
variable delta equal -${up}*${len0}
variable delta equal -0.01*${len0}
variable delta equal -0.01*13.1279
variable deltaxy equal -${up}*xy
variable deltaxy equal -0.01*xy
variable deltaxz equal -${up}*xz
variable deltaxz equal -0.01*xz
variable deltayz equal -${up}*yz
variable deltayz equal -0.01*yz
if "${dir} == 1" then    "change_box all x delta 0 ${delta} xy delta ${deltaxy} xz delta ${deltaxz} remap units box"
if "${dir} == 2" then    "change_box all y delta 0 ${delta} yz delta ${deltayz} remap units box"
change_box all y delta 0 ${delta} yz delta ${deltayz} remap units box
change_box all y delta 0 -0.131279 yz delta ${deltayz} remap units box
change_box all y delta 0 -0.131279 yz delta -0.003027 remap units box
Changing box ...
WARNING: Triclinic box skew is large. LAMMPS will run inefficiently. (src/domain.cpp:220)
  triclinic box = (0 0 0) to (17.1722 12.996621 17.5867) with tilt (-8.382 0.0305 0.3027)
WARNING: Triclinic box skew is large. LAMMPS will run inefficiently. (src/domain.cpp:220)
  triclinic box = (0 0 0) to (17.1722 12.996621 17.5867) with tilt (-8.382 0.0305 0.299673)
if "${dir} == 3" then    "change_box all z delta 0 ${delta} remap units box"
if "${dir} == 4" then    "change_box all yz delta ${delta} remap units box"
if "${dir} == 5" then    "change_box all xz delta ${delta} remap units box"
if "${dir} == 6" then    "change_box all xy delta ${delta} remap units box"

# Run MD for Negative deformation
# save trajectory
dump dump_neg${dir} all custom ${nthermo} dump/neg_deform${dir}.lammpstrj id type x y z
dump dump_neg2 all custom ${nthermo} dump/neg_deform${dir}.lammpstrj id type x y z
dump dump_neg2 all custom 100 dump/neg_deform${dir}.lammpstrj id type x y z
dump dump_neg2 all custom 100 dump/neg_deform2.lammpstrj id type x y z
run ${nrun}
run 3000
All restart file global fix info was re-assigned
Neighbor list info ...
  update: every = 10 steps, delay = 0 steps, check = no
  max neighbors/atom: 2000, page size: 100000
  master list distance cutoff = 12
  ghost atom cutoff = 12
  binsize = 6, bins = 5 3 3
  2 neighbor lists, perpetual/occasional/extra = 2 0 0
  (1) pair reaxff, perpetual
      attributes: half, newton off, ghost
      pair build: half/bin/newtoff/ghost
      stencil: full/ghost/bin/3d
      bin: standard
  (2) fix qeq/reaxff, perpetual, copy from (1)
      attributes: half, newton off
      pair build: copy
      stencil: none
      bin: none
Per MPI rank memory allocation (min/avg/max) = 130.5 | 131.4 | 132.3 Mbytes
   Step          Temp          PotEng         Press        f_avgp[1]        Volume    
         0   291.54158     -42280.533      39524.962      0              3925.0098    
       100   300.45085     -42314.143     -7097.0724     -7230.044       3925.0098    
       200   299.90016     -42328.803     -13563.271     -8354.2127      3925.0098    
       300   286.14284     -42316.149     -9766.0297     -10248.04       3925.0098    
       400   297.37735     -42300.823     -5638.8455     -6077.6139      3925.0098    
       500   324.33486     -42308.426     -4189.3137     -5828.7378      3925.0098    
       600   310.87679     -42294.355     -3826.5985     -7271.3926      3925.0098    
       700   307.15813     -42306.618     -2144.5311     -13270.998      3925.0098    
       800   269.84882     -42292.838     -13285.393     -1289.0845      3925.0098    
       900   308.28746     -42337.478      4471.9162     -3695.8724      3925.0098    
      1000   294.43165     -42319.483      315.759       -10180.964      3925.0098    
      1100   289.35218     -42302.754     -3323.2731     -43.508598      3925.0098    
      1200   296.4287      -42302.955      9887.877      -4803.1659      3925.0098    
      1300   320.03944     -42325.819     -1772.9335     -800.97352      3925.0098    
      1400   291.42381     -42306.962     -12302.247     -11092.045      3925.0098    
      1500   283.70564     -42317.164     -9665.8706     -9713.4172      3925.0098    
      1600   284.09375     -42323.836     -6730.4056     -5410.7379      3925.0098    
      1700   294.20928     -42321.45      -4258.1348     -2445.0071      3925.0098    
      1800   316.0259      -42320.289      973.05782     -9434.3181      3925.0098    
      1900   317.03091     -42320.388      10974.142      391.49167      3925.0098    
      2000   294.96241     -42336.154      8813.519      -5250.7065      3925.0098    
      2100   278.21753     -42324.649     -6712.1395     -8378.8094      3925.0098    
      2200   307.66009     -42342.833     -324.72462     -9017.9177      3925.0098    
      2300   319.67375     -42337.326      599.08698     -3215.604       3925.0098    
      2400   326.39299     -42323.451     -10670.123     -4462.4343      3925.0098    
      2500   342.53403     -42317.534     -565.04502     -1591.5282      3925.0098    
      2600   315.81035     -42307.954     -5307.6397     -9779.0841      3925.0098    
      2700   332.86035     -42360.678     -11392.795     -7134.778       3925.0098    
      2800   280.53543     -42323.656     -1221.9817     -2726.5744      3925.0098    
      2900   285.57061     -42333.061      2648.2593     -6004.6719      3925.0098    
      3000   297.79426     -42355.646     -6453.3083     -6445.2539      3925.0098    
Loop time of 156.833 on 8 procs for 3000 steps with 362 atoms

Performance: 0.826 ns/day, 29.043 hours/ns, 19.129 timesteps/s, 6.925 katom-step/s
98.6% CPU use with 8 MPI tasks x 1 OpenMP threads

MPI task timing breakdown:
Section |  min time  |  avg time  |  max time  |%varavg| %total
---------------------------------------------------------------
Pair    | 120.69     | 127.56     | 131.32     |  30.0 | 81.34
Bond    | 0.0084633  | 0.0093174  | 0.010082   |   0.5 |  0.01
Neigh   | 9.1406     | 9.4751     | 9.6925     |   5.3 |  6.04
Comm    | 2.8357     | 6.5488     | 13.384     | 131.4 |  4.18
Output  | 0.0067222  | 0.0090392  | 0.010434   |   1.4 |  0.01
Modify  | 12.888     | 13.146     | 13.507     |   5.1 |  8.38
Other   |            | 0.0803     |            |       |  0.05

Nlocal:          45.25 ave          49 max          43 min
Histogram: 3 1 0 0 0 1 2 0 0 1
Nghost:        3398.25 ave        3412 max        3384 min
Histogram: 1 1 0 1 1 1 0 2 0 1
Neighs:        29159.6 ave       31513 max       27604 min
Histogram: 3 1 0 0 0 1 2 0 0 1

Total # of neighbors = 233277
Ave neighs/atom = 644.4116
Ave special neighs/atom = 0
Neighbor list builds = 300
Dangerous builds not checked
undump dump_neg${dir}
undump dump_neg2

# Run equilibration
print "*****Equilibration neg${dir} starts.*****"
*****Equilibration neg2 starts.*****
include ff.mod.lmp
# Setup forcefield, system
# undefine any fix ave/* fix before using reset_timestep
if "$(is_defined(fix,avgp))" then "unfix avgp"
unfix avgp
reset_timestep 0

# Assign the force field
pair_style reaxff NULL safezone 3.0 mincap 150
# pair_coeff * * CHONSSi.ff O Si
# pair_coeff * * CHOSiNa.ff O Si
# pair_coeff * * SiOCHN_2018.ff O Si
# pair_coeff * * PDMSDecomp.ff Si O
pair_coeff * * CHONSi.ff C H O Si
# pair_coeff * * CHOFe.ff O Si

# charge method for reaxff
fix myqeq all qeq/reaxff 1 0.0 10.0 1.0e-6 reaxff maxiter 400
# Setup neighbor style
neighbor        2 bin
neigh_modify    every 10 delay 0 check no

# Setup output
fix avgp all ave/time  ${nevery} ${nrepeat} ${nfreq} c_thermo_press mode vector
fix avgp all ave/time  10 ${nrepeat} ${nfreq} c_thermo_press mode vector
fix avgp all ave/time  10 10 ${nfreq} c_thermo_press mode vector
fix avgp all ave/time  10 10 100 c_thermo_press mode vector
thermo		${nthermo}
thermo		100
thermo_style custom step temp pe press f_avgp[1] vol
WARNING: New thermo_style command, previous thermo_modify settings will be lost (src/output.cpp:903)
thermo_modify norm no

# NVT
fix 4 all nvt temp ${temp} ${temp} ${tdamp}
fix 4 all nvt temp 300 ${temp} ${tdamp}
fix 4 all nvt temp 300 300 ${tdamp}
fix 4 all nvt temp 300 300 50
run ${nequil}
run 3000
Neighbor list info ...
  update: every = 10 steps, delay = 0 steps, check = no
  max neighbors/atom: 2000, page size: 100000
  master list distance cutoff = 12
  ghost atom cutoff = 12
  binsize = 6, bins = 5 3 3
  2 neighbor lists, perpetual/occasional/extra = 2 0 0
  (1) pair reaxff, perpetual
      attributes: half, newton off, ghost
      pair build: half/bin/newtoff/ghost
      stencil: full/ghost/bin/3d
      bin: standard
  (2) fix qeq/reaxff, perpetual, copy from (1)
      attributes: half, newton off
      pair build: copy
      stencil: none
      bin: none
Per MPI rank memory allocation (min/avg/max) = 130.6 | 131.4 | 132.3 Mbytes
   Step          Temp          PotEng         Press        f_avgp[1]        Volume    
         0   297.79426     -42355.646     -6453.3353      0              3925.0098    
       100   284.79979     -42332.354     -4486.0939     -6353.654       3925.0098    
       200   308.47773     -42325.317     -8563.1321     -8509.9218      3925.0098    
       300   297.1994      -42311.18       307.41181     -11811.55       3925.0098    
       400   314.13955     -42340.007      476.55931     -4669.5517      3925.0098    
       500   293.68657     -42335.993      5663.3321     -2578.1096      3925.0098    
       600   298.16281     -42354.169      11094.367     -584.32166      3925.0098    
       700   275.21794     -42331.004      7537.7202     -7651.7228      3925.0098    
       800   292.49541     -42344.649     -20916.875     -9023.4275      3925.0098    
       900   316.29173     -42376.459      1816.7123     -3610.1263      3925.0098    
      1000   276.16436     -42333.828      2986.2366      1420.7232      3925.0098    
      1100   305.81722     -42351.336     -4437.3528     -5860.5056      3925.0098    
      1200   308.61869     -42314.745     -16894.486     -13728.577      3925.0098    
      1300   330.03147     -42325.416     -1279.4381     -4360.7144      3925.0098    
      1400   326.12387     -42349.31      -6422.3615     -1022.5809      3925.0098    
      1500   311.66269     -42352.723     -12632.062     -7549.5583      3925.0098    
      1600   306.7295      -42357.377      4536.5314     -2572.2628      3925.0098    
      1700   279.82658     -42339.922     -8005.1732     -12361.946      3925.0098    
      1800   279.27043     -42354.235     -10868.914     -6514.6027      3925.0098    
      1900   284.87529     -42365.87       3427.126      -8706.5798      3925.0098    
      2000   297.92661     -42353.549      2186.0959     -5343.375       3925.0098    
      2100   303.56234     -42335.166     -434.54277     -3913.0314      3925.0098    
      2200   314.13739     -42340.912      1740.6856     -6081.6874      3925.0098    
      2300   328.831       -42369.324     -2455.5819     -8255.516       3925.0098    
      2400   287.27051     -42352.712      17553.625     -117.21257      3925.0098    
      2500   269.5879      -42351.886     -4994.7384     -6549.6799      3925.0098    
      2600   269.29782     -42370.635      1453.7191     -2953.8918      3925.0098    
      2700   260.62356     -42338.416     -7170.2708     -9090.1394      3925.0098    
      2800   289.05215     -42335.934      5426.2302     -9417.9954      3925.0098    
      2900   293.86397     -42325.459     -265.76166     -5745.2762      3925.0098    
      3000   304.18796     -42334.688     -5515.7641     -11576.964      3925.0098    
Loop time of 155.083 on 8 procs for 3000 steps with 362 atoms

Performance: 0.836 ns/day, 28.719 hours/ns, 19.344 timesteps/s, 7.003 katom-step/s
98.7% CPU use with 8 MPI tasks x 1 OpenMP threads

MPI task timing breakdown:
Section |  min time  |  avg time  |  max time  |%varavg| %total
---------------------------------------------------------------
Pair    | 91.835     | 120.95     | 130.14     | 121.3 | 77.99
Bond    | 0.0084978  | 0.0091884  | 0.010129   |   0.5 |  0.01
Neigh   | 6.9791     | 9.0303     | 9.6212     |  31.0 |  5.82
Comm    | 2.4029     | 11.703     | 40.724     | 389.5 |  7.55
Output  | 0.0013913  | 0.0016991  | 0.0035784  |   1.7 |  0.00
Modify  | 12.62      | 13.311     | 15.461     |  26.2 |  8.58
Other   |            | 0.07905    |            |       |  0.05

Nlocal:          45.25 ave          52 max          39 min
Histogram: 1 0 0 3 1 1 0 0 1 1
Nghost:        3366.88 ave        3432 max        3310 min
Histogram: 1 1 1 0 2 1 0 0 1 1
Neighs:        29161.5 ave       33463 max       25403 min
Histogram: 1 0 1 2 1 1 0 0 1 1

Total # of neighbors = 233292
Ave neighs/atom = 644.45304
Ave special neighs/atom = 0
Neighbor list builds = 300
Dangerous builds not checked

# Obtain new stress tensor Negative deformation, convert index from LAMMPS to Voigt
variable pxx1 equal f_avgp[1]
variable pyy1 equal f_avgp[2]
variable pzz1 equal f_avgp[3]
variable pxy1 equal f_avgp[4]
variable pxz1 equal f_avgp[5]
variable pyz1 equal f_avgp[6]

# Compute elastic constant from pressure
# d1 = -[pxx1-pxx0]/[(]v_delta/v_len0] defined in input script
variable C1neg equal ${d1}
variable C1neg equal -87.5130901968593
variable C2neg equal ${d2}
variable C2neg equal -4.36249083442998
variable C3neg equal ${d3}
variable C3neg equal -24.8266870600021
variable C4neg equal ${d4}
variable C4neg equal -13.8541220713322
variable C5neg equal ${d5}
variable C5neg equal 3.68303556592585
variable C6neg equal ${d6}
variable C6neg equal -17.6761759482473

# Reset box and simulation parameters
clear
OMP_NUM_THREADS environment is not set. Defaulting to 1 thread. (src/comm.cpp:98)
  using 1 OpenMP thread(s) per MPI task
# box tilt large
read_restart equil.res
Reading restart file ...
  restart file = 2 Aug 2023, LAMMPS = 2 Aug 2023
  restoring atom style full from restart
  triclinic box = (0 0 0) to (17.1722 13.1279 17.5867) with tilt (-8.382 0.0305 0.3027)
WARNING: Triclinic box skew is large. LAMMPS will run inefficiently. (src/domain.cpp:220)
  2 by 2 by 2 MPI processor grid
  pair style reaxff stores no restart info
  362 atoms
Finding 1-2 1-3 1-4 neighbors ...
  special bond factors lj:    0        0        0       
  special bond factors coul:  0        0        0       
     0 = max # of 1-2 neighbors
     0 = max # of 1-3 neighbors
     0 = max # of 1-4 neighbors
     1 = max # of special neighbors
  special bonds CPU = 0.000 seconds
  read_restart CPU = 0.003 seconds
print "*****Positive-change ${dir} starts.*****"
*****Positive-change 2 starts.*****
include ff.mod.lmp
# Setup forcefield, system
# undefine any fix ave/* fix before using reset_timestep
if "$(is_defined(fix,avgp))" then "unfix avgp"
reset_timestep 0

# Assign the force field
pair_style reaxff NULL safezone 3.0 mincap 150
# pair_coeff * * CHONSSi.ff O Si
# pair_coeff * * CHOSiNa.ff O Si
# pair_coeff * * SiOCHN_2018.ff O Si
# pair_coeff * * PDMSDecomp.ff Si O
pair_coeff * * CHONSi.ff C H O Si
# pair_coeff * * CHOFe.ff O Si

# charge method for reaxff
fix myqeq all qeq/reaxff 1 0.0 10.0 1.0e-6 reaxff maxiter 400
# Setup neighbor style
neighbor        2 bin
neigh_modify    every 10 delay 0 check no

# Setup output
fix avgp all ave/time  ${nevery} ${nrepeat} ${nfreq} c_thermo_press mode vector
fix avgp all ave/time  10 ${nrepeat} ${nfreq} c_thermo_press mode vector
fix avgp all ave/time  10 10 ${nfreq} c_thermo_press mode vector
fix avgp all ave/time  10 10 100 c_thermo_press mode vector
thermo		${nthermo}
thermo		100
thermo_style custom step temp pe press f_avgp[1] vol
thermo_modify norm no

# NVT
fix 4 all nvt temp ${temp} ${temp} ${tdamp}
fix 4 all nvt temp 300 ${temp} ${tdamp}
fix 4 all nvt temp 300 300 ${tdamp}
fix 4 all nvt temp 300 300 50
Resetting global fix info from restart file:
  fix style: nvt, fix ID: 4

# Positive deformation
variable delta equal ${up}*${len0}
variable delta equal 0.01*${len0}
variable delta equal 0.01*13.1279
variable deltaxy equal ${up}*xy
variable deltaxy equal 0.01*xy
variable deltaxz equal ${up}*xz
variable deltaxz equal 0.01*xz
variable deltayz equal ${up}*yz
variable deltayz equal 0.01*yz
if "${dir} == 1" then    "change_box all x delta 0 ${delta} xy delta ${deltaxy} xz delta ${deltaxz} remap units box"
if "${dir} == 2" then    "change_box all y delta 0 ${delta} yz delta ${deltayz} remap units box"
change_box all y delta 0 ${delta} yz delta ${deltayz} remap units box
change_box all y delta 0 0.131279 yz delta ${deltayz} remap units box
change_box all y delta 0 0.131279 yz delta 0.003027 remap units box
Changing box ...
WARNING: Triclinic box skew is large. LAMMPS will run inefficiently. (src/domain.cpp:220)
  triclinic box = (0 0 0) to (17.1722 13.259179 17.5867) with tilt (-8.382 0.0305 0.3027)
WARNING: Triclinic box skew is large. LAMMPS will run inefficiently. (src/domain.cpp:220)
  triclinic box = (0 0 0) to (17.1722 13.259179 17.5867) with tilt (-8.382 0.0305 0.305727)
if "${dir} == 3" then    "change_box all z delta 0 ${delta} remap units box"
if "${dir} == 4" then    "change_box all yz delta ${delta} remap units box"
if "${dir} == 5" then    "change_box all xz delta ${delta} remap units box"
if "${dir} == 6" then    "change_box all xy delta ${delta} remap units box"

# Run positive deformation MD
# save trajectory
dump dump_pos${dir} all custom ${nthermo} dump/pos_deform${dir}.lammpstrj id type x y z
dump dump_pos2 all custom ${nthermo} dump/pos_deform${dir}.lammpstrj id type x y z
dump dump_pos2 all custom 100 dump/pos_deform${dir}.lammpstrj id type x y z
dump dump_pos2 all custom 100 dump/pos_deform2.lammpstrj id type x y z
run ${nrun}
run 3000
All restart file global fix info was re-assigned
Neighbor list info ...
  update: every = 10 steps, delay = 0 steps, check = no
  max neighbors/atom: 2000, page size: 100000
  master list distance cutoff = 12
  ghost atom cutoff = 12
  binsize = 6, bins = 5 3 3
  2 neighbor lists, perpetual/occasional/extra = 2 0 0
  (1) pair reaxff, perpetual
      attributes: half, newton off, ghost
      pair build: half/bin/newtoff/ghost
      stencil: full/ghost/bin/3d
      bin: standard
  (2) fix qeq/reaxff, perpetual, copy from (1)
      attributes: half, newton off
      pair build: copy
      stencil: none
      bin: none
Per MPI rank memory allocation (min/avg/max) = 127.1 | 129.3 | 131.1 Mbytes
   Step          Temp          PotEng         Press        f_avgp[1]        Volume    
         0   291.54158     -42276.757     -39702.901      0              4004.3029    
       100   296.3702      -42301.161     -2478.4087     -8563.5536      4004.3029    
       200   300.88053     -42313.905     -4118.5404     -11037.146      4004.3029    
       300   286.05785     -42301.951     -17180.265     -13350.72       4004.3029    
       400   305.61695     -42307.394     -12486.618     -12636.356      4004.3029    
       500   293.08498     -42279.799      1288.9098     -10363.835      4004.3029    
       600   314.62657     -42300.698     -4017.1905     -7402.0994      4004.3029    
       700   323.09899     -42323.092     -10062.034     -10522.634      4004.3029    
       800   294.42597     -42326.403     -1938.285      -4484.0711      4004.3029    
       900   283.79472     -42334.962     -15071.568     -10031.333      4004.3029    
      1000   313.9135      -42364.596     -10443.92      -6618.4283      4004.3029    
      1100   298.06878     -42336.044      1292.3722     -7306.499       4004.3029    
      1200   313.51621     -42343.778     -4742.5368     -10480.434      4004.3029    
      1300   299.36302     -42319.698     -4192.6272     -2749.6797      4004.3029    
      1400   293.55943     -42318.056     -3667.0471     -7901.8469      4004.3029    
      1500   298.18998     -42337.772     -3213.4249     -8721.9004      4004.3029    
      1600   288.29093     -42342.287      13164.701     -4075.1455      4004.3029    
      1700   287.91715     -42340.236     -3525.1074     -7831.5027      4004.3029    
      1800   313.13212     -42333.804     -4205.0492     -6910.77        4004.3029    
      1900   317.91191     -42330.937      1042.4494     -8897.0787      4004.3029    
      2000   299.40888     -42316.244     -4458.3145     -8834.4941      4004.3029    
      2100   307.73002     -42346.37      -937.75842      4286.9642      4004.3029    
      2200   291.32069     -42361.898     -11445.898     -7670.7996      4004.3029    
      2300   287.69212     -42353.293     -5530.1586     -11476.038      4004.3029    
      2400   282.74958     -42327.594      6377.2477     -4939.9321      4004.3029    
      2500   299.93405     -42329.907      9211.5234     -2069.2261      4004.3029    
      2600   301.88497     -42341.571     -8242.7755     -3836.9665      4004.3029    
      2700   294.52247     -42368.474     -10662.183     -4617.2527      4004.3029    
      2800   288.30361     -42366.11      -6582.7316     -3958.7392      4004.3029    
      2900   293.18556     -42366.633      2557.9135     -2339.0508      4004.3029    
      3000   299.03393     -42355.378      5387.7257     -5215.737       4004.3029    
Loop time of 149.798 on 8 procs for 3000 steps with 362 atoms

Performance: 0.865 ns/day, 27.740 hours/ns, 20.027 timesteps/s, 7.250 katom-step/s
98.9% CPU use with 8 MPI tasks x 1 OpenMP threads

MPI task timing breakdown:
Section |  min time  |  avg time  |  max time  |%varavg| %total
---------------------------------------------------------------
Pair    | 88.079     | 120.18     | 126.39     | 111.0 | 80.23
Bond    | 0.0085008  | 0.0090598  | 0.010011   |   0.4 |  0.01
Neigh   | 6.7279     | 8.9231     | 9.4344     |  28.0 |  5.96
Comm    | 2.0636     | 8.2702     | 40.362     | 422.9 |  5.52
Output  | 0.0078729  | 0.0098381  | 0.011217   |   1.2 |  0.01
Modify  | 11.82      | 12.328     | 14.54      |  24.0 |  8.23
Other   |            | 0.07599    |            |       |  0.05

Nlocal:          45.25 ave          52 max          40 min
Histogram: 2 0 1 0 2 1 0 0 1 1
Nghost:        3312.25 ave        3365 max        3286 min
Histogram: 3 1 1 0 0 1 0 1 0 1
Neighs:        28559.4 ave       32686 max       25227 min
Histogram: 2 0 1 0 2 1 0 0 1 1

Total # of neighbors = 228475
Ave neighs/atom = 631.14641
Ave special neighs/atom = 0
Neighbor list builds = 300
Dangerous builds not checked
undump dump_pos${dir}
undump dump_pos2

# Run equilibration
print "*****Equilibration pos${dir} starts.*****"
*****Equilibration pos2 starts.*****
include ff.mod.lmp
# Setup forcefield, system
# undefine any fix ave/* fix before using reset_timestep
if "$(is_defined(fix,avgp))" then "unfix avgp"
unfix avgp
reset_timestep 0

# Assign the force field
pair_style reaxff NULL safezone 3.0 mincap 150
# pair_coeff * * CHONSSi.ff O Si
# pair_coeff * * CHOSiNa.ff O Si
# pair_coeff * * SiOCHN_2018.ff O Si
# pair_coeff * * PDMSDecomp.ff Si O
pair_coeff * * CHONSi.ff C H O Si
# pair_coeff * * CHOFe.ff O Si

# charge method for reaxff
fix myqeq all qeq/reaxff 1 0.0 10.0 1.0e-6 reaxff maxiter 400
# Setup neighbor style
neighbor        2 bin
neigh_modify    every 10 delay 0 check no

# Setup output
fix avgp all ave/time  ${nevery} ${nrepeat} ${nfreq} c_thermo_press mode vector
fix avgp all ave/time  10 ${nrepeat} ${nfreq} c_thermo_press mode vector
fix avgp all ave/time  10 10 ${nfreq} c_thermo_press mode vector
fix avgp all ave/time  10 10 100 c_thermo_press mode vector
thermo		${nthermo}
thermo		100
thermo_style custom step temp pe press f_avgp[1] vol
WARNING: New thermo_style command, previous thermo_modify settings will be lost (src/output.cpp:903)
thermo_modify norm no

# NVT
fix 4 all nvt temp ${temp} ${temp} ${tdamp}
fix 4 all nvt temp 300 ${temp} ${tdamp}
fix 4 all nvt temp 300 300 ${tdamp}
fix 4 all nvt temp 300 300 50
run ${nequil}
run 3000
Neighbor list info ...
  update: every = 10 steps, delay = 0 steps, check = no
  max neighbors/atom: 2000, page size: 100000
  master list distance cutoff = 12
  ghost atom cutoff = 12
  binsize = 6, bins = 5 3 3
  2 neighbor lists, perpetual/occasional/extra = 2 0 0
  (1) pair reaxff, perpetual
      attributes: half, newton off, ghost
      pair build: half/bin/newtoff/ghost
      stencil: full/ghost/bin/3d
      bin: standard
  (2) fix qeq/reaxff, perpetual, copy from (1)
      attributes: half, newton off
      pair build: copy
      stencil: none
      bin: none
Per MPI rank memory allocation (min/avg/max) = 127.1 | 129 | 131.1 Mbytes
   Step          Temp          PotEng         Press        f_avgp[1]        Volume    
         0   299.03393     -42355.378      5387.7398      0              4004.3029    
       100   303.18821     -42359.727     -12269.869     -5583.3828      4004.3029    
       200   289.4759      -42345.435      2726.3361     -8233.9908      4004.3029    
       300   283.76054     -42338.413     -146.88058     -6688.4282      4004.3029    
       400   303.91455     -42356.068     -789.89545     -2908.263       4004.3029    
       500   312.26823     -42353.412     -6823.6427     -5547.4968      4004.3029    
       600   300.19834     -42346.935     -6752.0461     -9702.7835      4004.3029    
       700   291.12026     -42360.152      12501.949     -2515.8529      4004.3029    
       800   295.31057     -42377.933      5690.9232     -6706.8379      4004.3029    
       900   308.61098     -42368.866      3951.5117     -5682.2738      4004.3029    
      1000   346.00631     -42381.824      8668.4372     -1776.8561      4004.3029    
      1100   292.3228      -42329.196     -8729.6696     -6930.2261      4004.3029    
      1200   291.32632     -42338.106     -5785.2824     -7206.4928      4004.3029    
      1300   276.12601     -42343.587     -7291.5819     -9830.416       4004.3029    
      1400   290.77824     -42373.54      -1884.9007     -4766.1003      4004.3029    
      1500   285.14246     -42351.602     -7135.6869     -7549.5766      4004.3029    
      1600   307.09406     -42343.5        3460.359      -7628.546       4004.3029    
      1700   315.5238      -42352.403     -5088.4811     -8454.7692      4004.3029    
      1800   294.99405     -42355.714      5303.6096     -481.73344      4004.3029    
      1900   281.63094     -42352.088      244.9931       599.10101      4004.3029    
      2000   294.08586     -42360.743     -1841.9355     -4733.4667      4004.3029    
      2100   304.40724     -42367.202     -13596.211     -7937.5393      4004.3029    
      2200   280.43156     -42348.427     -5470.3286     -9832.6112      4004.3029    
      2300   285.20502     -42377.291     -4959.5357     -6666.0136      4004.3029    
      2400   298.04118     -42413.683     -5276.9099     -5103.9891      4004.3029    
      2500   287.52393     -42391.843     -5319.3792     -4131.1649      4004.3029    
      2600   298.77891     -42372.339     -8190.983      -8775.6033      4004.3029    
      2700   303.63032     -42366.376     -2993.7228     -12830.945      4004.3029    
      2800   309.61031     -42377.356     -404.81431     -6436.3126      4004.3029    
      2900   299.44957     -42389.806     -9636.9235     -5884.5916      4004.3029    
      3000   286.10536     -42380.202     -5787.6616     -8798.9609      4004.3029    
Loop time of 149.688 on 8 procs for 3000 steps with 362 atoms

Performance: 0.866 ns/day, 27.720 hours/ns, 20.042 timesteps/s, 7.255 katom-step/s
98.9% CPU use with 8 MPI tasks x 1 OpenMP threads

MPI task timing breakdown:
Section |  min time  |  avg time  |  max time  |%varavg| %total
---------------------------------------------------------------
Pair    | 87.718     | 120.33     | 126.37     | 112.6 | 80.39
Bond    | 0.0085222  | 0.0089852  | 0.0097161  |   0.4 |  0.01
Neigh   | 6.7241     | 8.9251     | 9.3879     |  28.0 |  5.96
Comm    | 2.0139     | 8.0508     | 40.656     | 435.1 |  5.38
Output  | 0.0013733  | 0.0015861  | 0.0025853  |   1.0 |  0.00
Modify  | 11.835     | 12.294     | 14.512     |  24.0 |  8.21
Other   |            | 0.07703    |            |       |  0.05

Nlocal:          45.25 ave          50 max          40 min
Histogram: 1 0 1 1 0 1 0 2 1 1
Nghost:        3302.88 ave        3316 max        3292 min
Histogram: 1 0 1 2 1 1 1 0 0 1
Neighs:        28557.6 ave       31472 max       25280 min
Histogram: 1 1 0 1 0 1 0 3 0 1

Total # of neighbors = 228461
Ave neighs/atom = 631.10773
Ave special neighs/atom = 0
Neighbor list builds = 300
Dangerous builds not checked

# Obtain new stress tensor, convert index from LAMMPS to Voigt
variable pxx1 equal f_avgp[1]
variable pyy1 equal f_avgp[2]
variable pzz1 equal f_avgp[3]
variable pxy1 equal f_avgp[4]
variable pxz1 equal f_avgp[5]
variable pyz1 equal f_avgp[6]

# Compute elastic constant from pressure tensor
# d1 = -[pxx1-pxx0]/[(]v_delta/v_len0] defined in input script
variable C1pos equal ${d1}
variable C1pos equal 59.364971917143
variable C2pos equal ${d2}
variable C2pos equal 36.170011389899
variable C3pos equal ${d3}
variable C3pos equal -25.6229615824814
variable C4pos equal ${d4}
variable C4pos equal 11.8597972291224
variable C5pos equal ${d5}
variable C5pos equal -8.84869667697723
variable C6pos equal ${d6}
variable C6pos equal 4.33300319433013

# Combine positive and negative
variable C1${dir} equal 0.5*(${C1neg}+${C1pos})
variable C12 equal 0.5*(${C1neg}+${C1pos})
variable C12 equal 0.5*(-87.5130901968593+${C1pos})
variable C12 equal 0.5*(-87.5130901968593+59.364971917143)
variable C2${dir} equal 0.5*(${C2neg}+${C2pos})
variable C22 equal 0.5*(${C2neg}+${C2pos})
[...]

# Reset box and simulation parameters
clear
OMP_NUM_THREADS environment is not set. Defaulting to 1 thread. (src/comm.cpp:98)
  using 1 OpenMP thread(s) per MPI task
# box tilt large
read_restart equil.res
Reading restart file ...
  restart file = 2 Aug 2023, LAMMPS = 2 Aug 2023
  restoring atom style full from restart
  triclinic box = (0 0 0) to (17.1722 13.1279 17.5867) with tilt (-8.382 0.0305 0.3027)
WARNING: Triclinic box skew is large. LAMMPS will run inefficiently. (src/domain.cpp:220)
  2 by 2 by 2 MPI processor grid
  pair style reaxff stores no restart info
  362 atoms
Finding 1-2 1-3 1-4 neighbors ...
  special bond factors lj:    0        0        0       
  special bond factors coul:  0        0        0       
     0 = max # of 1-2 neighbors
     0 = max # of 1-3 neighbors
     0 = max # of 1-4 neighbors
     1 = max # of special neighbors
  special bonds CPU = 0.000 seconds
  read_restart CPU = 0.003 seconds
print "*****Positive-change ${dir} starts.*****"
*****Positive-change 6 starts.*****
include ff.mod.lmp
# Setup forcefield, system
# undefine any fix ave/* fix before using reset_timestep
if "$(is_defined(fix,avgp))" then "unfix avgp"
reset_timestep 0

# Assign the force field
pair_style reaxff NULL safezone 3.0 mincap 150
# pair_coeff * * CHONSSi.ff O Si
# pair_coeff * * CHOSiNa.ff O Si
# pair_coeff * * SiOCHN_2018.ff O Si
# pair_coeff * * PDMSDecomp.ff Si O
pair_coeff * * CHONSi.ff C H O Si
# pair_coeff * * CHOFe.ff O Si

# charge method for reaxff
fix myqeq all qeq/reaxff 1 0.0 10.0 1.0e-6 reaxff maxiter 400
# Setup neighbor style
neighbor        2 bin
neigh_modify    every 10 delay 0 check no

# Setup output
fix avgp all ave/time  ${nevery} ${nrepeat} ${nfreq} c_thermo_press mode vector
fix avgp all ave/time  10 ${nrepeat} ${nfreq} c_thermo_press mode vector
fix avgp all ave/time  10 10 ${nfreq} c_thermo_press mode vector
fix avgp all ave/time  10 10 100 c_thermo_press mode vector
thermo		${nthermo}
thermo		100
thermo_style custom step temp pe press f_avgp[1] vol
thermo_modify norm no

# NVT
fix 4 all nvt temp ${temp} ${temp} ${tdamp}
fix 4 all nvt temp 300 ${temp} ${tdamp}
fix 4 all nvt temp 300 300 ${tdamp}
fix 4 all nvt temp 300 300 50
Resetting global fix info from restart file:
  fix style: nvt, fix ID: 4

# Positive deformation
variable delta equal ${up}*${len0}
variable delta equal 0.01*${len0}
variable delta equal 0.01*13.1279
variable deltaxy equal ${up}*xy
variable deltaxy equal 0.01*xy
variable deltaxz equal ${up}*xz
variable deltaxz equal 0.01*xz
variable deltayz equal ${up}*yz
variable deltayz equal 0.01*yz
if "${dir} == 1" then    "change_box all x delta 0 ${delta} xy delta ${deltaxy} xz delta ${deltaxz} remap units box"
if "${dir} == 2" then    "change_box all y delta 0 ${delta} yz delta ${deltayz} remap units box"
if "${dir} == 3" then    "change_box all z delta 0 ${delta} remap units box"
if "${dir} == 4" then    "change_box all yz delta ${delta} remap units box"
if "${dir} == 5" then    "change_box all xz delta ${delta} remap units box"
if "${dir} == 6" then    "change_box all xy delta ${delta} remap units box"
change_box all xy delta ${delta} remap units box
change_box all xy delta 0.131279 remap units box
Changing box ...
WARNING: Triclinic box skew is large. LAMMPS will run inefficiently. (src/domain.cpp:220)
  triclinic box = (0 0 0) to (17.1722 13.1279 17.5867) with tilt (-8.250721 0.0305 0.3027)

# Run positive deformation MD
# save trajectory
dump dump_pos${dir} all custom ${nthermo} dump/pos_deform${dir}.lammpstrj id type x y z
dump dump_pos6 all custom ${nthermo} dump/pos_deform${dir}.lammpstrj id type x y z
dump dump_pos6 all custom 100 dump/pos_deform${dir}.lammpstrj id type x y z
dump dump_pos6 all custom 100 dump/pos_deform6.lammpstrj id type x y z
run ${nrun}
run 3000
All restart file global fix info was re-assigned
Neighbor list info ...
  update: every = 10 steps, delay = 0 steps, check = no
  max neighbors/atom: 2000, page size: 100000
  master list distance cutoff = 12
  ghost atom cutoff = 12
  binsize = 6, bins = 5 3 3
  2 neighbor lists, perpetual/occasional/extra = 2 0 0
  (1) pair reaxff, perpetual
      attributes: half, newton off, ghost
      pair build: half/bin/newtoff/ghost
      stencil: full/ghost/bin/3d
      bin: standard
  (2) fix qeq/reaxff, perpetual, copy from (1)
      attributes: half, newton off
      pair build: copy
      stencil: none
      bin: none
Per MPI rank memory allocation (min/avg/max) = 128.6 | 130.3 | 131.8 Mbytes
   Step          Temp          PotEng         Press        f_avgp[1]        Volume    
         0   291.54158     -42289.681     -24.8527        0              3964.6564    
       100   293.80397     -42309.861     -4760.9894     -8768.8624      3964.6564    
       200   289.98416     -42307.859     -4404.2023     -7528.3113      3964.6564    
       300   285.51505     -42299.562     -9053.8138     -10296.791      3964.6564    
       400   306.19462     -42305.369     -6384.9633     -11481.143      3964.6564    
       500   313.09444     -42308.957     -14126.209     -10048.013      3964.6564    
       600   306.44407     -42316.856     -18178.446     -8029.6096      3964.6564    
       700   304.1047      -42330.518     -746.36943     -8133.1456      3964.6564    
       800   261.29893     -42298.66      -8313.294      -6817.8128      3964.6564    
       900   299.5729      -42333.224      4314.6985     -10919.662      3964.6564    
      1000   304.82672     -42319.784      5443.9577     -3507.9329      3964.6564    
      1100   312.93893     -42324.96       6492.1149     -7093.1678      3964.6564    
      1200   308.77176     -42323.663     -11747.602     -8332.6638      3964.6564    
      1300   308.81489     -42321.024     -6124.6964     -2431.4254      3964.6564    
      1400   301.59631     -42308.974     -5003.4642     -6819.3753      3964.6564    
      1500   304.87845     -42304.447     -4789.497      -6726.1896      3964.6564    
      1600   294.72834     -42299.42      -8454.8459     -12982.795      3964.6564    
      1700   273.22099     -42297.509     -9123.4995     -5821.2182      3964.6564    
      1800   285.31582     -42327.997     -3405.2447     -4443.7636      3964.6564    
      1900   278.19124     -42317.821     -4061.8081     -5401.247       3964.6564    
      2000   300.23985     -42298.471      491.73292     -8143.3142      3964.6564    
      2100   315.83597     -42312.697      1701.8512     -7276.6562      3964.6564    
      2200   308.81968     -42316.652      2986.4148     -7196.0486      3964.6564    
      2300   289.87344     -42329.925      4631.3929     -9911.0994      3964.6564    
      2400   273.5856      -42313.521      1804.9252     -1871.0303      3964.6564    
      2500   294.28118     -42319.109     -1266.9918     -8955.471       3964.6564    
      2600   316.8326      -42330.859     -14513.817     -9955.7004      3964.6564    
      2700   311.97201     -42321.99       1114.7714     -7719.4232      3964.6564    
      2800   277.47503     -42307.991      9008.3601     -6180.0828      3964.6564    
      2900   287.12597     -42335.953     -1906.0571     -8956.9377      3964.6564    
      3000   279.56755     -42309.363     -2353.1012     -8796.7823      3964.6564    
Loop time of 143.037 on 8 procs for 3000 steps with 362 atoms

Performance: 0.906 ns/day, 26.488 hours/ns, 20.974 timesteps/s, 7.592 katom-step/s
98.9% CPU use with 8 MPI tasks x 1 OpenMP threads

MPI task timing breakdown:
Section |  min time  |  avg time  |  max time  |%varavg| %total
---------------------------------------------------------------
Pair    | 79.499     | 107.72     | 120.49     | 154.3 | 75.31
Bond    | 0.0074604  | 0.0082573  | 0.0090017  |   0.5 |  0.01
Neigh   | 6.6441     | 8.7279     | 9.8493     |  40.8 |  6.10
Comm    | 0.87334    | 13.642     | 41.823     | 433.2 |  9.54
Output  | 0.0065177  | 0.0081334  | 0.0093608  |   1.1 |  0.01
Modify  | 11.718     | 12.858     | 14.981     |  34.4 |  8.99
Other   |            | 0.07261    |            |       |  0.05

Nlocal:          45.25 ave          50 max          38 min
Histogram: 1 0 0 0 1 1 3 0 0 2
Nghost:        3329.12 ave        3348 max        3309 min
Histogram: 2 1 0 0 0 2 0 0 1 2
Neighs:        28903.8 ave       31792 max       24526 min
Histogram: 1 0 0 0 1 1 3 0 0 2

Total # of neighbors = 231230
Ave neighs/atom = 638.75691
Ave special neighs/atom = 0
Neighbor list builds = 300
Dangerous builds not checked
undump dump_pos${dir}
undump dump_pos6

# Run equilibration
print "*****Equilibration pos${dir} starts.*****"
*****Equilibration pos6 starts.*****
include ff.mod.lmp
# Setup forcefield, system
# undefine any fix ave/* fix before using reset_timestep
if "$(is_defined(fix,avgp))" then "unfix avgp"
unfix avgp
reset_timestep 0

# Assign the force field
pair_style reaxff NULL safezone 3.0 mincap 150
# pair_coeff * * CHONSSi.ff O Si
# pair_coeff * * CHOSiNa.ff O Si
# pair_coeff * * SiOCHN_2018.ff O Si
# pair_coeff * * PDMSDecomp.ff Si O
pair_coeff * * CHONSi.ff C H O Si
# pair_coeff * * CHOFe.ff O Si

# charge method for reaxff
fix myqeq all qeq/reaxff 1 0.0 10.0 1.0e-6 reaxff maxiter 400
# Setup neighbor style
neighbor        2 bin
neigh_modify    every 10 delay 0 check no

# Setup output
fix avgp all ave/time  ${nevery} ${nrepeat} ${nfreq} c_thermo_press mode vector
fix avgp all ave/time  10 ${nrepeat} ${nfreq} c_thermo_press mode vector
fix avgp all ave/time  10 10 ${nfreq} c_thermo_press mode vector
fix avgp all ave/time  10 10 100 c_thermo_press mode vector
thermo		${nthermo}
thermo		100
thermo_style custom step temp pe press f_avgp[1] vol
WARNING: New thermo_style command, previous thermo_modify settings will be lost (src/output.cpp:903)
thermo_modify norm no

# NVT
fix 4 all nvt temp ${temp} ${temp} ${tdamp}
fix 4 all nvt temp 300 ${temp} ${tdamp}
fix 4 all nvt temp 300 300 ${tdamp}
fix 4 all nvt temp 300 300 50
run ${nequil}
run 3000
Neighbor list info ...
  update: every = 10 steps, delay = 0 steps, check = no
  max neighbors/atom: 2000, page size: 100000
  master list distance cutoff = 12
  ghost atom cutoff = 12
  binsize = 6, bins = 5 3 3
  2 neighbor lists, perpetual/occasional/extra = 2 0 0
  (1) pair reaxff, perpetual
      attributes: half, newton off, ghost
      pair build: half/bin/newtoff/ghost
      stencil: full/ghost/bin/3d
      bin: standard
  (2) fix qeq/reaxff, perpetual, copy from (1)
      attributes: half, newton off
      pair build: copy
      stencil: none
      bin: none
Per MPI rank memory allocation (min/avg/max) = 128.6 | 130.3 | 131.7 Mbytes
   Step          Temp          PotEng         Press        f_avgp[1]        Volume    
         0   279.56755     -42309.363     -2353.1508      0              3964.6564    
       100   323.76741     -42348.651      6251.6444     -4697.0247      3964.6564    
       200   292.91661     -42308.264     -307.36294     -8928.0285      3964.6564    
       300   306.98336     -42310.271     -7171.2256     -6441.3256      3964.6564    
       400   321.93483     -42337.389     -6009.4003     -4510.515       3964.6564    
       500   282.43568     -42326.466     -8046.7033     -5119.2537      3964.6564    
       600   291.94562     -42333.418     -10577.693     -7877.2667      3964.6564    
       700   304.189       -42322.764      2035.0379     -7676.2214      3964.6564    
       800   317.50576     -42328.648     -12615.411     -10368.795      3964.6564    
       900   309.67514     -42330.247      4887.3154     -8253.6268      3964.6564    
      1000   288.02691     -42319.297     -4128.2903     -10786.104      3964.6564    
      1100   302.82643     -42331.68      -131.08315     -1354.9746      3964.6564    
      1200   298.46795     -42319.197     -867.09034     -3764.3995      3964.6564    
      1300   297.92873     -42318.191     -2884.4687     -3764.1781      3964.6564    
      1400   293.91159     -42342.107     -14495.842     -13701.084      3964.6564    
      1500   267.78065     -42329.271      4942.3991     -4805.9921      3964.6564    
      1600   269.70867     -42310.921      867.56437     -4405.6334      3964.6564    
      1700   300.71165     -42324.328      2924.9391     -4298.7855      3964.6564    
      1800   296.50367     -42321.718     -2961.271      -8390.1597      3964.6564    
      1900   295.49025     -42330.749     -2353.6135     -10571.385      3964.6564    
      2000   292.58517     -42344.89      -5635.9777     -8040.3784      3964.6564    
      2100   258.04979     -42328.766      3554.9354     -2947.6845      3964.6564    
      2200   307.16077     -42358.496     -1594.0692     -261.10854      3964.6564    
      2300   307.0784      -42333.8       -11001.618     -13213.998      3964.6564    
      2400   309.30133     -42330.573     -8612.2307     -10189.238      3964.6564    
      2500   292.39708     -42313.795      4022.9582     -7038.2246      3964.6564    
      2600   309.74787     -42334.232     -11307.724     -11986.53       3964.6564    
      2700   294.86847     -42326.498     -6436.7229     -11231.391      3964.6564    
      2800   298.00034     -42345.301     -797.42638     -6034.595       3964.6564    
      2900   296.45414     -42350.393      3418.5274     -7781.9319      3964.6564    
      3000   303.76606     -42346.565     -10.508082     -8050.3569      3964.6564    
Loop time of 104.816 on 8 procs for 3000 steps with 362 atoms

Performance: 1.236 ns/day, 19.410 hours/ns, 28.622 timesteps/s, 10.361 katom-step/s
98.9% CPU use with 8 MPI tasks x 1 OpenMP threads

MPI task timing breakdown:
Section |  min time  |  avg time  |  max time  |%varavg| %total
---------------------------------------------------------------
Pair    | 76.977     | 80.473     | 85.68      |  26.5 | 76.78
Bond    | 0.0069811  | 0.0076872  | 0.0082307  |   0.4 |  0.01
Neigh   | 6.6433     | 6.8384     | 7.2674     |   6.8 |  6.52
Comm    | 2.3306     | 7.5357     | 11.028     |  86.7 |  7.19
Output  | 0.0012215  | 0.0013241  | 0.0018822  |   0.6 |  0.00
Modify  | 9.4593     | 9.8914     | 10.083     |   5.7 |  9.44
Other   |            | 0.06844    |            |       |  0.07

Nlocal:          45.25 ave          50 max          41 min
Histogram: 1 1 0 1 2 1 0 0 1 1
Nghost:        3334.25 ave        3370 max        3304 min
Histogram: 1 1 1 0 2 1 0 0 1 1
Neighs:        28864.5 ave       31749 max       26364 min
Histogram: 1 1 0 2 1 1 0 0 0 2

Total # of neighbors = 230916
Ave neighs/atom = 637.8895
Ave special neighs/atom = 0
Neighbor list builds = 300
Dangerous builds not checked

# Obtain new stress tensor, convert index from LAMMPS to Voigt
variable pxx1 equal f_avgp[1]
variable pyy1 equal f_avgp[2]
variable pzz1 equal f_avgp[3]
variable pxy1 equal f_avgp[4]
variable pxz1 equal f_avgp[5]
variable pyz1 equal f_avgp[6]

# Compute elastic constant from pressure tensor
# d1 = -[pxx1-pxx0]/[(]v_delta/v_len0] defined in input script
variable C1pos equal ${d1}
variable C1pos equal 51.7797411487947
variable C2pos equal ${d2}
variable C2pos equal 58.6418233230221
variable C3pos equal ${d3}
variable C3pos equal 44.63131969482
variable C4pos equal ${d4}
variable C4pos equal 9.38726210482397
variable C5pos equal ${d5}
variable C5pos equal -10.5671967250655
variable C6pos equal ${d6}
variable C6pos equal 28.5037269109143

# Combine positive and negative
variable C1${dir} equal 0.5*(${C1neg}+${C1pos})
variable C16 equal 0.5*(${C1neg}+${C1pos})
variable C16 equal 0.5*(-22.0087540124681+${C1pos})
variable C16 equal 0.5*(-22.0087540124681+51.7797411487947)
variable C2${dir} equal 0.5*(${C2neg}+${C2pos})
variable C26 equal 0.5*(${C2neg}+${C2pos})
variable C26 equal 0.5*(-53.4095396460461+${C2pos})
variable C26 equal 0.5*(-53.4095396460461+58.6418233230221)
variable C3${dir} equal 0.5*(${C3neg}+${C3pos})
variable C36 equal 0.5*(${C3neg}+${C3pos})
variable C36 equal 0.5*(-5.84614452769177+${C3pos})
variable C36 equal 0.5*(-5.84614452769177+44.63131969482)
variable C4${dir} equal 0.5*(${C4neg}+${C4pos})
variable C46 equal 0.5*(${C4neg}+${C4pos})
variable C46 equal 0.5*(5.65144139520453+${C4pos})
variable C46 equal 0.5*(5.65144139520453+9.38726210482397)
variable C5${dir} equal 0.5*(${C5neg}+${C5pos})
variable C56 equal 0.5*(${C5neg}+${C5pos})
variable C56 equal 0.5*(6.62748881024863+${C5pos})
variable C56 equal 0.5*(6.62748881024863+-10.5671967250655)
variable C6${dir} equal 0.5*(${C6neg}+${C6pos})
variable C66 equal 0.5*(${C6neg}+${C6pos})
variable C66 equal 0.5*(-9.09082846449247+${C6pos})
variable C66 equal 0.5*(-9.09082846449247+28.5037269109143)

# Delete dir to make sure it is not reused
variable dir delete

# Calc and output
include calc.mod.lmp
variable C11all equal ${C11}
variable C11all equal 61.0775429729506
variable C22all equal ${C22}
variable C22all equal 15.9037602777345
variable C33all equal ${C33}
variable C33all equal 47.5165405751099

variable C44all equal ${C44}
variable C44all equal 3.85067394908612
variable C55all equal ${C55}
variable C55all equal 15.5744981479126
variable C66all equal ${C66}
variable C66all equal 9.70644922321091

variable C12all equal 0.5*(${C12}+${C21})
variable C12all equal 0.5*(-14.0740591398581+${C21})
variable C12all equal 0.5*(-14.0740591398581+103.860130579732)
variable C13all equal 0.5*(${C13}+${C31})
variable C13all equal 0.5*(13.0761351866707+${C31})
variable C13all equal 0.5*(13.0761351866707+39.4189316344847)
variable C23all equal 0.5*(${C23}+${C32})
variable C23all equal 0.5*(15.967602924975+${C32})
variable C23all equal 0.5*(15.967602924975+-25.2248243212417)

variable C14all equal 0.5*(${C14}+${C41})
variable C14all equal 0.5*(37.9869516202453+${C41})
variable C14all equal 0.5*(37.9869516202453+-1.2472261684931)
variable C15all equal 0.5*(${C15}+${C51})
variable C15all equal 0.5*(52.5014101497665+${C51})
variable C15all equal 0.5*(52.5014101497665+-15.6309764975162)
variable C16all equal 0.5*(${C16}+${C61})
variable C16all equal 0.5*(14.8854935681633+${C61})
variable C16all equal 0.5*(14.8854935681633+0.83822998924806)

variable C24all equal 0.5*(${C24}+${C42})
variable C24all equal 0.5*(-5.24527094353785+${C42})
variable C24all equal 0.5*(-5.24527094353785+-0.997162421104901)
variable C25all equal 0.5*(${C25}+${C52})
variable C25all equal 0.5*(4.14817211251385+${C52})
variable C25all equal 0.5*(4.14817211251385+-2.58283055552569)
variable C26all equal 0.5*(${C26}+${C62})
variable C26all equal 0.5*(2.616141838488+${C62})
variable C26all equal 0.5*(2.616141838488+-6.67158637695859)

variable C34all equal 0.5*(${C34}+${C43})
variable C34all equal 0.5*(-4.62421909096588+${C43})
variable C34all equal 0.5*(-4.62421909096588+-3.09334251899735)
variable C35all equal 0.5*(${C35}+${C53})
variable C35all equal 0.5*(23.9970151001881+${C53})
variable C35all equal 0.5*(23.9970151001881+-7.04494553997155)
variable C36all equal 0.5*(${C36}+${C63})
variable C36all equal 0.5*(19.3925875835641+${C63})
variable C36all equal 0.5*(19.3925875835641+-6.0960816580283)

variable C45all equal 0.5*(${C45}+${C54})
variable C45all equal 0.5*(-2.76846757614066+${C54})
variable C45all equal 0.5*(-2.76846757614066+-5.49732164717375)
variable C46all equal 0.5*(${C46}+${C64})
variable C46all equal 0.5*(7.51935175001425+${C64})
variable C46all equal 0.5*(7.51935175001425+-7.64524264110389)
variable C56all equal 0.5*(${C56}+${C65})
variable C56all equal 0.5*(-1.96985395740844+${C65})
variable C56all equal 0.5*(-1.96985395740844+5.54286658633015)

# print stiffness tensor to "C.log"
print """
# stiffness tensor (GPa) for ${structure} by change-box method
${C11all} ${C12all} ${C13all} ${C14all} ${C15all} ${C16all}
${C12all} ${C22all} ${C23all} ${C24all} ${C25all} ${C26all}
${C13all} ${C23all} ${C33all} ${C34all} ${C35all} ${C36all}
${C14all} ${C24all} ${C34all} ${C44all} ${C45all} ${C46all}
${C15all} ${C25all} ${C35all} ${C45all} ${C55all} ${C56all}
${C16all} ${C26all} ${C36all} ${C46all} ${C56all} ${C66all}
"""  file C.log screen no

Total wall time: 1:02:28
