LAMMPS (2 Aug 2023 - Update 2)
OMP_NUM_THREADS environment is not set. Defaulting to 1 thread. (src/comm.cpp:98)
  using 1 OpenMP thread(s) per MPI task
Reading data file ...
  triclinic box = (0.069742272 0.40119664 -0.14695996) to (15.608458 13.818203 17.78526) with tilt (-7.7490667 -1.5378211 0.14232347)
WARNING: Triclinic box skew is large. LAMMPS will run inefficiently. (src/domain.cpp:220)
  2 by 2 by 2 MPI processor grid
  reading atoms ...
  350 atoms
  reading velocities ...
  350 velocities
Finding 1-2 1-3 1-4 neighbors ...
  special bond factors lj:    0        0        0       
  special bond factors coul:  0        0        0       
     0 = max # of 1-2 neighbors
     0 = max # of 1-3 neighbors
     0 = max # of 1-4 neighbors
     1 = max # of special neighbors
  special bonds CPU = 0.001 seconds
  read_data CPU = 0.010 seconds
*****Minimization starts.*****
Setting up cg style minimization ...
  Unit style    : real
  Current step  : 0
WARNING: No pairwise cutoff or binsize set. Atom sorting therefore disabled. (src/atom.cpp:2366)
WARNING: Communication cutoff is 0.0. No ghost atoms will be generated. Atoms may get lost. (src/comm_brick.cpp:210)
Per MPI rank memory allocation (min/avg/max) = 6.365 | 6.365 | 6.365 Mbytes
   Step          Temp          E_pair         E_mol          TotEng         Press     
         0   300            0              0              312.09081      3816.0058    
         1   300            0              0              312.09081      3816.0058    
Loop time of 7.27718e-05 on 8 procs for 1 steps with 350 atoms

46.9% CPU use with 8 MPI tasks x 1 OpenMP threads

Minimization stats:
  Stopping criterion = search direction is not downhill
  Energy initial, next-to-last, final = 
                     0                  0                  0
  Force two-norm initial, final = 0 0
  Force max component initial, final = 0 0
  Final line search alpha, max atom move = 0 0
  Iterations, force evaluations = 1 0

MPI task timing breakdown:
Section |  min time  |  avg time  |  max time  |%varavg| %total
---------------------------------------------------------------
Pair    | 0          | 0          | 0          |   0.0 |  0.00
Bond    | 1.14e-07   | 1.9963e-07 | 3.57e-07   |   0.0 |  0.27
Neigh   | 0          | 0          | 0          |   0.0 |  0.00
Comm    | 8.64e-07   | 1.2444e-06 | 1.888e-06  |   0.0 |  1.71
Output  | 0          | 0          | 0          |   0.0 |  0.00
Modify  | 0          | 0          | 0          |   0.0 |  0.00
Other   |            | 7.133e-05  |            |       | 98.02

Nlocal:          43.75 ave          48 max          39 min
Histogram: 1 0 0 2 1 0 2 1 0 1
Nghost:              0 ave           0 max           0 min
Histogram: 8 0 0 0 0 0 0 0 0 0
Neighs:              0 ave           0 max           0 min
Histogram: 8 0 0 0 0 0 0 0 0 0

Total # of neighbors = 0
Ave neighs/atom = 0
Ave special neighs/atom = 0
Neighbor list builds = 0
Dangerous builds = 0
WARNING: New thermo_style command, previous thermo_modify settings will be lost (src/output.cpp:903)

CITE-CITE-CITE-CITE-CITE-CITE-CITE-CITE-CITE-CITE-CITE-CITE-CITE

Your simulation uses code contributions which should be cited:
- pair reaxff command: doi:10.1016/j.parco.2011.08.005
- fix qeq/reaxff command: doi:10.1016/j.parco.2011.08.005
The log file lists these citations in BibTeX format.

CITE-CITE-CITE-CITE-CITE-CITE-CITE-CITE-CITE-CITE-CITE-CITE-CITE

Neighbor list info ...
  update: every = 10 steps, delay = 0 steps, check = no
  max neighbors/atom: 2000, page size: 100000
  master list distance cutoff = 12
  ghost atom cutoff = 12
  binsize = 6, bins = 5 3 3
  2 neighbor lists, perpetual/occasional/extra = 2 0 0
  (1) pair reaxff, perpetual
      attributes: half, newton off, ghost
      pair build: half/bin/newtoff/ghost
      stencil: full/ghost/bin/3d
      bin: standard
  (2) fix qeq/reaxff, perpetual, copy from (1)
      attributes: half, newton off
      pair build: copy
      stencil: none
      bin: none
Setting up Verlet run ...
  Unit style    : real
  Current step  : 0
  Time step     : 0.5
Per MPI rank memory allocation (min/avg/max) = 128.4 | 130 | 131.4 Mbytes
   Step          Temp          PotEng         Press        f_avgp[1]       Density         Volume    
         0   300           -41262.556     -800.07054      0              1.737228       3738.5639    
       100   303.25539     -41252.064      3695.3185     -89.366972      1.737228       3738.5639    
       200   329.83131     -41256.975     -5129.7212      796.4096       1.737228       3738.5639    
       300   304.37764     -41231.859      5123.6253     -1406.4714      1.737228       3738.5639    
       400   295.99995     -41267.796      1799.2349     -2028.0588      1.737228       3738.5639    
       500   285.61215     -41259.084     -13030.69      -7047.5778      1.737228       3738.5639    
       600   287.17298     -41245.44      -6638.434      -14.171983      1.737228       3738.5639    
       700   304.79562     -41240.258      7335.7978     -1052.5714      1.737228       3738.5639    
       800   318.66561     -41247.554      2338.4461     -78.300923      1.737228       3738.5639    
       900   283.61171     -41240.663     -4126.3589      2952.8758      1.737228       3738.5639    
      1000   297.99774     -41280.089     -9230.7053     -5872.201       1.737228       3738.5639    
      1100   291.03215     -41263.296     -3349.9883     -1551.339       1.737228       3738.5639    
      1200   311.15342     -41258.32      -11760.172      1611.7529      1.737228       3738.5639    
      1300   307.05128     -41244.52      -2064.6871     -1058.3679      1.737228       3738.5639    
      1400   305.44626     -41253.164     -2471.8802      2747.6744      1.737228       3738.5639    
      1500   282.14822     -41263.995      2878.9234      736.33195      1.737228       3738.5639    
      1600   276.56828     -41258.167     -6224.4509      1385.6215      1.737228       3738.5639    
      1700   291.09479     -41250.912     -3591.0593      466.92691      1.737228       3738.5639    
      1800   307.42344     -41252.498     -4997.9032     -1043.4312      1.737228       3738.5639    
      1900   315.75584     -41258.95      -3163.4949     -2054.4441      1.737228       3738.5639    
      2000   289.20158     -41249.632     -5135.9957      1253.0994      1.737228       3738.5639    
Loop time of 90.9507 on 8 procs for 2000 steps with 350 atoms

Performance: 0.950 ns/day, 25.264 hours/ns, 21.990 timesteps/s, 7.696 katom-step/s
98.8% CPU use with 8 MPI tasks x 1 OpenMP threads

MPI task timing breakdown:
Section |  min time  |  avg time  |  max time  |%varavg| %total
---------------------------------------------------------------
Pair    | 52.191     | 61.122     | 76.974     | 142.9 | 67.20
Bond    | 0.00055735 | 0.0006899  | 0.0010177  |   0.0 |  0.00
Neigh   | 4.381      | 5.0599     | 6.1646     |  37.0 |  5.56
Comm    | 0.57003    | 16.426     | 25.351     | 275.6 | 18.06
Output  | 0.0010821  | 0.0011555  | 0.0015047  |   0.4 |  0.00
Modify  | 7.195      | 8.3064     | 8.982      |  28.9 |  9.13
Other   |            | 0.03503    |            |       |  0.04

Nlocal:          43.75 ave          48 max          36 min
Histogram: 1 0 0 0 1 1 0 2 1 2
Nghost:         3352.5 ave        3379 max        3317 min
Histogram: 1 0 0 1 2 0 1 0 1 2
Neighs:        28695.8 ave       31336 max       23879 min
Histogram: 1 0 0 0 2 0 0 2 1 2

Total # of neighbors = 229566
Ave neighs/atom = 655.90286
Ave special neighs/atom = 0
Neighbor list builds = 200
Dangerous builds not checked
System init for write_data ...
System init for write_restart ...
OMP_NUM_THREADS environment is not set. Defaulting to 1 thread. (src/comm.cpp:98)
  using 1 OpenMP thread(s) per MPI task
Reading restart file ...
  restart file = 2 Aug 2023, LAMMPS = 2 Aug 2023
  restoring atom style full from restart
  triclinic box = (0.069742272 0.40119664 -0.14695996) to (15.608458 13.818203 17.78526) with tilt (-7.7490667 -1.5378211 0.14232347)
WARNING: Triclinic box skew is large. LAMMPS will run inefficiently. (src/domain.cpp:220)
  2 by 2 by 2 MPI processor grid
  pair style reaxff stores no restart info
  350 atoms
Finding 1-2 1-3 1-4 neighbors ...
  special bond factors lj:    0        0        0       
  special bond factors coul:  0        0        0       
     0 = max # of 1-2 neighbors
     0 = max # of 1-3 neighbors
     0 = max # of 1-4 neighbors
     1 = max # of special neighbors
  special bonds CPU = 0.000 seconds
  read_restart CPU = 0.002 seconds
*****Negative-deform 1 starts.*****
Resetting global fix info from restart file:
  fix style: nvt, fix ID: 4
All restart file global fix info was re-assigned
Neighbor list info ...
  update: every = 10 steps, delay = 0 steps, check = no
  max neighbors/atom: 2000, page size: 100000
  master list distance cutoff = 12
  ghost atom cutoff = 12
  binsize = 6, bins = 5 3 3
  2 neighbor lists, perpetual/occasional/extra = 2 0 0
  (1) pair reaxff, perpetual
      attributes: half, newton off, ghost
      pair build: half/bin/newtoff/ghost
      stencil: full/ghost/bin/3d
      bin: standard
  (2) fix qeq/reaxff, perpetual, copy from (1)
      attributes: half, newton off
      pair build: copy
      stencil: none
      bin: none
Setting up Verlet run ...
  Unit style    : real
  Current step  : 0
  Time step     : 0.5
Per MPI rank memory allocation (min/avg/max) = 129.3 | 130.4 | 131.4 Mbytes
   Step          Temp          PotEng         Press        f_avgp[1]        Volume    
         0   289.20158     -41249.632     -5135.8981      0              3738.5639    
       100   269.05289     -41261.59       3827.1672      1829.4252      3736.6946    
       200   278.70994     -41268.643      4672.9167     -4221.1794      3734.8253    
       300   293.16883     -41271.462     -5730.7328     -845.12305      3732.9561    
       400   290.19418     -41257.464     -2919.619       1071.3123      3731.0868    
       500   297.14081     -41245.608      1035.5487      30.428459      3729.2175    
       600   304.62104     -41238.821     -2368.2098     -944.68682      3727.3482    
       700   309.04408     -41245.668     -8334.331      -2456.3728      3725.4789    
       800   279.25947     -41249.992     -7069.1159      3522.706       3723.6096    
       900   282.74335     -41261.178     -5670.3337      3947.2871      3721.7404    
      1000   305.53985     -41267.821     -4304.3047     -2216.1782      3719.8711    
      1100   286.57333     -41228.002     -3247.7984      3764.8893      3718.0018    
      1200   309.24097     -41247.66       5370.2006      4405.2177      3716.1325    
      1300   308.64671     -41247.343      5054.2275      2754.7138      3714.2632    
      1400   290.5825      -41241.088     -6306.5453     -349.0578       3712.3939    
      1500   288.62196     -41262.287      843.98854     -3481.8283      3710.5247    
      1600   277.06191     -41277.03       7568.6515      332.24314      3708.6554    
      1700   260.22968     -41275.48      -11887.982      3751.9705      3706.7861    
      1800   275.76796     -41270.37      -5075.2503      187.98311      3704.9168    
      1900   301.61019     -41260.813     -5089.3323      3926.2433      3703.0475    
      2000   306.68529     -41243.911     -26.820821      4089.1278      3701.1783    
Loop time of 91.6888 on 8 procs for 2000 steps with 350 atoms

Performance: 0.942 ns/day, 25.469 hours/ns, 21.813 timesteps/s, 7.635 katom-step/s
98.8% CPU use with 8 MPI tasks x 1 OpenMP threads

MPI task timing breakdown:
Section |  min time  |  avg time  |  max time  |%varavg| %total
---------------------------------------------------------------
Pair    | 52.389     | 61.454     | 75.319     | 129.7 | 67.02
Bond    | 0.00055196 | 0.00069078 | 0.00091959 |   0.0 |  0.00
Neigh   | 4.432      | 5.1177     | 6.1859     |  34.1 |  5.58
Comm    | 2.4508     | 16.335     | 25.407     | 251.8 | 17.82
Output  | 0.0037872  | 0.0045879  | 0.0051532  |   0.7 |  0.01
Modify  | 7.6615     | 8.7398     | 9.4454     |  25.9 |  9.53
Other   |            | 0.03724    |            |       |  0.04

Nlocal:          43.75 ave          50 max          38 min
Histogram: 1 0 1 0 2 2 1 0 0 1
Nghost:         3365.5 ave        3400 max        3332 min
Histogram: 1 0 2 1 0 2 0 0 0 2
Neighs:        28997.6 ave       32932 max       25371 min
Histogram: 1 0 1 0 2 2 1 0 0 1

Total # of neighbors = 231981
Ave neighs/atom = 662.80286
Ave special neighs/atom = 0
Neighbor list builds = 200
Dangerous builds not checked
OMP_NUM_THREADS environment is not set. Defaulting to 1 thread. (src/comm.cpp:98)
  using 1 OpenMP thread(s) per MPI task
Reading restart file ...
  restart file = 2 Aug 2023, LAMMPS = 2 Aug 2023
  restoring atom style full from restart
  triclinic box = (0.069742272 0.40119664 -0.14695996) to (15.608458 13.818203 17.78526) with tilt (-7.7490667 -1.5378211 0.14232347)
WARNING: Triclinic box skew is large. LAMMPS will run inefficiently. (src/domain.cpp:220)
  2 by 2 by 2 MPI processor grid
  pair style reaxff stores no restart info
  350 atoms
Finding 1-2 1-3 1-4 neighbors ...
  special bond factors lj:    0        0        0       
  special bond factors coul:  0        0        0       
     0 = max # of 1-2 neighbors
     0 = max # of 1-3 neighbors
     0 = max # of 1-4 neighbors
     1 = max # of special neighbors
  special bonds CPU = 0.000 seconds
  read_restart CPU = 0.003 seconds
*****Positive-deform 1 starts.*****
Resetting global fix info from restart file:
  fix style: nvt, fix ID: 4
All restart file global fix info was re-assigned
Neighbor list info ...
  update: every = 10 steps, delay = 0 steps, check = no
  max neighbors/atom: 2000, page size: 100000
  master list distance cutoff = 12
  ghost atom cutoff = 12
  binsize = 6, bins = 5 3 3
  2 neighbor lists, perpetual/occasional/extra = 2 0 0
  (1) pair reaxff, perpetual
      attributes: half, newton off, ghost
      pair build: half/bin/newtoff/ghost
      stencil: full/ghost/bin/3d
      bin: standard
  (2) fix qeq/reaxff, perpetual, copy from (1)
      attributes: half, newton off
      pair build: copy
      stencil: none
      bin: none
Setting up Verlet run ...
  Unit style    : real
  Current step  : 0
  Time step     : 0.5
Per MPI rank memory allocation (min/avg/max) = 129.3 | 130.4 | 131.4 Mbytes
   Step          Temp          PotEng         Press        f_avgp[1]        Volume    
         0   289.20158     -41249.632     -5135.8981      0              3738.5639    
       100   269.05289     -41261.59       3823.342       1828.9502      3740.4332    
       200   278.87525     -41268.43       2442.0979     -5000.2331      3742.3025    
       300   292.87156     -41270.517     -5590.3808     -1820.7309      3744.1717    
       400   293.95261     -41259.385     -9350.4828     -384.1628       3746.041     
       500   286.40059     -41232.247     -5355.8265     -3363.5488      3747.9103    
       600   307.19884     -41240.775     -1375.9399      59.331942      3749.7796    
       700   299.93676     -41236.21      -2534.3386     -1174.1181      3751.6489    
       800   280.37855     -41251.273      7707.154      -831.17243      3753.5182    
       900   297.93621     -41278.621     -6359.7243      1031.0631      3755.3874    
      1000   300.57999     -41268.243      7119.8289     -2346.5817      3757.2567    
      1100   300.36953     -41241.763     -2166.6158     -1848.5875      3759.126     
      1200   293.77769     -41231.508     -2203.7391     -1743.0194      3760.9953    
      1300   316.48592     -41264.202      8808.9952     -4686.779       3762.8646    
      1400   291.76394     -41246.099      5994.6332      1017.0471      3764.7338    
      1500   307.66298     -41262.623      9517.6803     -4404.1051      3766.6031    
      1600   272.76558     -41241.11      -11799.174     -7077.9512      3768.4724    
      1700   307.6131      -41292.378     -8521.8365     -9535.263       3770.3417    
      1800   282.01502     -41262.184      15870.813     -1015.4294      3772.211     
      1900   289.13726     -41236.275     -3635.0571     -3529.3832      3774.0803    
      2000   325.22116     -41258.68      -13043.501     -6921.1938      3775.9495    
Loop time of 88.725 on 8 procs for 2000 steps with 350 atoms

Performance: 0.974 ns/day, 24.646 hours/ns, 22.542 timesteps/s, 7.890 katom-step/s
98.9% CPU use with 8 MPI tasks x 1 OpenMP threads

MPI task timing breakdown:
Section |  min time  |  avg time  |  max time  |%varavg| %total
---------------------------------------------------------------
Pair    | 51.618     | 60.844     | 74.453     | 128.4 | 68.58
Bond    | 0.00049589 | 0.00062141 | 0.00080214 |   0.0 |  0.00
Neigh   | 4.3622     | 5.0569     | 6.2546     |  37.9 |  5.70
Comm    | 0.77403    | 14.379     | 23.605     | 264.2 | 16.21
Output  | 0.0036384  | 0.0044377  | 0.0050885  |   0.7 |  0.01
Modify  | 7.1994     | 8.4034     | 9.095      |  29.6 |  9.47
Other   |            | 0.03625    |            |       |  0.04

Nlocal:          43.75 ave          47 max          40 min
Histogram: 1 1 0 0 1 2 0 1 1 1
Nghost:         3331.5 ave        3374 max        3280 min
Histogram: 1 0 0 1 1 2 0 2 0 1
Neighs:        28429.2 ave       30397 max       26108 min
Histogram: 1 1 0 0 1 2 0 1 0 2

Total # of neighbors = 227434
Ave neighs/atom = 649.81143
Ave special neighs/atom = 0
Neighbor list builds = 200
Dangerous builds not checked
OMP_NUM_THREADS environment is not set. Defaulting to 1 thread. (src/comm.cpp:98)
  using 1 OpenMP thread(s) per MPI task
Reading restart file ...
  restart file = 2 Aug 2023, LAMMPS = 2 Aug 2023
  restoring atom style full from restart
  triclinic box = (0.069742272 0.40119664 -0.14695996) to (15.608458 13.818203 17.78526) with tilt (-7.7490667 -1.5378211 0.14232347)
WARNING: Triclinic box skew is large. LAMMPS will run inefficiently. (src/domain.cpp:220)
  2 by 2 by 2 MPI processor grid
  pair style reaxff stores no restart info
  350 atoms
Finding 1-2 1-3 1-4 neighbors ...
  special bond factors lj:    0        0        0       
  special bond factors coul:  0        0        0       
     0 = max # of 1-2 neighbors
     0 = max # of 1-3 neighbors
     0 = max # of 1-4 neighbors
     1 = max # of special neighbors
  special bonds CPU = 0.000 seconds
  read_restart CPU = 0.002 seconds
*****Negative-deform 2 starts.*****
Resetting global fix info from restart file:
  fix style: nvt, fix ID: 4
All restart file global fix info was re-assigned
Neighbor list info ...
  update: every = 10 steps, delay = 0 steps, check = no
  max neighbors/atom: 2000, page size: 100000
  master list distance cutoff = 12
  ghost atom cutoff = 12
  binsize = 6, bins = 5 3 3
  2 neighbor lists, perpetual/occasional/extra = 2 0 0
  (1) pair reaxff, perpetual
      attributes: half, newton off, ghost
      pair build: half/bin/newtoff/ghost
      stencil: full/ghost/bin/3d
      bin: standard
  (2) fix qeq/reaxff, perpetual, copy from (1)
      attributes: half, newton off
      pair build: copy
      stencil: none
      bin: none
Setting up Verlet run ...
  Unit style    : real
  Current step  : 0
  Time step     : 0.5
Per MPI rank memory allocation (min/avg/max) = 129.3 | 130.4 | 131.4 Mbytes
   Step          Temp          PotEng         Press        f_avgp[1]        Volume    
         0   289.20158     -41249.632     -5135.8981      0              3738.5639    
       100   269.05289     -41261.59       3827.1672      1829.4252      3736.6946    
       200   278.92082     -41268.853      4987.6148     -4447.6646      3734.8253    
       300   291.67337     -41269.528     -12916.01      -1390.3678      3732.9561    
       400   287.77395     -41254.923     -6035.3577      660.0971       3731.0868    
       500   293.28267     -41242.312      11062.506     -886.59909      3729.2175    
       600   303.7297      -41237.282      5949.3114     -1910.7537      3727.3482    
       700   313.42272     -41255.243     -10638.708     -160.62703      3725.4789    
       800   287.23363     -41264.176      9835.8324      1296.6911      3723.6096    
       900   304.22946     -41285.266      3824.9833      5788.9671      3721.7404    
      1000   309.42305     -41273.252     -6295.6778     -4989.6478      3719.8711    
      1100   306.68277     -41253.246      1537.8622      1531.2431      3718.0018    
      1200   296.47374     -41244.466     -2472.5505     -5749.9706      3716.1325    
      1300   298.94884     -41252.927      11150.996      4376.4158      3714.2632    
      1400   301.11523     -41256.57      -1429.6174     -1175.625       3712.3939    
      1500   307.31141     -41247.136      16984.919     -3278.166       3710.5247    
      1600   312.35199     -41223.922      18248.607      3012.9056      3708.6554    
      1700   311.49882     -41234.485     -4303.5257     -228.66095      3706.7861    
      1800   309.22843     -41268.022      15531.408      3887.98        3704.9168    
      1900   292.60799     -41252.864      4665.1785      16.361713      3703.0475    
      2000   298.24003     -41246.549      3602.8598      12352.79       3701.1783    
Loop time of 90.2266 on 8 procs for 2000 steps with 350 atoms

Performance: 0.958 ns/day, 25.063 hours/ns, 22.166 timesteps/s, 7.758 katom-step/s
99.1% CPU use with 8 MPI tasks x 1 OpenMP threads

MPI task timing breakdown:
Section |  min time  |  avg time  |  max time  |%varavg| %total
---------------------------------------------------------------
Pair    | 52.046     | 61.653     | 75.989     | 132.6 | 68.33
Bond    | 0.00053538 | 0.00064965 | 0.00079438 |   0.0 |  0.00
Neigh   | 4.413      | 5.1109     | 6.2816     |  38.0 |  5.66
Comm    | 0.68017    | 15.01      | 24.608     | 268.7 | 16.64
Output  | 0.0038234  | 0.0046269  | 0.0052307  |   0.7 |  0.01
Modify  | 7.2318     | 8.4106     | 9.1083     |  29.8 |  9.32
Other   |            | 0.03644    |            |       |  0.04

Nlocal:          43.75 ave          50 max          39 min
Histogram: 1 1 2 0 1 1 0 1 0 1
Nghost:         3383.5 ave        3411 max        3349 min
Histogram: 1 0 1 2 0 0 0 1 1 2
Neighs:        28994.6 ave       32947 max       26067 min
Histogram: 1 1 2 0 1 1 0 1 0 1

Total # of neighbors = 231957
Ave neighs/atom = 662.73429
Ave special neighs/atom = 0
Neighbor list builds = 200
Dangerous builds not checked
OMP_NUM_THREADS environment is not set. Defaulting to 1 thread. (src/comm.cpp:98)
  using 1 OpenMP thread(s) per MPI task
Reading restart file ...
  restart file = 2 Aug 2023, LAMMPS = 2 Aug 2023
  restoring atom style full from restart
  triclinic box = (0.069742272 0.40119664 -0.14695996) to (15.608458 13.818203 17.78526) with tilt (-7.7490667 -1.5378211 0.14232347)
WARNING: Triclinic box skew is large. LAMMPS will run inefficiently. (src/domain.cpp:220)
  2 by 2 by 2 MPI processor grid
  pair style reaxff stores no restart info
  350 atoms
Finding 1-2 1-3 1-4 neighbors ...
  special bond factors lj:    0        0        0       
  special bond factors coul:  0        0        0       
     0 = max # of 1-2 neighbors
     0 = max # of 1-3 neighbors
     0 = max # of 1-4 neighbors
     1 = max # of special neighbors
  special bonds CPU = 0.000 seconds
  read_restart CPU = 0.003 seconds
*****Positive-deform 2 starts.*****
Resetting global fix info from restart file:
  fix style: nvt, fix ID: 4
All restart file global fix info was re-assigned
Neighbor list info ...
  update: every = 10 steps, delay = 0 steps, check = no
  max neighbors/atom: 2000, page size: 100000
  master list distance cutoff = 12
  ghost atom cutoff = 12
  binsize = 6, bins = 5 3 3
  2 neighbor lists, perpetual/occasional/extra = 2 0 0
  (1) pair reaxff, perpetual
      attributes: half, newton off, ghost
      pair build: half/bin/newtoff/ghost
      stencil: full/ghost/bin/3d
      bin: standard
  (2) fix qeq/reaxff, perpetual, copy from (1)
      attributes: half, newton off
      pair build: copy
      stencil: none
      bin: none
Setting up Verlet run ...
  Unit style    : real
  Current step  : 0
  Time step     : 0.5
Per MPI rank memory allocation (min/avg/max) = 129.3 | 130.4 | 131.4 Mbytes
   Step          Temp          PotEng         Press        f_avgp[1]        Volume    
         0   289.20158     -41249.632     -5135.8981      0              3738.5639    
       100   269.05289     -41261.59       3823.342       1828.9502      3740.4332    
       200   278.28571     -41268.015      3046.1638     -4630.3708      3742.3025    
       300   293.94456     -41272.223     -7760.567      -2128.9793      3744.1717    
       400   298.8473      -41265.249     -8917.272      -963.58949      3746.041     
       500   296.76114     -41244.427      987.4515      -502.78312      3747.9103    
       600   301.8692      -41235.514     -5516.7041     -2683.9079      3749.7796    
       700   307.40439     -41244.906     -11981.025     -3475.7916      3751.6489    
       800   276.82116     -41248.493      5934.409      -93.495467      3753.5182    
       900   289.10227     -41264.537      2393.8674      5381.4368      3755.3874    
      1000   297.81311     -41251.628     -1651.8975     -726.78599      3757.2567    
      1100   304.77892     -41243.623     -8392.8783      3057.0375      3759.126     
      1200   312.93305     -41255.32      -16574.096     -6380.1362      3760.9953    
      1300   285.64008     -41235.78      -7940.5079     -1273.9746      3762.8646    
      1400   292.33554     -41255.768     -11135.998     -2005.0419      3764.7338    
      1500   283.50896     -41252.284     -659.18823     -1370.5742      3766.6031    
      1600   295.19467     -41252.088     -17792.264     -5635.7898      3768.4724    
      1700   300.59792     -41230.973     -14766.012     -4402.5928      3770.3417    
      1800   301.64372     -41221.151     -13040.097     -5149.7921      3772.211     
      1900   282.53524     -41210.244     -5282.2847      4035.697       3774.0803    
      2000   270.19443     -41228.804     -18858.75       1845.9838      3775.9495    
Loop time of 88.6641 on 8 procs for 2000 steps with 350 atoms

Performance: 0.974 ns/day, 24.629 hours/ns, 22.557 timesteps/s, 7.895 katom-step/s
99.0% CPU use with 8 MPI tasks x 1 OpenMP threads

MPI task timing breakdown:
Section |  min time  |  avg time  |  max time  |%varavg| %total
---------------------------------------------------------------
Pair    | 51.323     | 60.683     | 74.524     | 129.3 | 68.44
Bond    | 0.00052639 | 0.00065855 | 0.0008199  |   0.0 |  0.00
Neigh   | 4.3417     | 5.023      | 6.1943     |  37.8 |  5.67
Comm    | 0.72533    | 14.566     | 23.92      | 263.9 | 16.43
Output  | 0.0038332  | 0.004565   | 0.0051184  |   0.7 |  0.01
Modify  | 7.176      | 8.3507     | 9.0327     |  29.4 |  9.42
Other   |            | 0.03603    |            |       |  0.04

Nlocal:          43.75 ave          48 max          40 min
Histogram: 1 1 1 1 0 1 1 0 1 1
Nghost:         3321.5 ave        3354 max        3289 min
Histogram: 2 1 0 0 1 0 1 0 1 2
Neighs:        28442.2 ave       31031 max       26159 min
Histogram: 1 1 1 1 1 0 1 0 1 1

Total # of neighbors = 227538
Ave neighs/atom = 650.10857
Ave special neighs/atom = 0
Neighbor list builds = 200
Dangerous builds not checked
OMP_NUM_THREADS environment is not set. Defaulting to 1 thread. (src/comm.cpp:98)
  using 1 OpenMP thread(s) per MPI task
Reading restart file ...
  restart file = 2 Aug 2023, LAMMPS = 2 Aug 2023
  restoring atom style full from restart
  triclinic box = (0.069742272 0.40119664 -0.14695996) to (15.608458 13.818203 17.78526) with tilt (-7.7490667 -1.5378211 0.14232347)
WARNING: Triclinic box skew is large. LAMMPS will run inefficiently. (src/domain.cpp:220)
  2 by 2 by 2 MPI processor grid
  pair style reaxff stores no restart info
  350 atoms
Finding 1-2 1-3 1-4 neighbors ...
  special bond factors lj:    0        0        0       
  special bond factors coul:  0        0        0       
     0 = max # of 1-2 neighbors
     0 = max # of 1-3 neighbors
     0 = max # of 1-4 neighbors
     1 = max # of special neighbors
  special bonds CPU = 0.000 seconds
  read_restart CPU = 0.003 seconds
*****Negative-deform 3 starts.*****
Resetting global fix info from restart file:
  fix style: nvt, fix ID: 4
All restart file global fix info was re-assigned
Neighbor list info ...
  update: every = 10 steps, delay = 0 steps, check = no
  max neighbors/atom: 2000, page size: 100000
  master list distance cutoff = 12
  ghost atom cutoff = 12
  binsize = 6, bins = 5 3 3
  2 neighbor lists, perpetual/occasional/extra = 2 0 0
  (1) pair reaxff, perpetual
      attributes: half, newton off, ghost
      pair build: half/bin/newtoff/ghost
      stencil: full/ghost/bin/3d
      bin: standard
  (2) fix qeq/reaxff, perpetual, copy from (1)
      attributes: half, newton off
      pair build: copy
      stencil: none
      bin: none
Setting up Verlet run ...
  Unit style    : real
  Current step  : 0
  Time step     : 0.5
Per MPI rank memory allocation (min/avg/max) = 129.3 | 130.4 | 131.3 Mbytes
   Step          Temp          PotEng         Press        f_avgp[1]        Volume    
         0   289.20158     -41249.632     -5135.8981      0              3738.5639    
       100   269.05289     -41261.59       3827.1672      1829.4252      3736.6946    
       200   278.42465     -41268.233      4349.7474     -4345.2537      3734.8253    
       300   291.0828      -41269.481     -6232.3138     -1142.9776      3732.9561    
       400   288.51811     -41256.046     -8256.7457      1349.95        3731.0868    
       500   290.59542     -41237.917      581.80193     -3554.027       3729.2175    
       600   297.61896     -41232.63       7984.0109     -2393.3849      3727.3482    
       700   304.20432     -41244.289     -9634.4726      2426.5305      3725.4789    
       800   287.39135     -41261.459     -1800.5101     -2447.3038      3723.6096    
       900   292.28787     -41268.943     -12126.736      4841.4082      3721.7404    
      1000   290.75953     -41248.735      1748.4187      1850.684       3719.8711    
      1100   313.14963     -41251.242     -1321.8378      170.53697      3718.0018    
      1200   311.96588     -41249.364     -18467.175     -4234.0945      3716.1325    
      1300   297.62633     -41245.614      2294.1261     -968.52813      3714.2632    
      1400   284.55142     -41249.374      1074.0365      2888.3171      3712.3939    
      1500   295.84929     -41270.9       -41.188566      3344.5117      3710.5247    
      1600   290.12734     -41279.545      1755.4514     -4781.1007      3708.6554    
      1700   284.05162     -41267.077     -7811.034       2186.2628      3706.7861    
      1800   291.93466     -41246.121      7089.9748     -4579.5398      3704.9168    
      1900   307.58408     -41244.468      4954.8685     -1365.414       3703.0475    
      2000   298.16688     -41237.232      274.21394     -959.05927      3701.1783    
Loop time of 89.9678 on 8 procs for 2000 steps with 350 atoms

Performance: 0.960 ns/day, 24.991 hours/ns, 22.230 timesteps/s, 7.781 katom-step/s
99.0% CPU use with 8 MPI tasks x 1 OpenMP threads

MPI task timing breakdown:
Section |  min time  |  avg time  |  max time  |%varavg| %total
---------------------------------------------------------------
Pair    | 52.276     | 61.727     | 75.633     | 131.8 | 68.61
Bond    | 0.00050842 | 0.00063882 | 0.00081557 |   0.0 |  0.00
Neigh   | 4.3922     | 5.0918     | 6.247      |  37.5 |  5.66
Comm    | 0.84992    | 14.751     | 24.193     | 269.5 | 16.40
Output  | 0.0036911  | 0.0044096  | 0.0049385  |   0.6 |  0.00
Modify  | 7.1952     | 8.3575     | 9.0551     |  29.5 |  9.29
Other   |            | 0.03572    |            |       |  0.04

Nlocal:          43.75 ave          47 max          38 min
Histogram: 1 0 0 1 1 0 1 1 1 2
Nghost:        3384.62 ave        3425 max        3336 min
Histogram: 1 1 0 0 2 0 0 2 1 1
Neighs:        28977.6 ave       31050 max       25311 min
Histogram: 1 0 0 1 1 0 1 1 0 3

Total # of neighbors = 231821
Ave neighs/atom = 662.34571
Ave special neighs/atom = 0
Neighbor list builds = 200
Dangerous builds not checked
OMP_NUM_THREADS environment is not set. Defaulting to 1 thread. (src/comm.cpp:98)
  using 1 OpenMP thread(s) per MPI task
Reading restart file ...
  restart file = 2 Aug 2023, LAMMPS = 2 Aug 2023
  restoring atom style full from restart
  triclinic box = (0.069742272 0.40119664 -0.14695996) to (15.608458 13.818203 17.78526) with tilt (-7.7490667 -1.5378211 0.14232347)
WARNING: Triclinic box skew is large. LAMMPS will run inefficiently. (src/domain.cpp:220)
  2 by 2 by 2 MPI processor grid
  pair style reaxff stores no restart info
  350 atoms
Finding 1-2 1-3 1-4 neighbors ...
  special bond factors lj:    0        0        0       
  special bond factors coul:  0        0        0       
     0 = max # of 1-2 neighbors
     0 = max # of 1-3 neighbors
     0 = max # of 1-4 neighbors
     1 = max # of special neighbors
  special bonds CPU = 0.000 seconds
  read_restart CPU = 0.002 seconds
*****Positive-deform 3 starts.*****
Resetting global fix info from restart file:
  fix style: nvt, fix ID: 4
All restart file global fix info was re-assigned
Neighbor list info ...
  update: every = 10 steps, delay = 0 steps, check = no
  max neighbors/atom: 2000, page size: 100000
  master list distance cutoff = 12
  ghost atom cutoff = 12
  binsize = 6, bins = 5 3 3
  2 neighbor lists, perpetual/occasional/extra = 2 0 0
  (1) pair reaxff, perpetual
      attributes: half, newton off, ghost
      pair build: half/bin/newtoff/ghost
      stencil: full/ghost/bin/3d
      bin: standard
  (2) fix qeq/reaxff, perpetual, copy from (1)
      attributes: half, newton off
      pair build: copy
      stencil: none
      bin: none
Setting up Verlet run ...
  Unit style    : real
  Current step  : 0
  Time step     : 0.5
Per MPI rank memory allocation (min/avg/max) = 129.3 | 130.4 | 131.3 Mbytes
   Step          Temp          PotEng         Press        f_avgp[1]        Volume    
         0   289.20158     -41249.632     -5135.8981      0              3738.5639    
       100   269.05289     -41261.59       3823.342       1828.9502      3740.4332    
       200   279.24043     -41269.163      3304.0626     -4750.0112      3742.3025    
       300   294.07763     -41272.538     -6044.1732     -1824.9134      3744.1717    
       400   296.45791     -41262.786     -7999.9057     -582.18532      3746.041     
       500   294.59783     -41242.637      147.27134     -1194.9274      3747.9103    
       600   294.69025     -41228.449     -10721.163     -4173.9634      3749.7796    
       700   306.40949     -41243.939      3298.4102     -841.8161       3751.6489    
       800   290.62969     -41261.791     -1050.0593     -462.18009      3753.5182    
       900   301.1848      -41276.191      621.32604      622.1869       3755.3874    
      1000   301.18727     -41258.552      553.43825     -1428.0219      3757.2567    
      1100   292.65994     -41227.298      8872.6965     -546.28699      3759.126     
      1200   299.20741     -41233.837      2524.3494     -321.33633      3760.9953    
      1300   301.9687      -41245.341     -6419.7638     -1789.0939      3762.8646    
      1400   296.41889     -41249.559     -14077.168     -5000.2106      3764.7338    
      1500   319.48106     -41278.542      1114.7092     -3803.1273      3766.6031    
      1600   278.81756     -41249.882     -9964.6707     -3428.8875      3768.4724    
      1700   289.46836     -41275.855     -1774.0805     -2582.7813      3770.3417    
      1800   292.8497      -41268.466      2182.9108     -4739.7106      3772.211     
      1900   298.29767     -41242.166      2372.8953     -1883.3944      3774.0803    
      2000   310.8353      -41248.518     -9649.776      -1472.9068      3775.9495    
Loop time of 89.5606 on 8 procs for 2000 steps with 350 atoms

Performance: 0.965 ns/day, 24.878 hours/ns, 22.331 timesteps/s, 7.816 katom-step/s
99.0% CPU use with 8 MPI tasks x 1 OpenMP threads

MPI task timing breakdown:
Section |  min time  |  avg time  |  max time  |%varavg| %total
---------------------------------------------------------------
Pair    | 53.233     | 62.535     | 75.347     | 111.9 | 69.82
Bond    | 0.00050047 | 0.0006645  | 0.00081445 |   0.0 |  0.00
Neigh   | 4.027      | 4.7828     | 5.8263     |  32.7 |  5.34
Comm    | 1.0517     | 13.854     | 23.188     | 237.7 | 15.47
Output  | 0.0038164  | 0.0045939  | 0.0051852  |   0.7 |  0.01
Modify  | 7.2921     | 8.3485     | 9.119      |  24.8 |  9.32
Other   |            | 0.03572    |            |       |  0.04

Nlocal:          43.75 ave          48 max          37 min
Histogram: 1 0 0 0 1 1 3 0 0 2
Nghost:        3319.25 ave        3350 max        3280 min
Histogram: 1 0 0 0 3 2 0 0 0 2
Neighs:        28425.8 ave       31175 max       24203 min
Histogram: 1 0 0 0 1 1 3 0 0 2

Total # of neighbors = 227406
Ave neighs/atom = 649.73143
Ave special neighs/atom = 0
Neighbor list builds = 200
Dangerous builds not checked
OMP_NUM_THREADS environment is not set. Defaulting to 1 thread. (src/comm.cpp:98)
  using 1 OpenMP thread(s) per MPI task
Reading restart file ...
  restart file = 2 Aug 2023, LAMMPS = 2 Aug 2023
  restoring atom style full from restart
  triclinic box = (0.069742272 0.40119664 -0.14695996) to (15.608458 13.818203 17.78526) with tilt (-7.7490667 -1.5378211 0.14232347)
WARNING: Triclinic box skew is large. LAMMPS will run inefficiently. (src/domain.cpp:220)
  2 by 2 by 2 MPI processor grid
  pair style reaxff stores no restart info
  350 atoms
Finding 1-2 1-3 1-4 neighbors ...
  special bond factors lj:    0        0        0       
  special bond factors coul:  0        0        0       
     0 = max # of 1-2 neighbors
     0 = max # of 1-3 neighbors
     0 = max # of 1-4 neighbors
     1 = max # of special neighbors
  special bonds CPU = 0.000 seconds
  read_restart CPU = 0.003 seconds
*****Negative-deform 4 starts.*****
Resetting global fix info from restart file:
  fix style: nvt, fix ID: 4
All restart file global fix info was re-assigned
Neighbor list info ...
  update: every = 10 steps, delay = 0 steps, check = no
  max neighbors/atom: 2000, page size: 100000
  master list distance cutoff = 12
  ghost atom cutoff = 12
  binsize = 6, bins = 5 3 3
  2 neighbor lists, perpetual/occasional/extra = 2 0 0
  (1) pair reaxff, perpetual
      attributes: half, newton off, ghost
      pair build: half/bin/newtoff/ghost
      stencil: full/ghost/bin/3d
      bin: standard
  (2) fix qeq/reaxff, perpetual, copy from (1)
      attributes: half, newton off
      pair build: copy
      stencil: none
      bin: none
Setting up Verlet run ...
  Unit style    : real
  Current step  : 0
  Time step     : 0.5
Per MPI rank memory allocation (min/avg/max) = 129.3 | 130.4 | 131.4 Mbytes
   Step          Temp          PotEng         Press        f_avgp[1]        Volume    
         0   289.20158     -41249.632     -5135.8981      0              3738.5639    
       100   269.05289     -41261.59       3825.2537      1829.1876      3738.5639    
       200   278.62423     -41268.673      4429.8439     -4527.6067      3738.5639    
       300   292.15381     -41270.833     -8539.4154     -1485.8277      3738.5639    
       400   292.67921     -41259.499     -2820.0712      38.669815      3738.5639    
       500   289.23053     -41237.039      6730.2541     -4294.2174      3738.5639    
       600   316.25821     -41251.496     -3442.6373      518.51647      3738.5639    
       700   297.52545     -41237.183     -2054.6295     -985.25373      3738.5639    
       800   277.06376     -41250.553      11414.346      11.429308      3738.5639    
       900   303.10191     -41282.918     -12901.321     -575.44012      3738.5639    
      1000   307.32094     -41266.142     -6146.6849     -569.54195      3738.5639    
      1100   299.65763     -41242.974      5579.0822     -792.26828      3738.5639    
      1200   293.08115     -41235.139      2956.448      -6377.4441      3738.5639    
      1300   312.49862     -41260.009     -12166.203     -7075.7841      3738.5639    
      1400   299.63785     -41258.583      8899.3937      229.2606       3738.5639    
      1500   285.07516     -41269.256      9459.3328     -173.04743      3738.5639    
      1600   285.31659     -41285.494     -1517.8649     -4917.3643      3738.5639    
      1700   288.95962     -41264.752      3771.7998      4910.6423      3738.5639    
      1800   298.77748     -41255.775      8051.0107      4020.5063      3738.5639    
      1900   296.13557     -41241.383     -11459.958     -2336.9064      3738.5639    
      2000   321.08876     -41256.121     -10805.211     -2192.526       3738.5639    
Loop time of 93.1799 on 8 procs for 2000 steps with 350 atoms

Performance: 0.927 ns/day, 25.883 hours/ns, 21.464 timesteps/s, 7.512 katom-step/s
98.9% CPU use with 8 MPI tasks x 1 OpenMP threads

MPI task timing breakdown:
Section |  min time  |  avg time  |  max time  |%varavg| %total
---------------------------------------------------------------
Pair    | 51.511     | 67.489     | 78.674     | 146.9 | 72.43
Bond    | 0.00051859 | 0.00068972 | 0.00092274 |   0.0 |  0.00
Neigh   | 4.3642     | 5.5218     | 6.2524     |  37.0 |  5.93
Comm    | 0.65428    | 11.837     | 27.808     | 350.9 | 12.70
Output  | 0.0040619  | 0.0049206  | 0.0054932  |   0.7 |  0.01
Modify  | 7.5561     | 8.2892     | 9.4413     |  30.2 |  8.90
Other   |            | 0.03789    |            |       |  0.04

Nlocal:          43.75 ave          49 max          37 min
Histogram: 1 0 0 2 1 0 1 1 0 2
Nghost:        3352.88 ave        3388 max        3305 min
Histogram: 1 0 1 0 0 2 2 0 0 2
Neighs:          28701 ave       32086 max       24514 min
Histogram: 1 0 0 2 1 0 1 1 0 2

Total # of neighbors = 229608
Ave neighs/atom = 656.02286
Ave special neighs/atom = 0
Neighbor list builds = 200
Dangerous builds not checked
OMP_NUM_THREADS environment is not set. Defaulting to 1 thread. (src/comm.cpp:98)
  using 1 OpenMP thread(s) per MPI task
Reading restart file ...
  restart file = 2 Aug 2023, LAMMPS = 2 Aug 2023
  restoring atom style full from restart
  triclinic box = (0.069742272 0.40119664 -0.14695996) to (15.608458 13.818203 17.78526) with tilt (-7.7490667 -1.5378211 0.14232347)
WARNING: Triclinic box skew is large. LAMMPS will run inefficiently. (src/domain.cpp:220)
  2 by 2 by 2 MPI processor grid
  pair style reaxff stores no restart info
  350 atoms
Finding 1-2 1-3 1-4 neighbors ...
  special bond factors lj:    0        0        0       
  special bond factors coul:  0        0        0       
     0 = max # of 1-2 neighbors
     0 = max # of 1-3 neighbors
     0 = max # of 1-4 neighbors
     1 = max # of special neighbors
  special bonds CPU = 0.000 seconds
  read_restart CPU = 0.003 seconds
*****Positive-deform 4 starts.*****
Resetting global fix info from restart file:
  fix style: nvt, fix ID: 4
All restart file global fix info was re-assigned
Neighbor list info ...
  update: every = 10 steps, delay = 0 steps, check = no
  max neighbors/atom: 2000, page size: 100000
  master list distance cutoff = 12
  ghost atom cutoff = 12
  binsize = 6, bins = 5 3 3
  2 neighbor lists, perpetual/occasional/extra = 2 0 0
  (1) pair reaxff, perpetual
      attributes: half, newton off, ghost
      pair build: half/bin/newtoff/ghost
      stencil: full/ghost/bin/3d
      bin: standard
  (2) fix qeq/reaxff, perpetual, copy from (1)
      attributes: half, newton off
      pair build: copy
      stencil: none
      bin: none
Setting up Verlet run ...
  Unit style    : real
  Current step  : 0
  Time step     : 0.5
Per MPI rank memory allocation (min/avg/max) = 129.3 | 130.4 | 131.4 Mbytes
   Step          Temp          PotEng         Press        f_avgp[1]        Volume    
         0   289.20158     -41249.632     -5135.8981      0              3738.5639    
       100   269.05289     -41261.59       3825.2537      1829.1876      3738.5639    
       200   278.44372     -41267.773      3750.2486     -4425.8335      3738.5639    
       300   291.83683     -41269.557     -6022.8137     -1320.502       3738.5639    
       400   294.06768     -41260.619     -10087.646     -70.742528      3738.5639    
       500   301.26851     -41249.773      3181.9458     -1074.424       3738.5639    
       600   292.11094     -41225.499     -6654.6507     -3098.3797      3738.5639    
       700   308.25136     -41243.736     -752.87738      727.23434      3738.5639    
       800   269.51263     -41236.667      6148.4923     -2066.5472      3738.5639    
       900   283.08663     -41258.03       994.71932      2432.7127      3738.5639    
      1000   297.16467     -41255.019      3056.9077     -1613.3033      3738.5639    
      1100   301.83608     -41234.03      -2562.1534     -61.947227      3738.5639    
      1200   311.35691     -41242.631     -5990.832      -4816.0709      3738.5639    
      1300   304.54256     -41246.769     -1090.7867     -4385.1291      3738.5639    
      1400   304.29465     -41264.24       7258.5979      671.20383      3738.5639    
      1500   298.01256     -41265.245     -17430.061     -5018.8873      3738.5639    
      1600   290.00899     -41269.064      4460.4884     -564.64079      3738.5639    
      1700   296.41513     -41286.789     -5502.1876     -6813.694       3738.5639    
      1800   286.31202     -41251.647     -5236.2622      222.3991       3738.5639    
      1900   305.4001      -41248.651      8058.8701      1988.8103      3738.5639    
      2000   312.44929     -41251.512     -7141.3762     -1387.7526      3738.5639    
Loop time of 92.9979 on 8 procs for 2000 steps with 350 atoms

Performance: 0.929 ns/day, 25.833 hours/ns, 21.506 timesteps/s, 7.527 katom-step/s
99.0% CPU use with 8 MPI tasks x 1 OpenMP threads

MPI task timing breakdown:
Section |  min time  |  avg time  |  max time  |%varavg| %total
---------------------------------------------------------------
Pair    | 51.31      | 67.31      | 78.499     | 146.7 | 72.38
Bond    | 0.00055671 | 0.00070028 | 0.00090746 |   0.0 |  0.00
Neigh   | 4.4006     | 5.5522     | 6.2919     |  36.9 |  5.97
Comm    | 0.64685    | 11.832     | 27.828     | 350.0 | 12.72
Output  | 0.0038688  | 0.0046798  | 0.0052439  |   0.7 |  0.01
Modify  | 7.5229     | 8.26       | 9.4085     |  30.4 |  8.88
Other   |            | 0.03802    |            |       |  0.04

Nlocal:          43.75 ave          48 max          38 min
Histogram: 1 1 0 0 0 1 2 0 1 2
Nghost:        3341.25 ave        3364 max        3308 min
Histogram: 1 2 0 0 0 1 0 0 0 4
Neighs:        28703.8 ave       31356 max       25103 min
Histogram: 1 1 0 0 0 2 1 0 1 2

Total # of neighbors = 229630
Ave neighs/atom = 656.08571
Ave special neighs/atom = 0
Neighbor list builds = 200
Dangerous builds not checked
OMP_NUM_THREADS environment is not set. Defaulting to 1 thread. (src/comm.cpp:98)
  using 1 OpenMP thread(s) per MPI task
Reading restart file ...
  restart file = 2 Aug 2023, LAMMPS = 2 Aug 2023
  restoring atom style full from restart
  triclinic box = (0.069742272 0.40119664 -0.14695996) to (15.608458 13.818203 17.78526) with tilt (-7.7490667 -1.5378211 0.14232347)
WARNING: Triclinic box skew is large. LAMMPS will run inefficiently. (src/domain.cpp:220)
  2 by 2 by 2 MPI processor grid
  pair style reaxff stores no restart info
  350 atoms
Finding 1-2 1-3 1-4 neighbors ...
  special bond factors lj:    0        0        0       
  special bond factors coul:  0        0        0       
     0 = max # of 1-2 neighbors
     0 = max # of 1-3 neighbors
     0 = max # of 1-4 neighbors
     1 = max # of special neighbors
  special bonds CPU = 0.000 seconds
  read_restart CPU = 0.003 seconds
*****Negative-deform 5 starts.*****
Resetting global fix info from restart file:
  fix style: nvt, fix ID: 4
All restart file global fix info was re-assigned
Neighbor list info ...
  update: every = 10 steps, delay = 0 steps, check = no
  max neighbors/atom: 2000, page size: 100000
  master list distance cutoff = 12
  ghost atom cutoff = 12
  binsize = 6, bins = 5 3 3
  2 neighbor lists, perpetual/occasional/extra = 2 0 0
  (1) pair reaxff, perpetual
      attributes: half, newton off, ghost
      pair build: half/bin/newtoff/ghost
      stencil: full/ghost/bin/3d
      bin: standard
  (2) fix qeq/reaxff, perpetual, copy from (1)
      attributes: half, newton off
      pair build: copy
      stencil: none
      bin: none
Setting up Verlet run ...
  Unit style    : real
  Current step  : 0
  Time step     : 0.5
Per MPI rank memory allocation (min/avg/max) = 129.3 | 130.4 | 131.4 Mbytes
   Step          Temp          PotEng         Press        f_avgp[1]        Volume    
         0   289.20158     -41249.632     -5135.8981      0              3738.5639    
       100   269.05289     -41261.59       3825.2537      1829.1876      3738.5639    
       200   278.77448     -41268.84       4069.4338     -4531.4379      3738.5639    
       300   292.45391     -41270.846     -5564.0152     -1823.5311      3738.5639    
       400   292.4941      -41259.338     -4419.7364      525.57102      3738.5639    
       500   291.39545     -41238.799      3027.9228     -1529.4673      3738.5639    
       600   302.24761     -41235.126      1952.2364     -1026.1055      3738.5639    
       700   304.13094     -41235.452     -1403.8003     -959.84758      3738.5639    
       800   274.71217     -41236.795     -109.08547      1545.2139      3738.5639    
       900   289.13547     -41269.833     -1656.9451      496.61208      3738.5639    
      1000   310.16864     -41280.003      13358.98      -2403.8556      3738.5639    
      1100   311.52254     -41257.781      4939.1475      863.54907      3738.5639    
      1200   297.73261     -41236.334     -958.74246     -933.35248      3738.5639    
      1300   285.89823     -41227.694      4059.1697      2383.0732      3738.5639    
      1400   277.24698     -41223.445     -4635.6317      565.84409      3738.5639    
      1500   297.13392     -41236.3       -3419.5737      1666.8783      3738.5639    
      1600   309.6475      -41245.022      1677.1648     -1001.0602      3738.5639    
      1700   310.3243      -41254.237      4944.9649      781.95101      3738.5639    
      1800   285.71244     -41251.102      13558.003     -156.31204      3738.5639    
      1900   293.72669     -41263.029      12433.564      2252.7467      3738.5639    
      2000   301.52346     -41247.07      -2273.0262      1162.9643      3738.5639    
Loop time of 93.1651 on 8 procs for 2000 steps with 350 atoms

Performance: 0.927 ns/day, 25.879 hours/ns, 21.467 timesteps/s, 7.514 katom-step/s
99.0% CPU use with 8 MPI tasks x 1 OpenMP threads

MPI task timing breakdown:
Section |  min time  |  avg time  |  max time  |%varavg| %total
---------------------------------------------------------------
Pair    | 51.471     | 67.566     | 78.748     | 146.4 | 72.52
Bond    | 0.00053347 | 0.00067917 | 0.0009059  |   0.0 |  0.00
Neigh   | 4.3873     | 5.5413     | 6.259      |  36.9 |  5.95
Comm    | 0.61997    | 11.798     | 27.888     | 350.2 | 12.66
Output  | 0.0038077  | 0.0046502  | 0.0052088  |   0.7 |  0.00
Modify  | 7.4968     | 8.2163     | 9.3678     |  30.4 |  8.82
Other   |            | 0.03799    |            |       |  0.04

Nlocal:          43.75 ave          49 max          39 min
Histogram: 1 0 0 2 1 2 0 0 1 1
Nghost:        3377.25 ave        3419 max        3332 min
Histogram: 1 0 1 0 2 2 0 0 0 2
Neighs:        28691.9 ave       31942 max       25777 min
Histogram: 1 0 2 1 1 1 0 1 0 1

Total # of neighbors = 229535
Ave neighs/atom = 655.81429
Ave special neighs/atom = 0
Neighbor list builds = 200
Dangerous builds not checked
OMP_NUM_THREADS environment is not set. Defaulting to 1 thread. (src/comm.cpp:98)
  using 1 OpenMP thread(s) per MPI task
Reading restart file ...
  restart file = 2 Aug 2023, LAMMPS = 2 Aug 2023
  restoring atom style full from restart
  triclinic box = (0.069742272 0.40119664 -0.14695996) to (15.608458 13.818203 17.78526) with tilt (-7.7490667 -1.5378211 0.14232347)
WARNING: Triclinic box skew is large. LAMMPS will run inefficiently. (src/domain.cpp:220)
  2 by 2 by 2 MPI processor grid
  pair style reaxff stores no restart info
  350 atoms
Finding 1-2 1-3 1-4 neighbors ...
  special bond factors lj:    0        0        0       
  special bond factors coul:  0        0        0       
     0 = max # of 1-2 neighbors
     0 = max # of 1-3 neighbors
     0 = max # of 1-4 neighbors
     1 = max # of special neighbors
  special bonds CPU = 0.000 seconds
  read_restart CPU = 0.002 seconds
*****Positive-deform 5 starts.*****
Resetting global fix info from restart file:
  fix style: nvt, fix ID: 4
All restart file global fix info was re-assigned
Neighbor list info ...
  update: every = 10 steps, delay = 0 steps, check = no
  max neighbors/atom: 2000, page size: 100000
  master list distance cutoff = 12
  ghost atom cutoff = 12
  binsize = 6, bins = 5 3 3
  2 neighbor lists, perpetual/occasional/extra = 2 0 0
  (1) pair reaxff, perpetual
      attributes: half, newton off, ghost
      pair build: half/bin/newtoff/ghost
      stencil: full/ghost/bin/3d
      bin: standard
  (2) fix qeq/reaxff, perpetual, copy from (1)
      attributes: half, newton off
      pair build: copy
      stencil: none
      bin: none
Setting up Verlet run ...
  Unit style    : real
  Current step  : 0
  Time step     : 0.5
Per MPI rank memory allocation (min/avg/max) = 129.3 | 130.4 | 131.4 Mbytes
   Step          Temp          PotEng         Press        f_avgp[1]        Volume    
         0   289.20158     -41249.632     -5135.8981      0              3738.5639    
       100   269.05289     -41261.59       3825.2537      1829.1876      3738.5639    
       200   278.75955     -41268.522      4253.4162     -4450.668       3738.5639    
       300   291.47495     -41269.553     -6699.2814     -1088.0602      3738.5639    
       400   294.86587     -41261.656     -7569.4096      755.02904      3738.5639    
       500   289.60782     -41237.237      6815.8529     -1929.3852      3738.5639    
       600   298.77964     -41232.332     -1266.1653     -1980.5173      3738.5639    
       700   294.85313     -41234.622     -4495.1459      1937.6832      3738.5639    
       800   282.76762     -41258.573     -213.44464     -213.14558      3738.5639    
       900   283.89333     -41264.785     -16402.872      423.92894      3738.5639    
      1000   305.29533     -41272.7        937.51555     -1086.444       3738.5639    
      1100   305.44675     -41251.161     -5983.1602     -2786.1646      3738.5639    
      1200   293.0304      -41237.179     -2069.7475     -362.7707       3738.5639    
      1300   313.67716     -41264.673     -1966.5061     -1096.8934      3738.5639    
      1400   289.65029     -41253.494     -6855.072       1141.204       3738.5639    
      1500   286.79741     -41253.919      6523.0382      1223.8249      3738.5639    
      1600   301.19923     -41264.997      8926.1039     -91.488785      3738.5639    
      1700   316.34653     -41262.73       7683.6917     -3118.7567      3738.5639    
      1800   304.69922     -41240.905     -3532.6685     -4292.0229      3738.5639    
      1900   304.96862     -41239.764     -4871.678      -3023.3343      3738.5639    
      2000   302.45228     -41260.941     -7943.2373      5883.4229      3738.5639    
Loop time of 92.8188 on 8 procs for 2000 steps with 350 atoms

Performance: 0.931 ns/day, 25.783 hours/ns, 21.547 timesteps/s, 7.542 katom-step/s
99.0% CPU use with 8 MPI tasks x 1 OpenMP threads

MPI task timing breakdown:
Section |  min time  |  avg time  |  max time  |%varavg| %total
---------------------------------------------------------------
Pair    | 51.674     | 67.503     | 78.31      | 144.8 | 72.73
Bond    | 0.00052251 | 0.00067376 | 0.00089857 |   0.0 |  0.00
Neigh   | 4.3637     | 5.5305     | 6.2685     |  37.1 |  5.96
Comm    | 0.63885    | 11.443     | 27.269     | 351.8 | 12.33
Output  | 0.0038832  | 0.0046906  | 0.0052452  |   0.7 |  0.01
Modify  | 7.5574     | 8.2981     | 9.4631     |  30.3 |  8.94
Other   |            | 0.03867    |            |       |  0.04

Nlocal:          43.75 ave          47 max          38 min
Histogram: 1 0 0 0 0 2 2 1 1 1
Nghost:        3361.38 ave        3395 max        3334 min
Histogram: 2 0 1 0 2 0 1 1 0 1
Neighs:        28708.9 ave       30750 max       25096 min
Histogram: 1 0 0 0 0 2 2 1 1 1

Total # of neighbors = 229671
Ave neighs/atom = 656.20286
Ave special neighs/atom = 0
Neighbor list builds = 200
Dangerous builds not checked
OMP_NUM_THREADS environment is not set. Defaulting to 1 thread. (src/comm.cpp:98)
  using 1 OpenMP thread(s) per MPI task
Reading restart file ...
  restart file = 2 Aug 2023, LAMMPS = 2 Aug 2023
  restoring atom style full from restart
  triclinic box = (0.069742272 0.40119664 -0.14695996) to (15.608458 13.818203 17.78526) with tilt (-7.7490667 -1.5378211 0.14232347)
WARNING: Triclinic box skew is large. LAMMPS will run inefficiently. (src/domain.cpp:220)
  2 by 2 by 2 MPI processor grid
  pair style reaxff stores no restart info
  350 atoms
Finding 1-2 1-3 1-4 neighbors ...
  special bond factors lj:    0        0        0       
  special bond factors coul:  0        0        0       
     0 = max # of 1-2 neighbors
     0 = max # of 1-3 neighbors
     0 = max # of 1-4 neighbors
     1 = max # of special neighbors
  special bonds CPU = 0.000 seconds
  read_restart CPU = 0.002 seconds
*****Negative-deform 6 starts.*****
Resetting global fix info from restart file:
  fix style: nvt, fix ID: 4
All restart file global fix info was re-assigned
Neighbor list info ...
  update: every = 10 steps, delay = 0 steps, check = no
  max neighbors/atom: 2000, page size: 100000
  master list distance cutoff = 12
  ghost atom cutoff = 12
  binsize = 6, bins = 5 3 3
  2 neighbor lists, perpetual/occasional/extra = 2 0 0
  (1) pair reaxff, perpetual
      attributes: half, newton off, ghost
      pair build: half/bin/newtoff/ghost
      stencil: full/ghost/bin/3d
      bin: standard
  (2) fix qeq/reaxff, perpetual, copy from (1)
      attributes: half, newton off
      pair build: copy
      stencil: none
      bin: none
Setting up Verlet run ...
  Unit style    : real
  Current step  : 0
  Time step     : 0.5
Per MPI rank memory allocation (min/avg/max) = 129.3 | 130.4 | 131.4 Mbytes
   Step          Temp          PotEng         Press        f_avgp[1]        Volume    
         0   289.20158     -41249.632     -5135.8981      0              3738.5639    
       100   269.05289     -41261.59       3825.2537      1829.1876      3738.5639    
       200   279.08293     -41268.637      3819.5813     -4420.8967      3738.5639    
       300   292.31778     -41270.748     -4790.8656     -1374.1147      3738.5639    
       400   291.57772     -41258.37      -7587.9158      323.98519      3738.5639    
       500   290.67181     -41238.054      3360.9102     -2819.0532      3738.5639    
       600   300.1754      -41233.511     -8310.5298     -2188.9115      3738.5639    
       700   306.06233     -41244.546     -6764.3178      978.2647       3738.5639    
       800   275.16233     -41247.553     -1414.5353      1718.2022      3738.5639    
       900   306.15286     -41283.401     -9330.0497     -144.37915      3738.5639    
      1000   299.80383     -41259.516      2253.2757     -288.50523      3738.5639    
      1100   313.82821     -41254.869     -3225.3825      1380.5359      3738.5639    
      1200   286.68612     -41228.415     -8583.1187     -1930.402       3738.5639    
      1300   307.96093     -41255.288      2992.3004     -854.65111      3738.5639    
      1400   314.62732     -41268.708      8200.2601     -405.47697      3738.5639    
      1500   294.78826     -41251.716      9448.5518     -2959.8642      3738.5639    
      1600   293.09691     -41262.547     -11355.685     -3513.084       3738.5639    
      1700   296.88401     -41286.493     -13395.532     -2374.7601      3738.5639    
      1800   291.43137     -41278.575      3532.7434     -3183.0708      3738.5639    
      1900   292.02401     -41242.128     -12930.318      2771.294       3738.5639    
      2000   297.03846     -41243.397      5199.0529     -3436.971       3738.5639    
Loop time of 93.0501 on 8 procs for 2000 steps with 350 atoms

Performance: 0.929 ns/day, 25.847 hours/ns, 21.494 timesteps/s, 7.523 katom-step/s
99.0% CPU use with 8 MPI tasks x 1 OpenMP threads

MPI task timing breakdown:
Section |  min time  |  avg time  |  max time  |%varavg| %total
---------------------------------------------------------------
Pair    | 51.562     | 67.534     | 78.021     | 147.7 | 72.58
Bond    | 0.00052219 | 0.00065486 | 0.00080198 |   0.0 |  0.00
Neigh   | 4.4372     | 5.5796     | 6.3489     |  37.0 |  6.00
Comm    | 1.0676     | 11.559     | 27.527     | 357.0 | 12.42
Output  | 0.0040324  | 0.0048335  | 0.0053677  |   0.7 |  0.01
Modify  | 7.5666     | 8.3335     | 9.4834     |  30.3 |  8.96
Other   |            | 0.03867    |            |       |  0.04

Nlocal:          43.75 ave          51 max          38 min
Histogram: 2 0 0 2 1 0 2 0 0 1
Nghost:        3352.62 ave        3402 max        3298 min
Histogram: 1 0 0 1 2 1 1 1 0 1
Neighs:          28715 ave       33279 max       25109 min
Histogram: 2 0 0 2 1 0 2 0 0 1

Total # of neighbors = 229720
Ave neighs/atom = 656.34286
Ave special neighs/atom = 0
Neighbor list builds = 200
Dangerous builds not checked
OMP_NUM_THREADS environment is not set. Defaulting to 1 thread. (src/comm.cpp:98)
  using 1 OpenMP thread(s) per MPI task
Reading restart file ...
  restart file = 2 Aug 2023, LAMMPS = 2 Aug 2023
  restoring atom style full from restart
  triclinic box = (0.069742272 0.40119664 -0.14695996) to (15.608458 13.818203 17.78526) with tilt (-7.7490667 -1.5378211 0.14232347)
WARNING: Triclinic box skew is large. LAMMPS will run inefficiently. (src/domain.cpp:220)
  2 by 2 by 2 MPI processor grid
  pair style reaxff stores no restart info
  350 atoms
Finding 1-2 1-3 1-4 neighbors ...
  special bond factors lj:    0        0        0       
  special bond factors coul:  0        0        0       
     0 = max # of 1-2 neighbors
     0 = max # of 1-3 neighbors
     0 = max # of 1-4 neighbors
     1 = max # of special neighbors
  special bonds CPU = 0.000 seconds
  read_restart CPU = 0.003 seconds
*****Positive-deform 6 starts.*****
Resetting global fix info from restart file:
  fix style: nvt, fix ID: 4
All restart file global fix info was re-assigned
Neighbor list info ...
  update: every = 10 steps, delay = 0 steps, check = no
  max neighbors/atom: 2000, page size: 100000
  master list distance cutoff = 12
  ghost atom cutoff = 12
  binsize = 6, bins = 5 3 3
  2 neighbor lists, perpetual/occasional/extra = 2 0 0
  (1) pair reaxff, perpetual
      attributes: half, newton off, ghost
      pair build: half/bin/newtoff/ghost
      stencil: full/ghost/bin/3d
      bin: standard
  (2) fix qeq/reaxff, perpetual, copy from (1)
      attributes: half, newton off
      pair build: copy
      stencil: none
      bin: none
Setting up Verlet run ...
  Unit style    : real
  Current step  : 0
  Time step     : 0.5
Per MPI rank memory allocation (min/avg/max) = 129.3 | 130.4 | 131.4 Mbytes
   Step          Temp          PotEng         Press        f_avgp[1]        Volume    
         0   289.20158     -41249.632     -5135.8981      0              3738.5639    
       100   269.05289     -41261.59       3825.2537      1829.1876      3738.5639    
       200   278.41445     -41268.309      4289.2016     -4541.6501      3738.5639    
       300   293.09429     -41271.156     -6655.5049     -1542.1269      3738.5639    
       400   288.69904     -41255.157     -7832.6097      263.86674      3738.5639    
       500   289.21541     -41237.137      4674.9661     -988.63094      3738.5639    
       600   309.0252      -41243.566     -11970.081     -3871.3947      3738.5639    
       700   318.4845      -41257.075     -10116.734      1995.8584      3738.5639    
       800   272.09659     -41242.194     -101.69187     -38.83186       3738.5639    
       900   302.49877     -41279.89       4468.3625      4198.8616      3738.5639    
      1000   311.11757     -41270.04       1723.4167     -53.777105      3738.5639    
      1100   302.69999     -41238.695      916.20136     -1162.0136      3738.5639    
      1200   292.17543     -41224.677     -2662.2166      2354.5063      3738.5639    
      1300   323.80664     -41262.912      5835.4056      2556.2997      3738.5639    
      1400   309.16548     -41264.258     -12647.413     -4696.1564      3738.5639    
      1500   305.62551     -41270.985     -11332.309     -3206.722       3738.5639    
      1600   283.02279     -41260.587     -12854.578     -3398.7344      3738.5639    
      1700   269.25875     -41252.614      5026.3276     -743.70457      3738.5639    
      1800   304.40931     -41269.392      6194.1101     -3309.466       3738.5639    
      1900   314.0806      -41256.829      2247.2675     -2770.3498      3738.5639    
      2000   306.75785     -41242.571     -10925.573      1995.4745      3738.5639    
Loop time of 77.3835 on 8 procs for 2000 steps with 350 atoms

Performance: 1.117 ns/day, 21.495 hours/ns, 25.845 timesteps/s, 9.046 katom-step/s
98.9% CPU use with 8 MPI tasks x 1 OpenMP threads

MPI task timing breakdown:
Section |  min time  |  avg time  |  max time  |%varavg| %total
---------------------------------------------------------------
Pair    | 51.333     | 59.205     | 65.023     |  73.4 | 76.51
Bond    | 0.0004966  | 0.00068584 | 0.00092357 |   0.0 |  0.00
Neigh   | 4.3661     | 4.8993     | 5.2223     |  17.6 |  6.33
Comm    | 0.55601    | 6.3742     | 14.241     | 223.7 |  8.24
Output  | 0.0033254  | 0.0042208  | 0.0047985  |   0.8 |  0.01
Modify  | 6.5358     | 6.8607     | 7.3918     |  14.9 |  8.87
Other   |            | 0.03956    |            |       |  0.05

Nlocal:          43.75 ave          48 max          40 min
Histogram: 1 0 2 0 0 2 2 0 0 1
Nghost:        3353.25 ave        3378 max        3329 min
Histogram: 1 1 0 2 1 0 0 1 1 1
Neighs:        28709.1 ave       31370 max       26372 min
Histogram: 1 0 2 0 0 2 2 0 0 1

Total # of neighbors = 229673
Ave neighs/atom = 656.20857
Ave special neighs/atom = 0
Neighbor list builds = 200
Dangerous builds not checked
Total wall time: 0:19:34
