LAMMPS (2 Aug 2023 - Update 2)
  using 1 OpenMP thread(s) per MPI task
Reading data file ...
  triclinic box = (0 0 0) to (15.7087 13.0868 17.5248) with tilt (-8.2042 -0.1458 -2.0056)
WARNING: Triclinic box skew is large. LAMMPS will run inefficiently. (src/domain.cpp:220)
  2 by 2 by 2 MPI processor grid
  reading atoms ...
  331 atoms
  reading velocities ...
  331 velocities
Finding 1-2 1-3 1-4 neighbors ...
  special bond factors lj:    0        0        0       
  special bond factors coul:  0        0        0       
     0 = max # of 1-2 neighbors
     0 = max # of 1-3 neighbors
     0 = max # of 1-4 neighbors
     1 = max # of special neighbors
  special bonds CPU = 0.001 seconds
  read_data CPU = 0.014 seconds
WARNING: Van der Waals parameters for element SI indicate inner wall+shielding, but earlier atoms indicate a different van der Waals method. This may cause division-by-zero errors. Keeping van der Waals setting for earlier atoms. (src/REAXFF/reaxff_ffield.cpp:251)
System init for write_restart ...
Neighbor list info ...
  update: every = 1 steps, delay = 0 steps, check = yes
  max neighbors/atom: 2000, page size: 100000
  master list distance cutoff = 12
  ghost atom cutoff = 12
  binsize = 6, bins = 5 3 3
  2 neighbor lists, perpetual/occasional/extra = 2 0 0
  (1) pair reaxff, perpetual
      attributes: half, newton off, ghost
      pair build: half/bin/newtoff/ghost
      stencil: full/ghost/bin/3d
      bin: standard
  (2) fix qeq/reaxff, perpetual, copy from (1)
      attributes: half, newton off
      pair build: copy
      stencil: none
      bin: none
  using 1 OpenMP thread(s) per MPI task
Reading restart file ...
  restart file = 2 Aug 2023, LAMMPS = 2 Aug 2023
  restoring atom style full from restart
  triclinic box = (0 0 0) to (15.7087 13.0868 17.5248) with tilt (-8.2042 -0.1458 -2.0056)
WARNING: Triclinic box skew is large. LAMMPS will run inefficiently. (src/domain.cpp:220)
  2 by 2 by 2 MPI processor grid
  pair style reaxff stores no restart info
  331 atoms
Finding 1-2 1-3 1-4 neighbors ...
  special bond factors lj:    0        0        0       
  special bond factors coul:  0        0        0       
     0 = max # of 1-2 neighbors
     0 = max # of 1-3 neighbors
     0 = max # of 1-4 neighbors
     1 = max # of special neighbors
  special bonds CPU = 0.000 seconds
  read_restart CPU = 0.005 seconds
*****debug*****
xy = -8.2042000000000001592, deltaxy = 0.082042
xz = -0.14580000000000001292, deltaxz = 0.001458
yz = -2.0055999999999998273, deltayz = 0.020056
*****
*****Negative-deform 1 starts.*****
WARNING: Van der Waals parameters for element SI indicate inner wall+shielding, but earlier atoms indicate a different van der Waals method. This may cause division-by-zero errors. Keeping van der Waals setting for earlier atoms. (src/REAXFF/reaxff_ffield.cpp:251)

CITE-CITE-CITE-CITE-CITE-CITE-CITE-CITE-CITE-CITE-CITE-CITE-CITE

Your simulation uses code contributions which should be cited:
- pair reaxff command: doi:10.1016/j.parco.2011.08.005
- fix qeq/reaxff command: doi:10.1016/j.parco.2011.08.005
The log file lists these citations in BibTeX format.

CITE-CITE-CITE-CITE-CITE-CITE-CITE-CITE-CITE-CITE-CITE-CITE-CITE

Neighbor list info ...
  update: every = 10 steps, delay = 0 steps, check = yes
  max neighbors/atom: 2000, page size: 100000
  master list distance cutoff = 12
  ghost atom cutoff = 12
  binsize = 6, bins = 5 3 3
  2 neighbor lists, perpetual/occasional/extra = 2 0 0
  (1) pair reaxff, perpetual
      attributes: half, newton off, ghost
      pair build: half/bin/newtoff/ghost
      stencil: full/ghost/bin/3d
      bin: standard
  (2) fix qeq/reaxff, perpetual, copy from (1)
      attributes: half, newton off
      pair build: copy
      stencil: none
      bin: none
Setting up Verlet run ...
  Unit style    : real
  Current step  : 0
  Time step     : 0.5
Per MPI rank memory allocation (min/avg/max) = 128 | 130 | 131.9 Mbytes
   Step          Temp          PotEng         Press          Volume    
         0   300           -30353.04      -661.2289       3602.6891    
       100   267.24441     -30341.285      16444.102      3602.3288    
       200   274.40142     -30368.515      11426.634      3601.9685    
       300   323.77677     -30415.85       9970.9012      3601.6083    
       400   298.97122     -30385.968     -3006.9847      3601.248     
       500   336.67058     -30422.626      12560.492      3600.8877    
       600   353.61308     -30414.235      8268.407       3600.5275    
       700   332.0763      -30382.561      1466.5726      3600.1672    
       800   327.066       -30402.176     -7721.8882      3599.8069    
       900   287.00281     -30381.898      4655.7654      3599.4466    
      1000   304.14926     -30398.705      4937.9486      3599.0864    
      1100   285.3507      -30371.077      15498.866      3598.7261    
      1200   269.10626     -30350.455     -499.85897      3598.3658    
      1300   265.86719     -30341.847      18834.74       3598.0056    
      1400   292.73779     -30363.406     -1851.063       3597.6453    
      1500   303.12561     -30377.402      1993.3958      3597.285     
      1600   323.16451     -30426.324      7061.8549      3596.9248    
      1700   332.11215     -30445.192      8790.3258      3596.5645    
      1800   311.24721     -30415.506      447.95753      3596.2042    
      1900   285.75897     -30426.182      8102.6392      3595.844     
      2000   316.94694     -30475.785      9192.3871      3595.4837    
      2100   295.82024     -30465.464     -6379.5491      3595.1234    
      2200   272.53891     -30443.553      1247.3724      3594.7631    
      2300   320.05348     -30475.04       5446.8776      3594.4029    
      2400   369.92867     -30548.575      9148.1254      3594.0426    
      2500   294.82652     -30524.305     -595.10127      3593.6823    
      2600   365.37328     -30648.796      2951.7212      3593.3221    
      2700   310.60039     -30637.603      4422.9707      3592.9618    
      2800   295.37282     -30650.497      7016.8699      3592.6015    
      2900   246.97626     -30606.46       5387.9232      3592.2413    
      3000   250.91668     -30595.769     -4763.2986      3591.881     
      3100   264.34658     -30601.206     -3708.2605      3591.5207    
      3200   292.01168     -30653.656      1670.0303      3591.1605    
      3300   297.5108      -30679.337      4824.3892      3590.8002    
      3400   268.64221     -30653.296      4771.4246      3590.4399    
      3500   318.68898     -30679.625      6623.2001      3590.0797    
      3600   342.4752      -30690.5        8423.6992      3589.7194    
      3700   260.59727     -30615.514     -1290.0581      3589.3591    
      3800   312.87056     -30679.679      5100.7848      3588.9988    
      3900   332.49877     -30710.891      6471.8702      3588.6386    
      4000   289.99377     -30686.551      8631.4065      3588.2783    
      4100   334.40272     -30726.969      8242.4059      3587.918     
      4200   280.24084     -30637.729     -3512.3994      3587.5578    
      4300   298.99494     -30657.625      9035.6489      3587.1975    
      4400   289.97363     -30666.801      10711.52       3586.8372    
      4500   250.22898     -30644.137      3276.3853      3586.477     
      4600   315.61481     -30715.621      5674.0206      3586.1167    
      4700   304.18353     -30717.772      16911.114      3585.7564    
      4800   299.35574     -30712.574      10089.941      3585.3962    
      4900   292.5836      -30685.337      2669.7125      3585.0359    
      5000   327.15444     -30697.186      12315.113      3584.6756    
      5100   343.76298     -30712.243     -3502.956       3584.3154    
      5200   321.82511     -30698.57       7830.653       3583.9551    
      5300   295.88159     -30707.953      8304.8547      3583.5948    
      5400   324.54993     -30741.322      8112.9388      3583.2345    
      5500   298.70585     -30696.906      8734.2587      3582.8743    
      5600   344.33651     -30722.142     -6778.7698      3582.514     
      5700   344.00162     -30721.566      1167.8704      3582.1537    
      5800   320.86862     -30700.585      3843.3952      3581.7935    
      5900   324.47656     -30708.184      9188.6768      3581.4332    
      6000   300.20624     -30696.835      16115.256      3581.0729    
      6100   289.45198     -30690.413     -1341.6037      3580.7127    
      6200   313.74121     -30689.029      7515.7762      3580.3524    
      6300   299.0724      -30660.746      4281.9284      3579.9921    
      6400   303.50657     -30678.322     -319.0616       3579.6319    
      6500   301.85161     -30704.514      9949.5773      3579.2716    
      6600   292.7691      -30701.492      14717.375      3578.9113    
      6700   312.5287      -30674.57       234.42617      3578.551     
      6800   301.04348     -30655.889      6910.2556      3578.1908    
      6900   313.4679      -30680.673     -1496.1621      3577.8305    
      7000   306.56467     -30698.402      2555.3602      3577.4702    
      7100   315.52274     -30706.38       1432.9446      3577.11      
      7200   315.55772     -30692.219      17935.42       3576.7497    
      7300   343.95452     -30748.148      1203.9272      3576.3894    
      7400   334.15137     -30772.531     -6468.5588      3576.0292    
      7500   283.13381     -30737.776      4489.2305      3575.6689    
      7600   258.11435     -30720.851      24303.61       3575.3086    
      7700   315.57365     -30777.266      9660.2553      3574.9484    
      7800   314.87308     -30764.797      8195.801       3574.5881    
      7900   348.41064     -30767.863      17262.667      3574.2278    
      8000   324.13066     -30746.919     -3957.3257      3573.8676    
      8100   306.96941     -30752.311      14215.436      3573.5073    
      8200   278.37004     -30733.38      -13008.877      3573.147     
      8300   291.88655     -30743.346      5687.903       3572.7867    
      8400   289.81409     -30724.486      10741.8        3572.4265    
      8500   298.51471     -30705.669      4243.0217      3572.0662    
      8600   327.35531     -30737.385     -873.54415      3571.7059    
      8700   311.00447     -30765.592      7016.1634      3571.3457    
      8800   321.91774     -30783.759      5483.0632      3570.9854    
      8900   330.06589     -30788.434      13904.101      3570.6251    
      9000   295.39321     -30737.342      17502.242      3570.2649    
      9100   320.7715      -30739.258      5181.6167      3569.9046    
      9200   317.99038     -30744.642     -7589.6462      3569.5443    
      9300   275.96946     -30734.735      4574.4835      3569.1841    
      9400   293.35892     -30748.113      5177.97        3568.8238    
      9500   311.16857     -30765.183      5703.9081      3568.4635    
      9600   288.76925     -30740.005      7875.1187      3568.1033    
      9700   271.34086     -30708.055      4184.425       3567.743     
      9800   314.28824     -30734.192      7573.2783      3567.3827    
      9900   281.15915     -30723.255      10752.964      3567.0224    
     10000   282.86026     -30746.472      45.651311      3566.6622    
Loop time of 430.392 on 8 procs for 10000 steps with 331 atoms

Performance: 1.004 ns/day, 23.911 hours/ns, 23.235 timesteps/s, 7.691 katom-step/s
98.8% CPU use with 8 MPI tasks x 1 OpenMP threads

MPI task timing breakdown:
Section |  min time  |  avg time  |  max time  |%varavg| %total
---------------------------------------------------------------
Pair    | 255.12     | 342.44     | 380.12     | 196.2 | 79.56
Bond    | 0.027515   | 0.030588   | 0.033307   |   1.0 |  0.01
Neigh   | 5.6863     | 7.5714     | 8.2134     |  27.6 |  1.76
Comm    | 3.2053     | 40.952     | 128.26     | 567.5 |  9.51
Output  | 0.030762   | 0.083535   | 0.18289    |  19.2 |  0.02
Modify  | 38.514     | 39.068     | 41.045     |  12.5 |  9.08
Other   |            | 0.2512     |            |       |  0.06

Nlocal:         41.375 ave          46 max          39 min
Histogram: 1 3 1 0 1 1 0 0 0 1
Nghost:        3334.38 ave        3381 max        3291 min
Histogram: 2 0 0 0 2 1 0 2 0 1
Neighs:        26879.5 ave       29660 max       25408 min
Histogram: 1 3 0 2 0 1 0 0 0 1

Total # of neighbors = 215036
Ave neighs/atom = 649.65559
Ave special neighs/atom = 0
Neighbor list builds = 231
Dangerous builds = 0
  using 1 OpenMP thread(s) per MPI task
Reading restart file ...
  restart file = 2 Aug 2023, LAMMPS = 2 Aug 2023
  restoring atom style full from restart
  triclinic box = (0 0 0) to (15.7087 13.0868 17.5248) with tilt (-8.2042 -0.1458 -2.0056)
WARNING: Triclinic box skew is large. LAMMPS will run inefficiently. (src/domain.cpp:220)
  2 by 2 by 2 MPI processor grid
  pair style reaxff stores no restart info
  331 atoms
Finding 1-2 1-3 1-4 neighbors ...
  special bond factors lj:    0        0        0       
  special bond factors coul:  0        0        0       
     0 = max # of 1-2 neighbors
     0 = max # of 1-3 neighbors
     0 = max # of 1-4 neighbors
     1 = max # of special neighbors
  special bonds CPU = 0.000 seconds
  read_restart CPU = 0.003 seconds
*****Positive-deform 1 starts.*****
WARNING: Van der Waals parameters for element SI indicate inner wall+shielding, but earlier atoms indicate a different van der Waals method. This may cause division-by-zero errors. Keeping van der Waals setting for earlier atoms. (src/REAXFF/reaxff_ffield.cpp:251)
Neighbor list info ...
  update: every = 10 steps, delay = 0 steps, check = yes
  max neighbors/atom: 2000, page size: 100000
  master list distance cutoff = 12
  ghost atom cutoff = 12
  binsize = 6, bins = 5 3 3
  2 neighbor lists, perpetual/occasional/extra = 2 0 0
  (1) pair reaxff, perpetual
      attributes: half, newton off, ghost
      pair build: half/bin/newtoff/ghost
      stencil: full/ghost/bin/3d
      bin: standard
  (2) fix qeq/reaxff, perpetual, copy from (1)
      attributes: half, newton off
      pair build: copy
      stencil: none
      bin: none
Setting up Verlet run ...
  Unit style    : real
  Current step  : 0
  Time step     : 0.5
Per MPI rank memory allocation (min/avg/max) = 128 | 130 | 131.9 Mbytes
   Step          Temp          PotEng         Press          Volume    
         0   300           -30353.04      -661.2289       3602.6891    
       100   267.25199     -30341.288      16439.902      3603.0493    
       200   274.15241     -30368.455      11383.945      3603.4096    
       300   322.97977     -30415.228      9549.1751      3603.7699    
       400   298.00049     -30385.041     -3125.9856      3604.1301    
       500   336.18907     -30420.98       12180.129      3604.4904    
       600   349.61683     -30407.122      7345.3532      3604.8507    
       700   332.16148     -30383.943      371.08527      3605.2109    
       800   326.83949     -30404.953     -5838.0331      3605.5712    
       900   279.23486     -30372.65       5303.0617      3605.9315    
      1000   291.33254     -30384.96       4718.3294      3606.2918    
      1100   266.098       -30355.016      12629.406      3606.652     
      1200   274.22438     -30351.912     -3561.7713      3607.0123    
      1300   276.43828     -30348.695      22176.248      3607.3726    
      1400   310.65523     -30413.466     -232.42941      3607.7328    
      1500   317.78146     -30445.112      6186.7335      3608.0931    
      1600   279.74016     -30393.627     -4801.4245      3608.4534    
      1700   289.90977     -30376.031      13989.717      3608.8136    
      1800   279.46893     -30349.802      7754.9339      3609.1739    
      1900   343.42294     -30411.194     -1328.3729      3609.5342    
      2000   315.72225     -30401.175      231.66008      3609.8944    
      2100   252.02346     -30369.031      8793.606       3610.2547    
      2200   301.13645     -30417.653      1572.5943      3610.615     
      2300   293.43277     -30393.778      1204.9745      3610.9753    
      2400   266.01182     -30346.093     -603.26919      3611.3355    
      2500   299.00342     -30374.248      3972.4773      3611.6958    
      2600   318.73289     -30392.237     -2294.289       3612.0561    
      2700   306.09679     -30390.479      9482.9788      3612.4163    
      2800   279.2669      -30390.607     -2594.9808      3612.7766    
      2900   324.34774     -30440.798      2397.3563      3613.1369    
      3000   283.29897     -30370.849      9420.9754      3613.4971    
      3100   288.06168     -30360.199      13165.538      3613.8574    
      3200   279.95228     -30353.392      7852.0534      3614.2177    
      3300   306.8708      -30390.026      10426.134      3614.5779    
      3400   284.76115     -30386.581      688.11272      3614.9382    
      3500   250.66343     -30361.142      2401.767       3615.2985    
      3600   284.42271     -30379.385      2513.109       3615.6587    
      3700   331.98867     -30398.474      4111.7341      3616.019     
      3800   298.50986     -30369.118     -5567.4522      3616.3793    
      3900   266.44177     -30349.962      16225.561      3616.7396    
      4000   290.74288     -30390.525      869.21195      3617.0998    
      4100   277.85907     -30404.022     -1064.8826      3617.4601    
      4200   292.31976     -30404.596      1876.2647      3617.8204    
      4300   322.06722     -30405.895      13472.032      3618.1806    
      4400   278.51823     -30353.41      -5793.5405      3618.5409    
      4500   315.09718     -30388.537      2323.9145      3618.9012    
      4600   286.36381     -30365.338      5653.0095      3619.2614    
      4700   263.33019     -30371.534      4804.8778      3619.6217    
      4800   250.34728     -30362.667     -5940.0681      3619.982     
      4900   318.52509     -30408.545     -6642.1978      3620.3422    
      5000   307.71866     -30384.529      5528.0762      3620.7025    
      5100   317.27284     -30398.833      11683.706      3621.0628    
      5200   286.87837     -30380.178      4475.7235      3621.423     
      5300   310.42581     -30414.388     -597.12714      3621.7833    
      5400   281.26874     -30364.079      2097.4945      3622.1436    
      5500   340.8213      -30405.073      18909.058      3622.5039    
      5600   272.74181     -30347.714      5900.2894      3622.8641    
      5700   306.39653     -30418.423      1374.1901      3623.2244    
      5800   307.91334     -30432.526     -3185.7245      3623.5847    
      5900   270.0731      -30405.004     -11439.448      3623.9449    
      6000   320.41769     -30464.228     -3713.8026      3624.3052    
      6100   271.48764     -30413.979     -3391.7743      3624.6655    
      6200   285.31213     -30402.532      10581.148      3625.0257    
      6300   334.41545     -30440.087      3127.7844      3625.386     
      6400   268.63208     -30396.471      2103.3765      3625.7463    
      6500   295.87851     -30444.168      4207.6882      3626.1065    
      6600   316.41758     -30470.974     -4397.7402      3626.4668    
      6700   254.33096     -30406.702      13433.018      3626.8271    
      6800   273.43376     -30409.179     -5335.7222      3627.1874    
      6900   328.09552     -30447.484     -194.08123      3627.5476    
      7000   302.58237     -30404.291      1519.1511      3627.9079    
      7100   320.19966     -30453.344      1810.0981      3628.2682    
      7200   296.4548      -30444.052      1471.463       3628.6284    
      7300   256.72798     -30408.822      13665.738      3628.9887    
      7400   284.6197      -30432.922      12538.088      3629.349     
      7500   323.75213     -30447.691     -5717.6807      3629.7092    
      7600   298.0051      -30406.352      7296.9526      3630.0695    
      7700   343.60577     -30477.285      19553.397      3630.4298    
      7800   306.10598     -30463.102      4093.6979      3630.79      
      7900   295.70151     -30450.591      1460.9638      3631.1503    
      8000   318.5542      -30466.787      4754.8013      3631.5106    
      8100   316.72906     -30442.467      9510.8622      3631.8708    
      8200   322.7451      -30428.762      2264.7947      3632.2311    
      8300   308.27128     -30433.258      8220.4827      3632.5914    
      8400   280.23878     -30438.39       9721.9969      3632.9517    
      8500   285.27213     -30448.494      4028.957       3633.3119    
      8600   304.77597     -30452.917      7407.43        3633.6722    
      8700   295.47748     -30420.104     -1369.1316      3634.0325    
      8800   292.5654      -30428.854     -722.36223      3634.3927    
      8900   308.89095     -30462.533     -11004.132      3634.753     
      9000   271.80258     -30433.618     -3416.7288      3635.1133    
      9100   279.71118     -30435.757      6967.7594      3635.4735    
      9200   337.95119     -30484.551      4170.6171      3635.8338    
      9300   291.40787     -30428.096      13135.741      3636.1941    
      9400   306.6466      -30436.971      1586.6722      3636.5543    
      9500   335.91914     -30449.409      210.32901      3636.9146    
      9600   288.59811     -30418.288      10334.962      3637.2749    
      9700   264.75393     -30419.101     -6097.8096      3637.6351    
      9800   294.03235     -30447.378      6096.9192      3637.9954    
      9900   313.86342     -30482.131      3840.7813      3638.3557    
     10000   323.44074     -30521.934      7484.5685      3638.716     
Loop time of 414.803 on 8 procs for 10000 steps with 331 atoms

Performance: 1.041 ns/day, 23.045 hours/ns, 24.108 timesteps/s, 7.980 katom-step/s
98.6% CPU use with 8 MPI tasks x 1 OpenMP threads

MPI task timing breakdown:
Section |  min time  |  avg time  |  max time  |%varavg| %total
---------------------------------------------------------------
Pair    | 238.89     | 324.82     | 357.6      | 212.1 | 78.31
Bond    | 0.027914   | 0.030102   | 0.033412   |   1.0 |  0.01
Neigh   | 4.9683     | 6.5287     | 7.2394     |  30.3 |  1.57
Comm    | 11.066     | 43.884     | 129.78     | 576.8 | 10.58
Output  | 0.03253    | 0.086031   | 0.19463    |  19.7 |  0.02
Modify  | 38.353     | 39.086     | 40.719     |  12.7 |  9.42
Other   |            | 0.3665     |            |       |  0.09

Nlocal:         41.375 ave          48 max          37 min
Histogram: 3 1 0 0 1 0 1 0 0 2
Nghost:        3239.38 ave        3288 max        3192 min
Histogram: 2 0 0 1 1 1 1 0 1 1
Neighs:        26366.5 ave       30281 max       23563 min
Histogram: 3 1 0 0 1 0 1 0 0 2

Total # of neighbors = 210932
Ave neighs/atom = 637.2568
Ave special neighs/atom = 0
Neighbor list builds = 204
Dangerous builds = 0
  using 1 OpenMP thread(s) per MPI task
Reading restart file ...
  restart file = 2 Aug 2023, LAMMPS = 2 Aug 2023
  restoring atom style full from restart
  triclinic box = (0 0 0) to (15.7087 13.0868 17.5248) with tilt (-8.2042 -0.1458 -2.0056)
WARNING: Triclinic box skew is large. LAMMPS will run inefficiently. (src/domain.cpp:220)
  2 by 2 by 2 MPI processor grid
  pair style reaxff stores no restart info
  331 atoms
Finding 1-2 1-3 1-4 neighbors ...
  special bond factors lj:    0        0        0       
  special bond factors coul:  0        0        0       
     0 = max # of 1-2 neighbors
     0 = max # of 1-3 neighbors
     0 = max # of 1-4 neighbors
     1 = max # of special neighbors
  special bonds CPU = 0.000 seconds
  read_restart CPU = 0.003 seconds
*****debug*****
xy = -8.2042000000000001592, deltaxy = 0.082042
xz = -0.14580000000000001292, deltaxz = 0.001458
yz = -2.0055999999999998273, deltayz = 0.020056
*****
*****Negative-deform 2 starts.*****
WARNING: Van der Waals parameters for element SI indicate inner wall+shielding, but earlier atoms indicate a different van der Waals method. This may cause division-by-zero errors. Keeping van der Waals setting for earlier atoms. (src/REAXFF/reaxff_ffield.cpp:251)
Neighbor list info ...
  update: every = 10 steps, delay = 0 steps, check = yes
  max neighbors/atom: 2000, page size: 100000
  master list distance cutoff = 12
  ghost atom cutoff = 12
  binsize = 6, bins = 5 3 3
  2 neighbor lists, perpetual/occasional/extra = 2 0 0
  (1) pair reaxff, perpetual
      attributes: half, newton off, ghost
      pair build: half/bin/newtoff/ghost
      stencil: full/ghost/bin/3d
      bin: standard
  (2) fix qeq/reaxff, perpetual, copy from (1)
      attributes: half, newton off
      pair build: copy
      stencil: none
      bin: none
Setting up Verlet run ...
  Unit style    : real
  Current step  : 0
  Time step     : 0.5
Per MPI rank memory allocation (min/avg/max) = 128 | 130 | 131.9 Mbytes
   Step          Temp          PotEng         Press          Volume    
         0   300           -30353.04      -661.2289       3602.6891    
       100   267.24973     -30341.285      16443.014      3602.3288    
       200   274.28205     -30368.326      11438.84       3601.9685    
       300   323.65353     -30415.685      9835.9331      3601.6083    
       400   298.70051     -30385.666     -2963.5938      3601.248     
       500   335.04557     -30421.084      12773.718      3600.8877    
       600   349.39061     -30410.289      7609.2467      3600.5275    
       700   330.65885     -30380.285      1242.0919      3600.1672    
       800   331.58454     -30405.781     -6123.089       3599.8069    
       900   279.22261     -30373.703      2284.4024      3599.4466    
      1000   299.17602     -30394.727      5266.6045      3599.0864    
      1100   278.3367      -30367.517      16447.619      3598.7261    
      1200   263.11526     -30342.35      -3557.9525      3598.3658    
      1300   288.55109     -30371.791      15815.075      3598.0056    
      1400   272.35747     -30378.091      7892.1503      3597.6453    
      1500   299.1392      -30420.378      4867.751       3597.285     
      1600   328.1714      -30478.813      2410.106       3596.9248    
      1700   291.61052     -30451.469      5123.7347      3596.5645    
      1800   263.42891     -30413.587      13394.857      3596.2042    
      1900   276.06557     -30396.401      11096.21       3595.844     
      2000   278.35449     -30380.366     -888.31959      3595.4837    
      2100   323.34584     -30430.549     -2304.2188      3595.1234    
      2200   298.35251     -30419.373      7904.8979      3594.7631    
      2300   306.44862     -30447.72       3533.0376      3594.4029    
      2400   328.54598     -30474.997      3005.1863      3594.0426    
      2500   285.77965     -30422.634     -11858.773      3593.6823    
      2600   299.45569     -30395.741      7778.3455      3593.3221    
      2700   266.62635     -30367.908      5170.1877      3592.9618    
      2800   260.05468     -30388.45      -5455.847       3592.6015    
      2900   258.90249     -30402.558      16986.313      3592.2413    
      3000   338.21509     -30485.222      4592.0816      3591.881     
      3100   333.34351     -30507.827      17538.734      3591.5207    
      3200   308.25633     -30518.094     -1743.9265      3591.1605    
      3300   323.47685     -30564.503      1059.0628      3590.8002    
      3400   301.03301     -30563.679      6275.1504      3590.4399    
      3500   300.67408     -30582.298      947.93445      3590.0797    
      3600   277.20761     -30554.561      3327.7354      3589.7194    
      3700   313.40899     -30566.583     -8642.1352      3589.3591    
      3800   300.25127     -30531.994      11432.353      3588.9988    
      3900   324.41131     -30559.113      4594.6784      3588.6386    
      4000   313.33743     -30559.537      11333.192      3588.2783    
      4100   294.89382     -30553.366      4761.1032      3587.918     
      4200   313.89573     -30587.496      11658.758      3587.5578    
      4300   283.76432     -30565.213      17836.621      3587.1975    
      4400   331.73465     -30593.076      5346.5933      3586.8372    
      4500   300.03541     -30536.115      2845.6054      3586.477     
      4600   332.42521     -30589.793      11481.86       3586.1167    
      4700   303.94507     -30583.238     -467.65706      3585.7564    
      4800   283.50499     -30564.679      6696.061       3585.3962    
      4900   339.54063     -30616.154      20796.191      3585.0359    
      5000   314.9441      -30569.211      13894.559      3584.6756    
      5100   307.73587     -30551.314      186.16509      3584.3154    
      5200   282.89593     -30558.766     -1568.59        3583.9551    
      5300   310.78007     -30605.183      9013.9594      3583.5948    
      5400   323.33497     -30623.575      8788.4448      3583.2345    
      5500   291.25455     -30582.899     -3919.958       3582.8743    
      5600   281.96315     -30576.573     -1992.7274      3582.514     
      5700   322.64539     -30637.651     -2290.6582      3582.1537    
      5800   278.72635     -30600.241      3659.5989      3581.7935    
      5900   280.12949     -30573.979      12333.586      3581.4332    
      6000   328.29672     -30606.099     -2308.9585      3581.0729    
      6100   300.22007     -30579.347     -1720.53        3580.7127    
      6200   310.07356     -30604.167      2250.3082      3580.3524    
      6300   292.48757     -30614.012      4360.2512      3579.9921    
      6400   280.1562      -30595.267     -2104.7332      3579.6319    
      6500   317.95893     -30623.541      7387.6788      3579.2716    
      6600   310.89625     -30603.692      4532.083       3578.9113    
      6700   281.76196     -30567.743     -9682.6059      3578.551     
      6800   290.68354     -30596.028      7163.9692      3578.1908    
      6900   308.90548     -30642.891     -1094.1431      3577.8305    
      7000   300.55319     -30624.483      12778.589      3577.4702    
      7100   278.01793     -30575.345     -3661.6399      3577.11      
      7200   327.34177     -30616.833     -2865.4763      3576.7497    
      7300   309.57313     -30600.63      -8254.5216      3576.3894    
      7400   299.18247     -30613.806      4914.728       3576.0292    
      7500   333.5759      -30666.924     -10816.618      3575.6689    
      7600   338.91003     -30689.104      116.88053      3575.3086    
      7700   305.51225     -30668.766     -10153.871      3574.9484    
      7800   289.5721      -30654.961      18589.373      3574.5881    
      7900   303.3014      -30633.717      7921.7742      3574.2278    
      8000   288.25168     -30605.65       101.36794      3573.8676    
      8100   315.54738     -30648.609      1228.4314      3573.5073    
      8200   332.2471      -30684.371     -3343.7038      3573.147     
      8300   329.79795     -30688.032      382.41848      3572.7867    
      8400   318.60813     -30666.803      997.79314      3572.4265    
      8500   304.6979      -30636.972      16399.001      3572.0662    
      8600   304.34934     -30613.577      7961.8659      3571.7059    
      8700   298.43969     -30614.453     -6151.4288      3571.3457    
      8800   288.41475     -30643.091      11214.666      3570.9854    
      8900   309.72217     -30665.968      497.97778      3570.6251    
      9000   326.41456     -30668.365      7456.9039      3570.2649    
      9100   312.26869     -30649.17       4092.4276      3569.9046    
      9200   320.83948     -30648.531      14381.167      3569.5443    
      9300   304.80332     -30628.611     -1880.2336      3569.1841    
      9400   287.38992     -30638.186      792.29918      3568.8238    
      9500   302.0329      -30670.192      9867.5163      3568.4635    
      9600   251.76989     -30622.341      6981.9735      3568.1033    
      9700   281.51083     -30624.702     -8016.1604      3567.743     
      9800   304.76696     -30632.633      14025.279      3567.3827    
      9900   281.59022     -30611.192      3582.6067      3567.0224    
     10000   323.16883     -30660.482     -7277.2744      3566.6622    
Loop time of 421.947 on 8 procs for 10000 steps with 331 atoms

Performance: 1.024 ns/day, 23.441 hours/ns, 23.700 timesteps/s, 7.845 katom-step/s
98.8% CPU use with 8 MPI tasks x 1 OpenMP threads

MPI task timing breakdown:
Section |  min time  |  avg time  |  max time  |%varavg| %total
---------------------------------------------------------------
Pair    | 268.96     | 334.11     | 373.46     | 212.0 | 79.18
Bond    | 0.028678   | 0.030395   | 0.033235   |   1.0 |  0.01
Neigh   | 4.2285     | 5.5473     | 6.2838     |  30.6 |  1.31
Comm    | 3.9968     | 43.419     | 108.63     | 588.4 | 10.29
Output  | 0.031018   | 0.080104   | 0.1754     |  18.5 |  0.02
Modify  | 37.67      | 38.488     | 39.804     |  12.1 |  9.12
Other   |            | 0.2707     |            |       |  0.06

Nlocal:         41.375 ave          47 max          32 min
Histogram: 1 0 0 0 0 2 2 0 2 1
Nghost:        3341.62 ave        3410 max        3299 min
Histogram: 2 0 2 1 0 1 0 1 0 1
Neighs:        26893.8 ave       30442 max       21006 min
Histogram: 1 0 0 0 0 2 2 1 1 1

Total # of neighbors = 215150
Ave neighs/atom = 650
Ave special neighs/atom = 0
Neighbor list builds = 192
Dangerous builds = 0
  using 1 OpenMP thread(s) per MPI task
Reading restart file ...
  restart file = 2 Aug 2023, LAMMPS = 2 Aug 2023
  restoring atom style full from restart
  triclinic box = (0 0 0) to (15.7087 13.0868 17.5248) with tilt (-8.2042 -0.1458 -2.0056)
WARNING: Triclinic box skew is large. LAMMPS will run inefficiently. (src/domain.cpp:220)
  2 by 2 by 2 MPI processor grid
  pair style reaxff stores no restart info
  331 atoms
Finding 1-2 1-3 1-4 neighbors ...
  special bond factors lj:    0        0        0       
  special bond factors coul:  0        0        0       
     0 = max # of 1-2 neighbors
     0 = max # of 1-3 neighbors
     0 = max # of 1-4 neighbors
     1 = max # of special neighbors
  special bonds CPU = 0.000 seconds
  read_restart CPU = 0.004 seconds
*****Positive-deform 2 starts.*****
WARNING: Van der Waals parameters for element SI indicate inner wall+shielding, but earlier atoms indicate a different van der Waals method. This may cause division-by-zero errors. Keeping van der Waals setting for earlier atoms. (src/REAXFF/reaxff_ffield.cpp:251)
Neighbor list info ...
  update: every = 10 steps, delay = 0 steps, check = yes
  max neighbors/atom: 2000, page size: 100000
  master list distance cutoff = 12
  ghost atom cutoff = 12
  binsize = 6, bins = 5 3 3
  2 neighbor lists, perpetual/occasional/extra = 2 0 0
  (1) pair reaxff, perpetual
      attributes: half, newton off, ghost
      pair build: half/bin/newtoff/ghost
      stencil: full/ghost/bin/3d
      bin: standard
  (2) fix qeq/reaxff, perpetual, copy from (1)
      attributes: half, newton off
      pair build: copy
      stencil: none
      bin: none
Setting up Verlet run ...
  Unit style    : real
  Current step  : 0
  Time step     : 0.5
Per MPI rank memory allocation (min/avg/max) = 128 | 130 | 131.9 Mbytes
   Step          Temp          PotEng         Press          Volume    
         0   300           -30353.04      -661.2289       3602.6891    
       100   267.24669     -30341.288      16441.01       3603.0493    
       200   274.25823     -30368.537      11351.519      3603.4096    
       300   322.9504      -30415.234      9632.2769      3603.7699    
       400   298.61235     -30385.717     -3057.7937      3604.1301    
       500   336.14111     -30421.35       12746.982      3604.4904    
       600   348.8767      -30406.77       7653.1317      3604.8507    
       700   331.01953     -30381.931      190.06967      3605.2109    
       800   328.4409      -30405.786     -5723.8858      3605.5712    
       900   280.23677     -30373.745      1851.9614      3605.9315    
      1000   285.14637     -30377.038      3666.2352      3606.2918    
      1100   277.74144     -30364.187      17613.823      3606.652     
      1200   263.39294     -30341.696     -91.541002      3607.0123    
      1300   276.11583     -30330.782      18025.701      3607.3726    
      1400   299.85217     -30327.344      2517.0297      3607.7328    
      1500   292.46183     -30343.14       7916.5277      3608.0931    
      1600   297.52193     -30375.098      3873.8433      3608.4534    
      1700   298.29861     -30388.15       6147.8304      3608.8136    
      1800   322.13945     -30421.204     -3397.7704      3609.1739    
      1900   311.43541     -30410.008     -6179.4639      3609.5342    
      2000   292.28685     -30378.91      -3952.3809      3609.8944    
      2100   367.16929     -30434.817      2822.4761      3610.2547    
      2200   330.67477     -30423.326     -3301.5876      3610.615     
      2300   260.52162     -30380.455     -2312.1219      3610.9753    
      2400   286.71221     -30410.776      19921.972      3611.3355    
      2500   329.59186     -30480.007      6547.4713      3611.6958    
      2600   292.06488     -30467.604      286.15713      3612.0561    
      2700   314.80538     -30493.681      2394.193       3612.4163    
      2800   319.45894     -30489.709      9948.5612      3612.7766    
      2900   294.60869     -30464.855      15875.083      3613.1369    
      3000   320.29768     -30518.663     -3776.8726      3613.4971    
      3100   264.94966     -30484.63       8065.3835      3613.8574    
      3200   337.77107     -30560.563      9637.2468      3614.2177    
      3300   242.92174     -30468.197     -1514.0538      3614.5779    
      3400   346.9847      -30550.698     -7820.2462      3614.9382    
      3500   332.93543     -30520.352      6739.3082      3615.2985    
      3600   282.43177     -30484.637      3952.675       3615.6587    
      3700   321.76043     -30557.183      16224.251      3616.019     
      3800   269.41535     -30507.035     -1411.9305      3616.3793    
      3900   271.89213     -30491.663     -2809.8275      3616.7396    
      4000   307.13427     -30511.617      6980.3013      3617.0998    
      4100   296.95715     -30502.136      1102.8938      3617.4601    
      4200   302.35755     -30509.719     -1172.8325      3617.8204    
      4300   297.81032     -30513.88       228.22797      3618.1806    
      4400   254.96827     -30478.647     -5497.5114      3618.5409    
      4500   286.53138     -30500.05       4247.778       3618.9012    
      4600   347.4957      -30546.363     -4497.8044      3619.2614    
      4700   309.84088     -30514.222      4175.0084      3619.6217    
      4800   265.25775     -30503.991     -8277.1109      3619.982     
      4900   263.2235      -30504.872     -8443.5554      3620.3422    
      5000   291.27396     -30512.644      45.986805      3620.7025    
      5100   335.4065      -30545.217      6746.5481      3621.0628    
      5200   291.16981     -30496.561      3189.1809      3621.423     
      5300   284.63526     -30490.079     -7673.7318      3621.7833    
      5400   290.7136      -30521.679      8485.0984      3622.1436    
      5500   260.21879     -30512.845      2609.5212      3622.5039    
      5600   294.48701     -30530.52       12856.892      3622.8641    
      5700   325.66826     -30540.357      11270.079      3623.2244    
      5800   282.9248      -30489.265      2591.1499      3623.5847    
      5900   328.81348     -30530.023      11215.995      3623.9449    
      6000   340.813       -30531.873      6960.5829      3624.3052    
      6100   289.41147     -30488.35       4524.2604      3624.6655    
      6200   287.93937     -30515.18      -8759.1939      3625.0257    
      6300   318.38158     -30554.052      1241.1332      3625.386     
      6400   251.35113     -30487.778      6491.626       3625.7463    
      6500   343.57296     -30542.073      2116.8321      3626.1065    
      6600   337.26711     -30530.202      5624.62        3626.4668    
      6700   293.69224     -30503.223      6470.3554      3626.8271    
      6800   321.92765     -30555.639      3522.8752      3627.1874    
      6900   294.60568     -30525.433      11100.882      3627.5476    
      7000   291.21214     -30509.319     -2115.8927      3627.9079    
      7100   315.75631     -30513.46       12013.474      3628.2682    
      7200   292.46902     -30454.686      5159.0823      3628.6284    
      7300   323.84398     -30464.912      8228.9964      3628.9887    
      7400   362.95302     -30546.715      14185.256      3629.349     
      7500   290.75838     -30515.489      4824.6464      3629.7092    
      7600   295.73424     -30552.446     -2842.0282      3630.0695    
      7700   278.08664     -30551.312      137.61906      3630.4298    
      7800   269.6879      -30542.177      10946.064      3630.79      
      7900   330.32653     -30578.092      427.16081      3631.1503    
      8000   292.33803     -30522.762      4118.1426      3631.5106    
      8100   333.48561     -30563.4       -666.3944       3631.8708    
      8200   289.20658     -30550.403     -5100.9763      3632.2311    
      8300   268.56443     -30545.251      3829.4423      3632.5914    
      8400   293.1616      -30565.528      14706.645      3632.9517    
      8500   350.99937     -30614.46       4110.4621      3633.3119    
      8600   320.9518      -30569.781     -8153.8171      3633.6722    
      8700   292.73688     -30518.151      12453.185      3634.0325    
      8800   285.23727     -30500.274      9744.9215      3634.3927    
      8900   285.7584      -30538.568      7955.9063      3634.753     
      9000   291.75367     -30563.381     -2881.2611      3635.1133    
      9100   287.11064     -30565.615      5199.2598      3635.4735    
      9200   296.52982     -30568.584      7175.7547      3635.8338    
      9300   276.45452     -30534.422      13774.171      3636.1941    
      9400   294.13391     -30535.108      10217.052      3636.5543    
      9500   284.99005     -30538.348     -8078.3142      3636.9146    
      9600   294.98212     -30581.105      6104.7231      3637.2749    
      9700   296.65728     -30590.087      9619.7399      3637.6351    
      9800   290.96525     -30577.098      2928.5093      3637.9954    
      9900   294.33513     -30560.805      9126.1195      3638.3557    
     10000   335.72337     -30566.231      14558.05       3638.716     
Loop time of 419.565 on 8 procs for 10000 steps with 331 atoms

Performance: 1.030 ns/day, 23.309 hours/ns, 23.834 timesteps/s, 7.889 katom-step/s
98.7% CPU use with 8 MPI tasks x 1 OpenMP threads

MPI task timing breakdown:
Section |  min time  |  avg time  |  max time  |%varavg| %total
---------------------------------------------------------------
Pair    | 337.21     | 349.99     | 363        |  48.9 | 83.42
Bond    | 0.027034   | 0.03013    | 0.033349   |   1.2 |  0.01
Neigh   | 6.7436     | 7.1131     | 7.4483     |   8.6 |  1.70
Comm    | 9.6462     | 22.622     | 35.394     | 192.2 |  5.39
Output  | 0.033636   | 0.083892   | 0.18205    |  18.5 |  0.02
Modify  | 38.94      | 39.35      | 39.721     |   4.2 |  9.38
Other   |            | 0.3742     |            |       |  0.09

Nlocal:         41.375 ave          46 max          35 min
Histogram: 1 1 0 0 1 1 0 1 1 2
Nghost:           3187 ave        3252 max        3132 min
Histogram: 2 0 1 1 0 2 0 0 0 2
Neighs:        26355.4 ave       29216 max       22356 min
Histogram: 1 1 0 0 1 1 0 1 1 2

Total # of neighbors = 210843
Ave neighs/atom = 636.98792
Ave special neighs/atom = 0
Neighbor list builds = 206
Dangerous builds = 0
  using 1 OpenMP thread(s) per MPI task
Reading restart file ...
  restart file = 2 Aug 2023, LAMMPS = 2 Aug 2023
  restoring atom style full from restart
  triclinic box = (0 0 0) to (15.7087 13.0868 17.5248) with tilt (-8.2042 -0.1458 -2.0056)
WARNING: Triclinic box skew is large. LAMMPS will run inefficiently. (src/domain.cpp:220)
  2 by 2 by 2 MPI processor grid
  pair style reaxff stores no restart info
  331 atoms
Finding 1-2 1-3 1-4 neighbors ...
  special bond factors lj:    0        0        0       
  special bond factors coul:  0        0        0       
     0 = max # of 1-2 neighbors
     0 = max # of 1-3 neighbors
     0 = max # of 1-4 neighbors
     1 = max # of special neighbors
  special bonds CPU = 0.000 seconds
  read_restart CPU = 0.004 seconds
*****debug*****
xy = -8.2042000000000001592, deltaxy = 0.082042
xz = -0.14580000000000001292, deltaxz = 0.001458
yz = -2.0055999999999998273, deltayz = 0.020056
*****
*****Negative-deform 3 starts.*****
WARNING: Van der Waals parameters for element SI indicate inner wall+shielding, but earlier atoms indicate a different van der Waals method. This may cause division-by-zero errors. Keeping van der Waals setting for earlier atoms. (src/REAXFF/reaxff_ffield.cpp:251)
Neighbor list info ...
  update: every = 10 steps, delay = 0 steps, check = yes
  max neighbors/atom: 2000, page size: 100000
  master list distance cutoff = 12
  ghost atom cutoff = 12
  binsize = 6, bins = 5 3 3
  2 neighbor lists, perpetual/occasional/extra = 2 0 0
  (1) pair reaxff, perpetual
      attributes: half, newton off, ghost
      pair build: half/bin/newtoff/ghost
      stencil: full/ghost/bin/3d
      bin: standard
  (2) fix qeq/reaxff, perpetual, copy from (1)
      attributes: half, newton off
      pair build: copy
      stencil: none
      bin: none
Setting up Verlet run ...
  Unit style    : real
  Current step  : 0
  Time step     : 0.5
Per MPI rank memory allocation (min/avg/max) = 128 | 130 | 131.9 Mbytes
   Step          Temp          PotEng         Press          Volume    
         0   300           -30353.04      -661.2289       3602.6891    
       100   267.24833     -30341.286      16443.663      3602.3288    
       200   274.35106     -30368.397      11411.356      3601.9685    
       300   323.44534     -30415.53       9798.6988      3601.6083    
       400   298.8985      -30385.965     -3107.2308      3601.248     
       500   336.21768     -30422.008      11828.736      3600.8877    
       600   350.8856      -30411.08       9662.005       3600.5275    
       700   335.40033     -30386.485      423.20209      3600.1672    
       800   330.93255     -30406.029     -5895.4377      3599.8069    
       900   285.79378     -30380.749      5634.3076      3599.4466    
      1000   306.74945     -30402.749      6566.3095      3599.0864    
      1100   291.92853     -30380.005      13511.448      3598.7261    
      1200   300.15385     -30378.369     -5037.1917      3598.3658    
      1300   281.36778     -30352.762      19360.459      3598.0056    
      1400   301.2428      -30384.979      2541.3672      3597.6453    
      1500   257.94076     -30386.394      12174.307      3597.285     
      1600   255.51243     -30384.738      2868.0337      3596.9248    
      1700   261.68388     -30363.843      12412.877      3596.5645    
      1800   318.48274     -30398.104      11124.988      3596.2042    
      1900   341.51815     -30415.664     -365.5922       3595.844     
      2000   371.6691      -30465.434      4767.2098      3595.4837    
      2100   338.25573     -30460.467      4513.294       3595.1234    
      2200   304.87719     -30432.966     -13338          3594.7631    
      2300   274.74813     -30396.144      13307.53       3594.4029    
      2400   315.19286     -30415.878     -1362.8661      3594.0426    
      2500   338.64019     -30454.355     -3575.8615      3593.6823    
      2600   323.02534     -30474.938      2611.0193      3593.3221    
      2700   298.84721     -30438.512      9288.3864      3592.9618    
      2800   309.917       -30433.077      10018.519      3592.6015    
      2900   320.07259     -30473.499     -2200.0014      3592.2413    
      3000   352.67286     -30528.668     -1451.6086      3591.881     
      3100   298.596       -30486.591      5626.5875      3591.5207    
      3200   273.23837     -30472.161      1171.9396      3591.1605    
      3300   302.57724     -30506.165      9285.1744      3590.8002    
      3400   303.75416     -30477.322     -1333.1443      3590.4399    
      3500   285.77187     -30449.426     -2142.1703      3590.0797    
      3600   342.03629     -30533.559     -3848.4232      3589.7194    
      3700   297.28506     -30512.515     -1810.6366      3589.3591    
      3800   287.16077     -30513.296     -7747.7123      3588.9988    
      3900   320.36263     -30541.559      2603.9317      3588.6386    
      4000   276.7954      -30484.493      6428.1818      3588.2783    
      4100   318.77346     -30500.296      14681.609      3587.918     
      4200   304.79008     -30479.843      2489.077       3587.5578    
      4300   269.22833     -30477.351      14273.207      3587.1975    
      4400   326.69318     -30559.492      1717.5458      3586.8372    
      4500   260.18854     -30494.949      22252.224      3586.477     
      4600   332.8514      -30542.303      4893.7207      3586.1167    
      4700   338.56164     -30557          3870.402       3585.7564    
      4800   302.75513     -30553.323     -1082.4905      3585.3962    
      4900   293.80245     -30564.735      2411.9227      3585.0359    
      5000   302.95165     -30593.531      2983.9352      3584.6756    
      5100   249.15611     -30541.739      7460.8407      3584.3154    
      5200   342.28762     -30604.861     -975.18141      3583.9551    
      5300   295.89875     -30551.99      -10661.12       3583.5948    
      5400   310.85794     -30581.993      404.59493      3583.2345    
      5500   286.33498     -30555.869      2102.848       3582.8743    
      5600   332.62865     -30578.206     -4723.1758      3582.514     
      5700   302.15737     -30527.246      5112.7336      3582.1537    
      5800   330.9281      -30593.193     -6791.2682      3581.7935    
      5900   287.32483     -30565.064      15942.962      3581.4332    
      6000   296.60078     -30585.85       15119.468      3581.0729    
      6100   325.88834     -30615.94       12509.93       3580.7127    
      6200   276.07795     -30556.823     -2516.3597      3580.3524    
      6300   280.00223     -30534.944      4418.1949      3579.9921    
      6400   351.58626     -30608.156      8119.5276      3579.6319    
      6500   284.35933     -30565.228      7065.7583      3579.2716    
      6600   288.18679     -30569.913      18702.993      3578.9113    
      6700   328.00523     -30612.92       884.90475      3578.551     
      6800   289.29061     -30580.751      14346.992      3578.1908    
      6900   277.67335     -30599.678      747.47451      3577.8305    
      7000   327.84406     -30659.05       12240.032      3577.4702    
      7100   282.20577     -30588.728      6521.3588      3577.11      
      7200   268.59707     -30558.503      7306.9642      3576.7497    
      7300   337.56606     -30623.45       5479.749       3576.3894    
      7400   265.08064     -30553.945     -12666.646      3576.0292    
      7500   293.76782     -30593.075      8841.2594      3575.6689    
      7600   318.24334     -30628.47       11226.93       3575.3086    
      7700   278.43296     -30569.833      10807.419      3574.9484    
      7800   346.261       -30612.892      2881.7842      3574.5881    
      7900   362.26736     -30653.136      9996.6295      3574.2278    
      8000   281.66801     -30612.77      -150.21245      3573.8676    
      8100   362.42116     -30742.448      12349.429      3573.5073    
      8200   327.46009     -30745.839      10280.14       3573.147     
      8300   285.54504     -30722.429      8120.8706      3572.7867    
      8400   324.05199     -30754.207      6198.9582      3572.4265    
      8500   355.06637     -30761.084      2117.0193      3572.0662    
      8600   313.90732     -30707.185     -1991.8385      3571.7059    
      8700   297.46491     -30704.198      4531.1374      3571.3457    
      8800   328.30485     -30766.512      1058.2016      3570.9854    
      8900   296.33484     -30747.8        360.60986      3570.6251    
      9000   382.13265     -30855         -2575.3854      3570.2649    
      9100   288.80235     -30798.794     -5055.7501      3569.9046    
      9200   244.304       -30787.703      2655.624       3569.5443    
      9300   356.10488     -30917.965      7520.466       3569.1841    
      9400   291.11621     -30859.537      7998.9242      3568.8238    
      9500   269.28995     -30846.391      564.05727      3568.4635    
      9600   221.53203     -30789.599      7397.0066      3568.1033    
      9700   357.07638     -30897.458      3111.5751      3567.743     
      9800   348.91002     -30877.053      12824.397      3567.3827    
      9900   388.9794      -30934.172     -3666.0324      3567.0224    
     10000   336.86272     -30917.541      9505.5608      3566.6622    
Loop time of 433.779 on 8 procs for 10000 steps with 331 atoms

Performance: 0.996 ns/day, 24.099 hours/ns, 23.053 timesteps/s, 7.631 katom-step/s
98.7% CPU use with 8 MPI tasks x 1 OpenMP threads

MPI task timing breakdown:
Section |  min time  |  avg time  |  max time  |%varavg| %total
---------------------------------------------------------------
Pair    | 339.79     | 362.56     | 382.61     |  71.2 | 83.58
Bond    | 0.027137   | 0.030009   | 0.034596   |   1.4 |  0.01
Neigh   | 6.5595     | 6.9039     | 7.2529     |   8.1 |  1.59
Comm    | 3.5167     | 23.513     | 46.246     | 279.2 |  5.42
Output  | 0.032709   | 0.081208   | 0.17467    |  18.0 |  0.02
Modify  | 40.017     | 40.419     | 40.789     |   3.9 |  9.32
Other   |            | 0.275      |            |       |  0.06

Nlocal:         41.375 ave          47 max          36 min
Histogram: 2 0 1 0 1 1 1 0 0 2
Nghost:        3340.75 ave        3393 max        3288 min
Histogram: 2 1 1 0 0 0 1 0 1 2
Neighs:        26873.6 ave       30461 max       23511 min
Histogram: 2 0 1 0 1 1 1 0 0 2

Total # of neighbors = 214989
Ave neighs/atom = 649.5136
Ave special neighs/atom = 0
Neighbor list builds = 222
Dangerous builds = 0
  using 1 OpenMP thread(s) per MPI task
Reading restart file ...
  restart file = 2 Aug 2023, LAMMPS = 2 Aug 2023
  restoring atom style full from restart
  triclinic box = (0 0 0) to (15.7087 13.0868 17.5248) with tilt (-8.2042 -0.1458 -2.0056)
WARNING: Triclinic box skew is large. LAMMPS will run inefficiently. (src/domain.cpp:220)
  2 by 2 by 2 MPI processor grid
  pair style reaxff stores no restart info
  331 atoms
Finding 1-2 1-3 1-4 neighbors ...
  special bond factors lj:    0        0        0       
  special bond factors coul:  0        0        0       
     0 = max # of 1-2 neighbors
     0 = max # of 1-3 neighbors
     0 = max # of 1-4 neighbors
     1 = max # of special neighbors
  special bonds CPU = 0.000 seconds
  read_restart CPU = 0.005 seconds
*****Positive-deform 3 starts.*****
WARNING: Van der Waals parameters for element SI indicate inner wall+shielding, but earlier atoms indicate a different van der Waals method. This may cause division-by-zero errors. Keeping van der Waals setting for earlier atoms. (src/REAXFF/reaxff_ffield.cpp:251)
Neighbor list info ...
  update: every = 10 steps, delay = 0 steps, check = yes
  max neighbors/atom: 2000, page size: 100000
  master list distance cutoff = 12
  ghost atom cutoff = 12
  binsize = 6, bins = 5 3 3
  2 neighbor lists, perpetual/occasional/extra = 2 0 0
  (1) pair reaxff, perpetual
      attributes: half, newton off, ghost
      pair build: half/bin/newtoff/ghost
      stencil: full/ghost/bin/3d
      bin: standard
  (2) fix qeq/reaxff, perpetual, copy from (1)
      attributes: half, newton off
      pair build: copy
      stencil: none
      bin: none
Setting up Verlet run ...
  Unit style    : real
  Current step  : 0
  Time step     : 0.5
Per MPI rank memory allocation (min/avg/max) = 128 | 130 | 131.9 Mbytes
   Step          Temp          PotEng         Press          Volume    
         0   300           -30353.04      -661.2289       3602.6891    
       100   267.2481      -30341.286      16440.371      3603.0493    
       200   274.20079     -30368.483      11372.342      3603.4096    
       300   323.09305     -30415.408      9700.0003      3603.7699    
       400   298.59034     -30385.736     -2999.863       3604.1301    
       500   336.77353     -30422.247      12526.638      3604.4904    
       600   351.88138     -30410.488      7330.8055      3604.8507    
       700   331.18474     -30381.532      65.176488      3605.2109    
       800   329.52775     -30405.916     -7217.7076      3605.5712    
       900   279.71124     -30374.163      3028.4965      3605.9315    
      1000   282.41435     -30374.527      4866.9736      3606.2918    
      1100   271.73676     -30360.933      11220.741      3606.652     
      1200   314.58379     -30396.773     -680.43493      3607.0123    
      1300   322.69994     -30380.936      18982.303      3607.3726    
      1400   363.0763      -30388.402      2293.1958      3607.7328    
      1500   371.80708     -30413.094      15042.18       3608.0931    
      1600   306.609       -30371.142      5612.4859      3608.4534    
      1700   291.3211      -30371.418     -6055.6464      3608.8136    
      1800   261.75218     -30349.693      5542.4501      3609.1739    
      1900   263.21314     -30355.976      8133.635       3609.5342    
      2000   273.95918     -30357.152      8534.6979      3609.8944    
      2100   303.55099     -30358.434     -3195.1586      3610.2547    
      2200   275.13484     -30334.057     -1330.3443      3610.615     
      2300   288.02726     -30377.624      2301.9847      3610.9753    
      2400   299.00846     -30407.95      -1398.8067      3611.3355    
      2500   325.29041     -30453.238      8325.9789      3611.6958    
      2600   322.83882     -30467.154     -1899.0152      3612.0561    
      2700   286.86814     -30431.931      483.91413      3612.4163    
      2800   274.18307     -30419.532      11141.654      3612.7766    
      2900   266.29811     -30396.525      2407.2724      3613.1369    
      3000   288.91165     -30400.832      4634.4641      3613.4971    
      3100   282.45491     -30393.139      12515.193      3613.8574    
      3200   289.53346     -30427.329      8374.3102      3614.2177    
      3300   291.83452     -30447.836      5497.5537      3614.5779    
      3400   316.96306     -30468.87       6319.4175      3614.9382    
      3500   337.63126     -30474.187      19016.518      3615.2985    
      3600   280.26153     -30416.539      356.81978      3615.6587    
      3700   297.02999     -30434.719      5892.2648      3616.019     
      3800   344.51593     -30465.343      2802.8297      3616.3793    
      3900   302.91049     -30408.579     -2151.9237      3616.7396    
      4000   279.83447     -30421.276      3294.3126      3617.0998    
      4100   294.71631     -30443.942     -6370.2383      3617.4601    
      4200   313.78171     -30456.574     -152.6363       3617.8204    
      4300   317.17879     -30442.692     -26.620791      3618.1806    
      4400   284.04592     -30380.098      359.97762      3618.5409    
      4500   314.01241     -30404.196      4066.0526      3618.9012    
      4600   316.2401      -30454.023      6513.8259      3619.2614    
      4700   283.92899     -30430.978      12717.134      3619.6217    
      4800   286.18195     -30426.517     -4384.7211      3619.982     
      4900   312.17149     -30440.615     -1152.2859      3620.3422    
      5000   338.27316     -30450.282     -1037.5812      3620.7025    
      5100   313.03674     -30422.397      8062.6335      3621.0628    
      5200   280.89117     -30420.343      2266.6704      3621.423     
      5300   303.57874     -30456.459      10044.292      3621.7833    
      5400   266.28364     -30414.417      3719.3281      3622.1436    
      5500   302.77038     -30421.759      3305.1038      3622.5039    
      5600   334.81885     -30439.171      7202.3109      3622.8641    
      5700   302.31068     -30417.852      12891.221      3623.2244    
      5800   293.32706     -30416.967      11076.536      3623.5847    
      5900   328.97868     -30460.855      12830.557      3623.9449    
      6000   271.671       -30421.123      12044.08       3624.3052    
      6100   286.34468     -30455.743      9107.8103      3624.6655    
      6200   291.66083     -30450.62       3745.3472      3625.0257    
      6300   281.38075     -30409.617      5904.1545      3625.386     
      6400   341.45197     -30462.223      6567.7205      3625.7463    
      6500   301.49095     -30433.373      8909.9339      3626.1065    
      6600   305.28302     -30459.431      22648.511      3626.4668    
      6700   285.30672     -30443.461      4406.0787      3626.8271    
      6800   278.64463     -30427.828      11539.33       3627.1874    
      6900   298.01514     -30436.447      952.64071      3627.5476    
      7000   269.41382     -30402.261      22656.393      3627.9079    
      7100   286.51656     -30414.612      7262.3138      3628.2682    
      7200   305.96757     -30420.718      15886.564      3628.6284    
      7300   311.83279     -30413.43       3034.1724      3628.9887    
      7400   272.64382     -30398.76       5536.23        3629.349     
      7500   317.14256     -30460.861      1621.7122      3629.7092    
      7600   296.24272     -30439.246     -205.90879      3630.0695    
      7700   292.89467     -30446.44       1222.496       3630.4298    
      7800   275.17366     -30452.618     -5590.2188      3630.79      
      7900   284.42546     -30457.157      9027.154       3631.1503    
      8000   300.19709     -30449.295     -10412.054      3631.5106    
      8100   275.1778      -30406.35       5953.9915      3631.8708    
      8200   345.75228     -30480.439      10547.948      3632.2311    
      8300   332.12188     -30510.898      12995.689      3632.5914    
      8400   316.83177     -30539.116     -3861.2104      3632.9517    
      8500   268.84529     -30525.498      7602.6055      3633.3119    
      8600   287.45439     -30558.341     -2487.4015      3633.6722    
      8700   305.11414     -30575.923      5077.7628      3634.0325    
      8800   325.74491     -30580.549      11570.478      3634.3927    
      8900   281.03363     -30510.421      12776.713      3634.753     
      9000   323.57347     -30556.092      21034.448      3635.1133    
      9100   333.94435     -30592.436     -2064.0635      3635.4735    
      9200   282.67227     -30560.575      12557.607      3635.8338    
      9300   281.96826     -30553.296     -6394.4255      3636.1941    
      9400   286.49213     -30544.74       7386.9746      3636.5543    
      9500   311.71999     -30563.332      1182.9139      3636.9146    
      9600   320.57427     -30566.486      1805.475       3637.2749    
      9700   279.19149     -30530.407      2555.1479      3637.6351    
      9800   314.89087     -30585.618     -3656.5521      3637.9954    
      9900   309.61842     -30591.157     -2901.1412      3638.3557    
     10000   284.9598      -30569.632      1102.4974      3638.716     
Loop time of 425.679 on 8 procs for 10000 steps with 331 atoms

Performance: 1.015 ns/day, 23.649 hours/ns, 23.492 timesteps/s, 7.776 katom-step/s
98.7% CPU use with 8 MPI tasks x 1 OpenMP threads

MPI task timing breakdown:
Section |  min time  |  avg time  |  max time  |%varavg| %total
---------------------------------------------------------------
Pair    | 341.71     | 358.09     | 375.42     |  62.7 | 84.12
Bond    | 0.027415   | 0.030292   | 0.035903   |   1.6 |  0.01
Neigh   | 6.1293     | 6.3301     | 6.6475     |   6.0 |  1.49
Comm    | 4.6106     | 21.877     | 38.212     | 253.2 |  5.14
Output  | 0.031758   | 0.08065    | 0.1753     |  18.3 |  0.02
Modify  | 38.636     | 38.993     | 39.249     |   2.9 |  9.16
Other   |            | 0.2724     |            |       |  0.06

Nlocal:         41.375 ave          48 max          36 min
Histogram: 2 1 1 1 0 0 0 0 1 2
Nghost:        3288.12 ave        3308 max        3239 min
Histogram: 1 0 0 0 0 1 0 3 0 3
Neighs:        26362.6 ave       30543 max       23162 min
Histogram: 2 1 1 1 0 0 0 0 2 1

Total # of neighbors = 210901
Ave neighs/atom = 637.16314
Ave special neighs/atom = 0
Neighbor list builds = 205
Dangerous builds = 0
  using 1 OpenMP thread(s) per MPI task
Reading restart file ...
  restart file = 2 Aug 2023, LAMMPS = 2 Aug 2023
  restoring atom style full from restart
  triclinic box = (0 0 0) to (15.7087 13.0868 17.5248) with tilt (-8.2042 -0.1458 -2.0056)
WARNING: Triclinic box skew is large. LAMMPS will run inefficiently. (src/domain.cpp:220)
  2 by 2 by 2 MPI processor grid
  pair style reaxff stores no restart info
  331 atoms
Finding 1-2 1-3 1-4 neighbors ...
  special bond factors lj:    0        0        0       
  special bond factors coul:  0        0        0       
     0 = max # of 1-2 neighbors
     0 = max # of 1-3 neighbors
     0 = max # of 1-4 neighbors
     1 = max # of special neighbors
  special bonds CPU = 0.000 seconds
  read_restart CPU = 0.003 seconds
*****debug*****
xy = -8.2042000000000001592, deltaxy = 0.082042
xz = -0.14580000000000001292, deltaxz = 0.001458
yz = -2.0055999999999998273, deltayz = 0.020056
*****
*****Negative-deform 4 starts.*****
WARNING: Van der Waals parameters for element SI indicate inner wall+shielding, but earlier atoms indicate a different van der Waals method. This may cause division-by-zero errors. Keeping van der Waals setting for earlier atoms. (src/REAXFF/reaxff_ffield.cpp:251)
Neighbor list info ...
  update: every = 10 steps, delay = 0 steps, check = yes
  max neighbors/atom: 2000, page size: 100000
  master list distance cutoff = 12
  ghost atom cutoff = 12
  binsize = 6, bins = 5 3 3
  2 neighbor lists, perpetual/occasional/extra = 2 0 0
  (1) pair reaxff, perpetual
      attributes: half, newton off, ghost
      pair build: half/bin/newtoff/ghost
      stencil: full/ghost/bin/3d
      bin: standard
  (2) fix qeq/reaxff, perpetual, copy from (1)
      attributes: half, newton off
      pair build: copy
      stencil: none
      bin: none
Setting up Verlet run ...
  Unit style    : real
  Current step  : 0
  Time step     : 0.5
Per MPI rank memory allocation (min/avg/max) = 128 | 130 | 131.9 Mbytes
   Step          Temp          PotEng         Press          Volume    
         0   300           -30353.04      -661.2289       3602.6891    
       100   267.24687     -30341.286      16442          3602.6891    
       200   274.27042     -30368.411      11396.124      3602.6891    
       300   323.16361     -30415.313      9727.0273      3602.6891    
       400   298.58253     -30385.641     -3040.2584      3602.6891    
       500   336.25566     -30421.858      12893.616      3602.6891    
       600   348.82603     -30408.277      7626.2482      3602.6891    
       700   332.11771     -30382.867     -52.038378      3602.6891    
       800   327.55543     -30403.013     -5904.5554      3602.6891    
       900   285.2239      -30380.25       3623.1376      3602.6891    
      1000   315.54907     -30410.204      5897.7526      3602.6891    
      1100   297.2365      -30386.095      13566.226      3602.6891    
      1200   298.39908     -30380.206      536.97781      3602.6891    
      1300   270.17959     -30344.393      17265.364      3602.6891    
      1400   286.18239     -30356.617      5626.7483      3602.6891    
      1500   278.17939     -30346.073      6434.5473      3602.6891    
      1600   281.43182     -30364.007      16149.348      3602.6891    
      1700   255.64204     -30354.869      920.89584      3602.6891    
      1800   302.19932     -30415.752      8315.2285      3602.6891    
      1900   320.667       -30454.922     -1266.8475      3602.6891    
      2000   310.7627      -30447.714     -1345.3182      3602.6891    
      2100   288.20966     -30418.756      8918.7495      3602.6891    
      2200   326.0751      -30433.957      3778.9855      3602.6891    
      2300   327.61786     -30417.459      12940.795      3602.6891    
      2400   299.64247     -30401.721      1442.2048      3602.6891    
      2500   331.75987     -30467.032     -17051.477      3602.6891    
      2600   289.97667     -30438.837      2015.3895      3602.6891    
      2700   320.38283     -30475.834      9777.9835      3602.6891    
      2800   320.21571     -30474.452     -1333.8974      3602.6891    
      2900   301.51103     -30456.754     -1247.4509      3602.6891    
      3000   268.88259     -30444.677      5011.755       3602.6891    
      3100   319.8683      -30509.243      6301.5514      3602.6891    
      3200   258.73589     -30464.59      -5609.7191      3602.6891    
      3300   288.16114     -30509.436      10527.436      3602.6891    
      3400   323.79544     -30521.419     -3988.2472      3602.6891    
      3500   304.91865     -30473.073     -6141.8549      3602.6891    
      3600   286.76406     -30448.32       11491.025      3602.6891    
      3700   294.26539     -30471.004     -5187.2832      3602.6891    
      3800   277.04125     -30477.6        14148.954      3602.6891    
      3900   279.43103     -30484.031      1320.7064      3602.6891    
      4000   289.51809     -30483.15       2334.4983      3602.6891    
      4100   327.22883     -30499.988      15772.771      3602.6891    
      4200   351.83033     -30476.699      7504.8136      3602.6891    
      4300   319.5356      -30457.784      18983.924      3602.6891    
      4400   327.36349     -30503.025      8591.5131      3602.6891    
      4500   311.29106     -30507.243      1583.2842      3602.6891    
      4600   262.71031     -30471.443      20074.071      3602.6891    
      4700   270.93181     -30488.303      17727.692      3602.6891    
      4800   311.20908     -30542.222      10494.668      3602.6891    
      4900   295.00205     -30536.194      12212.236      3602.6891    
      5000   279.11682     -30510.498      2476.1105      3602.6891    
      5100   310.75769     -30516.641      12382.008      3602.6891    
      5200   325.21431     -30520.755      10704.521      3602.6891    
      5300   291.40855     -30486.276      13342.449      3602.6891    
      5400   269.25999     -30500.328      13520.323      3602.6891    
      5500   311.95244     -30557.314      11182.011      3602.6891    
      5600   325.18438     -30563.228      1537.0814      3602.6891    
      5700   298.55421     -30511.534      1272.3011      3602.6891    
      5800   309.5617      -30502.304      6291.5791      3602.6891    
      5900   331.09936     -30521.462      6310.7996      3602.6891    
      6000   288.58776     -30490.932     -13939.232      3602.6891    
      6100   286.68679     -30502.87       4646.0236      3602.6891    
      6200   317.8364      -30536.94      -2592.3747      3602.6891    
      6300   293.54423     -30501.307      7933.1886      3602.6891    
      6400   313.60379     -30487.752      7582.3611      3602.6891    
      6500   373.94423     -30574.028      22662.305      3602.6891    
      6600   284.50615     -30519.313      7647.5086      3602.6891    
      6700   276.96533     -30533.172      11253.789      3602.6891    
      6800   257.61052     -30533.541      22095.289      3602.6891    
      6900   277.54927     -30556.287      11689.11       3602.6891    
      7000   284.08488     -30557.403      14660.498      3602.6891    
      7100   305.3937      -30573.619      8855.2734      3602.6891    
      7200   324.04383     -30595.557      6620.6947      3602.6891    
      7300   295.02169     -30585.219      8933.697       3602.6891    
      7400   329.34572     -30624.282      7992.7177      3602.6891    
      7500   332.06394     -30606.875     -1350.6516      3602.6891    
      7600   331.18429     -30579.287      1492.8473      3602.6891    
      7700   296.35924     -30547.419     -6503.8328      3602.6891    
      7800   266.14706     -30539.8        9518.4832      3602.6891    
      7900   270.5852      -30548.523      4058.6885      3602.6891    
      8000   268.72745     -30542.141      1803.8749      3602.6891    
      8100   292.52349     -30565.387      3882.2843      3602.6891    
      8200   281.28349     -30552.041      10350.083      3602.6891    
      8300   317.54208     -30564.295      10402.609      3602.6891    
      8400   329.61778     -30565.979      7546.2649      3602.6891    
      8500   326.08283     -30593.007      6503.4501      3602.6891    
      8600   326.84775     -30616.944      8476.2782      3602.6891    
      8700   294.19635     -30587.178      11359.624      3602.6891    
      8800   294.51636     -30583.883      1373.7074      3602.6891    
      8900   312.98613     -30581.594     -68.084507      3602.6891    
      9000   338.25968     -30583.78      -8720.3728      3602.6891    
      9100   346.57065     -30613.457      12063.054      3602.6891    
      9200   342.72956     -30637.447      8144.3588      3602.6891    
      9300   308.35293     -30614.281      15878.945      3602.6891    
      9400   334.97547     -30652.256      18239.918      3602.6891    
      9500   288.31526     -30620.207      6506.3836      3602.6891    
      9600   277.6691      -30607.841      14030.956      3602.6891    
      9700   301.28049     -30594.317      4808.8735      3602.6891    
      9800   297.42659     -30580.764     -3193.6702      3602.6891    
      9900   294.75555     -30580.085      9441.7887      3602.6891    
     10000   311.46101     -30619.315      1225.4755      3602.6891    
Loop time of 428.022 on 8 procs for 10000 steps with 331 atoms

Performance: 1.009 ns/day, 23.779 hours/ns, 23.363 timesteps/s, 7.733 katom-step/s
98.8% CPU use with 8 MPI tasks x 1 OpenMP threads

MPI task timing breakdown:
Section |  min time  |  avg time  |  max time  |%varavg| %total
---------------------------------------------------------------
Pair    | 301.51     | 355.17     | 379.2      | 121.4 | 82.98
Bond    | 0.02762    | 0.030437   | 0.035597   |   1.4 |  0.01
Neigh   | 5.0893     | 6.1025     | 6.5092     |  16.3 |  1.43
Comm    | 3.718      | 27.673     | 81.314     | 434.7 |  6.47
Output  | 0.030724   | 0.079765   | 0.17421    |  18.4 |  0.02
Modify  | 38.26      | 38.694     | 39.81      |   7.1 |  9.04
Other   |            | 0.2719     |            |       |  0.06

Nlocal:         41.375 ave          46 max          34 min
Histogram: 1 0 0 0 1 2 0 1 2 1
Nghost:         3290.5 ave        3307 max        3261 min
Histogram: 1 0 0 0 3 0 0 0 1 3
Neighs:          26627 ave       29344 max       22069 min
Histogram: 1 0 0 0 1 1 1 1 2 1

Total # of neighbors = 213016
Ave neighs/atom = 643.55287
Ave special neighs/atom = 0
Neighbor list builds = 200
Dangerous builds = 0
  using 1 OpenMP thread(s) per MPI task
Reading restart file ...
  restart file = 2 Aug 2023, LAMMPS = 2 Aug 2023
  restoring atom style full from restart
  triclinic box = (0 0 0) to (15.7087 13.0868 17.5248) with tilt (-8.2042 -0.1458 -2.0056)
WARNING: Triclinic box skew is large. LAMMPS will run inefficiently. (src/domain.cpp:220)
  2 by 2 by 2 MPI processor grid
  pair style reaxff stores no restart info
  331 atoms
Finding 1-2 1-3 1-4 neighbors ...
  special bond factors lj:    0        0        0       
  special bond factors coul:  0        0        0       
     0 = max # of 1-2 neighbors
     0 = max # of 1-3 neighbors
     0 = max # of 1-4 neighbors
     1 = max # of special neighbors
  special bonds CPU = 0.000 seconds
  read_restart CPU = 0.004 seconds
*****Positive-deform 4 starts.*****
WARNING: Van der Waals parameters for element SI indicate inner wall+shielding, but earlier atoms indicate a different van der Waals method. This may cause division-by-zero errors. Keeping van der Waals setting for earlier atoms. (src/REAXFF/reaxff_ffield.cpp:251)
Neighbor list info ...
  update: every = 10 steps, delay = 0 steps, check = yes
  max neighbors/atom: 2000, page size: 100000
  master list distance cutoff = 12
  ghost atom cutoff = 12
  binsize = 6, bins = 5 3 3
  2 neighbor lists, perpetual/occasional/extra = 2 0 0
  (1) pair reaxff, perpetual
      attributes: half, newton off, ghost
      pair build: half/bin/newtoff/ghost
      stencil: full/ghost/bin/3d
      bin: standard
  (2) fix qeq/reaxff, perpetual, copy from (1)
      attributes: half, newton off
      pair build: copy
      stencil: none
      bin: none
Setting up Verlet run ...
  Unit style    : real
  Current step  : 0
  Time step     : 0.5
Per MPI rank memory allocation (min/avg/max) = 128 | 130 | 131.9 Mbytes
   Step          Temp          PotEng         Press          Volume    
         0   300           -30353.04      -661.2289       3602.6891    
       100   267.24956     -30341.286      16442.034      3602.6891    
       200   274.27346     -30368.472      11390.551      3602.6891    
       300   323.35713     -30415.535      9742.689       3602.6891    
       400   298.61543     -30385.69      -2966.5817      3602.6891    
       500   336.0981      -30421.604      12584.168      3602.6891    
       600   349.00189     -30407.975      7657.6756      3602.6891    
       700   335.01135     -30386.083     -38.641158      3602.6891    
       800   331.61885     -30407.911     -7017.3023      3602.6891    
       900   286.99073     -30381.823      5286.7112      3602.6891    
      1000   302.82783     -30395.123      6686.2838      3602.6891    
      1100   281.83485     -30365.004      13995.592      3602.6891    
      1200   281.48289     -30357.868     -3321.0981      3602.6891    
      1300   277.36527     -30336.397      17921.422      3602.6891    
      1400   341.68557     -30373.087      3625.7602      3602.6891    
      1500   329.7023      -30383.47       5221.7807      3602.6891    
      1600   336.15187     -30419.161      3864.8731      3602.6891    
      1700   282.04807     -30376.307      3340.6667      3602.6891    
      1800   273.51001     -30368.635      10811.136      3602.6891    
      1900   285.0368      -30361.079     -3673.7503      3602.6891    
      2000   322.16597     -30370.688      2404.9921      3602.6891    
      2100   284.53022     -30337.603      839.97344      3602.6891    
      2200   311.53991     -30404.588      510.07886      3602.6891    
      2300   281.4957      -30380.166      3799.7459      3602.6891    
      2400   323.24203     -30413.587      4925.2846      3602.6891    
      2500   356.15786     -30431.087      3266.0623      3602.6891    
      2600   353.53386     -30409.343      1586.9124      3602.6891    
      2700   352.77167     -30430.115      10526.908      3602.6891    
      2800   289.5012      -30397.87       8219.8781      3602.6891    
      2900   315.90483     -30447.436      9666.143       3602.6891    
      3000   272.41504     -30409.68       7158.976       3602.6891    
      3100   323.73732     -30449.311      2466.4149      3602.6891    
      3200   280.43409     -30377.498     -7229.6784      3602.6891    
      3300   338.68498     -30436.169      831.02485      3602.6891    
      3400   272.66808     -30384.904      5042.9254      3602.6891    
      3500   308.41358     -30434.147      6443.7697      3602.6891    
      3600   261.06206     -30389.272     -3351.4474      3602.6891    
      3700   307.03636     -30433.091      5616.1635      3602.6891    
      3800   328.20897     -30434.167      4078.1226      3602.6891    
      3900   281.34589     -30362.495      6242.7356      3602.6891    
      4000   295.32365     -30387.128     -6413.1541      3602.6891    
[...]
*****
*****Negative-deform 6 starts.*****
WARNING: Van der Waals parameters for element SI indicate inner wall+shielding, but earlier atoms indicate a different van der Waals method. This may cause division-by-zero errors. Keeping van der Waals setting for earlier atoms. (src/REAXFF/reaxff_ffield.cpp:251)
Neighbor list info ...
  update: every = 10 steps, delay = 0 steps, check = yes
  max neighbors/atom: 2000, page size: 100000
  master list distance cutoff = 12
  ghost atom cutoff = 12
  binsize = 6, bins = 5 3 3
  2 neighbor lists, perpetual/occasional/extra = 2 0 0
  (1) pair reaxff, perpetual
      attributes: half, newton off, ghost
      pair build: half/bin/newtoff/ghost
      stencil: full/ghost/bin/3d
      bin: standard
  (2) fix qeq/reaxff, perpetual, copy from (1)
      attributes: half, newton off
      pair build: copy
      stencil: none
      bin: none
Setting up Verlet run ...
  Unit style    : real
  Current step  : 0
  Time step     : 0.5
Per MPI rank memory allocation (min/avg/max) = 128 | 130 | 131.9 Mbytes
   Step          Temp          PotEng         Press          Volume    
         0   300           -30353.04      -661.2289       3602.6891    
       100   267.24339     -30341.284      16441.426      3602.6891    
       200   274.29347     -30368.451      11417.408      3602.6891    
       300   323.22649     -30415.416      9720.3548      3602.6891    
       400   298.52453     -30385.407     -3012.9394      3602.6891    
       500   336.8798      -30422.017      12491.212      3602.6891    
       600   348.26527     -30406.313      7458.0698      3602.6891    
       700   332.50364     -30382.331      1264.6339      3602.6891    
       800   329.76338     -30405.712     -7212.5047      3602.6891    
       900   285.16594     -30377.513      5143.4625      3602.6891    
      1000   305.91725     -30398.661      6415.8699      3602.6891    
      1100   288.70791     -30373.308      11002.134      3602.6891    
      1200   288.65701     -30364.375     -3640.3265      3602.6891    
      1300   276.97524     -30337.774      15338.478      3602.6891    
      1400   287.48081     -30349.697      593.44888      3602.6891    
      1500   277.07683     -30364.253      2584.2389      3602.6891    
      1600   334.74773     -30444.52       6302.2512      3602.6891    
      1700   336.2967      -30463.461      7402.6261      3602.6891    
      1800   247.65989     -30397.083      13835.19       3602.6891    
      1900   335.46049     -30483.182      1799.3721      3602.6891    
      2000   316.20839     -30441.642      196.6465       3602.6891    
      2100   286.37356     -30404.018     -6594.6547      3602.6891    
      2200   350.96175     -30467.436     -3884.8064      3602.6891    
      2300   345.63504     -30475.483      742.25169      3602.6891    
      2400   321.35822     -30468.482      1363.0031      3602.6891    
      2500   276.2395      -30439.492     -5269.2167      3602.6891    
      2600   263.05117     -30412.498      9683.4696      3602.6891    
      2700   304.57101     -30415.295      7406.6329      3602.6891    
      2800   300.94876     -30422.579      7493.5897      3602.6891    
      2900   313.52663     -30456.077      4615.6276      3602.6891    
      3000   286.85754     -30437.63       11188.541      3602.6891    
      3100   253.56761     -30406.521     -5376.2661      3602.6891    
      3200   319.05164     -30466.892      3895.891       3602.6891    
      3300   347.06477     -30472.296      18744.019      3602.6891    
      3400   279.81884     -30409.358      6217.6805      3602.6891    
      3500   263.54237     -30416.91       12612.65       3602.6891    
      3600   288.03108     -30449.617      16200.156      3602.6891    
      3700   320.88047     -30469.104      8175.097       3602.6891    
      3800   311.69913     -30450.319      6047.1532      3602.6891    
      3900   286.29922     -30420.265      586.80612      3602.6891    
      4000   325.93735     -30459.174     -186.51207      3602.6891    
      4100   312.92081     -30477.083      8604.0234      3602.6891    
      4200   294.80316     -30470.161      13117.328      3602.6891    
      4300   293.84945     -30457.804      5082.9308      3602.6891    
      4400   266.12256     -30421.209     -5627.2281      3602.6891    
      4500   320.34265     -30490.905      4598.1645      3602.6891    
      4600   301.46335     -30506.254      7593.9252      3602.6891    
      4700   240.02618     -30440.673     -8878.9346      3602.6891    
      4800   297.22115     -30471.24       6921.0567      3602.6891    
      4900   333.00406     -30494.836      12344.413      3602.6891    
      5000   307.38609     -30465.86       6155.4832      3602.6891    
      5100   276.5841      -30444.173      3302.1114      3602.6891    
      5200   245.27835     -30442.341     -9951.9243      3602.6891    
      5300   301.55968     -30508.495      7380.6009      3602.6891    
      5400   312.75722     -30493.995      5574.8762      3602.6891    
      5500   284.29029     -30444.219      17400.544      3602.6891    
      5600   280.66603     -30438.497      11461.393      3602.6891    
      5700   293.13836     -30452.711      5697.504       3602.6891    
      5800   342.93175     -30517.321      3508.3875      3602.6891    
      5900   280.45919     -30486.294      10386.893      3602.6891    
      6000   250.65275     -30447.715      6769.8351      3602.6891    
      6100   324.83063     -30502.388      11603.377      3602.6891    
      6200   353.2244      -30519.4       -1526.3532      3602.6891    
      6300   308.52889     -30466.311      16.425206      3602.6891    
      6400   277.94223     -30429.321     -6702.3658      3602.6891    
      6500   294.43222     -30416.608      461.46399      3602.6891    
      6600   282.66263     -30413.749      10125.608      3602.6891    
      6700   288.68355     -30452.083      12780.54       3602.6891    
      6800   337.60708     -30513.332      8228.0735      3602.6891    
      6900   330.10564     -30511.671      11511.108      3602.6891    
      7000   276.88306     -30457.082     -4282.1663      3602.6891    
      7100   306.90838     -30461.932      10563.987      3602.6891    
      7200   314.68459     -30451.957     -4220.0222      3602.6891    
      7300   352.09038     -30496.618     -3438.4678      3602.6891    
      7400   317.35451     -30493.633      746.65146      3602.6891    
      7500   264.47699     -30455.227      10778.465      3602.6891    
      7600   295.73148     -30478.113      17079.311      3602.6891    
      7700   308.56469     -30477.715      10333.727      3602.6891    
      7800   296.51034     -30454.237      12853.399      3602.6891    
      7900   260.81662     -30418.309      8791.7677      3602.6891    
      8000   290.39582     -30422.911      8190.7003      3602.6891    
      8100   310.8487      -30427.463      3781.9535      3602.6891    
      8200   299.89526     -30443.409      12634.603      3602.6891    
      8300   310.51441     -30476.403      3675.2607      3602.6891    
      8400   279.67249     -30450.437      11783.437      3602.6891    
      8500   280.61084     -30444.757      7099.7688      3602.6891    
      8600   301.33502     -30436.545     -3037.8554      3602.6891    
      8700   305.61696     -30429.665      20542.295      3602.6891    
      8800   325.79911     -30481.291      11138.273      3602.6891    
      8900   321.4101      -30493.283      4460.0927      3602.6891    
      9000   290.66557     -30457.954      4983.5721      3602.6891    
      9100   271.10551     -30437.832      16313.757      3602.6891    
      9200   269.07912     -30427.274      4783.4472      3602.6891    
      9300   342.32877     -30483.821      14178.725      3602.6891    
      9400   366.6446      -30496.192      2102.6114      3602.6891    
      9500   296.1509      -30440.703      1433.2806      3602.6891    
      9600   274.65119     -30450.364      8981.346       3602.6891    
      9700   304.16031     -30486.353      4211.9957      3602.6891    
      9800   315.72547     -30491.623     -3483.5861      3602.6891    
      9900   306.78396     -30451.535      2838.3036      3602.6891    
     10000   284.85521     -30428.606      422.77528      3602.6891    
Loop time of 454.473 on 8 procs for 10000 steps with 331 atoms

Performance: 0.951 ns/day, 25.249 hours/ns, 22.003 timesteps/s, 7.283 katom-step/s
98.6% CPU use with 8 MPI tasks x 1 OpenMP threads

MPI task timing breakdown:
Section |  min time  |  avg time  |  max time  |%varavg| %total
---------------------------------------------------------------
Pair    | 367.87     | 383.03     | 403.95     |  55.7 | 84.28
Bond    | 0.0298     | 0.033319   | 0.036315   |   1.2 |  0.01
Neigh   | 5.7991     | 5.9732     | 6.1198     |   4.4 |  1.31
Comm    | 4.8834     | 25.816     | 41         | 214.7 |  5.68
Output  | 0.038729   | 0.092323   | 0.19412    |  18.6 |  0.02
Modify  | 39.124     | 39.252     | 39.441     |   1.6 |  8.64
Other   |            | 0.2799     |            |       |  0.06

Nlocal:         41.375 ave          47 max          36 min
Histogram: 1 0 0 1 2 3 0 0 0 1
Nghost:           3301 ave        3346 max        3263 min
Histogram: 2 1 1 0 0 0 2 0 0 2
Neighs:        26613.6 ave       30040 max       23427 min
Histogram: 1 0 0 1 2 3 0 0 0 1

Total # of neighbors = 212909
Ave neighs/atom = 643.22961
Ave special neighs/atom = 0
Neighbor list builds = 194
Dangerous builds = 0
  using 1 OpenMP thread(s) per MPI task
Reading restart file ...
  restart file = 2 Aug 2023, LAMMPS = 2 Aug 2023
  restoring atom style full from restart
  triclinic box = (0 0 0) to (15.7087 13.0868 17.5248) with tilt (-8.2042 -0.1458 -2.0056)
WARNING: Triclinic box skew is large. LAMMPS will run inefficiently. (src/domain.cpp:220)
  2 by 2 by 2 MPI processor grid
  pair style reaxff stores no restart info
  331 atoms
Finding 1-2 1-3 1-4 neighbors ...
  special bond factors lj:    0        0        0       
  special bond factors coul:  0        0        0       
     0 = max # of 1-2 neighbors
     0 = max # of 1-3 neighbors
     0 = max # of 1-4 neighbors
     1 = max # of special neighbors
  special bonds CPU = 0.000 seconds
  read_restart CPU = 0.003 seconds
*****Positive-deform 6 starts.*****
WARNING: Van der Waals parameters for element SI indicate inner wall+shielding, but earlier atoms indicate a different van der Waals method. This may cause division-by-zero errors. Keeping van der Waals setting for earlier atoms. (src/REAXFF/reaxff_ffield.cpp:251)
Neighbor list info ...
  update: every = 10 steps, delay = 0 steps, check = yes
  max neighbors/atom: 2000, page size: 100000
  master list distance cutoff = 12
  ghost atom cutoff = 12
  binsize = 6, bins = 5 3 3
  2 neighbor lists, perpetual/occasional/extra = 2 0 0
  (1) pair reaxff, perpetual
      attributes: half, newton off, ghost
      pair build: half/bin/newtoff/ghost
      stencil: full/ghost/bin/3d
      bin: standard
  (2) fix qeq/reaxff, perpetual, copy from (1)
      attributes: half, newton off
      pair build: copy
      stencil: none
      bin: none
Setting up Verlet run ...
  Unit style    : real
  Current step  : 0
  Time step     : 0.5
Per MPI rank memory allocation (min/avg/max) = 128 | 130 | 131.9 Mbytes
   Step          Temp          PotEng         Press          Volume    
         0   300           -30353.04      -661.2289       3602.6891    
       100   267.25304     -30341.289      16442.609      3602.6891    
       200   274.2965      -30368.473      11377.369      3602.6891    
       300   323.38245     -30415.596      9725.7094      3602.6891    
       400   298.67148     -30385.832     -3046.3276      3602.6891    
       500   336.15215     -30421.763      12596.397      3602.6891    
       600   348.774       -30407.91       7479.961       3602.6891    
       700   335.80328     -30386.607      698.59992      3602.6891    
       800   332.67385     -30407.584     -6888.9663      3602.6891    
       900   285.22581     -30379.005      3135.3217      3602.6891    
      1000   305.5663      -30399.312      5042.3217      3602.6891    
      1100   285.29811     -30371.44       12903.957      3602.6891    
      1200   283.76059     -30361.698     -1905.5866      3602.6891    
      1300   275.25299     -30345.269      20181.655      3602.6891    
      1400   277.34563     -30356.898      3176.6838      3602.6891    
      1500   276.08417     -30375.187      871.84268      3602.6891    
      1600   290.7939      -30407.204      3454.0818      3602.6891    
      1700   332.92504     -30441.747      6183.1514      3602.6891    
      1800   322.82474     -30401.524      12412.226      3602.6891    
      1900   317.21376     -30408.866      5173.7782      3602.6891    
      2000   289.19324     -30405.194      6529.7279      3602.6891    
      2100   322.5293      -30454.144     -6259.2097      3602.6891    
      2200   282.42144     -30426.14       8902.5849      3602.6891    
      2300   310.80889     -30451.51       4063.2418      3602.6891    
      2400   311.21673     -30424.429      4062.9887      3602.6891    
      2500   338.83127     -30442.715     -5230.7081      3602.6891    
      2600   286.36376     -30419.852      1801.0687      3602.6891    
      2700   278.51762     -30429.162      5310.4798      3602.6891    
      2800   245.74174     -30397.473      3703.7057      3602.6891    
      2900   319.68168     -30463.806      17690.816      3602.6891    
      3000   298.73354     -30418.14       661.54222      3602.6891    
      3100   312.44521     -30414.754      4368.9858      3602.6891    
      3200   314.20942     -30442.505     -17.802208      3602.6891    
      3300   262.43027     -30406.774      11026.232      3602.6891    
      3400   279.02834     -30429.47       11007.066      3602.6891    
      3500   318.30701     -30472.564      13213.148      3602.6891    
      3600   317.67949     -30449.128      9902.632       3602.6891    
      3700   349.8308      -30467.674      3508.8341      3602.6891    
      3800   316.14779     -30428.455     -1446.7501      3602.6891    
      3900   294.75709     -30444.298      1480.1667      3602.6891    
      4000   325.74203     -30491.316      8144.1283      3602.6891    
      4100   276.98864     -30441.91       9269.3992      3602.6891    
      4200   292.148       -30430.782      5708.637       3602.6891    
      4300   319.28241     -30441.969      8770.7996      3602.6891    
      4400   302.03157     -30431.655      8406.5025      3602.6891    
      4500   326.08719     -30476.823     -1287.7592      3602.6891    
      4600   287.60318     -30448.866      7373.3987      3602.6891    
      4700   335.57187     -30508.595      9555.7279      3602.6891    
      4800   283.22105     -30455.049      14160.548      3602.6891    
      4900   296.55086     -30457.977      1622.2557      3602.6891    
      5000   343.83189     -30500.22       7163.9042      3602.6891    
      5100   293.80524     -30444.094      6266.9101      3602.6891    
      5200   352.00686     -30486.17       6169.4511      3602.6891    
      5300   287.79367     -30414.967      2435.322       3602.6891    
      5400   319.5366      -30479.678     -2578.2395      3602.6891    
      5500   281.27289     -30454.96       4254.0489      3602.6891    
      5600   347.79321     -30506.538      5541.2003      3602.6891    
      5700   279.00976     -30426.46       2554.9631      3602.6891    
      5800   354.66066     -30489.766      17191.154      3602.6891    
      5900   304.18456     -30462.791      4221.4173      3602.6891    
      6000   324.45249     -30515.619      1409.9933      3602.6891    
      6100   274.10316     -30474.293      2492.2087      3602.6891    
      6200   312.37307     -30506.038      931.94657      3602.6891    
      6300   335.66718     -30507.031     -7569.7816      3602.6891    
      6400   317.59315     -30472.946      4057.5556      3602.6891    
      6500   336.5579      -30490.627      2963.4687      3602.6891    
      6600   284.24848     -30479.996      8671.8524      3602.6891    
      6700   324.30167     -30527.721     -3271.6429      3602.6891    
      6800   323.28932     -30513.064     -1047.1107      3602.6891    
      6900   310.93089     -30480.218      2087.9175      3602.6891    
      7000   294.88501     -30442.326      21.807987      3602.6891    
      7100   300.9254      -30437.3        1832.2522      3602.6891    
      7200   335.45552     -30501.941      4436.8982      3602.6891    
      7300   275.32428     -30466.648      4708.7286      3602.6891    
      7400   322.43918     -30518.221     -1944.7237      3602.6891    
      7500   288.94732     -30477.158      9538.7404      3602.6891    
      7600   255.58924     -30421.033      65.161846      3602.6891    
      7700   320.01713     -30464.262      4966.6413      3602.6891    
      7800   303.43037     -30456.975      2110.7433      3602.6891    
      7900   274.19043     -30465.652      9478.6         3602.6891    
      8000   301.42047     -30487.925      520.49504      3602.6891    
      8100   286.98083     -30463.409      22139.774      3602.6891    
      8200   339.62424     -30500.625      8402.458       3602.6891    
      8300   306.00301     -30460.293      231.18856      3602.6891    
      8400   343.15615     -30526.902      9934.5024      3602.6891    
      8500   282.59271     -30485.873      1450.0006      3602.6891    
      8600   282.08348     -30477.358      4803.2253      3602.6891    
      8700   316.80028     -30496.408      3940.0482      3602.6891    
      8800   302.19408     -30455.803      476.35133      3602.6891    
      8900   356.05638     -30513.765     -672.30867      3602.6891    
      9000   297.23769     -30466.467      8092.3673      3602.6891    
      9100   307.25045     -30490.447      4028.2681      3602.6891    
      9200   287.2616      -30471.325      7719.2951      3602.6891    
      9300   315.24355     -30478.996      3284.6949      3602.6891    
      9400   309.30233     -30459.64       8170.7812      3602.6891    
      9500   270.97186     -30438.948      4347.4847      3602.6891    
      9600   280.36939     -30476.598      1795.4648      3602.6891    
      9700   326.34363     -30517.4       -1995.8244      3602.6891    
      9800   297.52357     -30470.292      6932.3609      3602.6891    
      9900   348.52412     -30504.01       3507.0604      3602.6891    
     10000   302.11569     -30432.66      -3450.6197      3602.6891    
Loop time of 412.655 on 8 procs for 10000 steps with 331 atoms

Performance: 1.047 ns/day, 22.925 hours/ns, 24.233 timesteps/s, 8.021 katom-step/s
98.6% CPU use with 8 MPI tasks x 1 OpenMP threads

MPI task timing breakdown:
Section |  min time  |  avg time  |  max time  |%varavg| %total
---------------------------------------------------------------
Pair    | 288.37     | 329.97     | 357.23     | 106.6 | 79.96
Bond    | 0.027428   | 0.029222   | 0.031471   |   0.7 |  0.01
Neigh   | 5.9291     | 6.8833     | 7.4037     |  17.0 |  1.67
Comm    | 9.8677     | 37.147     | 78.716     | 317.5 |  9.00
Output  | 0.031531   | 0.081766   | 0.17992    |  18.7 |  0.02
Modify  | 37.643     | 38.18      | 39.168     |   7.5 |  9.25
Other   |            | 0.3601     |            |       |  0.09

Nlocal:         41.375 ave          47 max          38 min
Histogram: 2 1 1 0 1 1 1 0 0 1
Nghost:        3249.75 ave        3296 max        3213 min
Histogram: 3 1 0 0 0 0 2 0 0 2
Neighs:        26606.6 ave       30020 max       24541 min
Histogram: 2 1 1 0 1 1 1 0 0 1

Total # of neighbors = 212853
Ave neighs/atom = 643.06042
Ave special neighs/atom = 0
Neighbor list builds = 210
Dangerous builds = 0
Total wall time: 1:26:51
