ITEM: TIMESTEP
0
ITEM: NUMBER OF ATOMS
365
ITEM: BOX BOUNDS xy xz yz pp pp pp
-6.9345999999999997e+00 1.9702400000000001e+01 -6.9345999999999997e+00
0.0000000000000000e+00 1.5688658000000000e+01 2.0880000000000001e+00
0.0000000000000000e+00 1.7464200000000002e+01 7.0485799999999998e-01
ITEM: ATOMS id type x y z
224 2 -1.49089 5.66903 5.35565
2 4 1.30888 2.35922 0.934011
4 4 2.64772 3.94662 5.51669
8 4 -0.880826 4.71466 2.1773
10 4 1.51462 5.05431 8.21092
256 2 3.53379 4.87358 2.51336
21 4 4.75486 2.11866 4.63942
22 4 6.51002 2.22369 0.314073
25 4 6.87135 2.82891 6.68439
29 4 5.86678 4.40968 2.78095
32 4 5.96545 5.51681 8.11765
34 4 5.01081 7.44475 5.85248
68 1 -0.874154 6.23522 6.10847
74 1 7.83514 0.881784 3.85278
78 1 1.34411 6.87366 3.03035
79 1 4.38673 5.59281 2.75448
102 3 2.19148 1.52524 2.00681
105 3 0.125865 3.66067 1.60026
107 3 2.17014 4.48629 6.84979
353 2 -1.18349 7.29071 0.95274
255 2 4.09383 6.36318 3.62873
119 3 4.38177 0.887635 3.64802
120 3 3.39644 2.56837 5.50835
121 3 6.8734 0.962757 1.27102
123 3 6.03482 1.76302 6.0537
129 3 5.29456 3.32725 3.73221
130 3 6.42199 3.65235 1.10189
133 3 6.46314 4.15827 7.41887
135 3 3.66711 7.42045 4.86784
136 3 4.9342 6.22639 7.0509
191 2 3.42051 5.07132 4.43469
192 2 1.31895 3.81049 4.48573
257 2 4.6287 6.22169 1.79403
204 2 8.13284 2.01869 7.64118
206 2 -0.117945 5.63606 3.4351
223 2 -0.331298 5.73898 0.226031
67 1 -1.2487 6.18161 0.752699
1 4 3.14258 0.292746 2.69127
225 2 -1.33553 6.3857 7.10017
226 2 0.221194 5.95772 6.13254
242 2 7.32168 0.336231 4.73329
260 2 3.27845 5.9113 1.00215
195 2 -0.118488 5.39376 7.74327
252 2 1.55026 6.00763 3.84569
253 2 1.80324 6.63107 1.91135
254 2 0.291399 7.21624 2.91255
331 2 0.557328 0.0830805 0.52461
330 1 0.233627 1.10521 0.0778353
80 1 2.64402 6.13747 0.0825465
354 2 -2.11826 5.93954 0.14954
240 2 7.40724 1.93246 3.68983
342 2 -2.65193 6.90025 1.90092
134 3 1.97104 6.48434 8.69128
259 2 1.55651 5.84385 0.181722
3 4 1.18373 2.48673 9.97316
5 4 4.29755 0.881578 14.3761
7 4 3.09035 2.90139 12.2606
12 4 1.95988 5.36603 13.8114
345 2 0.489206 4.56183 14.3079
24 4 5.50665 3.3997 10.3007
93 1 7.73024 6.89859 15.4141
27 4 5.7354 2.91548 16.2422
28 4 8.37695 2.34977 11.3078
155 3 9.27708 1.73265 10.1007
265 2 4.34852 7.04326 13.0729
69 1 3.17379 5.48545 15.2952
77 1 6.10295 4.09868 14.7197
106 3 1.5757 4.0348 9.35952
82 1 4.92226 6.55193 12.0933
103 3 1.97268 2.16602 11.4541
104 3 3.38586 1.97339 13.6301
358 2 5.63165 1.01717 12.2884
295 2 7.19573 5.79842 15.1483
110 3 2.73507 4.44862 12.8347
111 3 1.66858 6.88968 13.4326
122 3 4.3785 3.2008 11.2826
124 3 5.23453 1.55691 15.504
125 3 7.06248 2.80855 17.0114
126 3 4.43993 3.58285 17.1275
127 3 6.95728 2.90812 10.7584
128 3 8.31439 1.27087 12.4344
132 3 5.39544 4.92001 9.70452
296 2 7.54165 7.32009 16.521
157 3 9.82597 1.37745 14.6996
301 2 8.05987 4.77897 12.3107
203 2 5.10611 2.3587 9.11538
263 2 5.98413 6.20958 12.2505
227 2 3.22397 6.58151 15.5706
228 2 4.22641 5.04719 15.1335
229 2 2.4943 4.87497 16.0034
332 2 2.4272 1.93735 16.4338
249 2 7.24799 3.99819 14.6844
250 2 5.75905 5.13288 14.6886
251 2 5.63805 3.4614 13.8685
258 2 5.18051 6.47411 16.5443
264 2 4.19417 5.7898 11.5079
216 2 6.22527 7.40273 13.3411
137 3 3.6302 7.8911 10.1059
190 2 1.77934 1.16018 9.04606
11 4 -0.755993 8.07917 5.49963
14 4 -4.98003 12.6959 4.15304
15 4 -1.60456 9.81811 8.09489
17 4 -2.53361 12.4597 6.14704
23 4 1.92583 13.3073 7.87843
30 4 2.09728 8.22076 4.06907
36 4 3.58751 9.99928 1.98524
37 4 0.0139757 12.2886 3.85313
39 4 3.74424 9.85416 7.12944
40 4 2.95159 12.1734 5.26474
112 3 -4.60274 14.1306 3.40196
72 1 -2.80447 14.1297 6.84185
75 1 0.233066 14.0891 7.52076
113 3 -1.2085 8.83404 6.89758
114 3 -4.05975 12.051 5.34782
115 3 -2.39893 11.4851 7.49457
131 3 0.841551 8.50286 5.0581
138 3 2.37998 9.38581 2.94597
139 3 3.65767 8.73246 0.886303
140 3 0.00277931 13.4134 2.65921
141 3 -1.16818 12.5472 4.94922
142 3 3.17972 11.368 1.22799
143 3 2.73125 8.90777 7.83051
144 3 5.20332 8.94281 6.42575
145 3 1.38463 12.2605 4.57302
146 3 3.07169 10.7644 6.02661
147 3 2.82203 13.3007 6.56475
181 3 4.47096 10.8884 8.31709
359 2 0.84085 9.61073 0.30364
209 2 -0.20571 10.8024 3.18751
341 2 1.77656 13.2212 0.22309
108 3 -1.93634 8.07151 4.25455
235 2 -2.70132 13.8656 7.96309
236 2 -3.89339 14.2896 6.40137
202 2 1.57457 11.5853 8.34691
245 2 0.274388 14.2711 6.38037
232 2 1.02486 10.0541 8.40723
9 4 -3.02229 7.97314 3.15409
329 2 -3.3551 13.3222 1.13576
327 1 -3.13877 14.44 1.08476
20 4 0.69602 14.9611 2.22685
349 2 -2.04669 14.6432 1.10519
244 2 -0.545034 13.3752 7.79292
243 2 0.273238 15.0203 8.21575
328 2 -3.73636 14.956 0.259996
356 2 -2.03043 14.8217 6.44283
16 4 -3.96824 12.0706 10.3371
18 4 -0.379731 10.5544 14.2047
19 4 -1.74459 11.3395 11.4667
31 4 4.87342 8.75429 17.1901
324 2 -2.15935 12.5772 16.7394
38 4 4.81047 12.5867 17.2917
41 4 4.8946 10.7819 13.3211
42 4 1.36199 13.0403 15.1762
43 4 3.11496 12.7344 12.0548
73 1 -1.52188 9.96361 15.5748
81 1 3.18291 9.58599 16.9526
83 1 1.3247 12.2871 11.6502
116 3 0.741022 9.24178 13.8766
117 3 -2.99039 12.3234 11.5331
118 3 -1.16052 10.8987 12.8316
238 2 -0.820348 9.5392 16.3267
148 3 4.66863 9.50926 12.3285
149 3 0.325679 11.9848 14.9184
150 3 0.910105 14.4142 14.5544
151 3 3.51526 11.4856 13.5767
152 3 3.06129 14.2801 12.8691
33 4 2.40365 7.90149 9.03356
173 3 5.91919 8.97451 15.452
182 3 4.00658 12.3117 10.8138
334 2 -1.98565 14.2005 12.6445
169 3 6.36486 8.21147 10.2864
35 4 4.94468 8.04227 10.9923
200 2 -0.469392 11.8736 10.4371
335 2 -0.469825 14.8784 13.5151
201 2 -2.13342 9.69719 10.7065
208 2 3.24467 9.02372 12.6818
210 2 4.9376 10.1214 14.9468
211 2 2.8687 12.4512 14.6814
212 2 3.76873 11.4452 16.6149
213 2 1.81199 13.2562 16.7526
13 4 1.64383 8.35884 12.9716
237 2 -2.14674 10.866 16.0412
26 4 2.04097 15.4367 13.5945
207 2 0.989663 8.72714 9.62479
262 2 2.95402 9.99393 15.9253
266 2 1.17369 11.2886 12.0902
267 2 1.37117 12.4266 10.524
268 2 0.796047 13.1083 12.2005
71 1 0.180213 10.4815 9.14658
261 2 2.58278 8.4665 17.1921
323 3 -3.55629 14.6497 14.991
333 1 -1.43633 15.1014 13.072
197 2 -3.35355 11.8352 8.77254
196 2 1.09847 8.43031 11.4167
70 1 -2.68918 8.97913 9.23237
233 2 0.365013 10.3247 10.2564
154 3 2.53203 14.2482 8.94183
234 2 -0.18866 11.551 8.75972
321 1 -3.30001 12.3339 16.9697
339 3 12.3626 0.225449 0.126637
47 4 13.8118 3.67504 5.44417
51 4 11.0919 4.27082 0.828806
52 4 7.4937 6.673 3.94613
54 4 11.8676 5.51186 7.16771
361 2 14.697 0.969651 0.81858
66 1 15.1665 4.0597 2.68905
76 1 8.6854 2.90619 5.97705
85 1 13.3562 1.95299 5.4092
89 1 10.5316 3.95401 2.57767
90 1 10.8977 1.27982 7.6217
91 1 10.4236 4.4148 8.26183
162 3 11.1772 2.69637 0.182511
163 3 13.0387 4.983 0.918775
164 3 7.1254 5.12313 3.42358
166 3 10.0525 5.37492 0.183113
165 3 6.31958 7.17637 4.88672
167 3 12.8153 4.57996 6.22997
193 2 16.8116 1.53814 0.501784
222 2 15.4551 2.89813 2.73001
171 3 9.06203 6.68095 4.85602
172 3 12.2984 6.58267 8.22067
241 2 8.98994 0.840815 3.92651
214 2 10.0797 5.60251 6.78993
343 2 14.7766 4.44182 4.00301
246 2 9.10592 1.87616 5.62663
247 2 9.38963 3.5141 6.8028
248 2 8.29896 3.59032 5.07113
270 2 14.7918 2.72619 6.49092
271 2 13.0444 2.04077 4.12843
272 2 12.421 1.58386 6.07254
282 2 11.4543 4.44294 3.10235
283 2 10.4612 2.85452 2.8737
284 2 9.61118 4.55646 2.77073
170 3 11.535 7.39985 4.35823
286 2 11.8256 1.94124 8.08155
287 2 10.1451 1.85182 6.97287
346 2 7.44656 4.83184 0.482094
289 2 10.5879 3.22775 8.0123
351 2 14.2872 4.38951 1.92981
219 2 14.7904 1.01353 5.88562
290 2 9.34338 4.68725 8.12434
168 3 7.23533 6.4892 8.2858
360 2 10.1394 0.226202 2.05006
355 2 12.5458 7.23946 7.42166
56 4 10.2322 7.66002 4.82924
285 2 11.2445 0.286277 7.05222
352 2 13.1781 4.88322 0.00483542
6 4 15.8269 2.34302 14.9285
159 3 9.75356 3.1696 16.7486
46 4 10.2425 0.692062 9.37109
350 2 17.0882 3.40062 15.8143
49 4 10.628 2.37554 15.6064
50 4 15.9321 1.6692 10.8871
277 2 12.2885 1.49335 10.2693
55 4 7.57443 7.60723 9.39537
58 4 9.804 6.60226 11.6295
86 1 11.3337 3.50753 14.1846
45 4 13.5969 2.13481 16.7241
88 1 14.5108 2.58304 10.5134
94 1 11.3484 5.86903 10.9461
95 1 8.90927 5.31886 12.8757
153 3 14.3404 2.69411 15.2933
156 3 16.2786 0.962185 14.4987
302 2 8.48526 5.95795 13.7866
288 2 10.8234 4.84435 9.31514
158 3 11.9405 1.48735 16.3341
87 1 11.8782 0.46292 10.4184
160 3 17.2763 2.23311 10.2725
53 4 10.711 6.45502 17.1866
174 3 8.65811 7.00869 10.4223
205 2 9.32873 3.64662 11.9477
273 2 12.4374 3.46366 14.1825
274 2 10.9658 4.50281 14.6169
275 2 10.8799 3.21576 13.2378
176 3 10.3737 7.91638 17.4292
279 2 13.5997 2.42063 11.2829
280 2 14.4835 1.66618 9.36372
281 2 14.7386 3.66201 10.0772
347 2 10.3807 6.01084 15.6057
109 3 16.8367 3.64096 14.7936
294 2 8.81359 6.98087 15.1017
297 2 11.6582 6.14377 9.82923
298 2 10.9777 4.73028 11.085
299 2 12.1247 6.205 11.7203
300 2 9.82778 4.54496 13.2926
186 3 10.4155 7.92818 12.5264
161 3 15.7631 0.580686 12.0727
44 4 6.32161 13.9349 0.926449
59 4 8.22977 8.48091 1.34345
60 4 5.67845 12.7439 3.86077
310 2 5.96673 10.3811 4.28698
63 4 7.55408 14.1775 6.26061
340 3 9.34749 11.659 0.334714
325 2 11.7537 12.2771 0.458064
92 1 9.88674 9.36699 5.32284
96 1 9.95275 9.14338 1.64511
97 1 11.5203 11.6588 3.59182
98 1 6.61409 11.0808 3.67488
336 1 2.53825 14.5341 1.45785
177 3 5.74669 13.4306 2.32998
363 2 9.35401 13.5864 6.17444
179 3 7.39047 9.87151 1.02754
218 2 5.23441 13.4359 8.468
183 3 8.7449 13.4053 6.97875
184 3 6.66931 13.4421 4.96827
217 2 5.18998 10.1824 2.74158
178 3 4.20838 12.4325 4.34146
180 3 6.96235 12.6229 0.0830016
220 2 6.58952 14.3146 7.72113
84 1 7.88423 14.9428 1.35024
291 2 10.6299 10.3492 4.68235
292 2 10.2238 9.1728 6.52196
293 2 8.76735 9.481 5.08588
303 2 9.8522 10.2835 1.14816
304 2 10.5327 8.45474 0.986181
305 2 10.2018 9.05062 2.72832
306 2 11.7514 11.3938 2.46706
307 2 10.4179 12.1684 3.94253
308 2 7.5639 11.4087 4.29926
309 2 6.88454 10.6045 2.52626
175 3 7.759 7.69115 2.70367
311 2 7.55139 13.1378 8.57545
269 2 8.78565 14.2838 1.01439
215 2 8.27507 8.85631 8.49944
337 2 2.61675 14.9203 0.387793
194 2 12.9965 7.80103 3.84381
362 2 7.65092 15.0512 2.46904
338 2 2.81027 13.4283 1.56709
319 2 7.9197 11.7932 16.2449
48 4 8.74846 14.8579 13.4399
64 4 10.1535 9.27588 13.2583
65 4 6.67723 12.8244 14.4868
187 3 6.08558 11.9336 13.2274
99 1 6.66407 13.0452 9.22461
100 1 10.1854 10.4694 11.8642
101 1 8.20317 11.8034 15.0901
320 4 13.3789 13.4442 15.7523
185 3 8.35174 9.08457 13.9841
62 4 4.98632 11.8213 9.40343
364 2 11.1969 13.3638 15.4021
188 3 7.1978 14.2207 13.9737
199 2 12.6911 10.6652 10.4793
326 2 12.0256 11.5014 15.3535
348 2 10.0009 11.459 15.8156
365 2 12.2665 12.5786 13.7442
221 2 11.2753 9.62421 14.4783
357 2 14.0053 11.301 17.0168
344 2 9.82943 13.5873 13.355
278 2 5.5835 14.4924 9.90919
198 2 12.4174 13.2221 10.2736
322 1 12.083 12.5715 14.8797
318 2 8.19525 10.7053 14.6474
312 2 6.60347 11.3189 9.98451
313 2 6.77737 13.6294 10.1531
314 2 9.03292 10.7539 11.8603
315 2 10.5964 10.1216 10.8728
316 2 10.8606 11.2938 12.4399
317 2 9.12701 12.427 14.7684
57 4 7.00945 8.39538 14.5066
189 3 5.74328 12.9008 16.042
276 2 4.56563 15.1542 11.4822
230 2 13.8681 9.44881 8.91202
231 2 15.0782 7.87354 9.03659
61 4 10.1074 12.074 17.4379
239 2 15.4126 9.1818 15.0885
ITEM: TIMESTEP
100
ITEM: NUMBER OF ATOMS
365
ITEM: BOX BOUNDS xy xz yz pp pp pp
-6.9345999999999997e+00 1.9702400000000001e+01 -6.9345999999999997e+00
0.0000000000000000e+00 1.5688658000000000e+01 2.0880000000000001e+00
0.0000000000000000e+00 1.7464200000000002e+01 7.0485799999999998e-01
ITEM: ATOMS id type x y z
224 2 -1.53392 5.53683 5.4552
2 4 1.2432 2.45877 0.904039
4 4 2.73268 3.95418 5.44637
8 4 -0.92784 4.64364 2.05576
10 4 1.55316 5.10023 8.06725
256 2 3.6648 4.83034 2.6832
21 4 4.77265 2.00753 4.6329
22 4 6.5396 2.27876 0.139938
25 4 6.97667 2.82811 6.48342
29 4 5.97884 4.33342 2.84978
32 4 6.02462 5.53196 8.0823
34 4 5.03289 7.4659 5.99012
68 1 -0.888398 6.1921 6.13781
74 1 7.90626 0.878599 3.8503
78 1 1.40734 6.70303 3.10093
79 1 4.49544 5.57735 2.8906
102 3 2.18186 1.46888 2.1917
105 3 0.153852 3.5409 1.54619
107 3 2.18263 4.5378 6.77612
353 2 -0.698691 7.03308 1.09431
255 2 4.22332 6.36189 3.67052
119 3 4.40274 0.675606 3.68019
120 3 3.17634 2.47197 5.47148
121 3 6.9213 0.892145 1.11921
123 3 5.97346 1.80924 5.85654
129 3 5.35323 3.15325 3.73445
130 3 6.45387 3.71342 1.05869
133 3 6.56512 4.1256 7.22425
135 3 3.55555 7.53831 4.75313
136 3 4.94458 6.33549 7.08682
191 2 3.9291 4.94578 4.68337
192 2 1.44418 3.90747 4.30944
257 2 4.87687 6.13786 1.88243
204 2 8.1124 1.91834 7.41113
206 2 -0.174623 5.49093 3.3734
241 2 8.97198 0.679454 4.13488
67 1 -1.31466 6.13954 0.81603
1 4 3.19385 0.257485 2.72023
225 2 -1.3655 6.39504 7.19659
226 2 0.294773 5.88525 5.99415
242 2 7.13496 0.450797 4.59001
260 2 3.39429 6.04704 1.24444
195 2 -0.0908095 5.27964 7.71456
252 2 1.42684 5.8455 3.80525
253 2 1.95059 6.5299 2.00525
254 2 0.367455 7.10443 2.91344
331 2 0.334476 0.26039 0.967094
330 1 0.234898 1.09606 0.156662
80 1 2.80942 6.26747 0.18183
354 2 -2.43415 6.25354 0.571418
240 2 7.70543 1.9334 3.5397
342 2 -2.70501 7.19441 1.7018
134 3 2.04479 6.43023 8.64723
259 2 1.65695 6.17838 0.311204
190 2 1.38319 1.63026 8.65692
3 4 1.11688 2.63015 10.0043
5 4 4.28713 0.849746 14.3542
7 4 3.17521 2.88523 12.1678
12 4 1.95435 5.38793 13.9763
345 2 0.381878 4.75983 14.3952
24 4 5.63215 3.3866 10.2455
93 1 7.73598 6.71572 15.6699
27 4 5.75428 3.08296 16.2516
28 4 8.32627 2.41101 11.3495
155 3 9.26456 1.79757 10.0759
265 2 4.85839 6.62902 13.2297
69 1 3.1005 5.57519 15.4722
77 1 5.95137 4.23613 14.7258
106 3 1.42621 4.02524 9.36081
82 1 5.03775 6.64615 12.1435
103 3 2.12083 2.226 11.2674
104 3 3.38403 1.89449 13.5167
358 2 5.74225 1.07049 12.3055
295 2 7.27376 5.76356 15.3926
110 3 2.61441 4.37096 12.9168
111 3 1.83004 6.90575 13.5503
122 3 4.62835 3.05 11.3548
124 3 5.13745 1.74156 15.4205
125 3 7.09513 2.74692 16.9862
126 3 4.57129 3.79794 17.2921
127 3 7.10758 3.17959 10.7681
128 3 8.08188 1.32667 12.4516
132 3 5.47585 4.95506 9.66897
296 2 7.47327 7.11907 16.705
157 3 9.83786 1.24525 14.5344
301 2 8.11188 4.81485 12.3837
203 2 5.3663 2.38368 8.99431
263 2 6.14005 6.27558 11.8793
227 2 3.28842 6.66543 15.7307
228 2 4.12042 5.02621 15.2006
229 2 2.42597 5.0642 16.2449
332 2 2.91885 1.56373 16.6683
249 2 7.04645 3.89737 14.4663
250 2 5.79127 5.3942 14.7728
251 2 5.20155 3.74239 13.9594
258 2 5.33879 6.38522 16.8579
264 2 4.34685 5.98515 11.5054
216 2 6.48694 7.54739 13.2019
223 2 1.30149 6.30923 17.4178
11 4 -0.864638 7.95427 5.49845
14 4 -5.02996 12.5783 4.07272
15 4 -1.638 9.78101 8.11427
17 4 -2.56305 12.3805 6.15291
23 4 1.85231 13.2353 7.89033
30 4 2.21461 8.11756 4.09385
36 4 3.59752 9.97208 1.91853
37 4 0.0315442 12.3673 3.86484
39 4 3.89623 9.85896 7.21103
40 4 2.83985 12.2181 5.24915
112 3 -4.72157 14.0305 3.53964
72 1 -2.81077 14.1379 6.75564
75 1 0.157988 13.9743 7.46528
113 3 -1.28227 8.83847 6.82798
114 3 -3.99963 11.9862 5.24384
115 3 -2.40209 11.4657 7.36703
131 3 0.773875 8.29853 4.89127
138 3 2.53545 9.40255 2.99924
139 3 3.81035 8.73939 0.789373
140 3 -0.125214 13.494 2.62363
141 3 -1.15154 12.4872 4.96795
142 3 3.32262 11.2913 1.05605
143 3 2.62944 8.87611 7.73801
144 3 5.15721 8.94245 6.7331
145 3 1.48644 12.3568 4.38801
146 3 3.22617 10.6846 5.85112
147 3 2.63113 13.248 6.49535
181 3 4.35814 10.9472 8.36389
359 2 1.24785 9.63734 0.514824
209 2 -0.187456 10.9049 3.17253
338 2 2.75967 13.4308 1.72246
108 3 -2.12124 8.06707 4.21445
235 2 -2.82612 14.1391 7.85485
236 2 -3.85673 14.3256 6.27251
202 2 1.53845 11.665 8.49222
245 2 0.159432 13.8837 6.36763
232 2 1.03997 9.8153 8.40297
9 4 -3.13671 8.17745 3.0987
329 2 -3.09036 13.2135 1.30867
327 1 -3.03724 14.3469 1.19446
20 4 0.567691 14.8748 2.22585
349 2 -1.9507 14.8056 1.20019
244 2 -0.536012 13.2389 8.01726
243 2 0.0817773 15.0254 7.8038
328 2 -3.65259 14.7313 0.319684
356 2 -1.9021 14.6702 6.2527
197 2 -3.27385 11.7611 8.69057
234 2 -0.181201 11.4676 8.54036
16 4 -3.98039 12.1116 10.2456
18 4 -0.282922 10.5956 14.5872
19 4 -1.79678 11.2074 11.5808
31 4 5.0599 8.84405 17.1107
324 2 -2.14255 12.5636 16.991
38 4 4.82929 12.6293 17.2318
41 4 4.85069 10.7717 13.3937
42 4 1.2562 13.0729 15.2788
43 4 3.12478 12.9168 12.0112
73 1 -1.80164 9.99944 15.43
81 1 3.28729 9.67523 16.9908
83 1 1.33398 12.592 11.3943
116 3 0.849154 9.33338 14.004
117 3 -2.94806 12.2541 11.3415
118 3 -1.03505 11.1528 12.9643
238 2 -1.30914 9.18986 16.1619
148 3 4.72444 9.58567 12.3805
149 3 0.424859 11.7782 15.38
150 3 0.869005 14.3528 14.5234
151 3 3.49541 11.6206 13.4894
152 3 3.07288 14.3464 12.6218
33 4 2.42715 7.9355 9.04717
173 3 6.02633 8.77815 15.4104
182 3 3.97325 12.4676 10.8043
334 2 -2.03221 14.3732 12.4252
169 3 6.27981 8.12785 10.225
35 4 4.9087 8.14971 11.0105
200 2 -0.707127 11.6281 10.2995
335 2 -0.50901 14.8223 13.588
201 2 -1.94242 9.5707 10.8289
208 2 3.23344 9.08333 12.7242
210 2 5.01779 9.93813 14.8003
211 2 2.77074 12.4403 14.6649
212 2 3.4203 11.6637 16.9625
213 2 1.74007 13.566 16.7808
13 4 1.74695 8.375 13.0681
237 2 -2.31963 10.9345 16.0499
26 4 1.91919 15.3749 13.4781
207 2 0.969951 8.62269 9.66421
262 2 3.02699 10.1986 16.0119
266 2 1.05233 11.8035 12.2384
267 2 1.41018 12.0964 10.3851
268 2 0.893307 13.6243 11.4554
71 1 0.181836 10.3369 9.06857
261 2 2.72592 8.67598 17.1137
323 3 -3.38339 14.626 14.9983
333 1 -1.48318 15.1525 12.9785
321 1 -3.24561 12.4396 17.0412
196 2 1.24718 8.52383 11.5014
70 1 -2.74707 9.0524 9.28845
233 2 0.555415 10.4631 10.1516
154 3 2.63488 14.3458 9.08136
137 3 3.53332 8.09377 10.1537
198 2 -4.78526 13.5418 9.89792
341 2 4.02285 14.1239 17.4405
339 3 12.3474 0.134518 0.0957422
47 4 13.7499 3.58792 5.37817
51 4 11.1245 4.15928 0.889217
52 4 7.53039 6.66463 4.09367
54 4 11.8556 5.41989 7.24653
361 2 14.5387 1.14334 1.15561
66 1 15.0242 4.02729 2.65596
76 1 8.81234 2.86845 5.8597
85 1 13.4748 1.9051 5.61588
89 1 10.4227 3.78788 2.58524
90 1 10.9726 1.47949 7.81267
91 1 10.2225 4.56198 8.17639
162 3 11.2399 2.61583 0.174246
163 3 12.9174 5.09996 1.05815
164 3 7.19208 5.058 3.5125
166 3 10.0421 5.05463 0.195312
165 3 6.33128 7.19375 5.02162
167 3 12.8031 4.49761 6.25776
193 2 16.7835 1.49286 0.0303865
222 2 15.1529 2.89505 2.52322
171 3 8.98116 6.61059 4.86317
172 3 12.2971 6.69328 8.17883
285 2 11.2048 0.445466 7.41147
214 2 10.173 5.49983 6.5687
343 2 15.044 4.51653 4.26177
246 2 9.4847 2.04293 5.51283
247 2 9.32883 3.52177 6.70789
248 2 8.38367 3.61387 4.89247
270 2 15.0302 2.63793 6.28682
271 2 12.8915 1.767 4.44062
272 2 12.7378 1.782 6.45958
282 2 10.8612 4.74622 3.10271
283 2 10.7981 2.85089 3.0653
284 2 9.28257 3.76773 2.60539
170 3 11.3496 7.42836 3.88793
286 2 11.8813 2.09831 8.10096
287 2 10.1063 1.98251 7.14771
346 2 7.39008 4.93336 0.56215
289 2 10.4754 3.40184 8.02741
351 2 14.1663 4.5365 2.00154
219 2 14.9643 0.805353 5.79795
290 2 9.12636 4.69279 8.10068
168 3 7.23037 6.51758 8.48395
360 2 9.78418 0.200913 2.54392
355 2 12.3896 7.3129 7.32958
56 4 10.2816 7.64531 4.76663
176 3 8.42339 7.28462 0.0630442
352 2 13.0797 4.93727 0.108218
84 1 14.9131 0.064275 1.29064
6 4 15.8489 2.40639 14.8415
159 3 9.6494 3.12017 16.472
46 4 10.273 0.728839 9.43614
350 2 17.1088 3.43866 15.7803
49 4 10.6066 2.29729 15.4333
50 4 15.8124 1.66707 10.7374
277 2 12.1948 1.56288 10.1572
55 4 7.59444 7.64626 9.52738
58 4 9.84803 6.55994 11.6945
86 1 11.2723 3.61465 14.2592
45 4 13.5631 1.97582 16.7182
88 1 14.4109 2.64626 10.3085
94 1 11.386 5.85413 10.9065
95 1 8.87667 5.33381 12.9934
153 3 14.4387 2.48673 15.4578
156 3 16.5042 1.00682 14.7783
302 2 8.38486 5.92687 13.8905
288 2 10.6266 5.06736 9.22449
158 3 12.0698 1.41207 16.3625
87 1 11.8034 0.522891 10.4869
160 3 17.1599 2.32754 10.1989
53 4 10.8068 6.45303 17.2767
174 3 8.67751 7.16676 10.5946
205 2 9.34433 3.7092 11.9522
273 2 12.4378 3.58607 14.4749
274 2 10.7791 4.57418 14.6523
275 2 11.0287 3.43053 13.1715
161 3 15.7132 0.772274 12.0604
279 2 13.7398 2.62619 11.3587
280 2 14.252 1.57263 9.51714
281 2 14.8296 3.75634 9.87158
347 2 10.6309 6.0685 15.6991
109 3 16.7895 3.78154 14.8383
294 2 8.8349 6.78221 15.4469
297 2 11.7482 6.20119 9.88175
298 2 10.9579 4.7365 10.9104
299 2 12.1563 5.97017 11.778
300 2 9.73372 4.61211 13.3975
186 3 10.399 7.70041 12.7627
44 4 6.38247 14.0735 0.900291
59 4 8.09686 8.37919 1.31518
60 4 5.68084 12.8066 3.81794
310 2 5.99568 10.4703 4.22569
63 4 7.37453 14.1731 6.31466
340 3 9.25747 11.6236 0.257225
194 2 12.8627 7.72582 3.63098
92 1 9.93966 9.40654 5.15171
96 1 9.78076 9.10136 1.61697
97 1 11.4778 11.6227 3.33095
98 1 6.63149 11.1224 3.5643
336 1 2.45157 14.494 1.6206
177 3 5.80936 13.6783 2.40856
363 2 8.80338 12.9276 6.20566
179 3 7.31276 9.79639 1.04129
218 2 4.87531 13.584 8.38963
183 3 8.56656 13.408 7.05057
184 3 6.532 13.4631 5.06388
217 2 5.03988 10.1757 2.80428
178 3 4.23249 12.5186 4.33994
180 3 6.87349 12.7614 0.0657549
220 2 6.19683 14.4061 7.66552
61 4 7.92226 11.3191 0.00885849
291 2 10.5144 10.2181 4.52409
292 2 10.2188 9.33067 6.32055
293 2 8.75843 9.3809 5.03984
303 2 9.76214 10.1914 1.06498
304 2 10.4756 8.32859 1.13588
305 2 10.0161 9.22458 2.7328
306 2 12.0072 11.2365 2.2804
307 2 10.4294 11.9815 3.38669
308 2 7.60636 11.4812 4.05817
309 2 6.90955 10.6275 2.5514
175 3 7.63289 7.64367 2.73372
311 2 7.34902 13.0706 8.46835
269 2 8.83218 14.8107 0.614235
362 2 8.13986 14.6404 2.34864
325 2 11.5802 12.4351 0.483377
215 2 8.2547 8.93006 8.71915
337 2 2.73432 14.9735 0.526516
319 2 7.81266 11.7996 16.2981
48 4 8.89572 14.9924 13.4139
64 4 10.081 9.13168 13.3865
65 4 6.71418 12.7115 14.4925
187 3 6.13659 11.6956 13.2356
99 1 6.47969 13.128 9.15369
100 1 10.0553 10.4415 12.0515
101 1 8.21636 11.8144 15.1921
320 4 13.4691 13.3373 15.7017
185 3 8.38002 9.09972 14.1328
62 4 4.765 12.0129 9.43758
364 2 11.2405 13.3111 15.2781
188 3 7.47297 14.3559 13.8788
199 2 12.4628 10.9372 10.5274
326 2 12.0954 11.4767 15.0067
348 2 10.0379 11.4649 15.8138
365 2 12.3102 12.7651 13.5871
221 2 11.2555 9.51379 14.506
357 2 14.0937 11.2816 17.1124
344 2 10.0392 13.8135 13.3093
278 2 5.45193 14.625 9.89606
239 2 15.1292 9.5006 14.6956
322 1 12.1765 12.5806 14.7397
318 2 8.38918 10.6999 14.7506
312 2 6.50535 11.5353 10.0119
313 2 6.67496 13.7118 10.1006
314 2 9.04894 10.9247 11.9403
315 2 10.3608 9.76048 11.163
316 2 10.9487 11.0885 12.5237
317 2 8.99126 12.5584 15.0412
57 4 7.19127 8.19224 14.5801
189 3 5.70432 12.7159 15.8597
276 2 4.84269 15.3544 11.6083
230 2 13.851 9.46141 9.27411
231 2 14.9596 7.93242 9.09146
ITEM: TIMESTEP
200
ITEM: NUMBER OF ATOMS
365
ITEM: BOX BOUNDS xy xz yz pp pp pp
-6.9345999999999997e+00 1.9702400000000001e+01 -6.9345999999999997e+00
0.0000000000000000e+00 1.5688658000000000e+01 2.0880000000000001e+00
0.0000000000000000e+00 1.7464200000000002e+01 7.0485799999999998e-01
ITEM: ATOMS id type x y z
224 2 -1.62836 5.67752 5.14444
2 4 1.45407 2.3744 0.969914
4 4 2.69104 3.97734 5.35981
8 4 -0.916509 4.68575 1.98703
10 4 1.58603 5.11818 7.95999
256 2 3.72109 4.80372 2.64406
21 4 4.71581 1.9898 4.6829
22 4 6.5238 2.31829 0.103174
25 4 7.08915 2.82081 6.44373
29 4 5.98685 4.32368 2.84956
32 4 6.07508 5.41338 8.01935
34 4 4.97858 7.43692 6.01661
68 1 -1.00837 6.15922 5.91171
74 1 7.85916 0.85134 3.81505
78 1 1.52072 6.86911 2.86986
79 1 4.56167 5.6142 2.83764
102 3 2.10841 1.54005 2.16422
105 3 0.0901255 3.58393 1.5512
107 3 2.17909 4.54618 6.66475
353 2 -1.26411 7.13397 0.756855
255 2 4.21829 6.38213 3.66292
119 3 4.36476 0.645865 3.87887
120 3 3.34756 2.53389 5.49535
121 3 6.86154 1.02383 1.06136
123 3 6.12533 1.76762 5.84333
129 3 5.23916 3.1864 3.67869
130 3 6.5324 3.65644 1.13691
133 3 6.64498 4.08875 7.17774
135 3 3.51652 7.42934 4.96772
136 3 5.02876 6.30407 7.18231
191 2 3.7143 5.04681 4.54158
192 2 1.53806 3.98301 4.13475
257 2 4.94232 6.14801 1.85384
204 2 8.32474 1.94288 7.35366
206 2 -0.0526643 5.73524 3.14137
259 2 1.91346 5.54016 0.107584
67 1 -1.35383 6.02343 0.687516
1 4 2.96269 0.232228 2.77697
225 2 -1.40008 6.00438 7.01151
226 2 0.178643 6.04431 5.86461
134 3 2.049 6.53126 8.5223
260 2 3.5107 5.8397 1.12128
195 2 -0.0324192 5.51767 7.48164
252 2 1.59611 5.95214 3.65601
253 2 2.08686 6.54798 1.85666
254 2 0.427713 7.26976 2.64541
331 2 0.574678 0.149001 0.361461
190 2 1.61891 1.48957 8.6227
80 1 2.93521 6.01454 0.126682
354 2 -2.41214 5.80529 0.334855
240 2 7.22715 1.78339 3.78205
342 2 -2.62905 6.89521 1.89756
165 3 6.20663 7.10103 5.03412
3 4 1.16826 2.57081 9.75907
5 4 4.25734 0.93229 14.1923
7 4 3.12297 3.02074 12.1468
12 4 1.92842 5.29868 13.9749
345 2 0.385704 4.59677 14.4525
24 4 5.61962 3.43424 10.2541
330 1 2.47262 1.88841 17.4283
27 4 5.68539 3.05429 16.2832
28 4 8.29292 2.45261 11.4228
155 3 9.14789 1.93331 10.1352
265 2 4.70696 7.18914 13.1693
69 1 3.01159 5.35629 15.4966
77 1 6.03136 4.31008 14.8653
106 3 1.44377 4.08252 9.13057
82 1 5.04001 6.66455 12.1622
103 3 2.1322 2.38594 11.0866
104 3 3.29823 1.82478 13.2803
358 2 5.66742 0.736288 12.1432
295 2 7.16208 5.80697 15.3836
110 3 2.64794 4.39946 12.9449
111 3 1.80216 6.88272 13.5914
122 3 4.60308 3.33759 11.4734
124 3 5.10408 1.67647 15.4362
125 3 7.11111 2.91342 16.9268
126 3 4.51608 3.6119 17.3105
127 3 7.10126 3.41732 10.9177
128 3 7.86401 1.34824 12.4919
132 3 5.34122 4.79223 9.30128
296 2 7.63094 7.17738 16.6854
157 3 9.83611 1.33534 14.393
301 2 8.3392 4.50674 12.7185
203 2 5.37904 2.01499 9.39048
263 2 6.0396 6.10159 12.2571
227 2 2.90507 6.51534 15.7134
228 2 4.14887 5.05302 15.2194
229 2 2.59735 4.70221 16.2812
332 2 2.8617 2.05924 16.3714
249 2 7.16955 4.25393 14.7615
250 2 5.69631 5.39131 14.9287
251 2 5.53687 3.8399 13.914
258 2 5.65139 6.28286 16.7125
264 2 4.10717 6.07692 11.7424
216 2 6.62036 7.55032 13.0329
223 2 1.53657 6.19056 17.3981
11 4 -0.932383 8.02709 5.55961
14 4 -5.05297 12.5436 3.94403
15 4 -1.50509 9.81579 8.10668
17 4 -2.54596 12.3027 5.95066
23 4 1.89247 13.3404 7.87838
30 4 2.08564 8.19679 4.05892
36 4 3.55651 9.98111 1.88598
37 4 0.00203561 12.2369 3.79996
39 4 3.79899 9.95012 7.12696
40 4 2.78586 12.129 5.2034
112 3 -4.79007 13.9403 3.29153
72 1 -2.84518 14.0445 6.56
75 1 0.141687 14.0144 7.61068
113 3 -1.21423 8.86974 6.85931
114 3 -4.01529 11.9208 5.09138
115 3 -2.32538 11.4587 7.388
131 3 0.763658 8.36016 4.93366
138 3 2.63959 9.39149 3.07384
139 3 3.9229 8.64178 0.812835
140 3 -0.0456069 13.3368 2.61495
141 3 -1.1969 12.3608 4.91729
142 3 3.1608 11.1736 1.02612
143 3 2.81974 8.97955 7.88991
144 3 5.16097 8.96835 6.54391
145 3 1.45432 12.0667 4.44567
146 3 3.12063 10.6607 5.92809
147 3 2.7312 13.1677 6.44731
181 3 4.32892 11.1308 8.32084
359 2 1.26359 9.43255 0.421528
209 2 -0.291067 10.7862 3.04624
197 2 -3.14584 12.0705 8.6837
108 3 -2.03745 8.16796 4.27928
235 2 -2.73179 13.904 7.70937
236 2 -3.90266 14.3937 6.22398
242 2 0.750401 15.1628 4.66237
245 2 0.0999336 14.2913 6.54637
232 2 1.03747 10.0814 8.26156
9 4 -3.07138 8.05316 3.14369
329 2 -2.90879 13.3783 1.24311
327 1 -3.05643 14.4603 1.27672
20 4 0.737934 14.9392 2.18661
349 2 -2.01625 15.0323 1.43673
244 2 -0.389281 12.9569 7.83651
243 2 -0.118699 14.8069 8.3523
328 2 -3.66301 14.9141 0.377289
356 2 -2.03075 14.6829 6.08351
341 2 1.69737 13.1421 0.206541
16 4 -3.95406 12.2443 10.1993
18 4 -0.345845 10.7522 14.5449
19 4 -1.80681 11.2927 11.6694
31 4 5.15666 8.62616 17.1671
324 2 -2.22054 12.526 17.3015
38 4 4.77125 12.4803 17.1032
41 4 4.8164 10.9405 13.366
42 4 1.40895 13.0461 15.3855
43 4 2.9266 12.8211 11.9926
73 1 -1.80394 10.0622 15.4473
81 1 3.39593 9.39689 17.0199
83 1 1.07998 12.5745 11.5426
116 3 0.908288 9.47919 14.2428
117 3 -3.03857 12.3076 11.4618
118 3 -1.0931 10.9893 13.0334
238 2 -1.35582 9.26681 16.1835
148 3 4.56562 9.65675 12.3157
149 3 0.402117 11.9426 15.6841
150 3 1.07392 13.9895 14.2242
151 3 3.4287 11.6837 13.5335
152 3 2.96428 14.4112 12.5005
33 4 2.41242 7.99493 9.03726
173 3 5.84069 8.69865 15.3825
182 3 3.88811 12.4151 10.7963
334 2 -2.15855 14.1294 12.6133
169 3 6.30567 8.24656 10.1902
35 4 4.87311 8.13728 11.0292
200 2 -0.591628 11.4715 10.4669
335 2 -0.618399 14.6362 13.5604
201 2 -2.17939 9.79298 10.8056
208 2 3.11191 9.18164 12.7944
210 2 5.15519 10.1119 14.8219
211 2 2.93021 12.3925 15.0389
212 2 3.6453 11.3472 16.6785
213 2 1.6484 13.8088 16.8743
13 4 1.59826 8.45618 13.1843
237 2 -2.32216 10.924 16.0662
26 4 2.00052 15.3433 13.3893
207 2 0.955659 8.69178 9.64434
262 2 2.90565 9.75377 16.0528
266 2 0.706065 12.3437 12.5445
267 2 1.14804 11.7582 10.7291
268 2 0.620437 13.5438 11.083
71 1 0.335331 10.4714 9.00551
261 2 2.89808 8.33675 17.4134
323 3 -3.40535 14.4528 15.0598
333 1 -1.57112 15.0289 12.9865
234 2 -0.122989 11.5962 8.73398
196 2 0.766317 8.58781 11.7603
70 1 -2.60938 9.03615 9.26745
233 2 0.710366 10.4267 10.0842
154 3 2.57658 14.4567 8.8392
137 3 3.44502 8.06831 10.2313
198 2 -4.80228 13.7069 10.0435
202 2 1.67455 11.8457 8.76457
339 3 12.3431 0.114182 0.0310096
47 4 13.7559 3.49443 5.51988
51 4 11.2573 4.05261 0.999712
52 4 7.46614 6.61084 4.12263
54 4 11.741 5.50117 7.16967
361 2 14.6088 1.19181 0.699468
66 1 15.1408 3.86735 2.55304
76 1 8.93793 2.97912 5.80585
85 1 13.3065 1.86274 5.62419
89 1 10.6653 3.73862 2.81118
90 1 11.0296 1.5641 7.87066
91 1 10.2639 4.69486 8.19539
162 3 11.4519 2.65388 0.233197
163 3 12.7663 4.87755 1.39254
164 3 7.20751 4.99067 3.58752
166 3 9.85331 5.08268 0.387396
362 2 14.9528 0.161362 2.23113
167 3 12.7952 4.51417 6.30199
84 1 14.9341 0.182983 1.09641
222 2 15.3577 2.85073 2.17778
171 3 9.01531 6.65626 4.90061
172 3 12.2658 6.65575 8.28119
285 2 11.4815 0.685892 7.38538
214 2 10.1283 5.66717 6.51663
343 2 15.1282 4.01628 4.15927
246 2 9.65676 2.28444 5.29349
247 2 9.46876 3.60057 6.68899
248 2 8.42496 3.79648 4.91651
270 2 14.8331 2.47254 6.55282
271 2 12.8115 1.83716 4.39752
272 2 12.5432 1.82587 6.50854
282 2 11.2872 4.34987 3.49708
283 2 10.8527 2.6374 2.96894
284 2 9.58321 4.03762 2.90047
170 3 11.3137 7.55484 3.68963
286 2 11.833 2.35617 8.21364
287 2 10.1399 2.02306 7.12729
346 2 7.14424 4.93701 0.317524
289 2 10.4466 3.46466 8.11648
351 2 14.2753 4.36587 2.05105
219 2 14.868 0.8017 5.89305
290 2 9.14525 4.93814 8.04308
168 3 7.42602 6.55856 8.46764
352 2 12.9368 5.23461 0.352628
355 2 12.249 7.45073 7.5563