ITEM: TIMESTEP
0
ITEM: NUMBER OF ATOMS
365
ITEM: BOX BOUNDS xy xz yz pp pp pp
-7.0844379999999996e+00 1.9702400000000001e+01 -7.0844379999999996e+00
0.0000000000000000e+00 1.5863300000000001e+01 2.0880000000000001e+00
0.0000000000000000e+00 1.7464200000000002e+01 8.7949999999999995e-01
ITEM: ATOMS id type x y z
224 2 -1.54541 5.72258 5.35565
2 4 1.28567 2.36856 0.934011
4 4 2.61048 4.00179 5.51669
8 4 -0.927094 4.73643 2.1773
10 4 1.46739 5.13642 8.21092
256 2 3.48607 4.89871 2.51336
21 4 4.73554 2.16505 4.63942
22 4 6.48791 2.22683 0.314073
25 4 6.84576 2.89575 6.68439
29 4 5.8238 4.43749 2.78095
32 4 5.91355 5.59798 8.11765
34 4 4.93872 7.50327 5.85248
68 1 -0.934041 6.2963 6.10847
74 1 7.82787 0.920312 3.85278
78 1 1.2766 6.90397 3.03035
79 1 4.33192 5.62036 2.75448
102 3 2.17704 1.54531 2.00681
105 3 0.0899043 3.67667 1.60026
107 3 2.12804 4.55479 6.84979
353 2 -1.25601 7.30024 0.95274
255 2 4.03167 6.39947 3.62873
119 3 4.37437 0.924115 3.64802
120 3 3.37298 2.62345 5.50835
121 3 6.86429 0.975467 1.27102
123 3 6.01963 1.82355 6.0537
129 3 5.26279 3.36457 3.73221
130 3 6.38591 3.66336 1.10189
133 3 6.42455 4.23246 7.41887
135 3 3.59487 7.46913 4.86784
136 3 4.87478 6.2969 7.0509
191 2 3.37159 5.11566 4.43469
192 2 1.28265 3.85535 4.48573
257 2 4.5672 6.23963 1.79403
204 2 8.11574 2.0951 7.64118
206 2 -0.17292 5.67041 3.4351
223 2 -0.388596 5.74124 0.226031
67 1 -1.31022 6.18913 0.752699
1 4 3.14074 0.319659 2.69127
225 2 -1.39652 6.4567 7.10017
226 2 0.164092 6.01904 6.13254
242 2 7.32023 0.383564 4.73329
260 2 3.21974 5.92132 1.00215
195 2 -0.169301 5.47119 7.74327
252 2 1.49174 6.04609 3.84569
253 2 1.7377 6.65019 1.91135
254 2 0.220412 7.24537 2.91255
331 2 0.556709 0.0883266 0.52461
330 1 0.222606 1.10599 0.0778353
80 1 2.58268 6.1383 0.0825465
354 2 -2.1776 5.94104 0.14954
240 2 7.3894 1.96936 3.68983
342 2 -2.72016 6.91926 1.90092
134 3 1.90971 6.57126 8.69128
259 2 1.49814 5.84566 0.181722
3 4 1.16289 2.58646 9.97316
5 4 4.29454 1.02534 14.3761
7 4 3.06628 3.024 12.2606
12 4 1.91179 5.50414 13.8114
345 2 0.449363 4.70491 14.3079
24 4 5.47681 3.5027 10.3007
93 1 7.66748 7.05273 15.4141
27 4 5.7128 3.0779 16.2422
28 4 8.35802 2.46285 11.3078
155 3 9.26383 1.83366 10.1007
265 2 4.28336 7.17399 13.0729
69 1 3.12511 5.6384 15.2952
77 1 6.0679 4.24587 14.7197
106 3 1.53913 4.12839 9.35952
82 1 4.86162 6.67286 12.0933
103 3 1.95564 2.28056 11.4541
104 3 3.37163 2.10969 13.6301
358 2 5.62643 1.14005 12.2884
295 2 7.14386 5.9499 15.1483
110 3 2.69577 4.57697 12.8347
111 3 1.6051 7.024 13.4326
122 3 4.35105 3.31363 11.2826
124 3 5.22522 1.71195 15.504
125 3 7.04126 2.97866 17.0114
126 3 4.41101 3.75413 17.1275
127 3 6.93254 3.01571 10.7584
128 3 8.3067 1.39522 12.4344
132 3 5.35015 5.01705 9.70452
296 2 7.47512 7.4853 16.521
157 3 9.81813 1.52444 14.6996
301 2 8.01705 4.90208 12.3107
203 2 5.0862 2.44986 9.11538
263 2 5.92698 6.33208 12.2505
227 2 3.16444 6.73722 15.5706
228 2 4.18204 5.19853 15.1335
229 2 2.45201 5.035 16.0034
332 2 2.41446 2.10169 16.4338
249 2 7.21393 4.14503 14.6844
250 2 5.71365 5.27977 14.6886
251 2 5.60904 3.60008 13.8685
258 2 5.12245 6.63955 16.5443
264 2 4.14092 5.90488 11.5079
216 2 6.15662 7.53614 13.3411
137 3 3.55537 7.99216 10.1059
190 2 1.77139 1.25065 9.04606
11 4 -0.834565 8.13417 5.49963
14 4 -5.10531 12.7374 4.15304
15 4 -1.69947 9.89906 8.09489
17 4 -2.65573 12.5212 6.14704
23 4 1.79594 13.3861 7.87843
30 4 2.01672 8.26145 4.06907
36 4 3.48832 10.0191 1.98524
37 4 -0.107356 12.3272 3.85313
39 4 3.64858 9.92546 7.12944
40 4 2.83199 12.2261 5.26474
112 3 -4.74268 14.1646 3.40196
72 1 -2.943 14.1982 6.84185
75 1 0.0952108 14.1643 7.52076
113 3 -1.29406 8.90302 6.89758
114 3 -4.1781 12.1045 5.34782
115 3 -2.51076 11.5601 7.49457
131 3 0.758564 8.55344 5.0581
138 3 2.28731 9.41527 2.94597
139 3 3.57071 8.74132 0.886303
140 3 -0.130282 13.44 2.65921
141 3 -1.29165 12.5967 4.94922
142 3 3.06653 11.3803 1.22799
143 3 2.64533 8.98607 7.83051
144 3 5.11649 9.00707 6.42575
145 3 1.26387 12.3062 4.57302
146 3 2.96648 10.8247 6.02661
147 3 2.69167 13.3664 6.56475
181 3 4.36544 10.9716 8.31709
359 2 0.744865 9.61377 0.30364
209 2 -0.312448 10.8343 3.18751
341 2 1.64444 13.2234 0.22309
108 3 -2.01534 8.11405 4.25455
235 2 -2.83676 13.9452 7.96309
236 2 -4.0337 14.3537 6.40137
202 2 1.46209 11.6688 8.34691
245 2 0.134252 14.3349 6.38037
232 2 0.92771 10.1382 8.40723
9 4 -3.10075 8.00469 3.15409
329 2 -3.48786 13.3336 1.13576
327 1 -3.28273 14.4508 1.08476
20 4 0.547307 14.9834 2.22685
349 2 -2.19267 14.6542 1.10519
244 2 -0.675641 13.4532 7.79292
243 2 0.12635 15.1025 8.21575
328 2 -3.88581 14.9586 0.259996
356 2 -2.17605 14.8861 6.44283
16 4 -4.08478 12.174 10.3371
18 4 -0.479542 10.6965 14.2047
19 4 -1.85336 11.4542 11.4667
31 4 4.79282 8.92619 17.1901
324 2 -2.27837 12.7446 16.7394
38 4 4.69158 12.7596 17.2917
41 4 4.79215 10.9151 13.3211
42 4 1.23771 13.192 15.1762
43 4 2.99248 12.855 12.0548
73 1 -1.61523 10.1194 15.5748
81 1 3.09389 9.75551 16.9526
83 1 1.20653 12.4036 11.6502
116 3 0.654205 9.38055 13.8766
117 3 -3.10897 12.4387 11.5331
118 3 -1.26432 11.027 12.8316
238 2 -0.909151 9.70246 16.3267
148 3 4.57851 9.63255 12.3285
149 3 0.211852 12.134 14.9184
150 3 0.771837 14.5598 14.5544
151 3 3.40588 11.6214 13.5767
152 3 2.92368 14.4088 12.8691
33 4 2.32828 7.99183 9.03356
173 3 5.83569 9.12903 15.452
182 3 3.88783 12.4199 10.8138
334 2 -2.12255 14.3269 12.6445
169 3 6.2869 8.31433 10.2864
35 4 4.8687 8.15219 10.9923
200 2 -0.583916 11.978 10.4371
335 2 -0.613155 15.0136 13.5151
201 2 -2.22607 9.80426 10.7065
208 2 3.15956 9.15054 12.6818
210 2 4.84242 10.2709 14.9468
211 2 2.75012 12.598 14.6814
212 2 3.66098 11.6114 16.6149
213 2 1.68619 13.4237 16.7526
13 4 1.56547 8.48856 12.9716
237 2 -2.24893 11.0264 16.0412
26 4 1.89209 15.5727 13.5945
207 2 0.906277 8.82339 9.62479
262 2 2.86051 10.1532 15.9253
266 2 1.06568 11.4095 12.0902
267 2 1.25115 12.5318 10.524
268 2 0.669888 13.2303 12.2005
71 1 0.0790897 10.573 9.14658
261 2 2.50505 8.63842 17.1921
323 3 -3.69673 14.7996 14.991
333 1 -1.58207 15.2321 13.072
197 2 -3.46836 11.923 8.77254
196 2 1.01878 8.54448 11.4167
70 1 -2.77525 9.07145 9.23237
233 2 0.265905 10.4273 10.2564
154 3 2.39316 14.3376 8.94183
234 2 -0.300635 11.6386 8.75972
321 1 -3.4165 12.5036 16.9697
339 3 12.3604 0.226715 0.126637
47 4 13.7773 3.72948 5.44417
51 4 11.0495 4.27911 0.828806
52 4 7.42856 6.71246 3.94613
54 4 11.8154 5.58353 7.16771
361 2 14.6876 0.977837 0.81858
66 1 15.127 4.08659 2.68905
76 1 8.65875 2.96596 5.97705
85 1 13.3389 2.00708 5.4092
89 1 10.4931 3.97978 2.57767
90 1 10.888 1.35604 7.6217
91 1 10.3828 4.49742 8.26183
162 3 11.1504 2.6982 0.182511
163 3 12.9892 4.99219 0.918775
164 3 7.07555 5.15737 3.42358
166 3 9.99887 5.37675 0.183113
165 3 6.24979 7.22523 4.88672
167 3 12.772 4.64226 6.22997
193 2 16.7964 1.54315 0.501784
222 2 15.4273 2.92543 2.73001
171 3 8.99718 6.72951 4.85602
172 3 12.2359 6.66487 8.22067
241 2 8.98311 0.88008 3.92651
214 2 10.0264 5.67041 6.78993
343 2 14.7338 4.48185 4.00301
246 2 9.08943 1.93242 5.62663
247 2 9.35724 3.58213 6.8028
248 2 8.2651 3.64103 5.07113
270 2 14.7671 2.7911 6.49092
271 2 13.0257 2.08205 4.12843
272 2 12.4076 1.64459 6.07254
282 2 11.4111 4.47396 3.10235
283 2 10.4339 2.88326 2.8737
284 2 9.56673 4.58417 2.77073
170 3 11.4628 7.44343 4.35823
286 2 11.8094 2.02206 8.08155
287 2 10.1294 1.92155 6.97287
346 2 7.39843 4.83666 0.482094
289 2 10.5589 3.30787 8.0123
351 2 14.2441 4.40881 1.92981
219 2 14.7826 1.07239 5.88562
290 2 9.29979 4.76849 8.12434
168 3 7.17378 6.57206 8.2858
360 2 10.138 0.246703 2.05006
355 2 12.4764 7.31368 7.42166
56 4 10.1576 7.70831 4.82924
285 2 11.2444 0.356799 7.05222
352 2 13.1293 4.88327 0.00483542
6 4 15.8095 2.4923 14.9285
159 3 9.72862 3.33709 16.7486
46 4 10.2394 0.785773 9.37109
350 2 17.0606 3.55877 15.8143
49 4 10.6106 2.5316 15.6064
50 4 15.9198 1.77807 10.8871
277 2 12.2777 1.59604 10.2693
55 4 7.50215 7.70119 9.39537
58 4 9.74267 6.71855 11.6295
86 1 11.3043 3.64937 14.1846
45 4 13.5823 2.30205 16.7241
88 1 14.4892 2.68817 10.5134
94 1 11.2942 5.97849 10.9461
95 1 8.86128 5.44761 12.8757
153 3 14.3196 2.84705 15.2933
156 3 16.2748 1.10717 14.4987
302 2 8.43124 6.09582 13.7866
288 2 10.7787 4.9375 9.31514
158 3 11.9322 1.65069 16.3341
87 1 11.8777 0.567104 10.4184
160 3 17.2581 2.33584 10.2725
53 4 10.6533 6.62689 17.1866
174 3 8.59223 7.11291 10.4223
205 2 9.29709 3.76609 11.9477
273 2 12.4085 3.60548 14.1825
274 2 10.9267 4.64898 14.6169
275 2 10.8531 3.34814 13.2378
176 3 10.3016 8.09067 17.4292
279 2 13.58 2.53346 11.2829
280 2 14.4706 1.75981 9.36372
281 2 14.706 3.76278 10.0772
347 2 10.3269 6.1669 15.6057
109 3 16.8062 3.78889 14.7936
294 2 8.74988 7.13189 15.1017
297 2 11.6007 6.24206 9.82923
298 2 10.9349 4.84113 11.085
299 2 12.0674 6.32221 11.7203
300 2 9.78769 4.67789 13.2926
186 3 10.3413 8.05344 12.5264
161 3 15.7621 0.701413 12.0727
44 4 6.18263 13.9442 0.926449
59 4 8.1455 8.49434 1.34345
60 4 5.55257 12.7825 3.86077
310 2 5.86465 10.424 4.28698
63 4 7.41483 14.2401 6.26061
340 3 9.23104 11.6624 0.334714
325 2 11.6311 12.2817 0.458064
92 1 9.79522 9.42022 5.32284
96 1 9.86198 9.15983 1.64511
97 1 11.4052 11.6947 3.59182
98 1 6.50476 11.1175 3.67488
336 1 2.3935 14.5486 1.45785
177 3 5.61332 13.4539 2.32998
363 2 9.22064 13.6482 6.17444
179 3 7.29217 9.88179 1.02754
218 2 5.10347 13.5206 8.468
183 3 8.61366 13.4751 6.97875
184 3 6.53689 13.4918 4.96827
217 2 5.08926 10.2099 2.74158
178 3 4.08581 12.4759 4.34146
180 3 6.83615 12.6237 0.0830016
220 2 6.44949 14.3918 7.72113
84 1 7.73535 14.9564 1.35024
291 2 10.5283 10.396 4.68235
292 2 10.1347 9.23802 6.52196
293 2 8.67459 9.53186 5.08588
303 2 9.74983 10.295 1.14816
304 2 10.4486 8.4646 0.986181
305 2 10.1124 9.0779 2.72832
306 2 11.6384 11.4184 2.46706
307 2 10.2978 12.2078 3.94253
308 2 7.45155 11.4517 4.29926
309 2 6.77952 10.6297 2.52626
175 3 7.68318 7.71819 2.70367
311 2 7.42347 13.2236 8.57545
269 2 8.64323 14.294 1.01439
215 2 8.18994 8.9413 8.49944
337 2 2.4677 14.9242 0.387793
194 2 12.92 7.83947 3.84381
362 2 7.5014 15.0759 2.46904
338 2 2.67662 13.444 1.56709
319 2 7.80832 11.9557 16.2449
48 4 8.60531 14.9923 13.4399
64 4 10.0661 9.40846 13.2583
65 4 6.55483 12.9693 14.4868
187 3 5.97158 12.0659 13.2274
99 1 6.53734 13.1375 9.22461
100 1 10.0855 10.5881 11.8642
101 1 8.09123 11.9543 15.0901
320 4 13.2508 13.6018 15.7523
185 3 8.26653 9.22441 13.9841
62 4 4.87191 11.9153 9.40343
364 2 11.0695 13.5178 15.4021
188 3 7.06123 14.3605 13.9737
199 2 12.5887 10.77 10.4793
326 2 11.9168 11.6549 15.3535
348 2 9.89267 11.6172 15.8156
365 2 12.1463 12.716 13.7442
221 2 11.1849 9.76899 14.4783
357 2 13.8991 11.4711 17.0168
344 2 9.69895 13.7209 13.355
278 2 5.44257 14.5915 9.90919
198 2 12.2893 13.3249 10.2736
322 1 11.9633 12.7203 14.8797
318 2 8.09411 10.8517 14.6474
312 2 6.49431 11.4188 9.98451
313 2 6.64517 13.7309 10.1531
314 2 8.93017 10.8725 11.8603
315 2 10.4996 10.2304 10.8728
316 2 10.7526 11.4182 12.4399
317 2 9.00871 12.5747 14.7684
57 4 6.93136 8.54045 14.5066
189 3 5.62075 13.0612 16.042
276 2 4.41872 15.269 11.4822
230 2 13.7772 9.53793 8.91202
231 2 15.0031 7.9639 9.03659
61 4 9.99372 12.2484 17.4379
239 2 15.3269 9.33269 15.0885
ITEM: TIMESTEP
100
ITEM: NUMBER OF ATOMS
365
ITEM: BOX BOUNDS xy xz yz pp pp pp
-7.0844379999999996e+00 1.9702400000000001e+01 -7.0844379999999996e+00
0.0000000000000000e+00 1.5863300000000001e+01 2.0880000000000001e+00
0.0000000000000000e+00 1.7464200000000002e+01 8.7949999999999995e-01
ITEM: ATOMS id type x y z
224 2 -1.64115 5.61902 5.48247
2 4 1.21614 2.4772 0.897861
4 4 2.69652 3.99839 5.45321
8 4 -0.969928 4.64522 2.04603
10 4 1.50832 5.17259 8.06595
256 2 3.62251 4.85958 2.69822
21 4 4.74518 2.05234 4.65283
22 4 6.51926 2.27954 0.133012
25 4 6.94267 2.90785 6.48936
29 4 5.92877 4.37323 2.83691
32 4 5.97998 5.61488 8.07511
34 4 4.9566 7.53432 5.98477
68 1 -0.964294 6.26636 6.15166
74 1 7.87921 0.921597 3.84433
78 1 1.33487 6.72073 3.12403
79 1 4.45472 5.61803 2.89435
102 3 2.17432 1.49913 2.18912
105 3 0.119336 3.54861 1.5284
107 3 2.14348 4.59779 6.77683
353 2 -0.780148 7.05591 1.0889
255 2 4.16489 6.41404 3.66375
119 3 4.39096 0.721783 3.68747
120 3 3.14221 2.51458 5.50491
121 3 6.91284 0.898428 1.11133
123 3 5.94885 1.87382 5.86287
129 3 5.29724 3.20908 3.73926
130 3 6.42616 3.71862 1.04742
133 3 6.52527 4.21237 7.2195
135 3 3.48645 7.59037 4.74773
136 3 4.87706 6.405 7.08807
191 2 3.89894 4.97107 4.6799
192 2 1.40078 3.91658 4.32428
257 2 4.84008 6.17287 1.86399
204 2 8.08521 2.00134 7.43461
206 2 -0.223295 5.47693 3.37719
241 2 8.93103 0.705821 4.14103
67 1 -1.36662 6.14895 0.818003
1 4 3.18949 0.296001 2.72082
225 2 -1.41811 6.44495 7.21981
226 2 0.214376 5.95427 5.98043
242 2 7.0856 0.524393 4.58039
260 2 3.33118 6.07656 1.24999
195 2 -0.126368 5.33168 7.69753
252 2 1.34645 5.8649 3.84883
253 2 1.87872 6.53362 2.03635
254 2 0.290882 7.11407 2.94296
331 2 0.346545 0.274033 0.973397
330 1 0.213848 1.09924 0.174376
80 1 2.73383 6.27902 0.201577
354 2 -2.4796 6.25252 0.594066
240 2 7.7137 1.97837 3.517
342 2 -2.77035 7.20765 1.70348
134 3 1.97812 6.51532 8.63386
259 2 1.58944 6.17925 0.335027
190 2 1.39418 1.72067 8.66546
3 4 1.10334 2.72702 10.0058
5 4 4.29051 0.99096 14.3619
7 4 3.1462 3.01122 12.1784
12 4 1.92353 5.53243 13.9609
345 2 0.361246 4.89838 14.3754
24 4 5.59627 3.48453 10.2494
93 1 7.67882 6.86563 15.667
27 4 5.72298 3.24933 16.2538
28 4 8.31314 2.52847 11.3462
155 3 9.26068 1.91251 10.0836
265 2 4.78669 6.7907 13.2411
69 1 3.06064 5.72317 15.4681
77 1 5.92331 4.37925 14.7074
106 3 1.42009 4.11282 9.36387
82 1 4.96508 6.77866 12.1567
103 3 2.08274 2.32884 11.2883
104 3 3.3649 2.03205 13.5335
358 2 5.76818 1.22462 12.3234
295 2 7.2228 5.90101 15.3841
110 3 2.58776 4.50327 12.9039
111 3 1.79685 7.04621 13.5303
122 3 4.60706 3.17505 11.3728
124 3 5.12151 1.89327 15.4303
125 3 7.07486 2.91384 16.9818
126 3 4.5387 3.96617 17.2867
127 3 7.08306 3.26881 10.7498
128 3 8.08282 1.45669 12.454
132 3 5.44472 5.03933 9.656
296 2 7.4046 7.24283 16.7078
157 3 9.8288 1.40532 14.5419
301 2 8.05021 4.94436 12.385
203 2 5.28119 2.45948 9.02667
263 2 6.05906 6.40162 11.9021
227 2 3.25157 6.81163 15.7078
228 2 4.08407 5.16939 15.1704
229 2 2.40915 5.20928 16.2361
332 2 2.8355 1.73216 16.6771
249 2 7.0002 4.05477 14.4666
250 2 5.77155 5.55177 14.7027
251 2 5.17343 3.88073 13.965
258 2 5.27051 6.56405 16.881
264 2 4.27884 6.10021 11.5492
216 2 6.40909 7.66208 13.2065
223 2 1.25997 6.52014 17.4167
11 4 -0.940202 8.0127 5.5022
14 4 -5.15743 12.6204 4.07331
15 4 -1.73652 9.84489 8.11665
17 4 -2.68499 12.4366 6.15878
23 4 1.73585 13.315 7.87915
30 4 2.14033 8.15431 4.09383
36 4 3.50465 9.99435 1.90772
37 4 -0.100625 12.3974 3.87799
39 4 3.81431 9.93168 7.20716
40 4 2.72163 12.2752 5.24889
112 3 -4.85652 14.0781 3.55924
72 1 -2.94002 14.1944 6.74598
75 1 0.0301421 14.0316 7.45647
113 3 -1.37566 8.91005 6.83564
114 3 -4.13819 12.023 5.24361
115 3 -2.50503 11.5223 7.36311
131 3 0.6999 8.33424 4.89296
138 3 2.4368 9.42611 3.0032
139 3 3.71976 8.75967 0.786698
140 3 -0.273449 13.5082 2.63454
141 3 -1.2787 12.5347 4.98981
142 3 3.22138 11.3132 1.05435
143 3 2.53877 8.95526 7.7464
144 3 5.06727 9.02623 6.71766
145 3 1.35878 12.3962 4.39393
146 3 3.13051 10.7489 5.8576
147 3 2.51296 13.3293 6.48398
181 3 4.26184 11.0306 8.37728
359 2 1.14406 9.60742 0.500062
209 2 -0.335178 10.9256 3.20986
338 2 2.61109 13.439 1.72916
108 3 -2.19344 8.11639 4.20928
235 2 -2.94049 14.2121 7.85806
236 2 -4.0129 14.381 6.26612
202 2 1.42384 11.7638 8.53113
245 2 0.0431938 13.9498 6.3525
232 2 0.956065 9.8945 8.40674
9 4 -3.2059 8.20659 3.09209
329 2 -3.19402 13.2342 1.34711
327 1 -3.17695 14.381 1.20747
20 4 0.424622 14.9017 2.22864
349 2 -2.10501 14.8839 1.18842
244 2 -0.641898 13.2921 8.00437
243 2 -0.0595583 15.0922 7.78995
328 2 -3.84419 14.7371 0.355999
356 2 -2.01509 14.717 6.20617
234 2 -0.283196 11.5394 8.54008
197 2 -3.38077 11.8153 8.70223
16 4 -4.08476 12.2031 10.2381
18 4 -0.421001 10.7468 14.5906
19 4 -1.90378 11.3123 11.5769
31 4 4.98323 9.01548 17.1116
324 2 -2.26055 12.6885 16.9893
38 4 4.70716 12.8076 17.2314
41 4 4.73821 10.8863 13.3757
42 4 1.13826 13.207 15.2724
43 4 3.01043 13.0204 12.0051
73 1 -1.9093 10.1316 15.4357
81 1 3.20211 9.83845 16.9869
83 1 1.24222 12.6829 11.4087
116 3 0.789616 9.44257 13.9993
117 3 -3.05021 12.372 11.3296
118 3 -1.14362 11.2694 12.9737
238 2 -1.43053 9.31749 16.1603
148 3 4.62175 9.73384 12.3618
149 3 0.31247 11.9124 15.3955
150 3 0.748936 14.49 14.5181
151 3 3.37146 11.7429 13.5073
152 3 2.93649 14.4768 12.6267
33 4 2.34614 8.02453 9.05258
173 3 5.9425 8.92886 15.4124
182 3 3.83765 12.5539 10.7866
334 2 -2.14832 14.52 12.428
169 3 6.20095 8.23545 10.2288
35 4 4.83096 8.27128 11.0169
200 2 -0.816155 11.7079 10.3115
335 2 -0.647143 14.9678 13.5972
201 2 -2.05382 9.66376 10.8427
208 2 3.19033 9.17433 12.619
210 2 4.89471 9.99556 14.7641
211 2 2.6085 12.5907 14.6534
212 2 3.2988 11.8321 16.9912
213 2 1.62632 13.7017 16.771
13 4 1.69837 8.50953 13.0539
237 2 -2.42713 11.088 16.0553
26 4 1.76234 15.5169 13.4919
207 2 0.879731 8.68641 9.64234
262 2 2.94466 10.3546 16.0047
266 2 0.994857 11.8859 12.2958
267 2 1.31191 12.1983 10.3652
268 2 0.806021 13.7413 11.4923
71 1 0.0828148 10.4093 9.07132
261 2 2.64996 8.82654 17.0986
323 3 -3.5232 14.7691 15.0035
333 1 -1.61332 15.298 12.9918
321 1 -3.36314 12.5829 17.0367
196 2 1.1846 8.66974 11.4858
70 1 -2.84512 9.1243 9.29204
233 2 0.456337 10.5317 10.1562
154 3 2.49338 14.436 9.0734
137 3 3.45196 8.19522 10.1646
198 2 -4.89181 13.6137 9.85565
341 2 3.92207 14.3106 17.4456
339 3 12.3431 0.136473 0.0994415
47 4 13.7173 3.64857 5.38435
51 4 11.0806 4.16294 0.883044
52 4 7.45513 6.70799 4.10393
54 4 11.8194 5.48672 7.24252
361 2 14.5486 1.17407 1.11981
66 1 14.9788 4.05269 2.65995
76 1 8.77914 2.94007 5.86692
85 1 13.4563 1.9599 5.63555
89 1 10.385 3.78846 2.57182
90 1 10.9536 1.56405 7.80819
91 1 10.177 4.63867 8.18284
162 3 11.2104 2.62609 0.167157
163 3 12.8762 5.11533 1.04843
164 3 7.13195 5.09162 3.51099
166 3 9.9862 5.06294 0.178387
165 3 6.26196 7.25398 5.02515
167 3 12.7523 4.56521 6.27125
193 2 16.758 1.48005 0.083322
222 2 15.1008 2.92088 2.53518
171 3 8.90709 6.63828 4.8751
172 3 12.2393 6.75881 8.15534
285 2 11.1732 0.529993 7.37173
214 2 10.126 5.53868 6.56332
343 2 14.9986 4.57426 4.25231
246 2 9.46979 2.13548 5.51776
247 2 9.28197 3.5952 6.71163
248 2 8.34612 3.68492 4.90918
270 2 14.9976 2.72133 6.30199
271 2 12.8817 1.85397 4.42035
272 2 12.7108 1.88761 6.49271
282 2 10.8282 4.74772 3.09773
283 2 10.7453 2.84816 3.05582
284 2 9.24366 3.77297 2.5912
170 3 11.2724 7.49409 3.89523
286 2 11.8766 2.1712 8.09442
287 2 10.1021 2.08012 7.15111
346 2 7.33644 4.95552 0.557273
289 2 10.4282 3.48697 8.04121
351 2 14.1226 4.56176 2.00883
219 2 14.9727 0.897895 5.78599
290 2 9.08029 4.76118 8.09181
168 3 7.16744 6.62501 8.47754
56 4 10.2073 7.68585 4.77537
355 2 12.3477 7.39174 7.33401
360 2 9.79349 0.200083 2.54556
176 3 8.37016 7.28307 0.0810511
352 2 13.0637 4.93108 0.103044
84 1 14.9162 0.0886343 1.27225
6 4 15.8257 2.56059 14.8512
159 3 9.62644 3.29522 16.4618
46 4 10.2683 0.825409 9.44505
350 2 17.0814 3.59856 15.7815
49 4 10.585 2.45725 15.4255
50 4 15.7895 1.77782 10.7314
277 2 12.2115 1.70002 10.1362
55 4 7.52714 7.74913 9.53316
58 4 9.76879 6.69361 11.6935
86 1 11.2572 3.77525 14.2703
45 4 13.5402 2.14788 16.7228
88 1 14.3844 2.7538 10.3113
94 1 11.3297 5.97924 10.9029
95 1 8.81398 5.45699 13.0019
153 3 14.4092 2.64207 15.4541
156 3 16.489 1.15428 14.7693
302 2 8.3193 6.05697 13.8984
288 2 10.5644 5.15179 9.24941
158 3 12.0453 1.5826 16.3791
87 1 11.8118 0.640919 10.4781
160 3 17.1373 2.4282 10.1761
53 4 10.7602 6.64722 17.2804
174 3 8.60295 7.27792 10.5994
205 2 9.31061 3.83664 11.9476
273 2 12.415 3.77269 14.4852
274 2 10.7317 4.72529 14.6906
275 2 10.9948 3.6 13.1772
161 3 15.7133 0.878054 12.0566
279 2 13.7209 2.7387 11.3578
280 2 14.1929 1.6432 9.49192
281 2 14.7779 3.86935 9.84559
347 2 10.5803 6.26385 15.713
109 3 16.7605 3.93258 14.8506
294 2 8.77783 6.94632 15.4571
297 2 11.6895 6.30978 9.84949
298 2 10.8987 4.857 10.9131
299 2 12.1288 6.06589 11.7539
300 2 9.68956 4.73969 13.4008
186 3 10.3221 7.82982 12.7559
44 4 6.24699 14.0844 0.898384
59 4 8.01669 8.39015 1.30801
60 4 5.56144 12.8393 3.81502
310 2 5.86859 10.5156 4.23205
63 4 7.23582 14.2425 6.29981
340 3 9.13252 11.6595 0.250926
194 2 12.7955 7.7667 3.62881
92 1 9.85523 9.43767 5.17815
96 1 9.69796 9.13332 1.59128
97 1 11.3679 11.6567 3.31476
98 1 6.52308 11.1545 3.55937
336 1 2.31242 14.5006 1.6289
177 3 5.69273 13.6989 2.39658
363 2 8.71599 13.0572 6.20312
179 3 7.2156 9.81086 1.05283
218 2 4.75632 13.6985 8.41668
183 3 8.42638 13.4914 7.04993
184 3 6.41137 13.5051 5.0555
217 2 4.95892 10.1819 2.76789
178 3 4.107 12.5665 4.34299
180 3 6.75159 12.7563 0.061821
220 2 6.07337 14.4872 7.64132
61 4 7.80092 11.3362 0.0136562
291 2 10.4231 10.2506 4.52482
292 2 10.1387 9.38962 6.3505
293 2 8.68898 9.39485 5.07073
303 2 9.65819 10.2099 1.05127
304 2 10.3948 8.37093 1.12402
305 2 9.93677 9.26025 2.71433
306 2 11.9408 11.2557 2.29641
307 2 10.2973 11.9873 3.33151
308 2 7.4927 11.5275 4.07047
309 2 6.82527 10.6475 2.57351
175 3 7.56382 7.65975 2.73875
311 2 7.20916 13.1515 8.45057
269 2 8.66285 14.8123 0.566742
362 2 8.01958 14.6701 2.32691
325 2 11.4924 12.408 0.479367
337 2 2.57896 14.9819 0.536795
215 2 8.19226 9.02373 8.71972
319 2 7.67479 11.9376 16.2999
48 4 8.74835 15.1335 13.4199
64 4 10.0001 9.26426 13.3736
65 4 6.58449 12.8404 14.4912
187 3 6.02306 11.8426 13.2438
99 1 6.3418 13.2269 9.15408
100 1 9.98061 10.573 12.0211
101 1 8.08068 11.945 15.2065
320 4 13.3352 13.482 15.7048
185 3 8.28741 9.25102 14.125
62 4 4.64631 12.1022 9.42896
364 2 11.1186 13.4455 15.2982
188 3 7.32708 14.4828 13.8776
199 2 12.3591 11.031 10.5516
326 2 11.9799 11.6153 15.0202
348 2 9.90588 11.6623 15.8113
365 2 12.184 12.9055 13.5921
221 2 11.1799 9.63306 14.4981
357 2 13.9621 11.4233 17.1146
344 2 9.89894 13.9665 13.3337
278 2 5.29809 14.7167 9.89327
239 2 15.0227 9.64447 14.6945
322 1 12.0532 12.7135 14.7444
318 2 8.27601 10.8188 14.7345
312 2 6.39455 11.6592 10.0393
313 2 6.57172 13.8325 10.0824
314 2 8.95083 11.0341 11.9699
315 2 10.2633 9.94552 11.1107
316 2 10.881 11.227 12.4699
317 2 8.83858 12.7148 15.0151
57 4 7.11347 8.34195 14.5846
189 3 5.57888 12.8668 15.8462
276 2 4.68235 15.4969 11.6057
230 2 13.7543 9.55285 9.27565
231 2 14.8513 8.00859 9.09456
ITEM: TIMESTEP
200
ITEM: NUMBER OF ATOMS
365
ITEM: BOX BOUNDS xy xz yz pp pp pp
-7.0844379999999996e+00 1.9702400000000001e+01 -7.0844379999999996e+00
0.0000000000000000e+00 1.5863300000000001e+01 2.0880000000000001e+00
0.0000000000000000e+00 1.7464200000000002e+01 8.7949999999999995e-01
ITEM: ATOMS id type x y z
224 2 -1.74021 5.7013 5.23069
2 4 1.41829 2.38581 0.970801
4 4 2.65699 4.01299 5.38217
8 4 -0.963067 4.6859 1.97872
10 4 1.54258 5.17274 7.967
256 2 3.67206 4.81788 2.66501
21 4 4.70292 2.04167 4.70779
22 4 6.49833 2.328 0.0961179
25 4 7.05597 2.91286 6.44103
29 4 5.93383 4.3641 2.86071
32 4 6.02202 5.52302 8.02591
34 4 4.91761 7.51893 6.01208
68 1 -1.08942 6.2187 5.95873
74 1 7.8225 0.87515 3.78141
78 1 1.44864 6.8896 2.89365
79 1 4.49132 5.63526 2.8464
102 3 2.09782 1.57122 2.18015
105 3 0.0438974 3.59808 1.54334
107 3 2.13206 4.59107 6.67066
353 2 -1.30044 7.17117 0.796447
255 2 4.1579 6.42268 3.6686
119 3 4.33123 0.692475 3.91796
120 3 3.30695 2.57904 5.51353
121 3 6.83695 1.01123 1.05195
123 3 6.07674 1.84248 5.86606
129 3 5.2018 3.22343 3.6886
130 3 6.49144 3.67733 1.13651
133 3 6.61796 4.18641 7.16253
135 3 3.45083 7.4861 4.97578
136 3 4.96496 6.40732 7.19283
191 2 3.68358 5.09306 4.58606
192 2 1.52112 4.00401 4.14331
257 2 4.8552 6.17796 1.85828
204 2 8.26157 2.03886 7.37403
206 2 -0.121727 5.73514 3.15689
190 2 1.65344 1.57269 8.66535
67 1 -1.40948 6.05137 0.698663
1 4 2.96325 0.279067 2.80049
225 2 -1.47513 6.17606 7.08059
226 2 0.115596 6.0679 5.89319
259 2 1.75897 5.55409 0.13792
260 2 3.39381 5.83077 1.1065
195 2 -0.0873249 5.49561 7.47082
252 2 1.52857 5.98733 3.66312
253 2 1.99632 6.56599 1.89225
254 2 0.354583 7.29094 2.67196
331 2 0.669831 0.241649 0.487127
349 2 4.89949 0.182378 1.331
80 1 2.81764 6.02031 0.147715
354 2 -2.47056 5.84554 0.34253
240 2 7.20119 1.81838 3.4377
342 2 -2.71075 6.88653 1.92495
134 3 1.96092 6.61612 8.49918
242 2 7.33086 0.316022 4.66154
3 4 1.15667 2.66325 9.75897
5 4 4.24789 1.07914 14.2432
7 4 3.09929 3.14907 12.161
12 4 1.90437 5.43814 13.9555
345 2 0.381442 4.73416 14.4544
24 4 5.58256 3.52051 10.2475
223 2 1.47424 6.40869 17.388
27 4 5.67389 3.22304 16.2602
28 4 8.26987 2.56616 11.4338
155 3 9.15011 2.04321 10.159
265 2 4.59642 7.43573 13.1556
69 1 2.98472 5.50869 15.4758
77 1 6.00168 4.46108 14.8434
106 3 1.44743 4.16447 9.14134
82 1 4.93679 6.80446 12.1623
103 3 2.09448 2.49005 11.1381
104 3 3.27221 1.96093 13.3119
358 2 5.65995 0.965475 12.2294
295 2 7.37009 5.84242 15.5678
110 3 2.62639 4.50517 12.9395
111 3 1.72033 7.07671 13.5875
122 3 4.57517 3.4294 11.4834
124 3 5.09482 1.81284 15.4466
125 3 7.08984 3.09961 16.9215
126 3 4.46756 3.79399 17.3191
127 3 7.0724 3.47583 10.8964
128 3 7.86542 1.46876 12.4932
132 3 5.31866 4.88618 9.31306
296 2 7.52847 7.35659 16.6855
157 3 9.84824 1.48083 14.3947
301 2 8.28445 4.6141 12.7536
203 2 5.32789 2.11756 9.36478
263 2 5.89996 6.21067 12.3015
227 2 2.92433 6.65231 15.707
228 2 4.147 5.16842 15.2115
229 2 2.5444 4.86994 16.3179
332 2 2.77755 2.1 16.3439
249 2 7.13883 4.38396 14.7743
250 2 5.74286 5.52158 14.9348
251 2 5.53806 3.99973 13.8858
258 2 5.52031 6.49419 16.6803
264 2 4.02414 6.19948 11.7442
216 2 6.55591 7.63958 13.0583
330 1 2.44925 2.07357 17.4082
11 4 -1.00726 8.06411 5.58349
14 4 -5.18308 12.5694 3.95298
15 4 -1.60386 9.87521 8.11538
17 4 -2.66671 12.3377 5.93613
23 4 1.78952 13.4325 7.86351
30 4 2.01009 8.23659 4.07719
36 4 3.46921 9.9966 1.88774
37 4 -0.142816 12.2482 3.83291
39 4 3.73368 10.0225 7.1306
40 4 2.67838 12.1958 5.21561
112 3 -4.9498 13.9732 3.29581
72 1 -2.96882 14.0871 6.56706
75 1 0.0358364 14.0485 7.58597
113 3 -1.30076 8.92629 6.88489
114 3 -4.13489 11.9651 5.10152
115 3 -2.43973 11.4853 7.38261
131 3 0.694768 8.40818 4.94603
138 3 2.54676 9.40883 3.06517
139 3 3.8403 8.65948 0.806696
140 3 -0.18932 13.3548 2.64393
141 3 -1.35736 12.3906 4.95152
142 3 3.05485 11.194 1.04566
143 3 2.73752 9.05775 7.87859
144 3 5.06945 9.06359 6.53183
145 3 1.32317 12.0963 4.47751
146 3 3.021 10.7431 5.93126
147 3 2.64666 13.2576 6.45031
181 3 4.21439 11.2427 8.33001
359 2 1.19255 9.43653 0.418893
209 2 -0.420266 10.7887 3.0955
356 2 -2.10663 14.6584 6.05886
108 3 -2.11397 8.19948 4.26838
235 2 -2.86663 13.9717 7.71237
236 2 -4.00309 14.4502 6.19422
338 2 2.66009 13.3451 1.55786
245 2 0.088811 14.3644 6.51737
232 2 0.911527 10.1673 8.22431
9 4 -3.12845 8.06649 3.13377
329 2 -2.96479 13.4607 1.32989
327 1 -3.13736 14.5645 1.3333
20 4 0.562766 14.9558 2.18073
197 2 -3.23976 12.0927 8.66693
244 2 -0.471847 13.014 7.74038
243 2 -0.255764 14.828 8.34763
328 2 -3.86317 14.9459 0.485563
341 2 1.53041 13.1407 0.141831
16 4 -4.05338 12.3034 10.1864
18 4 -0.406235 10.8022 14.5489
19 4 -1.91528 11.377 11.6785
31 4 5.06924 8.79699 17.1804
324 2 -2.35387 12.6373 17.2636
38 4 4.64769 12.6795 17.1168
41 4 4.70723 11.0282 13.3086
42 4 1.29353 13.1565 15.3663
43 4 2.80678 12.9508 11.978
73 1 -1.89587 10.144 15.4572
81 1 3.30968 9.56398 17.0055
83 1 0.951326 12.687 11.5565
116 3 0.753756 9.61789 14.2284
117 3 -3.12022 12.4267 11.4396
118 3 -1.23612 11.06 13.0349
238 2 -1.52851 9.3765 16.1981
148 3 4.45157 9.78188 12.299
149 3 0.274729 12.0906 15.669
150 3 0.94428 14.1036 14.2242
151 3 3.32322 11.8093 13.5315
152 3 2.85156 14.5605 12.4933
33 4 2.33002 8.0702 9.02466
173 3 5.77474 8.82495 15.3906
182 3 3.75968 12.5213 10.7934
334 2 -2.29083 14.3581 12.5726
169 3 6.20768 8.33663 10.1769
35 4 4.77598 8.25119 11.0205
200 2 -0.722088 11.4914 10.458
335 2 -0.77916 14.7713 13.5687
201 2 -2.29578 9.87155 10.8005
208 2 2.98261 9.30618 12.7741
210 2 5.01063 10.1778 14.7411
211 2 2.77685 12.5205 14.9305
212 2 3.51725 11.5256 16.7222
213 2 1.54072 13.918 16.8511
13 4 1.49463 8.62499 13.1669
237 2 -2.40833 11.0384 16.0458
26 4 1.87845 15.4533 13.3598
207 2 0.884655 8.77325 9.65957
262 2 2.92995 9.95976 15.9907
266 2 0.51714 12.4851 12.526
267 2 0.958446 11.8575 10.792
268 2 0.652648 13.7245 11.0657
71 1 0.249628 10.533 9.00447
261 2 2.81634 8.55159 17.3413
323 3 -3.54048 14.5771 15.0987
333 1 -1.7247 15.1899 12.9932
234 2 -0.262337 11.6611 8.73269
196 2 0.784306 8.75846 11.6878
70 1 -2.71117 9.09449 9.27972
233 2 0.677512 10.5479 10.0772
154 3 2.4285 14.554 8.82304
137 3 3.37406 8.1432 10.2088
198 2 -4.93097 13.7374 9.99045
202 2 1.5873 11.8844 8.74017
339 3 12.3246 0.119008 0.0304517
47 4 13.743 3.57564 5.52546
51 4 11.2012 4.07795 0.97605
52 4 7.40922 6.6613 4.13618
54 4 11.7145 5.57084 7.18172
361 2 14.6365 1.23122 0.650553
66 1 15.0927 3.89301 2.55064
76 1 8.91103 3.04604 5.81913
85 1 13.2665 1.94359 5.60266
89 1 10.6254 3.71061 2.77342
90 1 11.0122 1.64721 7.84428
91 1 10.1727 4.78576 8.19372
162 3 11.4202 2.65729 0.202572
163 3 12.7379 4.89861 1.38164
164 3 7.14007 5.05013 3.59785
166 3 9.82732 5.10862 0.377807
165 3 6.14619 7.15785 5.02095
167 3 12.7599 4.6069 6.31108
352 2 12.858 5.31169 0.382352
222 2 15.2883 2.84842 2.19213
171 3 8.95168 6.70728 4.91421
172 3 12.2232 6.72193 8.26466
285 2 11.4693 0.711127 7.39815
214 2 10.1112 5.74767 6.50829
343 2 15.108 4.11698 4.1712
246 2 9.66812 2.38241 5.34155
247 2 9.40308 3.68441 6.70389
248 2 8.39711 3.84438 4.92151
270 2 14.7933 2.56492 6.56093
271 2 12.839 1.92047 4.35046
272 2 12.5404 1.84163 6.49176
282 2 11.2558 4.26549 3.49945
283 2 10.7644 2.60814 2.90483
284 2 9.5672 4.04532 2.86757
170 3 11.2498 7.60997 3.69671
286 2 11.7833 2.39999 8.25107
287 2 10.1162 2.12001 7.15077
346 2 7.11338 4.95546 0.378739
289 2 10.3891 3.53094 8.10613
351 2 14.2197 4.37991 2.03623
219 2 14.8397 0.892745 5.91374
290 2 9.11133 5.05897 7.98326
168 3 7.37878 6.66949 8.46515
175 3 7.5301 7.59851 2.7718
355 2 12.1767 7.48534 7.53491
84 1 14.9393 0.211958 1.034