ITEM: TIMESTEP
0
ITEM: NUMBER OF ATOMS
365
ITEM: BOX BOUNDS xy xz yz pp pp pp
-7.0039460000000000e+00 1.9899424000000000e+01 -7.0039460000000000e+00
0.0000000000000000e+00 1.5863300000000001e+01 2.1088800000000001e+00
0.0000000000000000e+00 1.7464200000000002e+01 8.7949999999999995e-01
ITEM: ATOMS id type x y z
195 2 -0.0774135 5.44546 7.97603
2 4 1.64001 2.29706 0.440219
4 4 2.61192 4.12091 5.37778
8 4 -0.525313 4.67693 1.63445
10 4 1.62021 5.22181 8.17542
257 2 5.3795 6.79253 1.56065
21 4 4.83013 2.40914 4.47308
352 2 -0.511717 4.47248 3.96919
25 4 7.31358 2.70283 6.44423
29 4 5.9862 4.56953 2.51436
32 4 6.21172 5.35747 8.02133
34 4 5.16414 7.55462 5.92056
68 1 -0.7378 6.80874 6.75111
74 1 8.60059 0.272329 4.24325
78 1 1.99099 6.15563 3.274
79 1 4.91387 5.7959 1.60177
102 3 2.37392 1.49136 1.81839
105 3 0.406894 3.63803 0.928932
107 3 2.09984 4.67619 6.72736
1 4 3.45439 0.319228 2.51776
256 2 4.79734 5.28229 0.568843
119 3 4.4514 1.05192 3.63955
120 3 3.67914 2.89152 5.57091
121 3 7.28168 0.655718 1.4716
123 3 6.26146 2.20654 5.32496
129 3 4.97914 3.76032 3.45004
130 3 6.83314 3.2725 1.31856
133 3 6.76326 4.00088 7.21908
223 2 -2.06421 6.46259 0.251369
136 3 5.29077 6.21834 6.99604
191 2 3.31322 5.45976 4.55778
192 2 1.36941 3.6268 4.33808
255 2 3.8952 5.88722 2.1585
204 2 7.8976 1.36951 7.42358
206 2 0.492865 6.07087 1.93807
67 1 -2.14428 5.38136 0.450451
253 2 2.31419 5.03761 3.22372
22 4 6.8542 1.87503 0.436696
225 2 -0.307687 7.22846 7.78942
226 2 -0.110271 6.01267 6.09641
342 2 -2.69496 6.56912 1.91415
135 3 3.58281 7.63013 5.04985
252 2 0.801298 6.21066 3.66873
241 2 7.58191 0.641745 4.60348
254 2 2.15454 6.77643 2.21721
243 2 6.65069 0.558947 8.0839
66 1 -1.18641 3.90701 3.1683
331 2 0.757748 0.0371289 0.315272
134 3 2.10391 6.65897 8.73073
3 4 1.13405 2.92303 10.1191
5 4 4.87318 0.845344 13.9199
7 4 3.09898 2.91697 12.4328
12 4 1.07055 4.80783 14.0172
263 2 6.87115 6.51951 12.5402
24 4 5.4752 3.57196 10.4821
13 4 0.827166 7.5877 12.7384
27 4 6.32245 2.93808 16.019
28 4 8.31761 2.70353 11.6648
259 2 4.59205 6.45318 15.4019
260 2 4.38235 6.14009 17.2177
69 1 2.02072 5.14247 15.5699
77 1 7.07377 4.41133 15.0161
80 1 4.97123 6.70058 16.4374
82 1 5.70715 6.92106 12.4912
103 3 2.24516 2.30503 11.118
104 3 3.45106 1.70591 13.4025
330 1 2.65244 1.86174 17.1667
208 2 2.29916 7.4395 11.9312
110 3 2.08341 4.03747 13.0185
111 3 0.666674 6.30989 13.6368
122 3 4.5231 3.62526 11.7373
124 3 5.92215 1.7782 14.8544
125 3 7.48247 2.63856 17.1099
126 3 4.86309 3.49294 16.8122
127 3 6.94872 3.03398 10.9305
128 3 8.26048 1.5024 12.7216
132 3 5.49718 4.79761 9.56807
354 2 0.277631 5.56427 17.0464
265 2 5.3302 7.48472 13.4493
157 3 10.1941 1.07332 14.7439
203 2 4.84207 2.3852 9.48994
295 2 7.86151 6.27129 15.1591
227 2 1.91443 6.17359 15.9139
228 2 3.14057 4.83138 15.337
229 2 1.47 4.41728 16.2766
332 2 1.5363 2.29034 17.2442
249 2 8.16634 4.45804 15.3324
250 2 6.38371 5.2433 15.3953
251 2 6.84661 4.15156 13.9357
258 2 6.11464 6.52988 16.5749
193 2 3.13724 1.83624 16.0894
264 2 4.94109 6.0781 12.1976
358 2 6.07569 1.13666 11.8899
106 3 1.84548 4.04015 9.27792
196 2 -0.248783 7.51768 11.4417
137 3 3.27997 7.93018 10.7205
205 2 8.77974 4.11829 12.5962
190 2 0.676712 1.65824 9.07249
238 2 -0.15183 7.89442 15.4734
261 2 2.53315 8.30703 16.4697
11 4 -0.647605 8.28889 5.80136
14 4 -4.63048 12.7135 4.098
15 4 -1.82241 10.1116 8.25754
17 4 -2.36313 12.8166 6.32441
23 4 1.88645 13.9285 8.11534
30 4 2.23257 7.93294 4.21636
36 4 3.1201 9.5191 1.66666
37 4 0.00443248 12.081 4.23891
39 4 4.3376 9.93179 7.47492
40 4 2.72444 11.9685 5.62863
307 2 -5.15509 11.7463 2.09291
72 1 -2.75721 14.5927 6.6913
75 1 0.102347 14.5783 7.78672
113 3 -1.09692 9.40992 6.83383
114 3 -3.73697 12.2959 5.35188
115 3 -2.14113 11.9548 7.96215
131 3 0.836159 8.21291 5.06047
138 3 2.37139 9.0627 2.95493
139 3 3.08636 8.15338 0.715933
140 3 0.251293 13.1487 3.00595
141 3 -0.944333 12.7275 5.37869
142 3 2.69346 10.7256 0.766404
143 3 3.18093 9.13938 8.47067
144 3 5.40645 8.92648 6.87865
145 3 1.26828 11.4883 4.87949
146 3 3.52237 10.7274 6.33811
147 3 2.40389 13.1104 6.86792
338 2 2.66657 12.6395 1.43396
327 1 -2.38404 14.4743 1.28709
209 2 -0.901701 10.7869 3.57205
325 2 -3.52716 13.0879 0.286286
310 2 4.36391 9.92074 4.13554
235 2 -2.55782 14.6605 7.84399
236 2 -3.81026 14.8118 6.39595
328 2 -2.91162 14.6521 0.280915
245 2 0.0887291 14.3505 6.62588
244 2 -0.412476 13.6642 8.33795
349 2 -1.24627 15.0191 1.33245
329 2 -2.45874 13.4021 1.80773
112 3 -4.28338 14.0194 3.25781
20 4 1.12093 14.3633 2.62661
108 3 -2.02336 7.72213 4.39056
341 2 1.5983 13.2608 0.0490625
240 2 2.09206 14.4001 4.81556
356 2 -2.00924 15.1922 6.03737
154 3 2.68659 15.1757 8.68153
16 4 -3.00047 13.2617 10.9029
18 4 -0.135896 10.0069 14.2752
19 4 -2.99735 10.8414 13.1784
31 4 4.85072 8.57904 16.7648
35 4 5.1255 8.32015 11.3182
38 4 4.35718 12.7601 16.7619
41 4 5.01554 10.9293 13.0768
42 4 1.03074 13.0411 15.2492
43 4 3.03937 12.8699 11.8452
73 1 -0.426393 8.97326 15.7825
81 1 3.03718 9.33672 16.4302
83 1 1.23607 12.3282 11.2512
116 3 0.848198 9.02784 13.4393
117 3 -2.9963 12.1458 12.0172
118 3 -1.56579 10.223 13.4567
197 2 -2.49159 12.6658 9.34017
148 3 5.30598 9.66143 12.1682
149 3 0.626802 11.7201 14.767
150 3 1.07469 14.2371 14.2474
151 3 3.59314 11.684 12.8966
152 3 3.02501 14.3356 12.3684
26 4 2.08182 15.2922 13.5024
173 3 6.13753 9.28733 15.3683
169 3 6.30203 8.0783 10.2246
333 1 -1.4354 15.2057 12.3495
198 2 -1.32257 13.9703 10.8537
33 4 2.47028 8.03285 9.32658
233 2 0.468495 10.2795 9.21981
202 2 1.71778 12.7842 9.41105
207 2 0.931091 8.6338 9.78358
182 3 4.10238 12.6755 10.2937
210 2 5.083 10.2808 14.7241
211 2 2.60548 12.8821 16.0389
212 2 3.49899 11.2621 16.3423
213 2 -0.198269 13.6113 16.3923
234 2 -0.638968 8.91207 10.1143
237 2 0.197319 9.31176 16.6668
239 2 -1.63149 9.21819 15.888
335 2 -0.74379 14.3362 12.5392
262 2 2.81279 9.78642 15.4496
266 2 0.946583 11.7954 12.2662
267 2 1.37134 11.5645 10.4499
268 2 0.494925 13.1473 11.0503
320 4 -2.9398 13.0536 15.5799
324 2 -1.63681 12.0726 17.2419
323 3 -2.5615 14.3702 14.7717
71 1 -0.50274 9.98286 9.81401
321 1 -2.00677 13.1316 17.1502
232 2 -0.803853 10.8056 10.5812
334 2 -3.06501 14.9334 11.5314
199 2 -4.56425 13.8471 10.5663
359 2 2.6555 9.98899 17.2913
357 2 -3.63595 13.2754 17.4633
9 4 14.7676 7.45108 3.34636
47 4 14.2724 5.03248 7.85477
51 4 11.7955 3.82931 1.45491
52 4 7.30914 7.09834 3.64414
54 4 11.3499 5.38672 6.65875
164 3 7.10574 5.42817 3.23046
362 2 15.1943 0.1101 1.48795
76 1 8.85002 3.25673 5.42265
289 2 9.69581 4.66954 8.1489
89 1 11.061 3.9866 3.2164
90 1 11.3167 2.51282 8.15289
91 1 10.2791 5.71288 8.17816
162 3 11.934 2.21349 0.875288
163 3 12.9957 4.59582 1.49505
224 2 15.4071 6.2612 6.92185
353 2 14.5105 5.06347 0.8782
166 3 10.3386 4.75324 0.277072
167 3 12.8389 5.12194 7.24876
364 2 15.7986 0.999618 4.07067
246 2 8.58392 3.04806 4.26615
171 3 8.93657 7.31514 4.12356
172 3 11.0145 6.66322 5.68107
176 3 8.71748 6.79278 0.448566
214 2 10.6312 3.94195 5.94691
168 3 7.3326 6.35353 8.47294
365 2 15.8377 1.30869 4.81207
247 2 9.5927 2.50541 5.98743
248 2 8.77345 4.37148 5.72873
222 2 15.5004 4.36815 3.05652
271 2 15.1439 3.48774 7.701
165 3 6.21585 7.45955 4.75604
282 2 10.7866 2.96745 3.53225
283 2 10.158 4.68048 3.15294
284 2 11.893 4.41182 3.82016
285 2 11.7319 1.87846 7.32304
286 2 12.0784 3.29426 8.48796
287 2 10.2909 3.00562 7.81907
290 2 9.59702 6.5892 7.86055
346 2 7.85934 4.20545 0.504342
351 2 16.7392 2.71742 3.23746
242 2 9.31278 1.18882 4.094
6 4 15.9346 2.59576 14.6393
45 4 14.0961 2.03087 17.1165
46 4 10.3761 1.44259 9.43011
277 2 12.57 0.890475 9.75652
49 4 10.9852 2.13002 15.7308
50 4 13.6154 3.16807 10.829
270 2 15.7815 3.96904 9.84992
55 4 7.44567 7.80607 9.17542
58 4 9.70664 7.45685 11.2831
86 1 11.472 3.52466 14.4958
294 2 9.42955 7.54365 14.8456
88 1 11.8427 3.67128 11.2355
94 1 11.5079 6.90514 10.8405
95 1 8.92069 5.98634 12.423
153 3 14.8248 2.65252 15.8189
155 3 9.39157 2.40528 10.5664
156 3 15.9105 1.22839 13.7735
350 2 15.9945 3.94781 13.5902
158 3 12.4593 1.58052 16.629
343 2 14.4622 5.71357 9.74446
160 3 17.1821 3.43048 10.6163
161 3 14.1212 1.93495 11.7537
174 3 8.92838 7.79526 9.89456
301 2 8.04039 5.48625 11.7605
273 2 11.5257 3.45376 13.3786
274 2 12.5315 3.713 15.0128
275 2 10.7049 4.31866 14.8099
276 2 11.9076 0.781817 11.5768
279 2 11.0905 3.17209 11.9036
280 2 11.4843 4.06029 10.2603
281 2 12.8115 4.66895 11.9557
288 2 10.798 5.97371 9.16506
109 3 17.1995 3.59394 14.4811
93 1 8.33687 7.41932 15.2607
297 2 11.6772 7.19845 9.82174
298 2 11.582 5.69996 10.9771
299 2 12.1622 7.4999 11.6398
300 2 9.99894 5.43118 12.3488
53 4 11.1617 6.17655 17.331
302 2 8.61546 6.50232 13.4787
48 4 14.7146 0.773091 12.8085
347 2 10.9597 6.1884 15.6738
296 2 8.29686 7.78793 16.391
272 2 13.7189 2.73052 9.05215
85 1 14.7633 4.22346 9.44596
159 3 10.0818 2.84314 16.7798
345 2 17.4633 3.62079 11.6902
87 1 11.7507 0.541985 10.4678
44 4 6.48822 13.4371 1.19595
59 4 8.27853 8.24266 1.11375
60 4 5.15931 12.1584 3.82229
178 3 3.71888 12.6422 4.4332
63 4 7.53207 13.4364 5.57797
361 2 8.83327 13.4324 1.85183
84 1 7.94608 14.1642 2.03522
92 1 9.75445 10.4866 5.91721
96 1 9.86294 9.1836 1.60118
97 1 12.367 11.4728 3.22715
98 1 5.45645 10.2062 3.96102
175 3 7.01743 8.17114 2.46993
177 3 5.49489 12.6737 2.21893
363 2 12.8216 10.5082 3.63518
360 2 3.43779 14.1557 2.4811
180 3 7.25229 12.2633 0.274464
183 3 8.03041 14.5927 4.97366
184 3 6.35795 12.7658 4.6798
231 2 14.3611 8.19221 8.08129
269 2 7.78764 14.3228 3.22621
219 2 7.01746 13.5579 7.30449
220 2 8.87145 12.2646 5.76677
339 3 5.78662 14.8383 0.198936
291 2 9.85621 10.6655 7.039
292 2 10.3845 11.2373 5.34153
293 2 10.1795 9.2782 5.69746
303 2 9.83225 10.0798 0.758062
304 2 10.6019 8.34069 1.40789
305 2 9.8477 9.58405 2.68118
306 2 11.2285 12.2757 4.19658
179 3 7.70997 9.31691 0.0117138
308 2 6.10755 10.2285 4.94582
309 2 5.97677 9.4453 3.32892
218 2 5.4269 13.8187 8.13782
355 2 8.66427 10.538 5.60805
181 3 5.14031 11.0106 8.36601
337 2 2.99232 14.4716 0.637063
215 2 7.34857 8.98416 7.97968
217 2 4.79216 9.86635 2.09748
70 1 14.4664 9.20425 8.53577
336 1 2.74511 13.8524 1.57634
311 2 7.91762 13.325 8.67285
170 3 11.5403 8.1328 3.67641
56 4 10.5578 7.74292 4.61714
194 2 13.0593 7.79334 3.60242
57 4 7.51725 8.98985 14.577
62 4 5.21342 12.3686 9.16909
64 4 9.75452 10.3509 12.7889
65 4 6.43012 13.3379 14.3158
61 4 10.2678 11.9485 16.9078
99 1 6.9451 13.4082 9.19431
100 1 8.7985 11.3549 11.6449
101 1 8.04888 12.8166 15.1008
322 1 14.2358 11.5225 14.7916
185 3 8.5809 10.0941 14.2751
186 3 9.98001 8.89778 12.162
187 3 6.19684 12.0287 12.8864
188 3 6.61838 14.8834 13.6384
189 3 5.29868 13.1936 15.5534
344 2 8.52673 14.6346 11.9635
200 2 13.7611 9.61648 12.7473
326 2 14.1466 10.4822 15.3603
221 2 11.1917 11.2031 13.1667
319 2 7.80572 12.8817 16.2101
318 2 8.28731 11.6723 14.7879
278 2 4.43852 14.3502 10.3619
201 2 13.0559 12.0295 14.7044
340 3 11.656 12.1013 17.0785
348 2 9.94622 12.2423 15.2054
312 2 6.93284 12.2793 10.2664
313 2 6.89581 14.4047 9.75876
314 2 7.6544 11.592 12.1469
315 2 8.76936 10.6476 10.7235
316 2 9.44542 12.3156 11.5846
317 2 8.78711 13.6248 14.7639
230 2 13.8957 9.63966 9.36265
216 2 7.16224 8.1616 13.1217
ITEM: TIMESTEP
100
ITEM: NUMBER OF ATOMS
365
ITEM: BOX BOUNDS xy xz yz pp pp pp
-7.0039460000000000e+00 1.9899424000000000e+01 -7.0039460000000000e+00
0.0000000000000000e+00 1.5863300000000001e+01 2.1088800000000001e+00
0.0000000000000000e+00 1.7464200000000002e+01 8.7949999999999995e-01
ITEM: ATOMS id type x y z
195 2 -0.0459779 5.50755 8.20955
2 4 1.62093 2.12486 0.40874
4 4 2.61877 4.08163 5.50103
8 4 -0.431516 4.61276 1.5731
10 4 1.6614 5.27446 8.27906
257 2 5.51882 6.64739 1.08221
21 4 4.86321 2.48212 4.47186
352 2 -1.19218 5.11555 3.9215
25 4 7.26782 2.67395 6.42718
29 4 6.10558 4.55567 2.49457
32 4 6.09052 5.34785 8.10179
34 4 5.0804 7.50673 5.95484
68 1 -0.745313 6.76154 6.88062
243 2 6.74932 0.650961 8.25194
78 1 2.03346 6.19213 3.41458
79 1 5.19888 5.56451 1.20872
102 3 2.40021 1.32021 1.50626
105 3 0.438212 3.47523 0.95863
107 3 2.06484 4.62449 6.90331
1 4 3.42679 0.330716 2.52689
256 2 5.30451 4.98896 0.244322
119 3 4.57978 1.16082 3.45889
120 3 3.45315 2.69407 5.37893
121 3 7.35999 0.60316 1.33003
123 3 6.19334 2.17339 5.45679
129 3 5.12613 3.73663 3.49921
130 3 6.78711 3.26261 1.20104
133 3 6.80051 3.87091 7.41117
223 2 -1.8839 6.28572 0.462312
136 3 5.01375 6.15439 6.9824
191 2 3.3057 5.43406 4.67192
192 2 1.28021 3.8318 4.54188
255 2 4.09069 5.43497 1.70099
204 2 7.91631 1.33308 7.35602
206 2 0.599079 5.94647 2.04319
67 1 -2.03822 5.20604 0.514345
253 2 2.29335 5.08238 3.37231
22 4 6.94685 1.85382 0.226515
225 2 -0.388114 7.33621 7.92021
226 2 -0.162847 5.90517 6.41512
134 3 2.25174 6.66555 8.58095
66 1 -1.08985 4.22329 3.28472
252 2 0.882236 6.27437 3.80205
241 2 8.03314 1.26431 4.2525
254 2 2.25363 6.60115 2.31171
351 2 -0.402883 3.40373 3.60128
74 1 8.68139 0.394946 4.01276
260 2 2.64354 5.4481 0.087148
3 4 1.1741 2.85386 10.1064
5 4 4.78761 0.81361 13.9197
7 4 3.12895 2.91151 12.3518
12 4 1.05524 4.73293 14.1338
263 2 6.80261 6.69162 12.538
24 4 5.40913 3.54536 10.4677
13 4 0.900156 7.55217 12.7511
27 4 6.44231 3.00322 15.9223
28 4 8.2821 2.75304 11.7329
259 2 4.18046 6.32103 15.7466
238 2 -0.237479 8.05569 16.0045
69 1 1.80739 4.7961 15.8176
77 1 7.1182 4.37373 14.8484
80 1 4.9428 6.74434 16.5261
82 1 5.64864 7.09335 12.6391
103 3 2.19222 2.11817 11.1173
104 3 3.58313 1.68117 13.5878
330 1 2.63634 1.80982 17.0115
208 2 2.32076 7.51677 11.8937
110 3 2.26273 4.03028 13.2687
111 3 0.697174 6.15917 13.5342
122 3 4.38511 3.56462 11.633
124 3 6.01658 1.828 14.884
125 3 7.70023 2.3871 16.9029
126 3 4.89327 3.53438 16.7594
127 3 6.8677 3.08951 11.0496
128 3 8.33788 1.56889 12.7537
132 3 5.44097 4.77882 9.49712
354 2 0.122372 5.75218 16.9319
265 2 5.46289 7.70197 13.5779
157 3 10.1029 0.923802 14.7327
203 2 4.95213 2.27707 9.54211
295 2 7.80732 6.29668 15.0483
227 2 1.76484 5.82217 16.1523
228 2 2.90668 4.46303 15.6286
229 2 1.24621 4.01781 16.4383
332 2 1.55485 2.13756 17.1202
249 2 8.18645 4.50364 15.3619
250 2 6.40548 5.20699 14.9938
251 2 7.21703 3.9364 13.764
258 2 6.04845 6.54512 16.1483
193 2 2.99846 1.9139 15.9078
264 2 4.82668 6.24345 12.4238
358 2 5.92511 1.3169 11.8161
106 3 1.72631 4.1558 9.33804
196 2 -0.156073 7.52426 11.4452
137 3 3.37005 7.75719 10.6563
155 3 9.29442 2.29785 10.6165
190 2 0.717261 1.72486 8.86625
261 2 2.62012 8.27416 16.0341
11 4 -0.637399 8.0854 5.6977
14 4 -4.78499 12.6645 4.05904
15 4 -1.64189 10.0669 8.08648
17 4 -2.4679 12.7414 6.27304
23 4 1.72998 13.859 8.13004
30 4 2.2624 8.04733 4.2161
36 4 3.12489 9.51024 1.55674
37 4 -0.109921 12.0256 4.25653
39 4 4.17379 9.89517 7.42443
40 4 2.70359 11.9796 5.62828
154 3 2.57456 15.167 8.66714
72 1 -2.6901 14.5693 6.64241
75 1 0.00922138 14.6161 7.75769
113 3 -1.08672 9.32787 6.86629
114 3 -3.98235 12.2254 5.35243
115 3 -2.24606 11.9637 7.81223
131 3 0.785536 8.20699 4.96986
138 3 2.43684 9.12461 2.93397
139 3 3.31129 8.16499 0.60707
140 3 0.268971 12.9565 3.06449
141 3 -1.09111 12.7463 5.27407
142 3 2.57416 10.614 0.661457
143 3 3.16891 9.06025 8.35161
144 3 5.31136 8.8899 6.83957
145 3 1.23121 11.578 4.9054
146 3 3.38699 10.84 6.397
147 3 2.24092 13.1476 6.78369
338 2 2.98678 12.9286 1.26147
327 1 -2.43277 14.5399 1.20121
209 2 -0.871778 10.6832 3.62577
325 2 -3.42285 13.0331 0.230758
310 2 4.46683 9.94993 4.01132
235 2 -2.76927 14.4784 7.80334
236 2 -3.73748 14.8266 6.10825
328 2 -2.92532 14.7025 0.203752
245 2 -0.131632 14.5404 6.66874
244 2 -0.523515 13.7118 8.36832
349 2 -1.39741 14.9111 1.22285
329 2 -2.53922 13.441 1.59112
112 3 -4.2489 14.0492 3.2181
20 4 1.14596 14.4837 2.43327
356 2 -1.84616 15.1846 6.31135
135 3 3.62796 7.7891 5.02707
240 2 1.59688 14.5402 4.78239
341 2 1.51614 13.3951 0.0614342
108 3 -2.08333 7.72202 4.37279
357 2 -5.37366 12.4644 0.235138
181 3 4.97862 10.9698 8.5711
331 2 -6.30122 14.8225 0.0308136
16 4 -3.07474 13.0788 10.8446
18 4 -0.092258 9.89703 14.3207
19 4 -2.96603 10.9614 13.2092
31 4 4.89162 8.64223 16.6536
35 4 5.10067 8.2678 11.2901
38 4 4.2779 12.8174 16.7395
41 4 5.01612 11.0601 13.052
42 4 0.995002 13.0208 15.3312
43 4 3.02132 12.9047 11.9244
73 1 -0.646461 9.10616 15.9155
81 1 3.05544 9.33302 16.2248
83 1 1.22152 12.4161 11.3634
116 3 0.914619 8.87616 13.5954
117 3 -3.12995 12.0009 11.9807
118 3 -1.58534 10.3742 13.5946
197 2 -2.52335 12.359 9.3389
148 3 5.05885 9.78008 12.0495
149 3 0.67766 11.6967 14.8263
150 3 1.05664 14.135 14.2501
151 3 3.59671 11.7957 12.9292
152 3 2.94426 14.3426 12.4918
26 4 2.12523 15.3207 13.5373
173 3 6.09938 9.34654 15.2482
169 3 6.20937 8.12734 10.1127
333 1 -1.52947 15.3681 12.2777
198 2 -1.5016 13.8898 10.8722
33 4 2.57431 8.04239 9.2851
233 2 0.548403 10.2436 9.0668
202 2 1.67987 12.6545 9.45095
207 2 1.00195 8.61725 9.66627
182 3 4.1627 12.7502 10.4076
210 2 5.0484 10.4975 14.6591
211 2 2.58521 12.8875 16.0451
212 2 3.5268 11.2269 16.5398
213 2 -0.0575002 13.1706 16.6599
234 2 -0.563603 9.01364 9.94445
237 2 -0.331489 9.80845 16.773
239 2 -1.79355 9.07735 15.8201
335 2 -0.800732 14.5272 12.5209
262 2 3.00158 9.97569 15.2561
266 2 0.906055 12.0936 12.4715
267 2 1.13346 11.5524 10.6461
268 2 0.755356 13.3626 10.9881
320 4 -2.92656 13.164 15.6048
324 2 -1.63658 11.9974 17.1979
323 3 -2.57241 14.4504 14.7545
71 1 -0.327408 10.0588 9.6715
321 1 -1.99327 13.0859 17.118
232 2 -0.497065 10.7532 10.5119
334 2 -3.04663 14.8327 11.5175
199 2 -4.59078 13.4922 10.2122
359 2 2.5077 9.81157 17.0945
9 4 14.7165 7.33155 3.35939
47 4 14.2413 5.10261 8.15117
51 4 11.8756 3.93445 1.33872
52 4 7.42991 7.12005 3.65514
54 4 11.1841 5.36902 6.68192
164 3 7.1801 5.54639 3.16848
362 2 14.497 0.403139 1.76645
76 1 8.78402 3.24453 5.41457
289 2 9.38005 4.99374 8.02983
89 1 10.9354 3.79232 3.02155
90 1 11.2625 2.56004 8.13431
91 1 10.0524 5.98668 7.99088
162 3 11.7872 2.18601 0.655936
163 3 13.0882 4.56479 1.61274
224 2 15.3468 6.34045 7.21111
353 2 14.7114 4.97257 0.975828
166 3 10.5268 4.87665 0.273994
167 3 12.7767 5.22983 7.60122
364 2 15.6234 0.896012 3.30316
246 2 8.6611 3.26098 4.33679
171 3 8.9375 7.51787 4.04993
172 3 11.0387 6.55007 5.65919
176 3 8.77267 6.77776 0.538
214 2 10.619 3.83979 5.95502
168 3 7.29137 6.30686 8.45643
365 2 14.9273 1.26338 3.31617
247 2 9.52218 2.45563 5.78171
248 2 8.85116 4.31286 5.89557
222 2 15.6445 3.82912 2.9443
271 2 15.0459 3.40263 7.71801
165 3 6.42564 7.34145 5.02521
282 2 10.7702 2.6421 3.056
283 2 9.98562 4.37334 3.09331
284 2 11.7056 4.14829 3.7585
285 2 12.0465 2.08666 7.50692
286 2 11.6311 3.5218 8.5928
287 2 10.2973 2.78797 7.50959
290 2 9.53437 6.90575 7.49454
346 2 8.04402 4.16228 0.704789
53 4 9.13783 5.28994 0.090444
242 2 9.78235 0.619159 3.64027
342 2 15.0778 6.39513 1.9375
6 4 16.0849 2.52838 14.7019
45 4 14.1423 1.90286 17.0328
46 4 10.3766 1.4244 9.3603
277 2 12.5781 0.791321 9.56758
49 4 11.0571 1.98894 15.6147
50 4 13.5395 3.03999 10.7367
270 2 15.8795 3.67001 10.0861
55 4 7.44008 7.74941 9.1279
58 4 9.72228 7.6871 11.3019
86 1 11.738 3.30103 14.4317
294 2 9.34393 7.49609 14.9688
88 1 12.0698 3.91514 11.2275
94 1 11.4922 7.17632 10.6121
95 1 8.81624 6.19693 12.3182
153 3 15.0469 2.67756 15.8609
159 3 10.2251 2.91742 16.5661
156 3 15.8629 1.25402 13.7535
350 2 16.1161 4.11657 13.8268
158 3 12.7244 1.42353 16.4377
343 2 14.277 5.49828 9.96958
160 3 17.3426 3.49268 10.8307
161 3 14.1549 1.96084 11.7989
174 3 8.81313 7.91222 10.0301
345 2 17.457 3.09591 11.7762
273 2 11.5396 2.85023 13.4594
274 2 12.8433 3.27997 14.7678
275 2 11.1773 4.25307 14.6946
276 2 11.9501 0.958654 11.3716
279 2 11.5252 2.64054 11.5307
280 2 11.4755 4.50975 10.4819
281 2 12.5534 4.54353 12.111
288 2 10.5537 6.28066 9.04571
109 3 17.3051 3.44433 14.5031
93 1 8.21914 7.39009 15.2658
297 2 11.6687 7.46782 9.49755
298 2 11.6416 6.05364 10.8241
299 2 12.0499 7.91408 11.3486
300 2 9.87279 5.57988 12.1842
87 1 11.761 0.544208 10.3936
302 2 8.63906 6.66733 13.4047
48 4 14.7672 0.809434 12.7768
347 2 10.8359 5.9351 15.9265
296 2 8.04562 7.68664 16.4544
272 2 13.7832 2.45594 8.98501
85 1 14.86 3.88878 9.42205
205 2 8.84445 4.24003 12.3383
301 2 7.93611 5.82068 11.819
44 4 6.51735 13.4019 1.1605
59 4 8.24565 8.28339 1.06997
60 4 5.15899 12.2841 3.84079
178 3 3.63697 12.6244 4.37432
63 4 7.46405 13.4693 5.87196
361 2 8.70742 13.9175 1.77007
84 1 7.76337 14.3071 2.17246
92 1 9.59759 10.6003 5.75798
96 1 9.80193 9.22333 1.6151
97 1 12.3124 11.3746 3.1812
98 1 5.52172 10.2976 3.81136
175 3 7.00237 8.22207 2.45955
177 3 5.44099 12.739 2.33978
363 2 12.2007 10.2609 3.51857
360 2 3.44962 14.504 2.31263
180 3 7.39248 12.3275 0.347971
183 3 8.09075 14.4835 5.14708
184 3 6.32971 12.7127 4.97649
231 2 13.8376 9.0629 7.98698
269 2 7.82864 14.3372 3.39802
219 2 6.96533 14.0301 7.52134
220 2 8.52567 12.1699 6.34762
339 3 5.79601 14.65 0.191007
291 2 8.98777 10.5834 6.69618
292 2 10.3825 11.3829 5.77356
293 2 10.2127 9.37717 5.71958
303 2 9.82694 10.1543 0.783434
304 2 10.5931 8.39914 1.44708
305 2 9.75558 9.52236 2.69136
306 2 11.0832 12.3247 3.83392
194 2 13.047 7.89373 3.53527
308 2 6.00732 10.3166 4.8581
309 2 6.09296 9.60004 3.15732
218 2 5.47987 13.7293 8.36026
355 2 8.92677 10.6934 4.85894
56 4 10.5687 7.88214 4.66566
337 2 3.00209 14.6474 0.421179
215 2 7.5454 8.88193 7.93163
217 2 4.73529 10.0566 2.00283
70 1 14.7295 9.16184 8.62309
336 1 2.78903 14.0493 1.41097
307 2 12.3409 11.4001 2.0541
170 3 11.5629 8.23978 3.74737
57 4 7.50561 9.05493 14.6848
62 4 5.24807 12.2016 9.47046
64 4 9.83398 10.4172 13.0812
65 4 6.35908 13.4496 14.2831
61 4 10.3746 12.0427 16.9087
99 1 6.87931 13.3871 9.33958
100 1 8.93675 11.56 11.9661
101 1 8.06553 12.9563 15.0521
322 1 14.1796 11.5996 14.7443
185 3 8.5847 10.1096 14.4413
186 3 9.98699 9.09794 12.2444
187 3 6.21204 12.2648 12.9391
188 3 6.56019 14.9346 13.5443
189 3 5.23346 13.1564 15.4957
344 2 8.53923 14.7881 11.6296
200 2 13.6627 9.72005 13.011
326 2 14.1052 10.8229 15.6129
221 2 11.3058 11.1075 13.5786
319 2 7.81581 13.1321 16.1386
318 2 8.23132 11.7384 14.7907
278 2 4.48493 14.4095 10.43
201 2 13.0749 12.2076 14.5871
340 3 11.7508 12.1493 17.0508
348 2 9.83976 12.1658 15.2543
312 2 6.89997 12.0359 10.4396
313 2 6.9488 14.2529 9.9788
314 2 7.78387 11.8518 12.3105
315 2 8.99842 10.9909 10.9748
316 2 9.6611 12.4636 11.9739
317 2 8.84873 13.6699 14.6261
230 2 14.8105 9.00653 9.73532
216 2 7.05498 8.35952 13.1752
179 3 9.93715 10.23 17.4175
311 2 7.87434 13.2736 8.83154
ITEM: TIMESTEP
200
ITEM: NUMBER OF ATOMS
365
ITEM: BOX BOUNDS xy xz yz pp pp pp
-7.0039460000000000e+00 1.9899424000000000e+01 -7.0039460000000000e+00
0.0000000000000000e+00 1.5863300000000001e+01 2.1088800000000001e+00
0.0000000000000000e+00 1.7464200000000002e+01 8.7949999999999995e-01
ITEM: ATOMS id type x y z
195 2 0.0528504 5.28982 8.031
2 4 1.75295 2.04658 0.395858
4 4 2.6351 4.19714 5.37137
8 4 -0.339824 4.58534 1.70764
10 4 1.76934 5.05999 8.31208
257 2 5.26685 6.59076 1.40331
21 4 4.73707 2.60464 4.3622
352 2 -0.612081 5.00728 4.31766
25 4 7.10424 2.80365 6.39866
29 4 6.23945 4.52725 2.37943
32 4 6.03129 5.30435 8.06683
34 4 5.1508 7.43477 5.99312
68 1 -0.782637 6.64711 6.81292
243 2 6.68235 0.448746 8.61853
78 1 2.07889 6.11395 3.15337
79 1 5.09428 5.48981 1.26027
102 3 2.36049 1.09192 1.48285
105 3 0.585792 3.43954 1.06562
107 3 2.18383 4.5671 6.88678
1 4 3.48267 0.241981 2.50056
256 2 5.28206 5.0319 0.183604
119 3 4.20561 1.35157 3.37446
120 3 3.49642 2.89426 5.38213
121 3 7.47159 0.456435 1.15393
123 3 6.0955 2.14192 5.3787
129 3 5.1617 3.9721 3.44741
130 3 7.08497 3.24407 1.15689
133 3 6.72039 4.05564 7.24182
223 2 -1.70775 6.25676 0.946788
136 3 5.14909 6.09381 6.99599
191 2 3.40174 5.44599 4.4208
192 2 1.20996 4.09761 4.47342
255 2 4.06872 5.11908 1.77023
204 2 7.50933 1.40557 7.43498
206 2 0.667651 6.02858 1.85957
67 1 -1.96194 5.10206 0.736474
253 2 2.40771 5.08732 2.94946
22 4 7.00531 1.92674 0.164614
225 2 -0.232587 7.11609 7.7767
226 2 -0.0982755 5.84432 6.29019
134 3 2.2355 6.49931 8.7154
66 1 -0.921405 4.24024 3.52915
252 2 0.940412 6.11832 3.51422
241 2 8.34443 1.85923 3.48595
254 2 2.15398 6.82088 2.09957
351 2 -0.633636 3.22248 3.87904
74 1 8.54585 0.784802 3.781
260 2 2.64022 5.51673 0.290376
108 3 -2.12899 7.60816 4.41688
135 3 3.72459 7.61529 5.0273
240 2 7.91373 0.342397 4.60382
3 4 1.1975 2.83449 10.1976
5 4 4.89439 0.876213 13.8763
7 4 3.19241 2.93915 12.3706
12 4 1.13755 4.62298 14.1574
263 2 6.9408 6.91231 12.2444
24 4 5.43559 3.44974 10.5098
13 4 0.986102 7.4474 12.9354
27 4 6.43762 2.93313 15.9349
28 4 8.31788 2.78549 11.6467
259 2 3.67752 6.75919 16.1274
238 2 -0.188818 8.30904 16.2368
69 1 2.1361 4.92175 15.705
77 1 6.94583 4.39706 14.8753
80 1 4.75996 6.79858 16.6502
82 1 5.79026 7.06342 12.467
103 3 2.19066 2.01858 11.1428
104 3 3.61228 1.68499 13.4886
330 1 2.86433 1.86332 16.7103
208 2 2.37294 7.51331 11.9934
110 3 2.06681 3.85639 13.1433
111 3 0.891875 6.10989 13.6846
122 3 4.52939 3.69533 11.7347
124 3 5.80998 1.83504 14.7609
125 3 7.65982 2.65637 17.0066
126 3 4.94881 3.54597 16.8426
127 3 6.91233 3.04552 11.0181
128 3 8.30104 1.74773 12.8505
132 3 5.29869 4.66886 9.47598
354 2 0.338954 5.79345 17.07
265 2 5.44209 7.63081 13.4703
157 3 10.2348 0.949242 14.815
203 2 4.85606 2.1298 9.69421
295 2 7.75195 6.29391 15.0979
227 2 1.89128 6.02438 15.9876
228 2 3.21051 4.68117 15.4285
229 2 1.65913 4.22036 16.4209
332 2 1.75011 2.15144 16.8598
249 2 8.08844 4.57158 15.1322
250 2 6.28189 5.32435 15.077
251 2 6.80378 3.97758 13.8025
258 2 5.58869 6.29562 16.032
193 2 3.21302 1.95269 15.6195
264 2 5.15153 6.14346 12.161
358 2 6.42165 0.97578 12.0192
106 3 1.8325 4.02075 9.41591
196 2 0.115815 7.25746 11.555
137 3 3.34987 7.91028 10.6882
33 4 2.51748 7.91632 9.29957
190 2 0.790637 1.61938 9.09332
11 4 -0.695175 7.98213 5.69073
14 4 -4.80304 12.7044 4.13429
15 4 -1.65 10.1287 7.96634
17 4 -2.5355 12.6879 6.20074
23 4 1.64097 13.8833 8.07873
30 4 2.39959 7.86842 4.08694
36 4 3.19035 9.57262 1.64593
37 4 -0.0976252 12.1024 4.14065
39 4 4.17981 9.8165 7.50575
40 4 2.57605 12.0473 5.6522
233 2 0.795826 9.96836 8.5476
72 1 -2.86192 14.5187 6.6073
75 1 -0.111869 14.5796 7.94628
113 3 -1.11437 9.45125 6.58941
114 3 -4.08896 12.1702 5.43728
115 3 -2.27836 12.0255 7.74302
131 3 0.903861 7.98369 4.95573
138 3 2.42129 9.06015 2.91973
139 3 3.24165 8.2065 0.678326
140 3 0.306275 13.1417 3.03745
141 3 -1.31546 12.5022 5.14155
142 3 2.67291 10.7523 0.704775
143 3 3.06012 9.0661 8.31046
144 3 5.38033 8.80738 6.8229
145 3 1.14721 11.5887 5.09358
146 3 3.47596 10.7294 6.30624
147 3 2.28765 13.2629 6.69365
338 2 2.67081 12.6138 1.19453
327 1 -2.27537 14.4277 1.2075
209 2 -0.667444 10.8344 3.29636
325 2 -3.39045 12.8622 0.315586
310 2 4.39485 9.89988 4.21328
235 2 -2.56177 14.5484 7.71758
236 2 -4.04857 14.6386 6.39419
328 2 -2.94404 14.6224 0.304563
245 2 -0.328936 14.777 6.88622
244 2 -0.655473 13.574 8.3349
349 2 -1.24472 14.8349 1.12805
329 2 -2.32111 13.3796 1.63965
112 3 -4.23181 13.9727 3.2335
20 4 1.19119 14.5351 2.30093
356 2 -2.21123 15.0848 5.85923
178 3 3.52728 12.5561 4.34812
181 3 4.93543 10.9442 8.48262
16 4 -2.98515 12.9795 10.8119
18 4 -0.205063 9.96205 14.3943
19 4 -2.96162 10.8472 13.1997
31 4 4.8542 8.68261 16.6824
35 4 5.09988 8.41236 11.3184
38 4 4.25694 12.6293 16.6044
41 4 5.00069 11.0805 13.0542
42 4 0.879916 13.0703 15.2335
43 4 2.90419 12.9538 12.0367
73 1 -0.697036 9.29235 16.062
81 1 3.0019 9.33992 16.2538
83 1 1.23074 12.4054 11.2825
116 3 0.609025 8.77068 13.6597
117 3 -2.9873 11.9099 11.9852
118 3 -1.5759 10.3095 13.5807
197 2 -2.74926 12.2997 9.21574
148 3 5.05187 9.75359 12.1019
149 3 0.589223 11.7037 14.8282
150 3 0.940638 14.3254 14.2139
151 3 3.48022 11.8155 13.1083
152 3 2.89064 14.572 12.4223
26 4 2.06381 15.3508 13.6082
173 3 6.16039 9.24563 15.3422
169 3 6.14652 8.25139 10.1382
333 1 -1.30889 15.1612 12.2748
198 2 -1.62422 14.0733 10.6275
359 2 2.74809 9.94817 17.1474
261 2 2.3813 8.41308 16.1138
202 2 1.49138 12.738 9.37556
207 2 0.969727 8.54115 9.70551
182 3 4.03202 12.6865 10.5508
210 2 5.20937 10.3901 14.6109
211 2 2.52348 12.9151 15.9928
212 2 3.56677 11.1779 15.9594
213 2 -0.185013 13.5019 16.4959
234 2 -0.385809 9.21121 9.95515
237 2 -0.262202 10.1022 16.7805
239 2 -1.86202 9.22221 16.1006
335 2 -0.804649 14.2713 12.7194
262 2 3.06672 9.93499 15.3221
266 2 0.769981 11.8576 12.1206
267 2 1.44932 11.712 10.3582
268 2 0.660393 13.3978 11.1257
320 4 -2.83721 13.1381 15.572
324 2 -1.66481 11.992 17.2927
323 3 -2.42986 14.4398 14.811
71 1 -0.0916566 10.1163 9.28527
321 1 -1.94897 13.0524 17.1056
232 2 -0.176677 11.0977 9.79627
334 2 -2.9 14.6939 11.549
199 2 -4.58655 13.5552 10.4478
70 1 -2.87851 9.18676 8.8041
341 2 3.69232 14.0972 17.328
331 2 -3.88851 15.7681 17.092
154 3 2.33191 15.1876 8.73823
357 2 -3.57687 13.4629 17.3958
9 4 14.6481 7.21832 3.44734
47 4 14.1718 5.18088 8.22641
51 4 11.8263 3.83049 1.351
52 4 7.43302 7.12441 3.65539
54 4 11.1632 5.45772 6.78779
164 3 7.31792 5.62573 2.9578
362 2 14.4255 0.674874 1.88938
76 1 8.58165 3.52202 5.48974
289 2 9.37808 5.07104 8.37745
89 1 11.0348 3.65268 3.05889
90 1 10.9518 2.59044 8.13809
91 1 9.94833 5.9615 8.12183
162 3 12.033 2.04644 0.652485
163 3 13.1359 4.34219 1.52328
224 2 15.2896 6.28039 7.21832
353 2 14.6917 4.79183 1.06431
166 3 10.5354 5.04162 0.346947
167 3 12.7114 5.15909 7.55526
364 2 15.4925 1.53681 3.09147
246 2 8.49831 3.61398 4.30592
171 3 9.00867 7.50227 4.16921
172 3 11.1587 6.547 5.73581
176 3 8.71019 6.95317 0.477343
214 2 10.3661 3.98937 6.20962
168 3 7.20427 6.38995 8.49554
365 2 14.9514 2.04126 3.17718
247 2 9.35069 2.67233 5.80255
248 2 8.76134 4.54942 5.9885
222 2 15.7513 4.18044 3.16062
271 2 14.9952 3.57763 7.90843
165 3 6.36855 7.25698 4.88382
282 2 10.9083 2.47815 3.09122
283 2 10.0571 4.2173 3.20141
284 2 11.8985 4.01199 3.72989
285 2 11.6416 1.97669 7.42383
242 2 9.66078 0.514188 3.84184
287 2 9.97587 2.90419 7.61988
290 2 9.36797 6.74596 7.51396
346 2 8.08826 4.25664 0.445127
342 2 14.8857 5.8919 2.318
286 2 11.5012 3.41491 8.64336
6 4 16.118 2.45742 14.6038
45 4 14.2013 1.75207 17.0328
46 4 10.1782 1.39505 9.47421
277 2 12.4234 0.849667 9.66292