ITEM: TIMESTEP
0
ITEM: NUMBER OF ATOMS
365
ITEM: BOX BOUNDS xy xz yz pp pp pp
-6.9345999999999997e+00 1.9702400000000001e+01 -6.9345999999999997e+00
0.0000000000000000e+00 1.6021933000000001e+01 2.0880000000000001e+00
0.0000000000000000e+00 1.7464200000000002e+01 8.8829499999999995e-01
ITEM: ATOMS id type x y z
224 2 -1.49089 5.77981 5.35565
2 4 1.30888 2.39225 0.934011
4 4 2.64772 4.04181 5.51669
8 4 -0.880826 4.7838 2.1773
10 4 1.51462 5.18778 8.21092
256 2 3.53379 4.9477 2.51336
21 4 4.75486 2.1867 4.63942
22 4 6.51002 2.2491 0.314073
25 4 6.87135 2.92471 6.68439
29 4 5.86678 4.48186 2.78095
32 4 5.96545 5.65396 8.11765
34 4 5.01081 7.57831 5.85248
68 1 -0.874154 6.35927 6.10847
74 1 7.83514 0.929515 3.85278
78 1 1.34411 6.97301 3.03035
79 1 4.38673 5.67656 2.75448
102 3 2.19148 1.56076 2.00681
105 3 0.125865 3.71344 1.60026
107 3 2.17014 4.60034 6.84979
353 2 -1.18349 7.37324 0.95274
255 2 4.09383 6.46346 3.62873
119 3 4.38177 0.933356 3.64802
120 3 3.39644 2.64969 5.50835
121 3 6.8734 0.985222 1.27102
123 3 6.03482 1.84179 6.0537
129 3 5.29456 3.39822 3.73221
130 3 6.42199 3.7 1.10189
133 3 6.46314 4.27479 7.41887
135 3 3.66711 7.54382 4.86784
136 3 4.9342 6.35987 7.0509
191 2 3.42051 5.16682 4.43469
192 2 1.31895 3.8939 4.48573
257 2 4.6287 6.30202 1.79403
204 2 8.13284 2.11606 7.64118
206 2 -0.117945 5.72712 3.4351
223 2 -0.331298 5.79865 0.226031
67 1 -1.2487 6.25102 0.752699
1 4 3.14258 0.322855 2.69127
225 2 -1.33553 6.52127 7.10017
226 2 0.221194 6.07923 6.13254
242 2 7.32168 0.3874 4.73329
260 2 3.27845 5.98053 1.00215
195 2 -0.118488 5.52591 7.74327
252 2 1.55026 6.10655 3.84569
253 2 1.80324 6.71669 1.91135
254 2 0.291399 7.31782 2.91255
331 2 0.557328 0.0892098 0.52461
330 1 0.233627 1.11705 0.0778353
80 1 2.64402 6.19968 0.0825465
354 2 -2.11826 6.00045 0.14954
240 2 7.40724 1.98905 3.68983
342 2 -2.65193 6.98845 1.90092
134 3 1.97104 6.63697 8.69128
259 2 1.55651 5.90412 0.181722
3 4 1.18373 2.61232 9.97316
5 4 4.29755 1.03559 14.3761
7 4 3.09035 3.05424 12.2606
12 4 1.95988 5.55918 13.8114
345 2 0.489206 4.75196 14.3079
24 4 5.50665 3.53773 10.3007
93 1 7.73024 7.12326 15.4141
27 4 5.7354 3.10868 16.2422
28 4 8.37695 2.48748 11.3078
155 3 9.27708 1.852 10.1007
265 2 4.34852 7.24573 13.0729
69 1 3.17379 5.69479 15.2952
77 1 6.10295 4.28833 14.7197
106 3 1.5757 4.16968 9.35952
82 1 4.92226 6.73959 12.0933
103 3 1.97268 2.30337 11.4541
104 3 3.38586 2.13079 13.6301
358 2 5.63165 1.15145 12.2884
295 2 7.19573 6.0094 15.1483
110 3 2.73507 4.62274 12.8347
111 3 1.66858 7.09424 13.4326
122 3 4.3785 3.34676 11.2826
124 3 5.23453 1.72907 15.504
125 3 7.06248 3.00845 17.0114
126 3 4.43993 3.79167 17.1275
127 3 6.95728 3.04587 10.7584
128 3 8.31439 1.40917 12.4344
132 3 5.39544 5.06722 9.70452
296 2 7.54165 7.56015 16.521
157 3 9.82597 1.53969 14.6996
301 2 8.05987 4.9511 12.3107
203 2 5.10611 2.47436 9.11538
263 2 5.98413 6.3954 12.2505
227 2 3.22397 6.80459 15.5706
228 2 4.22641 5.25051 15.1335
229 2 2.4943 5.08535 16.0034
332 2 2.4272 2.1227 16.4338
249 2 7.24799 4.18648 14.6844
250 2 5.75905 5.33257 14.6886
251 2 5.63805 3.63608 13.8685
258 2 5.18051 6.70595 16.5443
264 2 4.19417 5.96393 11.5079
216 2 6.22527 7.61151 13.3411
137 3 3.6302 8.07209 10.1059
190 2 1.77934 1.26315 9.04606
11 4 -0.755993 8.21551 5.49963
14 4 -4.98003 12.8648 4.15304
15 4 -1.60456 9.99805 8.09489
17 4 -2.53361 12.6464 6.14704
23 4 1.92583 13.52 7.87843
30 4 2.09728 8.34406 4.06907
36 4 3.58751 10.1193 1.98524
37 4 0.0139757 12.4504 3.85313
39 4 3.74424 10.0247 7.12944
40 4 2.95159 12.3483 5.26474
112 3 -4.60274 14.3063 3.40196
72 1 -2.80447 14.3401 6.84185
75 1 0.233066 14.3059 7.52076
113 3 -1.2085 8.99205 6.89758
114 3 -4.05975 12.2255 5.34782
115 3 -2.39893 11.6757 7.49457
131 3 0.841551 8.63898 5.0581
138 3 2.37998 9.50942 2.94597
139 3 3.65767 8.82874 0.886303
140 3 0.00277931 13.5744 2.65921
141 3 -1.16818 12.7227 4.94922
142 3 3.17972 11.4941 1.22799
143 3 2.73125 9.07593 7.83051
144 3 5.20332 9.09714 6.42575
145 3 1.38463 12.4293 4.57302
146 3 3.07169 10.9329 6.02661
147 3 2.82203 13.5 6.56475
181 3 4.47096 11.0813 8.31709
359 2 0.84085 9.70991 0.30364
209 2 -0.20571 10.9426 3.18751
341 2 1.77656 13.3556 0.22309
108 3 -1.93634 8.19519 4.25455
235 2 -2.70132 14.0847 7.96309
236 2 -3.89339 14.4972 6.40137
202 2 1.57457 11.7854 8.34691
245 2 0.274388 14.4783 6.38037
232 2 1.02486 10.2396 8.40723
9 4 -3.02229 8.08473 3.15409
329 2 -3.3551 13.4669 1.13576
327 1 -3.13877 14.5954 1.08476
20 4 0.69602 15.1332 2.22685
349 2 -2.04669 14.8008 1.10519
244 2 -0.545034 13.5877 7.79292
243 2 0.273238 15.2535 8.21575
328 2 -3.73636 15.1082 0.259996
356 2 -2.03043 15.035 6.44283
16 4 -3.96824 12.2957 10.3371
18 4 -0.379731 10.8034 14.2047
19 4 -1.74459 11.5687 11.4667
31 4 4.87342 9.01545 17.1901
324 2 -2.15935 12.8721 16.7394
38 4 4.81047 12.8872 17.2917
41 4 4.8946 11.0243 13.3211
42 4 1.36199 13.324 15.1762
43 4 3.11496 12.9835 12.0548
73 1 -1.52188 10.2206 15.5748
81 1 3.18291 9.85307 16.9526
83 1 1.3247 12.5276 11.6502
116 3 0.741022 9.47435 13.8766
117 3 -2.99039 12.5631 11.5331
118 3 -1.16052 11.1373 12.8316
238 2 -0.820348 9.79949 16.3267
148 3 4.66863 9.72887 12.3285
149 3 0.325679 12.2553 14.9184
150 3 0.910105 14.7054 14.5544
151 3 3.51526 11.7376 13.5767
152 3 3.06129 14.5528 12.8691
33 4 2.40365 8.07175 9.03356
173 3 5.91919 9.22032 15.452
182 3 4.00658 12.544 10.8138
334 2 -1.98565 14.4702 12.6445
169 3 6.36486 8.39747 10.2864
35 4 4.94468 8.23371 10.9923
200 2 -0.469392 12.0978 10.4371
335 2 -0.469825 15.1637 13.5151
201 2 -2.13342 9.9023 10.7065
208 2 3.24467 9.24204 12.6818
210 2 4.9376 10.3736 14.9468
211 2 2.8687 12.724 14.6814
212 2 3.76873 11.7275 16.6149
213 2 1.81199 13.5579 16.7526
13 4 1.64383 8.57344 12.9716
237 2 -2.14674 11.1367 16.0412
26 4 2.04097 15.7284 13.5945
207 2 0.989663 8.91162 9.62479
262 2 2.95402 10.2547 15.9253
266 2 1.17369 11.5236 12.0902
267 2 1.37117 12.6571 10.524
268 2 0.796047 13.3626 12.2005
71 1 0.180213 10.6787 9.14658
261 2 2.58278 8.72481 17.1921
323 3 -3.55629 14.9476 14.991
333 1 -1.43633 15.3844 13.072
197 2 -3.35355 12.0422 8.77254
196 2 1.09847 8.62992 11.4167
70 1 -2.68918 9.16217 9.23237
233 2 0.365013 10.5316 10.2564
154 3 2.53203 14.481 8.94183
234 2 -0.18866 11.755 8.75972
321 1 -3.30001 12.6286 16.9697
339 3 12.3626 0.228982 0.126637
47 4 13.8118 3.76678 5.44417
51 4 11.0919 4.3219 0.828806
52 4 7.4937 6.77958 3.94613
54 4 11.8676 5.63937 7.16771
361 2 14.697 0.987616 0.81858
66 1 15.1665 4.12746 2.68905
76 1 8.6854 2.99562 5.97705
85 1 13.3562 2.02715 5.4092
89 1 10.5316 4.01958 2.57767
90 1 10.8977 1.3696 7.6217
91 1 10.4236 4.54239 8.26183
162 3 11.1772 2.72518 0.182511
163 3 13.0387 5.04211 0.918775
164 3 7.1254 5.20894 3.42358
166 3 10.0525 5.43052 0.183113
165 3 6.31958 7.29749 4.88672
167 3 12.8153 4.68868 6.22997
193 2 16.8116 1.55859 0.501784
222 2 15.4551 2.95468 2.73001
171 3 9.06203 6.7968 4.85602
172 3 12.2984 6.73152 8.22067
241 2 8.98994 0.888881 3.92651
214 2 10.0797 5.72711 6.78993
343 2 14.7766 4.52666 4.00301
246 2 9.10592 1.95175 5.62663
247 2 9.38963 3.61795 6.8028
248 2 8.29896 3.67744 5.07113
270 2 14.7918 2.81901 6.49092
271 2 13.0444 2.10288 4.12843
272 2 12.421 1.66103 6.07254
282 2 11.4543 4.5187 3.10235
283 2 10.4612 2.91209 2.8737
284 2 9.61118 4.63001 2.77073
170 3 11.535 7.51787 4.35823
286 2 11.8256 2.04228 8.08155
287 2 10.1451 1.94076 6.97287
346 2 7.44656 4.88503 0.482094
289 2 10.5879 3.34095 8.0123
351 2 14.2872 4.4529 1.92981
219 2 14.7904 1.08311 5.88562
290 2 9.34338 4.81618 8.12434
168 3 7.23533 6.63778 8.2858
360 2 10.1394 0.24917 2.05006
355 2 12.5458 7.38682 7.42166
56 4 10.2322 7.7854 4.82924
285 2 11.2445 0.360367 7.05222
352 2 13.1781 4.9321 0.00483542
6 4 15.8269 2.51723 14.9285
159 3 9.75356 3.37046 16.7486
46 4 10.2425 0.79363 9.37109
350 2 17.0882 3.59435 15.8143
49 4 10.628 2.55692 15.6064
50 4 15.9321 1.79585 10.8871
277 2 12.2885 1.612 10.2693
55 4 7.57443 7.7782 9.39537
58 4 9.804 6.78574 11.6295
86 1 11.3337 3.68587 14.1846
45 4 13.5969 2.32507 16.7241
88 1 14.5108 2.71505 10.5134
94 1 11.3484 6.03828 10.9461
95 1 8.90927 5.50209 12.8757
153 3 14.3404 2.87552 15.2933
156 3 16.2786 1.11824 14.4987
302 2 8.48526 6.15677 13.7866
288 2 10.8234 4.98688 9.31514
158 3 11.9405 1.6672 16.3341
87 1 11.8782 0.572775 10.4184
160 3 17.2763 2.3592 10.2725
53 4 10.711 6.69316 17.1866
174 3 8.65811 7.18404 10.4223
205 2 9.32873 3.80376 11.9477
273 2 12.4374 3.64154 14.1825
274 2 10.9658 4.69547 14.6169
275 2 10.8799 3.38162 13.2378
176 3 10.3737 8.17158 17.4292
279 2 13.5997 2.5588 11.2829
280 2 14.4835 1.77741 9.36372
281 2 14.7386 3.80041 10.0772
347 2 10.3807 6.22856 15.6057
109 3 16.8367 3.82678 14.7936
294 2 8.81359 7.2032 15.1017
297 2 11.6582 6.30448 9.82923
298 2 10.9777 4.88954 11.085
299 2 12.1247 6.38543 11.7203
300 2 9.82778 4.72466 13.2926
186 3 10.4155 8.13398 12.5264
161 3 15.7631 0.708427 12.0727
44 4 6.32161 14.0836 0.926449
59 4 8.22977 8.57929 1.34345
60 4 5.67845 12.9103 3.86077
310 2 5.96673 10.5282 4.28698
63 4 7.55408 14.3825 6.26061
340 3 9.34749 11.779 0.334714
325 2 11.7537 12.4045 0.458064
92 1 9.88674 9.51442 5.32284
96 1 9.95275 9.25143 1.64511
97 1 11.5203 11.8117 3.59182
98 1 6.61409 11.2287 3.67488
336 1 2.53825 14.6941 1.45785
177 3 5.74669 13.5884 2.32998
363 2 9.35401 13.7846 6.17444
179 3 7.39047 9.98061 1.02754
218 2 5.23441 13.6558 8.468
183 3 8.7449 13.6098 6.97875
184 3 6.66931 13.6267 4.96827
217 2 5.18998 10.312 2.74158
178 3 4.20838 12.6007 4.34146
180 3 6.96235 12.75 0.0830016
220 2 6.58952 14.5357 7.72113
84 1 7.88423 15.1059 1.35024
291 2 10.6299 10.5 4.68235
292 2 10.2238 9.3304 6.52196
293 2 8.76735 9.62718 5.08588
303 2 9.8522 10.398 1.14816
304 2 10.5327 8.54924 0.986181
305 2 10.2018 9.16868 2.72832
306 2 11.7514 11.5326 2.46706
307 2 10.4179 12.3299 3.94253
308 2 7.5639 11.5662 4.29926
309 2 6.88454 10.736 2.52626
175 3 7.759 7.79537 2.70367
311 2 7.55139 13.3558 8.57545
269 2 8.78565 14.4369 1.01439
215 2 8.27507 9.03072 8.49944
337 2 2.61675 15.0734 0.387793
194 2 12.9965 7.91787 3.84381
362 2 7.65092 15.2267 2.46904
338 2 2.81027 13.5784 1.56709
319 2 7.9197 12.0753 16.2449
48 4 8.74846 15.1423 13.4399
64 4 10.1535 9.50255 13.2583
65 4 6.67723 13.099 14.4868
187 3 6.08558 12.1866 13.2274
99 1 6.66407 13.2689 9.22461
100 1 10.1854 10.6939 11.8642
101 1 8.20317 12.0738 15.0901
320 4 13.3789 13.7378 15.7523
185 3 8.35174 9.31666 13.9841
62 4 4.98632 12.0345 9.40343
364 2 11.1969 13.653 15.4021
188 3 7.1978 14.5041 13.9737
199 2 12.6911 10.8777 10.4793
326 2 12.0256 11.7715 15.3535
348 2 10.0009 11.7334 15.8156
365 2 12.2665 12.8432 13.7442
221 2 11.2753 9.86668 14.4783
357 2 14.0053 11.5858 17.0168
344 2 9.82943 13.8581 13.355
278 2 5.5835 14.7374 9.90919
198 2 12.4174 13.4581 10.2736
322 1 12.083 12.8475 14.8797
318 2 8.19525 10.9602 14.6474
312 2 6.60347 11.533 9.98451
313 2 6.77737 13.8682 10.1531
314 2 9.03292 10.9812 11.8603
315 2 10.5964 10.3327 10.8728
316 2 10.8606 11.5323 12.4399
317 2 9.12701 12.7005 14.7684
57 4 7.00945 8.62585 14.5066
189 3 5.74328 13.1918 16.042
276 2 4.56563 15.4217 11.4822
230 2 13.8681 9.63331 8.91202
231 2 15.0782 8.04354 9.03659
61 4 10.1074 12.3709 17.4379
239 2 15.4126 9.42601 15.0885
ITEM: TIMESTEP
100
ITEM: NUMBER OF ATOMS
365
ITEM: BOX BOUNDS xy xz yz pp pp pp
-6.9345999999999997e+00 1.9702400000000001e+01 -6.9345999999999997e+00
0.0000000000000000e+00 1.6021933000000001e+01 2.0880000000000001e+00
0.0000000000000000e+00 1.7464200000000002e+01 8.8829499999999995e-01
ITEM: ATOMS id type x y z
224 2 -1.54948 5.75598 5.46269
2 4 1.24547 2.50094 0.904823
4 4 2.7477 4.06112 5.47169
8 4 -0.907301 4.69889 2.04333
10 4 1.58013 5.2494 8.06393
256 2 3.65623 4.94882 2.68695
21 4 4.76828 2.10047 4.63916
22 4 6.55213 2.29853 0.14178
25 4 6.9617 2.9609 6.49284
29 4 5.99167 4.43535 2.84241
32 4 6.02929 5.6594 8.06246
34 4 5.03117 7.59214 5.97859
68 1 -0.892872 6.35403 6.16678
74 1 7.90662 0.921644 3.8725
78 1 1.40198 6.80536 3.11731
79 1 4.50657 5.67366 2.90309
102 3 2.18526 1.49088 2.19564
105 3 0.168595 3.5897 1.53051
107 3 2.22046 4.66369 6.79309
353 2 -0.726789 7.10821 1.10043
255 2 4.23121 6.47221 3.65666
119 3 4.39504 0.755755 3.71225
120 3 3.16368 2.56739 5.50194
121 3 6.93646 0.927901 1.12031
123 3 5.95758 1.94164 5.8369
129 3 5.34799 3.26198 3.73873
130 3 6.47866 3.77607 1.07936
133 3 6.55088 4.28103 7.2284
135 3 3.57042 7.64979 4.75174
136 3 4.9461 6.48543 7.0945
191 2 3.95137 5.04448 4.69338
192 2 1.43851 3.96811 4.37293
257 2 4.9083 6.21403 1.88127
204 2 8.08665 2.03641 7.42697
206 2 -0.138211 5.57081 3.33789
241 2 8.92204 0.709018 4.23508
67 1 -1.31734 6.20476 0.829639
1 4 3.1924 0.306676 2.73529
225 2 -1.3699 6.48071 7.22717
226 2 0.278703 6.02089 5.99996
242 2 7.06478 0.513216 4.54192
260 2 3.39032 6.17216 1.25487
195 2 -0.0601617 5.40881 7.69263
252 2 1.43542 5.95159 3.87638
253 2 1.9257 6.61954 2.01368
254 2 0.380364 7.22959 2.9689
331 2 0.291384 0.323004 1.00618
330 1 0.222777 1.13424 0.164068
80 1 2.79566 6.36447 0.2046
354 2 -2.43535 6.32397 0.604197
240 2 7.74159 1.9544 3.51374
342 2 -2.70941 7.26516 1.71676
134 3 2.06445 6.58284 8.64173
259 2 1.67353 6.31298 0.333104
190 2 1.41158 1.80445 8.65939
3 4 1.11998 2.79118 10.0124
5 4 4.28695 1.02889 14.3683
7 4 3.17489 3.05642 12.1795
12 4 1.94239 5.55811 13.9785
345 2 0.370066 4.91869 14.356
24 4 5.62855 3.52941 10.2485
93 1 7.73218 6.92653 15.6377
27 4 5.74374 3.27738 16.2546
28 4 8.3247 2.55113 11.361
155 3 9.27148 1.91952 10.1169
265 2 4.84629 6.86087 13.2717
69 1 3.0742 5.7527 15.4396
77 1 5.96715 4.4279 14.7198
106 3 1.42118 4.1884 9.37937
82 1 5.05996 6.87488 12.1635
103 3 2.10838 2.41304 11.2797
104 3 3.37591 2.04873 13.5238
358 2 5.73351 1.2316 12.3252
295 2 7.25607 5.88089 15.3678
110 3 2.60496 4.53739 12.9304
111 3 1.82567 7.101 13.5372
122 3 4.62904 3.22958 11.3592
124 3 5.126 1.92014 15.4107
125 3 7.09757 2.95931 16.9967
126 3 4.55776 3.99182 17.2884
127 3 7.10374 3.28889 10.7603
128 3 8.08186 1.4711 12.4676
132 3 5.48355 5.09017 9.69424
296 2 7.48689 7.32607 16.6845
157 3 9.83765 1.40053 14.5536
301 2 8.09798 5.01107 12.348
203 2 5.32119 2.52953 8.99338
263 2 6.11857 6.40107 11.9107
227 2 3.2098 6.856 15.6689
228 2 4.14931 5.17995 15.1767
229 2 2.38215 5.23909 16.2303
332 2 2.87286 1.73972 16.7121
249 2 7.04607 4.12662 14.4613
250 2 5.76811 5.58417 14.7038
251 2 5.22212 3.88373 13.9993
258 2 5.32479 6.63965 16.8922
264 2 4.27849 6.19559 11.5322
216 2 6.47114 7.74141 13.2256
223 2 1.31459 6.5701 17.4247
159 3 9.63781 3.2987 16.4514
11 4 -0.864343 8.109 5.50604
14 4 -5.0239 12.7502 4.0755
15 4 -1.61771 9.95625 8.11032
17 4 -2.55518 12.5538 6.1572
23 4 1.86278 13.4436 7.91499
30 4 2.21508 8.23363 4.08882
36 4 3.60586 10.0802 1.92151
37 4 0.0361176 12.5515 3.8717
39 4 3.9115 10.0248 7.2289
40 4 2.83813 12.3822 5.26166
112 3 -4.72191 14.2085 3.53859
72 1 -2.80488 14.3271 6.74403
75 1 0.164001 14.1779 7.44723
113 3 -1.28736 9.00557 6.83064
114 3 -4.00294 12.1692 5.25732
115 3 -2.3859 11.6339 7.35877
131 3 0.787812 8.42086 4.89065
138 3 2.5362 9.50743 2.99833
139 3 3.83515 8.85301 0.773123
140 3 -0.128338 13.6841 2.63902
141 3 -1.14684 12.6607 4.9792
142 3 3.33133 11.4152 1.0656
143 3 2.63829 9.03052 7.72998
144 3 5.15165 9.09047 6.72071
145 3 1.48765 12.5186 4.40829
146 3 3.23843 10.8395 5.86266
147 3 2.63893 13.4077 6.51609
181 3 4.35487 11.1376 8.37468
359 2 1.10882 9.77504 0.401267
209 2 -0.186802 11.0905 3.1616
338 2 2.78698 13.5687 1.63831
108 3 -2.1276 8.2004 4.21489
235 2 -2.84123 14.1756 7.8895
236 2 -3.85255 14.5257 6.22427
202 2 1.58447 11.8259 8.44226
245 2 0.178094 14.0745 6.35869
232 2 1.07505 10.0069 8.38475
9 4 -3.13752 8.2775 3.09819
329 2 -3.11445 13.4176 1.38109
327 1 -3.03151 14.5425 1.22256
20 4 0.577563 15.0317 2.21537
349 2 -1.92168 15.0164 1.25603
244 2 -0.540311 13.4665 8.00653
243 2 0.102245 15.2361 7.77387
328 2 -3.67413 14.9499 0.382321
356 2 -1.8742 14.9047 6.32374
197 2 -3.26692 11.9314 8.7077
234 2 -0.164399 11.6543 8.51891
16 4 -3.96554 12.3248 10.2326
18 4 -0.288444 10.873 14.5844
19 4 -1.78481 11.4327 11.5771
31 4 5.06806 9.13922 17.1064
324 2 -2.13026 12.8409 16.9772
38 4 4.81992 12.9183 17.2368
41 4 4.85364 11.0132 13.3893
42 4 1.26379 13.3503 15.2618
43 4 3.13303 13.1474 11.9962
73 1 -1.78745 10.2695 15.4241
81 1 3.3436 9.98574 16.9659
83 1 1.35317 12.8325 11.4165
116 3 0.868331 9.53763 13.9995
117 3 -2.92947 12.4873 11.3259
118 3 -1.02586 11.3743 12.9761
238 2 -1.30954 9.45096 16.1491
148 3 4.72739 9.81306 12.3465
149 3 0.427965 12.0527 15.3385
150 3 0.861242 14.6443 14.5313
151 3 3.49674 11.8714 13.501
152 3 3.08869 14.6136 12.635
33 4 2.42976 8.09721 9.03457
173 3 6.01639 9.0142 15.4304
182 3 3.95266 12.682 10.7754
334 2 -2.01835 14.6914 12.4158
169 3 6.26628 8.30589 10.2127
35 4 4.89426 8.35277 10.999
200 2 -0.692162 11.7899 10.2896
335 2 -0.519848 15.1321 13.6
201 2 -1.92393 9.78448 10.8446
208 2 3.2806 9.31508 12.7381
210 2 5.03692 10.1743 14.8103
211 2 2.77755 12.7384 14.6484
212 2 3.42812 11.9829 16.8952
213 2 1.73928 13.8253 16.7846
13 4 1.75477 8.57428 13.0556
237 2 -2.29367 11.2123 16.0463
26 4 1.9229 15.6739 13.491
207 2 0.964188 8.80371 9.60022
262 2 3.04599 10.4505 16.0011
266 2 1.06885 12.1029 12.3445
267 2 1.3898 12.2837 10.4062
268 2 0.955026 13.8992 11.4504
71 1 0.203898 10.5203 9.03664
261 2 2.72466 8.93195 17.1277
323 3 -3.37845 14.9321 14.9956
333 1 -1.48378 15.4647 12.983
137 3 3.52673 8.26213 10.1479
196 2 1.27655 8.74061 11.4808
70 1 -2.73256 9.23685 9.29949
233 2 0.552546 10.6343 10.1232
154 3 2.62015 14.5959 9.04217
321 1 -3.2291 12.7384 17.0375
198 2 -4.77051 13.7465 9.84097
341 2 4.03916 14.4336 17.4107
339 3 12.3501 0.14789 0.103395
47 4 13.7553 3.684 5.38152
51 4 11.1253 4.18258 0.863867
52 4 7.51241 6.78432 4.09852
54 4 11.8681 5.51524 7.23204
361 2 14.576 1.11973 1.15282
66 1 15.0371 4.1116 2.65758
76 1 8.80245 2.98052 5.87912
85 1 13.4537 1.98981 5.62324
89 1 10.4305 3.83068 2.56666
90 1 10.9502 1.60777 7.83242
91 1 10.2171 4.69377 8.17406
162 3 11.248 2.65548 0.159645
163 3 12.9095 5.12557 1.05529
164 3 7.1909 5.16727 3.53017
166 3 10.0149 5.08702 0.17997
165 3 6.33952 7.32193 5.02636
167 3 12.8051 4.5984 6.2713
193 2 16.8074 1.57109 0.0360461
222 2 15.1774 2.97802 2.60183
171 3 8.97204 6.72289 4.8618
172 3 12.2782 6.7944 8.14146
285 2 11.2233 0.620873 7.39419
214 2 10.2044 5.58129 6.52884
343 2 15.0854 4.64271 4.14327
246 2 9.47908 2.1608 5.55413
247 2 9.31449 3.6538 6.71457
248 2 8.38291 3.70741 4.89946
270 2 15.0151 2.6937 6.2976
271 2 12.9061 2.1222 4.48729
272 2 12.7442 1.80228 6.43531
282 2 10.8711 4.7756 3.08903
283 2 10.785 2.89005 3.0641
284 2 9.28555 3.81596 2.5703
170 3 11.3429 7.53808 3.88755
286 2 11.8476 2.24148 8.13871
287 2 10.0877 2.10945 7.17321
346 2 7.37715 4.99466 0.589425
289 2 10.4462 3.52848 8.05723
351 2 14.1665 4.5846 1.99442
219 2 14.8861 0.810077 5.68491
290 2 9.12635 4.82664 8.06589
168 3 7.22551 6.63618 8.49829
56 4 10.2766 7.76734 4.74971
355 2 12.4001 7.40056 7.32577
176 3 8.43925 7.31958 0.0961236
360 2 9.74669 0.130911 2.54334
352 2 13.0746 4.98415 0.0966631
6 4 15.8367 2.59676 14.8354
87 1 11.8023 0.581666 10.4797
46 4 10.2549 0.812783 9.43862
350 2 17.0931 3.60069 15.8054
49 4 10.5904 2.45891 15.4296
50 4 15.8282 1.79059 10.7435
277 2 12.2187 1.60333 10.1492
55 4 7.58578 7.79566 9.52612
58 4 9.82191 6.7611 11.6766
86 1 11.2566 3.78931 14.259
45 4 13.566 2.18248 16.7297
88 1 14.4145 2.77329 10.3077
94 1 11.3719 6.01035 10.8937
95 1 8.85142 5.51378 12.9791
153 3 14.4388 2.67105 15.4581
156 3 16.4704 1.16356 14.7747
302 2 8.35302 6.11253 13.8563
288 2 10.6195 5.22067 9.23729
158 3 12.0722 1.61754 16.3817
161 3 15.709 0.90633 12.0686
160 3 17.1762 2.45503 10.207
53 4 10.8114 6.72209 17.3062
174 3 8.66068 7.34213 10.5907
205 2 9.29319 3.86954 11.9636
273 2 12.421 3.76395 14.4651
274 2 10.756 4.71405 14.6729
275 2 10.9986 3.61589 13.1766
186 3 10.3784 7.8949 12.7505
279 2 13.7585 2.74945 11.3244
280 2 14.222 1.67655 9.4528
281 2 14.8176 3.89365 9.86331
347 2 10.6456 6.3501 15.7436
109 3 16.8246 3.92243 14.8154
294 2 8.82363 7.00459 15.3646
297 2 11.7494 6.34861 9.8135
298 2 10.9207 4.88197 10.9042
299 2 12.1707 6.08202 11.721
300 2 9.71984 4.7916 13.3911
44 4 6.37358 14.2172 0.893231
59 4 8.08251 8.46348 1.31365
60 4 5.6751 12.9648 3.81103
310 2 5.9752 10.6494 4.2641
63 4 7.36451 14.3749 6.29183
340 3 9.24653 11.723 0.266199
194 2 12.8623 7.84445 3.62639
92 1 9.92904 9.53605 5.12225
96 1 9.79656 9.19449 1.60908
97 1 11.4747 11.7864 3.34921
98 1 6.61747 11.271 3.54992
336 1 2.42345 14.6185 1.58791
177 3 5.80857 13.8331 2.39702
363 2 8.83863 13.1657 6.23397
179 3 7.3034 9.9003 1.04882
218 2 4.85727 13.7976 8.42057
183 3 8.54789 13.6268 7.05994
184 3 6.53678 13.6301 5.06401
217 2 5.03965 10.2849 2.81224
178 3 4.2362 12.689 4.36086
180 3 6.8802 12.8667 0.0672963
220 2 6.19343 14.5901 7.69896
84 1 7.97666 15.1869 1.28096
291 2 10.5083 10.3622 4.50556
292 2 10.1897 9.48761 6.30407
293 2 8.77504 9.49954 5.00329
303 2 9.76135 10.2335 1.07403
304 2 10.4722 8.42702 1.10219
305 2 10.0529 9.35846 2.72254
306 2 12.0273 11.4161 2.30556
307 2 10.4184 12.1395 3.40777
308 2 7.5952 11.6433 4.02621
309 2 6.89127 10.7295 2.56151
175 3 7.62387 7.74974 2.71896
311 2 7.30263 13.2456 8.43886
269 2 8.81657 14.9622 0.630778
337 2 2.71623 15.1196 0.530068
362 2 8.16098 14.7848 2.35166
215 2 8.27211 9.05867 8.70686
325 2 11.6328 12.5534 0.474812
61 4 7.90484 11.4445 0.0283362
319 2 7.83862 12.0625 16.2817
48 4 8.89043 15.2875 13.4328
64 4 10.0679 9.33131 13.3823
65 4 6.71623 12.9755 14.4765
187 3 6.12789 11.974 13.2094
99 1 6.44492 13.3178 9.14245
100 1 10.0674 10.6427 12.0315
101 1 8.21063 12.0543 15.1574
320 4 13.4772 13.6407 15.6949
185 3 8.36777 9.33119 14.1353
62 4 4.75603 12.2022 9.41071
364 2 11.2556 13.6333 15.2834
188 3 7.48795 14.6088 13.8852
199 2 12.4675 11.1684 10.5497
326 2 12.0665 11.7678 15.0055
348 2 10.0394 11.758 15.836
365 2 12.3341 13.0695 13.5927
221 2 11.2468 9.69637 14.4975
357 2 14.0737 11.6083 17.092
344 2 10.0509 14.1324 13.3166
278 2 5.4336 14.8121 9.90354
239 2 15.1457 9.782 14.6841
322 1 12.1824 12.8772 14.7414
318 2 8.37605 10.9515 14.7294
312 2 6.49526 11.7522 10.0245
313 2 6.67019 13.9313 10.0658
314 2 9.05009 11.1219 11.967
315 2 10.3509 10.009 11.1275
316 2 10.9712 11.2709 12.4948
317 2 9.01394 12.815 14.9562
57 4 7.19437 8.43356 14.591
189 3 5.69055 12.9779 15.8627
276 2 4.81762 15.571 11.6204
230 2 13.8754 9.73143 9.22675
231 2 14.9125 8.11783 9.13155
ITEM: TIMESTEP
200
ITEM: NUMBER OF ATOMS
365
ITEM: BOX BOUNDS xy xz yz pp pp pp
-6.9345999999999997e+00 1.9702400000000001e+01 -6.9345999999999997e+00
0.0000000000000000e+00 1.6021933000000001e+01 2.0880000000000001e+00
0.0000000000000000e+00 1.7464200000000002e+01 8.8829499999999995e-01
ITEM: ATOMS id type x y z
224 2 -1.70219 5.82515 5.17159
2 4 1.42772 2.41266 0.96391
4 4 2.71058 4.09412 5.39713
8 4 -0.892518 4.7707 1.99685
10 4 1.59019 5.29556 7.973
256 2 3.74031 4.9117 2.64887
21 4 4.71902 2.11572 4.71847
22 4 6.52529 2.35316 0.120286
25 4 7.06155 2.9666 6.43283
29 4 5.98351 4.42749 2.84723
32 4 6.06166 5.55587 8.04054
34 4 5.003 7.58896 6.01672
68 1 -1.00938 6.32814 5.94631
74 1 7.85807 0.905673 3.82464
78 1 1.52521 6.96581 2.88441
79 1 4.55652 5.71731 2.83813
102 3 2.10024 1.59488 2.18258
105 3 0.0869356 3.65725 1.54996
107 3 2.1825 4.69097 6.69123
353 2 -1.20296 7.20512 0.797412
255 2 4.2194 6.54016 3.62405
119 3 4.33225 0.754331 3.89921
120 3 3.37185 2.65916 5.50794
121 3 6.83524 1.0466 1.08719
123 3 6.06406 1.88935 5.88355
129 3 5.2292 3.26851 3.68875
130 3 6.54491 3.70489 1.13865
133 3 6.62129 4.24017 7.17366
135 3 3.5339 7.54735 4.9589
136 3 5.03493 6.47952 7.18606
191 2 3.74533 5.14051 4.55292
192 2 1.5783 4.1346 4.15014
257 2 4.96354 6.212 1.79654
204 2 8.25928 2.06299 7.33653
206 2 -0.0531978 5.81496 3.15543
259 2 1.90926 5.65052 0.149008
67 1 -1.3418 6.09141 0.694825
1 4 2.96689 0.298966 2.82283
225 2 -1.39406 6.26011 7.01273
226 2 0.213306 6.13833 5.86904
190 2 1.68193 1.66383 8.67933
260 2 3.45856 5.95847 1.06681
195 2 0.0121632 5.66694 7.52157
252 2 1.66735 6.08222 3.67235
253 2 2.03742 6.73282 1.84875
254 2 0.415935 7.3606 2.73535
331 2 0.603644 0.298338 0.551472
349 2 4.94704 0.136546 1.31713
80 1 2.8938 6.14782 0.134399
354 2 -2.39812 5.88929 0.334082
240 2 7.15592 1.7724 3.57607
342 2 -2.60168 6.97504 1.93573
134 3 2.06522 6.72129 8.53866
3 4 1.17644 2.7402 9.78955
5 4 4.27185 1.11986 14.2366
7 4 3.11444 3.21039 12.174
12 4 1.92274 5.47666 13.9765
345 2 0.410445 4.72762 14.4317
24 4 5.60742 3.56013 10.2677
330 1 2.45256 2.14426 17.4246
27 4 5.69109 3.2427 16.2942
28 4 8.27393 2.58051 11.4493
155 3 9.18098 1.99395 10.2353
265 2 4.76543 7.53463 13.1555
69 1 2.96183 5.49742 15.4946
77 1 6.01244 4.5088 14.851
106 3 1.44252 4.27264 9.16981
82 1 5.02019 6.88031 12.1897
103 3 2.12736 2.55558 11.107
104 3 3.30096 2.00037 13.3154
358 2 5.64637 1.13134 12.3139
295 2 7.22579 6.0348 15.5094
110 3 2.63761 4.58183 12.9314
111 3 1.81446 7.16769 13.5997
122 3 4.61406 3.48806 11.5242
124 3 5.12965 1.87217 15.4754
125 3 7.10659 3.11865 16.9512
126 3 4.49307 3.8101 17.3212
127 3 7.08612 3.48822 10.8927
128 3 7.87102 1.49522 12.5304
132 3 5.34755 4.94068 9.32465
296 2 7.7653 7.33978 16.6807
157 3 9.85585 1.47933 14.4188
301 2 8.28976 4.65366 12.7167
203 2 5.30639 2.16546 9.39844
263 2 5.93636 6.23521 12.3601
227 2 2.8618 6.6976 15.6772
228 2 4.09767 5.11026 15.2691
229 2 2.41251 4.80601 16.2461
332 2 2.82743 2.12883 16.3639
249 2 7.14931 4.45282 14.8571
250 2 5.72086 5.60756 14.8263
251 2 5.60945 3.96235 13.8924
258 2 5.58454 6.62776 16.7613
264 2 4.02081 6.30968 11.8234
216 2 6.62655 7.74323 13.0022
223 2 1.54859 6.43259 17.3859
93 1 7.82028 7.00239 15.6393
11 4 -0.919406 8.15432 5.55443
14 4 -5.05273 12.7214 3.97267
15 4 -1.47432 10.0041 8.11081
17 4 -2.50826 12.5048 5.93547
23 4 1.90053 13.554 7.9195
30 4 2.09282 8.31354 4.07256
36 4 3.56768 10.0949 1.87411
37 4 -0.000731582 12.4384 3.79996
39 4 3.80732 10.0896 7.1172
40 4 2.8079 12.2891 5.20764
112 3 -4.76339 14.1355 3.33025
72 1 -2.82168 14.2683 6.54874
75 1 0.137058 14.1724 7.55
113 3 -1.20903 9.04134 6.87869
114 3 -3.99461 12.0981 5.07804
115 3 -2.3057 11.639 7.38379
131 3 0.772149 8.50084 4.95993
138 3 2.65992 9.49144 3.06778
139 3 3.95158 8.78714 0.834451
140 3 -0.0491807 13.5606 2.62088
141 3 -1.21691 12.5637 4.92049
142 3 3.12669 11.2874 1.03976
143 3 2.82989 9.13255 7.87029
144 3 5.17419 9.12991 6.54344
145 3 1.45805 12.2549 4.4698
146 3 3.13107 10.794 5.89204
147 3 2.76161 13.3132 6.48722
181 3 4.29787 11.2883 8.31873
359 2 1.35011 9.60247 0.459573
209 2 -0.296016 11.0174 3.02884
338 2 2.84031 13.4696 1.55418
108 3 -2.03995 8.30419 4.26711
235 2 -2.57959 14.05 7.66406
236 2 -3.87938 14.6636 6.35358
197 2 -3.13215 12.2556 8.61524
245 2 -0.0381856 14.3544 6.47425
232 2 0.839452 10.1514 7.93098
9 4 -3.06043 8.14396 3.12674
329 2 -2.83196 13.6606 1.45663
327 1 -2.99642 14.7534 1.34385
20 4 0.754509 15.0712 2.21088
356 2 -2.03198 14.8031 5.96154
244 2 -0.379307 13.1416 7.87358
243 2 -0.139865 14.9738 8.21617
328 2 -3.54481 15.0205 0.381207
242 2 0.65814 15.349 4.66692
341 2 1.74448 13.3478 0.141777
16 4 -3.92284 12.4277 10.1723
18 4 -0.299767 10.9556 14.5165
19 4 -1.78858 11.4748 11.6565
31 4 5.15637 8.94433 17.1464
324 2 -2.19759 12.8211 17.3535
38 4 4.76318 12.8219 17.1187
41 4 4.81378 11.1789 13.3014
42 4 1.4285 13.3083 15.3583
43 4 2.93027 13.0776 11.9739
73 1 -1.76968 10.3365 15.4788
81 1 3.42365 9.75482 17.0219
83 1 1.05863 12.8458 11.5807
116 3 0.875866 9.75489 14.2468
117 3 -2.97114 12.5494 11.4131
118 3 -1.09904 11.1803 13.0225
238 2 -1.37158 9.58606 16.1744
148 3 4.61943 9.90483 12.266
149 3 0.440162 12.1808 15.6005
150 3 1.07158 14.263 14.221
151 3 3.40982 11.9167 13.5387
152 3 2.97026 14.6795 12.4934
33 4 2.41466 8.17707 9.05313
173 3 5.86332 8.95295 15.37
182 3 3.88299 12.6269 10.7763
334 2 -2.13322 14.5979 12.5203
169 3 6.28841 8.39678 10.1781
35 4 4.85644 8.34599 11.0274
200 2 -0.584806 11.5794 10.4305
335 2 -0.565916 14.9139 13.5211
201 2 -2.22575 9.9979 10.7749
208 2 3.13806 9.39699 12.7878
210 2 5.10479 10.3684 14.7559
211 2 2.96733 12.6843 14.9433
212 2 3.62236 11.6913 16.5922
213 2 1.59207 14.042 16.8822
13 4 1.64597 8.7145 13.1955
237 2 -2.28445 11.2556 16.0729
26 4 2.03608 15.5834 13.3679
207 2 0.909307 8.82054 9.59356
262 2 3.20668 10.1537 15.9365
266 2 0.582669 12.8199 12.5872
267 2 1.02138 11.8838 10.9825
268 2 0.7874 13.7715 10.9171
71 1 0.415892 10.6375 8.99399
261 2 2.78025 8.75828 17.2397
323 3 -3.38461 14.7999 15.0767
333 1 -1.56589 15.3845 12.9993
137 3 3.44872 8.26381 10.2263
196 2 0.810039 8.84755 11.7747
70 1 -2.61203 9.20777 9.29303
233 2 1.21344 10.572 9.77128
154 3 2.5348 14.7069 8.83155
321 1 -3.32558 12.6113 17.1365
202 2 1.67134 12.0917 8.87541
198 2 -4.78769 13.855 9.99684
234 2 0.0985574 11.7284 8.85197
339 3 12.3462 0.117267 0.00655831
47 4 13.7944 3.57599 5.46664
51 4 11.2282 4.10597 0.994594
52 4 7.44927 6.72006 4.13238
54 4 11.7364 5.62635 7.14995
361 2 14.6921 1.19582 0.78324
66 1 15.1787 3.98108 2.58363
76 1 8.89596 3.09564 5.79611
85 1 13.3464 1.94216 5.66667
89 1 10.6496 3.72218 2.78817
90 1 10.9914 1.69535 7.87088
91 1 10.2313 4.83229 8.2133
162 3 11.4259 2.64131 0.226128
163 3 12.813 4.8929 1.37458
164 3 7.18167 5.12558 3.59133
166 3 9.86384 5.14275 0.38918
165 3 6.21696 7.22628 5.03222
167 3 12.7859 4.60772 6.29712
84 1 14.9394 0.139353 1.08154
222 2 15.3832 2.92776 2.3248
171 3 9.00358 6.77943 4.91498
172 3 12.2806 6.76543 8.24007
285 2 11.4469 0.79255 7.41184
214 2 10.0995 5.79576 6.5268
343 2 15.2069 4.27543 4.17165
246 2 9.62982 2.40517 5.28196
247 2 9.41308 3.73 6.70222
248 2 8.3848 3.9108 4.89457
270 2 14.9135 2.61422 6.4596
271 2 12.9624 1.87374 4.31063
272 2 12.4698 2.05821 6.46919
282 2 11.2608 4.2527 3.55156
283 2 10.8149 2.60005 2.86576
284 2 9.57207 4.02198 2.91959
170 3 11.3199 7.65815 3.685
286 2 11.7827 2.45826 8.21944
287 2 10.1187 2.12627 7.12185
346 2 7.15835 4.93137 0.301559
289 2 10.4067 3.60201 8.12865
351 2 14.2642 4.38586 2.07995
219 2 14.786 0.89115 6.02773
290 2 9.13862 5.08832 8.04588
168 3 7.42468 6.69424 8.45026
56 4 10.2825 7.77399 4.61344
355 2 12.2517 7.53387 7.52029