ITEM: TIMESTEP
0
ITEM: NUMBER OF ATOMS
365
ITEM: BOX BOUNDS xy xz yz pp pp pp
-6.9345999999999997e+00 1.9702400000000001e+01 -6.9345999999999997e+00
0.0000000000000000e+00 1.5863300000000001e+01 2.0880000000000001e+00
0.0000000000000000e+00 1.7638842000000000e+01 8.7949999999999995e-01
ITEM: ATOMS id type x y z
224 2 -1.49089 5.72258 5.4092
2 4 1.30888 2.36856 0.943352
4 4 2.64772 4.00179 5.57185
8 4 -0.880826 4.73643 2.19907
10 4 1.51462 5.13642 8.29303
256 2 3.53379 4.89871 2.5385
21 4 4.75486 2.16505 4.68581
22 4 6.51002 2.22683 0.317214
25 4 6.87135 2.89575 6.75124
29 4 5.86678 4.43749 2.80876
32 4 5.96545 5.59798 8.19883
34 4 5.01081 7.50327 5.911
68 1 -0.874154 6.2963 6.16956
74 1 7.83514 0.920312 3.89131
78 1 1.34411 6.90397 3.06066
79 1 4.38673 5.62036 2.78203
102 3 2.19148 1.54531 2.02688
105 3 0.125865 3.67667 1.61626
107 3 2.17014 4.55479 6.91828
353 2 -1.18349 7.30024 0.962268
255 2 4.09383 6.39947 3.66502
119 3 4.38177 0.924115 3.6845
120 3 3.39644 2.62345 5.56344
121 3 6.8734 0.975467 1.28374
123 3 6.03482 1.82355 6.11423
129 3 5.29456 3.36457 3.76954
130 3 6.42199 3.66336 1.11291
133 3 6.46314 4.23246 7.49306
135 3 3.66711 7.46913 4.91652
136 3 4.9342 6.2969 7.12141
191 2 3.42051 5.11566 4.47904
192 2 1.31895 3.85535 4.53059
257 2 4.6287 6.23963 1.81197
204 2 8.13284 2.0951 7.71759
206 2 -0.117945 5.67041 3.46945
223 2 -0.331298 5.74124 0.228291
67 1 -1.2487 6.18913 0.760226
1 4 3.14258 0.319659 2.71819
225 2 -1.33553 6.4567 7.17117
226 2 0.221194 6.01904 6.19387
242 2 7.32168 0.383564 4.78062
260 2 3.27845 5.92132 1.01217
195 2 -0.118488 5.47119 7.82071
252 2 1.55026 6.04609 3.88415
253 2 1.80324 6.65019 1.93046
254 2 0.291399 7.24537 2.94167
331 2 0.557328 0.0883266 0.529856
330 1 0.233627 1.10599 0.0786136
80 1 2.64402 6.1383 0.083372
354 2 -2.11826 5.94104 0.151035
240 2 7.40724 1.96936 3.72673
342 2 -2.65193 6.91926 1.91993
134 3 1.97104 6.57126 8.77819
259 2 1.55651 5.84566 0.183539
3 4 1.18373 2.58646 10.0729
5 4 4.29755 1.02534 14.5199
7 4 3.09035 3.024 12.3832
12 4 1.95988 5.50414 13.9496
345 2 0.489206 4.70491 14.451
24 4 5.50665 3.5027 10.4037
93 1 7.73024 7.05273 15.5682
27 4 5.7354 3.0779 16.4046
28 4 8.37695 2.46285 11.4209
155 3 9.27708 1.83366 10.2017
265 2 4.34852 7.17399 13.2036
69 1 3.17379 5.6384 15.4481
77 1 6.10295 4.24587 14.8669
106 3 1.5757 4.12839 9.45312
82 1 4.92226 6.67286 12.2143
103 3 1.97268 2.28056 11.5686
104 3 3.38586 2.10969 13.7664
358 2 5.63165 1.14005 12.4113
295 2 7.19573 5.9499 15.2998
110 3 2.73507 4.57697 12.9631
111 3 1.66858 7.024 13.5669
122 3 4.3785 3.31363 11.3954
124 3 5.23453 1.71195 15.6591
125 3 7.06248 2.97866 17.1815
126 3 4.43993 3.75413 17.2988
127 3 6.95728 3.01571 10.866
128 3 8.31439 1.39522 12.5587
132 3 5.39544 5.01705 9.80156
296 2 7.54165 7.4853 16.6862
157 3 9.82597 1.52444 14.8466
301 2 8.05987 4.90208 12.4338
203 2 5.10611 2.44986 9.20653
263 2 5.98413 6.33208 12.373
227 2 3.22397 6.73722 15.7263
228 2 4.22641 5.19853 15.2848
229 2 2.4943 5.035 16.1635
332 2 2.4272 2.10169 16.5982
249 2 7.24799 4.14503 14.8313
250 2 5.75905 5.27977 14.8355
251 2 5.63805 3.60008 14.0072
258 2 5.18051 6.63955 16.7097
264 2 4.19417 5.90488 11.623
216 2 6.22527 7.53614 13.4746
137 3 3.6302 7.99216 10.207
190 2 1.77934 1.25065 9.13652
11 4 -0.755993 8.13417 5.55463
14 4 -4.98003 12.7374 4.19457
15 4 -1.60456 9.89906 8.17584
17 4 -2.53361 12.5212 6.20851
23 4 1.92583 13.3861 7.95721
30 4 2.09728 8.26145 4.10976
36 4 3.58751 10.0191 2.0051
37 4 0.0139757 12.3272 3.89166
39 4 3.74424 9.92546 7.20073
40 4 2.95159 12.2261 5.31739
112 3 -4.60274 14.1646 3.43598
72 1 -2.80447 14.1982 6.91026
75 1 0.233066 14.1643 7.59597
113 3 -1.2085 8.90302 6.96656
114 3 -4.05975 12.1045 5.4013
115 3 -2.39893 11.5601 7.56951
131 3 0.841551 8.55344 5.10868
138 3 2.37998 9.41527 2.97543
139 3 3.65767 8.74132 0.895166
140 3 0.00277931 13.44 2.6858
141 3 -1.16818 12.5967 4.99871
142 3 3.17972 11.3803 1.24027
143 3 2.73125 8.98607 7.90882
144 3 5.20332 9.00707 6.49001
145 3 1.38463 12.3062 4.61875
146 3 3.07169 10.8247 6.08687
147 3 2.82203 13.3664 6.6304
181 3 4.47096 10.9716 8.40026
359 2 0.84085 9.61377 0.306676
209 2 -0.20571 10.8343 3.21939
341 2 1.77656 13.2234 0.225321
108 3 -1.93634 8.11405 4.29709
235 2 -2.70132 13.9452 8.04272
236 2 -3.89339 14.3537 6.46538
202 2 1.57457 11.6688 8.43038
245 2 0.274388 14.3349 6.44417
232 2 1.02486 10.1382 8.49131
9 4 -3.02229 8.00469 3.18563
329 2 -3.3551 13.3336 1.14711
327 1 -3.13877 14.4508 1.0956
20 4 0.69602 14.9834 2.24912
349 2 -2.04669 14.6542 1.11624
244 2 -0.545034 13.4532 7.87085
243 2 0.273238 15.1025 8.29791
328 2 -3.73636 14.9586 0.262596
356 2 -2.03043 14.8861 6.50726
16 4 -3.96824 12.174 10.4404
18 4 -0.379731 10.6965 14.3468
19 4 -1.74459 11.4542 11.5814
31 4 4.87342 8.92619 17.362
324 2 -2.15935 12.7446 16.9068
38 4 4.81047 12.7596 17.4646
41 4 4.8946 10.9151 13.4543
42 4 1.36199 13.192 15.3279
43 4 3.11496 12.855 12.1754
73 1 -1.52188 10.1194 15.7305
81 1 3.18291 9.75551 17.1222
83 1 1.3247 12.4036 11.7667
116 3 0.741022 9.38055 14.0153
117 3 -2.99039 12.4387 11.6484
118 3 -1.16052 11.027 12.96
238 2 -0.820348 9.70246 16.4899
148 3 4.66863 9.63255 12.4518
149 3 0.325679 12.134 15.0676
150 3 0.910105 14.5598 14.6999
151 3 3.51526 11.6214 13.7125
152 3 3.06129 14.4088 12.9978
33 4 2.40365 7.99183 9.1239
173 3 5.91919 9.12903 15.6065
182 3 4.00658 12.4199 10.922
334 2 -1.98565 14.3269 12.771
169 3 6.36486 8.31433 10.3892
35 4 4.94468 8.15219 11.1022
200 2 -0.469392 11.978 10.5414
335 2 -0.469825 15.0136 13.6502
201 2 -2.13342 9.80426 10.8136
208 2 3.24467 9.15054 12.8086
210 2 4.9376 10.2709 15.0962
211 2 2.8687 12.598 14.8282
212 2 3.76873 11.6114 16.7811
213 2 1.81199 13.4237 16.9201
13 4 1.64383 8.48856 13.1013
237 2 -2.14674 11.0264 16.2016
26 4 2.04097 15.5727 13.7305
207 2 0.989663 8.82339 9.72104
262 2 2.95402 10.1532 16.0845
266 2 1.17369 11.4095 12.2111
267 2 1.37117 12.5318 10.6292
268 2 0.796047 13.2303 12.3225
71 1 0.180213 10.573 9.23805
261 2 2.58278 8.63842 17.364
323 3 -3.55629 14.7996 15.1409
333 1 -1.43633 15.2321 13.2027
197 2 -3.35355 11.923 8.86027
196 2 1.09847 8.54448 11.5308
70 1 -2.68918 9.07145 9.32469
233 2 0.365013 10.4273 10.359
154 3 2.53203 14.3376 9.03125
234 2 -0.18866 11.6386 8.84732
321 1 -3.30001 12.5036 17.1394
339 3 12.3626 0.226715 0.127904
47 4 13.8118 3.72948 5.49861
51 4 11.0919 4.27911 0.837094
52 4 7.4937 6.71246 3.98559
54 4 11.8676 5.58353 7.23939
361 2 14.697 0.977837 0.826766
66 1 15.1665 4.08659 2.71594
76 1 8.6854 2.96596 6.03682
85 1 13.3562 2.00708 5.46329
89 1 10.5316 3.97978 2.60344
90 1 10.8977 1.35604 7.69792
91 1 10.4236 4.49742 8.34445
162 3 11.1772 2.6982 0.184336
163 3 13.0387 4.99219 0.927962
164 3 7.1254 5.15737 3.45782
166 3 10.0525 5.37675 0.184944
165 3 6.31958 7.22523 4.93558
167 3 12.8153 4.64226 6.29227
193 2 16.8116 1.54315 0.506801
222 2 15.4551 2.92543 2.75731
171 3 9.06203 6.72951 4.90458
172 3 12.2984 6.66487 8.30287
241 2 8.98994 0.88008 3.96578
214 2 10.0797 5.67041 6.85782
343 2 14.7766 4.48185 4.04304
246 2 9.10592 1.93242 5.6829
247 2 9.38963 3.58213 6.87083
248 2 8.29896 3.64103 5.12185
270 2 14.7918 2.7911 6.55582
271 2 13.0444 2.08205 4.16971
272 2 12.421 1.64459 6.13327
282 2 11.4543 4.47396 3.13337
283 2 10.4612 2.88326 2.90243
284 2 9.61118 4.58417 2.79844
170 3 11.535 7.44343 4.40181
286 2 11.8256 2.02206 8.16237
287 2 10.1451 1.92155 7.0426
346 2 7.44656 4.83666 0.486915
289 2 10.5879 3.30787 8.09242
351 2 14.2872 4.40881 1.94911
219 2 14.7904 1.07239 5.94447
290 2 9.34338 4.76849 8.20559
168 3 7.23533 6.57206 8.36866
360 2 10.1394 0.246703 2.07056
355 2 12.5458 7.31368 7.49588
56 4 10.2322 7.70831 4.87753
285 2 11.2445 0.356799 7.12274
352 2 13.1781 4.88327 0.00488378
6 4 15.8269 2.4923 15.0778
159 3 9.75356 3.33709 16.9161
46 4 10.2425 0.785773 9.4648
350 2 17.0882 3.55877 15.9724
49 4 10.628 2.5316 15.7625
50 4 15.9321 1.77807 10.9959
277 2 12.2885 1.59604 10.372
55 4 7.57443 7.70119 9.48932
58 4 9.804 6.71855 11.7458
86 1 11.3337 3.64937 14.3264
45 4 13.5969 2.30205 16.8913
88 1 14.5108 2.68817 10.6185
94 1 11.3484 5.97849 11.0556
95 1 8.90927 5.44761 13.0044
153 3 14.3404 2.84705 15.4462
156 3 16.2786 1.10717 14.6436
302 2 8.48526 6.09582 13.9244
288 2 10.8234 4.9375 9.4083
158 3 11.9405 1.65069 16.4974
87 1 11.8782 0.567104 10.5226
160 3 17.2763 2.33584 10.3753
53 4 10.711 6.62689 17.3585
174 3 8.65811 7.11291 10.5265
205 2 9.32873 3.76609 12.0672
273 2 12.4374 3.60548 14.3244
274 2 10.9658 4.64898 14.7631
275 2 10.8799 3.34814 13.3702
176 3 10.3737 8.09067 17.6035
279 2 13.5997 2.53346 11.3958
280 2 14.4835 1.75981 9.45736
281 2 14.7386 3.76278 10.178
347 2 10.3807 6.1669 15.7617
109 3 16.8367 3.78889 14.9415
294 2 8.81359 7.13189 15.2527
297 2 11.6582 6.24206 9.92753
298 2 10.9777 4.84113 11.1959
299 2 12.1247 6.32221 11.8375
300 2 9.82778 4.67789 13.4255
186 3 10.4155 8.05344 12.6516
161 3 15.7631 0.701413 12.1934
44 4 6.32161 13.9442 0.935713
59 4 8.22977 8.49434 1.35689
60 4 5.67845 12.7825 3.89938
310 2 5.96673 10.424 4.32985
63 4 7.55408 14.2401 6.32322
340 3 9.34749 11.6624 0.338061
325 2 11.7537 12.2817 0.462645
92 1 9.88674 9.42022 5.37607
96 1 9.95275 9.15983 1.66156
97 1 11.5203 11.6947 3.62774
98 1 6.61409 11.1175 3.71162
336 1 2.53825 14.5486 1.47243
177 3 5.74669 13.4539 2.35328
363 2 9.35401 13.6482 6.23618
179 3 7.39047 9.88179 1.03782
218 2 5.23441 13.5206 8.55268
183 3 8.7449 13.4751 7.04854
184 3 6.66931 13.4918 5.01795
217 2 5.18998 10.2099 2.76899
178 3 4.20838 12.4759 4.38487
180 3 6.96235 12.6237 0.0838316
220 2 6.58952 14.3918 7.79834
84 1 7.88423 14.9564 1.36374
291 2 10.6299 10.396 4.72917
292 2 10.2238 9.23802 6.58718
293 2 8.76735 9.53186 5.13673
303 2 9.8522 10.295 1.15965
304 2 10.5327 8.4646 0.996043
305 2 10.2018 9.0779 2.7556
306 2 11.7514 11.4184 2.49173
307 2 10.4179 12.2078 3.98195
308 2 7.5639 11.4517 4.34226
309 2 6.88454 10.6297 2.55153
175 3 7.759 7.71819 2.73071
311 2 7.55139 13.2236 8.6612
269 2 8.78565 14.294 1.02453
215 2 8.27507 8.9413 8.58443
337 2 2.61675 14.9242 0.391671
194 2 12.9965 7.83947 3.88225
362 2 7.65092 15.0759 2.49373
338 2 2.81027 13.444 1.58276
319 2 7.9197 11.9557 16.4073
48 4 8.74846 14.9923 13.5743
64 4 10.1535 9.40846 13.3909
65 4 6.67723 12.9693 14.6317
187 3 6.08558 12.0659 13.3596
99 1 6.66407 13.1375 9.31685
100 1 10.1854 10.5881 11.9828
101 1 8.20317 11.9543 15.241
320 4 13.3789 13.6018 15.9098
185 3 8.35174 9.22441 14.124
62 4 4.98632 11.9153 9.49747
364 2 11.1969 13.5178 15.5561
188 3 7.1978 14.3605 14.1134
199 2 12.6911 10.77 10.5841
326 2 12.0256 11.6549 15.507
348 2 10.0009 11.6172 15.9737
365 2 12.2665 12.716 13.8817
221 2 11.2753 9.76899 14.6231
357 2 14.0053 11.4711 17.1869
344 2 9.82943 13.7209 13.4886
278 2 5.5835 14.5915 10.0083
198 2 12.4174 13.3249 10.3763
322 1 12.083 12.7203 15.0285
318 2 8.19525 10.8517 14.7939
312 2 6.60347 11.4188 10.0844
313 2 6.77737 13.7309 10.2547
314 2 9.03292 10.8725 11.9789
315 2 10.5964 10.2304 10.9815
316 2 10.8606 11.4182 12.5643
317 2 9.12701 12.5747 14.9161
57 4 7.00945 8.54045 14.6517
189 3 5.74328 13.0612 16.2024
276 2 4.56563 15.269 11.597
230 2 13.8681 9.53793 9.00114
231 2 15.0782 7.9639 9.12696
61 4 10.1074 12.2484 17.6123
239 2 15.4126 9.33269 15.2394
ITEM: TIMESTEP
100
ITEM: NUMBER OF ATOMS
365
ITEM: BOX BOUNDS xy xz yz pp pp pp
-6.9345999999999997e+00 1.9702400000000001e+01 -6.9345999999999997e+00
0.0000000000000000e+00 1.5863300000000001e+01 2.0880000000000001e+00
0.0000000000000000e+00 1.7638842000000000e+01 8.7949999999999995e-01
ITEM: ATOMS id type x y z
224 2 -1.54576 5.66665 5.51209
2 4 1.25078 2.47338 0.902787
4 4 2.74279 4.01079 5.53249
8 4 -0.908101 4.64705 2.06968
10 4 1.5812 5.18417 8.13986
256 2 3.65279 4.922 2.70825
21 4 4.77505 2.06512 4.68091
22 4 6.5393 2.27732 0.136587
25 4 6.95866 2.91297 6.55788
29 4 5.97377 4.3909 2.86832
32 4 6.02585 5.60269 8.15411
34 4 5.03227 7.52361 6.03854
68 1 -0.876817 6.27557 6.21834
74 1 7.90684 0.931536 3.8619
78 1 1.39638 6.74665 3.14873
79 1 4.50299 5.60912 2.93957
102 3 2.19556 1.49391 2.19771
105 3 0.167284 3.54964 1.53987
107 3 2.225 4.61122 6.85678
353 2 -0.73494 7.09323 1.07523
255 2 4.23159 6.39296 3.71964
119 3 4.40619 0.735035 3.74032
120 3 3.16392 2.53184 5.54627
121 3 6.92381 0.903922 1.12539
123 3 5.96919 1.90973 5.87119
129 3 5.34598 3.21919 3.77585
130 3 6.45668 3.73444 1.09171
133 3 6.55823 4.21541 7.31978
135 3 3.57355 7.57502 4.81263
136 3 4.95675 6.41466 7.1541
191 2 3.92773 5.00302 4.74891
192 2 1.41206 3.89846 4.46205
257 2 4.89406 6.18805 1.94364
204 2 8.08331 1.96251 7.47461
206 2 -0.166032 5.512 3.34921
241 2 8.9378 0.746684 4.20934
67 1 -1.33191 6.18571 0.84324
1 4 3.19334 0.303115 2.7638
225 2 -1.36765 6.42454 7.27739
226 2 0.284828 5.96591 6.05377
242 2 7.10039 0.542434 4.58402
260 2 3.37776 6.08414 1.26382
195 2 -0.0624735 5.36272 7.77666
252 2 1.4148 5.88114 3.90536
253 2 1.91766 6.55179 2.05635
254 2 0.371433 7.17834 2.98516
331 2 0.323578 0.291 0.989244
330 1 0.231697 1.09511 0.181596
80 1 2.79398 6.30596 0.221331
354 2 -2.44864 6.311 0.63331
240 2 7.72879 1.97635 3.51392
342 2 -2.7266 7.21644 1.75015
134 3 2.06631 6.50832 8.728
259 2 1.6449 6.19643 0.328054
190 2 1.37753 1.7125 8.79808
3 4 1.11449 2.74492 10.1157
5 4 4.2876 1.00642 14.513
7 4 3.18248 3.02595 12.2931
12 4 1.94835 5.51717 14.1051
345 2 0.372782 4.90241 14.511
24 4 5.6332 3.49047 10.3459
93 1 7.75694 6.84195 15.7727
27 4 5.75063 3.23715 16.4281
28 4 8.32955 2.5328 11.471
155 3 9.26421 1.89408 10.2114
265 2 4.7807 6.76804 13.3422
69 1 3.08982 5.70576 15.5971
77 1 5.96591 4.3672 14.8819
106 3 1.42934 4.10575 9.42751
82 1 5.06023 6.80038 12.2756
103 3 2.11226 2.38413 11.4014
104 3 3.39204 2.02184 13.6418
358 2 5.72295 1.21585 12.4784
295 2 7.29752 5.88607 15.5103
110 3 2.62032 4.50753 13.0416
111 3 1.83449 7.02624 13.6664
122 3 4.6256 3.19685 11.4624
124 3 5.11985 1.89729 15.5788
125 3 7.09737 2.92054 17.1614
126 3 4.56877 3.96729 17.4549
127 3 7.10444 3.27925 10.8862
128 3 8.09439 1.46883 12.5925
132 3 5.46953 5.03873 9.75236
296 2 7.51537 7.22845 16.8234
157 3 9.83335 1.39552 14.6958
301 2 8.08135 4.93235 12.4955
203 2 5.32913 2.43219 9.1373
263 2 6.13465 6.31127 12.0757
227 2 3.25342 6.81119 15.8297
228 2 4.1239 5.1657 15.3383
229 2 2.42131 5.19543 16.3662
332 2 2.88493 1.71239 16.8928
249 2 7.04988 4.03964 14.6
250 2 5.79603 5.52462 14.9727
251 2 5.2053 3.87507 14.1408
258 2 5.3619 6.57872 17.0726
264 2 4.29832 6.10125 11.5848
216 2 6.48772 7.65092 13.3504
159 3 9.63245 3.27532 16.6201
223 2 1.28279 6.51308 17.6247
11 4 -0.858173 8.02235 5.55853
14 4 -5.0181 12.6273 4.11902
15 4 -1.62513 9.85622 8.18409
17 4 -2.56264 12.4363 6.21084
23 4 1.86132 13.3056 7.97375
30 4 2.21532 8.15649 4.12281
36 4 3.5946 9.98552 1.91891
37 4 0.0338487 12.4217 3.92962
39 4 3.90999 9.9344 7.30235
40 4 2.83502 12.2714 5.31099
112 3 -4.69716 14.0721 3.56929
72 1 -2.81131 14.2073 6.79027
75 1 0.161086 14.0401 7.52652
113 3 -1.27674 8.92082 6.91295
114 3 -4.00166 12.0401 5.31295
115 3 -2.39065 11.5261 7.42698
131 3 0.788665 8.3364 4.91935
138 3 2.55116 9.42078 3.02898
139 3 3.81519 8.76202 0.796341
140 3 -0.121477 13.5283 2.68471
141 3 -1.1556 12.54 5.03959
142 3 3.32537 11.3122 1.05545
143 3 2.63816 8.95788 7.83418
144 3 5.15102 9.00651 6.78746
145 3 1.48545 12.4098 4.46616
146 3 3.22717 10.736 5.93609
147 3 2.63655 13.3095 6.56579
181 3 4.35521 11.0288 8.47417
359 2 1.23375 9.66575 0.476574
209 2 -0.179579 10.9458 3.26067
338 2 2.77629 13.451 1.6904
108 3 -2.12767 8.11593 4.26671
235 2 -2.86335 14.15 7.90616
236 2 -3.8371 14.4058 6.26078
202 2 1.54539 11.7375 8.58412
245 2 0.184452 13.986 6.42694
232 2 1.06737 9.93075 8.4913
9 4 -3.13971 8.20615 3.15065
329 2 -3.10062 13.2604 1.40041
327 1 -3.02 14.3672 1.24074
20 4 0.571347 14.8914 2.23804
349 2 -1.91916 14.8599 1.29056
244 2 -0.535978 13.2903 8.05155
243 2 0.0867156 15.0919 7.88428
356 2 -1.85976 14.7234 6.33173
328 2 -3.68557 14.809 0.426768
197 2 -3.24322 11.8539 8.76928
234 2 -0.175901 11.5499 8.66765
16 4 -3.95358 12.2038 10.3294
18 4 -0.298283 10.763 14.7027
19 4 -1.77764 11.3112 11.6896
31 4 5.0761 9.01907 17.2888
324 2 -2.14114 12.7101 17.133
38 4 4.83515 12.8023 17.3973
41 4 4.85704 10.8904 13.5221
42 4 1.26379 13.2154 15.3915
43 4 3.13838 13.0143 12.1109
73 1 -1.80028 10.1523 15.5445
81 1 3.30919 9.86829 17.1552
83 1 1.36659 12.7121 11.5074
116 3 0.862873 9.45833 14.1146
117 3 -2.92061 12.3556 11.4364
118 3 -1.04074 11.2762 13.0963
238 2 -1.28874 9.33487 16.248
148 3 4.73234 9.71896 12.4686
149 3 0.417309 11.9302 15.4852
150 3 0.868484 14.5085 14.6704
151 3 3.49316 11.7365 13.6118
152 3 3.0879 14.4755 12.7513
33 4 2.43793 8.01699 9.13406
173 3 6.03196 8.91868 15.5952
182 3 3.97682 12.5528 10.877
334 2 -2.01523 14.5143 12.5774
169 3 6.26546 8.2306 10.3218
35 4 4.89647 8.26418 11.11
200 2 -0.683872 11.7148 10.4253
335 2 -0.503629 14.9773 13.7293
201 2 -1.89914 9.66011 10.9763
208 2 3.25843 9.22996 12.817
210 2 4.99159 10.0008 14.9116
211 2 2.77786 12.5849 14.7605
212 2 3.42355 11.8489 17.1254
213 2 1.76528 13.6835 16.9087
13 4 1.75233 8.49463 13.1821
237 2 -2.30406 11.0791 16.18
26 4 1.93133 15.528 13.6178
207 2 0.976927 8.71364 9.72927
262 2 3.04633 10.3743 16.1856
266 2 1.07867 11.9405 12.3677
267 2 1.45037 12.2137 10.4744
268 2 0.93065 13.7727 11.5622
71 1 0.181833 10.4167 9.15989
261 2 2.76053 8.84664 17.2873
323 3 -3.38639 14.7871 15.1489
333 1 -1.47976 15.3 13.1341
321 1 -3.2348 12.5961 17.1902
196 2 1.20341 8.6344 11.6201
70 1 -2.7267 9.12783 9.38027
233 2 0.522039 10.4886 10.2602
154 3 2.63999 14.4419 9.13692
137 3 3.53125 8.189 10.2535
198 2 -4.7778 13.6142 9.96581
341 2 4.08429 14.328 17.6
339 3 12.3494 0.138386 0.110186
47 4 13.7346 3.66538 5.45802
51 4 11.1292 4.15153 0.877695
52 4 7.51212 6.71048 4.14091
54 4 11.8619 5.48258 7.32579
361 2 14.5593 1.14649 1.14493
66 1 15.0511 4.04539 2.67186
76 1 8.80135 2.9366 5.9459
85 1 13.4266 1.97022 5.71531
89 1 10.4239 3.78095 2.57742
90 1 10.9726 1.56878 7.89624
91 1 10.2031 4.64913 8.25687
162 3 11.2435 2.62635 0.153025
163 3 12.9168 5.09989 1.0659
164 3 7.18463 5.10282 3.55706
166 3 10.0352 5.05347 0.197537
165 3 6.3415 7.24779 5.07584
167 3 12.7836 4.56781 6.35259
193 2 16.8106 1.5083 0.0505102
222 2 15.244 2.89812 2.5587
171 3 8.97423 6.63418 4.89739
172 3 12.2981 6.74748 8.23326
285 2 11.3303 0.661748 7.38581
214 2 10.1954 5.55966 6.6669
343 2 15.0356 4.58261 4.04417
246 2 9.47137 2.11659 5.61351
247 2 9.32317 3.59483 6.78479
248 2 8.37609 3.68319 4.97949
270 2 14.9869 2.70585 6.40063
271 2 12.8883 2.09393 4.64045
272 2 12.6389 1.86879 6.57174
282 2 10.8605 4.73997 3.11761
283 2 10.7852 2.835 3.05998
284 2 9.28206 3.75856 2.5706
170 3 11.3375 7.47028 3.92309
286 2 11.8142 2.25478 8.23909
287 2 10.0661 2.05933 7.2339
346 2 7.37838 4.92967 0.604664
289 2 10.442 3.49104 8.13721
351 2 14.2203 4.51705 1.95704
219 2 14.8907 0.831306 5.77668
290 2 9.10391 4.76741 8.22177
168 3 7.23076 6.59065 8.59165
176 3 8.42125 7.27556 0.114673
355 2 12.4108 7.36716 7.39985
56 4 10.2769 7.68668 4.79597
360 2 9.78359 0.19712 2.56317
352 2 13.0885 4.92737 0.105337
84 1 14.9047 0.0741011 1.28837
6 4 15.8345 2.56496 14.9968
87 1 11.7947 0.600774 10.5556
46 4 10.2649 0.812971 9.53307
350 2 17.1049 3.55656 15.9357
49 4 10.5802 2.43368 15.5957
50 4 15.815 1.78163 10.8582
277 2 12.2387 1.62824 10.2232
55 4 7.58327 7.73174 9.63599
58 4 9.81618 6.6864 11.7826
86 1 11.2553 3.77223 14.4305
45 4 13.5625 2.14862 16.8985
88 1 14.4701 2.71829 10.435
94 1 11.3694 5.94031 10.9917
95 1 8.84944 5.447 13.0946
153 3 14.4364 2.6412 15.6237
156 3 16.4799 1.15353 14.912
302 2 8.36572 6.03337 13.9822
288 2 10.6249 5.17294 9.3103
158 3 12.0556 1.57956 16.5488
161 3 15.7187 0.922546 12.1992
160 3 17.1654 2.42862 10.3252
53 4 10.8092 6.64525 17.485
174 3 8.64853 7.26948 10.7017
205 2 9.34544 3.83426 12.0483
273 2 12.4091 3.74253 14.6674
274 2 10.7463 4.70139 14.7991
275 2 11.0288 3.57377 13.3536
186 3 10.39 7.81614 12.8628
279 2 13.7613 2.68724 11.4475
280 2 14.1016 1.59506 9.51032
281 2 14.8095 3.84229 9.9306
347 2 10.615 6.26274 15.9117
109 3 16.7965 3.91725 14.979
294 2 8.8566 6.89661 15.5381
297 2 11.7374 6.27339 9.93976
298 2 10.9232 4.83857 10.994
299 2 12.1434 6.02174 11.8416
300 2 9.71348 4.73855 13.4979
44 4 6.3784 14.0784 0.905611
59 4 8.09163 8.38323 1.34128
60 4 5.67764 12.8391 3.85202
310 2 5.93414 10.5118 4.27175
63 4 7.35702 14.2109 6.34789
340 3 9.25179 11.621 0.2526
362 2 8.16445 14.6693 2.37947
92 1 9.93731 9.44443 5.20332
96 1 9.79257 9.10559 1.62444
97 1 11.491 11.6568 3.39051
98 1 6.60845 11.1438 3.58585
336 1 2.44513 14.5016 1.607
177 3 5.80635 13.701 2.45183
363 2 8.7749 12.9796 6.30254
179 3 7.31657 9.80529 1.06623
218 2 4.85593 13.6668 8.52317
183 3 8.54631 13.4684 7.11971
184 3 6.53763 13.488 5.11134
217 2 5.07672 10.1694 2.75059
178 3 4.24085 12.583 4.40854
180 3 6.86044 12.7592 0.0882822
220 2 6.19207 14.4395 7.74569
61 4 7.90968 11.3306 0.0235493
291 2 10.5082 10.2617 4.57433
292 2 10.1996 9.3951 6.3665
293 2 8.76894 9.4014 5.08485
303 2 9.77182 10.1521 1.08835
304 2 10.466 8.33774 1.13341
305 2 10.0645 9.24722 2.72495
306 2 12.0484 11.2568 2.37115
307 2 10.4425 12.0145 3.42936
308 2 7.58585 11.4918 4.0784
309 2 6.88943 10.6307 2.60267
175 3 7.62928 7.66903 2.7608
311 2 7.30394 13.1183 8.52109
269 2 8.80396 14.7936 0.62032
194 2 12.8601 7.78032 3.6951
325 2 11.6155 12.4149 0.45213
337 2 2.72715 14.9999 0.540979
319 2 7.82093 11.9468 16.4531
48 4 8.8846 15.134 13.551
64 4 10.0776 9.24598 13.5006
65 4 6.71218 12.8508 14.6343
187 3 6.13278 11.8509 13.4004
99 1 6.44392 13.1972 9.22229
100 1 10.0539 10.5699 12.1686
101 1 8.20946 11.961 15.3338
320 4 13.4729 13.4959 15.8505
185 3 8.37245 9.23665 14.2532
62 4 4.74571 12.0848 9.51368
364 2 11.2251 13.4846 15.4419
188 3 7.46443 14.4853 14.0222
199 2 12.4886 11.0392 10.6249
326 2 12.0759 11.6215 15.1815
348 2 10.032 11.6482 16.0196
365 2 12.3136 12.8989 13.763
221 2 11.2706 9.60108 14.6214
357 2 14.0867 11.4521 17.2555
344 2 10.0186 13.9603 13.4421
278 2 5.41432 14.6848 9.94301
239 2 15.1271 9.66054 14.8195
322 1 12.176 12.7282 14.9005
318 2 8.39543 10.8582 14.8814
312 2 6.51242 11.6552 10.1255
313 2 6.67696 13.8277 10.1207
314 2 9.02979 11.0339 12.0967
315 2 10.3535 9.91613 11.264
316 2 10.9562 11.2106 12.6397
317 2 9.00195 12.6949 15.1479
57 4 7.18095 8.34601 14.7402
189 3 5.69369 12.8718 16.0262
276 2 4.82717 15.4243 11.6816
230 2 13.8813 9.58951 9.28478
231 2 14.9688 8.00185 9.20907
215 2 8.26982 9.01247 8.84807
ITEM: TIMESTEP
200
ITEM: NUMBER OF ATOMS
365
ITEM: BOX BOUNDS xy xz yz pp pp pp
-6.9345999999999997e+00 1.9702400000000001e+01 -6.9345999999999997e+00
0.0000000000000000e+00 1.5863300000000001e+01 2.0880000000000001e+00
0.0000000000000000e+00 1.7638842000000000e+01 8.7949999999999995e-01
ITEM: ATOMS id type x y z
224 2 -1.62497 5.73262 5.18824
2 4 1.45339 2.3795 0.965649
4 4 2.71099 4.01998 5.43966
8 4 -0.886467 4.7274 2.00177
10 4 1.62552 5.20566 8.03581
256 2 3.65721 4.85329 2.62748
21 4 4.72695 2.07739 4.75388
22 4 6.49664 2.30502 0.121635
25 4 7.0755 2.89279 6.48565
29 4 5.95788 4.39959 2.86601
32 4 6.06318 5.49461 8.1116
34 4 4.99797 7.51596 6.07885
68 1 -0.969677 6.23282 5.98926
74 1 7.87096 0.963625 3.79159
78 1 1.55747 6.90259 2.92779
79 1 4.5192 5.65446 2.8323
102 3 2.13443 1.56922 2.2067
105 3 0.0875028 3.6156 1.51518
107 3 2.21507 4.61784 6.74105
353 2 -1.16594 7.2083 0.876309
255 2 4.26134 6.42149 3.71757
119 3 4.33676 0.712008 3.92694
120 3 3.35091 2.59887 5.56213
121 3 6.8283 0.995631 1.08451
123 3 6.06722 1.84068 5.90815
129 3 5.20451 3.23096 3.71641
130 3 6.51113 3.65914 1.16923
133 3 6.64748 4.17107 7.23692
135 3 3.53447 7.48715 5.01431
136 3 5.04004 6.40925 7.25762
191 2 3.68799 5.0698 4.54503
192 2 1.51255 4.05679 4.25659
257 2 4.96624 6.1295 1.78012
204 2 8.26044 1.99264 7.39162
206 2 -0.0388592 5.76832 3.14159
259 2 1.86997 5.70337 0.10417
67 1 -1.34339 6.09171 0.720494
1 4 2.99805 0.276976 2.82992
225 2 -1.35773 6.14201 7.03744
226 2 0.234846 6.0515 5.94457
242 2 7.6926 0.311724 4.66868
260 2 3.39396 5.91861 1.13521
195 2 0.0545854 5.63183 7.60182
252 2 1.63996 6.02763 3.70532
253 2 2.08143 6.61303 1.89457
254 2 0.445969 7.32186 2.73978
331 2 0.682436 0.225111 0.570233
349 2 4.97314 0.121846 1.30034
80 1 2.90202 6.0569 0.167773
354 2 -2.40707 5.91891 0.354667
240 2 7.10061 1.78722 3.57504
342 2 -2.57372 6.94268 2.01699
134 3 2.11885 6.59382 8.65121
3 4 1.17876 2.65834 9.90754
5 4 4.25944 1.09291 14.3747
7 4 3.12844 3.19417 12.2855
12 4 1.93649 5.43877 14.1015
345 2 0.397671 4.73656 14.554
24 4 5.63232 3.53262 10.3609
216 2 6.67237 7.56659 13.2069
27 4 5.67521 3.20833 16.4395
28 4 8.28537 2.56731 11.5514
155 3 9.12566 1.98649 10.2849
265 2 4.71039 7.3876 13.2668
69 1 3.01568 5.49914 15.6154
77 1 6.04732 4.45709 15.0438
106 3 1.43097 4.14353 9.15324
82 1 5.03018 6.78884 12.2945
103 3 2.09476 2.5608 11.2314
104 3 3.33264 1.99276 13.4312
358 2 5.64582 1.06616 12.4532
295 2 7.27137 5.92309 15.6196
110 3 2.65547 4.54397 13.0645
111 3 1.81623 7.02687 13.7034
122 3 4.60973 3.47266 11.5906
124 3 5.09787 1.82666 15.614
125 3 7.07882 3.05023 17.1169
126 3 4.49584 3.76477 17.4695
127 3 7.10928 3.50945 11.0076
128 3 7.88017 1.49612 12.6333
132 3 5.34481 4.86144 9.38357
296 2 7.68328 7.37985 16.8041
157 3 9.86241 1.49088 14.5524
301 2 8.30025 4.60754 12.8265
203 2 5.40542 2.12119 9.49744
263 2 5.91264 6.15647 12.4911
227 2 2.91137 6.63162 15.8888
228 2 4.17416 5.16835 15.3758
229 2 2.56831 4.78783 16.3496
332 2 2.87551 2.07854 16.576
249 2 7.13754 4.21591 14.763
250 2 5.92121 5.57103 15.1794
251 2 5.32423 4.14325 14.1646
258 2 5.64481 6.46753 17.0238
264 2 4.05803 6.22338 11.8632
330 1 2.49089 2.07601 17.6267
190 2 1.6579 1.50213 8.87803
223 2 1.53566 6.41856 17.5596
11 4 -0.918813 8.0832 5.62884
14 4 -5.04139 12.5794 4.00572
15 4 -1.47146 9.90494 8.17463
17 4 -2.52675 12.3738 6.02853
23 4 1.88763 13.4332 7.96398
30 4 2.09433 8.24186 4.11708
36 4 3.58305 10.0024 1.86273
37 4 0.00386531 12.3063 3.87241
39 4 3.80549 9.9967 7.214
40 4 2.80039 12.1987 5.28589
112 3 -4.76757 13.972 3.35116
72 1 -2.83213 14.1312 6.6009
75 1 0.145266 14.0671 7.64892
113 3 -1.18797 8.97183 6.94612
114 3 -4.00313 11.9744 5.15493
115 3 -2.29526 11.5347 7.44909
131 3 0.771018 8.43773 4.9945
138 3 2.69074 9.4332 3.07966
139 3 3.92528 8.6747 0.814845
140 3 -0.038072 13.4119 2.68693
141 3 -1.201 12.4355 4.99496
142 3 3.12944 11.1721 1.00342
143 3 2.83503 9.00627 7.94932
144 3 5.1769 9.05242 6.62215
145 3 1.45821 12.1412 4.54979
146 3 3.13421 10.7212 6.00293
147 3 2.77089 13.252 6.53982
181 3 4.28886 11.1975 8.39695
359 2 1.22888 9.50183 0.392341
209 2 -0.287712 10.8741 3.09894
197 2 -3.13126 12.165 8.71019
108 3 -2.05436 8.23824 4.36885
235 2 -2.72246 14.0143 7.75427
236 2 -3.88965 14.3979 6.25316
328 2 -3.56453 14.7397 0.384798
245 2 0.11419 14.3242 6.56351
232 2 1.04523 10.1815 8.33603
9 4 -3.05676 8.09782 3.21824
329 2 -2.81728 13.4547 1.58979
327 1 -2.98803 14.55 1.3666
20 4 0.744233 14.9422 2.21196
338 2 2.8436 13.323 1.5977
244 2 -0.37599 13.0034 7.88399
243 2 -0.114449 14.8615 8.39462
356 2 -2.07874 14.7942 6.13346
341 2 1.7345 13.184 0.134707
16 4 -3.9179 12.3271 10.2398
18 4 -0.335989 10.8377 14.6103
19 4 -1.78111 11.3767 11.73
31 4 5.1633 8.82062 17.3432
324 2 -2.20093 12.6427 17.5158
38 4 4.77129 12.6934 17.2679
41 4 4.81321 11.0443 13.4778
42 4 1.43149 13.1626 15.4911
43 4 2.95614 12.954 12.0813
73 1 -1.81078 10.1909 15.5538
81 1 3.43005 9.65352 17.1806
83 1 1.1008 12.7095 11.6538
116 3 0.871997 9.66974 14.3385
117 3 -2.9753 12.4354 11.488
118 3 -1.10559 11.0483 13.1003
238 2 -1.35085 9.42236 16.2177
148 3 4.62144 9.77737 12.3983
149 3 0.41133 12.0788 15.7242
150 3 1.10192 14.1275 14.3419
151 3 3.40431 11.7913 13.6514
152 3 3.00941 14.5582 12.6116
33 4 2.41435 8.06507 9.1526
173 3 5.87081 8.82688 15.5735
182 3 3.92615 12.4977 10.8725
334 2 -2.13979 14.4092 12.7123
169 3 6.28835 8.33363 10.2852
35 4 4.85731 8.24866 11.1367
200 2 -0.621383 11.5334 10.4769
335 2 -0.538131 14.7491 13.6912
201 2 -2.10822 9.85491 10.9286
208 2 3.15884 9.25012 12.8842
210 2 5.12204 10.181 14.9776
211 2 2.97494 12.4981 15.1049
212 2 3.58332 11.6069 16.8701
213 2 1.61256 13.8994 17.0124
13 4 1.62156 8.59753 13.277
237 2 -2.32313 11.0681 16.1876
26 4 2.05148 15.4561 13.4922
207 2 0.94901 8.75932 9.7155
262 2 3.07872 10.0236 16.1613
266 2 0.643822 12.6444 12.6414
267 2 1.09307 11.7685 10.9847
268 2 0.903094 13.7039 11.0582
71 1 0.36865 10.5337 9.07085
261 2 2.86654 8.6377 17.5195
323 3 -3.40517 14.6194 15.2225
333 1 -1.55083 15.2081 13.1629
202 2 1.67951 11.9776 8.9002
196 2 0.804381 8.72505 11.8516
70 1 -2.56514 9.08856 9.3487
233 2 0.816876 10.5584 10.1401
154 3 2.54165 14.5483 8.90012
137 3 3.43992 8.17307 10.3428
198 2 -4.78139 13.7688 10.0793
234 2 -0.0641053 11.597 8.8195
339 3 12.3187 0.113604 0.0458157
47 4 13.7509 3.57969 5.58346
51 4 11.2321 4.05485 0.994241
52 4 7.45114 6.64828 4.19578
54 4 11.7161 5.62359 7.27203
361 2 14.6703 1.20645 0.693646
66 1 15.173 3.91765 2.60155
76 1 8.92127 3.04164 5.88859
85 1 13.306 1.89779 5.74622
89 1 10.6633 3.65782 2.78044
90 1 10.9768 1.67268 7.95327
91 1 10.1759 4.81961 8.30159
162 3 11.4348 2.65391 0.211121
163 3 12.8367 4.87487 1.39571
164 3 7.17535 5.04926 3.63145
166 3 9.87508 5.09073 0.415335
165 3 6.22603 7.15105 5.0847
167 3 12.761 4.58809 6.40412
84 1 14.9134 0.180956 1.08086
222 2 15.3886 2.85951 2.3154
171 3 8.99632 6.68564 4.96412
172 3 12.2673 6.72882 8.37545
285 2 11.4609 0.74232 7.5745
214 2 10.106 5.83334 6.67573
343 2 14.9445 4.32298 4.26228
246 2 9.70057 2.36302 5.45393
247 2 9.37956 3.71025 6.80134
248 2 8.45509 3.81809 4.96031
270 2 14.8896 2.58895 6.55652
271 2 12.9642 1.73404 4.52002
272 2 12.4797 1.86368 6.54647
282 2 11.2711 4.26108 3.5221
283 2 10.8828 2.54151 2.90298
284 2 9.56838 3.93389 2.89589
170 3 11.3199 7.59228 3.71808
286 2 11.6968 2.46146 8.37768
287 2 10.1163 2.11478 7.2131
346 2 7.1408 4.88495 0.377584
289 2 10.3741 3.59428 8.21661
351 2 14.2787 4.35557 2.03877
219 2 14.7298 0.916263 6.19255
290 2 9.07282 5.06728 8.19665
168 3 7.39724 6.63529 8.5537
176 3 8.29337 7.20167 0.357192
355 2 12.2385 7.51857 7.68489
175 3 7.58278 7.6326 2.82229
352 2 12.9998 5.28644 0.417821
241 2 9.00501 1.304 3.64731