LAMMPS (2 Aug 2023 - Update 2)
  using 1 OpenMP thread(s) per MPI task
Reading data file ...
  triclinic box = (0 0 0) to (16.6078 13.4502 17.3502) with tilt (-9.4505 -1.0717 0.0034)
WARNING: Triclinic box skew is large. LAMMPS will run inefficiently. (src/domain.cpp:220)
  2 by 1 by 2 MPI processor grid
  reading atoms ...
  386 atoms
Finding 1-2 1-3 1-4 neighbors ...
  special bond factors lj:    0        0        0       
  special bond factors coul:  0        0        0       
     0 = max # of 1-2 neighbors
     0 = max # of 1-3 neighbors
     0 = max # of 1-4 neighbors
     1 = max # of special neighbors
  special bonds CPU = 0.000 seconds
  read_data CPU = 0.006 seconds
WARNING: Van der Waals parameters for element SI indicate inner wall+shielding, but earlier atoms indicate a different van der Waals method. This may cause division-by-zero errors. Keeping van der Waals setting for earlier atoms. (src/REAXFF/reaxff_ffield.cpp:251)
*****Minimization starts.*****

CITE-CITE-CITE-CITE-CITE-CITE-CITE-CITE-CITE-CITE-CITE-CITE-CITE

Your simulation uses code contributions which should be cited:
- pair reaxff command: doi:10.1016/j.parco.2011.08.005
- fix qeq/reaxff command: doi:10.1016/j.parco.2011.08.005
The log file lists these citations in BibTeX format.

CITE-CITE-CITE-CITE-CITE-CITE-CITE-CITE-CITE-CITE-CITE-CITE-CITE

Switching to 'neigh_modify every 1 delay 0 check yes' setting during minimization
WARNING: Fix qeq/reaxff group is not charge neutral, net charge = -0.82 (src/REAXFF/fix_qeq_reaxff.cpp:392)
Neighbor list info ...
  update: every = 1 steps, delay = 0 steps, check = yes
  max neighbors/atom: 2000, page size: 100000
  master list distance cutoff = 12
  ghost atom cutoff = 12
  binsize = 6, bins = 5 3 3
  2 neighbor lists, perpetual/occasional/extra = 2 0 0
  (1) pair reaxff, perpetual
      attributes: half, newton off, ghost
      pair build: half/bin/newtoff/ghost
      stencil: full/ghost/bin/3d
      bin: standard
  (2) fix qeq/reaxff, perpetual, copy from (1)
      attributes: half, newton off
      pair build: copy
      stencil: none
      bin: none
Setting up cg style minimization ...
  Unit style    : real
  Current step  : 0
Per MPI rank memory allocation (min/avg/max) = 177.2 | 178.6 | 179.8 Mbytes
   Step          Temp          Press         Density         Volume         PotEng         TotEng    
         0   0              173639.88      1.7478941      3875.657      -35586.149     -35586.149    
        47   0              4030.0107      1.7478941      3875.657      -38156.43      -38156.43     
Loop time of 10.7204 on 4 procs for 47 steps with 386 atoms

96.1% CPU use with 4 MPI tasks x 1 OpenMP threads

Minimization stats:
  Stopping criterion = energy tolerance
  Energy initial, next-to-last, final = 
     -35586.1485446012  -38156.3954491963  -38156.4298363688
  Force two-norm initial, final = 4205.6054 299.17949
  Force max component initial, final = 603.10212 114.00496
  Final line search alpha, max atom move = 0.0022622169 0.25790394
  Iterations, force evaluations = 47 152

MPI task timing breakdown:
Section |  min time  |  avg time  |  max time  |%varavg| %total
---------------------------------------------------------------
Pair    | 7.5463     | 7.8522     | 8.1105     |   7.8 | 73.25
Bond    | 0.00042666 | 0.00045334 | 0.000487   |   0.0 |  0.00
Neigh   | 0          | 0          | 0          |   0.0 |  0.00
Comm    | 0.53751    | 0.75269    | 0.98949    |  23.1 |  7.02
Output  | 0.02076    | 0.021461   | 0.022433   |   0.4 |  0.20
Modify  | 1.9677     | 1.9685     | 1.9692     |   0.0 | 18.36
Other   |            | 0.1251     |            |       |  1.17

Nlocal:           96.5 ave         100 max          95 min
Histogram: 2 0 1 0 0 0 0 0 0 1
Nghost:         4544.5 ave        4577 max        4514 min
Histogram: 1 0 1 0 0 0 1 0 0 1
Neighs:        65501.5 ave       67863 max       64427 min
Histogram: 2 0 1 0 0 0 0 0 0 1

Total # of neighbors = 262006
Ave neighs/atom = 678.77202
Ave special neighs/atom = 0
Neighbor list builds = 0
Dangerous builds = 0
System init for write_data ...
##### Equilibration starts.##### 
WARNING: Compute rdf cutoff less than neighbor cutoff - forcing a needless neighbor list build (src/compute_rdf.cpp:179)
Neighbor list info ...
  update: every = 10 steps, delay = 0 steps, check = yes
  max neighbors/atom: 2000, page size: 100000
  master list distance cutoff = 12
  ghost atom cutoff = 12
  binsize = 6, bins = 5 3 3
  3 neighbor lists, perpetual/occasional/extra = 2 1 0
  (1) pair reaxff, perpetual
      attributes: half, newton off, ghost
      pair build: half/bin/newtoff/ghost
      stencil: full/ghost/bin/3d
      bin: standard
  (2) compute rdf, occasional
      attributes: half, newton on, cut 7
      pair build: half/bin/newton/tri
      stencil: half/bin/3d/tri
      bin: standard
  (3) fix qeq/reaxff, perpetual, copy from (1)
      attributes: half, newton off
      pair build: copy
      stencil: none
      bin: none
Setting up Verlet run ...
  Unit style    : real
  Current step  : 0
  Time step     : 0.5
Per MPI rank memory allocation (min/avg/max) = 182 | 183.3 | 184.6 Mbytes
   Step          Temp          Press          PotEng         TotEng    
         0   300            8091.1814     -38156.43      -37812.146    
       100   190.98439      10036.201     -37989.399     -37770.223    
Loop time of 3.89843 on 4 procs for 100 steps with 386 atoms

Performance: 1.108 ns/day, 21.658 hours/ns, 25.651 timesteps/s, 9.901 katom-step/s
98.5% CPU use with 4 MPI tasks x 1 OpenMP threads

MPI task timing breakdown:
Section |  min time  |  avg time  |  max time  |%varavg| %total
---------------------------------------------------------------
Pair    | 3.2676     | 3.3222     | 3.3896     |   2.9 | 85.22
Bond    | 0.00018578 | 0.00020237 | 0.0002207  |   0.0 |  0.01
Neigh   | 0.033711   | 0.034224   | 0.034857   |   0.2 |  0.88
Comm    | 0.041345   | 0.10881    | 0.16356    |  16.3 |  2.79
Output  | 0.00036904 | 0.00081641 | 0.0015932  |   0.0 |  0.02
Modify  | 0.42835    | 0.42879    | 0.4291     |   0.0 | 11.00
Other   |            | 0.003377   |            |       |  0.09

Nlocal:           96.5 ave         100 max          91 min
Histogram: 1 0 0 0 0 0 1 1 0 1
Nghost:        4548.25 ave        4599 max        4503 min
Histogram: 1 0 1 0 0 0 1 0 0 1
Neighs:        65397.8 ave       67699 max       61721 min
Histogram: 1 0 0 0 0 0 1 1 0 1

Total # of neighbors = 261591
Ave neighs/atom = 677.69689
Ave special neighs/atom = 0
Neighbor list builds = 1
Dangerous builds = 0
System init for write_data ...
WARNING: Compute rdf cutoff less than neighbor cutoff - forcing a needless neighbor list build (src/compute_rdf.cpp:179)
Total wall time: 0:00:15
