ITEM: TIMESTEP
0
ITEM: NUMBER OF ATOMS
274
ITEM: BOX BOUNDS xy xz yz pp pp pp
-8.3797999999999995e+00 1.8013900000000000e+01 -8.3797999999999995e+00
0.0000000000000000e+00 1.3273200000000001e+01 1.1950000000000001e+00
0.0000000000000000e+00 1.6075500000000002e+01 4.3120000000000003e-01
ITEM: ATOMS id type x y z
119 2 6.99038 1.89304 5.27363
5 4 0.747428 2.17053 0.408591
7 4 1.40191 1.92666 5.26399
9 4 -0.258618 4.47582 1.9402
10 4 0.537971 4.10857 7.29131
222 3 6.25662 1.15548 1.06911
21 4 5.63298 2.21075 6.20266
26 4 5.3053 5.14451 7.18812
41 1 2.92192 0.630492 5.30484
44 1 4.3235 3.62064 1.98389
55 3 1.31299 0.939718 1.29971
56 3 0.0281378 1.96038 4.47788
58 3 -1.26621 3.82062 2.91088
59 3 0.773583 3.6152 1.13
243 2 3.90522 1.11916 2.18424
61 3 1.61682 3.00821 6.39797
62 3 -0.18767 5.29217 6.35933
74 3 5.46522 1.27028 7.50417
78 3 0.552134 5.66453 2.7506
81 3 5.56991 3.67724 6.6781
84 3 2.81828 6.19252 4.23019
85 3 4.37495 6.07554 6.29768
223 2 7.82822 0.775059 3.37527
111 2 2.68788 2.17143 4.13175
112 2 -1.19504 5.36625 0.852637
113 2 -1.82688 6.06975 4.40272
118 2 4.43954 1.87229 4.96093
133 2 3.29674 0.390931 4.1309
19 4 7.1031 0.216625 7.76886
135 2 3.74394 0.731728 6.09855
141 2 4.02876 4.32576 2.86463
142 2 4.97449 2.79164 2.32123
143 2 3.35885 3.23676 1.4382
220 4 7.2595 0.225669 1.78324
24 4 5.14262 4.64157 0.603859
138 2 2.56534 1.81854 13.3171
8 4 1.88585 2.66004 11.0976
13 4 -0.0265256 4.87301 12.4552
14 4 -1.51977 6.27156 10.3448
20 4 4.80749 3.63078 9.79806
23 4 7.19025 2.93128 11.5014
83 3 -0.0642472 6.51283 9.79618
137 2 1.5258 0.527891 12.2837
42 1 2.36945 1.27897 12.3041
57 3 0.726217 1.9834 10.0929
63 3 -0.368423 4.26907 13.8824
64 3 1.19761 3.86103 11.9279
65 3 -2.63921 5.92873 9.18109
66 3 -1.32346 4.84829 11.6091
73 3 3.40346 3.22135 10.3541
75 3 5.87258 3.58675 10.9921
76 3 6.93489 1.53683 12.1182
80 3 5.04138 5.13619 9.06021
82 3 1.50896 5.03722 8.41506
195 2 5.15111 1.33101 15.5161
114 2 0.551398 6.42889 12.8065
117 2 5.14816 2.28559 8.7532
124 2 3.77502 5.31568 12.2945
136 2 3.29905 0.794437 11.844
179 4 7.466 2.27635 15.6293
183 1 5.95689 1.52226 14.8155
248 2 3.83017 3.51574 15.4352
123 2 5.15672 6.3409 10.2776
29 4 3.83595 6.59645 11.2928
197 2 5.74161 2.36478 14.0318
77 3 7.00219 3.83013 15.7155
228 2 2.87284 6.55602 14.6465
245 1 3.13526 2.78719 14.9821
246 2 2.44075 3.27977 14.2644
247 2 3.62199 1.82346 14.6045
227 3 5.36378 5.93617 15.8231
196 2 6.32737 0.595467 14.2862
27 4 1.5224 6.33497 9.34339
60 3 -0.628708 3.37166 8.19851
250 2 -2.02248 5.98111 15.8544
262 3 0.424337 2.42695 15.6556
99 3 8.15633 1.27378 8.36473
1 4 -6.32421 12.3269 1.86664
3 3 -6.1892 11.2101 0.651008
155 2 1.18662 10.3877 6.97432
16 4 -2.87479 8.52649 6.97412
17 4 -4.1509 10.2044 4.52173
251 1 -5.19077 8.59152 1.41695
242 1 -4.52565 12.8423 2.24416
31 4 -1.75538 10.2682 2.75452
33 4 -0.0979964 11.5014 5.30734
48 1 -0.991444 8.6914 1.9737
49 1 0.260873 10.0513 6.46149
244 2 -4.07442 12.4597 3.18036
68 3 -1.68957 7.54892 6.48349
69 3 -5.6345 9.69066 4.19896
70 3 -3.49994 9.44008 5.72378
79 3 0.526759 7.31338 4.95102
87 3 1.81758 8.0419 2.62592
154 2 -0.593091 10.0586 7.22362
89 3 -1.35366 11.518 1.54145
90 3 -3.30985 10.1151 3.18646
93 3 -0.935112 10.8058 4.13842
94 3 -0.796444 12.572 6.24962
115 2 -4.35009 11.9358 4.96058
147 2 2.00559 7.41892 7.17182
151 2 -1.07245 8.87 0.86457
152 2 -1.66736 7.85682 2.38177
153 2 0.125131 8.55498 2.31783
265 2 -3.95589 12.3552 1.29711
2 3 -7.06422 11.7344 3.17801
156 2 0.433679 9.04853 5.89434
67 3 -4.05805 7.54297 7.52702
28 4 4.13328 6.72851 4.88694
253 2 -5.4209 9.04462 2.35652
25 4 1.40324 6.77465 3.60935
252 2 -4.14509 8.24294 1.35049
134 2 -6.58214 12.7233 5.87376
218 2 -5.97683 10.9332 7.32678
150 2 1.41833 10.4167 1.1727
149 2 0.343425 8.0123 7.85852
12 4 -0.779907 6.58653 5.60307
162 2 -1.07087 10.5684 0.033719
157 2 1.64929 9.36757 11.0095
18 4 -2.48199 8.29929 12.398
22 4 -0.676947 12.9005 12.1039
32 4 -2.65806 10.844 9.0562
35 4 -1.39445 10.5528 14.1469
160 2 0.997722 10.698 14.3679
88 3 4.22811 8.32627 16.0684
226 4 4.45532 7.07275 15.1158
51 1 0.183732 10.3149 15.1535
161 2 0.334831 9.15976 15.316
72 3 -1.94068 7.57732 11.1341
148 2 1.96842 8.67697 8.53548
95 3 4.1166 7.88424 12.1701
92 3 -1.44086 11.7996 8.85973
50 1 2.40288 10.179 11.3111
96 3 -1.46215 9.22894 13.145
97 3 -1.3677 11.9394 13.2579
98 3 -2.73749 10.46 15.2019
116 2 -3.74149 9.28308 11.8576
120 2 -0.964531 12.3807 10.5562
126 2 -2.93662 10.4283 10.6615
187 3 0.883171 12.9764 12.2668
128 2 2.50326 10.0004 13.2369
91 3 -2.51484 9.62484 8.09272
71 3 -3.17747 7.17802 13.3109
46 1 1.45479 7.78891 8.07731
127 2 -4.13045 11.6041 8.75424
15 4 -4.17937 10.2954 16.0177
159 2 1.85304 11.1393 11.7334
86 3 2.54165 6.79165 10.4763
274 2 -6.70372 11.8413 8.77368
235 2 11.6925 1.48893 2.65952
37 4 13.1544 2.01616 5.79705
38 4 6.62539 6.12591 2.9129
39 4 11.0592 4.06312 7.07308
45 1 7.05668 5.98488 7.07842
54 1 9.99106 5.24303 6.02209
101 3 14.3108 2.68427 5.04129
102 3 13.654 1.13038 7.04634
103 3 6.12768 5.62941 1.42317
233 2 11.35 0.6089 1.01976
106 3 11.9402 2.99511 6.12164
270 2 9.52938 0.486745 2.9008
129 2 12.6268 0.761687 4.7554
130 2 7.61551 4.89512 3.67012
255 2 9.83087 0.65295 4.35569
145 2 7.28595 5.77598 5.97284
267 2 12.1103 4.72474 0.678325
4 4 15.317 2.41951 3.83144
169 2 10.0956 4.74044 5.0076
249 1 12.3479 5.62619 0.0346445
171 2 8.86124 5.45523 6.34965
221 1 9.10877 0.89085 1.90902
146 2 7.71146 5.33614 7.75364
225 2 9.35236 2.00298 1.72548
231 1 12.107 1.17994 1.58603
232 3 14.7227 1.25099 2.92819
170 2 10.5896 6.20367 6.17853
234 2 12.3726 2.09031 0.976859
104 3 5.38886 6.43143 3.93055
230 4 13.611 0.211868 2.18186
224 2 9.42573 0.157454 1.00903
107 3 12.0453 5.00739 7.91919
207 4 14.5495 0.310163 8.00446
11 4 12.7103 6.35147 8.70874
36 4 9.12376 2.27292 9.12445
52 1 10.5147 1.24127 9.9178
193 2 11.8678 6.56202 15.4461
100 3 8.43859 3.00805 10.3799
164 2 10.9205 0.554017 9.1033
202 2 13.8213 3.71236 11.1197
182 4 10.3577 6.22212 10.8663
203 2 8.90912 5.81668 10.0381
163 2 11.313 1.98853 10.2647
188 3 8.92474 1.95184 14.6893
165 2 10.1071 0.724014 10.8816
172 4 16.0722 2.90117 14.6912
173 1 14.6736 1.72493 14.0979
174 2 14.6233 3.14343 15.5334
175 2 15.6078 1.25887 13.2531
176 2 13.7782 2.21497 13.607
199 2 12.1852 0.690511 14.5607
178 4 13.1425 5.99213 14.2703
180 4 10.0187 1.38636 13.6193
181 4 11.7527 3.88402 12.4495
177 2 14.356 0.920184 14.7993
185 1 12.7854 3.23349 10.9603
263 3 15.0047 1.23105 9.30495
189 3 11.0316 2.59698 13.0092
190 3 12.7787 4.55105 13.766
192 3 10.7901 5.12354 11.9043
121 2 7.68182 3.86722 12.83
201 2 12.6146 2.05699 11.2608
200 2 12.3687 3.52647 9.91742
110 2 15.4443 3.5476 10.6345
105 3 10.0114 3.33474 8.08793
205 2 7.99344 6.7147 11.7477
6 4 16.0652 2.44995 9.50568
268 2 10.795 7.85808 0.993651
30 4 3.03527 8.66522 1.39758
217 2 6.35387 9.47997 7.82781
53 1 7.84721 7.59116 2.77895
266 2 12.161 6.64764 0.561178
122 2 3.95434 8.34358 5.25122
125 2 4.55234 8.68606 2.19243
254 1 1.51501 12.3703 4.58426
166 2 8.29886 7.5095 1.76372
168 2 7.18903 8.54459 2.93526
206 4 9.75977 10.4361 4.16184
167 2 8.51863 7.31927 3.65855
208 4 8.44525 10.8678 7.09577
209 1 7.36975 9.18462 7.48452
272 2 3.28128 10.9369 1.2919
211 3 8.91488 10.7367 5.49906
212 3 7.32662 12.2802 7.31229
213 2 8.76016 9.22108 3.45195
261 2 5.27498 12.0144 4.56012
216 2 7.45184 8.7406 6.42658
47 1 2.44649 10.3368 0.754377
239 2 6.68047 9.09312 0.70256
257 2 2.33916 12.1115 5.28398
237 1 7.64976 9.92827 0.594853
238 3 5.72553 12.0266 0.997133
240 2 7.99628 10.2801 1.61131
144 2 7.17911 7.19485 7.33921
256 2 1.64023 11.8184 3.63915
258 1 4.58599 11.9522 3.6821
259 2 4.63946 10.98 3.1028
260 2 3.48373 12.1821 3.99255
34 4 3.90434 9.52486 12.2338
40 4 6.24536 11.4757 13.1589
108 3 5.04636 10.5559 12.7524
109 3 6.84361 11.2192 14.5705
271 2 3.7469 10.7218 15.699
132 2 7.47217 11.3566 12.086
158 2 3.12141 10.5139 10.3471
139 2 12.0016 9.33877 13.9024
186 1 8.80404 7.32406 11.2961
184 1 2.80576 13.0398 14.4484
198 2 2.83966 12.2234 13.6825
194 2 9.59512 7.97541 12.0783
204 2 8.49442 7.92433 10.3637
273 2 2.40133 12.7168 15.4286
140 2 10.7024 10.4411 14.4787
219 2 10.0415 9.92645 8.6929
210 1 10.0237 10.9955 8.09135
131 2 5.67977 13.1047 12.8943
214 2 5.14898 12.036 8.69923
43 1 11.3429 9.54207 14.752
269 2 10.747 8.65137 15.1865
264 2 9.18555 11.9545 15.5833
191 3 11.5053 6.79771 9.90673
215 2 8.14718 8.8645 8.2483
229 2 5.16574 7.57332 13.707
241 2 9.73544 10.0365 15.9155
236 4 7.51746 11.5867 15.9245
ITEM: TIMESTEP
100
ITEM: NUMBER OF ATOMS
274
ITEM: BOX BOUNDS xy xz yz pp pp pp
-8.3797999999999995e+00 1.8013900000000000e+01 -8.3797999999999995e+00
0.0000000000000000e+00 1.3266563400000001e+01 1.1950000000000001e+00
0.0000000000000000e+00 1.6075500000000002e+01 4.3098440000000005e-01
ITEM: ATOMS id type x y z
119 2 7.00655 1.76985 5.22579
5 4 0.686428 2.12765 0.260709
7 4 1.37387 2.1327 5.19974
9 4 -0.169653 4.60666 2.04669
10 4 0.643308 4.29202 7.24152
222 3 6.36305 1.40734 1.04256
21 4 5.59743 2.21716 6.16838
26 4 5.33889 5.2454 7.19785
41 1 2.84025 0.757516 5.15667
44 1 4.26772 3.66458 2.07464
55 3 1.39754 0.88358 0.915492
56 3 0.101243 2.12469 4.35361
58 3 -1.32273 3.98046 2.82254
59 3 0.728186 3.49078 1.2549
243 2 3.98383 1.21943 2.42157
61 3 1.46591 3.14776 6.37485
62 3 -0.158523 5.33766 6.33477
74 3 5.33209 1.20427 7.4984
78 3 0.682758 5.62312 2.8471
81 3 5.49365 3.70059 6.64931
84 3 2.86075 6.04287 4.27682
85 3 4.35223 6.31728 6.45052
223 2 7.57123 0.680912 3.29069
111 2 2.7626 2.3575 4.12319
112 2 -1.01789 5.37746 0.84982
113 2 -1.63052 5.66896 4.2857
118 2 4.3674 1.96163 4.94943
133 2 3.30112 0.45954 4.1424
19 4 7.07454 0.432166 7.73351
135 2 3.63164 0.870833 6.0789
141 2 3.71617 4.35424 2.75939
142 2 5.08767 3.13347 2.65196
143 2 3.58355 2.93986 1.55664
220 4 7.30441 0.218517 1.6012
24 4 5.09259 4.61059 0.719923
12 4 -0.820238 6.47328 5.53484
242 1 3.87784 0.0849841 2.18088
138 2 2.50185 1.8701 13.3373
8 4 1.92303 2.78563 11.026
13 4 -0.109216 4.77204 12.3849
14 4 -1.67326 6.35393 10.3069
20 4 4.83075 3.59543 9.78207
23 4 7.24042 2.99446 11.5576
83 3 -0.132648 6.61923 9.77542
137 2 1.40727 0.654144 12.2928
42 1 2.30073 1.37518 12.2752
57 3 0.81078 1.94995 9.97436
63 3 -0.583025 4.32647 13.903
64 3 1.21723 3.98776 11.8611
65 3 -2.77089 6.08066 9.22878
66 3 -1.44743 4.74985 11.4891
73 3 3.41404 3.20261 10.4063
75 3 5.95896 3.58469 10.9049
76 3 6.87006 1.5456 12.1407
80 3 4.8186 5.00804 9.03119
82 3 1.63519 5.10021 8.36514
195 2 5.42592 1.24252 15.6959
114 2 0.41879 6.33628 12.4973
117 2 5.06546 2.23284 8.75601
124 2 3.68532 5.26059 12.217
136 2 3.1955 0.836144 11.8932
179 4 7.41196 2.40126 15.4675
183 1 6.02081 1.37468 14.7083
248 2 4.01501 3.55082 15.4153
123 2 5.1101 6.31571 10.4685
29 4 3.75303 6.64461 11.3047
197 2 5.46878 2.07405 13.9965
77 3 7.10335 3.97065 15.6655
228 2 3.14804 6.58718 14.1554
245 1 3.24011 2.84621 14.9825
246 2 2.64566 3.34797 14.1431
247 2 3.5985 1.84388 14.7342
227 3 5.18635 6.00043 16.0023
110 2 -1.1764 3.56705 10.4604
27 4 1.34294 6.45603 9.23213
60 3 -0.385699 3.29097 8.08906
250 2 -2.10378 6.204 15.755
262 3 0.545633 2.33004 15.4964
99 3 8.15529 1.42644 8.39784
6 4 -0.613373 2.40586 9.36997
86 3 2.50323 6.67162 10.3692
1 4 -6.28057 12.3831 1.67298
3 3 -5.88645 11.2043 0.664828
155 2 1.41964 10.4275 6.79052
16 4 -2.99479 8.49431 6.97834
17 4 -4.24231 10.2549 4.58132
251 1 -5.09038 8.59688 1.47248
46 1 1.52522 7.8496 7.8597
31 4 -1.6992 10.2429 2.89194
33 4 -0.0598302 11.5502 5.43428
48 1 -0.98473 8.76683 2.07784
49 1 0.267343 9.99764 6.4486
244 2 -4.25735 12.2769 3.02897
68 3 -1.86258 7.43687 6.41625
69 3 -5.68237 9.78181 4.17714
70 3 -3.63797 9.3618 5.72986
79 3 0.368605 7.27777 4.93547
87 3 1.88956 8.15594 2.69247
154 2 -0.502361 9.93289 7.27667
89 3 -1.26221 11.5103 1.4424
90 3 -3.22497 10.0541 3.17018
93 3 -0.733568 10.904 4.15841
94 3 -0.93568 12.6684 6.19283
115 2 -4.42306 11.8694 5.03439
147 2 1.84528 7.41643 6.95324
151 2 -1.0707 9.01619 0.904366
152 2 -1.69393 7.96589 2.38056
153 2 0.129956 8.48256 2.41259
265 2 -3.93583 12.5603 1.22295
2 3 -7.03153 11.7838 3.00414
156 2 0.335299 9.03752 5.85174
149 2 0.456405 8.15896 7.8684
28 4 4.19827 6.7335 4.87891
253 2 -5.29558 9.0993 2.49725
25 4 1.47367 6.72968 3.68503
252 2 -4.03838 8.09782 1.44548
67 3 -4.24738 7.65921 7.53802
218 2 -5.91797 10.7898 7.53392
162 2 -1.09103 10.565 0.0372088
134 2 -6.83678 12.9585 5.72348
157 2 1.64678 9.37155 10.7022
18 4 -2.64881 8.3172 12.3951
22 4 -0.729593 12.9642 12.0548
32 4 -2.62844 10.7689 9.07341
35 4 -1.49059 10.4568 14.1339
160 2 0.83294 10.7884 14.3367
139 2 -4.71818 9.51846 13.8326
226 4 4.4379 7.13448 15.1459
51 1 0.124266 10.3023 15.1151
161 2 0.154957 9.1922 15.2465
72 3 -1.9972 7.58394 11.1622
148 2 2.22065 8.66117 8.13548
95 3 4.0332 7.88192 12.2918
92 3 -1.58404 11.8661 8.95953
50 1 2.41744 10.1053 11.0504
96 3 -1.60017 9.17263 13.2437
97 3 -1.33685 11.8658 13.0481
98 3 -2.86377 10.4045 15.3184
116 2 -3.927 9.28493 11.8445
120 2 -1.00882 12.3285 10.5425
126 2 -2.63209 10.3447 10.6942
187 3 0.84201 13.1171 12.2572
128 2 2.14231 9.9242 12.9716
91 3 -2.51178 9.47996 8.21348
71 3 -3.27295 7.16145 13.2878
274 2 -6.66964 12.0299 8.61305
127 2 -4.17856 11.3819 8.87
159 2 1.97666 11.0665 11.417
15 4 -4.24707 10.2657 16.0172
88 3 4.14906 8.37293 16.0438
196 2 -2.02083 13.1786 14.3245
235 2 11.4109 0.935241 2.72181
37 4 13.1014 1.9853 5.66195
38 4 6.85129 6.1602 2.90832
39 4 11.0511 4.1487 6.93267
45 1 7.08292 6.00756 7.12464
54 1 10.0631 5.45916 5.99756
101 3 14.2175 2.78441 4.92381
102 3 13.7585 1.17979 6.87443
103 3 6.29671 5.53655 1.3921
233 2 11.7215 0.983962 0.792575
106 3 11.7887 2.88728 6.08238
270 2 9.42733 0.279793 3.09722
129 2 12.6332 0.727976 4.5914
130 2 7.74773 4.94182 3.76628
255 2 10.1745 0.467371 4.57508
145 2 7.34298 5.77834 6.03324
267 2 12.0081 4.89326 0.618616
4 4 15.4505 2.51085 3.76417
169 2 10.0335 5.04887 4.91497
224 2 9.43758 0.375708 0.969126
171 2 8.95954 5.6083 6.3857
221 1 9.05977 0.855811 2.09071
146 2 7.78351 5.45722 7.77948
225 2 9.2896 1.93491 2.11205
231 1 12.1706 1.27402 1.83536
232 3 14.7425 1.28751 2.86794
170 2 10.7366 6.34193 6.1026
234 2 12.56 2.38918 1.92737
107 3 12.0262 4.96131 7.87778
230 4 13.6862 0.253716 2.24711
249 1 12.3119 5.77195 0.0583729
105 3 9.81416 3.40835 8.02053
11 4 12.554 6.33396 8.60704
36 4 9.20495 2.35303 9.14371
52 1 10.6669 1.33732 9.81376
193 2 11.7545 6.45313 15.375
100 3 8.49157 2.99372 10.5101
164 2 11.0111 0.521141 9.13022
202 2 13.9089 3.72134 11.2334
182 4 10.5282 6.14886 10.9551
203 2 8.96054 5.82263 10.2057
163 2 11.5535 2.08078 10.2416
188 3 8.8038 1.8389 14.6753
165 2 10.0506 0.924155 10.8085
172 4 16.1752 2.8469 14.5915
173 1 14.7769 1.62911 14.0075
174 2 14.7767 2.75944 15.5987
175 2 15.5646 1.28853 13.0885
176 2 13.819 2.18182 13.6249
199 2 12.0818 0.931038 15.0528
178 4 13.0818 6.00844 14.2559
180 4 9.99439 1.30452 13.7024
181 4 11.7378 3.80287 12.6016
177 2 14.6224 0.814367 14.7242
185 1 12.9008 3.16173 11.164
263 3 15.0764 1.32479 9.29492
189 3 10.8782 2.57857 13.1625
190 3 12.8926 4.49944 13.6554
192 3 10.8519 4.99067 12.0646
121 2 7.64827 4.07281 12.8014
201 2 13.032 2.07913 11.4932
200 2 12.5295 3.19746 10.0943
205 2 8.09142 6.73172 11.7325
207 4 14.5249 0.339487 8.06904
268 2 10.7785 7.93929 1.13297
30 4 2.99961 8.75489 1.37199
217 2 6.52199 9.53449 7.90208
53 1 7.83579 7.66149 2.49902
266 2 12.0721 6.79404 0.671485
122 2 3.94835 8.39757 4.72207
125 2 4.56374 8.96175 1.98247
254 1 1.76861 12.212 4.76842
166 2 7.87287 7.53012 1.35128
168 2 7.18531 8.50963 2.96413
206 4 9.69474 10.5288 3.98898
167 2 8.74622 7.35699 3.1478
208 4 8.56392 10.8658 7.0317
209 1 7.49387 9.24719 7.42813
272 2 3.5474 11.1164 1.3936
211 3 8.96971 10.7488 5.47426
212 3 7.27691 12.2218 7.56147
213 2 8.66872 9.34667 3.12768
261 2 5.63287 12.1726 4.62097
216 2 7.46625 8.66411 6.51167
47 1 2.64732 10.5562 0.976059
239 2 6.76565 9.05553 0.438427
257 2 2.59907 11.8525 5.52166
237 1 7.6433 9.93077 0.388074
238 3 5.741 12.1344 0.96972
240 2 7.97385 10.3097 1.44012
144 2 7.22161 7.15622 7.31599
256 2 1.8891 11.6379 3.80153
258 1 4.88645 11.8804 3.81027
259 2 4.9454 10.7781 3.55792
260 2 3.76701 12.0824 4.16952
104 3 5.49325 6.59313 3.90225
150 2 1.66069 10.5822 1.62253
34 4 3.73292 9.4806 12.3121
40 4 6.09193 11.4097 13.1121
108 3 4.89678 10.4466 12.753
109 3 6.75278 11.3345 14.5363
271 2 3.6695 11.1027 15.9272
132 2 7.24457 11.3894 11.929
158 2 3.35704 10.1574 10.1756
236 4 7.50117 11.6172 15.9146
186 1 9.06454 7.29019 11.4625
184 1 2.90382 13.1134 14.5557
198 2 3.33013 12.4169 13.7673
194 2 9.78343 7.54647 12.5449
204 2 8.99348 8.19315 10.8091
273 2 2.36889 12.5354 15.3451
140 2 10.7574 10.7287 14.1729
219 2 9.89291 10.2216 8.98297
210 1 10.0169 10.9815 8.18876
131 2 5.64894 13.0365 12.8769
214 2 4.89015 12.2463 8.74737
43 1 11.3422 9.83514 14.5511
269 2 10.6949 8.95595 14.8341
264 2 9.15297 12.1121 15.6683
241 2 9.73619 10.0923 15.7397
215 2 8.27572 8.9425 8.24075
229 2 5.465 7.6839 13.9224
191 3 11.6109 6.69385 9.99145
ITEM: TIMESTEP
200
ITEM: NUMBER OF ATOMS
274
ITEM: BOX BOUNDS xy xz yz pp pp pp
-8.3797999999999995e+00 1.8013900000000000e+01 -8.3797999999999995e+00
0.0000000000000000e+00 1.3259926799999999e+01 1.1950000000000001e+00
0.0000000000000000e+00 1.6075500000000002e+01 4.3076880000000001e-01
ITEM: ATOMS id type x y z
119 2 6.70846 2.17538 4.9863
5 4 0.722925 2.14972 0.219766
7 4 1.39889 2.19028 5.10647
9 4 -0.137621 4.66796 1.9008
10 4 0.579771 4.22216 7.29206
222 3 6.4621 1.39768 1.09436
21 4 5.52928 2.32498 6.14191
26 4 5.47315 5.25237 7.23394
41 1 2.80805 0.833953 5.18588
44 1 4.17561 3.8404 2.05039
55 3 1.39122 0.871864 0.975268
56 3 -0.0674033 2.25942 4.45893
58 3 -1.34747 3.98587 2.69246
59 3 0.786795 3.57405 1.14624
243 2 3.95401 1.1134 1.90806
61 3 1.6499 3.27543 6.28399
62 3 -0.162558 5.39203 6.31808
74 3 5.50823 1.2964 7.29615
78 3 0.673829 5.66273 2.75831
81 3 5.4923 3.77607 6.67142
84 3 2.94619 6.22051 4.25586
85 3 4.55485 6.23748 6.34784
223 2 7.66109 0.435638 3.44787
111 2 2.57421 2.237 3.83329
112 2 -0.851801 5.66102 0.714148
113 2 -1.63249 5.90803 4.17606
118 2 4.23607 2.16933 4.98257
133 2 3.0926 0.440879 4.10007
19 4 7.04457 0.347328 7.64311
135 2 3.68316 0.87303 6.02001
141 2 3.28835 4.47285 2.29248
142 2 4.79254 3.6428 3.00044
143 2 3.88988 2.81843 1.42171
220 4 7.34869 0.302808 1.73996
24 4 5.1022 4.69612 0.680481
12 4 -0.7861 6.56027 5.45449
134 2 1.67072 0.209164 5.92886
60 3 -0.479573 3.25202 7.95944
227 3 4.06258 5.67793 0.0307652
138 2 2.57623 1.9589 13.2742
8 4 1.89321 2.67098 10.9741
13 4 -0.0738158 4.87972 12.3916
14 4 -1.66338 6.40649 10.2573
20 4 4.84291 3.62821 9.811
23 4 7.32436 3.01808 11.525
83 3 -0.185427 6.63447 9.68346
137 2 1.44692 0.693289 12.4575
42 1 2.33447 1.39864 12.2882
57 3 0.788179 1.89106 9.81058
63 3 -0.654894 4.32691 13.9806
64 3 1.04237 3.89744 11.7652
65 3 -2.87115 5.93722 9.29429
66 3 -1.37197 4.87122 11.3835
73 3 3.3969 3.16374 10.402
75 3 5.98023 3.60722 10.874
76 3 7.02832 1.48199 12.0742
80 3 4.93387 5.14126 9.11153
82 3 1.51402 5.10908 8.31369
195 2 5.35149 1.00553 15.7231
114 2 0.54345 6.42215 12.5993
117 2 5.17782 2.36288 8.73797
124 2 3.60257 5.21623 12.1068
136 2 3.21769 0.809122 11.8413
179 4 7.41994 2.33468 15.5274
183 1 5.97827 1.36566 14.8544
248 2 3.99582 3.51019 15.5344
123 2 5.0048 6.24528 10.346
29 4 3.66129 6.6509 11.2432
197 2 5.4254 2.09393 14.2242
77 3 6.97633 3.82704 15.5494
228 2 3.15968 6.58216 14.4638
245 1 3.18032 3.03806 14.9502
246 2 2.66877 3.68748 14.1289
247 2 3.51791 1.97774 14.6396
99 3 8.13567 1.28488 8.29876
196 2 6.51496 0.50686 14.2069
27 4 1.4311 6.47779 9.18523
110 2 -1.27491 3.44648 10.4533
6 4 -0.646601 2.38497 9.24659
262 3 0.381356 2.43307 15.4268
250 2 -2.242 5.92436 15.8928
1 4 -6.35276 12.3975 1.71069
3 3 -5.98791 11.0707 0.573794
155 2 1.21862 10.248 7.14924
16 4 -3.06905 8.49576 6.95046
17 4 -4.25973 10.3284 4.59254
251 1 -5.24636 8.52695 1.23858
46 1 1.74657 7.99498 7.99943
31 4 -1.67798 10.3951 2.79781
33 4 0.0564126 11.5311 5.37576
48 1 -1.03364 8.77583 2.03897
49 1 0.283746 10.0891 6.59628
244 2 -4.30026 12.5049 3.19444
68 3 -1.94557 7.50144 6.23844
69 3 -5.68422 9.75901 4.07348
70 3 -3.68282 9.61412 5.90884
79 3 0.448243 7.48799 4.76788
87 3 1.80157 8.02672 2.46942
154 2 -0.620646 10.0654 7.27972
89 3 -1.27663 11.6092 1.32957
90 3 -3.23293 10.3707 3.36528
93 3 -0.564486 10.8835 4.04507
94 3 -0.568901 12.6453 6.24666
115 2 -4.59705 11.9604 5.04641
147 2 1.77281 7.58433 6.94594
151 2 -1.35654 9.0047 0.905202
152 2 -1.74587 8.05621 2.61694
153 2 0.106848 8.45011 2.11563
265 2 -4.07568 12.1425 1.35058
2 3 -7.00978 11.9658 3.11517
156 2 0.284482 9.09216 5.90707
242 1 -4.5415 12.8629 2.12216
28 4 4.35165 6.69371 4.84058
253 2 -5.49088 9.06523 2.25394
25 4 1.45114 6.68672 3.67403
252 2 -4.34036 7.90987 1.34752
218 2 -6.06167 11.0426 7.50693
67 3 -4.22975 7.63277 7.56984
88 3 2.87405 8.03399 0.0011135
157 2 1.45988 9.96738 11.1342
18 4 -2.77546 8.18753 12.4139
22 4 -0.655144 12.879 12.0985
32 4 -2.70667 10.8203 8.8048
35 4 -1.30503 10.3766 14.0567
160 2 0.977092 10.8495 14.1678
139 2 -4.78105 9.71294 13.729
226 4 4.45244 7.223 15.2876
51 1 0.292405 10.3737 14.9973
161 2 0.607119 9.31004 15.2368
72 3 -2.08663 7.64014 11.1558
148 2 2.73435 8.42315 8.44229
95 3 4.015 7.87362 12.1707
92 3 -1.53472 11.8806 8.93838
50 1 2.49289 10.3734 11.1128
96 3 -1.5789 9.14413 13.0668
97 3 -1.29343 12.0487 13.2402
98 3 -2.74335 10.3946 15.2419
116 2 -4.07685 9.11994 11.7825
120 2 -1.1333 12.1578 10.68
126 2 -3.1795 10.4717 10.4195
187 3 1.00583 12.9279 12.1854
128 2 2.20053 9.84031 12.9447
91 3 -2.33452 9.47128 8.13823
162 2 0.196695 11.086 15.928
274 2 -7.09092 12.1923 8.75234
127 2 -4.11328 11.5349 8.2992
86 3 2.42182 6.81423 10.3554
15 4 -4.16294 10.3182 15.8988
71 3 -3.41692 7.16591 13.4863
149 2 0.872652 8.69693 8.1669
235 2 11.5425 0.911619 2.86584
37 4 13.184 1.99817 5.7004
38 4 6.81608 6.21458 3.01705
39 4 11.0136 4.07584 7.10455
45 1 7.25417 5.84918 7.07235
54 1 10.1886 5.30449 5.90497
101 3 14.1992 2.94782 4.87882
102 3 13.8383 1.18143 6.79913
103 3 6.21165 5.5433 1.57785
233 2 11.8696 1.00484 0.89813
106 3 11.9272 2.84173 6.12984
270 2 9.50709 0.337356 3.2424
129 2 12.5647 0.807446 4.68753
130 2 7.85526 5.07433 3.74884
255 2 10.3965 0.415908 5.05614
145 2 7.62653 5.49169 5.99885
267 2 11.9688 4.60738 0.838492
4 4 15.4144 2.64065 3.68077
169 2 10.257 4.79461 4.95723
224 2 9.54787 0.470142 1.16322
171 2 9.07745 5.44277 6.2572
221 1 9.12433 0.90418 2.24375
146 2 7.83972 5.34596 7.94243
225 2 9.24456 2.00986 2.34393
231 1 12.1954 1.23923 1.94802
232 3 14.8798 1.32546 2.83777
170 2 10.888 6.19671 5.95586
234 2 12.5719 2.28549 2.06426
107 3 12.0008 4.97729 7.97008
230 4 13.7298 0.207693 2.32369
249 1 12.1676 5.51501 0.142717
105 3 9.74442 3.45548 8.00401
104 3 5.6209 6.46104 4.02829
207 4 14.4636 0.290228 7.9572
11 4 12.5242 6.2903 8.63645
36 4 9.05164 2.41881 9.08713
52 1 10.456 1.47867 9.91435
193 2 11.7676 6.65444 15.4591
100 3 8.37033 2.98145 10.3951
164 2 10.9212 0.86089 9.13805
202 2 13.9074 3.53495 11.5837
182 4 10.3945 6.05172 10.904
203 2 8.79915 5.75158 10.2093
163 2 11.2914 2.18371 10.3705
188 3 8.79768 1.76412 14.6396
165 2 9.93331 0.888745 10.807
172 4 15.97 2.94248 14.5876
173 1 14.7799 1.62713 13.799
174 2 14.441 2.77955 15.3777
175 2 15.6937 1.29279 12.9995
176 2 13.9234 2.169 13.3822
199 2 11.7833 0.979436 15.078
178 4 13.0415 5.94228 14.3316
180 4 9.93262 1.31558 13.6363
181 4 11.7341 3.67564 12.6588
177 2 14.4657 0.74346 14.438
185 1 12.9247 3.16849 11.2364
263 3 15.0068 1.19094 9.18299
189 3 10.8478 2.39009 12.9993
190 3 12.7098 4.31108 13.9487
192 3 10.9055 4.89828 11.9109
121 2 7.82758 3.89042 12.8703
201 2 12.851 2.01858 11.1759
200 2 12.4671 3.78187 10.3645
191 3 11.4063 6.67748 9.86146
268 2 10.6795 7.87216 0.859587
30 4 2.88519 8.707 1.3953
217 2 6.5699 9.17895 7.83998
53 1 7.64492 7.88538 2.57734
266 2 11.8481 6.61825 0.582581
122 2 4.09928 8.35031 5.08835
125 2 4.45251 8.89831 2.07462
254 1 1.85435 12.187 4.85308
166 2 7.97445 7.84903 1.49404
168 2 6.84971 8.68747 2.75861
206 4 9.66847 10.5543 4.03784
167 2 8.54991 7.68697 3.34588
208 4 8.31475 10.8943 7.07066
209 1 7.59236 9.09943 7.37342
272 2 3.43901 11.0303 2.06003
211 3 9.09937 10.8169 5.40933
212 3 7.17336 11.9794 7.46387
213 2 8.67406 9.52618 3.13766
261 2 5.60384 12.3989 4.82082
216 2 7.50775 8.60899 6.32776
47 1 2.76597 10.6088 1.31823
239 2 6.87718 9.16276 0.459999
257 2 2.50577 11.5662 5.45177
237 1 7.58525 10.0805 0.371708
238 3 5.54258 12.0734 0.900906
240 2 7.82638 10.5412 1.39426
144 2 7.29643 7.02737 7.13107
256 2 2.16101 11.9835 3.74106
258 1 4.98152 11.9861 3.99697
259 2 5.42839 10.9547 3.67179
260 2 3.84208 11.9981 4.19547
271 2 3.09257 10.8119 0.253587
215 2 8.35757 8.63498 8.02199
150 2 1.64047 10.7728 1.45117
34 4 3.76871 9.43914 12.2564
40 4 6.04559 11.4242 13.0141
108 3 4.84872 10.4931 12.7391
109 3 6.6151 11.3474 14.5256
159 2 2.56606 11.5008 11.234
132 2 7.27417 11.0935 11.9601
158 2 3.18375 9.81734 10.1398
236 4 7.44552 11.7086 15.7998
186 1 9.0581 7.31036 11.3472
184 1 2.68215 13.0835 14.6785
198 2 3.18582 12.3183 14.0072
194 2 9.93077 7.80495 12.2182
204 2 8.98365 8.0444 10.4812
273 2 2.12097 12.5725 15.5493
140 2 10.4987 10.5827 14.4113
219 2 9.74978 10.2729 8.78776
210 1 9.86434 11.1672 8.12951
131 2 5.61227 13.0119 12.6474
214 2 4.88125 12.1721 8.69331
43 1 11.3116 9.81808 14.6187
269 2 10.8352 8.85179 14.8868
264 2 9.10838 12.1552 15.4568
241 2 9.74688 10.2805 15.7959
205 2 8.07267 7.19366 11.7965
229 2 5.51192 7.67119 14.0403
ITEM: TIMESTEP
300
ITEM: NUMBER OF ATOMS
274
ITEM: BOX BOUNDS xy xz yz pp pp pp
-8.3797999999999995e+00 1.8013900000000000e+01 -8.3797999999999995e+00
0.0000000000000000e+00 1.3253290200000000e+01 1.1950000000000001e+00
0.0000000000000000e+00 1.6075500000000002e+01 4.3055320000000002e-01
ITEM: ATOMS id type x y z
119 2 6.9 1.70329 5.30051
5 4 0.774633 2.15093 0.399267
7 4 1.31009 2.21901 5.02236
9 4 -0.008246 4.63955 1.90591
10 4 0.52799 4.29461 7.15032
222 3 6.68659 1.46621 1.0399
21 4 5.59292 2.22412 6.18798
26 4 5.52775 5.26626 7.22133
41 1 2.70527 0.684578 5.07043
44 1 4.17267 3.88118 1.9892
55 3 1.38654 0.848224 1.06402
56 3 -0.0584099 2.30167 4.37859
58 3 -1.28326 3.98445 2.65673
59 3 0.986699 3.50349 1.34629
243 2 3.85965 1.16824 2.21808
61 3 1.61134 3.25772 6.18241
62 3 -0.278131 5.3525 6.184
74 3 5.54027 1.31478 7.49586
78 3 0.74414 5.65549 2.79868
81 3 5.57855 3.76339 6.56714
84 3 2.89288 6.18292 4.21552
85 3 4.51154 6.20098 6.41376
223 2 7.43638 0.898221 3.47943
111 2 2.69871 2.40312 4.04227
112 2 -0.707926 5.50929 0.608691
113 2 -1.54001 5.88874 3.97501
118 2 4.27436 1.8221 5.14014
133 2 3.20478 0.499209 4.01766
19 4 7.09582 0.357699 7.71945
135 2 3.38118 0.635591 6.05949
141 2 3.31134 4.47933 2.31225
142 2 4.82532 3.53343 2.86699
143 2 3.78642 2.96253 1.24796
220 4 7.43182 0.422427 1.84994
24 4 5.12647 4.72338 0.613201
60 3 -0.479643 3.3684 7.94986
138 2 2.66261 1.86848 13.3802
8 4 1.82908 2.59531 10.9436
13 4 -0.0857483 4.88153 12.4207
14 4 -1.60776 6.40079 10.3037
20 4 4.81746 3.59346 9.75559
23 4 7.17166 3.06468 11.4436
227 3 5.39905 6.25392 15.9803
137 2 1.66125 0.640703 12.2345
42 1 2.47325 1.45252 12.1952
57 3 0.578674 1.82061 9.92469
63 3 -0.534474 4.32361 13.8889
64 3 1.12383 3.89573 11.9257
65 3 -2.64768 5.85609 9.22042
66 3 -1.38777 4.79104 11.4322
73 3 3.3914 3.1112 10.1655
75 3 5.71673 3.72482 11.0639
76 3 6.91446 1.57485 11.9851
80 3 5.02827 5.07817 9.10576
82 3 1.39288 5.07172 8.22167
195 2 5.51888 0.833664 15.836
114 2 0.473659 6.45524 12.6128
117 2 5.44473 2.40512 8.7594
124 2 3.83552 5.31695 12.3103
136 2 3.39261 1.05437 11.702
179 4 7.48599 2.43058 15.5296
183 1 6.12415 1.31739 14.9398
248 2 3.78341 3.80302 15.4747
123 2 4.85114 6.42543 10.0406
29 4 3.70219 6.61333 11.2531
197 2 5.43917 2.06182 14.4104
77 3 6.95508 4.02589 15.5232
228 2 2.95187 6.58264 14.9732
245 1 3.10727 2.99603 15.004
246 2 2.53588 3.36952 14.1139
247 2 3.62934 1.93177 14.9005
99 3 8.21309 1.42473 8.21606
196 2 6.44959 0.501619 14.2057
27 4 1.36986 6.50039 9.27228
110 2 -1.22445 3.56509 10.3958
6 4 -0.638831 2.43315 9.21539
262 3 0.289399 2.45098 15.6787
86 3 2.37349 6.60434 10.4473
1 4 -6.3202 12.4006 1.72609
3 3 -6.12595 11.2906 0.533066
155 2 1.27599 10.2897 7.03534
16 4 -2.98473 8.39015 6.91512
17 4 -4.23628 10.3465 4.62772
251 1 -5.33137 8.62136 1.29852
67 3 -4.13514 7.4646 7.52245
31 4 -1.57171 10.3371 2.8287
33 4 0.113898 11.4055 5.4425
48 1 -1.16916 8.66909 2.07473
49 1 0.225863 9.87051 6.52609
244 2 -4.23159 12.3557 3.11028
68 3 -1.86249 7.55055 6.10456
69 3 -5.66618 9.86394 4.13778
70 3 -3.60886 9.47455 5.79101
79 3 0.464909 7.29171 4.9915
87 3 1.82557 8.07075 2.63635
154 2 -0.677706 9.76628 7.21773
89 3 -1.27305 11.6797 1.54527
90 3 -3.05833 10.346 3.4909
93 3 -0.504006 10.8368 4.03697
94 3 -0.835921 12.491 6.28637
115 2 -4.44403 11.9525 5.2178
147 2 1.37984 7.79025 7.12392
151 2 -1.43013 8.57527 0.987214
152 2 -1.75119 8.00681 2.71476
153 2 -0.0589265 8.5754 2.19359
265 2 -3.85303 12.5323 1.28516
2 3 -7.0398 11.9394 3.11915
156 2 0.400753 8.89246 5.83719
12 4 -0.828691 6.5655 5.41483
28 4 4.16833 6.79029 4.99955
253 2 -5.4507 9.12196 2.34663
25 4 1.54153 6.81028 3.50848
252 2 -4.2472 8.24715 1.06279
218 2 -6.21054 11.1066 7.68006
127 2 -3.84511 11.4732 7.69939
148 2 3.01773 7.65818 7.88014
30 4 2.73516 8.83681 1.45185
134 2 -6.86941 12.8751 5.35806
242 1 -4.48735 12.8771 2.15298
157 2 1.46147 10.0658 11.1141
18 4 -2.62531 8.15308 12.5043
22 4 -0.722389 12.9558 12.0278
32 4 -2.67025 10.786 8.70287
35 4 -1.48502 10.3512 14.1889
160 2 0.827844 10.7992 14.2383
139 2 -4.78418 9.23974 13.6201
226 4 4.41382 7.29003 15.337
51 1 0.162409 10.324 15.0165
161 2 0.325451 9.16427 15.1797
72 3 -2.16978 7.58919 11.1225
149 2 1.8333 8.98414 8.47465
95 3 3.82528 7.958 12.1945
92 3 -1.53055 11.8026 8.99644
50 1 2.5414 10.4267 11.0124
96 3 -1.52618 9.03462 13.2369
97 3 -1.32559 11.9434 13.0842
98 3 -2.69902 10.3678 15.3661
116 2 -3.90892 9.19929 12.1605
120 2 -1.06108 12.2971 10.4684
126 2 -3.68841 10.593 10.0619
187 3 0.874434 13.0147 12.1104
128 2 2.19833 10.0184 12.8897
91 3 -2.26756 9.3755 8.16507