ITEM: TIMESTEP
0
ITEM: NUMBER OF ATOMS
274
ITEM: BOX BOUNDS xy xz yz pp pp pp
-8.3797999999999995e+00 1.8013900000000000e+01 -8.3797999999999995e+00
0.0000000000000000e+00 1.3273200000000001e+01 1.1950000000000001e+00
0.0000000000000000e+00 1.6075500000000002e+01 4.3120000000000003e-01
ITEM: ATOMS id type q x y z
119 2 -0.00430576 7.37526 1.23518 5.25322
12 4 1.32239 -0.870909 6.3079 5.31647
7 4 1.14708 0.920894 2.09119 5.10743
9 4 1.24686 -0.422304 4.69065 1.86353
10 4 1.60781 0.372093 4.30644 7.31615
242 1 -0.676458 3.2936 0.584475 2.89345
21 4 0.808633 5.74105 1.46597 5.6585
26 4 1.26594 5.45717 4.55075 6.8884
41 1 -0.651264 0.754564 0.419044 5.99651
44 1 -0.66675 4.14965 3.77198 1.7531
55 3 -0.811344 1.11186 0.899791 1.07573
56 3 -0.843998 -0.36477 2.34832 4.32122
58 3 -0.78699 -1.75035 4.45071 2.76404
59 3 -0.831363 -0.0398458 3.36975 1.10913
243 2 0.159851 3.44574 1.7237 2.84851
61 3 -0.780314 1.19579 3.06768 6.2823
62 3 -0.852736 -0.624353 5.22379 6.42569
74 3 -0.790243 5.49457 0.393369 7.29962
78 3 -0.859426 0.74192 5.4181 2.67125
81 3 -0.777132 5.78223 2.98415 5.98138
84 3 -0.80825 2.99553 5.82697 4.14497
85 3 -0.832046 5.02397 5.78172 5.95211
113 2 0.110628 -1.45835 5.38447 3.98952
111 2 -0.00472518 2.27113 1.88708 4.0131
112 2 -0.0212 -0.962387 5.56263 0.529897
5 4 1.35853 0.371247 2.02738 0.227848
118 2 -0.0308404 4.53757 1.07611 4.32878
24 4 1.29593 4.95359 4.93586 0.439556
222 3 -0.787215 6.2497 1.35716 1.11943
223 2 -0.0992495 6.22703 0.867697 3.89463
141 2 0.194712 4.46764 2.69365 1.65969
142 2 0.190067 3.02201 3.93733 1.66115
143 2 0.189232 4.56617 4.30483 2.68781
220 4 1.01825 6.72519 0.241763 2.22281
135 2 0.244275 0.578529 0.594354 7.0986
82 3 -0.822993 1.51881 5.26651 7.92498
267 2 0.171267 -3.66096 6.26892 0.406547
244 2 0.12263 3.0248 0.174358 3.94263
138 2 0.172251 1.56067 0.744134 12.3912
8 4 1.2567 1.85377 2.68574 10.9737
13 4 1.23629 0.404794 4.95639 12.3105
229 2 -0.0378213 3.61064 6.37989 13.4966
20 4 1.29109 4.44144 2.89803 9.20296
23 4 1.2533 6.9386 2.93318 11.1909
99 3 -0.821677 7.9036 1.25761 8.40017
226 4 0.913724 3.52429 6.38263 15.1746
42 1 -0.658868 2.32239 1.5448 12.4098
57 3 -0.822094 0.43769 2.07572 10.382
63 3 -0.86395 -0.340257 3.91674 13.3556
64 3 -0.830473 1.83622 4.3766 11.9884
65 3 -0.827254 -2.38818 6.30293 9.54181
66 3 -0.878427 -0.515562 5.3899 11.0602
73 3 -0.829271 3.12022 2.56812 9.96057
75 3 -0.860841 5.69766 2.92454 10.2184
76 3 -0.841993 7.08537 1.60524 12.0438
80 3 -0.793973 4.48281 4.12681 8.18656
123 2 -0.0526674 5.1666 6.00262 10.8331
137 2 0.172914 3.33331 1.13195 12.0166
114 2 -0.0295307 0.789442 6.32667 13.2582
248 2 0.169683 3.52164 3.94964 15.8902
124 2 0.0582283 3.25893 5.21513 12.0746
136 2 0.177232 2.5007 2.16767 13.451
179 4 1.25595 7.24098 2.43971 15.6814
183 1 -0.669144 5.86945 1.49881 14.809
77 3 -0.747637 6.92659 4.16882 15.6921
60 3 -0.846417 -0.474363 3.49288 8.35773
196 2 0.181042 5.35728 2.21835 14.2122
117 2 0.110626 4.85345 1.45918 8.31862
227 3 -0.835922 4.90589 5.95077 15.7567
195 2 0.287801 6.39802 0.598733 14.2062
245 1 -0.679701 2.99421 3.21647 15.1884
246 2 0.158066 2.64565 3.7133 14.2363
247 2 0.171234 3.73742 2.39459 14.9381
262 3 -0.829843 0.332272 2.03789 15.369
228 2 -0.0227955 2.42613 5.11969 15.2886
14 4 1.56157 -0.990419 6.61829 10.2676
29 4 0.954947 3.65172 6.58993 11.1706
266 2 0.0937312 -1.59069 4.8253 15.8203
121 2 -0.0213482 6.74854 4.2489 12.2576
197 2 0.192265 5.29069 1.16496 15.7809
86 3 -0.829045 2.73407 6.60447 9.92363
27 4 1.36733 1.78263 6.64227 8.69417
15 4 1.03115 -5.17511 10.1581 0.0284757
3 3 -0.786448 -5.74092 11.5133 0.967686
268 2 0.23355 -4.38982 8.65074 1.56036
16 4 1.50821 -3.09373 7.97488 6.56486
17 4 1.24248 -4.49623 9.87467 4.72632
154 2 0.17109 1.07727 9.54171 7.27848
161 2 0.189033 -0.983851 10.0789 0.503756
31 4 1.21456 -2.0736 10.2075 2.97162
33 4 1.16018 -0.0589194 11.071 5.50767
48 1 -0.655185 -0.99241 8.88163 2.07454
49 1 -0.633345 0.1378 9.46859 6.57262
272 2 0.175223 0.800239 10.3225 0.346656
68 3 -0.863699 -1.87127 7.40807 5.65391
28 4 1.28497 4.21536 6.56153 4.91333
70 3 -0.825578 -4.22226 8.71352 5.73358
79 3 -0.847523 0.567658 7.09686 4.86674
87 3 -0.815838 1.97382 7.83524 2.62123
30 4 1.02412 2.31539 8.2206 1.10573
89 3 -0.763424 -2.06047 11.6222 1.88737
90 3 -0.812149 -3.55359 9.73837 3.3139
93 3 -0.81485 -1.01775 10.6692 4.29481
94 3 -0.808952 -0.539052 12.1423 6.54333
115 2 -0.0378913 -4.03097 11.2986 5.50983
147 2 0.185 2.05724 7.52188 6.52288
151 2 0.185696 0.00644404 9.38375 1.56015
152 2 0.161086 -1.62503 8.42768 1.25377
153 2 0.194907 -0.817708 8.20562 3.01825
251 1 -0.670879 -5.32591 8.5341 0.951386
155 2 0.280244 0.23433 8.54924 5.85781
156 2 0.29817 -0.926382 9.3979 7.12251
46 1 -0.671346 2.59995 7.95251 7.48116
148 2 0.167353 3.69692 7.67343 7.58859
265 2 0.193436 -4.25197 12.8225 2.43286
19 4 1.3601 -1.33312 12.8326 7.85669
1 4 1.29541 -6.53924 12.526 1.9059
69 3 -0.802784 -6.01343 9.93971 4.32228
91 3 -0.820738 -2.41525 9.32328 7.81287
271 2 0.17154 1.75564 10.434 1.98743
47 1 -0.667403 1.77714 10.0502 0.958638
25 4 1.42154 1.58706 6.55171 3.57003
122 2 0.0109183 3.57705 7.92472 5.791
149 2 0.144146 2.38553 9.10864 7.61191
133 2 0.140556 -6.54265 12.8413 5.82168
270 2 0.183806 0.588865 12.115 1.71841
159 2 0.193034 1.10828 9.70949 11.5158
18 4 1.22621 -1.93069 8.33392 12.8931
22 4 1.18641 -0.668922 12.9684 12.183
32 4 0.95538 -2.25361 10.2485 9.042
35 4 1.18736 -1.21026 10.6867 14.5043
50 1 -0.650687 2.00582 10.3963 11.7131
160 2 0.153101 1.09091 10.8936 14.7839
158 2 0.241033 1.60032 11.4479 12.0722
51 1 -0.633025 0.252588 11.2309 15.5242
162 2 0.227345 0.167233 12.3564 15.638
72 3 -0.828669 -1.46252 7.96864 11.3902
83 3 -0.783009 0.116057 7.14801 9.21939
88 3 -0.785431 2.93055 7.71824 15.8671
92 3 -0.802013 -1.20242 11.3939 8.96965
95 3 -0.797621 3.64879 7.95372 12.0081
96 3 -0.794265 -0.889657 9.08144 13.7778
97 3 -0.794685 -1.49396 12.0601 13.2221
98 3 -0.784038 -2.5003 10.7594 15.4083
116 2 -0.046248 -3.40839 9.14672 12.6924
120 2 0.0297379 -0.695721 12.1967 10.6843
126 2 0.0711295 -1.91684 9.20631 10.3753
127 2 -0.0468747 -3.81161 10.752 9.42328
128 2 0.0402822 2.14943 9.85413 13.5357
139 2 0.164998 -4.3952 10.995 13.6586
187 3 -0.79573 0.91779 12.955 12.651
43 1 -0.662525 -5.41795 10.9178 14.1418
71 3 -0.846104 -2.37068 7.02219 13.6579
140 2 0.180322 -5.63558 11.8355 14.7133
235 2 0.163432 11.5676 1.3061 2.88034
37 4 1.27457 12.9885 1.99468 5.6344
221 1 -0.651448 8.60957 0.273993 2.04274
39 4 1.26378 11.2397 3.94265 7.48412
45 1 -0.660942 7.13351 5.12681 7.57796
54 1 -0.662012 10.5205 5.38327 6.55
101 3 -0.815263 13.9003 2.96946 4.79713
102 3 -0.850864 13.8235 1.08148 6.59441
250 2 0.180121 11.9338 4.65367 0.458325
4 4 1.45879 14.996 2.72619 3.67788
106 3 -0.789745 11.8742 2.93601 6.37502
232 3 -0.802769 14.429 1.4913 2.72362
129 2 -0.00842532 11.9848 1.07481 4.53978
130 2 0.0746833 7.65181 5.85509 3.35369
169 2 0.249807 10.9994 6.37438 6.78828
207 4 1.24693 14.4695 0.326107 7.83836
146 2 0.193647 7.84856 4.44923 7.05703
103 3 -0.798855 5.89096 6.18144 1.21274
145 2 0.158414 7.36935 6.24593 7.38403
170 2 0.178357 9.4157 5.34081 6.81183
171 2 0.189239 10.7804 4.96578 5.45187
225 2 0.115101 8.80617 0.522978 3.21792
224 2 0.177192 9.0413 1.07162 1.38943
231 1 -0.648771 11.7726 0.229141 2.77737
273 2 0.180715 9.33075 0.202628 0.0969628
11 4 1.48473 13.059 6.02134 8.74315
36 4 1.24569 8.99666 2.25869 9.22474
52 1 -0.689425 10.2968 1.21043 10.0875
186 1 -0.665773 8.82034 6.15137 9.86454
100 3 -0.801482 8.30757 3.27637 10.3817
107 3 -0.789432 12.7101 4.40815 8.65194
110 2 0.0102344 14.7519 2.79914 10.4789
105 3 -0.795935 9.93635 3.29466 8.14665
202 2 0.172834 14.0062 3.7096 11.8234
163 2 0.176088 11.1359 2.00546 10.1445
144 2 0.194458 7.04349 4.89791 8.7352
165 2 0.231629 9.94449 0.805367 11.0756
172 4 0.999875 16.1065 2.61629 14.1679
173 1 -0.662027 14.3795 1.6926 13.6759
174 2 0.062673 14.4365 2.94138 14.9724
175 2 0.0592569 15.6567 1.20306 13.0235
176 2 0.167885 13.8598 2.23922 12.8778
184 1 -0.658062 10.9617 0.662469 15.0693
178 4 1.10899 13.9335 5.74588 14.3687
180 4 1.24546 9.88992 1.58895 13.881
181 4 1.30155 11.8601 3.98023 12.6702
205 2 0.203378 9.22065 5.15999 9.11705
185 1 -0.686971 13.0581 3.23796 11.3086
177 2 0.175278 13.7208 0.840721 14.0923
189 3 -0.777309 10.808 2.79762 13.2885
190 3 -0.802927 12.8158 4.73603 13.7555
192 3 -0.763518 11.1102 5.08758 11.7305
263 3 -0.845918 15.577 1.01732 8.69487
199 2 0.173557 11.9609 1.19628 14.9621
200 2 0.267531 12.8562 3.62254 10.2188
201 2 0.124221 12.8977 2.09896 11.5485
182 4 1.02492 10.5621 6.2237 10.6024
204 2 0.168597 8.23047 5.76705 10.7453
6 4 1.32517 16.0381 2.35191 9.3862
164 2 0.154056 10.3966 0.391481 9.23915
188 3 -0.75985 8.61372 2.09225 14.724
249 1 -0.645848 14.066 5.66186 16.0516
237 1 -0.668663 7.75062 10.6967 0.173139
257 2 0.158755 2.33971 10.9715 5.85662
167 2 0.172494 8.89989 7.07153 1.83891
53 1 -0.645377 8.23918 7.33349 2.67975
104 3 -0.789864 5.16134 7.1535 3.85553
134 2 0.247777 8.42772 12.6953 5.46272
125 2 -0.00944633 3.97307 8.37229 0.815038
2 3 -0.82117 9.32754 11.7866 3.13735
166 2 0.0314642 7.3248 8.53641 2.06848
168 2 0.169082 8.89749 7.70984 3.53288
206 4 1.22369 9.32321 10.3809 3.85789
215 2 0.162267 4.94886 9.60844 6.98421
208 4 1.02964 7.41474 10.3722 6.64907
209 1 -0.664496 5.85962 9.18903 6.47797
255 2 0.150005 1.61427 12.5205 4.98746
211 3 -0.767279 8.40852 10.3397 5.13367
212 3 -0.7672 6.68925 11.7902 7.29092
213 2 -0.0112923 8.97652 9.1741 2.7066
254 1 -0.678825 1.74339 11.3948 5.03264
216 2 0.160257 6.17969 8.25624 6.95547
217 2 0.180139 5.70786 9.03182 5.33656
230 4 1.09948 5.35446 12.8695 2.599
234 2 0.185519 3.16243 12.7158 1.67722
253 2 0.154247 11.5074 7.64138 0.230441
238 3 -0.792758 5.42968 12.0943 1.09009
240 2 0.168113 8.05037 10.9622 1.25345
38 4 0.966091 6.3458 6.95343 2.46496
233 2 0.155227 2.83369 12.4003 3.66321
258 1 -0.695958 5.78035 11.7157 4.08908
259 2 0.166554 6.58995 11.0245 3.64565
260 2 0.157904 4.81466 11.2182 4.30107
261 2 0.223189 6.21782 12.2654 4.93941
274 2 0.199575 9.50277 9.60744 7.70546
150 2 0.149656 2.75872 10.4087 0.388518
252 2 0.151726 10.4573 8.67628 1.51989
256 2 0.150156 2.02139 10.9326 3.97623
239 2 0.0984941 7.03245 9.52679 0.0611419
67 3 -0.836249 13.0757 6.7471 7.2725
198 2 0.173462 2.61682 12.4514 14.6111
40 4 0.92241 5.92209 11.4907 12.9209
108 3 -0.839401 4.69135 10.6065 12.8154
109 3 -0.780903 6.63939 11.6211 14.3111
214 2 -0.0505913 4.89377 12.6989 8.90337
132 2 -0.0445662 6.88582 11.0506 11.6505
236 4 0.992835 7.33205 11.941 15.8866
203 2 0.163274 8.34992 6.93033 9.24635
131 2 -0.0218271 5.60355 13.0574 12.4133
193 2 0.0581133 11.3192 9.66496 15.12
218 2 0.125598 7.77601 8.7584 8.23918
194 2 0.00281063 9.44303 7.32232 11.3151
241 2 0.1726 9.88346 10.9953 15.4963
269 2 0.161316 10.5837 10.7866 13.4498
264 2 0.116653 8.76239 12.9772 15.7122
219 2 0.182261 8.43222 10.5683 8.86539
34 4 1.00253 3.55508 9.62049 12.4888
191 3 -0.780697 11.6663 6.81354 9.6142
157 2 0.120326 2.70845 10.4495 10.5719
210 1 -0.644787 8.49221 9.75091 8.0876
ITEM: TIMESTEP
100
ITEM: NUMBER OF ATOMS
274
ITEM: BOX BOUNDS xy xz yz pp pp pp
-8.3797999999999995e+00 1.8013900000000000e+01 -8.3797999999999995e+00
0.0000000000000000e+00 1.3239562200000000e+01 1.1950000000000001e+00
0.0000000000000000e+00 1.6075500000000002e+01 3.9756219999999942e-01
ITEM: ATOMS id type q x y z
119 2 -0.00181017 7.4246 1.10154 5.223
12 4 1.32064 -0.87105 6.39483 5.25806
7 4 1.13816 0.844812 2.12147 5.06202
9 4 1.25509 -0.461306 4.67793 1.79325
10 4 1.60111 0.426132 4.34035 7.17429
242 1 -0.69311 3.34972 0.52166 3.04907
21 4 0.83574 5.83971 1.36761 5.66527
26 4 1.19091 5.42782 4.38288 6.89951
41 1 -0.664126 0.751616 0.458152 5.9943
44 1 -0.683529 3.97599 4.0327 1.97834
55 3 -0.838038 1.10824 0.878549 1.20677
56 3 -0.853153 -0.509046 2.28525 4.32231
58 3 -0.804442 -1.71793 4.46558 2.74176
59 3 -0.862054 0.0981122 3.3866 1.06163
243 2 0.165035 3.58004 1.58172 3.01646
61 3 -0.808192 1.14625 3.27855 6.08923
62 3 -0.859856 -0.539353 5.37749 6.41711
74 3 -0.780305 5.60945 0.280813 7.30352
78 3 -0.878057 0.70704 5.35102 2.63933
81 3 -0.789439 5.60752 2.82302 5.95155
84 3 -0.817263 2.97479 5.9342 4.09144
85 3 -0.785939 4.80643 5.62734 5.78461
113 2 0.11366 -1.43275 5.40425 3.96907
111 2 0.00193558 2.24 1.85919 4.04142
112 2 -0.0143559 -0.826087 5.96876 0.742485
5 4 1.3922 0.500953 2.04346 0.322086
118 2 -0.0175117 4.67802 0.938582 4.46253
24 4 1.25332 4.72566 4.8777 0.432067
222 3 -0.764015 6.26371 1.47386 1.06244
223 2 -0.0806152 6.3275 0.772829 3.82283
141 2 0.179637 4.28891 2.99907 1.96542
142 2 0.190395 2.79636 4.1544 1.86795
143 2 0.225504 4.44725 4.63028 2.77237
220 4 1.0153 6.81489 0.369642 2.11919
135 2 0.22171 0.813217 0.739723 7.08631
25 4 1.45787 1.58287 6.41919 3.44688
267 2 0.176341 -3.5067 6.25395 0.253883
248 2 0.16111 2.23378 3.53577 0.0846419
138 2 0.151669 1.14415 0.881627 12.698
8 4 1.18166 1.85388 2.65721 11.1798
13 4 1.27664 0.354835 4.93902 12.4195
229 2 -0.0348152 3.49278 6.44324 13.3327
20 4 1.31716 4.56681 2.77568 9.30843
23 4 1.28974 7.001 2.9681 11.2072
99 3 -0.810634 7.86071 1.15483 8.55349
226 4 0.936259 3.41131 6.34007 15.1058
42 1 -0.66241 2.12067 1.52941 12.602
57 3 -0.781654 0.291046 2.25982 10.5097
63 3 -0.851873 -0.36019 3.89308 13.3969
64 3 -0.828388 1.77977 4.41835 11.9399
65 3 -0.863499 -2.28658 6.24113 9.57182
66 3 -0.849952 -0.683704 5.36745 11.3729
73 3 -0.769181 3.2337 2.39753 10.0115
75 3 -0.859297 5.6703 2.99359 10.3648
76 3 -0.843607 7.00425 1.57745 11.9168
80 3 -0.759078 4.55251 4.04681 8.35313
86 3 -0.795731 2.81747 6.58478 9.99179
137 2 0.167506 3.03141 0.933918 12.1922
114 2 -0.0319173 0.746562 6.33401 13.3683
197 2 0.164214 5.26674 1.32929 15.4622
124 2 0.0648296 3.28212 5.18553 11.9935
136 2 0.18666 2.46835 2.1397 13.6511
179 4 1.27051 7.32393 2.55901 15.4714
183 1 -0.676167 5.90484 1.68576 14.5685
77 3 -0.742428 6.91365 4.1019 15.5656
60 3 -0.81927 -0.40998 3.5205 8.29467
196 2 0.174298 5.42849 2.4743 13.933
117 2 0.109168 5.06407 1.37395 8.42275
227 3 -0.844469 4.76887 5.84858 15.5796
195 2 0.251847 6.17225 0.71244 13.9915
245 1 -0.652465 3.09208 3.25603 15.2352
246 2 0.151789 2.6641 3.77802 14.3451
247 2 0.156671 4.10217 2.57897 14.961
262 3 -0.799087 0.612992 2.09489 15.3331
228 2 -0.0202746 2.22023 5.12516 15.3155
14 4 1.46792 -0.943742 6.58978 10.2856
29 4 0.906565 3.7911 6.61725 11.2608
266 2 0.0718032 -1.55289 4.63991 15.4992
27 4 1.4229 1.68318 6.53784 8.89035
121 2 -0.0132029 6.85395 4.10237 12.4421
82 3 -0.784941 1.59262 5.15464 8.04679
270 2 0.170132 0.414785 12.1231 1.39296
3 3 -0.767844 -5.8226 11.255 1.05797
268 2 0.226373 -4.81355 8.63327 1.92225
16 4 1.46345 -3.18724 7.91844 6.52661
17 4 1.23904 -4.48557 9.83957 4.74471
154 2 0.165299 0.825268 9.32197 7.5504
161 2 0.186776 -1.03393 10.13 0.340275
31 4 1.2612 -1.98424 10.3304 3.00322
33 4 1.09665 0.115935 10.9842 5.56706
48 1 -0.649037 -1.09801 8.93841 1.98729
49 1 -0.663015 0.043781 9.37307 6.65277
272 2 0.17459 0.809396 10.2791 0.271477
68 3 -0.85246 -1.90626 7.51318 5.57768
28 4 1.23055 4.18549 6.63711 4.84201
70 3 -0.81548 -4.39294 8.57053 5.66106
79 3 -0.826017 0.552555 7.06328 4.84113
87 3 -0.796673 1.933 7.71839 2.51722
30 4 0.951542 2.55604 8.29456 1.14399
89 3 -0.785647 -2.1329 11.7467 2.00595
90 3 -0.82785 -3.3625 9.79644 3.55588
93 3 -0.781266 -0.852344 10.7064 4.22136
94 3 -0.818883 -0.384711 12.2087 6.50616
115 2 -0.0190693 -4.1197 11.1779 5.74025
147 2 0.224809 1.77941 7.5055 6.5214
151 2 0.197803 -0.0906786 9.34548 1.55466
152 2 0.173227 -1.87777 8.71151 1.18359
153 2 0.189184 -1.06296 8.13849 2.877
251 1 -0.655866 -5.40662 8.47132 0.995042
155 2 0.273122 0.214557 8.55717 5.87013
156 2 0.273852 -1.07729 9.29184 7.08864
46 1 -0.655974 2.361 7.78191 7.45442
148 2 0.167755 3.45972 7.45582 7.53956
133 2 0.176319 -6.73141 12.7029 5.57776
19 4 1.36538 -1.30448 12.6425 7.85862
1 4 1.29456 -6.57641 12.5669 2.06803
69 3 -0.809617 -6.05037 10.1966 4.32882
91 3 -0.849153 -2.59216 9.28207 7.79916
122 2 0.00650715 3.55143 7.85184 5.85355
47 1 -0.65057 1.77467 9.97329 0.905395
149 2 0.146076 2.13616 8.85804 7.8205
244 2 0.141064 -5.32594 12.8363 4.0525
253 2 0.163571 -4.96703 7.68018 0.294084
265 2 0.204252 -4.26501 12.6925 2.50897
271 2 0.165189 1.59159 10.1652 2.0393
159 2 0.204417 1.00613 9.82919 12.0211
18 4 1.22295 -1.97396 8.3204 12.8798
22 4 1.21259 -0.594063 13.0371 12.0434
32 4 0.969704 -2.37992 10.1506 9.0237
35 4 1.2297 -1.25259 10.8006 14.3184
50 1 -0.663602 1.89424 10.5785 11.878
160 2 0.159564 1.09545 11.0269 14.754
158 2 0.237687 1.58443 11.7017 12.0964
51 1 -0.641998 0.218923 11.28 15.4581
162 2 0.203015 0.0998791 12.3758 15.7476
72 3 -0.800037 -1.32839 8.12503 11.4913
83 3 -0.860392 0.333027 7.14857 9.37897
88 3 -0.733358 2.93992 7.66492 15.8033
92 3 -0.84632 -1.54994 11.4834 9.15688
95 3 -0.786347 3.6164 8.09671 12.0079
96 3 -0.780704 -0.946939 9.2491 13.7206
97 3 -0.828076 -1.25684 12.0248 13.1209
98 3 -0.771312 -2.62752 10.6757 15.309
116 2 -0.0413241 -3.24352 9.34836 12.6139
120 2 0.0785737 -0.832372 12.2663 10.5583
126 2 0.0893817 -1.73347 9.07621 10.2043
127 2 -0.0331665 -3.84602 10.5958 9.81198
128 2 0.0375445 2.33348 10.0311 13.6824
139 2 0.170037 -4.18609 11.0716 13.6632
140 2 0.169717 -5.51142 12.0476 14.5489
43 1 -0.647146 -5.25603 11.0865 14.0479
71 3 -0.82317 -2.47124 6.94478 13.6052
157 2 0.122136 2.36633 10.5757 10.6775
269 2 0.146045 -5.93041 11.0431 13.1018
15 4 1.04631 -4.11636 10.6104 16.073
235 2 0.166995 11.5158 1.39405 3.05598
37 4 1.29815 13.0179 2.06431 5.70663
221 1 -0.674477 8.69756 0.216273 2.11315
39 4 1.26578 11.2497 3.93999 7.39144
45 1 -0.666257 7.03841 4.96752 7.61079
54 1 -0.674053 10.4965 5.49243 6.5967
101 3 -0.813651 13.9596 3.05084 4.8457
102 3 -0.85834 13.7141 1.16836 6.79297
250 2 0.187087 12.0959 4.86765 0.527092
4 4 1.45618 14.9535 2.73444 3.64952
106 3 -0.809695 11.8472 2.90944 6.29488
232 3 -0.796654 14.2838 1.5025 2.74267
129 2 -0.00311099 12.0994 1.04757 4.56088
130 2 0.0282084 7.60755 5.7312 3.33296
169 2 0.197942 10.6635 6.27599 7.37669
207 4 1.22712 14.5665 0.31056 7.80576
146 2 0.1586 7.78183 4.34593 6.93174
103 3 -0.789815 5.66657 6.0242 1.288
145 2 0.148111 7.15993 6.13891 7.52138
170 2 0.166023 9.41725 5.24161 6.44454
171 2 0.211942 11.0363 5.71421 5.65318
273 2 0.177304 9.44765 0.365405 0.138687
224 2 0.165562 9.10181 1.19758 1.76404
231 1 -0.673537 11.6705 0.307949 2.79909
11 4 1.50679 13.1149 6.0228 8.88309
36 4 1.27609 8.97764 2.28909 9.07875
52 1 -0.676768 10.2619 1.1234 9.71742
186 1 -0.665212 8.87938 6.1049 9.86201
100 3 -0.814566 8.27329 3.28942 10.3341
107 3 -0.791199 12.5241 4.42936 8.74089
110 2 0.0168077 14.4737 2.94455 10.1149
105 3 -0.804052 9.95538 3.20378 8.11399
202 2 0.183152 13.8787 3.76166 11.9323
163 2 0.183398 11.2523 1.59479 9.63564
144 2 0.209399 7.0047 4.62085 8.72966
165 2 0.230246 9.97589 0.841137 10.7758
172 4 0.965985 16.1412 2.5174 14.1492
173 1 -0.639681 14.3873 1.67734 13.7756
174 2 0.0769997 14.4538 2.58766 15.1358
175 2 0.0166094 15.908 1.09795 12.9535
176 2 0.170904 13.7456 2.24998 12.9123
184 1 -0.664956 11.0584 0.780703 15.113
178 4 1.0775 13.9181 5.57228 14.3459
180 4 1.2971 9.97907 1.69809 13.9042
181 4 1.35776 11.6874 3.99466 12.6657
205 2 0.201868 9.2281 5.17057 9.12646
185 1 -0.690838 12.9742 3.30071 11.3117
177 2 0.170593 13.7379 0.739542 14.1672
189 3 -0.818053 10.9113 2.7625 13.1624
190 3 -0.791759 12.7295 4.56042 13.8081
192 3 -0.781717 10.8476 5.22504 11.9266
263 3 -0.855111 15.6365 1.07783 8.7216
199 2 0.182336 12.0955 1.1768 15.0544
200 2 0.271468 12.7671 3.74485 10.2786
201 2 0.138959 12.8998 2.16284 11.3455
182 4 1.02824 10.6167 6.1672 10.6282
204 2 0.172095 8.06601 5.83711 10.6255
6 4 1.30698 15.969 2.42165 9.38197
249 1 -0.645021 14.1939 5.653 16.0605
188 3 -0.802837 8.77222 2.27014 14.6862
187 3 -0.791303 9.36743 0.460923 12.4601
123 2 -0.0467327 5.40179 6.31377 10.812
237 1 -0.653799 7.83051 10.3924 0.0159898
257 2 0.128659 2.21221 10.3946 5.95365
167 2 0.175267 8.96456 6.99942 2.06166
53 1 -0.648821 8.13543 7.39193 2.66941
104 3 -0.805011 5.26725 7.32763 3.68441
134 2 0.265591 8.24381 12.8468 5.71272
125 2 -0.0074075 4.24993 8.26083 1.2771
225 2 0.171802 0.701758 12.7792 3.15891
166 2 0.0731121 7.39074 8.51585 1.98136
168 2 0.148874 8.39394 7.65542 3.74453
206 4 1.27216 9.26807 10.5218 3.98705
215 2 0.155931 5.09868 9.25771 7.02277
208 4 1.04794 7.37755 10.31 6.67721
209 1 -0.684398 5.86047 9.16875 6.25985
255 2 0.148619 2.36536 12.2336 5.29646
211 3 -0.778206 8.36819 10.5629 5.26407
212 3 -0.782373 6.72286 11.7808 7.09219
213 2 -0.00532918 8.67414 9.20423 3.0624
254 1 -0.667358 1.94365 11.1678 5.02587
216 2 0.155673 6.31254 8.14847 6.23417
217 2 0.182442 5.46836 9.45223 5.25789
230 4 1.08217 5.23793 12.8658 2.50866
234 2 0.173803 3.02404 12.8353 1.74868
67 3 -0.82271 13.122 6.646 7.3056
238 3 -0.775104 5.68803 12.1057 1.02433
240 2 0.165485 8.07462 10.4074 1.08573
38 4 1.00796 6.27856 6.75694 2.57378
233 2 0.158523 2.81763 12.4871 3.63189
258 1 -0.645826 6.00063 11.8319 3.90727
259 2 0.166335 6.59995 10.9346 3.48559
260 2 0.11695 4.8554 11.4767 4.24506
261 2 0.23132 6.4974 12.3994 4.70596
274 2 0.176965 9.31437 9.0508 7.62885
150 2 0.144316 2.74639 10.5354 0.545328
252 2 0.160228 10.3076 8.45703 1.13512
256 2 0.165891 2.18072 10.7611 4.05206
2 3 -0.824011 9.36177 11.861 3.21559
198 2 0.154075 2.58376 12.5453 14.6063
40 4 0.917084 6.019 11.5389 12.9797
108 3 -0.800699 4.78583 10.6618 12.6584
109 3 -0.79524 6.50023 11.5598 14.4403
214 2 -0.0388426 4.94972 12.6576 8.8821
132 2 -0.0485202 7.2972 11.1594 12.0868
236 4 0.994186 7.4752 11.8823 15.7967
203 2 0.142495 8.56726 7.02636 9.24262
131 2 -0.0181051 5.75342 13.15 12.4036
193 2 0.0519347 11.4113 9.68182 14.9749
218 2 0.135344 7.78327 9.12171 8.77737
194 2 0.00820222 9.72487 7.57833 10.9435
241 2 0.170749 9.99797 11.0078 15.3589
239 2 0.110767 8.1474 9.80656 15.8453
264 2 0.0547032 9.01664 12.5541 15.2404
219 2 0.176319 8.81105 10.7297 8.60499
34 4 0.995988 3.48917 9.67741 12.395
191 3 -0.817706 11.9806 6.73966 9.8027
210 1 -0.657267 8.51483 9.68838 8.14704
164 2 0.160394 1.84822 12.9994 9.08349
ITEM: TIMESTEP
200
ITEM: NUMBER OF ATOMS
274
ITEM: BOX BOUNDS xy xz yz pp pp pp
-8.3797999999999995e+00 1.8013900000000000e+01 -8.3797999999999995e+00
0.0000000000000000e+00 1.3205924400000001e+01 1.1950000000000001e+00
0.0000000000000000e+00 1.6075500000000002e+01 3.6392440000000015e-01
ITEM: ATOMS id type q x y z
119 2 -0.0142839 7.51413 1.16138 5.26599
12 4 1.31322 -0.843916 6.34126 5.30709
7 4 1.08694 0.917983 2.14867 5.01074
9 4 1.25732 -0.406475 4.57859 1.85716
10 4 1.58916 0.379362 4.33873 7.24506
242 1 -0.673901 3.36208 0.257855 3.22699
21 4 0.823054 5.84901 1.41262 5.6678
26 4 1.28728 5.28915 4.24707 6.84868
41 1 -0.668344 0.672118 0.67326 6.13903
44 1 -0.673547 3.79824 3.79445 1.81349
55 3 -0.819273 1.40757 0.970834 1.1721
56 3 -0.798141 -0.424019 2.2976 3.97916
58 3 -0.796328 -1.78314 4.54538 2.70534
59 3 -0.849544 0.0103487 3.22003 0.995914
243 2 0.149768 3.75798 1.30139 3.10631
61 3 -0.790996 1.13015 3.33325 5.97965
62 3 -0.877365 -0.46914 5.42875 6.52026
74 3 -0.791621 5.66359 0.345464 7.30622
78 3 -0.888307 0.74979 5.26749 2.59919
81 3 -0.822088 5.64524 2.91742 5.9873
84 3 -0.812178 2.93686 5.86292 3.96881
85 3 -0.785415 4.65605 5.50715 5.98279
113 2 0.110636 -1.46232 5.33805 4.02629
111 2 -0.00570245 2.42423 1.78426 4.19461
112 2 -0.0192291 -0.87979 5.50345 0.526993
5 4 1.33859 0.613788 2.01055 0.242688
118 2 -0.0166455 4.48647 0.895995 4.70131
24 4 1.29267 4.74507 4.89931 0.570524
222 3 -0.795155 6.35902 1.45959 0.975167
223 2 -0.0901749 6.25747 0.949136 3.84567
141 2 0.181067 3.62374 2.73607 1.42015
142 2 0.228404 2.84104 4.38689 1.96176
143 2 0.184946 4.39242 3.80544 2.73991
220 4 1.03845 6.80347 0.445757 2.14061
135 2 0.235468 0.602882 0.964718 7.22126
25 4 1.41334 1.52671 6.47024 3.34211
267 2 0.188636 -3.67122 6.18856 0.464036
28 4 1.20433 4.0789 6.53986 4.87532
138 2 0.156907 1.33492 0.929564 12.7054
8 4 1.27344 1.84728 2.59594 11.1769
13 4 1.24902 0.389886 4.95962 12.6227
229 2 -0.0589716 3.55714 6.51494 13.2821
20 4 1.26748 4.50584 2.71918 9.36907
23 4 1.26434 6.9507 2.89532 11.2034
99 3 -0.811307 8.00027 1.15892 8.31774
226 4 0.884073 3.43529 6.34894 15.086
42 1 -0.666132 2.28802 1.55731 12.6313
57 3 -0.827397 0.407826 2.29249 10.4861
63 3 -0.88095 -0.287313 3.90442 13.5832
64 3 -0.793682 1.83426 4.34703 12.1894
65 3 -0.849419 -2.32875 6.15699 9.5394
66 3 -0.825671 -0.407495 5.3632 11.3603
73 3 -0.791916 3.07821 2.4899 10.1728
75 3 -0.853558 5.57669 3.18777 10.4396
76 3 -0.851141 7.00168 1.50894 12.0206
80 3 -0.755163 4.37196 3.81949 8.27955
27 4 1.37801 1.70709 6.5582 8.79772
137 2 0.155962 3.16945 0.952138 12.1938
114 2 -0.0469344 0.692791 6.36912 13.4613
197 2 0.171595 5.45912 1.23972 15.843
124 2 0.122762 2.86283 5.44423 11.656
136 2 0.193978 2.63305 2.14172 13.6355
179 4 1.31817 7.35738 2.5443 15.5597
183 1 -0.659222 5.8689 1.65177 14.7696
77 3 -0.765529 6.87673 4.09056 15.7462
60 3 -0.83129 -0.518206 3.45826 8.26279
196 2 0.174695 5.12395 2.16843 14.1224
117 2 0.0709656 5.06013 1.33349 8.55651
227 3 -0.832232 4.77103 5.90952 15.7801
195 2 0.249935 6.41553 0.806755 14.1821
245 1 -0.673511 3.16763 3.26111 15.2312
246 2 0.172014 2.75855 3.59245 14.233
247 2 0.175775 4.13748 2.56467 15.1101
262 3 -0.809909 0.608705 1.82982 15.1119
228 2 -0.0318002 2.34261 5.08888 15.0763
14 4 1.5137 -1.047 6.64816 10.3888
82 3 -0.777298 1.55912 5.09133 8.14227
266 2 0.0806101 -1.44852 4.77755 15.724
248 2 0.172484 3.3064 4.1276 16.038
253 2 0.179911 -4.89793 7.80926 0.0739885
3 3 -0.795097 -6.06581 11.3792 1.0303
268 2 0.185229 -5.08418 8.82769 1.65717
16 4 1.4709 -3.22878 7.91638 6.57187
17 4 1.25837 -4.53715 9.9027 4.9044
154 2 0.178219 0.887642 9.32812 7.60742
161 2 0.198162 -1.09038 10.1161 0.271314
31 4 1.29043 -1.9206 10.3757 3.15966
33 4 1.11606 0.255529 10.8745 5.61851
48 1 -0.639892 -1.22775 9.00337 2.02439
49 1 -0.648939 0.103569 9.27479 6.75586
272 2 0.170424 0.710562 10.291 0.371615
68 3 -0.836318 -1.94349 7.44395 5.65359
251 1 -0.678716 -5.47917 8.57459 0.598336
70 3 -0.81503 -4.42494 8.4551 5.61913
79 3 -0.837261 0.45002 7.09033 4.66588
87 3 -0.803735 1.80748 7.73729 2.25551
30 4 1.04519 2.31328 8.19683 0.833057
89 3 -0.77976 -1.97558 11.7863 2.08863
90 3 -0.819783 -3.39464 10.1541 3.76756
93 3 -0.79107 -0.840408 10.6372 4.2866
94 3 -0.810272 -0.247609 11.9424 6.61407
115 2 -0.011435 -4.14233 11.0316 6.11096
147 2 0.1906 1.84805 7.3978 6.44954
151 2 0.186836 -0.0996597 9.45248 1.59987
152 2 0.172413 -2.00277 8.79108 1.18756
153 2 0.193365 -1.15187 8.15331 2.83277
271 2 0.172682 1.55343 10.2364 2.12814
155 2 0.262925 0.189619 8.43465 5.9899
156 2 0.272159 -0.964903 9.33095 7.12104
46 1 -0.671348 2.38773 7.72769 7.41967
148 2 0.172824 3.48645 7.45605 7.38455
133 2 0.152597 -6.78705 12.9035 5.90591
19 4 1.34796 -1.2447 12.5934 7.83929
1 4 1.29019 -6.54347 12.5546 2.07036
69 3 -0.856338 -5.91865 10.339 4.34884
91 3 -0.823043 -2.75386 9.38752 7.70878
122 2 -0.00563647 3.33431 7.8729 5.69635
47 1 -0.646247 1.71048 10.0295 0.972788
149 2 0.1534 2.19944 8.84206 7.66436
265 2 0.199429 -4.36278 12.1888 2.57372
244 2 0.14558 -5.34529 12.8792 4.29286
159 2 0.208124 1.03841 9.69037 12.0885
18 4 1.27429 -1.95308 8.28916 12.8771
22 4 1.25811 -0.620858 12.9778 12.083
32 4 0.929037 -2.59326 10.3264 8.96316
35 4 1.30112 -1.32305 10.8824 14.2335
50 1 -0.680194 1.86791 10.4069 11.9469
160 2 0.167984 1.16125 10.6608 14.798
158 2 0.240297 1.63391 11.5039 12.3252
51 1 -0.639563 0.265816 11.0861 15.3494
162 2 0.203414 0.357128 12.1837 15.4946
72 3 -0.846934 -1.44852 7.92957 11.4267
83 3 -0.789216 0.245578 7.08227 9.42977
88 3 -0.801663 2.84879 7.80343 15.6618
92 3 -0.830292 -1.42625 11.4209 9.12593
95 3 -0.808564 3.88028 8.23105 11.7724
96 3 -0.822276 -1.0772 9.35119 13.6526
97 3 -0.880355 -1.21407 12.0111 13.1193
98 3 -0.789213 -2.62555 10.851 15.3099
116 2 -0.0310303 -3.47734 8.91573 12.597
120 2 0.063733 -0.721454 12.2625 10.5617
126 2 0.0331404 -2.37384 9.28892 10.2553
127 2 -0.0586193 -4.06466 11.0628 9.39114
128 2 0.0275583 2.2987 9.48606 13.6405
139 2 0.151878 -4.54922 11.4623 13.4343
140 2 0.172983 -5.68079 12.0008 14.7516
43 1 -0.655109 -5.43677 11.1196 14.0552
71 3 -0.865975 -2.39374 6.99712 13.5969
157 2 0.148547 2.19905 10.4341 10.754
15 4 1.04877 -4.08382 10.7222 16.0366
29 4 0.943868 3.87172 6.79612 11.1548
86 3 -0.791263 2.88277 6.73282 9.96657
235 2 0.172474 11.4897 1.36545 3.0434
37 4 1.28856 12.9875 2.14854 5.747
221 1 -0.662861 8.6745 0.543466 2.06731
39 4 1.25885 11.1341 3.91401 7.39057
45 1 -0.65115 7.1063 4.73943 7.2536
54 1 -0.671448 10.6814 5.52475 6.53977
101 3 -0.839174 13.9382 3.06778 4.83478
102 3 -0.854618 13.7795 1.23556 6.82691
250 2 0.173035 12.0314 4.61927 0.35522
4 4 1.43693 14.8614 2.79037 3.58486
106 3 -0.831873 11.7823 2.89385 6.37647
232 3 -0.815587 14.153 1.6643 2.67705
129 2 0.000937207 12.2397 1.07251 4.55138
130 2 0.0542194 7.74622 5.65088 3.05692
169 2 0.204491 10.7073 6.3153 7.32474
207 4 1.28429 14.5112 0.34176 7.85627
146 2 0.220165 7.69052 3.74755 7.09372
103 3 -0.795781 5.5236 6.08467 1.37368
145 2 0.158134 7.48209 5.61073 6.58865
170 2 0.164497 9.64325 5.35956 6.1443
171 2 0.226744 11.3582 5.82295 5.71984
134 2 0.223555 16.4903 0.251188 5.7432
224 2 0.18472 8.85101 1.23365 1.22084
231 1 -0.671716 11.7669 0.324005 2.79219
225 2 0.119352 8.82592 1.01231 3.16561
230 4 1.11413 13.7031 0.130833 2.3978
105 3 -0.815117 9.71381 3.25929 8.02863
234 2 0.16627 11.2665 0.18738 1.7851
11 4 1.48762 13.0736 5.98908 8.87205
36 4 1.34528 9.00243 2.19709 9.01114
52 1 -0.669795 10.3848 1.04922 9.68322
186 1 -0.675423 9.06639 6.27505 9.84552
100 3 -0.839785 8.20578 2.85088 10.2813
107 3 -0.775681 12.5178 4.33577 8.70789
110 2 0.0185531 14.5868 2.88245 10.2189
121 2 -0.00763395 7.2579 4.17875 12.2505
202 2 0.160288 14.0405 3.68825 11.9175
163 2 0.171687 11.3793 1.52298 9.62466
144 2 0.175658 7.05687 4.98782 8.37279
165 2 0.236758 9.97687 0.76575 10.806
172 4 1.03937 16.2799 2.46844 14.2522
173 1 -0.651747 14.5668 1.58214 13.7381
174 2 0.0475744 14.7378 2.44823 15.2574