ITEM: TIMESTEP
0
ITEM: NUMBER OF ATOMS
274
ITEM: BOX BOUNDS xy xz yz pp pp pp
-8.3797999999999995e+00 1.8013900000000000e+01 -8.3797999999999995e+00
0.0000000000000000e+00 1.3273200000000001e+01 1.1950000000000001e+00
0.0000000000000000e+00 1.6075500000000002e+01 4.3120000000000003e-01
ITEM: ATOMS id type q x y z
119 2 0.0075212 7.36786 1.23302 5.28466
12 4 1.305 -0.996022 6.46192 5.30917
7 4 1.10315 0.911585 2.20187 5.17832
9 4 1.25192 -0.331825 4.73166 1.83393
10 4 1.56671 0.284129 4.42106 7.24978
242 1 -0.686867 3.24523 0.490568 3.16246
21 4 0.814618 5.69452 1.43844 5.70759
26 4 1.25083 5.36384 4.37513 6.80933
41 1 -0.674952 0.975833 0.578701 6.19723
44 1 -0.676659 3.74554 4.01791 1.80979
55 3 -0.791999 1.14621 0.948789 1.12899
56 3 -0.824015 -0.492089 2.41387 4.39565
58 3 -0.777028 -1.69111 4.52008 2.71756
59 3 -0.866589 0.0839074 3.45847 1.04043
243 2 0.151715 3.62683 1.57521 3.21231
61 3 -0.752678 1.3402 3.2916 6.21556
62 3 -0.843133 -0.76045 5.34812 6.44103
74 3 -0.834699 5.87503 0.410019 7.37017
78 3 -0.873428 0.601711 5.4251 2.89604
81 3 -0.818381 5.50346 2.96943 5.94714
84 3 -0.821561 2.81668 5.97011 4.18831
85 3 -0.787787 4.79986 5.67672 5.92532
113 2 0.122332 -1.49554 5.51749 4.0014
111 2 0.0135278 2.19167 1.86469 4.04239
112 2 -0.0330261 -0.645857 5.84599 0.591903
24 4 1.18997 4.69154 4.91019 0.49435
118 2 -0.0319866 4.43867 0.733874 4.75732
5 4 1.31823 0.488812 2.12006 0.212754
222 3 -0.778459 6.32365 1.47272 1.27519
223 2 -0.0929722 6.2608 0.937965 4.00027
141 2 0.171832 3.79251 2.91228 1.54849
142 2 0.206282 2.73639 4.5326 1.70543
143 2 0.188166 4.35252 4.19431 2.79125
220 4 1.01473 6.80863 0.400067 2.33219
82 3 -0.806121 1.37606 5.43766 7.84352
135 2 0.236226 0.537175 0.931526 7.19706
197 2 0.202385 4.39156 0.674817 0.0661422
138 2 0.171264 1.72371 0.526045 12.2345
8 4 1.23808 1.78529 2.61143 10.9725
13 4 1.22899 0.453637 4.92252 12.3227
229 2 -0.00332076 3.61719 6.31791 13.2329
20 4 1.27387 4.65265 2.79423 9.33828
23 4 1.25217 6.99196 2.68823 11.2295
99 3 -0.857958 8.34674 1.11071 8.32404
226 4 0.869347 3.40894 6.27301 14.9338
42 1 -0.670603 2.34974 1.47256 12.3467
57 3 -0.830184 0.398015 2.01805 10.4305
63 3 -0.863994 -0.210938 3.73903 13.2405
64 3 -0.813208 1.88749 4.39672 11.8126
65 3 -0.849742 -2.32572 6.52914 9.61285
66 3 -0.893673 -0.489772 5.50684 11.1961
73 3 -0.754317 3.17463 2.38959 9.91973
75 3 -0.854616 5.64409 3.07222 10.5566
76 3 -0.871427 6.96431 1.25537 11.9012
80 3 -0.772682 4.69046 4.03264 8.49468
29 4 0.961379 3.769 6.62451 11.0175
137 2 0.191371 3.44673 1.33267 12.2612
114 2 -0.0600759 0.948239 6.10766 13.4103
248 2 0.188632 3.77267 3.96156 15.4325
124 2 0.0811498 3.4234 5.11793 11.6822
136 2 0.168818 2.03312 2.10788 13.2542
179 4 1.25347 7.35907 2.5767 15.77
183 1 -0.674001 5.84863 1.64569 15.1456
77 3 -0.747212 7.10068 4.06814 15.8366
60 3 -0.841228 -0.378435 3.49205 8.40343
196 2 0.173207 5.14896 2.52584 14.9174
117 2 0.0801768 5.17463 1.49 8.38122
227 3 -0.818377 4.7773 5.78464 15.5541
195 2 0.213426 6.05351 0.925039 14.2914
245 1 -0.697499 3.03229 3.21119 15.0628
246 2 0.151299 2.46611 3.55493 14.1387
247 2 0.16276 3.52187 2.13002 14.901
262 3 -0.809086 0.379699 1.92245 15.3754
228 2 -0.0245856 2.31341 5.02895 15.2794
266 2 0.0706208 -1.7984 5.164 15.8799
149 2 0.147947 2.35844 9.1946 7.74408
3 3 -0.812518 -5.86273 11.4344 0.92128
268 2 0.165345 -4.71804 8.04023 0.376345
16 4 1.45048 -3.23698 8.18113 6.68801
17 4 1.26904 -4.67138 9.95873 4.75513
154 2 0.188289 1.07849 9.56764 7.40196
161 2 0.188901 -1.08057 10.0526 0.269279
31 4 1.22381 -2.07733 10.3181 3.06329
33 4 1.18558 0.0334129 11.0061 5.5341
48 1 -0.652648 -1.34925 8.97516 1.97632
49 1 -0.6586 0.199523 9.52836 6.68769
122 2 -0.00316891 3.61067 7.95718 5.85314
68 3 -0.832384 -2.03586 7.52347 5.73167
28 4 1.2512 4.10433 6.66027 4.90082
70 3 -0.813178 -4.49552 8.78502 5.80856
79 3 -0.849063 0.440008 7.25918 4.80613
87 3 -0.788869 1.7875 7.71687 2.31779
30 4 1.01154 2.35031 8.25257 0.928859
89 3 -0.757979 -2.21666 11.8225 2.06656
90 3 -0.835646 -3.49483 10.0351 3.6935
93 3 -0.814457 -0.828124 10.7025 4.3199
94 3 -0.827627 -0.298749 12.3079 6.363
115 2 -0.0480396 -4.582 11.3456 5.65336
147 2 0.180671 2.06975 7.70458 6.50523
151 2 0.175528 -0.127962 9.38472 1.54332
152 2 0.177245 -2.16556 8.8821 1.21215
153 2 0.18372 -1.31472 8.11586 2.72868
272 2 0.175119 0.657763 10.276 0.334311
155 2 0.271799 0.243406 8.62417 5.8465
156 2 0.27284 -0.859635 9.50689 7.24184
46 1 -0.664502 2.56186 8.06013 7.47571
148 2 0.169685 3.67649 7.78185 7.54135
271 2 0.162555 1.61594 10.3246 1.98657
19 4 1.39037 -1.00946 12.8219 7.72627
1 4 1.29094 -6.59505 12.5888 2.04898
69 3 -0.841261 -6.07141 9.92282 4.00622
91 3 -0.847432 -2.49921 9.45089 7.82009
265 2 0.198957 -4.31674 12.6763 2.63654
47 1 -0.671046 1.63793 10.0303 0.889911
252 2 0.21683 -5.55387 9.0644 1.80629
244 2 0.129353 -5.51883 12.9054 4.18333
25 4 1.45339 1.45828 6.54935 3.61456
251 1 -0.664431 -5.57429 8.72751 0.689969
133 2 0.146747 -6.35546 12.9992 6.28341
159 2 0.199441 1.43993 10.7554 13.3523
18 4 1.1999 -2.15607 8.20443 12.8027
22 4 1.25716 -0.601027 12.755 11.9942
32 4 0.961218 -2.06159 10.421 8.97513
35 4 1.27447 -1.39557 10.7068 14.2119
43 1 -0.650828 -5.83661 11.1923 14.1677
15 4 1.10914 -4.14393 10.9071 15.9356
157 2 0.213309 1.00717 9.15792 12.4226
51 1 -0.647921 0.134144 11.1188 15.3405
162 2 0.205993 -0.0947966 12.1977 15.5593
72 3 -0.806953 -1.44596 8.30223 11.4292
83 3 -0.800667 0.138217 7.33087 9.30313
158 2 0.166897 1.99667 10.5148 11.5739
92 3 -0.83067 -0.844548 11.3651 8.9508
95 3 -0.834609 3.58315 7.80567 12.0581
96 3 -0.75729 -1.14553 9.08925 13.8612
97 3 -0.835337 -1.30211 11.6318 12.8109
98 3 -0.812002 -2.75814 10.8519 15.1156
116 2 -0.0229162 -3.63971 8.86694 12.7458
120 2 0.0763073 -0.593565 12.103 10.4187
126 2 0.126858 -1.47492 9.40533 10.1766
127 2 -0.0468831 -3.42629 11.1853 9.47775
128 2 0.0726867 2.60797 9.25189 14.2379
140 2 0.169154 -6.05753 12.0576 14.9455
50 1 -0.67201 1.78556 10.0035 12.6091
139 2 0.161035 -5.03117 11.4964 13.4232
160 2 0.16066 1.0733 10.9582 14.7286
88 3 -0.781993 3.17302 7.80479 15.6221
187 3 -0.785829 0.93222 12.909 12.4945
27 4 1.37759 1.68242 6.79413 8.67054
71 3 -0.840538 -2.64064 6.80287 13.4758
14 4 1.52027 -0.908176 6.71623 10.3425
86 3 -0.809613 2.76232 6.77564 9.79324
235 2 0.158058 11.4337 1.4577 3.10554
37 4 1.23805 13.0566 1.96974 5.72219
230 4 1.12617 13.7095 0.197552 2.45872
39 4 1.27536 11.3668 3.93211 7.58946
45 1 -0.67338 7.18251 4.85936 7.03333
54 1 -0.665595 10.4709 5.24548 6.66061
101 3 -0.757505 13.9421 3.11263 4.78181
102 3 -0.862747 13.8525 1.10518 6.7348
221 1 -0.66991 8.68411 0.259341 1.95736
4 4 1.44475 14.9906 2.80804 3.57123
106 3 -0.784379 12.0877 2.92316 6.5626
232 3 -0.824104 14.4076 1.58157 2.65044
129 2 -0.0218593 12.1916 0.8933 4.69625
130 2 0.0812895 7.74545 5.91273 3.07248
169 2 0.22884 10.856 6.25645 7.00033
250 2 0.180021 11.5539 4.82325 0.507261
146 2 0.178401 7.76822 3.97277 6.67848
231 1 -0.667613 11.7398 0.396546 2.84689
145 2 0.173031 7.28541 5.73931 6.34932
170 2 0.176873 9.28331 5.15672 6.78823
171 2 0.189426 10.82 5.0172 5.59456
234 2 0.169427 11.5042 0.0932524 1.75206
224 2 0.176685 8.74918 1.19326 1.2714
249 1 -0.620394 12.4172 5.44491 0.0239366
103 3 -0.758629 5.6399 6.34505 1.24297
225 2 0.134673 9.01081 0.46828 3.041
273 2 0.176621 9.37513 0.121567 0.0409424
207 4 1.30062 14.5558 0.222033 7.75237
11 4 1.51525 13.1002 6.27677 8.97895
36 4 1.32419 9.20947 2.07413 9.20719
52 1 -0.670037 10.5078 0.824795 9.96944
188 3 -0.757304 8.7602 2.01182 14.6576
100 3 -0.829584 8.40475 2.90056 10.3895
107 3 -0.791802 12.6332 4.71835 8.87444
110 2 0.0243404 14.756 2.96031 10.2949
204 2 0.156792 8.04412 6.20945 10.7137
202 2 0.179121 14.0585 3.63861 11.9081
163 2 0.16809 11.4654 1.46368 10.0179
6 4 1.31352 16.052 2.30067 9.37429
165 2 0.238365 10.1282 0.455379 10.9928
172 4 1.00383 16.2384 2.50744 14.1913
173 1 -0.661423 14.6523 1.48832 13.5787
174 2 0.0584674 14.6201 2.7733 14.9585
175 2 0.0911062 15.7238 0.828914 13.1187
176 2 0.162784 14.1128 2.03249 12.6791
144 2 0.17852 7.33768 5.10506 8.14687
178 4 1.10036 13.6239 5.6007 14.3863
180 4 1.26253 9.94502 1.44883 13.8322
181 4 1.28897 11.8989 3.82276 12.6931
205 2 0.171591 9.33953 5.08852 9.42519
185 1 -0.699528 13.1152 3.2049 11.3321
186 1 -0.660991 8.90318 6.27684 9.99764
189 3 -0.778679 10.846 2.64626 13.2283
190 3 -0.826398 12.8753 4.34571 13.846
192 3 -0.757734 11.0315 5.19682 11.9574
263 3 -0.865622 15.4669 1.00842 8.6759
199 2 0.176441 11.9904 1.01605 14.8128
200 2 0.265412 12.958 3.78523 10.2839
201 2 0.132265 12.969 2.0738 11.4168
182 4 1.06008 10.6518 6.25666 10.807
105 3 -0.798022 10.1727 3.09681 8.32524
177 2 0.179664 13.9507 0.748763 14.1335
123 2 -0.0354889 5.33483 6.3418 10.5606
184 1 -0.663932 10.9943 0.518213 14.9637
121 2 0.013438 7.03767 3.86014 12.4876
237 1 -0.676151 7.32248 10.1791 0.0756026
256 2 0.147923 1.42641 11.2738 3.79024
167 2 0.175789 9.1306 7.41726 2.38626
53 1 -0.648571 8.18602 7.40501 2.94133
104 3 -0.823398 5.11818 7.25676 3.85161
233 2 0.158209 2.85059 12.5205 3.62419
125 2 0.0130141 4.04292 8.16502 1.11147
150 2 0.147311 2.55989 10.4664 0.360704
166 2 0.0210685 6.91324 8.54316 2.0737
168 2 0.180877 8.4117 7.80649 3.86983
206 4 1.21358 9.29102 10.3926 3.66099
215 2 0.14992 7.01663 7.96584 6.87726
208 4 1.04635 7.70336 10.2398 6.4366
209 1 -0.653159 6.33796 8.85906 6.51178
255 2 0.159608 2.36677 12.2049 5.24619
211 3 -0.798874 8.25383 10.3519 4.97753
212 3 -0.760654 6.8724 11.7796 7.14293
213 2 -0.00603309 8.65824 9.27742 2.49973
254 1 -0.661064 1.88399 11.2353 4.95497
216 2 0.18943 5.97443 8.75728 5.40645
217 2 0.15211 5.51725 9.24387 7.20793
219 2 0.205995 9.88103 9.10662 7.02271
253 2 0.146463 10.3213 8.33721 0.2707
270 2 0.186384 0.700964 12.2012 1.55158
238 3 -0.791967 5.59665 12.2693 1.00897
240 2 0.159256 8.0283 10.27 0.942034
239 2 0.143871 6.47895 9.36334 0.31222
257 2 0.155108 2.5121 10.3596 5.11208
258 1 -0.673273 5.96888 11.836 3.89103
259 2 0.214656 6.62324 11.1237 3.47107
260 2 0.136933 4.92811 11.4777 4.22537
261 2 0.218149 6.39839 12.5359 4.61252
38 4 0.978302 6.18056 7.00313 2.56063
210 1 -0.663878 9.12898 9.62526 7.65588
134 2 0.229368 8.73204 12.7769 5.60757
2 3 -0.82547 9.21349 11.8641 3.0437
267 2 0.159786 12.4919 6.61898 0.273766
67 3 -0.811584 12.939 6.88688 7.51401
198 2 0.168228 2.58019 12.3083 14.5684
40 4 0.903475 5.97197 11.2766 13.0529
108 3 -0.816609 4.74504 10.2867 12.9053
109 3 -0.826391 6.50931 11.5466 14.4785
214 2 -0.0358408 4.97265 12.4823 8.76916
132 2 -0.0464446 7.42411 10.799 12.3017
236 4 1.07043 7.29875 11.9893 15.774
34 4 1.03043 3.53221 9.27307 12.7385
131 2 -0.0228302 5.66022 12.754 12.4738
193 2 0.0757865 11.1774 9.89394 14.9136
218 2 0.170681 9.55141 10.5542 8.13625
194 2 0.0132871 9.56757 7.47183 11.4225
241 2 0.164096 9.04844 10.2819 15.2272
191 3 -0.783348 11.7987 7.02597 10.0829
264 2 0.0607132 8.93634 12.3924 15.4167
274 2 0.149816 8.64201 8.97193 8.39053
164 2 0.178689 2.05797 12.8339 9.19271
269 2 0.152325 10.0503 11.0331 13.6635
203 2 0.151242 8.67039 7.10564 9.27015
ITEM: TIMESTEP
100
ITEM: NUMBER OF ATOMS
274
ITEM: BOX BOUNDS xy xz yz pp pp pp
-8.3770067333333333e+00 1.8007895366666666e+01 -8.3770067333333333e+00
0.0000000000000000e+00 1.3273200000000001e+01 1.1946016666666672e+00
0.0000000000000000e+00 1.6075500000000002e+01 4.3120000000000003e-01
ITEM: ATOMS id type q x y z
119 2 0.00379622 7.41381 1.18802 5.30475
12 4 1.29631 -1.07048 6.39563 5.2771
7 4 1.1265 0.923063 2.22348 5.15434
9 4 1.21955 -0.510435 4.81099 1.92315
10 4 1.59426 0.341979 4.47633 7.14717
242 1 -0.675459 3.2893 0.559018 3.18502
21 4 0.796618 5.71936 1.36027 5.80072
26 4 1.32291 5.33034 4.47482 6.89072
41 1 -0.696375 1.17781 0.59028 6.11187
44 1 -0.675099 3.72511 3.85573 1.83353
55 3 -0.787158 1.18022 1.0842 1.07727
56 3 -0.824385 -0.362736 2.29694 4.21135
58 3 -0.779617 -1.90044 4.54538 2.77671
59 3 -0.821827 -0.111092 3.51173 1.09168
243 2 0.157321 3.48719 1.73185 3.03037
61 3 -0.825018 1.06047 3.52438 6.06427
62 3 -0.83196 -0.860859 5.34523 6.42991
74 3 -0.794666 5.65118 0.370715 7.53111
78 3 -0.869492 0.639357 5.21943 2.92912
81 3 -0.794618 5.38809 2.85275 6.09159
84 3 -0.843629 2.82089 6.14845 4.234
85 3 -0.810564 4.62692 5.59152 6.06522
113 2 0.110897 -1.74309 5.48003 3.99932
111 2 0.0173025 2.41132 1.98496 4.17301
112 2 -0.016232 -0.682235 6.12896 0.852179
24 4 1.26575 4.72919 4.82039 0.509951
118 2 -0.0208866 4.49566 0.653404 4.71324
5 4 1.30391 0.374133 2.17701 0.208896
222 3 -0.781143 6.26054 1.37412 1.21288
223 2 -0.0982552 6.24122 0.816576 4.00568
141 2 0.180027 4.14903 2.77426 1.76193
142 2 0.18792 2.67634 3.93718 1.4667
143 2 0.205069 3.97152 4.55934 2.77438
220 4 1.00959 6.71712 0.320069 2.34417
82 3 -0.784783 1.43724 5.47069 7.92671
135 2 0.217125 0.681893 0.972388 7.10046
244 2 0.130507 2.79926 0.233541 4.2191
133 2 0.151916 2.28638 0.335391 6.27815
25 4 1.49363 1.42741 6.43818 3.65028
138 2 0.162979 1.13776 0.750438 12.3359
8 4 1.29033 1.97876 2.59007 10.8739
13 4 1.2616 0.545535 4.80207 12.2602
229 2 -0.0427759 3.55743 6.53461 13.4465
20 4 1.31633 4.72976 3.00104 9.36079
23 4 1.25875 7.03417 2.71155 11.3458
99 3 -0.833279 8.18195 1.15397 8.33376
226 4 0.879129 3.50012 6.32079 15.0695
42 1 -0.676784 2.10857 1.28014 12.2962
57 3 -0.825247 0.526202 2.33455 10.2657
63 3 -0.867564 -0.238934 3.69607 13.1077
64 3 -0.811019 2.03025 4.22779 11.7881
65 3 -0.794084 -2.24843 6.34365 9.56209
66 3 -0.890535 -0.310925 5.61204 11.2671
73 3 -0.799107 3.29935 2.55467 9.85718
75 3 -0.853256 5.66239 3.10377 10.62
76 3 -0.865229 6.97825 1.24232 11.8853
80 3 -0.818476 4.82138 4.22816 8.38154
29 4 0.984596 3.84484 6.56658 11.1258
137 2 0.173024 2.95605 0.652137 11.9837
114 2 -0.046645 1.16028 6.0083 13.3439
248 2 0.160874 3.56657 3.71193 15.7087
124 2 0.0512929 3.29898 5.34347 12.0658
136 2 0.185462 2.30139 1.98451 13.2152
179 4 1.2486 7.26911 2.39266 15.7432
183 1 -0.674173 5.87593 1.32973 15.0845
77 3 -0.75584 6.75427 4.12597 15.8132
60 3 -0.802714 -0.379791 3.55006 8.34702
196 2 0.172941 4.88643 1.91785 15.205
117 2 0.125075 5.23797 1.58605 8.41067
227 3 -0.839308 4.8836 5.93548 15.5979
195 2 0.214108 6.13783 1.18764 13.9817
245 1 -0.685322 2.91343 3.1394 15.0074
246 2 0.163514 2.42163 3.68147 14.1563
247 2 0.17094 3.40635 2.18553 14.6929
262 3 -0.79613 0.371721 2.1033 15.1351
228 2 -0.0267235 2.40474 5.04118 15.1884
123 2 -0.0319015 5.39426 6.03565 10.8547
86 3 -0.781084 3.01585 6.68379 9.85171
149 2 0.15967 2.22373 9.18863 7.46447
3 3 -0.779741 -5.86336 11.5493 0.928451
268 2 0.186311 -4.13489 8.43293 0.299393
16 4 1.48077 -3.2535 8.17526 6.5757
17 4 1.27047 -4.60052 9.94766 4.65276
154 2 0.184924 0.748191 9.57716 7.50416
161 2 0.194289 -1.04909 10.1668 0.199246
31 4 1.25267 -1.99619 10.2408 3.07333
33 4 1.14593 0.157011 10.9438 5.46677
48 1 -0.635356 -1.32887 8.95107 1.79134
49 1 -0.650817 -0.0383416 9.45622 6.6377
67 3 -0.821105 -3.81039 7.00534 7.54956
68 3 -0.857654 -2.05145 7.53427 5.66751
28 4 1.27465 4.15073 6.63969 4.98616
70 3 -0.826061 -4.48718 8.85598 5.8301
79 3 -0.852691 0.448282 7.09699 4.81907
87 3 -0.795981 1.835 7.61241 2.41089
30 4 0.980869 2.30586 8.07671 0.980892
89 3 -0.764554 -2.08127 11.6428 2.0253
90 3 -0.852779 -3.4406 9.85004 3.59508
93 3 -0.803592 -0.768271 10.5707 4.22921
94 3 -0.805549 -0.328898 12.255 6.22754
115 2 -0.0416929 -4.4379 11.4938 5.40717
147 2 0.202236 1.99226 7.57382 6.54976
151 2 0.187661 -0.164999 9.27077 1.45666
152 2 0.178591 -2.13115 8.9449 0.941262
153 2 0.157998 -1.34878 8.04909 2.55179
272 2 0.186624 0.711254 10.2005 0.197167
155 2 0.266729 0.232723 8.47412 6.01479
156 2 0.280786 -1.13626 9.53801 7.05129
46 1 -0.672391 2.47026 8.09216 7.41683
148 2 0.16774 3.62578 7.93862 7.59116
271 2 0.160349 1.65486 10.1683 1.84794
19 4 1.26181 -1.09597 12.7588 7.76356
1 4 1.2991 -6.52686 12.6595 1.95757
69 3 -0.835896 -6.02432 9.97107 3.95337
91 3 -0.815824 -2.62732 9.55636 7.75214
265 2 0.175078 -4.33869 12.6051 2.70397
47 1 -0.657459 1.66885 9.87638 0.747163
252 2 0.221336 -5.10965 8.91754 1.82761
251 1 -0.680628 -5.1712 8.6401 0.716821
159 2 0.194075 1.33209 10.9415 13.1858
18 4 1.23816 -2.15569 8.23013 12.8517
22 4 1.27666 -0.556265 12.7525 12.0139
32 4 0.959456 -2.15067 10.4722 8.97791
35 4 1.21271 -1.35243 10.8441 14.2505
43 1 -0.65071 -5.62186 11.0525 14.0026
15 4 1.05066 -4.13639 10.8131 15.9022
157 2 0.225367 0.905535 9.36127 12.2112
51 1 -0.653873 0.212597 11.2661 15.2499
162 2 0.213338 0.0172831 12.3534 15.3871
72 3 -0.835557 -1.27141 8.00225 11.4664
83 3 -0.785653 0.526738 7.4958 9.45912
158 2 0.158082 2.13691 10.6167 11.3445
92 3 -0.811837 -0.854282 11.3209 9.04107
95 3 -0.812979 3.65875 7.96495 11.8728
96 3 -0.750145 -1.27339 8.99407 13.8549
97 3 -0.845177 -1.27068 11.6251 12.7961
98 3 -0.801799 -2.75401 11.0123 15.1607
116 2 -0.0391849 -3.32647 9.25627 12.3236
120 2 0.0984831 -0.425291 12.0447 10.4545
126 2 0.0239733 -2.17853 9.5994 10.4017
127 2 -0.0380854 -3.36317 11.2922 9.74968
128 2 0.0563043 2.23369 9.16747 14.0625
140 2 0.178422 -5.88696 11.9688 14.5334
50 1 -0.660941 1.71881 10.1163 12.4117
139 2 0.167152 -4.60415 11.1792 13.5353
160 2 0.149611 1.18247 11.0988 14.5716
88 3 -0.774968 2.73553 7.67507 15.6995
187 3 -0.80192 0.89715 13.0421 12.5981
27 4 1.39623 1.77119 6.85799 8.78938
71 3 -0.840338 -2.73957 6.9446 13.5678
14 4 1.51193 -0.85378 6.81985 10.4666
34 4 1.0295 3.38948 9.29393 12.7076
197 2 0.23539 -2.4052 13.2475 15.798
235 2 0.167857 11.4994 1.48984 2.86336
37 4 1.20254 13.0322 2.06163 5.76551
230 4 1.09918 13.708 0.220245 2.44023
39 4 1.30939 11.3094 3.98109 7.49273
45 1 -0.672506 7.13656 5.20281 6.99927
54 1 -0.664927 10.4172 5.37949 6.55015
101 3 -0.780964 14.0355 3.16089 4.97154
102 3 -0.834651 13.8489 1.04732 6.80777
221 1 -0.638196 8.59238 0.361716 2.18004
4 4 1.44146 15.012 2.81148 3.7152
106 3 -0.812984 11.9187 3.01389 6.4651
232 3 -0.813101 14.3677 1.64689 2.76831
129 2 -0.00813164 12.1797 1.13292 4.57801
130 2 0.0836544 7.95587 5.81236 2.95996
169 2 0.220289 10.9214 6.35293 6.94309
250 2 0.178074 11.4582 4.64693 0.307878
146 2 0.158323 7.74322 4.41221 6.49306
231 1 -0.659145 11.8176 0.436366 2.7776
145 2 0.178868 7.10483 6.21048 6.46972
170 2 0.184011 9.27172 5.3801 6.64517
171 2 0.182545 10.8245 5.10645 5.49191
273 2 0.184926 9.16131 0.20801 0.234004
224 2 0.17529 8.92728 1.19015 1.4985
225 2 0.112148 8.67158 0.694253 3.39529
103 3 -0.77774 5.67395 6.10136 1.42733
207 4 1.24573 14.6842 0.248318 7.85703
267 2 0.18296 12.2634 6.39264 0.335591
234 2 0.167576 11.4836 0.114706 1.69414
11 4 1.4994 13.0659 6.12586 8.87794
36 4 1.31918 9.20921 2.17496 9.10975
52 1 -0.663002 10.5107 1.0802 9.97867
188 3 -0.794242 8.57325 1.99844 14.8502
100 3 -0.811147 8.32633 2.8188 10.3731
107 3 -0.802164 12.7155 4.57427 8.66178
110 2 0.00489945 14.7872 3.06359 10.4335
204 2 0.164934 8.11721 5.86696 10.8685
202 2 0.158582 13.9826 3.60288 11.8272
163 2 0.171791 11.5775 1.44275 9.95595
6 4 1.34872 16.0303 2.47175 9.37571
165 2 0.242113 10.1299 0.817301 11.0301
172 4 1.01375 16.1418 2.4156 13.9659
173 1 -0.654593 14.3873 1.50712 13.5885
174 2 0.0583319 14.5539 2.80875 14.827
175 2 0.0397714 15.602 0.765918 12.9226
176 2 0.1618 13.8008 2.03927 12.6894
144 2 0.172949 7.41515 5.32576 8.11282
178 4 1.10847 13.7698 5.56827 14.3169
180 4 1.23349 9.87006 1.47145 13.893
181 4 1.33382 11.7856 3.89228 12.6551
205 2 0.214576 9.34528 5.02698 9.6197
185 1 -0.677071 12.9945 3.24129 11.2791
186 1 -0.664719 8.99383 6.00651 10.2014
189 3 -0.781415 10.8561 2.51381 13.1227
190 3 -0.830613 12.8047 4.48618 13.7631
192 3 -0.826863 10.9853 5.05491 11.9645
263 3 -0.877575 15.555 1.16413 8.76601
199 2 0.171785 11.8359 1.21508 15.1456
200 2 0.258967 12.8542 3.78468 10.1762
201 2 0.136506 12.9185 2.11057 11.1474
182 4 1.07862 10.8008 6.22409 10.929
105 3 -0.826934 10.1599 3.25416 8.35823
177 2 0.185998 13.7431 0.810319 14.1897
249 1 -0.62958 13.5407 5.75627 15.9776
184 1 -0.652881 10.8805 0.621805 15.186
121 2 -0.00327325 7.26742 3.71733 12.686
266 2 0.0853222 14.8626 5.10029 16.0527
237 1 -0.671489 7.45843 10.131 0.124269
256 2 0.156551 1.6708 11.3749 3.77691
167 2 0.167243 9.09845 7.56745 2.32699
53 1 -0.629325 8.12316 7.41255 2.87028
104 3 -0.822595 5.3541 7.04188 4.04793
233 2 0.1606 2.91684 12.5844 3.59963
125 2 -0.00675722 3.96843 7.93223 0.901818
150 2 0.149974 2.60338 10.3339 0.213367
166 2 0.0254675 6.99193 8.54668 2.07172
168 2 0.159949 8.16234 7.90603 4.0079
206 4 1.25356 9.31287 10.4317 3.71671
215 2 0.142995 6.32096 8.32665 7.54549
208 4 1.03746 7.68133 10.3575 6.64167
209 1 -0.657462 6.20208 9.03097 6.61095
255 2 0.15859 2.31025 12.2236 5.37001
211 3 -0.785392 8.41104 10.2817 4.95258
212 3 -0.796864 7.02979 11.7189 7.26947
213 2 0.0015703 8.59946 9.35373 2.59191
254 1 -0.675435 1.956 11.2566 4.90543
216 2 0.195137 6.27635 8.57525 5.60194
217 2 0.147658 5.36587 9.87057 6.76108
219 2 0.221936 10.0877 9.41541 7.15904
253 2 0.159917 10.8711 7.91171 0.576818
122 2 0.00606377 3.77929 8.0632 5.93205
238 3 -0.752666 5.52609 12.1993 0.94191
240 2 0.170406 8.03878 10.342 1.05554
239 2 0.131779 6.64598 9.2483 0.300927
257 2 0.141155 2.73087 10.4195 5.0282
258 1 -0.651649 5.94716 11.8318 3.84895
259 2 0.182957 6.60107 11.0981 3.29997
260 2 0.147125 5.06012 11.2914 4.33394
261 2 0.20522 6.55068 12.61 4.48888
38 4 0.995876 6.27688 6.89837 2.62615
210 1 -0.632858 9.18339 9.79618 7.69715
134 2 0.221879 9.04086 12.6847 5.58295
2 3 -0.814608 9.26388 11.8445 2.92145
270 2 0.172417 0.715579 12.1961 1.9553
198 2 0.165313 2.61142 12.424 14.7245
40 4 0.909766 5.73093 11.3668 12.9794
108 3 -0.808988 4.59736 10.3408 12.892
109 3 -0.806541 6.47424 11.4917 14.3869
214 2 -0.0384057 5.18422 12.518 8.87804
132 2 -0.0493903 6.81876 10.9852 11.8651
236 4 1.00554 7.32913 11.8191 15.6876
203 2 0.15168 8.89257 6.8509 9.5019
131 2 -0.0243151 5.465 12.9402 12.3234
193 2 0.0618604 11.1993 9.83192 15.0004
218 2 0.16969 9.40426 10.6567 8.43192
194 2 0.000215849 9.64374 7.39421 11.4903
241 2 0.159652 9.33744 10.359 15.2719
191 3 -0.821095 11.7903 6.82149 9.92777
264 2 0.0445266 9.00308 12.2608 15.2915
274 2 0.124645 8.49297 8.8987 8.17301
164 2 0.157345 2.06349 13.0134 9.29611
269 2 0.140666 10.3819 10.9068 13.1777
ITEM: TIMESTEP
200
ITEM: NUMBER OF ATOMS
274
ITEM: BOX BOUNDS xy xz yz pp pp pp
-8.3742134666666672e+00 1.8001890733333333e+01 -8.3742134666666672e+00
0.0000000000000000e+00 1.3273200000000001e+01 1.1942033333333342e+00
0.0000000000000000e+00 1.6075500000000002e+01 4.3120000000000003e-01
ITEM: ATOMS id type q x y z
119 2 -0.00363844 7.31902 1.339 5.39814
12 4 1.35144 -1.15087 6.47479 5.30534
7 4 1.14386 0.987613 2.34083 4.94979
9 4 1.24408 -0.437206 4.69655 1.8865
10 4 1.61845 0.28636 4.65775 7.22024
242 1 -0.676304 3.34899 0.51547 2.95978
21 4 0.791478 5.68062 1.44499 5.74351
26 4 1.28246 5.41743 4.53699 6.97868
41 1 -0.68973 0.981533 0.733827 5.88338
44 1 -0.649917 3.81226 3.81061 1.85222
55 3 -0.789839 1.00125 1.10035 1.19024
56 3 -0.849961 -0.327849 2.30431 4.11488
58 3 -0.806153 -1.75542 4.40368 2.9049
59 3 -0.847589 -0.137162 3.64711 0.739607
243 2 0.14733 3.58679 1.63795 3.12887
61 3 -0.761413 1.14168 3.51377 6.02532
62 3 -0.856716 -0.723485 5.62015 6.50422
74 3 -0.77252 5.69176 0.369004 7.38673
78 3 -0.837017 0.838055 5.06641 2.68123
81 3 -0.777612 5.4286 2.98411 6.08355
84 3 -0.830694 2.82431 6.03763 4.2246
85 3 -0.791453 4.76116 5.76889 6.12674
113 2 0.0866669 -1.89083 5.47667 4.11457
111 2 0.00398321 2.45682 1.96535 3.97404
112 2 -0.00931041 -0.947382 6.04604 1.02791
24 4 1.24363 4.74301 4.82239 0.563851
118 2 -0.0308311 4.42433 0.965008 4.60237
5 4 1.35485 0.293502 2.16053 0.151916
222 3 -0.773904 6.31439 1.31259 1.2908
223 2 -0.096778 6.28693 0.852118 4.04107
141 2 0.185489 4.3941 2.82597 1.8391
142 2 0.217011 2.7029 3.81753 1.56953
143 2 0.211473 4.0947 4.4357 2.80051
220 4 1.00604 6.79465 0.325229 2.40242
82 3 -0.843535 1.3605 5.50405 7.98155
135 2 0.259057 0.222481 0.789383 6.66505
25 4 1.45438 1.40582 6.43168 3.56703
133 2 0.166818 1.96721 0.531563 6.26957
138 2 0.171332 1.33429 0.594066 11.6935
8 4 1.26732 2.05907 2.65693 10.8866
13 4 1.22219 0.511034 4.83636 12.4382
229 2 -0.0438818 3.61987 6.37394 13.3824
20 4 1.30217 4.79509 2.91717 9.42597
23 4 1.24268 7.10181 2.71697 11.4871
99 3 -0.820647 8.10411 1.13976 8.44788
226 4 0.900571 3.34315 6.23509 15.0633
42 1 -0.662091 2.281 1.09933 11.9879
57 3 -0.803435 0.660264 2.39157 10.126
63 3 -0.864084 -0.389475 3.63281 13.0036
64 3 -0.81649 2.01035 4.17368 12.0867
65 3 -0.850014 -2.16242 6.32772 9.55994
66 3 -0.852496 -0.0511755 5.5978 11.1948
73 3 -0.812139 3.36665 2.47791 9.89983
75 3 -0.817606 5.77166 3.20246 10.6466
76 3 -0.853417 6.91252 1.1832 11.8932
80 3 -0.804969 4.91879 4.17936 8.49677
29 4 0.949108 3.82869 6.59053 11.1066
137 2 0.18274 3.24091 0.630112 11.5876
114 2 -0.046738 0.605991 5.92735 13.7396
248 2 0.166004 3.48453 3.90762 15.6594
124 2 0.0740088 3.29655 5.14543 11.7809
136 2 0.16202 2.379 1.35219 13.1321
179 4 1.27447 7.21482 2.30996 15.6816
183 1 -0.66972 5.77416 1.41368 15.0039
77 3 -0.745886 6.64912 3.86101 15.7162
60 3 -0.810917 -0.607587 3.69619 8.13748
196 2 0.175557 4.97792 2.23852 14.6568
117 2 0.11378 5.31215 1.56392 8.41636
227 3 -0.81953 4.69427 5.81366 15.8042
195 2 0.243831 6.16878 0.691721 14.2077
245 1 -0.658285 2.89875 3.0233 15.0304
246 2 0.187708 2.42442 3.38753 14.0595
247 2 0.163293 3.61798 2.09189 14.8052
262 3 -0.832366 0.341075 2.13445 15.2051
228 2 -0.0120171 2.29015 4.87958 14.8604
197 2 0.212464 5.45393 0.793745 15.9003
6 4 1.3038 -0.716006 2.52402 9.24721
149 2 0.155178 2.22291 9.25473 7.8288
3 3 -0.797168 -5.94618 11.6637 0.899733
268 2 0.163005 -3.88155 8.58721 0.418099
16 4 1.51082 -3.2633 8.20527 6.61086
17 4 1.25442 -4.56965 9.87933 4.58178
154 2 0.184359 0.966882 9.63704 7.38254
161 2 0.18945 -1.00293 9.94254 0.149874
31 4 1.26452 -1.94094 10.1198 2.85041
33 4 1.12652 0.133703 10.9257 5.30754
48 1 -0.675184 -1.11722 8.74494 1.7993
49 1 -0.639113 0.166964 9.50413 6.58741
67 3 -0.827028 -3.75931 6.98964 7.52841
68 3 -0.849563 -2.04933 7.67734 5.72005
28 4 1.22593 4.08217 6.67973 4.95579
70 3 -0.839368 -4.42674 8.81011 5.77578
79 3 -0.845299 0.245979 7.0193 4.74571
87 3 -0.819974 1.58313 7.60371 2.49816
30 4 0.963175 2.17403 8.12335 1.09024
89 3 -0.776905 -1.92471 11.5708 2.05872
90 3 -0.836666 -3.40311 9.71077 3.50364
93 3 -0.779736 -0.731093 10.5102 4.03
94 3 -0.818919 -0.438826 12.1235 6.27019
115 2 -0.0373202 -4.23559 11.4333 5.29317
147 2 0.184042 2.09984 7.67657 6.71299
151 2 0.207842 -0.098132 9.2178 1.49798
152 2 0.162131 -1.83066 8.36677 1.00112
153 2 0.188599 -0.941713 7.94306 2.58143
272 2 0.169878 0.640808 10.1927 0.233246
155 2 0.260093 0.358878 8.57262 5.90588
156 2 0.293521 -0.912527 9.51513 7.13872
46 1 -0.661314 2.52648 8.1394 7.58791
148 2 0.185149 3.61036 7.89496 7.70324
271 2 0.165206 1.57865 10.186 1.9867
19 4 1.2797 -1.08041 12.6642 7.73653
1 4 1.34097 -6.57212 12.6726 1.9277
69 3 -0.827172 -6.06661 9.98801 4.0116
91 3 -0.842753 -2.51001 9.53501 7.78321
265 2 0.18517 -4.27595 12.8431 2.22925
47 1 -0.671088 1.65009 9.91176 0.866981
252 2 0.230582 -4.92204 9.02865 2.03228
251 1 -0.665524 -4.94408 8.83483 0.849649
134 2 0.244222 -7.68682 12.7481 5.15001
244 2 0.131381 -5.22709 12.7825 3.97624
122 2 -0.000119897 3.62979 8.04367 5.88751
2 3 -0.812254 -7.50631 11.9553 3.03188
270 2 0.17445 0.493944 12.257 1.8269
159 2 0.185465 1.19471 10.7324 13.1885
18 4 1.19309 -2.08608 8.22093 12.8607
22 4 1.26549 -0.550844 12.7534 12.014
32 4 1.00825 -2.21445 10.4083 8.95792
35 4 1.27899 -1.3676 10.7266 14.2302
43 1 -0.640634 -5.57244 10.8323 13.9557
15 4 1.04923 -4.01755 10.8465 15.948
157 2 0.220214 0.874424 9.0521 12.1491
51 1 -0.645203 0.148352 11.1775 15.3694
162 2 0.221001 0.0175867 12.2351 15.7169
72 3 -0.854534 -1.39883 7.97769 11.4479
83 3 -0.772697 0.206055 7.54113 9.44648
158 2 0.147759 1.86725 10.5599 11.2362
92 3 -0.819243 -0.965671 11.2859 9.08796
95 3 -0.778741 3.69302 7.97485 11.9325
96 3 -0.799981 -1.12107 9.19152 13.91
97 3 -0.836644 -1.27604 11.7038 12.917
98 3 -0.800829 -2.73566 11.1856 15.1566
116 2 -0.0487334 -3.65855 8.93118 12.7262
120 2 0.0945872 -0.466802 12.0233 10.4697
126 2 0.0262666 -2.35035 9.39066 10.3227
127 2 -0.0482111 -3.58852 11.1632 9.54572
128 2 0.0377979 2.28883 9.46401 14.0531
140 2 0.158904 -5.97869 11.8817 14.3009
50 1 -0.649086 1.55539 9.98025 12.349
139 2 0.160312 -4.67987 10.9878 13.3079
160 2 0.151465 1.03001 11.0668 14.675
88 3 -0.754373 2.71996 7.53618 15.7383
187 3 -0.797827 0.91687 13.0723 12.5846
27 4 1.37926 1.76386 6.79294 8.8531
71 3 -0.853002 -2.46346 6.85789 13.6083
14 4 1.56061 -0.860307 6.83664 10.3985
34 4 1.00233 3.3358 9.53177 12.6154
86 3 -0.825215 2.9555 6.70293 9.82321
235 2 0.168587 11.5107 1.62363 3.18824
37 4 1.26986 13.0356 2.01075 5.82798
230 4 1.10114 13.6088 0.114044 2.46864
39 4 1.26825 11.2392 3.96221 7.45148
45 1 -0.66063 7.26539 5.05428 7.0212
54 1 -0.637626 10.5138 5.50067 6.6198
101 3 -0.806278 14.0754 2.91135 5.02351
102 3 -0.845398 13.7669 1.10452 6.84789
221 1 -0.646062 8.67107 0.493299 2.31622
4 4 1.46419 15.0231 2.68044 3.6806
106 3 -0.811912 11.727 2.86883 6.35705
232 3 -0.811975 14.2546 1.55649 2.76693
129 2 0.00540463 12.2099 0.988648 4.65479
130 2 0.0230869 7.66047 5.60735 3.56907
169 2 0.228157 10.9782 6.36918 7.20863
250 2 0.176125 11.524 4.68223 0.260714
146 2 0.165881 7.88052 4.2254 6.46797
231 1 -0.654485 11.6987 0.544257 2.8365
145 2 0.158279 7.41459 6.09621 6.51132
170 2 0.176737 9.26391 5.35671 6.72624
171 2 0.176703 10.9335 5.26892 5.5494
273 2 0.181741 9.20358 0.308253 0.319919
224 2 0.171084 9.16079 1.38707 1.8052
225 2 0.136744 8.92425 0.440426 3.46105
103 3 -0.7995 5.67963 5.78488 1.58163
207 4 1.25963 14.7116 0.281631 7.89227
234 2 0.177588 11.3551 0.369809 1.82459
267 2 0.181133 12.3651 6.40997 0.411952
11 4 1.5416 13.2072 6.15593 8.95748
36 4 1.26511 9.08231 2.19436 9.24211
52 1 -0.688654 10.3861 1.103 10.0105
188 3 -0.810342 8.47002 2.02051 14.7278
100 3 -0.822484 8.30479 2.93116 10.4712
107 3 -0.769272 12.6882 4.60138 8.59368
110 2 0.00983706 14.6949 2.93753 10.1914
204 2 0.172621 7.90391 5.94985 10.5461
202 2 0.178751 14.028 3.46417 11.6919