ITEM: TIMESTEP
0
ITEM: NUMBER OF ATOMS
274
ITEM: BOX BOUNDS xy xz yz pp pp pp
-8.3797999999999995e+00 1.8013900000000000e+01 -8.3797999999999995e+00
0.0000000000000000e+00 1.3273200000000001e+01 1.1950000000000001e+00
0.0000000000000000e+00 1.6075500000000002e+01 4.3120000000000003e-01
ITEM: ATOMS id type q x y z
7 4 1.0929 1.38662 2.13066 5.63941
9 4 1.25449 -0.0674816 4.63288 2.03482
10 4 1.60247 0.538125 4.47043 7.44121
55 3 -0.779337 1.41336 1.0365 1.12163
56 3 -0.806507 0.104381 2.28594 4.65309
58 3 -0.814237 -1.1801 4.14256 2.98547
59 3 -0.819496 0.322872 3.40117 1.0513
61 3 -0.761487 1.55571 3.34596 6.72334
62 3 -0.880937 -0.324401 5.24132 6.36765
78 3 -0.8468 1.12184 5.40579 2.77066
112 2 -0.0369377 -0.622289 5.8191 0.985016
113 2 0.102987 -1.61998 5.3377 4.18299
12 4 1.37081 -0.878877 6.29079 5.39402
41 1 -0.676468 1.16492 0.496503 6.54506
134 2 0.240086 0.599075 0.881603 7.49816
5 4 1.24355 0.743503 2.14125 0.160533
118 2 -0.0072191 4.7943 0.842432 5.04423
24 4 1.21306 4.86011 5.22076 0.0472266
84 3 -0.802635 2.94049 6.0795 4.59356
119 2 -0.023308 7.38679 1.32563 5.47128
111 2 0.00232179 2.89747 1.77506 4.77827
142 2 0.223276 2.67667 6.04826 1.0594
220 4 1.02905 6.57838 0.37384 1.84776
141 2 0.191065 2.90982 4.21824 1.02856
222 3 -0.796048 6.38964 1.24908 0.499069
223 2 -0.015403 5.46397 0.849789 3.13243
243 2 0.128196 3.33164 1.40349 2.82905
242 1 -0.65588 3.61685 0.42798 3.57144
21 4 0.904534 5.88636 1.45098 6.3
26 4 1.24629 5.54779 4.44167 7.21062
44 1 -0.666574 3.39533 5.19918 1.17169
74 3 -0.792826 5.72354 0.607018 7.73744
81 3 -0.839572 5.62871 2.9365 6.61298
143 2 0.214204 3.8922 5.23254 2.18661
85 3 -0.78523 5.00446 5.61971 6.22307
28 4 1.26193 4.38066 6.51801 5.04761
8 4 1.25942 1.46145 2.38966 10.9519
13 4 1.31309 -0.043844 4.80006 12.3835
14 4 1.47539 -1.79389 6.53327 10.5467
42 1 -0.69177 1.71629 1.16583 12.3443
57 3 -0.791222 0.201652 1.847 9.95833
63 3 -0.834113 -0.54062 4.08469 13.7021
64 3 -0.844749 0.830717 3.75035 11.5969
66 3 -0.875386 -1.249 5.58738 11.755
82 3 -0.799933 1.48233 5.55219 8.49467
86 3 -0.793932 1.85336 6.44166 11.2915
114 2 0.070794 1.11216 5.96725 12.796
246 2 0.147789 2.41014 4.27425 14.5577
138 2 0.235901 1.28226 1.42454 13.378
262 3 -0.805076 0.526956 1.82409 14.9954
245 1 -0.672129 2.98844 3.26217 14.8624
60 3 -0.835489 -0.388526 3.54105 8.29425
27 4 1.25621 0.973694 6.62336 9.52209
136 2 0.163224 2.89445 1.12098 12.3766
99 3 -0.809224 8.60257 0.680607 8.08416
77 3 -0.756634 6.40378 3.96901 15.7125
80 3 -0.744669 4.56093 4.33741 8.912
195 2 0.239513 6.05119 1.14906 13.6452
197 2 0.219072 5.74282 0.733286 15.5389
76 3 -0.824176 6.61471 0.847439 11.8228
247 2 0.180426 3.12442 2.62108 13.9934
124 2 -0.0123565 3.9685 5.50156 12.6458
123 2 0.131571 4.00161 5.36264 10.0082
117 2 0.107046 4.94914 1.64495 8.7533
179 4 1.3132 7.152 2.55406 15.2751
183 1 -0.657247 5.69819 1.53384 14.6899
29 4 0.940874 3.45724 6.37244 11.2959
248 2 0.178884 3.95903 3.48554 15.4613
73 3 -0.773012 3.20503 2.61249 10.3365
20 4 1.22956 4.63451 2.96621 9.78417
23 4 1.17184 7.04702 2.482 11.295
196 2 0.186412 4.6733 2.11251 14.6811
75 3 -0.835111 5.72103 3.28951 10.9566
187 3 -0.81428 9.19937 0.346446 12.256
3 3 -0.773338 -5.53694 11.548 1.01278
16 4 1.4896 -3.27902 8.05225 6.57403
17 4 1.21042 -4.58309 10.2107 4.97486
251 1 -0.646246 -4.99257 8.87187 1.3368
70 3 -0.757235 -4.40273 8.65042 5.43731
90 3 -0.823361 -3.39435 10.4013 3.8539
115 2 -0.0390237 -4.31877 11.201 6.29189
152 2 0.1592 -2.00398 8.71629 1.23019
31 4 1.26609 -2.02435 10.2691 3.06358
68 3 -0.83196 -2.15899 7.15608 5.66915
153 2 0.186296 -2.60265 7.95039 2.84825
91 3 -0.848304 -2.66552 9.32378 7.47577
265 2 0.185384 -4.22254 12.4053 2.94664
1 4 1.24022 -6.32554 12.5514 2.00006
48 1 -0.691383 -1.809 8.56469 2.3204
69 3 -0.84576 -6.11073 10.5029 4.48801
244 2 0.142644 -5.70491 12.8256 4.18003
268 2 0.197041 -5.6746 9.18532 2.18487
253 2 0.187043 -3.90624 8.67519 1.67861
89 3 -0.754677 -1.93081 11.6518 1.78685
15 4 1.07144 -4.99358 10.1638 0.0219937
135 2 0.140643 -6.17041 13.0066 6.8998
25 4 1.40023 1.59581 6.60034 3.76155
147 2 0.198892 2.06677 7.83093 7.77875
94 3 -0.863943 -0.720424 11.8657 6.18745
93 3 -0.783961 -0.661055 10.4006 3.97483
79 3 -0.847597 0.301835 7.17614 4.76713
154 2 0.199318 0.545741 9.7408 7.28336
272 2 0.166009 1.08962 10.441 0.985315
161 2 0.197477 -0.993217 9.90184 0.276129
19 4 1.22274 -0.943291 12.4779 7.66739
156 2 0.274204 0.808384 8.63502 5.69146
151 2 0.203642 -0.752217 8.29237 2.56888
30 4 1.03607 2.67129 8.83812 1.51677
33 4 1.15808 0.140809 10.9748 5.26612
49 1 -0.674382 1.07121 9.61542 6.23062
87 3 -0.80153 2.17556 7.98735 2.73144
155 2 0.149837 2.11896 9.94761 6.10513
270 2 0.193906 0.408125 12.4891 2.10085
18 4 1.22033 -2.65916 8.37714 12.9059
32 4 0.937389 -2.32791 10.2203 8.70361
72 3 -0.79985 -2.58786 8.13984 11.3434
98 3 -0.766105 -2.33816 10.6869 15.3663
116 2 -0.00884623 -3.78613 9.65956 13.156
126 2 0.083324 -2.62635 9.28604 10.1181
127 2 -0.045704 -3.67735 11.1986 8.91232
139 2 0.144555 -5.07944 10.6329 13.6944
96 3 -0.751526 -1.20037 8.74166 13.5783
43 1 -0.664724 -5.08249 9.98328 14.6557
137 2 0.153614 -7.00633 13.0246 11.9623
71 3 -0.81946 -3.31163 7.12753 13.7161
162 2 0.191255 1.12381 11.5434 15.2403
92 3 -0.786588 -0.893135 10.9364 9.0135
160 2 0.153988 1.15616 9.65586 14.9421
22 4 1.21108 -0.656912 12.5332 11.9534
51 1 -0.661983 0.575173 10.533 15.3425
149 2 0.210635 0.872677 8.99282 8.69947
120 2 0.0963253 -0.608614 11.6153 10.407
148 2 0.16565 2.50059 8.62199 9.41676
46 1 -0.660248 1.6891 8.22484 8.73802
35 4 1.22001 -1.0099 10.412 14.3001
97 3 -0.827358 -0.901615 11.5092 13.1384
228 2 -0.0237622 3.48265 7.74901 13.6694
83 3 -0.833696 -0.632327 7.02326 9.50903
95 3 -0.856067 4.18069 7.76251 11.2158
273 2 0.20421 1.01436 13.1923 15.6216
45 1 -0.661954 7.21783 5.13426 7.66362
54 1 -0.666376 10.1253 5.30983 6.3392
103 3 -0.749936 6.10119 6.005 1.10095
169 2 0.178152 9.03944 5.3404 6.78927
146 2 0.183305 7.81231 4.09545 7.4981
224 2 0.180307 8.90739 1.45929 1.49835
145 2 0.152777 7.45494 5.9505 6.80267
225 2 0.110557 8.29418 1.08039 3.26688
170 2 0.171429 10.314 4.97036 5.24695
221 1 -0.655618 8.39848 0.693591 2.15226
171 2 0.221885 10.7007 6.23933 6.55759
130 2 0.0486308 7.87093 5.62325 2.99508
105 3 -0.822385 9.85908 3.03618 8.01188
4 4 1.47197 15.53 2.47851 3.92786
267 2 0.157424 12.9873 5.74754 0.580907
39 4 1.28306 11.0686 3.89227 7.21537
233 2 0.162204 11.327 0.191526 3.09846
101 3 -0.796057 14.4125 2.75529 5.14587
37 4 1.29251 13.0592 2.04343 5.47022
129 2 -0.00119524 12.2262 1.25262 4.1278
106 3 -0.790963 11.8426 3.00005 5.99902
102 3 -0.825024 13.2817 0.917806 6.49829
207 4 1.24445 13.947 0.362269 7.86973
231 1 -0.672649 11.9914 0.681768 2.24909
235 2 0.151073 11.9343 1.85834 2.19559
250 2 0.165286 12.371 3.98812 0.546812
232 3 -0.77649 14.9238 1.30538 3.02031
234 2 0.170254 11.8403 0.165796 1.25506
36 4 1.30931 9.33121 1.86735 8.9773
52 1 -0.696536 10.9299 1.10948 9.7373
100 3 -0.835343 8.21297 2.3382 10.1044
165 2 0.227768 10.7014 1.32346 10.8351
180 4 1.2066 9.64466 1.43483 13.4152
189 3 -0.812511 10.8724 2.4353 12.8376
192 3 -0.78778 10.4354 4.82116 11.8249
203 2 0.0587716 8.91111 4.91878 9.53507
182 4 1.05884 9.95545 5.83873 10.6415
205 2 0.169313 7.15564 5.74638 10.6296
186 1 -0.669766 8.10613 6.39979 10.4602
144 2 0.175913 7.46305 5.58309 8.72082
188 3 -0.788827 8.20762 2.66246 14.0577
191 3 -0.783271 11.0759 6.5969 9.89015
199 2 0.181273 10.984 1.26843 15.5049
121 2 0.109645 7.80507 3.34838 12.6295
184 1 -0.673215 10.2884 0.612747 14.9682
227 3 -0.765992 5.56093 6.65155 14.8749
172 4 1.00817 16.062 2.62146 14.4544
190 3 -0.791968 12.2735 4.59274 13.7245
107 3 -0.802036 12.1549 4.5947 8.26993
174 2 0.0254101 14.7349 2.52693 15.6192
173 1 -0.689022 14.5188 1.63555 13.898
110 2 0.00297666 14.7543 3.25023 10.4401
177 2 0.180912 14.2002 0.72451 14.5357
176 2 0.185755 13.6566 2.35617 13.7378
175 2 0.10013 15.1655 1.3124 12.8799
202 2 0.208269 13.9089 3.93921 11.5403
11 4 1.47514 12.5268 6.14824 8.8474
185 1 -0.68826 12.9481 3.41953 11.1505
163 2 0.15663 11.7682 1.74027 9.33093
178 4 1.07898 12.979 5.86523 14.4657
6 4 1.30586 15.7407 2.4936 9.24157
263 3 -0.847996 14.966 1.33225 8.53531
181 4 1.33408 11.5577 3.80306 12.4963
201 2 0.140281 12.7982 2.2477 11.3089
200 2 0.234587 12.5516 3.79664 10.1357
193 2 0.0109669 12.1508 6.19183 15.993
266 2 0.161497 14.9019 5.05698 15.3104
65 3 -0.846932 13.846 5.87262 9.71705
249 1 -0.674123 13.8803 5.30733 16.0343
214 2 -0.0115998 12.473 0.245765 8.83251
254 1 -0.667253 1.78263 12.1195 4.47892
125 2 0.00943083 3.87275 9.90213 2.17358
150 2 0.171157 2.79186 11.276 0.900716
209 1 -0.666622 5.74486 9.3064 6.10447
215 2 0.162242 5.8299 9.27519 5.00271
217 2 0.145031 6.20708 8.41196 6.62819
238 3 -0.740298 5.94678 12.0892 1.00337
271 2 0.154731 1.98305 11.1146 2.74703
256 2 0.132048 2.56121 11.3872 4.08398
258 1 -0.66175 5.79563 11.313 3.51504
259 2 0.138959 5.72119 10.3238 2.89349
260 2 0.139264 4.90593 11.4169 4.17564
122 2 0.00760592 4.2586 8.05869 5.82249
212 3 -0.756419 6.23147 11.7488 7.55657
47 1 -0.655588 2.14349 10.6459 1.52878
216 2 0.155251 4.78475 9.79763 6.55984
230 4 1.03573 5.4278 12.7884 2.45441
88 3 -0.801007 3.06547 8.28979 0.0591377
38 4 0.979067 6.44873 6.66162 2.56874
255 2 0.172908 1.21705 12.6362 3.6365
257 2 0.17705 2.16059 12.7646 5.33839
104 3 -0.818502 5.39186 6.58535 3.84284
261 2 0.253843 6.79955 11.3611 4.11346
166 2 0.0479269 7.12599 8.60979 2.60391
252 2 0.125432 11.3124 8.05907 0.62104
237 1 -0.668926 7.7281 9.92666 0.156733
167 2 0.158193 8.88427 7.38828 1.98307
213 2 0.0113102 8.86115 9.29007 3.24592
239 2 0.161593 7.12079 9.29776 0.909346
168 2 0.167013 8.73599 7.58517 3.83825
218 2 0.170491 9.35374 9.68562 7.60747
53 1 -0.646939 8.1923 7.45184 2.90275
206 4 1.22453 9.2472 10.7883 3.99551
240 2 0.154949 8.72249 10.506 0.531682
208 4 0.983618 7.16489 10.5556 6.77543
211 3 -0.785277 8.20224 11.1084 5.20924
133 2 0.269372 9.01854 12.5887 5.9198
67 3 -0.841715 12.6791 7.14164 7.60398
2 3 -0.809464 9.28531 11.7994 2.77394
34 4 0.899031 4.88674 9.07259 11.0055
40 4 0.853478 6.46449 11.5139 12.9935
108 3 -0.77558 5.6778 10.1768 12.4429
158 2 0.0868618 6.44632 8.74957 9.70329
131 2 -0.0189481 5.60604 12.8978 12.7642
50 1 -0.642816 5.47196 9.85714 9.35229
229 2 0.113315 5.59013 9.18418 13.6196
159 2 0.190103 5.95442 10.8403 9.53138
157 2 0.18306 4.91992 9.70694 8.43144
128 2 0.0170856 3.80184 10.21 10.0892
226 4 0.877617 4.75707 8.06668 14.6741
109 3 -0.788019 7.03285 11.5268 14.4476
198 2 0.150647 2.4497 12.479 14.5126
164 2 0.170573 2.50653 12.891 9.37341
204 2 0.15619 7.86692 7.17636 9.70373
236 4 0.991539 7.96765 11.9024 15.7821
264 2 0.109534 9.16546 13.1296 15.4251
194 2 0.111779 8.46138 6.97232 11.6954
274 2 0.174135 8.29386 10.5786 8.92938
241 2 0.165187 8.96065 9.81585 15.2431
269 2 0.149964 12.0008 8.86083 14.5247
132 2 -0.0307612 7.87472 11.7827 12.1179
140 2 0.158613 10.7431 10.1737 15.265
210 1 -0.650875 8.29062 9.80248 8.07062
219 2 0.146635 7.71359 8.83852 8.18739
ITEM: TIMESTEP
100
ITEM: NUMBER OF ATOMS
274
ITEM: BOX BOUNDS xy xz yz pp pp pp
-8.3797999999999995e+00 1.8013900000000000e+01 -8.3797999999999995e+00
0.0000000000000000e+00 1.3273200000000001e+01 1.1950000000000001e+00
0.0000000000000000e+00 1.6107651000000001e+01 4.3120000000000003e-01
ITEM: ATOMS id type q x y z
7 4 1.07778 1.34381 2.14704 5.65505
9 4 1.25519 -0.200046 4.57887 1.90993
10 4 1.56703 0.440121 4.54763 7.48874
55 3 -0.800001 1.53771 1.03949 1.02603
56 3 -0.794996 0.0962344 2.31714 4.64444
58 3 -0.793009 -1.38594 4.20807 2.944
59 3 -0.832702 0.326972 3.39341 1.00352
61 3 -0.759964 1.51217 3.5134 6.56549
62 3 -0.878807 -0.367679 5.55808 6.64119
78 3 -0.826162 1.00488 5.24716 2.6903
112 2 -0.0294542 -0.94704 5.70536 0.920583
113 2 0.101084 -1.564 5.27097 4.27722
12 4 1.34676 -0.815881 6.36004 5.43315
41 1 -0.695741 1.23059 0.50611 6.54242
134 2 0.229566 0.695991 0.831938 7.47926
5 4 1.27565 0.806368 2.20376 0.143229
118 2 -0.0199647 4.34124 0.951297 5.12177
135 2 0.126768 2.34217 0.248012 6.70392
84 3 -0.819446 2.86542 6.04431 4.52176
119 2 -0.0269064 6.91649 1.12443 5.29128
111 2 -0.000834416 2.77046 1.72782 4.72139
142 2 0.205666 2.63073 5.70421 0.949382
220 4 1.02855 6.59861 0.346219 1.87651
141 2 0.186392 3.38696 3.97324 1.39504
222 3 -0.783523 6.25924 1.25078 0.523991
223 2 -0.0116572 5.53921 1.01369 3.08551
243 2 0.144811 3.21861 1.56812 2.72795
242 1 -0.651366 3.64062 0.556097 3.37381
21 4 0.914348 5.64901 1.44599 6.26403
26 4 1.25157 5.49744 4.43574 7.18371
44 1 -0.645198 3.57076 5.09925 1.27475
74 3 -0.815149 5.68383 0.600143 7.62642
81 3 -0.850359 5.70266 2.94245 6.6777
143 2 0.229405 4.06764 5.57694 2.19216
85 3 -0.797745 4.8585 5.37909 6.04498
28 4 1.2841 4.32819 6.39065 4.96383
25 4 1.45052 1.68291 6.49593 3.53572
8 4 1.19431 1.48768 2.37676 10.8083
13 4 1.31567 -0.0119938 4.92041 12.4494
14 4 1.50959 -1.7457 6.6219 10.7004
42 1 -0.664848 1.78364 1.18871 12.2253
57 3 -0.783956 0.359483 1.43394 9.88629
63 3 -0.794006 -0.53143 4.35292 13.7845
64 3 -0.807252 0.630603 3.66799 11.6678
66 3 -0.865718 -1.23381 5.47642 11.6434
82 3 -0.798754 1.30352 5.43586 8.56725
86 3 -0.802323 1.76722 6.50994 11.397
114 2 0.0705561 1.10234 6.15213 12.8513
246 2 0.155671 2.81768 4.36395 14.6979
138 2 0.192549 1.3275 1.49189 13.2278
262 3 -0.772409 0.434035 1.99904 15.1305
245 1 -0.667885 3.12727 3.30899 14.9324
60 3 -0.809037 -0.579888 3.52263 8.41153
187 3 -0.825221 9.23558 0.425555 12.2784
136 2 0.171916 2.963 1.24276 12.2171
99 3 -0.82386 8.60402 0.555832 8.30247
77 3 -0.734937 6.49763 4.28454 15.6229
80 3 -0.747013 4.61328 4.48477 8.90208
195 2 0.241636 5.9932 1.20401 13.4187
197 2 0.220936 5.85879 0.625816 15.2074
76 3 -0.790962 6.56054 0.691037 11.6245
247 2 0.157878 3.21063 2.5818 14.0011
124 2 -0.0272898 3.93363 5.35773 12.5503
123 2 0.106551 3.87577 5.4735 10.0753
117 2 0.111434 5.10871 1.74639 8.63952
179 4 1.25 7.11392 2.56456 15.2248
183 1 -0.676213 5.78366 1.49635 14.4944
29 4 0.924678 3.348 6.37631 11.3736
248 2 0.174672 4.1563 3.3717 15.5515
73 3 -0.78722 3.13464 2.74201 10.211
20 4 1.22285 4.61112 2.98877 9.66555
23 4 1.20683 7.11169 2.40778 11.258
196 2 0.174978 4.77005 2.03572 14.6811
75 3 -0.830771 5.75644 3.05042 10.7865
266 2 0.18914 -1.91861 5.28397 15.5625
3 3 -0.807294 -5.60206 11.4444 0.935213
16 4 1.52718 -3.25766 8.00036 6.67908
17 4 1.25393 -4.66386 10.0286 5.01719
251 1 -0.638414 -5.12933 8.84077 1.40861
70 3 -0.769148 -4.56157 8.51578 5.55412
90 3 -0.827835 -3.35499 10.3843 4.04546
115 2 -0.0356186 -4.55059 11.1442 6.30893
152 2 0.170181 -2.25583 8.59483 1.2379
31 4 1.27787 -2.06974 10.3598 3.1088
68 3 -0.806497 -1.92469 7.45412 5.90998
153 2 0.18442 -2.5451 7.96552 2.97716
91 3 -0.841338 -2.807 9.32077 7.50831
265 2 0.177595 -4.14357 12.6193 2.7621
1 4 1.25212 -6.32267 12.6112 1.94276
48 1 -0.687446 -1.92446 8.61691 2.31311
69 3 -0.867977 -6.03008 10.2504 4.35488
244 2 0.144442 -5.57053 12.8397 4.09686
49 1 -0.650509 0.902548 9.52408 6.20456
253 2 0.173641 -3.91618 8.70295 1.73777
89 3 -0.792457 -1.98652 11.6651 1.95853
15 4 1.13858 -5.03405 10.1999 0.163348
155 2 0.131172 1.96809 10.011 6.30893
2 3 -0.826761 -7.40269 11.9968 2.96314
87 3 -0.849586 2.27187 7.64712 2.49146
94 3 -0.844236 -0.561014 12.0315 6.23482
93 3 -0.764727 -0.605725 10.4413 3.99678
79 3 -0.826787 0.356884 7.05058 4.58249
154 2 0.204771 0.401273 9.45244 7.2304
272 2 0.173201 0.857312 10.2087 1.48365
161 2 0.212101 -0.949824 10.1463 0.333546
19 4 1.33318 -1.02424 12.5587 7.70864
156 2 0.270985 0.808071 8.53329 5.56884
151 2 0.192095 -0.841817 8.4044 2.42979
30 4 1.02572 2.65168 8.79108 1.52279
33 4 1.15829 0.180929 11.034 5.29058
147 2 0.165228 2.24256 8.04198 8.01079
18 4 1.24094 -2.62834 8.298 13.0838
32 4 0.958558 -2.55539 10.2052 8.80505
72 3 -0.806572 -2.5937 8.25599 11.4832
98 3 -0.780322 -2.38816 10.6217 15.4624
116 2 0.00829212 -3.64847 9.67062 13.4496
126 2 0.105405 -2.57077 9.18696 10.1915
127 2 -0.0324724 -3.92187 11.1393 9.08336
139 2 0.163904 -4.85338 10.7578 13.7577
96 3 -0.756756 -1.19741 8.6983 13.7771
43 1 -0.659203 -5.10888 10.2021 14.6721
27 4 1.249 1.00413 6.75252 9.52699
71 3 -0.834305 -3.28763 7.08501 13.7904
162 2 0.194394 0.98368 11.5805 15.0677
92 3 -0.805137 -1.29989 11.1674 8.89231
160 2 0.155379 1.00202 9.68981 14.9444
22 4 1.19328 -0.642502 12.4851 11.8857
51 1 -0.673126 0.488434 10.6219 15.3594
149 2 0.189794 1.01909 9.10543 9.00518
120 2 0.0854963 -0.628262 11.5388 10.4379
148 2 0.186444 2.75217 8.63808 9.77023
46 1 -0.679281 1.87975 8.38806 9.03535
35 4 1.19193 -1.0923 10.4505 14.3562
97 3 -0.822003 -1.01352 11.4709 13.0352
228 2 -0.034077 3.26664 7.6246 13.8526
83 3 -0.843457 -0.544834 7.09779 9.76931
95 3 -0.831203 4.13506 7.74151 11.3596
137 2 0.167116 -7.08195 13.0632 11.8083
45 1 -0.675073 7.22304 5.23791 7.43886
54 1 -0.675711 10.1326 5.19668 6.14164
103 3 -0.777242 6.13704 6.12772 1.24051
169 2 0.178401 9.06224 5.32763 6.59662
146 2 0.187938 7.84891 4.27052 7.24578
224 2 0.168979 8.71289 1.30055 1.16444
145 2 0.166649 7.22922 5.92494 6.54922
225 2 0.103981 8.39423 1.02774 3.13908
170 2 0.172829 10.15 4.75367 5.13001
221 1 -0.642503 8.48877 0.531625 1.98649
171 2 0.206909 10.7579 6.12036 6.26753
130 2 0.0492239 8.04397 5.71729 3.26054
105 3 -0.797315 9.89307 2.95225 7.84351
234 2 0.179013 12.044 0.08591 1.30907
267 2 0.152948 12.5142 5.75725 0.855596
39 4 1.28767 11.1578 3.88732 7.13831
232 3 -0.797353 15.0025 1.29022 3.03463
101 3 -0.798054 14.2737 2.89116 5.02259
37 4 1.30269 13.046 2.01389 5.49498
129 2 -0.00290059 12.2407 1.47673 4.1096
106 3 -0.820246 12.0469 3.05313 6.05754
102 3 -0.85113 13.2804 0.781337 6.48441
207 4 1.26594 13.8063 0.327256 7.83057
231 1 -0.656851 12.2709 0.468845 2.38118
235 2 0.158825 12.4453 1.583 2.31871
250 2 0.15292 12.319 3.89088 0.315223
24 4 1.23486 4.99676 5.39504 0.0689655
249 1 -0.668341 12.6449 4.95141 0.00814497
257 2 0.179223 10.2521 0.206165 5.29725
4 4 1.44373 15.4789 2.56016 3.91077
36 4 1.26894 9.36221 1.81643 8.93446
52 1 -0.676736 10.984 1.06096 9.63343
100 3 -0.80925 8.24138 2.5142 10.1997
165 2 0.223123 10.9354 1.25277 10.7223
180 4 1.20639 9.67641 1.43393 13.4018
189 3 -0.794797 10.9988 2.40735 12.8488
192 3 -0.806677 10.4116 4.68831 11.5775
203 2 0.0514195 9.00487 5.09508 9.23739
182 4 1.05342 10.0067 5.78646 10.4525
205 2 0.17979 7.25853 5.90965 10.5036
186 1 -0.676262 8.15989 6.52278 10.2984
144 2 0.174181 7.50022 5.69426 8.48298
188 3 -0.80022 8.17436 2.57968 14.0872
273 2 0.193328 9.91654 0.543053 15.7863
199 2 0.174015 11.4516 1.1178 14.8178
121 2 0.103381 7.60543 3.17951 12.7258
184 1 -0.67867 10.4564 0.516573 14.8302
65 3 -0.8214 13.7881 6.03499 9.9573
172 4 0.937526 15.9712 2.62691 14.3061
190 3 -0.790688 12.1109 4.72041 13.6801
107 3 -0.831248 12.0777 4.51941 8.3936
174 2 0.0482639 14.572 2.86408 15.4592
173 1 -0.668098 14.2763 1.71354 14.0032
110 2 0.0167517 14.8989 2.93175 10.5853
177 2 0.177213 14.3051 0.724648 14.5204
176 2 0.200145 13.2322 2.0829 13.7164
175 2 0.0341143 15.279 1.61034 12.7737
202 2 0.237734 13.8273 4.15704 11.6417
11 4 1.48546 12.5544 6.02912 8.88295
185 1 -0.684717 13.0312 3.36978 11.2882
163 2 0.158952 11.7479 1.70382 8.99765
178 4 1.0694 12.8675 5.85702 14.5537
6 4 1.25005 15.8279 2.26452 9.28486
263 3 -0.838464 14.8402 1.27894 8.56718
181 4 1.33779 11.5184 3.85141 12.4059
201 2 0.150122 13.3715 2.32291 11.5627
200 2 0.223797 12.6924 3.55139 10.2183
193 2 -0.00543567 12.0508 6.2768 15.9936
254 1 -0.659685 1.73445 12.2095 4.53889
125 2 0.00511555 3.78761 9.96161 2.11444
150 2 0.163855 2.35678 11.1783 0.90154
209 1 -0.654955 5.86247 9.21189 6.24185
215 2 0.15308 5.95609 8.95291 5.10571
217 2 0.140174 6.07367 8.34116 6.95677
238 3 -0.79058 5.95862 12.0747 0.970941
271 2 0.166568 1.91982 11.1592 2.81048
256 2 0.137272 2.67473 11.6227 4.3815
258 1 -0.679399 5.71325 11.2771 3.76113
259 2 0.13424 5.37248 10.4081 3.07718
260 2 0.171936 4.97286 11.6395 4.54137
122 2 -0.00634503 4.43104 7.98079 5.59969
212 3 -0.763022 6.25743 11.8003 7.43624
47 1 -0.673546 1.93777 10.5403 1.72995
216 2 0.158574 4.85258 9.58719 6.4646
230 4 1.09085 5.75552 12.7386 2.47455
67 3 -0.861757 12.953 6.94589 7.62994
38 4 1.0135 6.51763 6.65862 2.6591
255 2 0.168053 1.27809 12.604 3.50158
210 1 -0.638445 8.49114 10.0871 7.95061
104 3 -0.844762 5.36372 6.53938 3.82619
261 2 0.248744 6.76704 11.2031 4.198
166 2 0.0293631 7.01085 8.53564 2.78222
252 2 0.122616 11.3536 8.02153 0.594315
237 1 -0.649162 7.65657 9.96322 0.0809756
167 2 0.163199 8.93991 7.38823 2.021
213 2 -0.00108797 8.72562 9.34401 3.028
239 2 0.158698 7.16696 9.43753 0.983858
168 2 0.168476 8.93649 7.60854 3.88285
218 2 0.179823 9.50648 10.0692 7.41722
53 1 -0.645969 8.3245 7.41427 2.95414
206 4 1.17952 9.38337 10.7255 3.87007
240 2 0.134592 8.64213 10.5829 0.481359
208 4 1.03103 7.20987 10.6612 6.77703
211 3 -0.742248 8.22149 11.0456 5.23584
133 2 0.26601 9.12521 12.5254 6.01653
268 2 0.192192 10.9613 9.03031 2.29301
270 2 0.189703 0.787983 12.4814 1.87065
233 2 0.157074 3.10855 12.8971 3.21823
34 4 0.85957 5.07478 9.01084 11.1278
40 4 0.860876 6.63352 11.5418 12.9162
108 3 -0.768302 5.89878 10.1576 12.5411
158 2 0.0777676 6.58117 8.40275 9.99591
131 2 -0.0296232 5.85362 13.0335 12.6293
50 1 -0.641161 5.47735 9.40805 9.33985
229 2 0.118942 5.29897 9.2694 13.6568
159 2 0.183972 5.9469 10.3897 9.14782
157 2 0.166659 5.16711 8.88105 8.33476
128 2 0.0242721 4.03035 10.1574 10.1055
226 4 0.947256 4.62854 8.0851 14.7375
109 3 -0.818155 7.20304 11.5727 14.4035
198 2 0.158797 2.24118 12.3135 14.3554
164 2 0.156349 2.5164 12.7148 9.42958
204 2 0.14948 8.0931 7.25351 9.39468
236 4 1.05053 7.87616 11.9456 15.7179
219 2 0.127749 7.90188 8.96846 8.05799
194 2 0.13962 8.41531 7.22525 11.2788
274 2 0.175142 8.41162 10.7004 8.9138
241 2 0.171811 9.03394 9.80573 15.1783
269 2 0.136671 11.8421 9.09179 14.529
132 2 -0.0296128 7.86227 11.7986 11.7578
140 2 0.164411 10.6183 10.3585 15.0393
214 2 -0.0237097 4.14655 12.8386 8.84263
191 3 -0.771721 11.1157 6.7158 9.76996
88 3 -0.820047 4.21717 8.73343 16.0219
227 3 -0.766183 5.6582 6.84414 14.8909
264 2 0.0962452 8.97491 13.2262 15.1897
ITEM: TIMESTEP
200
ITEM: NUMBER OF ATOMS
274
ITEM: BOX BOUNDS xy xz yz pp pp pp
-8.3797999999999995e+00 1.8013900000000000e+01 -8.3797999999999995e+00
0.0000000000000000e+00 1.3273200000000001e+01 1.1950000000000001e+00
0.0000000000000000e+00 1.6139802000000003e+01 4.3120000000000003e-01
ITEM: ATOMS id type q x y z
7 4 1.11264 1.21319 2.3347 5.48787
9 4 1.25047 -0.276835 4.54738 1.94846
10 4 1.59138 0.431819 4.51741 7.6344
55 3 -0.812164 1.55268 1.03346 0.867512
56 3 -0.832686 0.0187258 2.31652 4.45455
58 3 -0.819951 -1.55242 4.21768 2.86394
59 3 -0.851701 0.181502 3.43061 0.980663
61 3 -0.790985 1.31607 3.4125 6.70987
62 3 -0.837846 -0.206789 5.44908 6.51183
78 3 -0.83846 1.01567 5.1849 2.72681
112 2 -0.0177215 -0.868564 5.83489 0.998324
113 2 0.0927274 -1.52042 5.23621 4.13724
12 4 1.29746 -0.828355 6.32727 5.31648
41 1 -0.664072 1.23272 0.663356 6.36175
134 2 0.218952 0.845254 0.997045 7.41172
5 4 1.27907 0.723102 2.2287 0.133138
118 2 -0.0107219 4.82767 1.02306 4.81625
135 2 0.143108 2.33084 0.429929 6.39239
84 3 -0.851694 2.98887 6.12393 4.34318
119 2 -0.0302214 7.34423 1.21622 5.52528
111 2 0.00968592 2.69317 2.09469 4.47934
142 2 0.189513 2.53809 5.01665 0.492984
220 4 1.04657 6.6393 0.406974 1.79082
141 2 0.171068 3.71311 3.56674 0.985932
222 3 -0.795388 6.3656 1.24965 0.475055
223 2 -0.00915169 5.52209 1.0683 3.02137
243 2 0.151977 3.18267 1.76415 2.75009
242 1 -0.658209 3.57135 0.805067 3.31847
21 4 0.893799 5.77911 1.43306 6.19436
26 4 1.25371 5.44212 4.5141 7.10172
44 1 -0.637272 3.61331 4.71536 0.940938
74 3 -0.786555 5.44888 0.585072 7.55882
81 3 -0.824664 5.56401 2.94384 6.55734
143 2 0.207642 3.92597 5.24946 1.97557
85 3 -0.809184 4.77331 5.49969 6.12111
28 4 1.2603 4.37884 6.47697 4.9046
25 4 1.452 1.62678 6.41995 3.57916
244 2 0.142385 2.82536 0.344462 4.10152
8 4 1.22137 1.56346 2.37295 11.0157
13 4 1.22472 -0.082668 4.83535 12.4304
14 4 1.45574 -1.79525 6.65612 10.7982
42 1 -0.686377 1.94588 1.02273 12.2444
57 3 -0.773589 0.243213 1.69353 9.89645
63 3 -0.805566 -0.719243 4.15353 13.9193
64 3 -0.837464 0.778669 3.63457 11.7289
66 3 -0.883265 -1.25709 5.52899 11.7128
82 3 -0.813266 1.18875 5.56172 8.67705
86 3 -0.783338 2.01849 6.61101 11.3248
114 2 0.0702116 1.07752 6.05237 12.5962
246 2 0.156853 2.50542 4.61717 14.8617
138 2 0.187603 1.64747 1.27949 13.3409
262 3 -0.799968 0.50832 1.97772 15.1169
245 1 -0.67024 2.97654 3.60231 15.0023
60 3 -0.830664 -0.713033 3.63261 8.37625
75 3 -0.815097 5.72355 3.15184 10.7361
136 2 0.175654 3.05787 0.885662 12.0682
99 3 -0.865884 8.23445 0.702477 8.39958
77 3 -0.765192 6.79559 4.18128 15.63
80 3 -0.757942 4.64723 4.47424 8.85138
195 2 0.199776 5.97192 1.54633 13.475
197 2 0.209792 5.70314 0.743318 15.2135
76 3 -0.821953 6.69926 0.831074 11.4702
247 2 0.164792 2.98285 2.95839 14.1113
124 2 -0.0196147 3.91738 5.12855 12.5427
123 2 0.0997035 4.11696 5.52101 10.0322
117 2 0.121377 5.18846 1.79741 8.57891
179 4 1.26667 7.1775 2.5469 15.2318
183 1 -0.660111 5.63782 1.7311 14.5671
29 4 0.917998 3.57574 6.28325 11.4341
248 2 0.164745 3.98908 3.54891 15.6691
73 3 -0.784777 3.06453 2.62498 10.1894
20 4 1.20213 4.5478 2.99803 9.61322
23 4 1.22958 7.13912 2.32542 11.1223
196 2 0.17574 4.62365 2.37823 14.6959
121 2 0.0994584 7.68089 2.88927 12.6808
3 3 -0.789385 -5.58828 11.4877 1.02969
16 4 1.51781 -3.07269 8.01591 6.65256
17 4 1.27122 -4.69878 9.89146 4.98696
251 1 -0.654198 -4.95546 8.82778 1.29262
70 3 -0.778969 -4.41361 8.48507 5.60913
90 3 -0.822074 -3.43235 10.21 4.01336
115 2 -0.0179493 -4.67539 10.984 6.31119
152 2 0.158324 -1.95647 8.98342 1.28341
31 4 1.25974 -2.05405 10.3035 3.21726
68 3 -0.835467 -1.93912 7.38807 5.79191
153 2 0.184914 -2.72374 7.97172 2.75105
91 3 -0.831087 -2.73282 9.42316 7.67737
265 2 0.162193 -4.16261 12.8194 2.66355
1 4 1.26566 -6.31396 12.6923 1.9428
48 1 -0.688979 -1.8711 8.63045 2.38843
69 3 -0.837418 -6.1374 10.1643 4.40146
147 2 0.189788 1.71222 7.85992 7.691
49 1 -0.654859 0.841186 9.62287 6.27098
253 2 0.184813 -3.78698 8.72495 1.67953
89 3 -0.771634 -1.99723 11.7364 1.93529
15 4 1.11266 -5.08519 10.23 0.133997
155 2 0.142728 1.93558 9.76748 6.50005
2 3 -0.830278 -7.35988 12 2.90914
87 3 -0.831196 1.84894 7.59271 2.47966
94 3 -0.824739 -0.561429 11.9052 6.40402
93 3 -0.775595 -0.747032 10.6291 4.14477
79 3 -0.811588 0.301737 7.20729 4.58648
154 2 0.225395 0.0915993 9.69923 7.13702
272 2 0.155584 0.576582 9.95302 1.37393
161 2 0.216666 -1.16238 10.5848 0.376871
19 4 1.29565 -1.18665 12.5213 7.85803
156 2 0.274315 0.625863 8.61685 5.66493
151 2 0.216499 -0.865565 8.32965 2.75383
30 4 1.06545 2.38636 8.68843 1.53167
33 4 1.14166 0.259441 11.1745 5.31338
67 3 -0.848046 -3.71696 6.89021 7.55447
47 1 -0.660777 1.64296 10.5068 1.66771
18 4 1.23597 -2.654 8.38158 13.2088
32 4 0.986067 -2.64096 10.2169 8.96608
72 3 -0.823402 -2.50414 8.23656 11.6522
98 3 -0.788485 -2.42765 10.8361 15.452
116 2 0.000666449 -3.83039 9.68913 13.4088
126 2 0.0812448 -2.81104 9.17862 10.3158
127 2 -0.0380689 -3.99504 11.1624 9.23627
139 2 0.145871 -4.9786 10.8052 13.9107
96 3 -0.753905 -1.30227 8.82058 13.9011
43 1 -0.66111 -5.18663 10.0255 14.7339
27 4 1.25661 0.973011 6.8468 9.64492
187 3 -0.824198 0.843873 13.0382 12.216
162 2 0.187736 1.18461 11.6088 15.0885
92 3 -0.814178 -1.39958 11.1567 9.11371
160 2 0.157574 0.932206 9.72559 15.3463
22 4 1.22401 -0.584369 12.4093 11.9037
51 1 -0.671039 0.470199 10.7523 15.4622
149 2 0.171197 1.22955 9.25897 9.06342
120 2 0.0977092 -0.452317 11.506 10.4308
148 2 0.157561 2.90575 8.35262 9.16197
46 1 -0.656302 1.85785 8.27168 8.79059
35 4 1.22788 -1.11765 10.5824 14.503
97 3 -0.822814 -0.933027 11.5097 13.1404
228 2 0.00449507 3.45521 7.86762 13.8151
83 3 -0.817194 -0.580717 7.28091 9.86632
95 3 -0.818473 4.37213 7.62333 11.7563
137 2 0.153566 -7.04874 13.0046 11.7391
45 1 -0.685701 7.23874 5.11267 7.13134
54 1 -0.669799 10.3502 5.36918 6.32396
103 3 -0.743483 6.24295 6.12683 1.22831
169 2 0.16881 9.20843 5.32811 6.57217
146 2 0.181872 7.73276 4.08709 6.90809
224 2 0.173782 8.88874 1.3016 1.14156
145 2 0.167729 7.32869 5.85246 6.28938
225 2 0.0937975 8.37959 1.02748 3.03126
170 2 0.175575 10.4707 5.06118 5.27016
221 1 -0.645864 8.5251 0.541402 1.89138
171 2 0.226756 10.8225 6.3847 6.58397
130 2 0.0488932 8.28514 5.86105 3.16643
105 3 -0.807483 9.76197 2.89155 7.8662
4 4 1.44685 15.4009 2.54121 3.82835
267 2 0.173292 12.5348 5.37169 0.952853
39 4 1.31068 11.0777 3.82392 7.20275
232 3 -0.791045 14.9009 1.23643 2.93125
101 3 -0.809109 14.3283 2.7805 5.06176
37 4 1.33353 12.9566 2.10946 5.51287
129 2 0.00650673 12.1516 1.33604 4.13064
106 3 -0.859595 11.8419 3.01616 6.08124
102 3 -0.850315 13.2808 0.880315 6.36761
207 4 1.24904 13.8946 0.345837 7.72531
231 1 -0.655587 12.1919 0.615432 2.25583
235 2 0.160475 12.0588 1.74205 2.15086
250 2 0.164992 11.6698 3.81333 0.59137
233 2 0.15574 11.4214 0.113084 3.05742
249 1 -0.675306 12.2494 4.66056 0.175437
36 4 1.3444 9.25324 1.76647 8.97794
52 1 -0.678345 10.9816 0.907576 9.42365
100 3 -0.843503 8.45414 2.43087 10.2033
165 2 0.202704 11.0721 0.924777 10.5758
180 4 1.22473 9.82304 1.28331 13.3131
189 3 -0.803903 10.9305 2.35674 12.7777
192 3 -0.768099 10.6525 4.81848 11.33
203 2 0.0822819 8.89995 4.72271 9.2444
182 4 1.06283 10.0017 5.78368 10.2506
205 2 0.182325 7.03432 5.837 10.0172
186 1 -0.672076 8.10078 6.25873 9.9967
144 2 0.176731 7.56841 5.49329 8.14289
188 3 -0.770798 8.31754 2.38458 14.0591
200 2 0.240787 13.2579 3.75294 10.5063
199 2 0.176188 11.6056 0.957124 14.9363
266 2 0.156182 14.4729 4.69078 15.6381
65 3 -0.791422 13.8136 5.86558 9.85597
193 2 0.0127634 11.8091 6.15805 15.9151
172 4 1.02829 16.027 2.672 14.4504
190 3 -0.810151 12.2226 4.68302 13.5851
107 3 -0.811603 12.0944 4.47519 8.36037
174 2 0.042543 14.6573 2.37983 15.6188
173 1 -0.660611 14.4322 1.63628 13.9006
110 2 0.0359427 14.8621 3.04271 10.5078
177 2 0.174277 14.273 0.572765 14.3267
176 2 0.19071 13.4497 2.11453 13.5881
175 2 0.0558306 15.5514 1.56312 12.7477
202 2 0.203341 14.0262 3.56687 12.2448