ITEM: TIMESTEP
0
ITEM: NUMBER OF ATOMS
274
ITEM: BOX BOUNDS xy xz yz pp pp pp
-8.3797999999999995e+00 1.8013900000000000e+01 -8.3797999999999995e+00
0.0000000000000000e+00 1.3273200000000001e+01 1.1950000000000001e+00
0.0000000000000000e+00 1.6075500000000002e+01 4.3120000000000003e-01
ITEM: ATOMS id type q x y z
119 2 0.0075212 7.36786 1.23302 5.28466
12 4 1.305 -0.996022 6.46192 5.30917
7 4 1.10315 0.911585 2.20187 5.17832
9 4 1.25192 -0.331825 4.73166 1.83393
10 4 1.56671 0.284129 4.42106 7.24978
242 1 -0.686867 3.24523 0.490568 3.16246
21 4 0.814618 5.69452 1.43844 5.70759
26 4 1.25083 5.36384 4.37513 6.80933
41 1 -0.674952 0.975833 0.578701 6.19723
44 1 -0.676659 3.74554 4.01791 1.80979
55 3 -0.791999 1.14621 0.948789 1.12899
56 3 -0.824015 -0.492089 2.41387 4.39565
58 3 -0.777028 -1.69111 4.52008 2.71756
59 3 -0.866589 0.0839074 3.45847 1.04043
243 2 0.151715 3.62683 1.57521 3.21231
61 3 -0.752678 1.3402 3.2916 6.21556
62 3 -0.843133 -0.76045 5.34812 6.44103
74 3 -0.834699 5.87503 0.410019 7.37017
78 3 -0.873428 0.601711 5.4251 2.89604
81 3 -0.818381 5.50346 2.96943 5.94714
84 3 -0.821561 2.81668 5.97011 4.18831
85 3 -0.787787 4.79986 5.67672 5.92532
113 2 0.122332 -1.49554 5.51749 4.0014
111 2 0.0135278 2.19167 1.86469 4.04239
112 2 -0.0330261 -0.645857 5.84599 0.591903
24 4 1.18997 4.69154 4.91019 0.49435
118 2 -0.0319866 4.43867 0.733874 4.75732
5 4 1.31823 0.488812 2.12006 0.212754
222 3 -0.778459 6.32365 1.47272 1.27519
223 2 -0.0929722 6.2608 0.937965 4.00027
141 2 0.171832 3.79251 2.91228 1.54849
142 2 0.206282 2.73639 4.5326 1.70543
143 2 0.188166 4.35252 4.19431 2.79125
220 4 1.01473 6.80863 0.400067 2.33219
82 3 -0.806121 1.37606 5.43766 7.84352
135 2 0.236226 0.537175 0.931526 7.19706
197 2 0.202385 4.39156 0.674817 0.0661422
138 2 0.171264 1.72371 0.526045 12.2345
8 4 1.23808 1.78529 2.61143 10.9725
13 4 1.22899 0.453637 4.92252 12.3227
229 2 -0.00332076 3.61719 6.31791 13.2329
20 4 1.27387 4.65265 2.79423 9.33828
23 4 1.25217 6.99196 2.68823 11.2295
99 3 -0.857958 8.34674 1.11071 8.32404
226 4 0.869347 3.40894 6.27301 14.9338
42 1 -0.670603 2.34974 1.47256 12.3467
57 3 -0.830184 0.398015 2.01805 10.4305
63 3 -0.863994 -0.210938 3.73903 13.2405
64 3 -0.813208 1.88749 4.39672 11.8126
65 3 -0.849742 -2.32572 6.52914 9.61285
66 3 -0.893673 -0.489772 5.50684 11.1961
73 3 -0.754317 3.17463 2.38959 9.91973
75 3 -0.854616 5.64409 3.07222 10.5566
76 3 -0.871427 6.96431 1.25537 11.9012
80 3 -0.772682 4.69046 4.03264 8.49468
29 4 0.961379 3.769 6.62451 11.0175
137 2 0.191371 3.44673 1.33267 12.2612
114 2 -0.0600759 0.948239 6.10766 13.4103
248 2 0.188632 3.77267 3.96156 15.4325
124 2 0.0811498 3.4234 5.11793 11.6822
136 2 0.168818 2.03312 2.10788 13.2542
179 4 1.25347 7.35907 2.5767 15.77
183 1 -0.674001 5.84863 1.64569 15.1456
77 3 -0.747212 7.10068 4.06814 15.8366
60 3 -0.841228 -0.378435 3.49205 8.40343
196 2 0.173207 5.14896 2.52584 14.9174
117 2 0.0801768 5.17463 1.49 8.38122
227 3 -0.818377 4.7773 5.78464 15.5541
195 2 0.213426 6.05351 0.925039 14.2914
245 1 -0.697499 3.03229 3.21119 15.0628
246 2 0.151299 2.46611 3.55493 14.1387
247 2 0.16276 3.52187 2.13002 14.901
262 3 -0.809086 0.379699 1.92245 15.3754
228 2 -0.0245856 2.31341 5.02895 15.2794
266 2 0.0706208 -1.7984 5.164 15.8799
149 2 0.147947 2.35844 9.1946 7.74408
3 3 -0.812518 -5.86273 11.4344 0.92128
268 2 0.165345 -4.71804 8.04023 0.376345
16 4 1.45048 -3.23698 8.18113 6.68801
17 4 1.26904 -4.67138 9.95873 4.75513
154 2 0.188289 1.07849 9.56764 7.40196
161 2 0.188901 -1.08057 10.0526 0.269279
31 4 1.22381 -2.07733 10.3181 3.06329
33 4 1.18558 0.0334129 11.0061 5.5341
48 1 -0.652648 -1.34925 8.97516 1.97632
49 1 -0.6586 0.199523 9.52836 6.68769
122 2 -0.00316891 3.61067 7.95718 5.85314
68 3 -0.832384 -2.03586 7.52347 5.73167
28 4 1.2512 4.10433 6.66027 4.90082
70 3 -0.813178 -4.49552 8.78502 5.80856
79 3 -0.849063 0.440008 7.25918 4.80613
87 3 -0.788869 1.7875 7.71687 2.31779
30 4 1.01154 2.35031 8.25257 0.928859
89 3 -0.757979 -2.21666 11.8225 2.06656
90 3 -0.835646 -3.49483 10.0351 3.6935
93 3 -0.814457 -0.828124 10.7025 4.3199
94 3 -0.827627 -0.298749 12.3079 6.363
115 2 -0.0480396 -4.582 11.3456 5.65336
147 2 0.180671 2.06975 7.70458 6.50523
151 2 0.175528 -0.127962 9.38472 1.54332
152 2 0.177245 -2.16556 8.8821 1.21215
153 2 0.18372 -1.31472 8.11586 2.72868
272 2 0.175119 0.657763 10.276 0.334311
155 2 0.271799 0.243406 8.62417 5.8465
156 2 0.27284 -0.859635 9.50689 7.24184
46 1 -0.664502 2.56186 8.06013 7.47571
148 2 0.169685 3.67649 7.78185 7.54135
271 2 0.162555 1.61594 10.3246 1.98657
19 4 1.39037 -1.00946 12.8219 7.72627
1 4 1.29094 -6.59505 12.5888 2.04898
69 3 -0.841261 -6.07141 9.92282 4.00622
91 3 -0.847432 -2.49921 9.45089 7.82009
265 2 0.198957 -4.31674 12.6763 2.63654
47 1 -0.671046 1.63793 10.0303 0.889911
252 2 0.21683 -5.55387 9.0644 1.80629
244 2 0.129353 -5.51883 12.9054 4.18333
25 4 1.45339 1.45828 6.54935 3.61456
251 1 -0.664431 -5.57429 8.72751 0.689969
133 2 0.146747 -6.35546 12.9992 6.28341
159 2 0.199441 1.43993 10.7554 13.3523
18 4 1.1999 -2.15607 8.20443 12.8027
22 4 1.25716 -0.601027 12.755 11.9942
32 4 0.961218 -2.06159 10.421 8.97513
35 4 1.27447 -1.39557 10.7068 14.2119
43 1 -0.650828 -5.83661 11.1923 14.1677
15 4 1.10914 -4.14393 10.9071 15.9356
157 2 0.213309 1.00717 9.15792 12.4226
51 1 -0.647921 0.134144 11.1188 15.3405
162 2 0.205993 -0.0947966 12.1977 15.5593
72 3 -0.806953 -1.44596 8.30223 11.4292
83 3 -0.800667 0.138217 7.33087 9.30313
158 2 0.166897 1.99667 10.5148 11.5739
92 3 -0.83067 -0.844548 11.3651 8.9508
95 3 -0.834609 3.58315 7.80567 12.0581
96 3 -0.75729 -1.14553 9.08925 13.8612
97 3 -0.835337 -1.30211 11.6318 12.8109
98 3 -0.812002 -2.75814 10.8519 15.1156
116 2 -0.0229162 -3.63971 8.86694 12.7458
120 2 0.0763073 -0.593565 12.103 10.4187
126 2 0.126858 -1.47492 9.40533 10.1766
127 2 -0.0468831 -3.42629 11.1853 9.47775
128 2 0.0726867 2.60797 9.25189 14.2379
140 2 0.169154 -6.05753 12.0576 14.9455
50 1 -0.67201 1.78556 10.0035 12.6091
139 2 0.161035 -5.03117 11.4964 13.4232
160 2 0.16066 1.0733 10.9582 14.7286
88 3 -0.781993 3.17302 7.80479 15.6221
187 3 -0.785829 0.93222 12.909 12.4945
27 4 1.37759 1.68242 6.79413 8.67054
71 3 -0.840538 -2.64064 6.80287 13.4758
14 4 1.52027 -0.908176 6.71623 10.3425
86 3 -0.809613 2.76232 6.77564 9.79324
235 2 0.158058 11.4337 1.4577 3.10554
37 4 1.23805 13.0566 1.96974 5.72219
230 4 1.12617 13.7095 0.197552 2.45872
39 4 1.27536 11.3668 3.93211 7.58946
45 1 -0.67338 7.18251 4.85936 7.03333
54 1 -0.665595 10.4709 5.24548 6.66061
101 3 -0.757505 13.9421 3.11263 4.78181
102 3 -0.862747 13.8525 1.10518 6.7348
221 1 -0.66991 8.68411 0.259341 1.95736
4 4 1.44475 14.9906 2.80804 3.57123
106 3 -0.784379 12.0877 2.92316 6.5626
232 3 -0.824104 14.4076 1.58157 2.65044
129 2 -0.0218593 12.1916 0.8933 4.69625
130 2 0.0812895 7.74545 5.91273 3.07248
169 2 0.22884 10.856 6.25645 7.00033
250 2 0.180021 11.5539 4.82325 0.507261
146 2 0.178401 7.76822 3.97277 6.67848
231 1 -0.667613 11.7398 0.396546 2.84689
145 2 0.173031 7.28541 5.73931 6.34932
170 2 0.176873 9.28331 5.15672 6.78823
171 2 0.189426 10.82 5.0172 5.59456
234 2 0.169427 11.5042 0.0932524 1.75206
224 2 0.176685 8.74918 1.19326 1.2714
249 1 -0.620394 12.4172 5.44491 0.0239366
103 3 -0.758629 5.6399 6.34505 1.24297
225 2 0.134673 9.01081 0.46828 3.041
273 2 0.176621 9.37513 0.121567 0.0409424
207 4 1.30062 14.5558 0.222033 7.75237
11 4 1.51525 13.1002 6.27677 8.97895
36 4 1.32419 9.20947 2.07413 9.20719
52 1 -0.670037 10.5078 0.824795 9.96944
188 3 -0.757304 8.7602 2.01182 14.6576
100 3 -0.829584 8.40475 2.90056 10.3895
107 3 -0.791802 12.6332 4.71835 8.87444
110 2 0.0243404 14.756 2.96031 10.2949
204 2 0.156792 8.04412 6.20945 10.7137
202 2 0.179121 14.0585 3.63861 11.9081
163 2 0.16809 11.4654 1.46368 10.0179
6 4 1.31352 16.052 2.30067 9.37429
165 2 0.238365 10.1282 0.455379 10.9928
172 4 1.00383 16.2384 2.50744 14.1913
173 1 -0.661423 14.6523 1.48832 13.5787
174 2 0.0584674 14.6201 2.7733 14.9585
175 2 0.0911062 15.7238 0.828914 13.1187
176 2 0.162784 14.1128 2.03249 12.6791
144 2 0.17852 7.33768 5.10506 8.14687
178 4 1.10036 13.6239 5.6007 14.3863
180 4 1.26253 9.94502 1.44883 13.8322
181 4 1.28897 11.8989 3.82276 12.6931
205 2 0.171591 9.33953 5.08852 9.42519
185 1 -0.699528 13.1152 3.2049 11.3321
186 1 -0.660991 8.90318 6.27684 9.99764
189 3 -0.778679 10.846 2.64626 13.2283
190 3 -0.826398 12.8753 4.34571 13.846
192 3 -0.757734 11.0315 5.19682 11.9574
263 3 -0.865622 15.4669 1.00842 8.6759
199 2 0.176441 11.9904 1.01605 14.8128
200 2 0.265412 12.958 3.78523 10.2839
201 2 0.132265 12.969 2.0738 11.4168
182 4 1.06008 10.6518 6.25666 10.807
105 3 -0.798022 10.1727 3.09681 8.32524
177 2 0.179664 13.9507 0.748763 14.1335
123 2 -0.0354889 5.33483 6.3418 10.5606
184 1 -0.663932 10.9943 0.518213 14.9637
121 2 0.013438 7.03767 3.86014 12.4876
237 1 -0.676151 7.32248 10.1791 0.0756026
256 2 0.147923 1.42641 11.2738 3.79024
167 2 0.175789 9.1306 7.41726 2.38626
53 1 -0.648571 8.18602 7.40501 2.94133
104 3 -0.823398 5.11818 7.25676 3.85161
233 2 0.158209 2.85059 12.5205 3.62419
125 2 0.0130141 4.04292 8.16502 1.11147
150 2 0.147311 2.55989 10.4664 0.360704
166 2 0.0210685 6.91324 8.54316 2.0737
168 2 0.180877 8.4117 7.80649 3.86983
206 4 1.21358 9.29102 10.3926 3.66099
215 2 0.14992 7.01663 7.96584 6.87726
208 4 1.04635 7.70336 10.2398 6.4366
209 1 -0.653159 6.33796 8.85906 6.51178
255 2 0.159608 2.36677 12.2049 5.24619
211 3 -0.798874 8.25383 10.3519 4.97753
212 3 -0.760654 6.8724 11.7796 7.14293
213 2 -0.00603309 8.65824 9.27742 2.49973
254 1 -0.661064 1.88399 11.2353 4.95497
216 2 0.18943 5.97443 8.75728 5.40645
217 2 0.15211 5.51725 9.24387 7.20793
219 2 0.205995 9.88103 9.10662 7.02271
253 2 0.146463 10.3213 8.33721 0.2707
270 2 0.186384 0.700964 12.2012 1.55158
238 3 -0.791967 5.59665 12.2693 1.00897
240 2 0.159256 8.0283 10.27 0.942034
239 2 0.143871 6.47895 9.36334 0.31222
257 2 0.155108 2.5121 10.3596 5.11208
258 1 -0.673273 5.96888 11.836 3.89103
259 2 0.214656 6.62324 11.1237 3.47107
260 2 0.136933 4.92811 11.4777 4.22537
261 2 0.218149 6.39839 12.5359 4.61252
38 4 0.978302 6.18056 7.00313 2.56063
210 1 -0.663878 9.12898 9.62526 7.65588
134 2 0.229368 8.73204 12.7769 5.60757
2 3 -0.82547 9.21349 11.8641 3.0437
267 2 0.159786 12.4919 6.61898 0.273766
67 3 -0.811584 12.939 6.88688 7.51401
198 2 0.168228 2.58019 12.3083 14.5684
40 4 0.903475 5.97197 11.2766 13.0529
108 3 -0.816609 4.74504 10.2867 12.9053
109 3 -0.826391 6.50931 11.5466 14.4785
214 2 -0.0358408 4.97265 12.4823 8.76916
132 2 -0.0464446 7.42411 10.799 12.3017
236 4 1.07043 7.29875 11.9893 15.774
34 4 1.03043 3.53221 9.27307 12.7385
131 2 -0.0228302 5.66022 12.754 12.4738
193 2 0.0757865 11.1774 9.89394 14.9136
218 2 0.170681 9.55141 10.5542 8.13625
194 2 0.0132871 9.56757 7.47183 11.4225
241 2 0.164096 9.04844 10.2819 15.2272
191 3 -0.783348 11.7987 7.02597 10.0829
264 2 0.0607132 8.93634 12.3924 15.4167
274 2 0.149816 8.64201 8.97193 8.39053
164 2 0.178689 2.05797 12.8339 9.19271
269 2 0.152325 10.0503 11.0331 13.6635
203 2 0.151242 8.67039 7.10564 9.27015
ITEM: TIMESTEP
100
ITEM: NUMBER OF ATOMS
274
ITEM: BOX BOUNDS xy xz yz pp pp pp
-8.3797999999999995e+00 1.8018180666666666e+01 -8.3797999999999995e+00
0.0000000000000000e+00 1.3273200000000001e+01 1.1992806666666667e+00
0.0000000000000000e+00 1.6075500000000002e+01 4.3120000000000003e-01
ITEM: ATOMS id type q x y z
119 2 0.00378369 7.41396 1.18817 5.30446
12 4 1.29628 -1.07048 6.39563 5.27712
7 4 1.12648 0.923049 2.22348 5.15436
9 4 1.21956 -0.510433 4.81099 1.92315
10 4 1.59423 0.341965 4.47631 7.14719
242 1 -0.675464 3.28938 0.559021 3.18499
21 4 0.796647 5.71936 1.36027 5.80074
26 4 1.32291 5.33034 4.47482 6.89072
41 1 -0.696398 1.17792 0.590276 6.11188
44 1 -0.675096 3.72511 3.85575 1.83352
55 3 -0.787157 1.18022 1.08421 1.07728
56 3 -0.824393 -0.362733 2.29691 4.21134
58 3 -0.779611 -1.90044 4.54538 2.77671
59 3 -0.821825 -0.111087 3.51173 1.09169
243 2 0.15732 3.48738 1.73187 3.03062
61 3 -0.825012 1.06049 3.52439 6.06427
62 3 -0.831978 -0.860873 5.34523 6.42994
74 3 -0.794671 5.65119 0.370717 7.53109
78 3 -0.869488 0.639359 5.21943 2.92912
81 3 -0.79462 5.3881 2.85274 6.09159
84 3 -0.843625 2.82089 6.14846 4.234
85 3 -0.810563 4.62692 5.59152 6.06522
113 2 0.110888 -1.74307 5.48004 3.99933
111 2 0.0173021 2.4113 1.98487 4.17305
112 2 -0.0162283 -0.682233 6.12896 0.852169
24 4 1.26575 4.72918 4.82039 0.509955
118 2 -0.0208784 4.49591 0.653254 4.71306
5 4 1.30391 0.374136 2.177 0.208908
222 3 -0.781123 6.26062 1.37408 1.2129
223 2 -0.0982469 6.24109 0.816611 4.00593
141 2 0.180036 4.14904 2.77427 1.76193
142 2 0.187925 2.67633 3.93718 1.46671
143 2 0.205069 3.97155 4.55938 2.77435
220 4 1.00963 6.71718 0.320051 2.34417
82 3 -0.784777 1.43723 5.47068 7.92671
135 2 0.217058 0.681798 0.972319 7.10042
244 2 0.130522 2.79893 0.233376 4.21881
133 2 0.151935 2.28641 0.335458 6.27831
25 4 1.49363 1.42741 6.43818 3.65029
138 2 0.162972 1.13775 0.750405 12.3358
8 4 1.2903 1.97872 2.59006 10.8738
13 4 1.26159 0.545537 4.80207 12.2602
229 2 -0.0427779 3.55742 6.53459 13.4465
20 4 1.31633 4.72975 3.00104 9.36078
23 4 1.25874 7.03417 2.71155 11.3458
99 3 -0.833277 8.18195 1.15397 8.33376
226 4 0.879123 3.50013 6.32078 15.0695
42 1 -0.676784 2.10855 1.28015 12.2962
57 3 -0.82525 0.526144 2.33446 10.2656
63 3 -0.867573 -0.238934 3.69607 13.1077
64 3 -0.811012 2.03024 4.22778 11.7881
65 3 -0.794122 -2.24846 6.34372 9.56193
66 3 -0.89054 -0.310928 5.61204 11.2671
73 3 -0.799095 3.29934 2.55467 9.85719
75 3 -0.85325 5.66239 3.10376 10.62
76 3 -0.865231 6.97825 1.24232 11.8853
80 3 -0.818475 4.82138 4.22816 8.38154
29 4 0.984597 3.84484 6.56658 11.1258
137 2 0.17303 2.95606 0.652173 11.9837
114 2 -0.0466463 1.16029 6.0083 13.3439
248 2 0.160879 3.56659 3.71191 15.7087
124 2 0.0512969 3.29896 5.34347 12.0658
136 2 0.185465 2.30135 1.98452 13.2152
179 4 1.24859 7.26918 2.39269 15.7432
183 1 -0.674156 5.87597 1.32985 15.0846
77 3 -0.755848 6.75422 4.12593 15.8132
60 3 -0.802717 -0.379805 3.54997 8.34701
196 2 0.172937 4.88657 1.91845 15.2045
117 2 0.125066 5.23795 1.58602 8.41075
227 3 -0.839308 4.88361 5.9355 15.5979
195 2 0.2141 6.13882 1.1879 13.9819
245 1 -0.685326 2.91348 3.13939 15.0074
246 2 0.163516 2.42162 3.68144 14.1564
247 2 0.170947 3.40626 2.18541 14.693
262 3 -0.796134 0.371726 2.1033 15.1351
228 2 -0.0267213 2.40476 5.04115 15.1885
123 2 -0.0319024 5.39426 6.03564 10.8547
86 3 -0.781079 3.01585 6.68378 9.85171
149 2 0.159674 2.22373 9.18863 7.46447
3 3 -0.779755 -5.86336 11.5493 0.928471
268 2 0.186296 -4.13466 8.43297 0.299687
16 4 1.48071 -3.25369 8.17518 6.57579
17 4 1.27051 -4.60049 9.94765 4.65276
154 2 0.184924 0.748183 9.57716 7.50416
161 2 0.194291 -1.04909 10.1669 0.199234
31 4 1.25268 -1.9962 10.2408 3.07332
33 4 1.14593 0.157011 10.9438 5.46677
48 1 -0.635347 -1.32889 8.95111 1.79138
49 1 -0.650819 -0.0383481 9.45622 6.6377
67 3 -0.821073 -3.81195 7.00553 7.54944
68 3 -0.857682 -2.05151 7.53418 5.66765
28 4 1.27465 4.15073 6.63969 4.98616
70 3 -0.826033 -4.48711 8.85605 5.83004
79 3 -0.852691 0.448277 7.09699 4.81908
87 3 -0.795978 1.835 7.61241 2.41088
30 4 0.980872 2.30584 8.07675 0.980888
89 3 -0.764559 -2.08127 11.6428 2.02531
90 3 -0.852777 -3.44059 9.85006 3.59508
93 3 -0.803588 -0.768273 10.5707 4.22921
94 3 -0.805543 -0.328893 12.255 6.22754
115 2 -0.0416847 -4.43789 11.4938 5.40717
147 2 0.202235 1.99226 7.57381 6.54976
151 2 0.187652 -0.164964 9.27078 1.45666
152 2 0.178577 -2.13119 8.94493 0.94124
153 2 0.157988 -1.34882 8.04908 2.55181
272 2 0.186622 0.711263 10.2005 0.197189
155 2 0.266723 0.232725 8.47412 6.01479
156 2 0.280789 -1.13627 9.53799 7.05129
46 1 -0.672388 2.47025 8.09216 7.41683
148 2 0.167742 3.62578 7.93862 7.59117
271 2 0.160347 1.65482 10.1683 1.84799
19 4 1.26181 -1.09598 12.7588 7.76356
1 4 1.29909 -6.52685 12.6595 1.95757
69 3 -0.835895 -6.02431 9.97107 3.95338
91 3 -0.815821 -2.62733 9.55628 7.75214
265 2 0.175091 -4.33868 12.6051 2.70384
47 1 -0.657471 1.66885 9.87641 0.747199
252 2 0.221331 -5.10988 8.91754 1.82762
251 1 -0.680592 -5.17119 8.64018 0.716845
159 2 0.194072 1.33209 10.9415 13.1858
18 4 1.23819 -2.15571 8.23011 12.8518
22 4 1.27665 -0.556271 12.7525 12.0139
32 4 0.959433 -2.15067 10.4722 8.97791
35 4 1.21272 -1.35243 10.8441 14.2505
43 1 -0.650713 -5.62185 11.0525 14.0026
15 4 1.05068 -4.13642 10.8132 15.9022
157 2 0.225364 0.905535 9.36127 12.2112
51 1 -0.653882 0.2126 11.2661 15.2499
162 2 0.213332 0.0172689 12.3534 15.3871
72 3 -0.835554 -1.27141 8.00224 11.4664
83 3 -0.785654 0.526735 7.4958 9.45912
158 2 0.158086 2.13691 10.6166 11.3445
92 3 -0.811837 -0.854284 11.3209 9.04107
95 3 -0.812978 3.65876 7.96495 11.8728
96 3 -0.750141 -1.27339 8.99406 13.8549
97 3 -0.845179 -1.27068 11.6251 12.7961
98 3 -0.801804 -2.75404 11.0121 15.1607
116 2 -0.0391726 -3.32647 9.25624 12.3236
120 2 0.0984832 -0.425311 12.0447 10.4545
126 2 0.0239743 -2.17853 9.59942 10.4017
127 2 -0.0380818 -3.36318 11.2922 9.74968
128 2 0.0563013 2.23368 9.16747 14.0625
140 2 0.178419 -5.88693 11.9688 14.5334
50 1 -0.660939 1.71881 10.1163 12.4117
139 2 0.167162 -4.60414 11.1792 13.5354
160 2 0.14961 1.18246 11.0988 14.5716
88 3 -0.774967 2.73552 7.67508 15.6995
187 3 -0.801924 0.897147 13.0421 12.5981
27 4 1.39622 1.77119 6.85799 8.78938
71 3 -0.840374 -2.7396 6.9446 13.5677
14 4 1.51189 -0.853777 6.81985 10.4666
34 4 1.02951 3.38948 9.29393 12.7076
197 2 0.235376 -2.40554 13.2476 15.7982
235 2 0.167856 11.4993 1.48984 2.86333
37 4 1.20263 13.0322 2.06163 5.76554
230 4 1.09918 13.708 0.220244 2.44023
39 4 1.30944 11.3094 3.9811 7.49273
45 1 -0.672505 7.13656 5.2028 6.99927
54 1 -0.664936 10.4172 5.37946 6.55017
101 3 -0.780981 14.0355 3.16085 4.97156
102 3 -0.834701 13.8483 1.04726 6.80774
221 1 -0.638105 8.59226 0.361641 2.18003
4 4 1.44146 15.0121 2.81149 3.71518
106 3 -0.812999 11.9187 3.01394 6.46508
232 3 -0.813096 14.3677 1.64689 2.76831
129 2 -0.00812047 12.1796 1.13304 4.57797
130 2 0.0836522 7.95586 5.81236 2.95995
169 2 0.220417 10.9211 6.35312 6.94284
250 2 0.178085 11.4603 4.64677 0.309084
146 2 0.158317 7.7432 4.4122 6.49305
231 1 -0.659136 11.8176 0.43637 2.7776
145 2 0.178868 7.10484 6.21048 6.46971
170 2 0.184006 9.27167 5.37994 6.6451
171 2 0.182535 10.8245 5.10635 5.49195
273 2 0.184912 9.16124 0.207968 0.234054
224 2 0.175279 8.9271 1.19008 1.49823
225 2 0.112096 8.67162 0.694321 3.39567
103 3 -0.777737 5.67394 6.10136 1.42733
207 4 1.24597 14.6839 0.248412 7.85699
267 2 0.183014 12.2659 6.39189 0.335721
234 2 0.167569 11.4836 0.11465 1.69405
11 4 1.4993 13.0658 6.12591 8.87788
36 4 1.31919 9.20921 2.17497 9.10975
52 1 -0.663 10.5107 1.0802 9.97867
188 3 -0.794283 8.57328 1.99846 14.8502
100 3 -0.81115 8.32633 2.81879 10.3731
107 3 -0.802152 12.7155 4.57425 8.66178
110 2 0.00493361 14.7873 3.06385 10.4336
204 2 0.164933 8.1172 5.86695 10.8685
202 2 0.158562 13.9825 3.60297 11.8274
163 2 0.171799 11.5775 1.44275 9.95595
6 4 1.34868 16.0302 2.47167 9.37568
165 2 0.242113 10.1299 0.817297 11.03
172 4 1.01375 16.1418 2.4156 13.9659
173 1 -0.654596 14.3873 1.50711 13.5885
174 2 0.058338 14.5539 2.80874 14.827
175 2 0.039772 15.602 0.765916 12.9226
176 2 0.161796 13.8008 2.03928 12.6894
144 2 0.17295 7.41516 5.32576 8.11282
178 4 1.10853 13.77 5.5683 14.3168
180 4 1.23348 9.87005 1.47146 13.893
181 4 1.3338 11.7857 3.8923 12.6551
205 2 0.214576 9.34528 5.02697 9.61969
185 1 -0.677077 12.9945 3.24131 11.2792
186 1 -0.664719 8.99381 6.00651 10.2014
189 3 -0.7814 10.8561 2.51381 13.1227
190 3 -0.830584 12.8047 4.48627 13.7632
192 3 -0.826855 10.9853 5.0549 11.9645
263 3 -0.877698 15.5542 1.16413 8.76602
199 2 0.171783 11.8359 1.21508 15.1456
200 2 0.258975 12.8542 3.78472 10.1762
201 2 0.136521 12.9185 2.1106 11.1475
182 4 1.07864 10.8008 6.22409 10.9291
105 3 -0.826937 10.1599 3.25416 8.35823
177 2 0.185999 13.7431 0.810316 14.1897
249 1 -0.629675 13.5421 5.75604 15.9777
184 1 -0.652851 10.8805 0.621796 15.186
121 2 -0.00328064 7.26742 3.71733 12.686
266 2 0.0852417 14.864 5.0997 16.0512
237 1 -0.671488 7.45843 10.131 0.124269
256 2 0.156551 1.67081 11.3749 3.77691
167 2 0.167244 9.09845 7.56747 2.32699
53 1 -0.629325 8.12315 7.41256 2.87028
104 3 -0.822598 5.35411 7.04188 4.04793
233 2 0.160605 2.9168 12.5845 3.59962
125 2 -0.00675657 3.96841 7.93227 0.901795
150 2 0.149973 2.60338 10.3339 0.213411
166 2 0.0254687 6.99193 8.54668 2.07172
168 2 0.159947 8.16234 7.90603 4.0079
206 4 1.25354 9.31287 10.4317 3.71672
215 2 0.142983 6.32118 8.32673 7.54553
208 4 1.03734 7.68125 10.3575 6.64172
209 1 -0.657442 6.20215 9.03099 6.61091
255 2 0.1586 2.31025 12.2236 5.37001
211 3 -0.785376 8.41103 10.2818 4.9526
212 3 -0.796877 7.02899 11.7191 7.26962
213 2 0.00156912 8.59945 9.35374 2.59193
254 1 -0.675431 1.956 11.2566 4.90544
216 2 0.195141 6.27629 8.57517 5.60193
217 2 0.147687 5.36583 9.87054 6.76108
219 2 0.22195 10.0876 9.41548 7.15904
253 2 0.159945 10.8713 7.91164 0.576688
122 2 0.00606161 3.77929 8.06319 5.93205
238 3 -0.752669 5.52609 12.1993 0.941912
240 2 0.170405 8.03878 10.342 1.05554
239 2 0.131781 6.64598 9.2483 0.300928
257 2 0.141161 2.73088 10.4195 5.0282
258 1 -0.651639 5.94716 11.8318 3.84894
259 2 0.182954 6.60107 11.0981 3.29997
260 2 0.147134 5.06011 11.2914 4.33392
261 2 0.205219 6.55069 12.61 4.48888
38 4 0.995871 6.27688 6.89837 2.62615
210 1 -0.63286 9.18333 9.79625 7.69714
134 2 0.221839 9.0411 12.6847 5.58281
2 3 -0.814607 9.2639 11.8445 2.92147
270 2 0.172377 0.715451 12.1957 1.95521
198 2 0.1653 2.61145 12.4239 14.7245
40 4 0.909767 5.73093 11.3668 12.9794
108 3 -0.808986 4.59736 10.3408 12.892
109 3 -0.806542 6.47424 11.4917 14.3869
214 2 -0.0383313 5.18391 12.518 8.8781
132 2 -0.0493907 6.81876 10.9852 11.8651
236 4 1.00554 7.32913 11.8191 15.6876
203 2 0.15169 8.89254 6.85088 9.50189
131 2 -0.0243081 5.465 12.9402 12.3234
193 2 0.0618646 11.1993 9.83194 15.0004
218 2 0.169665 9.40416 10.6569 8.43187
194 2 0.000219232 9.64374 7.39422 11.4903
241 2 0.159652 9.33744 10.359 15.2719
191 3 -0.821045 11.7903 6.82146 9.92787
264 2 0.0445261 9.00308 12.2608 15.2915
274 2 0.124641 8.49285 8.89872 8.17303
164 2 0.157353 2.0635 13.0134 9.29611
269 2 0.140667 10.3819 10.9068 13.1777
ITEM: TIMESTEP
200
ITEM: NUMBER OF ATOMS
274
ITEM: BOX BOUNDS xy xz yz pp pp pp
-8.3797999999999995e+00 1.8022461333333332e+01 -8.3797999999999995e+00
0.0000000000000000e+00 1.3273200000000001e+01 1.2035613333333330e+00
0.0000000000000000e+00 1.6075500000000002e+01 4.3120000000000003e-01
ITEM: ATOMS id type q x y z
119 2 -0.00389228 7.31712 1.33524 5.3939
12 4 1.35194 -1.15101 6.47449 5.30597
7 4 1.14437 0.984173 2.34168 4.94963
9 4 1.2449 -0.438026 4.6949 1.88752
10 4 1.6176 0.285078 4.65702 7.22075
242 1 -0.676497 3.34665 0.514891 2.96138
21 4 0.791391 5.68129 1.44446 5.74325
26 4 1.28223 5.41771 4.53666 6.97914
41 1 -0.689366 0.980263 0.733722 5.88226
44 1 -0.650745 3.81054 3.81095 1.85364
55 3 -0.789791 0.997047 1.10019 1.18876
56 3 -0.8502 -0.331379 2.30283 4.11659
58 3 -0.806027 -1.7559 4.40494 2.90564
59 3 -0.847822 -0.139025 3.64595 0.741118
243 2 0.147357 3.58008 1.6387 3.12554
61 3 -0.762051 1.1397 3.5132 6.02535
62 3 -0.856786 -0.724115 5.62002 6.50489
74 3 -0.772383 5.69261 0.36886 7.38678
78 3 -0.837182 0.837303 5.06628 2.68194
81 3 -0.777394 5.4288 2.98364 6.0839
84 3 -0.830604 2.82361 6.03742 4.22476
85 3 -0.791268 4.76112 5.76841 6.12665
113 2 0.087058 -1.89296 5.4756 4.11601
111 2 0.00399491 2.45174 1.96668 3.97175
112 2 -0.00882685 -0.943276 6.04396 1.02567
24 4 1.24303 4.73868 4.822 0.562714
118 2 -0.0305859 4.42546 0.964861 4.60016
5 4 1.35549 0.289409 2.15948 0.151378
222 3 -0.77386 6.31277 1.31186 1.29142
223 2 -0.0967194 6.28902 0.853214 4.04298
141 2 0.18532 4.38904 2.82567 1.84321
142 2 0.217237 2.70208 3.81864 1.57376
143 2 0.21163 4.09511 4.43608 2.79885
220 4 1.0064 6.79416 0.32484 2.40212
82 3 -0.843603 1.35924 5.50273 7.98329
135 2 0.258526 0.221718 0.794352 6.66572
25 4 1.45448 1.40488 6.43197 3.56763
133 2 0.166781 1.96602 0.530113 6.26788
138 2 0.171493 1.33057 0.592296 11.6926
8 4 1.26847 2.05636 2.65722 10.8838
13 4 1.22273 0.508456 4.83526 12.4377
229 2 -0.0440404 3.62182 6.37342 13.3832
20 4 1.30178 4.7943 2.91691 9.42616
23 4 1.2427 7.10202 2.71659 11.4869
99 3 -0.820956 8.10536 1.14016 8.44768
226 4 0.900828 3.34614 6.23517 15.0645
42 1 -0.661716 2.27687 1.09891 11.9848
57 3 -0.803996 0.657145 2.39044 10.1258
63 3 -0.864421 -0.391086 3.63268 13.003
64 3 -0.816508 2.00744 4.17209 12.0856
65 3 -0.850201 -2.16591 6.3286 9.56151
66 3 -0.852851 -0.0528384 5.59724 11.1942
73 3 -0.812354 3.36296 2.47892 9.89914
75 3 -0.817649 5.77094 3.20069 10.6463
76 3 -0.85333 6.91293 1.18325 11.8933
80 3 -0.805069 4.91899 4.17867 8.49712
29 4 0.948738 3.82802 6.58991 11.1069
137 2 0.182559 3.2369 0.629679 11.5844
114 2 -0.0466942 0.604744 5.9251 13.74
248 2 0.165933 3.48812 3.90292 15.6562
124 2 0.0739111 3.2926 5.1456 11.7804
136 2 0.161941 2.37545 1.35189 13.1296
179 4 1.27455 7.21815 2.31011 15.6813
183 1 -0.669519 5.77509 1.41395 15.0065
77 3 -0.74583 6.65116 3.86053 15.7153
60 3 -0.811 -0.611912 3.69588 8.13801
196 2 0.175841 4.97618 2.23594 14.664
117 2 0.11374 5.31022 1.56351 8.4161
227 3 -0.82032 4.69651 5.81358 15.8059
195 2 0.24359 6.178 0.699205 14.2087
245 1 -0.658985 2.89937 3.02241 15.0266
246 2 0.187825 2.42442 3.38962 14.0587
247 2 0.163421 3.61656 2.09474 14.7982
262 3 -0.832751 0.340777 2.13449 15.2068
228 2 -0.0119857 2.29236 4.87863 14.8613
197 2 0.212597 5.45659 0.788645 15.9019
6 4 1.30459 -0.718822 2.52476 9.24761
149 2 0.15544 2.21999 9.25257 7.8296
3 3 -0.797949 -5.95075 11.6631 0.897945
268 2 0.163688 -3.89033 8.58506 0.419017
16 4 1.51179 -3.26547 8.20431 6.61033
17 4 1.25474 -4.57134 9.88025 4.58265
154 2 0.18444 0.964766 9.63874 7.38575
161 2 0.18952 -1.00736 9.94002 0.149158
31 4 1.2646 -1.94306 10.12 2.85095
33 4 1.12658 0.133216 10.9256 5.30753
48 1 -0.674992 -1.11885 8.74494 1.79985
49 1 -0.643014 0.166574 9.50436 6.58732
67 3 -0.82713 -3.764 6.99035 7.52809
68 3 -0.850066 -2.05033 7.67548 5.72228
28 4 1.22564 4.08169 6.67942 4.95548
70 3 -0.839444 -4.42772 8.80988 5.77547
79 3 -0.845781 0.24491 7.01867 4.74583
87 3 -0.819918 1.58327 7.60375 2.49887
30 4 0.963006 2.17213 8.1237 1.08942
89 3 -0.777135 -1.9264 11.5705 2.05957
90 3 -0.836713 -3.40638 9.71142 3.50205
93 3 -0.77969 -0.732667 10.5098 4.03036
94 3 -0.818438 -0.440183 12.1239 6.26956
115 2 -0.0373796 -4.23691 11.4339 5.29555
147 2 0.183918 2.10104 7.67517 6.7125
151 2 0.207757 -0.0993587 9.21839 1.49878
152 2 0.162338 -1.83279 8.36771 1.00239
153 2 0.188507 -0.943041 7.9423 2.58172
272 2 0.170086 0.639582 10.1902 0.233794
155 2 0.259409 0.361955 8.57254 5.90603
156 2 0.293946 -0.888296 9.50073 7.118
46 1 -0.661349 2.5254 8.13833 7.58817
148 2 0.185198 3.60944 7.89307 7.70488
271 2 0.165158 1.57831 10.1864 1.98603
19 4 1.28035 -1.08128 12.6664 7.73567
1 4 1.33963 -6.57473 12.6736 1.92676
69 3 -0.827558 -6.06727 9.98733 4.01373
91 3 -0.838983 -2.51338 9.53231 7.78215
265 2 0.184496 -4.27806 12.8426 2.22948
47 1 -0.671202 1.64767 9.91221 0.866271
252 2 0.230598 -4.9256 9.03806 2.03332
251 1 -0.666347 -4.94857 8.83227 0.849148
134 2 0.244773 -7.69258 12.746 5.15157
244 2 0.13177 -5.23323 12.7837 3.97813
122 2 -0.000238276 3.62962 8.0429 5.88559
2 3 -0.811438 -7.50827 11.9545 3.03284
270 2 0.17424 0.492702 12.2589 1.82714
159 2 0.18475 1.19705 10.7327 13.1912
18 4 1.19319 -2.0861 8.22004 12.8611
22 4 1.26514 -0.55261 12.7529 12.0138
32 4 1.0054 -2.21653 10.4068 8.96027
35 4 1.27961 -1.36582 10.7248 14.2286
43 1 -0.643303 -5.57154 10.8301 13.9614
15 4 1.04868 -4.01752 10.8492 15.948
157 2 0.220361 0.873559 9.0532 12.15
51 1 -0.644528 0.14795 11.1759 15.3695
162 2 0.220752 0.0219198 12.2362 15.7176
72 3 -0.854488 -1.39867 7.97687 11.4483
83 3 -0.772485 0.204027 7.54 9.44646
158 2 0.147829 1.86719 10.5607 11.2366
92 3 -0.81724 -0.964574 11.2879 9.08701
95 3 -0.778627 3.69296 7.97488 11.9328
96 3 -0.800463 -1.12067 9.19024 13.9093
97 3 -0.83688 -1.27645 11.7025 12.9176
98 3 -0.800207 -2.73351 11.1856 15.1571
116 2 -0.0487525 -3.6585 8.9304 12.7275
120 2 0.0945409 -0.468356 12.0244 10.469
126 2 0.0260219 -2.35121 9.38857 10.3237
127 2 -0.0480967 -3.59463 11.1656 9.54814
128 2 0.0377074 2.28941 9.46375 14.0527
140 2 0.15931 -5.97633 11.8731 14.3163
50 1 -0.648919 1.55563 9.9802 12.3487
139 2 0.160612 -4.67955 10.9949 13.3152
160 2 0.151011 1.0293 11.0636 14.6731
88 3 -0.754532 2.72219 7.53653 15.738
187 3 -0.797774 0.914691 13.0733 12.5839
27 4 1.37887 1.76314 6.79231 8.85318
71 3 -0.852852 -2.46533 6.85757 13.6085
14 4 1.56102 -0.86193 6.83566 10.3985
34 4 1.00242 3.336 9.53159 12.6153
86 3 -0.825154 2.95532 6.70301 9.82308
235 2 0.168467 11.5084 1.62197 3.18969
37 4 1.2699 13.0378 2.01086 5.82775
230 4 1.1011 13.6102 0.114589 2.46836
39 4 1.26803 11.2406 3.96319 7.4518
45 1 -0.660634 7.26554 5.05415 7.02118
54 1 -0.637557 10.514 5.50094 6.62042
101 3 -0.806415 14.0779 2.91185 5.02445
102 3 -0.845575 13.7699 1.10543 6.84775
221 1 -0.645902 8.67044 0.495937 2.31609
4 4 1.46407 15.0255 2.67999 3.68211
106 3 -0.811572 11.7291 2.86921 6.35656
232 3 -0.811577 14.2592 1.55665 2.76673
129 2 0.00535724 12.2148 0.986943 4.65455
130 2 0.0228279 7.66027 5.60413 3.56608
169 2 0.228199 10.9789 6.3691 7.20975
250 2 0.175511 11.5162 4.68352 0.253374
146 2 0.16587 7.88039 4.22509 6.46803
231 1 -0.654713 11.7019 0.543566 2.83729
145 2 0.158279 7.41465 6.09592 6.51115
170 2 0.176726 9.26399 5.35684 6.72724
171 2 0.17674 10.9334 5.26929 5.54969
273 2 0.181611 9.19979 0.310712 0.321316
224 2 0.170813 9.16157 1.39009 1.80401
225 2 0.136777 8.92361 0.444617 3.46003
103 3 -0.798669 5.67934 5.78813 1.58126
207 4 1.26035 14.7138 0.283428 7.89185
234 2 0.17729 11.3634 0.369218 1.8226
267 2 0.181092 12.3638 6.41257 0.396257
11 4 1.5416 13.21 6.15699 8.957
36 4 1.26513 9.08318 2.1948 9.24199
52 1 -0.68866 10.3873 1.10388 10.0097
188 3 -0.810943 8.47143 2.02014 14.7275
100 3 -0.822412 8.30509 2.93137 10.4713
107 3 -0.768905 12.6901 4.60214 8.59287
110 2 0.0101795 14.6979 2.94258 10.1902
204 2 0.172663 7.90604 5.94995 10.5463
202 2 0.178951 14.0326 3.46626 11.6911