ITEM: TIMESTEP
0
ITEM: NUMBER OF ATOMS
274
ITEM: BOX BOUNDS xy xz yz pp pp pp
-8.3797999999999995e+00 1.8013900000000000e+01 -8.3797999999999995e+00
0.0000000000000000e+00 1.3273200000000001e+01 1.1950000000000001e+00
0.0000000000000000e+00 1.6075500000000002e+01 4.3120000000000003e-01
ITEM: ATOMS id type q x y z
119 2 -0.00430576 7.37526 1.23518 5.25322
12 4 1.32239 -0.870909 6.3079 5.31647
7 4 1.14708 0.920894 2.09119 5.10743
9 4 1.24686 -0.422304 4.69065 1.86353
10 4 1.60781 0.372093 4.30644 7.31615
242 1 -0.676458 3.2936 0.584475 2.89345
21 4 0.808633 5.74105 1.46597 5.6585
26 4 1.26594 5.45717 4.55075 6.8884
41 1 -0.651264 0.754564 0.419044 5.99651
44 1 -0.66675 4.14965 3.77198 1.7531
55 3 -0.811344 1.11186 0.899791 1.07573
56 3 -0.843998 -0.36477 2.34832 4.32122
58 3 -0.78699 -1.75035 4.45071 2.76404
59 3 -0.831363 -0.0398458 3.36975 1.10913
243 2 0.159851 3.44574 1.7237 2.84851
61 3 -0.780314 1.19579 3.06768 6.2823
62 3 -0.852736 -0.624353 5.22379 6.42569
74 3 -0.790243 5.49457 0.393369 7.29962
78 3 -0.859426 0.74192 5.4181 2.67125
81 3 -0.777132 5.78223 2.98415 5.98138
84 3 -0.80825 2.99553 5.82697 4.14497
85 3 -0.832046 5.02397 5.78172 5.95211
113 2 0.110628 -1.45835 5.38447 3.98952
111 2 -0.00472518 2.27113 1.88708 4.0131
112 2 -0.0212 -0.962387 5.56263 0.529897
5 4 1.35853 0.371247 2.02738 0.227848
118 2 -0.0308404 4.53757 1.07611 4.32878
24 4 1.29593 4.95359 4.93586 0.439556
222 3 -0.787215 6.2497 1.35716 1.11943
223 2 -0.0992495 6.22703 0.867697 3.89463
141 2 0.194712 4.46764 2.69365 1.65969
142 2 0.190067 3.02201 3.93733 1.66115
143 2 0.189232 4.56617 4.30483 2.68781
220 4 1.01825 6.72519 0.241763 2.22281
135 2 0.244275 0.578529 0.594354 7.0986
82 3 -0.822993 1.51881 5.26651 7.92498
267 2 0.171267 -3.66096 6.26892 0.406547
244 2 0.12263 3.0248 0.174358 3.94263
138 2 0.172251 1.56067 0.744134 12.3912
8 4 1.2567 1.85377 2.68574 10.9737
13 4 1.23629 0.404794 4.95639 12.3105
229 2 -0.0378213 3.61064 6.37989 13.4966
20 4 1.29109 4.44144 2.89803 9.20296
23 4 1.2533 6.9386 2.93318 11.1909
99 3 -0.821677 7.9036 1.25761 8.40017
226 4 0.913724 3.52429 6.38263 15.1746
42 1 -0.658868 2.32239 1.5448 12.4098
57 3 -0.822094 0.43769 2.07572 10.382
63 3 -0.86395 -0.340257 3.91674 13.3556
64 3 -0.830473 1.83622 4.3766 11.9884
65 3 -0.827254 -2.38818 6.30293 9.54181
66 3 -0.878427 -0.515562 5.3899 11.0602
73 3 -0.829271 3.12022 2.56812 9.96057
75 3 -0.860841 5.69766 2.92454 10.2184
76 3 -0.841993 7.08537 1.60524 12.0438
80 3 -0.793973 4.48281 4.12681 8.18656
123 2 -0.0526674 5.1666 6.00262 10.8331
137 2 0.172914 3.33331 1.13195 12.0166
114 2 -0.0295307 0.789442 6.32667 13.2582
248 2 0.169683 3.52164 3.94964 15.8902
124 2 0.0582283 3.25893 5.21513 12.0746
136 2 0.177232 2.5007 2.16767 13.451
179 4 1.25595 7.24098 2.43971 15.6814
183 1 -0.669144 5.86945 1.49881 14.809
77 3 -0.747637 6.92659 4.16882 15.6921
60 3 -0.846417 -0.474363 3.49288 8.35773
196 2 0.181042 5.35728 2.21835 14.2122
117 2 0.110626 4.85345 1.45918 8.31862
227 3 -0.835922 4.90589 5.95077 15.7567
195 2 0.287801 6.39802 0.598733 14.2062
245 1 -0.679701 2.99421 3.21647 15.1884
246 2 0.158066 2.64565 3.7133 14.2363
247 2 0.171234 3.73742 2.39459 14.9381
262 3 -0.829843 0.332272 2.03789 15.369
228 2 -0.0227955 2.42613 5.11969 15.2886
14 4 1.56157 -0.990419 6.61829 10.2676
29 4 0.954947 3.65172 6.58993 11.1706
266 2 0.0937312 -1.59069 4.8253 15.8203
121 2 -0.0213482 6.74854 4.2489 12.2576
197 2 0.192265 5.29069 1.16496 15.7809
86 3 -0.829045 2.73407 6.60447 9.92363
27 4 1.36733 1.78263 6.64227 8.69417
15 4 1.03115 -5.17511 10.1581 0.0284757
3 3 -0.786448 -5.74092 11.5133 0.967686
268 2 0.23355 -4.38982 8.65074 1.56036
16 4 1.50821 -3.09373 7.97488 6.56486
17 4 1.24248 -4.49623 9.87467 4.72632
154 2 0.17109 1.07727 9.54171 7.27848
161 2 0.189033 -0.983851 10.0789 0.503756
31 4 1.21456 -2.0736 10.2075 2.97162
33 4 1.16018 -0.0589194 11.071 5.50767
48 1 -0.655185 -0.99241 8.88163 2.07454
49 1 -0.633345 0.1378 9.46859 6.57262
272 2 0.175223 0.800239 10.3225 0.346656
68 3 -0.863699 -1.87127 7.40807 5.65391
28 4 1.28497 4.21536 6.56153 4.91333
70 3 -0.825578 -4.22226 8.71352 5.73358
79 3 -0.847523 0.567658 7.09686 4.86674
87 3 -0.815838 1.97382 7.83524 2.62123
30 4 1.02412 2.31539 8.2206 1.10573
89 3 -0.763424 -2.06047 11.6222 1.88737
90 3 -0.812149 -3.55359 9.73837 3.3139
93 3 -0.81485 -1.01775 10.6692 4.29481
94 3 -0.808952 -0.539052 12.1423 6.54333
115 2 -0.0378913 -4.03097 11.2986 5.50983
147 2 0.185 2.05724 7.52188 6.52288
151 2 0.185696 0.00644404 9.38375 1.56015
152 2 0.161086 -1.62503 8.42768 1.25377
153 2 0.194907 -0.817708 8.20562 3.01825
251 1 -0.670879 -5.32591 8.5341 0.951386
155 2 0.280244 0.23433 8.54924 5.85781
156 2 0.29817 -0.926382 9.3979 7.12251
46 1 -0.671346 2.59995 7.95251 7.48116
148 2 0.167353 3.69692 7.67343 7.58859
265 2 0.193436 -4.25197 12.8225 2.43286
19 4 1.3601 -1.33312 12.8326 7.85669
1 4 1.29541 -6.53924 12.526 1.9059
69 3 -0.802784 -6.01343 9.93971 4.32228
91 3 -0.820738 -2.41525 9.32328 7.81287
271 2 0.17154 1.75564 10.434 1.98743
47 1 -0.667403 1.77714 10.0502 0.958638
25 4 1.42154 1.58706 6.55171 3.57003
122 2 0.0109183 3.57705 7.92472 5.791
149 2 0.144146 2.38553 9.10864 7.61191
133 2 0.140556 -6.54265 12.8413 5.82168
270 2 0.183806 0.588865 12.115 1.71841
159 2 0.193034 1.10828 9.70949 11.5158
18 4 1.22621 -1.93069 8.33392 12.8931
22 4 1.18641 -0.668922 12.9684 12.183
32 4 0.95538 -2.25361 10.2485 9.042
35 4 1.18736 -1.21026 10.6867 14.5043
50 1 -0.650687 2.00582 10.3963 11.7131
160 2 0.153101 1.09091 10.8936 14.7839
158 2 0.241033 1.60032 11.4479 12.0722
51 1 -0.633025 0.252588 11.2309 15.5242
162 2 0.227345 0.167233 12.3564 15.638
72 3 -0.828669 -1.46252 7.96864 11.3902
83 3 -0.783009 0.116057 7.14801 9.21939
88 3 -0.785431 2.93055 7.71824 15.8671
92 3 -0.802013 -1.20242 11.3939 8.96965
95 3 -0.797621 3.64879 7.95372 12.0081
96 3 -0.794265 -0.889657 9.08144 13.7778
97 3 -0.794685 -1.49396 12.0601 13.2221
98 3 -0.784038 -2.5003 10.7594 15.4083
116 2 -0.046248 -3.40839 9.14672 12.6924
120 2 0.0297379 -0.695721 12.1967 10.6843
126 2 0.0711295 -1.91684 9.20631 10.3753
127 2 -0.0468747 -3.81161 10.752 9.42328
128 2 0.0402822 2.14943 9.85413 13.5357
139 2 0.164998 -4.3952 10.995 13.6586
187 3 -0.79573 0.91779 12.955 12.651
43 1 -0.662525 -5.41795 10.9178 14.1418
71 3 -0.846104 -2.37068 7.02219 13.6579
140 2 0.180322 -5.63558 11.8355 14.7133
235 2 0.163432 11.5676 1.3061 2.88034
37 4 1.27457 12.9885 1.99468 5.6344
221 1 -0.651448 8.60957 0.273993 2.04274
39 4 1.26378 11.2397 3.94265 7.48412
45 1 -0.660942 7.13351 5.12681 7.57796
54 1 -0.662012 10.5205 5.38327 6.55
101 3 -0.815263 13.9003 2.96946 4.79713
102 3 -0.850864 13.8235 1.08148 6.59441
250 2 0.180121 11.9338 4.65367 0.458325
4 4 1.45879 14.996 2.72619 3.67788
106 3 -0.789745 11.8742 2.93601 6.37502
232 3 -0.802769 14.429 1.4913 2.72362
129 2 -0.00842532 11.9848 1.07481 4.53978
130 2 0.0746833 7.65181 5.85509 3.35369
169 2 0.249807 10.9994 6.37438 6.78828
207 4 1.24693 14.4695 0.326107 7.83836
146 2 0.193647 7.84856 4.44923 7.05703
103 3 -0.798855 5.89096 6.18144 1.21274
145 2 0.158414 7.36935 6.24593 7.38403
170 2 0.178357 9.4157 5.34081 6.81183
171 2 0.189239 10.7804 4.96578 5.45187
225 2 0.115101 8.80617 0.522978 3.21792
224 2 0.177192 9.0413 1.07162 1.38943
231 1 -0.648771 11.7726 0.229141 2.77737
273 2 0.180715 9.33075 0.202628 0.0969628
11 4 1.48473 13.059 6.02134 8.74315
36 4 1.24569 8.99666 2.25869 9.22474
52 1 -0.689425 10.2968 1.21043 10.0875
186 1 -0.665773 8.82034 6.15137 9.86454
100 3 -0.801482 8.30757 3.27637 10.3817
107 3 -0.789432 12.7101 4.40815 8.65194
110 2 0.0102344 14.7519 2.79914 10.4789
105 3 -0.795935 9.93635 3.29466 8.14665
202 2 0.172834 14.0062 3.7096 11.8234
163 2 0.176088 11.1359 2.00546 10.1445
144 2 0.194458 7.04349 4.89791 8.7352
165 2 0.231629 9.94449 0.805367 11.0756
172 4 0.999875 16.1065 2.61629 14.1679
173 1 -0.662027 14.3795 1.6926 13.6759
174 2 0.062673 14.4365 2.94138 14.9724
175 2 0.0592569 15.6567 1.20306 13.0235
176 2 0.167885 13.8598 2.23922 12.8778
184 1 -0.658062 10.9617 0.662469 15.0693
178 4 1.10899 13.9335 5.74588 14.3687
180 4 1.24546 9.88992 1.58895 13.881
181 4 1.30155 11.8601 3.98023 12.6702
205 2 0.203378 9.22065 5.15999 9.11705
185 1 -0.686971 13.0581 3.23796 11.3086
177 2 0.175278 13.7208 0.840721 14.0923
189 3 -0.777309 10.808 2.79762 13.2885
190 3 -0.802927 12.8158 4.73603 13.7555
192 3 -0.763518 11.1102 5.08758 11.7305
263 3 -0.845918 15.577 1.01732 8.69487
199 2 0.173557 11.9609 1.19628 14.9621
200 2 0.267531 12.8562 3.62254 10.2188
201 2 0.124221 12.8977 2.09896 11.5485
182 4 1.02492 10.5621 6.2237 10.6024
204 2 0.168597 8.23047 5.76705 10.7453
6 4 1.32517 16.0381 2.35191 9.3862
164 2 0.154056 10.3966 0.391481 9.23915
188 3 -0.75985 8.61372 2.09225 14.724
249 1 -0.645848 14.066 5.66186 16.0516
237 1 -0.668663 7.75062 10.6967 0.173139
257 2 0.158755 2.33971 10.9715 5.85662
167 2 0.172494 8.89989 7.07153 1.83891
53 1 -0.645377 8.23918 7.33349 2.67975
104 3 -0.789864 5.16134 7.1535 3.85553
134 2 0.247777 8.42772 12.6953 5.46272
125 2 -0.00944633 3.97307 8.37229 0.815038
2 3 -0.82117 9.32754 11.7866 3.13735
166 2 0.0314642 7.3248 8.53641 2.06848
168 2 0.169082 8.89749 7.70984 3.53288
206 4 1.22369 9.32321 10.3809 3.85789
215 2 0.162267 4.94886 9.60844 6.98421
208 4 1.02964 7.41474 10.3722 6.64907
209 1 -0.664496 5.85962 9.18903 6.47797
255 2 0.150005 1.61427 12.5205 4.98746
211 3 -0.767279 8.40852 10.3397 5.13367
212 3 -0.7672 6.68925 11.7902 7.29092
213 2 -0.0112923 8.97652 9.1741 2.7066
254 1 -0.678825 1.74339 11.3948 5.03264
216 2 0.160257 6.17969 8.25624 6.95547
217 2 0.180139 5.70786 9.03182 5.33656
230 4 1.09948 5.35446 12.8695 2.599
234 2 0.185519 3.16243 12.7158 1.67722
253 2 0.154247 11.5074 7.64138 0.230441
238 3 -0.792758 5.42968 12.0943 1.09009
240 2 0.168113 8.05037 10.9622 1.25345
38 4 0.966091 6.3458 6.95343 2.46496
233 2 0.155227 2.83369 12.4003 3.66321
258 1 -0.695958 5.78035 11.7157 4.08908
259 2 0.166554 6.58995 11.0245 3.64565
260 2 0.157904 4.81466 11.2182 4.30107
261 2 0.223189 6.21782 12.2654 4.93941
274 2 0.199575 9.50277 9.60744 7.70546
150 2 0.149656 2.75872 10.4087 0.388518
252 2 0.151726 10.4573 8.67628 1.51989
256 2 0.150156 2.02139 10.9326 3.97623
239 2 0.0984941 7.03245 9.52679 0.0611419
67 3 -0.836249 13.0757 6.7471 7.2725
198 2 0.173462 2.61682 12.4514 14.6111
40 4 0.92241 5.92209 11.4907 12.9209
108 3 -0.839401 4.69135 10.6065 12.8154
109 3 -0.780903 6.63939 11.6211 14.3111
214 2 -0.0505913 4.89377 12.6989 8.90337
132 2 -0.0445662 6.88582 11.0506 11.6505
236 4 0.992835 7.33205 11.941 15.8866
203 2 0.163274 8.34992 6.93033 9.24635
131 2 -0.0218271 5.60355 13.0574 12.4133
193 2 0.0581133 11.3192 9.66496 15.12
218 2 0.125598 7.77601 8.7584 8.23918
194 2 0.00281063 9.44303 7.32232 11.3151
241 2 0.1726 9.88346 10.9953 15.4963
269 2 0.161316 10.5837 10.7866 13.4498
264 2 0.116653 8.76239 12.9772 15.7122
219 2 0.182261 8.43222 10.5683 8.86539
34 4 1.00253 3.55508 9.62049 12.4888
191 3 -0.780697 11.6663 6.81354 9.6142
157 2 0.120326 2.70845 10.4495 10.5719
210 1 -0.644787 8.49221 9.75091 8.0876
ITEM: TIMESTEP
100
ITEM: NUMBER OF ATOMS
274
ITEM: BOX BOUNDS xy xz yz pp pp pp
-8.3797999999999995e+00 1.8039583999999998e+01 -8.3797999999999995e+00
0.0000000000000000e+00 1.3273200000000001e+01 1.2206840000000003e+00
0.0000000000000000e+00 1.6075500000000002e+01 4.3120000000000003e-01
ITEM: ATOMS id type q x y z
119 2 -0.00181025 7.4246 1.10154 5.223
12 4 1.32064 -0.87105 6.39483 5.25806
7 4 1.13816 0.844813 2.12147 5.06202
9 4 1.25511 -0.461296 4.6779 1.79325
10 4 1.60111 0.426132 4.34035 7.17429
242 1 -0.693098 3.34968 0.521637 3.04903
21 4 0.835738 5.8397 1.36761 5.66526
26 4 1.19091 5.42782 4.38288 6.89951
41 1 -0.664128 0.751616 0.458154 5.99429
44 1 -0.68352 3.97576 4.03266 1.97823
55 3 -0.838067 1.1082 0.878529 1.20676
56 3 -0.853158 -0.509043 2.28525 4.32231
58 3 -0.804445 -1.71793 4.46557 2.74176
59 3 -0.862048 0.0981102 3.38667 1.06162
243 2 0.165036 3.57986 1.58172 3.0164
61 3 -0.808191 1.14625 3.27855 6.08923
62 3 -0.859854 -0.539353 5.37749 6.41711
74 3 -0.780306 5.60945 0.280813 7.30352
78 3 -0.878053 0.707052 5.35101 2.63933
81 3 -0.789439 5.60752 2.82302 5.95155
84 3 -0.817262 2.97479 5.9342 4.09143
85 3 -0.785939 4.80644 5.62734 5.78461
113 2 0.113659 -1.43268 5.40427 3.96903
111 2 0.00193143 2.24003 1.85921 4.04143
112 2 -0.0143459 -0.826091 5.96883 0.742421
5 4 1.39227 0.500848 2.04336 0.322164
118 2 -0.0175121 4.67798 0.938565 4.46253
24 4 1.2533 4.7256 4.87764 0.432041
222 3 -0.764004 6.26371 1.47384 1.06245
223 2 -0.0806164 6.32748 0.772836 3.82285
141 2 0.179626 4.28848 2.99897 1.96515
142 2 0.190424 2.79611 4.15454 1.86772
143 2 0.225506 4.44705 4.63004 2.77237
220 4 1.01531 6.8149 0.369641 2.11919
135 2 0.221711 0.813216 0.739723 7.08631
25 4 1.45787 1.58287 6.41919 3.44688
267 2 0.176342 -3.5067 6.25395 0.253882
248 2 0.1612 2.23415 3.53616 0.0832352
138 2 0.151653 1.14424 0.881701 12.6985
8 4 1.18167 1.85388 2.65724 11.1798
13 4 1.27665 0.354839 4.93904 12.4195
229 2 -0.0348278 3.49259 6.44313 13.3329
20 4 1.31716 4.56681 2.77568 9.30842
23 4 1.28974 7.001 2.9681 11.2072
99 3 -0.810633 7.86071 1.15483 8.55349
226 4 0.936267 3.4112 6.33993 15.1058
42 1 -0.662442 2.12073 1.52959 12.6022
57 3 -0.781642 0.291048 2.25981 10.5097
63 3 -0.851858 -0.360207 3.89311 13.3969
64 3 -0.828384 1.77977 4.41835 11.9398
65 3 -0.863499 -2.28658 6.24113 9.57182
66 3 -0.849952 -0.683704 5.36745 11.3729
73 3 -0.769172 3.2337 2.39753 10.0115
75 3 -0.859296 5.6703 2.99359 10.3648
76 3 -0.8436 7.00425 1.57745 11.9168
80 3 -0.759079 4.55251 4.04681 8.35313
86 3 -0.79573 2.81747 6.58478 9.9918
137 2 0.167498 3.03146 0.933961 12.1924
114 2 -0.0319118 0.746564 6.33403 13.3682
197 2 0.164188 5.26635 1.32972 15.4619
124 2 0.0648059 3.28212 5.18565 11.9936
136 2 0.186746 2.4684 2.13961 13.6509
179 4 1.27049 7.32395 2.55901 15.4713
183 1 -0.67616 5.90504 1.68566 14.5684
77 3 -0.74245 6.91367 4.1019 15.5656
60 3 -0.81927 -0.409981 3.5205 8.29467
196 2 0.174304 5.42907 2.47433 13.9328
117 2 0.109169 5.06408 1.37395 8.42274
227 3 -0.844514 4.76871 5.84832 15.5796
195 2 0.251872 6.17247 0.712096 13.9916
245 1 -0.652393 3.09207 3.2559 15.2352
246 2 0.151713 2.66503 3.77859 14.3448
247 2 0.156596 4.10279 2.57896 14.9611
262 3 -0.799108 0.613023 2.09492 15.3331
228 2 -0.0203511 2.22048 5.1264 15.3161
14 4 1.46792 -0.943743 6.58978 10.2856
29 4 0.906578 3.79109 6.61725 11.2608
266 2 0.0718108 -1.55289 4.6399 15.4992
27 4 1.4229 1.68319 6.53784 8.89035
121 2 -0.0132138 6.85395 4.10237 12.4421
82 3 -0.78494 1.59262 5.15464 8.04679
270 2 0.170132 0.414801 12.1231 1.39296
3 3 -0.767843 -5.82261 11.255 1.05799
268 2 0.226374 -4.81355 8.63327 1.92225
16 4 1.46345 -3.18724 7.91844 6.52662
17 4 1.23904 -4.48557 9.83957 4.74471
154 2 0.165299 0.825269 9.32197 7.5504
161 2 0.186775 -1.03393 10.13 0.340277
31 4 1.2612 -1.98424 10.3304 3.00322
33 4 1.09665 0.115935 10.9842 5.56706
48 1 -0.649037 -1.09801 8.93841 1.98729
49 1 -0.663016 0.0437817 9.37307 6.65277
272 2 0.174589 0.809399 10.2791 0.271468
68 3 -0.85246 -1.90626 7.51318 5.57768
28 4 1.23055 4.18549 6.63711 4.84201
70 3 -0.815479 -4.39294 8.57053 5.66106
79 3 -0.82602 0.552557 7.06328 4.84113
87 3 -0.796673 1.933 7.71838 2.51721
30 4 0.951546 2.55604 8.29454 1.14398
89 3 -0.785644 -2.1329 11.7467 2.00595
90 3 -0.827849 -3.3625 9.79644 3.55588
93 3 -0.781268 -0.852345 10.7064 4.22136
94 3 -0.818884 -0.384712 12.2087 6.50616
115 2 -0.0190698 -4.1197 11.1779 5.74025
147 2 0.224808 1.77942 7.5055 6.5214
151 2 0.197801 -0.0906717 9.34548 1.55465
152 2 0.173227 -1.87777 8.71151 1.18359
153 2 0.189183 -1.06296 8.13849 2.877
251 1 -0.655867 -5.40662 8.47132 0.995042
155 2 0.273121 0.214558 8.55717 5.87013
156 2 0.273853 -1.07729 9.29184 7.08864
46 1 -0.655974 2.361 7.78192 7.45442
148 2 0.167753 3.45973 7.45582 7.53956
133 2 0.176317 -6.73141 12.7029 5.57776
19 4 1.36538 -1.30448 12.6425 7.85862
1 4 1.29458 -6.57641 12.5669 2.06804
69 3 -0.809617 -6.05037 10.1966 4.32882
91 3 -0.849154 -2.59216 9.28207 7.79916
122 2 0.00650691 3.55142 7.85184 5.85354
47 1 -0.650578 1.77466 9.97328 0.905393
149 2 0.146076 2.13616 8.85804 7.8205
244 2 0.141045 -5.326 12.8362 4.0526
253 2 0.16357 -4.96703 7.68018 0.294083
265 2 0.204258 -4.26493 12.6925 2.50904
271 2 0.165197 1.5916 10.1652 2.03925
159 2 0.204416 1.00613 9.82919 12.0211
18 4 1.22295 -1.97396 8.3204 12.8798
22 4 1.21259 -0.594063 13.0371 12.0434
32 4 0.969704 -2.37991 10.1506 9.0237
35 4 1.2297 -1.25258 10.8006 14.3184
50 1 -0.663602 1.89424 10.5784 11.878
160 2 0.159563 1.09545 11.0269 14.754
158 2 0.237687 1.58443 11.7017 12.0964
51 1 -0.641999 0.218924 11.28 15.4581
162 2 0.203017 0.0998799 12.3758 15.7476
72 3 -0.800038 -1.32839 8.12503 11.4913
83 3 -0.860392 0.333028 7.14857 9.37897
88 3 -0.733349 2.93996 7.66487 15.8033
92 3 -0.84632 -1.54994 11.4834 9.15688
95 3 -0.786346 3.6164 8.0967 12.0079
96 3 -0.780705 -0.946938 9.2491 13.7206
97 3 -0.828086 -1.25684 12.0248 13.1209
98 3 -0.771309 -2.62752 10.6757 15.309
116 2 -0.0413243 -3.24352 9.34836 12.6139
120 2 0.0785742 -0.832371 12.2663 10.5583
126 2 0.0893811 -1.73347 9.07621 10.2043
127 2 -0.0331647 -3.84602 10.5958 9.81198
128 2 0.0375449 2.33348 10.0311 13.6824
139 2 0.170042 -4.18605 11.0717 13.6632
140 2 0.16971 -5.5114 12.0476 14.5488
43 1 -0.64714 -5.25598 11.0865 14.0479
71 3 -0.823169 -2.47124 6.94478 13.6052
157 2 0.122135 2.36634 10.5757 10.6775
269 2 0.146044 -5.93038 11.0431 13.1018
15 4 1.0463 -4.11636 10.6104 16.073
235 2 0.166996 11.5158 1.39405 3.05598
37 4 1.29815 13.0179 2.06431 5.70663
221 1 -0.674479 8.69756 0.21627 2.11314
39 4 1.26578 11.2497 3.93999 7.39144
45 1 -0.666257 7.03842 4.96752 7.61079
54 1 -0.674053 10.4965 5.49243 6.5967
101 3 -0.81365 13.9596 3.05084 4.8457
102 3 -0.85834 13.7141 1.16836 6.79297
250 2 0.187088 12.0959 4.86764 0.52709
4 4 1.45618 14.9535 2.73444 3.64952
106 3 -0.809695 11.8472 2.90944 6.29488
232 3 -0.796664 14.2838 1.50251 2.74267
129 2 -0.00311042 12.0994 1.04756 4.56087
130 2 0.0282092 7.60755 5.73119 3.33296
169 2 0.197942 10.6635 6.27599 7.37669
207 4 1.22712 14.5665 0.31056 7.80576
146 2 0.1586 7.78183 4.34593 6.93174
103 3 -0.789805 5.66653 6.0242 1.28802
145 2 0.148112 7.15994 6.13891 7.52138
170 2 0.166023 9.41725 5.24161 6.44454
171 2 0.211943 11.0363 5.71421 5.65318
273 2 0.177305 9.44765 0.365406 0.138684
224 2 0.165563 9.1018 1.19758 1.76405
231 1 -0.673531 11.6705 0.30795 2.79909
11 4 1.50679 13.1149 6.0228 8.88309
36 4 1.2761 8.97764 2.28909 9.07875
52 1 -0.676768 10.2619 1.1234 9.71743
186 1 -0.665211 8.87938 6.1049 9.86201
100 3 -0.814565 8.27329 3.28942 10.3341
107 3 -0.791198 12.5241 4.42936 8.74089
110 2 0.0168078 14.4737 2.94455 10.1149
105 3 -0.804053 9.95538 3.20378 8.11399
202 2 0.183153 13.8787 3.76163 11.9323
163 2 0.183398 11.2523 1.59479 9.63564
144 2 0.209399 7.00471 4.62085 8.72966
165 2 0.230246 9.97589 0.841137 10.7758
172 4 0.965948 16.1412 2.51738 14.1491
173 1 -0.639704 14.3871 1.67741 13.7757
174 2 0.0770979 14.454 2.58708 15.1347
175 2 0.0165772 15.908 1.09787 12.9534
176 2 0.170903 13.7453 2.24996 12.9124
184 1 -0.664957 11.0584 0.7807 15.113
178 4 1.0775 13.9181 5.57228 14.3459
180 4 1.2971 9.97908 1.69809 13.9042
181 4 1.35776 11.6874 3.99466 12.6657
205 2 0.201868 9.2281 5.17057 9.12646
185 1 -0.690844 12.9742 3.30072 11.3117
177 2 0.170563 13.7379 0.739 14.1667
189 3 -0.818055 10.9113 2.7625 13.1624
190 3 -0.79176 12.7295 4.56042 13.8081
192 3 -0.781717 10.8476 5.22504 11.9266
263 3 -0.855109 15.6365 1.07783 8.7216
199 2 0.182354 12.0955 1.17678 15.0544
200 2 0.27147 12.7671 3.74485 10.2786
201 2 0.138958 12.8998 2.16285 11.3455
182 4 1.02824 10.6167 6.1672 10.6282
204 2 0.172093 8.06601 5.83711 10.6255
6 4 1.30697 15.969 2.42165 9.38197
249 1 -0.64502 14.1939 5.653 16.0605
188 3 -0.802835 8.77223 2.27014 14.6862
187 3 -0.791304 9.36743 0.46092 12.4601
123 2 -0.0467362 5.40175 6.31375 10.812
237 1 -0.653979 7.8305 10.3926 0.0160093
257 2 0.128659 2.21221 10.3946 5.95365
167 2 0.17526 8.96457 6.99943 2.06166
53 1 -0.648824 8.13543 7.39192 2.66941
104 3 -0.805003 5.26725 7.32764 3.68442
134 2 0.26559 8.24382 12.8468 5.71272
125 2 -0.00740006 4.24995 8.26084 1.2771
225 2 0.171802 0.701762 12.7792 3.15891
166 2 0.0730898 7.39071 8.51582 1.98135
168 2 0.148877 8.39393 7.65543 3.74453
206 4 1.27216 9.26808 10.5218 3.98704
215 2 0.155931 5.09868 9.25771 7.02277
208 4 1.04794 7.37755 10.31 6.67721
209 1 -0.684398 5.86047 9.16875 6.25985
255 2 0.148619 2.36536 12.2336 5.29646
211 3 -0.778204 8.36819 10.5629 5.26407
212 3 -0.782372 6.72286 11.7808 7.09219
213 2 -0.00533103 8.67413 9.20423 3.06241
254 1 -0.667358 1.94365 11.1678 5.02587
216 2 0.155673 6.31254 8.14847 6.23417
217 2 0.182444 5.46836 9.45223 5.25789
230 4 1.08215 5.23794 12.8658 2.50864
234 2 0.173804 3.02393 12.8353 1.74869
67 3 -0.82271 13.122 6.646 7.3056
238 3 -0.775113 5.68805 12.1057 1.02425
240 2 0.165487 8.0747 10.4077 1.08574
38 4 1.00796 6.27856 6.75694 2.57378
233 2 0.158524 2.81763 12.4871 3.6319
258 1 -0.64583 6.00064 11.8319 3.90728
259 2 0.166334 6.59997 10.9346 3.48563
260 2 0.116958 4.85544 11.4767 4.24507
261 2 0.23132 6.4974 12.3994 4.70598
274 2 0.176966 9.31437 9.0508 7.62885
150 2 0.144321 2.74638 10.5354 0.545328
252 2 0.160218 10.3076 8.45703 1.13512
256 2 0.165893 2.18072 10.7611 4.05206
2 3 -0.824022 9.36178 11.861 3.21559
198 2 0.154075 2.58377 12.5453 14.6063
40 4 0.917051 6.01901 11.5389 12.9798
108 3 -0.800693 4.78583 10.6618 12.6584
109 3 -0.79525 6.50027 11.5598 14.4404
214 2 -0.0388415 4.94972 12.6576 8.8821
132 2 -0.0485205 7.2972 11.1594 12.0868
236 4 0.994262 7.47522 11.8824 15.7966
203 2 0.142495 8.56727 7.02636 9.24262
131 2 -0.0181317 5.75338 13.1499 12.4036
193 2 0.0519257 11.4113 9.68185 14.975
218 2 0.135345 7.78327 9.12171 8.77737
194 2 0.00819967 9.72487 7.57833 10.9435
241 2 0.170743 9.99813 11.0087 15.3593
239 2 0.111008 8.15049 9.80659 15.8455
264 2 0.0546543 9.0155 12.5553 15.24
219 2 0.17632 8.81105 10.7297 8.60499
34 4 0.995988 3.48917 9.6774 12.395
191 3 -0.817706 11.9806 6.73966 9.8027
210 1 -0.657266 8.51483 9.68838 8.14704
164 2 0.160393 1.84822 12.9994 9.08349
ITEM: TIMESTEP
200
ITEM: NUMBER OF ATOMS
274
ITEM: BOX BOUNDS xy xz yz pp pp pp
-8.3797999999999995e+00 1.8065268000000000e+01 -8.3797999999999995e+00
0.0000000000000000e+00 1.3273200000000001e+01 1.2463680000000004e+00
0.0000000000000000e+00 1.6075500000000002e+01 4.3120000000000003e-01
ITEM: ATOMS id type q x y z
119 2 -0.0140666 7.51429 1.16389 5.26096
12 4 1.31251 -0.842696 6.34093 5.30596
7 4 1.08696 0.917475 2.14856 5.01007
9 4 1.25557 -0.406178 4.57432 1.85535
10 4 1.58906 0.379527 4.33847 7.24524
242 1 -0.673026 3.36125 0.252966 3.22356
21 4 0.822459 5.84574 1.41251 5.66774
26 4 1.28717 5.28867 4.24736 6.84916
41 1 -0.668152 0.67212 0.673695 6.13843
44 1 -0.674236 3.78859 3.78629 1.82728
55 3 -0.81923 1.40214 0.956752 1.17466
56 3 -0.798794 -0.423955 2.29815 3.97825
58 3 -0.796553 -1.78041 4.54426 2.70356
59 3 -0.850828 -0.000269174 3.21233 0.98048
243 2 0.149778 3.75363 1.29637 3.10303
61 3 -0.791034 1.13087 3.33283 5.97905
62 3 -0.877255 -0.468416 5.42849 6.52019
74 3 -0.791366 5.66275 0.344544 7.307
78 3 -0.888731 0.752208 5.26278 2.59714
81 3 -0.822096 5.64576 2.91825 5.98752
84 3 -0.812694 2.9343 5.86242 3.9671
85 3 -0.785561 4.65474 5.50705 5.98352
113 2 0.110381 -1.45993 5.33753 4.02517
111 2 -0.00547339 2.42842 1.78385 4.19255
112 2 -0.0183794 -0.882268 5.50499 0.531191
5 4 1.35572 0.587593 1.99384 0.241338
118 2 -0.017611 4.48292 0.885384 4.70241
24 4 1.29367 4.73263 4.8849 0.57098
222 3 -0.793628 6.33755 1.4423 0.976762
223 2 -0.0901713 6.26143 0.942475 3.8441
141 2 0.180268 3.63331 2.72124 1.44385
142 2 0.229174 2.82124 4.36182 1.97517
143 2 0.183632 4.38587 3.81453 2.76008
220 4 1.03632 6.80053 0.434445 2.14414
135 2 0.23551 0.603349 0.966353 7.21995
25 4 1.41491 1.52386 6.46778 3.34543
267 2 0.179196 -3.71449 6.19554 0.484994
28 4 1.20177 4.07576 6.54031 4.87608
138 2 0.157438 1.34313 0.941108 12.7236
8 4 1.27392 1.84828 2.59797 11.178
13 4 1.24824 0.391366 4.96021 12.6212
229 2 -0.0589313 3.56604 6.52837 13.2861
20 4 1.26789 4.50582 2.71932 9.36935
23 4 1.26441 6.95055 2.89501 11.2039
99 3 -0.81108 8.0004 1.15865 8.318
226 4 0.885651 3.45411 6.36609 15.0908
42 1 -0.666822 2.29001 1.56228 12.6308
57 3 -0.826569 0.408657 2.29152 10.4866
63 3 -0.881092 -0.29503 3.90377 13.5779
64 3 -0.793645 1.83672 4.34901 12.1884
65 3 -0.849558 -2.32873 6.15704 9.53917
66 3 -0.82562 -0.40781 5.36433 11.359
73 3 -0.791621 3.07836 2.48994 10.1728
75 3 -0.85362 5.57681 3.1876 10.4398
76 3 -0.850338 7.00017 1.50967 12.0215
80 3 -0.755334 4.37186 3.81925 8.27971
27 4 1.37858 1.70729 6.55791 8.79803
137 2 0.156374 3.16459 0.947009 12.1928
114 2 -0.0469721 0.693525 6.36551 13.4639
197 2 0.17179 5.45306 1.2555 15.8518
124 2 0.118822 2.8826 5.44309 11.6815
136 2 0.194547 2.64491 2.16045 13.6262
179 4 1.31639 7.36419 2.56218 15.5555
183 1 -0.657577 5.88395 1.66331 14.7792
77 3 -0.764476 6.88691 4.1094 15.7345
60 3 -0.831334 -0.517852 3.45817 8.26316
196 2 0.174344 5.15 2.20817 14.137
117 2 0.0710946 5.06021 1.33362 8.55616
227 3 -0.833876 4.79148 5.92335 15.7784
195 2 0.250312 6.43554 0.811755 14.2054
245 1 -0.672189 3.17881 3.28204 15.2295
246 2 0.168654 2.81425 3.63671 14.2042
247 2 0.17534 4.11561 2.56668 15.1083
262 3 -0.807843 0.66075 1.84573 15.1565
228 2 -0.031262 2.33814 5.12379 15.0894
14 4 1.51439 -1.04695 6.64779 10.3882
82 3 -0.77739 1.55902 5.09128 8.14253
266 2 0.0831697 -1.45452 4.8283 15.7295
123 2 -0.0400136 5.37902 6.19228 10.8451
248 2 0.175637 3.34138 4.1322 16.0175
253 2 0.180724 -4.916 7.80036 0.0924306
3 3 -0.802728 -6.06758 11.372 1.02655
268 2 0.18174 -5.08817 8.87209 1.67663
16 4 1.47099 -3.22831 7.91602 6.57194
17 4 1.25836 -4.53544 9.90369 4.9046
154 2 0.178337 0.887237 9.32733 7.60791
161 2 0.19912 -1.09902 10.0968 0.277373
31 4 1.29401 -1.92357 10.3741 3.16095
33 4 1.11654 0.255736 10.8746 5.61851
48 1 -0.637801 -1.23695 8.9932 2.03036
49 1 -0.648956 0.103832 9.27462 6.75581
272 2 0.171729 0.70217 10.2741 0.354397
68 3 -0.836262 -1.94291 7.44331 5.65323
251 1 -0.673789 -5.49908 8.56807 0.603755
70 3 -0.814937 -4.42392 8.45417 5.61949
79 3 -0.838259 0.451614 7.08952 4.66405
87 3 -0.802904 1.80332 7.7385 2.26155
30 4 1.0397 2.30852 8.18312 0.836218
89 3 -0.781374 -1.97338 11.7717 2.09203
90 3 -0.821826 -3.3951 10.1571 3.76877
93 3 -0.790781 -0.841311 10.6373 4.28785
94 3 -0.810031 -0.247457 11.9424 6.61446
115 2 -0.0114806 -4.14135 11.0325 6.11375
147 2 0.19045 1.84881 7.40011 6.44926
151 2 0.18674 -0.101446 9.43872 1.59108
152 2 0.172105 -2.02625 8.79652 1.19669
153 2 0.19353 -1.17008 8.14323 2.83715
271 2 0.169721 1.55522 10.274 2.10957
155 2 0.262878 0.189589 8.43512 5.99052
156 2 0.272105 -0.965023 9.33035 7.1215
46 1 -0.671486 2.38818 7.72781 7.41901
148 2 0.173061 3.48551 7.45712 7.38238
133 2 0.152293 -6.78522 12.9036 5.9047
19 4 1.34801 -1.24451 12.5931 7.83995
1 4 1.29464 -6.54438 12.5443 2.06624
69 3 -0.857199 -5.91793 10.3391 4.35066
91 3 -0.823082 -2.75367 9.38706 7.70846
122 2 -0.00560394 3.3307 7.87751 5.6981
47 1 -0.63922 1.69985 10.0197 0.950698
149 2 0.153658 2.20097 8.84094 7.66431
265 2 0.198765 -4.36163 12.1912 2.56438
244 2 0.145071 -5.3242 12.8726 4.30021
159 2 0.207414 1.04041 9.68653 12.0897
18 4 1.27403 -1.94987 8.29196 12.8726
22 4 1.25993 -0.622443 12.977 12.0822
32 4 0.928819 -2.59371 10.3263 8.96268
35 4 1.29564 -1.31376 10.8891 14.2263
50 1 -0.680631 1.86857 10.4052 11.9463
160 2 0.167129 1.15527 10.6634 14.7752
158 2 0.239757 1.63429 11.5005 12.3248
51 1 -0.638108 0.268443 11.0922 15.3502
162 2 0.201799 0.369708 12.1937 15.4841
72 3 -0.84775 -1.44781 7.93114 11.4246
83 3 -0.789363 0.245309 7.08252 9.43038
88 3 -0.79948 2.85504 7.8137 15.6555
92 3 -0.830445 -1.42565 11.4207 9.12616
95 3 -0.809441 3.88156 8.23302 11.771
96 3 -0.822552 -1.07294 9.34583 13.6523
97 3 -0.883403 -1.21315 12.0166 13.1163
98 3 -0.787043 -2.61241 10.8749 15.3281
116 2 -0.0312731 -3.46931 8.91951 12.5967
120 2 0.063669 -0.726986 12.2573 10.5647
126 2 0.0329678 -2.37534 9.28851 10.2548
127 2 -0.0585457 -4.06518 11.0632 9.38977
128 2 0.0281834 2.29849 9.48134 13.6364
139 2 0.152171 -4.55913 11.458 13.418
140 2 0.171799 -5.6646 11.9955 14.7602
43 1 -0.657078 -5.42985 11.1183 14.0509
71 3 -0.866457 -2.39358 6.99733 13.5944
157 2 0.148813 2.19934 10.4321 10.7532
15 4 1.0528 -4.06989 10.762 16.0447
29 4 0.945413 3.86658 6.797 11.1545
86 3 -0.791451 2.88363 6.73567 9.96405
235 2 0.17215 11.4993 1.36878 3.04883
37 4 1.28805 12.9885 2.14895 5.74707
221 1 -0.664414 8.67349 0.546625 2.07762
39 4 1.25848 11.1347 3.91413 7.39059
45 1 -0.651118 7.1065 4.73943 7.25353
54 1 -0.67144 10.6816 5.52467 6.53987
101 3 -0.839857 13.9379 3.06634 4.83182
102 3 -0.854716 13.7797 1.236 6.82694
250 2 0.173026 12.0236 4.51624 0.396764
4 4 1.4355 14.8614 2.78908 3.58242
106 3 -0.831738 11.7827 2.89391 6.37628
232 3 -0.814629 14.157 1.66255 2.66783
129 2 0.000363387 12.2419 1.07236 4.55154
130 2 0.0490612 7.65183 5.68196 3.05283
169 2 0.204377 10.7072 6.31522 7.32509
207 4 1.28452 14.5113 0.342083 7.8563
146 2 0.220389 7.69086 3.74794 7.09396
103 3 -0.794966 5.51813 6.0756 1.35393
145 2 0.158013 7.48241 5.61014 6.58832
170 2 0.164461 9.64351 5.35944 6.14398
171 2 0.226691 11.3587 5.82321 5.72007
134 2 0.223397 16.4906 0.250103 5.74368
224 2 0.184475 8.82838 1.21243 1.19533
231 1 -0.671769 11.7646 0.324411 2.79247
225 2 0.121568 8.83043 1.03973 3.15717
230 4 1.1107 13.6992 0.126397 2.39661
105 3 -0.814992 9.71352 3.25939 8.02855
234 2 0.168094 11.2522 0.192824 1.79235
11 4 1.48721 13.0734 5.98832 8.87215
36 4 1.3454 9.00256 2.19726 9.01098
52 1 -0.669429 10.3848 1.0495 9.68183
186 1 -0.675544 9.06663 6.27492 9.84544
100 3 -0.839964 8.20545 2.84989 10.2816
107 3 -0.775624 12.5176 4.33515 8.70928
110 2 0.0186801 14.5914 2.88434 10.2202
121 2 -0.00734295 7.25823 4.17859 12.2503
202 2 0.160677 14.0447 3.68573 11.9191
163 2 0.171752 11.3796 1.52486 9.6269
144 2 0.175679 7.05818 4.98825 8.37244
165 2 0.236716 9.97443 0.763973 10.8041
172 4 1.02117 16.2741 2.4842 14.2561
173 1 -0.652644 14.5755 1.58247 13.7379