ITEM: TIMESTEP
0
ITEM: NUMBER OF ATOMS
274
ITEM: BOX BOUNDS xy xz yz pp pp pp
-8.3797999999999995e+00 1.8013900000000000e+01 -8.3797999999999995e+00
0.0000000000000000e+00 1.3273200000000001e+01 1.1950000000000001e+00
0.0000000000000000e+00 1.6075500000000002e+01 4.3120000000000003e-01
ITEM: ATOMS id type q x y z
119 2 -0.00430576 7.37526 1.23518 5.25322
12 4 1.32239 -0.870909 6.3079 5.31647
7 4 1.14708 0.920894 2.09119 5.10743
9 4 1.24686 -0.422304 4.69065 1.86353
10 4 1.60781 0.372093 4.30644 7.31615
242 1 -0.676458 3.2936 0.584475 2.89345
21 4 0.808633 5.74105 1.46597 5.6585
26 4 1.26594 5.45717 4.55075 6.8884
41 1 -0.651264 0.754564 0.419044 5.99651
44 1 -0.66675 4.14965 3.77198 1.7531
55 3 -0.811344 1.11186 0.899791 1.07573
56 3 -0.843998 -0.36477 2.34832 4.32122
58 3 -0.78699 -1.75035 4.45071 2.76404
59 3 -0.831363 -0.0398458 3.36975 1.10913
243 2 0.159851 3.44574 1.7237 2.84851
61 3 -0.780314 1.19579 3.06768 6.2823
62 3 -0.852736 -0.624353 5.22379 6.42569
74 3 -0.790243 5.49457 0.393369 7.29962
78 3 -0.859426 0.74192 5.4181 2.67125
81 3 -0.777132 5.78223 2.98415 5.98138
84 3 -0.80825 2.99553 5.82697 4.14497
85 3 -0.832046 5.02397 5.78172 5.95211
113 2 0.110628 -1.45835 5.38447 3.98952
111 2 -0.00472518 2.27113 1.88708 4.0131
112 2 -0.0212 -0.962387 5.56263 0.529897
5 4 1.35853 0.371247 2.02738 0.227848
118 2 -0.0308404 4.53757 1.07611 4.32878
24 4 1.29593 4.95359 4.93586 0.439556
222 3 -0.787215 6.2497 1.35716 1.11943
223 2 -0.0992495 6.22703 0.867697 3.89463
141 2 0.194712 4.46764 2.69365 1.65969
142 2 0.190067 3.02201 3.93733 1.66115
143 2 0.189232 4.56617 4.30483 2.68781
220 4 1.01825 6.72519 0.241763 2.22281
135 2 0.244275 0.578529 0.594354 7.0986
82 3 -0.822993 1.51881 5.26651 7.92498
267 2 0.171267 -3.66096 6.26892 0.406547
244 2 0.12263 3.0248 0.174358 3.94263
138 2 0.172251 1.56067 0.744134 12.3912
8 4 1.2567 1.85377 2.68574 10.9737
13 4 1.23629 0.404794 4.95639 12.3105
229 2 -0.0378213 3.61064 6.37989 13.4966
20 4 1.29109 4.44144 2.89803 9.20296
23 4 1.2533 6.9386 2.93318 11.1909
99 3 -0.821677 7.9036 1.25761 8.40017
226 4 0.913724 3.52429 6.38263 15.1746
42 1 -0.658868 2.32239 1.5448 12.4098
57 3 -0.822094 0.43769 2.07572 10.382
63 3 -0.86395 -0.340257 3.91674 13.3556
64 3 -0.830473 1.83622 4.3766 11.9884
65 3 -0.827254 -2.38818 6.30293 9.54181
66 3 -0.878427 -0.515562 5.3899 11.0602
73 3 -0.829271 3.12022 2.56812 9.96057
75 3 -0.860841 5.69766 2.92454 10.2184
76 3 -0.841993 7.08537 1.60524 12.0438
80 3 -0.793973 4.48281 4.12681 8.18656
123 2 -0.0526674 5.1666 6.00262 10.8331
137 2 0.172914 3.33331 1.13195 12.0166
114 2 -0.0295307 0.789442 6.32667 13.2582
248 2 0.169683 3.52164 3.94964 15.8902
124 2 0.0582283 3.25893 5.21513 12.0746
136 2 0.177232 2.5007 2.16767 13.451
179 4 1.25595 7.24098 2.43971 15.6814
183 1 -0.669144 5.86945 1.49881 14.809
77 3 -0.747637 6.92659 4.16882 15.6921
60 3 -0.846417 -0.474363 3.49288 8.35773
196 2 0.181042 5.35728 2.21835 14.2122
117 2 0.110626 4.85345 1.45918 8.31862
227 3 -0.835922 4.90589 5.95077 15.7567
195 2 0.287801 6.39802 0.598733 14.2062
245 1 -0.679701 2.99421 3.21647 15.1884
246 2 0.158066 2.64565 3.7133 14.2363
247 2 0.171234 3.73742 2.39459 14.9381
262 3 -0.829843 0.332272 2.03789 15.369
228 2 -0.0227955 2.42613 5.11969 15.2886
14 4 1.56157 -0.990419 6.61829 10.2676
29 4 0.954947 3.65172 6.58993 11.1706
266 2 0.0937312 -1.59069 4.8253 15.8203
121 2 -0.0213482 6.74854 4.2489 12.2576
197 2 0.192265 5.29069 1.16496 15.7809
86 3 -0.829045 2.73407 6.60447 9.92363
27 4 1.36733 1.78263 6.64227 8.69417
15 4 1.03115 -5.17511 10.1581 0.0284757
3 3 -0.786448 -5.74092 11.5133 0.967686
268 2 0.23355 -4.38982 8.65074 1.56036
16 4 1.50821 -3.09373 7.97488 6.56486
17 4 1.24248 -4.49623 9.87467 4.72632
154 2 0.17109 1.07727 9.54171 7.27848
161 2 0.189033 -0.983851 10.0789 0.503756
31 4 1.21456 -2.0736 10.2075 2.97162
33 4 1.16018 -0.0589194 11.071 5.50767
48 1 -0.655185 -0.99241 8.88163 2.07454
49 1 -0.633345 0.1378 9.46859 6.57262
272 2 0.175223 0.800239 10.3225 0.346656
68 3 -0.863699 -1.87127 7.40807 5.65391
28 4 1.28497 4.21536 6.56153 4.91333
70 3 -0.825578 -4.22226 8.71352 5.73358
79 3 -0.847523 0.567658 7.09686 4.86674
87 3 -0.815838 1.97382 7.83524 2.62123
30 4 1.02412 2.31539 8.2206 1.10573
89 3 -0.763424 -2.06047 11.6222 1.88737
90 3 -0.812149 -3.55359 9.73837 3.3139
93 3 -0.81485 -1.01775 10.6692 4.29481
94 3 -0.808952 -0.539052 12.1423 6.54333
115 2 -0.0378913 -4.03097 11.2986 5.50983
147 2 0.185 2.05724 7.52188 6.52288
151 2 0.185696 0.00644404 9.38375 1.56015
152 2 0.161086 -1.62503 8.42768 1.25377
153 2 0.194907 -0.817708 8.20562 3.01825
251 1 -0.670879 -5.32591 8.5341 0.951386
155 2 0.280244 0.23433 8.54924 5.85781
156 2 0.29817 -0.926382 9.3979 7.12251
46 1 -0.671346 2.59995 7.95251 7.48116
148 2 0.167353 3.69692 7.67343 7.58859
265 2 0.193436 -4.25197 12.8225 2.43286
19 4 1.3601 -1.33312 12.8326 7.85669
1 4 1.29541 -6.53924 12.526 1.9059
69 3 -0.802784 -6.01343 9.93971 4.32228
91 3 -0.820738 -2.41525 9.32328 7.81287
271 2 0.17154 1.75564 10.434 1.98743
47 1 -0.667403 1.77714 10.0502 0.958638
25 4 1.42154 1.58706 6.55171 3.57003
122 2 0.0109183 3.57705 7.92472 5.791
149 2 0.144146 2.38553 9.10864 7.61191
133 2 0.140556 -6.54265 12.8413 5.82168
270 2 0.183806 0.588865 12.115 1.71841
159 2 0.193034 1.10828 9.70949 11.5158
18 4 1.22621 -1.93069 8.33392 12.8931
22 4 1.18641 -0.668922 12.9684 12.183
32 4 0.95538 -2.25361 10.2485 9.042
35 4 1.18736 -1.21026 10.6867 14.5043
50 1 -0.650687 2.00582 10.3963 11.7131
160 2 0.153101 1.09091 10.8936 14.7839
158 2 0.241033 1.60032 11.4479 12.0722
51 1 -0.633025 0.252588 11.2309 15.5242
162 2 0.227345 0.167233 12.3564 15.638
72 3 -0.828669 -1.46252 7.96864 11.3902
83 3 -0.783009 0.116057 7.14801 9.21939
88 3 -0.785431 2.93055 7.71824 15.8671
92 3 -0.802013 -1.20242 11.3939 8.96965
95 3 -0.797621 3.64879 7.95372 12.0081
96 3 -0.794265 -0.889657 9.08144 13.7778
97 3 -0.794685 -1.49396 12.0601 13.2221
98 3 -0.784038 -2.5003 10.7594 15.4083
116 2 -0.046248 -3.40839 9.14672 12.6924
120 2 0.0297379 -0.695721 12.1967 10.6843
126 2 0.0711295 -1.91684 9.20631 10.3753
127 2 -0.0468747 -3.81161 10.752 9.42328
128 2 0.0402822 2.14943 9.85413 13.5357
139 2 0.164998 -4.3952 10.995 13.6586
187 3 -0.79573 0.91779 12.955 12.651
43 1 -0.662525 -5.41795 10.9178 14.1418
71 3 -0.846104 -2.37068 7.02219 13.6579
140 2 0.180322 -5.63558 11.8355 14.7133
235 2 0.163432 11.5676 1.3061 2.88034
37 4 1.27457 12.9885 1.99468 5.6344
221 1 -0.651448 8.60957 0.273993 2.04274
39 4 1.26378 11.2397 3.94265 7.48412
45 1 -0.660942 7.13351 5.12681 7.57796
54 1 -0.662012 10.5205 5.38327 6.55
101 3 -0.815263 13.9003 2.96946 4.79713
102 3 -0.850864 13.8235 1.08148 6.59441
250 2 0.180121 11.9338 4.65367 0.458325
4 4 1.45879 14.996 2.72619 3.67788
106 3 -0.789745 11.8742 2.93601 6.37502
232 3 -0.802769 14.429 1.4913 2.72362
129 2 -0.00842532 11.9848 1.07481 4.53978
130 2 0.0746833 7.65181 5.85509 3.35369
169 2 0.249807 10.9994 6.37438 6.78828
207 4 1.24693 14.4695 0.326107 7.83836
146 2 0.193647 7.84856 4.44923 7.05703
103 3 -0.798855 5.89096 6.18144 1.21274
145 2 0.158414 7.36935 6.24593 7.38403
170 2 0.178357 9.4157 5.34081 6.81183
171 2 0.189239 10.7804 4.96578 5.45187
225 2 0.115101 8.80617 0.522978 3.21792
224 2 0.177192 9.0413 1.07162 1.38943
231 1 -0.648771 11.7726 0.229141 2.77737
273 2 0.180715 9.33075 0.202628 0.0969628
11 4 1.48473 13.059 6.02134 8.74315
36 4 1.24569 8.99666 2.25869 9.22474
52 1 -0.689425 10.2968 1.21043 10.0875
186 1 -0.665773 8.82034 6.15137 9.86454
100 3 -0.801482 8.30757 3.27637 10.3817
107 3 -0.789432 12.7101 4.40815 8.65194
110 2 0.0102344 14.7519 2.79914 10.4789
105 3 -0.795935 9.93635 3.29466 8.14665
202 2 0.172834 14.0062 3.7096 11.8234
163 2 0.176088 11.1359 2.00546 10.1445
144 2 0.194458 7.04349 4.89791 8.7352
165 2 0.231629 9.94449 0.805367 11.0756
172 4 0.999875 16.1065 2.61629 14.1679
173 1 -0.662027 14.3795 1.6926 13.6759
174 2 0.062673 14.4365 2.94138 14.9724
175 2 0.0592569 15.6567 1.20306 13.0235
176 2 0.167885 13.8598 2.23922 12.8778
184 1 -0.658062 10.9617 0.662469 15.0693
178 4 1.10899 13.9335 5.74588 14.3687
180 4 1.24546 9.88992 1.58895 13.881
181 4 1.30155 11.8601 3.98023 12.6702
205 2 0.203378 9.22065 5.15999 9.11705
185 1 -0.686971 13.0581 3.23796 11.3086
177 2 0.175278 13.7208 0.840721 14.0923
189 3 -0.777309 10.808 2.79762 13.2885
190 3 -0.802927 12.8158 4.73603 13.7555
192 3 -0.763518 11.1102 5.08758 11.7305
263 3 -0.845918 15.577 1.01732 8.69487
199 2 0.173557 11.9609 1.19628 14.9621
200 2 0.267531 12.8562 3.62254 10.2188
201 2 0.124221 12.8977 2.09896 11.5485
182 4 1.02492 10.5621 6.2237 10.6024
204 2 0.168597 8.23047 5.76705 10.7453
6 4 1.32517 16.0381 2.35191 9.3862
164 2 0.154056 10.3966 0.391481 9.23915
188 3 -0.75985 8.61372 2.09225 14.724
249 1 -0.645848 14.066 5.66186 16.0516
237 1 -0.668663 7.75062 10.6967 0.173139
257 2 0.158755 2.33971 10.9715 5.85662
167 2 0.172494 8.89989 7.07153 1.83891
53 1 -0.645377 8.23918 7.33349 2.67975
104 3 -0.789864 5.16134 7.1535 3.85553
134 2 0.247777 8.42772 12.6953 5.46272
125 2 -0.00944633 3.97307 8.37229 0.815038
2 3 -0.82117 9.32754 11.7866 3.13735
166 2 0.0314642 7.3248 8.53641 2.06848
168 2 0.169082 8.89749 7.70984 3.53288
206 4 1.22369 9.32321 10.3809 3.85789
215 2 0.162267 4.94886 9.60844 6.98421
208 4 1.02964 7.41474 10.3722 6.64907
209 1 -0.664496 5.85962 9.18903 6.47797
255 2 0.150005 1.61427 12.5205 4.98746
211 3 -0.767279 8.40852 10.3397 5.13367
212 3 -0.7672 6.68925 11.7902 7.29092
213 2 -0.0112923 8.97652 9.1741 2.7066
254 1 -0.678825 1.74339 11.3948 5.03264
216 2 0.160257 6.17969 8.25624 6.95547
217 2 0.180139 5.70786 9.03182 5.33656
230 4 1.09948 5.35446 12.8695 2.599
234 2 0.185519 3.16243 12.7158 1.67722
253 2 0.154247 11.5074 7.64138 0.230441
238 3 -0.792758 5.42968 12.0943 1.09009
240 2 0.168113 8.05037 10.9622 1.25345
38 4 0.966091 6.3458 6.95343 2.46496
233 2 0.155227 2.83369 12.4003 3.66321
258 1 -0.695958 5.78035 11.7157 4.08908
259 2 0.166554 6.58995 11.0245 3.64565
260 2 0.157904 4.81466 11.2182 4.30107
261 2 0.223189 6.21782 12.2654 4.93941
274 2 0.199575 9.50277 9.60744 7.70546
150 2 0.149656 2.75872 10.4087 0.388518
252 2 0.151726 10.4573 8.67628 1.51989
256 2 0.150156 2.02139 10.9326 3.97623
239 2 0.0984941 7.03245 9.52679 0.0611419
67 3 -0.836249 13.0757 6.7471 7.2725
198 2 0.173462 2.61682 12.4514 14.6111
40 4 0.92241 5.92209 11.4907 12.9209
108 3 -0.839401 4.69135 10.6065 12.8154
109 3 -0.780903 6.63939 11.6211 14.3111
214 2 -0.0505913 4.89377 12.6989 8.90337
132 2 -0.0445662 6.88582 11.0506 11.6505
236 4 0.992835 7.33205 11.941 15.8866
203 2 0.163274 8.34992 6.93033 9.24635
131 2 -0.0218271 5.60355 13.0574 12.4133
193 2 0.0581133 11.3192 9.66496 15.12
218 2 0.125598 7.77601 8.7584 8.23918
194 2 0.00281063 9.44303 7.32232 11.3151
241 2 0.1726 9.88346 10.9953 15.4963
269 2 0.161316 10.5837 10.7866 13.4498
264 2 0.116653 8.76239 12.9772 15.7122
219 2 0.182261 8.43222 10.5683 8.86539
34 4 1.00253 3.55508 9.62049 12.4888
191 3 -0.780697 11.6663 6.81354 9.6142
157 2 0.120326 2.70845 10.4495 10.5719
210 1 -0.644787 8.49221 9.75091 8.0876
ITEM: TIMESTEP
100
ITEM: NUMBER OF ATOMS
274
ITEM: BOX BOUNDS xy xz yz pp pp pp
-8.3797999999999995e+00 1.8013900000000000e+01 -8.3797999999999995e+00
0.0000000000000000e+00 1.3306837800000000e+01 1.1950000000000001e+00
0.0000000000000000e+00 1.6075500000000002e+01 4.6483779999999975e-01
ITEM: ATOMS id type q x y z
119 2 -0.00181021 7.42461 1.10155 5.22301
12 4 1.32064 -0.871054 6.39482 5.25806
7 4 1.13816 0.844814 2.12147 5.06202
9 4 1.25505 -0.461308 4.67796 1.79325
10 4 1.60111 0.426135 4.34035 7.1743
242 1 -0.693108 3.34968 0.521642 3.04898
21 4 0.835739 5.83972 1.36761 5.66527
26 4 1.19091 5.42782 4.38288 6.8995
41 1 -0.664129 0.751616 0.458155 5.99429
44 1 -0.683526 3.97578 4.03272 1.97824
55 3 -0.83805 1.10821 0.87853 1.20678
56 3 -0.853151 -0.50904 2.28525 4.3223
58 3 -0.804433 -1.71795 4.46558 2.74177
59 3 -0.861964 0.0981795 3.38659 1.06159
243 2 0.165026 3.57976 1.58175 3.01641
61 3 -0.808191 1.14625 3.27855 6.08923
62 3 -0.859856 -0.539353 5.37749 6.41711
74 3 -0.780305 5.60945 0.280811 7.30352
78 3 -0.878041 0.707063 5.35104 2.63935
81 3 -0.789441 5.60751 2.82302 5.95155
84 3 -0.817259 2.9748 5.93419 4.09142
85 3 -0.78594 4.80643 5.62734 5.78461
113 2 0.113662 -1.43276 5.40424 3.96907
111 2 0.00192609 2.24007 1.8592 4.04145
112 2 -0.0143419 -0.826131 5.96892 0.742537
5 4 1.39227 0.501265 2.04353 0.322058
118 2 -0.0175166 4.67797 0.938467 4.46257
24 4 1.2533 4.72561 4.87764 0.432049
222 3 -0.764017 6.26372 1.47386 1.0624
223 2 -0.0806169 6.3275 0.772847 3.82284
141 2 0.179601 4.28838 2.99898 1.96516
142 2 0.190428 2.79612 4.15464 1.8678
143 2 0.225508 4.44716 4.63002 2.77241
220 4 1.0153 6.8149 0.36965 2.11918
135 2 0.221711 0.813214 0.739727 7.08631
25 4 1.45788 1.58288 6.4192 3.44688
267 2 0.176341 -3.5067 6.25395 0.25388
248 2 0.161141 2.23627 3.53456 0.083623
138 2 0.151634 1.14409 0.881731 12.6982
8 4 1.18168 1.85389 2.6572 11.1798
13 4 1.27665 0.354842 4.93904 12.4195
229 2 -0.0348919 3.49252 6.44291 13.3327
20 4 1.31716 4.56681 2.77568 9.30842
23 4 1.28974 7.001 2.96811 11.2072
99 3 -0.810634 7.86071 1.15482 8.55349
226 4 0.93619 3.41126 6.33985 15.1057
42 1 -0.662504 2.12077 1.52956 12.6021
57 3 -0.781649 0.291051 2.25983 10.5097
63 3 -0.851844 -0.360218 3.89312 13.3969
64 3 -0.828371 1.77976 4.41833 11.9399
65 3 -0.863497 -2.28658 6.24114 9.57182
66 3 -0.849947 -0.683704 5.36745 11.3729
73 3 -0.769175 3.23369 2.39755 10.0115
75 3 -0.859298 5.6703 2.99359 10.3648
76 3 -0.843603 7.00426 1.57744 11.9168
80 3 -0.759074 4.55251 4.04681 8.35313
86 3 -0.7957 2.81747 6.58477 9.99185
137 2 0.167503 3.03155 0.934088 12.1924
114 2 -0.0319253 0.746562 6.33403 13.3682
197 2 0.16416 5.26651 1.32951 15.4623
124 2 0.0647882 3.28202 5.18572 11.9939
136 2 0.186827 2.46803 2.13951 13.6505
179 4 1.27052 7.32389 2.55899 15.4714
183 1 -0.676132 5.90506 1.68568 14.5684
77 3 -0.742455 6.91367 4.10188 15.5656
60 3 -0.819269 -0.409982 3.5205 8.29467
196 2 0.174266 5.42861 2.47432 13.9331
117 2 0.109168 5.06407 1.37395 8.42275
227 3 -0.844534 4.76865 5.84814 15.5797
195 2 0.251883 6.1723 0.712424 13.9914
245 1 -0.652522 3.09172 3.25556 15.2353
246 2 0.151625 2.66587 3.78026 14.3456
247 2 0.156591 4.10128 2.57852 14.9602
262 3 -0.798988 0.612992 2.09498 15.3331
228 2 -0.0201735 2.22176 5.12537 15.3176
14 4 1.46792 -0.943737 6.58978 10.2856
29 4 0.906561 3.79107 6.61724 11.2609
266 2 0.0718155 -1.55289 4.63989 15.4992
27 4 1.42289 1.68319 6.53784 8.89035
121 2 -0.0132126 6.85395 4.10236 12.4421
82 3 -0.78494 1.59262 5.15464 8.0468
270 2 0.170131 0.414768 12.1231 1.39296
3 3 -0.767841 -5.82261 11.255 1.058
268 2 0.226373 -4.81355 8.63327 1.92225
16 4 1.46345 -3.18724 7.91844 6.52661
17 4 1.23904 -4.48557 9.83957 4.74471
154 2 0.165299 0.82527 9.32197 7.5504
161 2 0.186775 -1.03393 10.13 0.340277
31 4 1.2612 -1.98424 10.3304 3.00322
33 4 1.09665 0.115935 10.9842 5.56706
48 1 -0.649035 -1.09801 8.93841 1.98729
49 1 -0.663017 0.0437825 9.37307 6.65277
272 2 0.174586 0.809394 10.2791 0.271462
68 3 -0.852462 -1.90626 7.51317 5.57768
28 4 1.23055 4.18549 6.63711 4.84201
70 3 -0.815479 -4.39294 8.57053 5.66106
79 3 -0.826017 0.552557 7.06328 4.84113
87 3 -0.796661 1.93299 7.71838 2.51719
30 4 0.951528 2.55603 8.29454 1.14396
89 3 -0.785642 -2.13291 11.7467 2.00595
90 3 -0.82785 -3.3625 9.79644 3.55588
93 3 -0.781265 -0.852344 10.7064 4.22136
94 3 -0.818884 -0.384712 12.2087 6.50616
115 2 -0.0190686 -4.1197 11.1779 5.74025
147 2 0.224808 1.77941 7.50547 6.52141
151 2 0.197803 -0.0906712 9.34546 1.55465
152 2 0.173226 -1.87777 8.71151 1.18359
153 2 0.189183 -1.06298 8.13849 2.87701
251 1 -0.655867 -5.40662 8.47132 0.995043
155 2 0.273122 0.21456 8.55717 5.87013
156 2 0.273852 -1.07728 9.29184 7.08864
46 1 -0.655977 2.36099 7.7819 7.45444
148 2 0.167754 3.45972 7.45578 7.53959
133 2 0.176316 -6.73141 12.7029 5.57776
19 4 1.36538 -1.30448 12.6425 7.85862
1 4 1.29458 -6.57642 12.5669 2.06804
69 3 -0.809618 -6.05037 10.1966 4.32882
91 3 -0.849152 -2.59216 9.28207 7.79916
122 2 0.00650724 3.55141 7.85182 5.85356
47 1 -0.650587 1.77467 9.97324 0.905384
149 2 0.146077 2.13615 8.85803 7.8205
244 2 0.141043 -5.32613 12.8362 4.05254
253 2 0.16357 -4.96703 7.68018 0.294083
265 2 0.204261 -4.2648 12.6927 2.50923
271 2 0.165198 1.59159 10.1652 2.03925
159 2 0.204414 1.00615 9.82915 12.0211
18 4 1.22295 -1.97396 8.3204 12.8798
22 4 1.21259 -0.594051 13.0371 12.0434
32 4 0.969703 -2.37992 10.1506 9.0237
35 4 1.2297 -1.25258 10.8006 14.3184
50 1 -0.6636 1.89424 10.5784 11.878
160 2 0.159563 1.09546 11.0268 14.754
158 2 0.237687 1.58441 11.7016 12.0963
51 1 -0.641997 0.218928 11.28 15.4581
162 2 0.203021 0.0998777 12.3758 15.7475
72 3 -0.800037 -1.32839 8.12503 11.4913
83 3 -0.860391 0.333034 7.14857 9.37896
88 3 -0.733321 2.93989 7.66467 15.8034
92 3 -0.84632 -1.54994 11.4834 9.15688
95 3 -0.786358 3.61637 8.09669 12.008
96 3 -0.780706 -0.946938 9.2491 13.7206
97 3 -0.828069 -1.25684 12.0248 13.1208
98 3 -0.771311 -2.62752 10.6757 15.309
116 2 -0.0413245 -3.24352 9.34836 12.6139
120 2 0.0785733 -0.832335 12.2663 10.5583
126 2 0.0893813 -1.73347 9.07621 10.2043
127 2 -0.0331653 -3.84602 10.5958 9.81198
128 2 0.0375376 2.33348 10.0311 13.6824
139 2 0.170036 -4.18608 11.0716 13.6632
140 2 0.169705 -5.51141 12.0476 14.5489
43 1 -0.647146 -5.25601 11.0865 14.0479
71 3 -0.823168 -2.47124 6.94478 13.6052
157 2 0.122134 2.36636 10.5757 10.6775
269 2 0.146046 -5.9304 11.0431 13.1018
15 4 1.0463 -4.11636 10.6104 16.073
235 2 0.166995 11.5158 1.39405 3.05599
37 4 1.29815 13.0179 2.06431 5.70663
221 1 -0.674478 8.69756 0.216272 2.11315
39 4 1.26578 11.2497 3.93999 7.39144
45 1 -0.666256 7.03842 4.96752 7.61079
54 1 -0.674053 10.4965 5.49243 6.5967
101 3 -0.813654 13.9596 3.05084 4.8457
102 3 -0.858341 13.7141 1.16836 6.79297
250 2 0.187088 12.0959 4.86765 0.52709
4 4 1.45619 14.9535 2.73443 3.64952
106 3 -0.809696 11.8472 2.90944 6.29488
232 3 -0.796649 14.2838 1.50251 2.74267
129 2 -0.00311056 12.0994 1.04756 4.56087
130 2 0.0282097 7.60756 5.73121 3.33297
169 2 0.197942 10.6635 6.27599 7.37669
207 4 1.22712 14.5665 0.310559 7.80575
146 2 0.158599 7.78183 4.34593 6.93174
103 3 -0.789807 5.66655 6.02419 1.28803
145 2 0.148112 7.15994 6.13891 7.52139
170 2 0.166022 9.41725 5.24161 6.44454
171 2 0.211941 11.0363 5.71421 5.65318
273 2 0.177303 9.44764 0.365401 0.138696
224 2 0.165564 9.10179 1.19757 1.76405
231 1 -0.673532 11.6704 0.307951 2.79909
11 4 1.50679 13.1149 6.0228 8.88309
36 4 1.2761 8.97764 2.28909 9.07875
52 1 -0.676767 10.2619 1.1234 9.71742
186 1 -0.665211 8.87938 6.1049 9.86201
100 3 -0.814563 8.27329 3.28942 10.3341
107 3 -0.791199 12.5241 4.42936 8.74089
110 2 0.0168086 14.4737 2.94455 10.1149
105 3 -0.804053 9.95538 3.20378 8.11399
202 2 0.183153 13.8787 3.76163 11.9323
163 2 0.183398 11.2523 1.59479 9.63563
144 2 0.209401 7.00471 4.62085 8.72966
165 2 0.230247 9.9759 0.84114 10.7758
172 4 0.965961 16.1413 2.51737 14.1491
173 1 -0.639701 14.3871 1.67738 13.7757
174 2 0.0770892 14.454 2.58713 15.1348
175 2 0.0165769 15.908 1.09799 12.9534
176 2 0.170907 13.7453 2.24995 12.9124
184 1 -0.664953 11.0584 0.780712 15.113
178 4 1.0775 13.9181 5.57228 14.3459
180 4 1.29711 9.97907 1.69809 13.9043
181 4 1.35776 11.6874 3.99466 12.6657
205 2 0.201868 9.2281 5.17057 9.12646
185 1 -0.690844 12.9742 3.30072 11.3117
177 2 0.170562 13.7379 0.738986 14.1667
189 3 -0.818052 10.9113 2.76249 13.1624
190 3 -0.791761 12.7295 4.56042 13.8081
192 3 -0.781715 10.8476 5.22504 11.9266
263 3 -0.855111 15.6365 1.07783 8.7216
199 2 0.182351 12.0955 1.17682 15.0544
200 2 0.271469 12.7671 3.74485 10.2786
201 2 0.138958 12.8998 2.16285 11.3455
182 4 1.02824 10.6167 6.1672 10.6282
204 2 0.172094 8.06601 5.83711 10.6255
6 4 1.30698 15.969 2.42165 9.38196
249 1 -0.645019 14.1939 5.653 16.0605
188 3 -0.802819 8.77221 2.27013 14.6862
187 3 -0.791297 9.36743 0.460923 12.4601
123 2 -0.0467368 5.40178 6.31369 10.8122
237 1 -0.653884 7.8304 10.3928 0.0160416
257 2 0.128658 2.21221 10.3946 5.95365
167 2 0.175265 8.96456 6.99942 2.06166
53 1 -0.64882 8.13542 7.39192 2.66941
104 3 -0.805003 5.26725 7.32764 3.68442
134 2 0.265591 8.24381 12.8468 5.71272
125 2 -0.00740508 4.24996 8.26081 1.27706
225 2 0.171802 0.701766 12.7792 3.15891
166 2 0.0731074 7.39071 8.51584 1.98134
168 2 0.148874 8.39392 7.65542 3.74453
206 4 1.27216 9.26807 10.5218 3.98704
215 2 0.155932 5.09868 9.25771 7.02277
208 4 1.04794 7.37755 10.31 6.67721
209 1 -0.6844 5.86047 9.16875 6.25985
255 2 0.148619 2.36536 12.2336 5.29646
211 3 -0.778205 8.36819 10.5629 5.26407
212 3 -0.782373 6.72286 11.7808 7.09219
213 2 -0.00532974 8.67412 9.20422 3.0624
254 1 -0.66736 1.94365 11.1678 5.02587
216 2 0.155673 6.31254 8.14847 6.23417
217 2 0.182442 5.46836 9.45223 5.25789
230 4 1.08216 5.23794 12.8658 2.50864
234 2 0.173802 3.02389 12.8353 1.74869
67 3 -0.822711 13.122 6.646 7.3056
238 3 -0.775126 5.68805 12.1057 1.02427
240 2 0.16552 8.07482 10.4079 1.08563
38 4 1.00797 6.27856 6.75694 2.57378
233 2 0.158523 2.81763 12.4871 3.6319
258 1 -0.645829 6.00064 11.8319 3.90729
259 2 0.166337 6.59998 10.9346 3.48565
260 2 0.11696 4.85547 11.4767 4.24506
261 2 0.23132 6.49741 12.3994 4.70599
274 2 0.176965 9.31437 9.0508 7.62885
150 2 0.144314 2.74638 10.5354 0.545313
252 2 0.160223 10.3076 8.45702 1.13512
256 2 0.165892 2.18072 10.7611 4.05206
2 3 -0.824021 9.36177 11.861 3.2156
198 2 0.154071 2.58375 12.5453 14.6063
40 4 0.917055 6.019 11.5389 12.9798
108 3 -0.800701 4.78584 10.6617 12.6584
109 3 -0.795273 6.50026 11.5598 14.4404
214 2 -0.038841 4.94972 12.6576 8.8821
132 2 -0.0485205 7.2972 11.1595 12.0868
236 4 0.994277 7.47516 11.8825 15.7966
203 2 0.142496 8.56727 7.02636 9.24262
131 2 -0.0181279 5.75332 13.1499 12.4036
193 2 0.0519367 11.4113 9.68184 14.9749
218 2 0.135347 7.78327 9.12171 8.77737
194 2 0.00820204 9.72487 7.57833 10.9435
241 2 0.170732 9.99808 11.0085 15.3591
239 2 0.110881 8.14811 9.80756 15.8453
264 2 0.0546932 9.01623 12.5556 15.2398
219 2 0.176319 8.81105 10.7297 8.60499
34 4 0.995984 3.48917 9.67739 12.395
191 3 -0.817706 11.9806 6.73966 9.8027
210 1 -0.657266 8.51483 9.68838 8.14704
164 2 0.160393 1.84822 12.9994 9.08349
ITEM: TIMESTEP
200
ITEM: NUMBER OF ATOMS
274
ITEM: BOX BOUNDS xy xz yz pp pp pp
-8.3797999999999995e+00 1.8013900000000000e+01 -8.3797999999999995e+00
0.0000000000000000e+00 1.3340475600000001e+01 1.1950000000000001e+00
0.0000000000000000e+00 1.6075500000000002e+01 4.9847560000000080e-01
ITEM: ATOMS id type q x y z
119 2 -0.0149587 7.51257 1.16295 5.24993
12 4 1.31143 -0.842606 6.34 5.30492
7 4 1.08696 0.915927 2.14801 5.00992
9 4 1.25406 -0.403059 4.56557 1.84898
10 4 1.58867 0.379542 4.33848 7.24564
242 1 -0.672869 3.36803 0.24564 3.22326
21 4 0.822722 5.8457 1.41236 5.67013
26 4 1.28734 5.28866 4.24754 6.84915
41 1 -0.667417 0.6718 0.673709 6.13882
44 1 -0.674782 3.80506 3.77303 1.83106
55 3 -0.821156 1.41481 0.945711 1.18338
56 3 -0.799107 -0.424389 2.29822 3.97641
58 3 -0.796169 -1.77708 4.53969 2.69974
59 3 -0.852207 0.0147434 3.20624 0.967994
243 2 0.150052 3.75366 1.29149 3.09898
61 3 -0.790858 1.13173 3.33217 5.9786
62 3 -0.877155 -0.468491 5.42816 6.52061
74 3 -0.791663 5.6624 0.344329 7.30718
78 3 -0.8878 0.750849 5.25831 2.59553
81 3 -0.821962 5.64517 2.9196 5.9867
84 3 -0.813625 2.93314 5.86303 3.96618
85 3 -0.785566 4.6546 5.50744 5.98337
113 2 0.110197 -1.45773 5.33656 4.02284
111 2 -0.00572655 2.43131 1.77422 4.19801
112 2 -0.0180267 -0.886359 5.49252 0.524928
5 4 1.34916 0.606257 1.98864 0.247323
118 2 -0.0167877 4.48019 0.882161 4.70529
24 4 1.29294 4.75239 4.86178 0.565286
222 3 -0.791217 6.34771 1.4278 0.980946
223 2 -0.0895498 6.26619 0.932023 3.83572
141 2 0.179982 3.64869 2.70246 1.47006
142 2 0.227267 2.83983 4.35118 1.96978
143 2 0.184101 4.39862 3.82075 2.76902
220 4 1.0388 6.81034 0.424274 2.14628
135 2 0.235463 0.604257 0.968484 7.21966
25 4 1.41629 1.52141 6.46173 3.34759
267 2 0.173905 -3.67791 6.2013 0.455974
28 4 1.20163 4.07457 6.54001 4.87538
138 2 0.157034 1.34621 0.947933 12.7332
8 4 1.27364 1.84893 2.59735 11.1799
13 4 1.24862 0.391577 4.96216 12.6202
229 2 -0.0581951 3.55658 6.53607 13.2835
20 4 1.26793 4.50557 2.71924 9.36924
23 4 1.26417 6.95011 2.89671 11.2037
99 3 -0.811201 8.00026 1.15857 8.31816
226 4 0.886957 3.44307 6.38557 15.0902
42 1 -0.66719 2.29096 1.57202 12.6392
57 3 -0.82619 0.40885 2.29082 10.4874
63 3 -0.880871 -0.300001 3.90644 13.5738
64 3 -0.793685 1.8365 4.34898 12.189
65 3 -0.849648 -2.32868 6.15674 9.53858
66 3 -0.825349 -0.407146 5.36511 11.3574
73 3 -0.791417 3.07843 2.4894 10.1736
75 3 -0.853658 5.57666 3.18771 10.4394
76 3 -0.849935 7.00019 1.51181 12.0236
80 3 -0.755332 4.37175 3.81934 8.27957
27 4 1.37895 1.70716 6.55796 8.79783
137 2 0.15631 3.16895 0.956277 12.2073
114 2 -0.0473445 0.693182 6.36867 13.4636
197 2 0.172164 5.45003 1.2734 15.8609
124 2 0.118714 2.8819 5.44396 11.6869
136 2 0.1941 2.63996 2.17258 13.6344
179 4 1.31317 7.35172 2.58334 15.5531
183 1 -0.6571 5.86975 1.67719 14.7817
77 3 -0.76631 6.87823 4.13662 15.737
60 3 -0.831436 -0.51768 3.45813 8.26347
196 2 0.172797 5.12653 2.20506 14.1286
117 2 0.0708914 5.05979 1.33351 8.55733
227 3 -0.833951 4.77963 5.94391 15.7646
195 2 0.249244 6.40809 0.826759 14.1966
245 1 -0.67676 3.16565 3.30775 15.2301
246 2 0.169676 2.78833 3.65966 14.2107
247 2 0.177312 4.0897 2.61365 15.1041
262 3 -0.811243 0.625826 1.8674 15.1429
228 2 -0.0301696 2.31638 5.13661 15.0874
14 4 1.51443 -1.04702 6.64771 10.3869
82 3 -0.777428 1.559 5.09105 8.14244
266 2 0.0850167 -1.45017 4.84204 15.7615
123 2 -0.0401066 5.37733 6.19175 10.8478
248 2 0.175927 3.34121 4.16011 16.0098
253 2 0.176998 -4.89851 7.81928 0.0923235
3 3 -0.811366 -6.05195 11.3562 1.02149
268 2 0.192935 -5.15459 8.76825 1.67949
16 4 1.47107 -3.22796 7.91577 6.57218
17 4 1.25824 -4.5336 9.90444 4.90404
154 2 0.178322 0.887062 9.3282 7.60679
161 2 0.197776 -1.09866 10.1044 0.291777
31 4 1.29673 -1.92188 10.3745 3.15988
33 4 1.11729 0.256357 10.8749 5.61844
48 1 -0.638872 -1.22914 8.98728 2.04151
49 1 -0.648544 0.104049 9.27473 6.75454
272 2 0.172459 0.708465 10.257 0.345468
68 3 -0.835956 -1.94374 7.44305 5.65263
251 1 -0.673641 -5.49378 8.56694 0.641382
70 3 -0.814454 -4.42355 8.45341 5.61977
79 3 -0.838266 0.45244 7.08936 4.6644
87 3 -0.801409 1.80236 7.73044 2.2652
30 4 1.03431 2.33079 8.15899 0.837758
89 3 -0.785151 -1.97098 11.7612 2.0984
90 3 -0.821244 -3.39473 10.1557 3.76829
93 3 -0.790784 -0.842208 10.6389 4.29013
94 3 -0.809726 -0.247254 11.9429 6.61478
115 2 -0.0114474 -4.13917 11.0341 6.11408
147 2 0.190533 1.84811 7.40209 6.44825
151 2 0.188462 -0.0984219 9.42594 1.5965
152 2 0.172308 -2.03126 8.81603 1.21979
153 2 0.194935 -1.17431 8.13599 2.84143
271 2 0.168346 1.57212 10.252 2.11286
155 2 0.263143 0.189069 8.43427 5.98989
156 2 0.271929 -0.966697 9.32879 7.12325
46 1 -0.67161 2.38815 7.72788 7.41843
148 2 0.172946 3.48535 7.45487 7.38166
133 2 0.151664 -6.78356 12.9 5.90467
19 4 1.34806 -1.24441 12.593 7.84037
1 4 1.29554 -6.53021 12.5304 2.06189
69 3 -0.857043 -5.91757 10.3387 4.35118
91 3 -0.823417 -2.75344 9.38728 7.70804
122 2 -0.00550832 3.33051 7.87813 5.69737
47 1 -0.632453 1.70761 9.99915 0.940316
149 2 0.153747 2.20395 8.8406 7.66463
265 2 0.19934 -4.34632 12.18 2.57497
244 2 0.144899 -5.34692 12.8711 4.29477
159 2 0.207454 1.0387 9.68826 12.0929
18 4 1.27221 -1.9495 8.29315 12.8741
22 4 1.25666 -0.624061 12.977 12.0818
32 4 0.928954 -2.59379 10.3262 8.96236
35 4 1.29337 -1.32834 10.8959 14.2302
50 1 -0.680314 1.86765 10.4059 11.9465
160 2 0.169501 1.13987 10.6924 14.7735
158 2 0.240039 1.63388 11.504 12.3229
51 1 -0.642146 0.251803 11.1097 15.3448
162 2 0.203937 0.335567 12.1955 15.4658
72 3 -0.846796 -1.44729 7.93153 11.4233
83 3 -0.789535 0.2457 7.08253 9.42929
88 3 -0.798355 2.84221 7.83262 15.6521
92 3 -0.830368 -1.42542 11.421 9.12559
95 3 -0.809071 3.87907 8.23248 11.7714
96 3 -0.821744 -1.07871 9.35104 13.6562
97 3 -0.881325 -1.22386 12.0141 13.1107
98 3 -0.787798 -2.63944 10.9049 15.3243
116 2 -0.0311199 -3.47178 8.92055 12.5971
120 2 0.0640122 -0.724684 12.2602 10.561
126 2 0.0333507 -2.37418 9.28815 10.2541
127 2 -0.0584151 -4.06533 11.0631 9.38929
128 2 0.029163 2.30149 9.48901 13.6416
139 2 0.151967 -4.57371 11.4355 13.4058
140 2 0.16755 -5.65766 12.0079 14.78
43 1 -0.656926 -5.44754 11.1256 14.0462
71 3 -0.865507 -2.39338 6.9978 13.5932
157 2 0.148899 2.19669 10.4298 10.7522
15 4 1.06223 -4.09885 10.8156 16.046
29 4 0.945986 3.86489 6.79661 11.1539
86 3 -0.791805 2.88238 6.73475 9.9643
235 2 0.171881 11.5013 1.36763 3.04711
37 4 1.28795 12.9892 2.14919 5.74655
221 1 -0.66062 8.67946 0.541021 2.0677
39 4 1.25824 11.1344 3.91411 7.39061
45 1 -0.651056 7.10621 4.73934 7.2534
54 1 -0.671594 10.6816 5.52475 6.53982
101 3 -0.84043 13.9373 3.06443 4.82833
102 3 -0.854705 13.7796 1.23639 6.82651
250 2 0.175914 12.0711 4.47248 0.391593
4 4 1.43479 14.8622 2.7875 3.57981
106 3 -0.831622 11.7835 2.89379 6.37578
232 3 -0.81426 14.1617 1.66041 2.65924
129 2 0.000113659 12.2405 1.07378 4.55071
130 2 0.0505075 7.6538 5.6837 3.06034
169 2 0.204293 10.7071 6.3148 7.32531
207 4 1.28448 14.5112 0.342358 7.85625
146 2 0.22033 7.69059 3.7475 7.09376
103 3 -0.794983 5.53778 6.05209 1.35527
145 2 0.15797 7.48213 5.61013 6.58811
170 2 0.164554 9.64384 5.35923 6.14401
171 2 0.226756 11.3587 5.82323 5.72057
134 2 0.222798 16.487 0.248251 5.74459
224 2 0.184764 8.87002 1.198 1.17198
231 1 -0.674008 11.7678 0.320072 2.79103
225 2 0.118283 8.80904 1.05813 3.15194
230 4 1.10398 13.6991 0.125478 2.39824
105 3 -0.815078 9.71355 3.2595 8.02842
234 2 0.168399 11.2761 0.18099 1.79013
11 4 1.48724 13.0733 5.98843 8.87203
36 4 1.34475 9.00251 2.1974 9.01096
52 1 -0.669888 10.3853 1.04871 9.6838
186 1 -0.675534 9.06685 6.27508 9.84543
100 3 -0.839856 8.20529 2.85009 10.2819
107 3 -0.775345 12.5175 4.33524 8.70884
110 2 0.0185567 14.5929 2.88344 10.2205
121 2 -0.00735999 7.25761 4.18237 12.248
202 2 0.160712 14.0427 3.68466 11.9155
163 2 0.172118 11.3787 1.52238 9.62738
144 2 0.175581 7.05786 4.98814 8.37252
165 2 0.236572 9.97536 0.76712 10.8045
172 4 1.0335 16.2741 2.48521 14.2554