ITEM: TIMESTEP
0
ITEM: NUMBER OF ATOMS
274
ITEM: BOX BOUNDS xy xz yz pp pp pp
-8.3797999999999995e+00 1.8013900000000000e+01 -8.3797999999999995e+00
0.0000000000000000e+00 1.3273200000000001e+01 1.1950000000000001e+00
0.0000000000000000e+00 1.6075500000000002e+01 4.3120000000000003e-01
ITEM: ATOMS id type q x y z
223 2 -0.0880184 6.20788 1.12032 3.97541
12 4 1.31231 -0.852778 6.31033 5.14239
7 4 1.09862 1.1888 1.94505 5.25396
9 4 1.2431 -0.587267 4.28437 1.9825
10 4 1.58004 0.31892 4.21157 7.17535
220 4 0.97626 6.80147 0.602109 2.30808
21 4 0.825056 5.62904 1.61539 5.79813
26 4 1.36019 5.21156 4.539 6.94654
5 4 1.29927 0.315401 1.63644 0.169882
44 1 -0.669806 3.56886 3.75201 1.52203
55 3 -0.801687 0.97424 0.38021 1.06253
56 3 -0.823453 -0.181187 1.993 4.36162
58 3 -0.840752 -1.64118 4.17433 3.06371
59 3 -0.799538 0.0273111 2.99848 1.05569
243 2 0.147438 2.91593 1.05559 2.49968
61 3 -0.767563 1.34274 3.13969 6.25126
62 3 -0.866212 -0.426274 5.20071 6.21926
74 3 -0.785922 5.32435 0.569901 7.27937
78 3 -0.857569 0.652084 5.22662 2.30227
81 3 -0.825644 5.5015 3.19236 6.08857
84 3 -0.812141 2.76422 5.8548 3.9298
85 3 -0.828737 4.34905 5.58407 6.06663
222 3 -0.787296 6.22731 1.77675 1.07673
111 2 0.00762461 2.63952 1.76221 4.21668
112 2 0.00182706 -1.44286 5.20914 0.734009
24 4 1.2943 4.66237 4.91072 0.453381
118 2 0.0149644 4.44264 0.96947 4.5045
113 2 0.0877809 -1.91553 5.5655 4.00398
143 2 0.208429 3.87755 3.92339 2.5998
135 2 0.240101 0.658323 0.755714 7.28267
141 2 0.161534 3.93474 2.71757 1.08638
142 2 0.232622 2.49946 4.01472 1.30593
119 2 -0.00748305 7.35284 1.4227 5.41419
41 1 -0.670709 1.4065 0.546165 6.49691
60 3 -0.830073 -0.740575 3.27738 8.03466
250 2 0.149126 -3.12236 5.50481 0.812217
242 1 -0.664713 3.31387 0.208334 3.30498
133 2 0.176491 2.50848 0.476698 6.83713
25 4 1.39124 1.38466 6.36962 3.22545
28 4 1.20636 3.78717 6.53921 4.97721
138 2 0.183752 2.43424 2.02094 13.3474
8 4 1.26335 1.79954 2.70054 11.0003
13 4 1.21696 0.123784 4.98905 12.5298
117 2 0.0938267 4.93267 1.6886 8.45387
20 4 1.32096 4.60511 3.01354 9.42447
23 4 1.25174 7.12813 3.0385 11.2414
29 4 0.976631 3.65286 6.34739 11.1184
136 2 0.152476 2.78515 0.781987 11.8908
42 1 -0.69052 2.03821 1.52475 12.3664
57 3 -0.802517 0.398636 2.50278 10.2152
63 3 -0.860646 -0.549812 3.94813 13.5295
64 3 -0.793737 1.57159 4.38956 12.0344
65 3 -0.859501 -2.65946 5.96592 9.47057
66 3 -0.842248 -0.969337 5.33569 11.3891
73 3 -0.796255 3.11272 2.74006 10.0173
75 3 -0.867426 5.63599 3.08498 10.532
76 3 -0.873603 7.37298 1.69625 11.9975
195 2 0.251209 6.37195 1.60885 13.8155
227 3 -0.835694 4.77723 6.23584 15.8567
14 4 1.4653 -1.42757 6.51547 10.3872
114 2 -0.0316296 0.334236 6.404 13.4192
82 3 -0.785052 1.38442 5.01079 8.195
124 2 0.0555923 3.13165 5.12738 12.0693
27 4 1.36423 1.38696 6.42018 8.99142
179 4 1.25483 7.4081 2.69202 15.6741
183 1 -0.660591 6.08556 1.64683 14.9211
99 3 -0.81237 7.98461 1.29526 8.34648
123 2 -0.000707439 5.06274 5.52462 10.6376
77 3 -0.730657 6.75888 4.49168 15.4743
228 2 -0.0488074 2.18295 6.50192 15.0846
80 3 -0.82841 4.7341 4.22186 8.44127
267 2 0.164574 -1.08213 5.45889 15.2051
245 1 -0.657026 3.06043 2.67752 15.2325
246 2 0.165531 2.53623 3.36341 14.4682
247 2 0.156753 3.37636 1.61825 14.8903
262 3 -0.839404 0.338496 1.80749 15.0908
137 2 0.147037 1.01979 1.00622 12.5037
196 2 0.170991 4.99814 2.06433 15.0908
86 3 -0.819671 2.59502 6.53669 9.97653
197 2 0.220886 6.2034 0.651248 15.463
249 1 -0.692796 -1.99915 5.35838 15.9505
248 2 0.172377 3.79879 3.1781 16.0086
1 4 1.2911 -6.60182 12.0505 1.84638
3 3 -0.809634 -5.89659 11.0414 0.782521
122 2 -0.000396144 2.87966 7.82969 5.72131
16 4 1.48326 -2.96555 8.39069 6.82688
17 4 1.26166 -4.52706 10.1049 4.46407
265 2 0.167135 -4.46554 12.1983 2.73824
79 3 -0.848377 0.290467 7.02001 4.39413
31 4 1.30921 -1.98202 10.5041 2.95171
33 4 1.15276 -0.123863 11.1263 5.46719
48 1 -0.678262 -0.897336 9.11358 2.1274
49 1 -0.640163 0.25319 9.67924 6.54958
148 2 0.196556 3.17862 6.97365 7.32302
68 3 -0.789791 -1.70832 7.51074 5.83731
19 4 1.30723 -1.36102 12.9285 7.78501
70 3 -0.774812 -3.89548 9.34266 5.74483
30 4 1.04395 2.45461 8.87236 1.22258
87 3 -0.76693 1.80839 7.94342 2.24934
154 2 0.123588 1.36917 9.54541 6.02041
89 3 -0.800205 -1.97137 11.9174 2.1049
90 3 -0.802626 -3.41837 9.93335 3.27046
93 3 -0.806922 -1.24337 10.8374 4.41108
94 3 -0.807462 -0.531441 12.2884 6.55241
115 2 -0.0150246 -4.54474 11.7543 4.7525
147 2 0.195383 1.36089 7.4036 6.80073
151 2 0.203985 0.107236 9.56267 1.79625
152 2 0.163955 -1.53067 8.86817 1.27758
153 2 0.22644 -0.782655 8.23568 2.81546
161 2 0.170504 -0.762782 10.1416 0.362016
155 2 0.291973 -0.461427 8.8287 6.30135
156 2 0.205237 0.322579 9.87805 7.66639
271 2 0.168429 0.795931 10.8466 0.657652
244 2 0.123736 -5.90783 12.5368 3.98611
91 3 -0.847192 -2.27187 9.50832 7.79527
67 3 -0.83814 -3.85018 7.34372 7.59743
134 2 0.202876 -7.27073 12.467 5.8981
149 2 0.153027 2.39743 8.60884 7.93876
46 1 -0.651879 2.1831 7.5311 7.55546
252 2 0.153208 -4.48647 7.86819 0.527812
15 4 1.11752 -4.01876 10.415 15.8518
18 4 1.1898 -2.20271 8.60923 12.8831
139 2 0.150197 -5.66748 11.229 14.5036
32 4 1.0069 -2.31737 10.4726 8.97409
35 4 1.20146 -1.18073 10.9435 14.4008
71 3 -0.835537 -2.52324 7.40172 13.8774
160 2 0.177758 1.16295 10.8968 14.6334
50 1 -0.654653 2.45202 10.5114 12.391
51 1 -0.653994 0.416519 11.2518 15.4169
22 4 1.25023 -0.440099 13.1006 12.3316
72 3 -0.795087 -2.05715 8.16276 11.3361
83 3 -0.824408 -0.164178 6.9757 9.52352
157 2 0.194404 1.59843 9.83784 12.1464
92 3 -0.80741 -1.43341 11.6823 9.24778
95 3 -0.798255 4.0148 7.5889 11.9465
96 3 -0.741171 -0.838793 9.4222 13.3038
97 3 -0.814844 -1.35055 12.2596 13.3082
98 3 -0.796608 -2.43428 10.6894 15.3706
116 2 -0.0162265 -3.61798 9.60143 12.9904
120 2 0.0696406 -0.645058 12.3346 10.8648
126 2 0.0856884 -2.26323 9.45446 10.385
127 2 -0.0434052 -3.88809 10.9228 9.30313
229 2 0.0494711 4.04164 7.19183 13.5661
162 2 0.201231 0.519971 12.3649 15.6051
88 3 -0.799773 3.6479 8.61857 15.7648
269 2 0.126406 -4.66868 10.5728 13.0575
43 1 -0.665903 -5.07937 10.2867 14.1449
226 4 0.978948 3.77668 7.18297 15.2042
233 2 0.16585 12.1648 1.95312 1.83796
37 4 1.27458 13.2417 1.57183 5.92713
224 2 0.172877 8.88239 1.51774 1.33193
39 4 1.30109 11.2294 3.78234 6.98044
45 1 -0.671516 6.95458 5.38392 7.20889
54 1 -0.668094 10.7855 4.62805 5.34977
101 3 -0.794813 14.2347 2.60601 5.13261
102 3 -0.874349 13.9467 0.756489 7.01881
103 3 -0.759913 5.62216 5.80827 1.71597
225 2 0.10078 8.83722 1.08791 3.17929
106 3 -0.807067 12.0058 2.45219 6.49765
231 1 -0.661688 11.9744 0.833682 1.79512
129 2 -0.0142211 12.4462 0.429868 4.86643
273 2 0.17509 9.44374 0.449524 0.179499
4 4 1.41412 15.1839 2.37589 3.88348
130 2 0.0367598 7.2552 5.34589 3.98849
221 1 -0.65902 8.62353 0.680856 2.05613
232 3 -0.788476 14.4608 1.08463 2.89157
169 2 0.161016 9.67619 4.66676 5.48082
170 2 0.172626 11.1157 3.9184 4.54354
171 2 0.198871 11.3028 5.64 5.37475
235 2 0.178341 11.5596 0.569197 0.784418
146 2 0.213124 7.63194 4.51778 7.44039
167 2 0.161234 8.9237 6.39243 2.87566
145 2 0.158268 7.27224 5.95584 6.27156
105 3 -0.768212 9.67742 3.40141 8.03757
107 3 -0.766484 12.0911 4.73142 7.82203
234 2 0.143493 11.3115 0.566623 2.68968
266 2 0.167082 13.2863 3.8909 0.0625959
11 4 1.51131 12.8319 6.18258 8.70993
36 4 1.34535 9.05672 2.40009 9.04481
52 1 -0.679731 10.5095 1.5441 9.84431
184 1 -0.671362 11.0445 0.785497 15.1418
100 3 -0.817172 8.32392 3.28236 10.1697
201 2 0.145103 13.0093 2.32264 11.4164
110 2 0.0359434 14.5755 3.13631 10.2071
121 2 0.00480071 7.22838 4.26405 12.4654
6 4 1.31325 15.864 2.43868 9.3228
163 2 0.18501 11.322 2.31736 10.0701
175 2 0.0223593 16.0124 1.40087 12.5673
165 2 0.202979 10.1197 1.1194 10.8018
191 3 -0.81936 11.5839 6.61101 9.76904
173 1 -0.634297 14.4585 1.49951 13.5968
174 2 0.0961253 14.3275 2.13152 14.9759
202 2 0.206723 14.0342 3.95864 12.0558
176 2 0.15726 13.9798 2.21405 12.7328
182 4 1.08714 10.4697 6.30058 10.7634
178 4 1.07699 13.6864 6.18252 14.6687
180 4 1.21244 10.085 1.71635 13.8692
181 4 1.27663 11.7811 4.20583 12.6696
199 2 0.170815 12.0862 1.15116 15.0656
185 1 -0.683437 13.0756 3.49066 11.4436
263 3 -0.830504 15.4259 0.89222 9.22543
189 3 -0.796676 11.0281 2.89195 13.2153
190 3 -0.765903 12.8037 5.21845 13.8426
192 3 -0.803082 10.8116 5.23564 11.8847
203 2 0.220382 8.95825 5.36864 9.40438
164 2 0.158348 10.8865 0.717025 9.1308
200 2 0.200678 12.743 4.07482 10.5227
188 3 -0.766894 8.68292 2.3837 14.7114
172 4 1.0573 16.1581 2.48628 14.0558
186 1 -0.660674 8.65546 6.43496 10.0159
205 2 0.158035 7.79877 6.36276 10.7136
177 2 0.165017 13.883 0.481562 13.6417
193 2 0.00927188 12.7719 6.83767 15.9755
144 2 0.170147 6.81436 6.07418 8.05794
251 1 -0.642465 11.2354 8.26201 0.604228
2 3 -0.840938 9.29938 11.2857 2.85365
219 2 0.183798 9.40775 8.81712 7.33777
53 1 -0.644755 8.04492 6.86797 3.42064
104 3 -0.779593 5.0843 7.30487 4.06883
261 2 0.169823 5.355 11.7791 4.91712
125 2 0.000695414 4.0955 9.08421 1.51847
255 2 0.163565 1.05441 12.4605 3.54134
166 2 0.0596413 7.38365 7.92809 2.34615
168 2 0.164059 8.42345 7.34152 4.32692
206 4 1.24646 9.3741 10.0979 3.88156
272 2 0.161471 2.62566 11.1915 0.869429
208 4 1.07225 7.63098 10.2015 6.5895
209 1 -0.654456 5.96495 9.55878 5.87584
38 4 1.00553 6.13356 6.51396 3.04481
211 3 -0.798178 8.57357 10.3986 5.24637
212 3 -0.79923 7.30899 11.5881 7.47699
213 2 0.00670609 8.62952 8.70177 3.1285
215 2 0.145279 5.88547 8.65045 6.59206
216 2 0.205401 5.98059 9.27366 4.74947
217 2 0.148694 5.19904 10.3493 6.11073
47 1 -0.673452 1.75424 10.6643 1.35776
260 2 0.145551 3.53897 11.6967 4.16139
270 2 0.165094 0.787359 12.409 1.80067
238 3 -0.724315 5.71823 11.7624 1.05154
240 2 0.198347 8.27442 10.1143 1.10824
257 2 0.154316 2.04835 12.4712 5.16096
259 2 0.159426 4.95291 10.7195 3.3773
258 1 -0.679354 4.72426 11.6459 3.97402
150 2 0.152234 1.59583 11.1254 2.53196
254 1 -0.682695 1.50915 11.8251 4.4269
230 4 1.08458 5.11079 12.7674 2.43683
210 1 -0.666719 8.34917 8.76711 7.8169
256 2 0.140085 2.07649 10.9273 4.07839
253 2 0.196233 10.8161 8.28339 1.68478
274 2 0.153805 7.84233 7.77351 7.72063
237 1 -0.682523 7.90148 9.90546 0.0932962
239 2 0.151216 7.16749 8.99565 0.115177
69 3 -0.854186 10.8415 9.63762 4.05362
207 4 1.24226 6.38892 12.7763 8.02705
128 2 0.116676 3.02991 10.2021 13.6766
40 4 0.93269 6.60047 11.3973 12.829
108 3 -0.810254 5.40925 10.4446 12.5287
109 3 -0.792677 7.08869 11.4136 14.2642
214 2 -0.0323939 5.11922 12.0433 8.75486
132 2 -0.0348381 7.89409 10.9921 11.8827
131 2 -0.0112935 6.3619 12.9981 12.1772
159 2 0.254667 2.00426 11.6007 12.425
198 2 0.176482 2.57072 12.5352 14.757
264 2 0.0721428 9.3927 12.2538 15.7663
241 2 0.159124 9.97672 10.3381 15.3088
194 2 0.000532982 9.51047 7.63826 11.2636
204 2 0.168936 8.54129 7.30574 9.18346
236 4 1.00123 7.77558 11.6007 15.7731
34 4 0.892469 4.12177 9.58295 12.2264
158 2 0.0304919 3.37947 10.5301 10.7956
218 2 0.156138 8.33574 9.089 8.87277
268 2 0.133001 11.6655 8.38213 15.8025
140 2 0.13868 11.0767 9.38014 14.1003
187 3 -0.803994 1.12687 13.0854 12.7499
ITEM: TIMESTEP
100
ITEM: NUMBER OF ATOMS
274
ITEM: BOX BOUNDS xy xz yz pp pp pp
-8.3806037749999991e+00 1.8013900000000000e+01 -8.3806037749999991e+00
0.0000000000000000e+00 1.3273200000000001e+01 1.1950000000000001e+00
0.0000000000000000e+00 1.6075500000000002e+01 4.3120000000000003e-01
ITEM: ATOMS id type q x y z
223 2 -0.0968251 6.42224 1.07162 3.92019
12 4 1.29358 -0.926602 6.20072 5.24805
7 4 1.09768 1.20518 1.9559 5.28917
9 4 1.27388 -0.56539 4.29631 1.80049
10 4 1.57283 0.40914 4.1695 7.20362
220 4 1.00971 6.82664 0.585071 2.24274
21 4 0.861931 5.87148 1.68078 5.65506
26 4 1.217 5.25733 4.66116 6.92835
5 4 1.34291 0.206132 1.74397 0.221814
44 1 -0.675552 3.65938 3.45447 1.456
55 3 -0.773288 1.1407 0.542164 1.02079
56 3 -0.818438 -0.135802 2.02462 4.45403
58 3 -0.820335 -1.57546 4.00851 2.9393
59 3 -0.847834 -0.222399 2.92762 1.16882
243 2 0.146588 2.98785 1.16074 2.59476
61 3 -0.808506 1.42132 3.16691 6.31853
62 3 -0.862621 -0.221204 5.30007 6.32208
74 3 -0.787347 5.78309 0.639774 7.23257
78 3 -0.836732 0.775041 5.13413 2.15948
81 3 -0.791822 5.56418 3.10753 5.96952
84 3 -0.805947 2.67173 5.79238 4.02044
85 3 -0.80905 4.41897 5.61923 6.07802
222 3 -0.754047 6.2947 1.74061 1.15064
111 2 0.00254167 2.61025 1.67804 4.29658
112 2 -0.0143243 -1.44555 5.32803 0.763499
24 4 1.23128 4.78923 4.75864 0.657243
118 2 0.0104826 4.77151 0.817122 4.44013
113 2 0.0686482 -1.88186 5.21489 4.26309
143 2 0.20522 3.96755 3.55497 2.52752
25 4 1.40468 1.34312 6.32408 3.19139
141 2 0.184993 3.81908 2.41593 1.00721
142 2 0.205074 2.62696 4.01703 1.24368
119 2 -0.0107926 7.4992 1.65947 5.28082
41 1 -0.688585 1.07024 0.285767 6.1233
28 4 1.22371 3.64784 6.50251 5.03669
250 2 0.156784 -3.16252 5.70816 0.700378
242 1 -0.649391 3.44054 0.204477 3.31303
133 2 0.164159 1.88057 0.29602 6.83787
138 2 0.168125 2.52496 2.04897 13.3845
8 4 1.27716 1.84244 2.73844 11.0351
13 4 1.25102 0.184315 4.95007 12.3742
117 2 0.0576615 4.89115 1.78827 8.29046
20 4 1.26283 4.5816 3.00898 9.35796
23 4 1.27608 7.14089 2.99612 11.1836
29 4 0.973046 3.61382 6.31645 11.2779
136 2 0.160447 3.19026 0.972972 11.7588
42 1 -0.659925 2.25702 1.43942 12.3175
57 3 -0.837124 0.449149 2.28983 10.3152
63 3 -0.853435 -0.386842 3.85816 13.4261
64 3 -0.812245 1.58855 4.45974 12.0089
65 3 -0.82485 -2.58679 5.89273 9.26027
66 3 -0.838421 -0.951573 5.28294 11.2142
73 3 -0.809697 3.19116 2.82812 10.1931
75 3 -0.849773 5.82745 3.11351 10.392
76 3 -0.870564 7.28803 1.67335 12.0434
195 2 0.243452 6.15129 1.43284 13.9136
227 3 -0.764643 4.94126 6.30057 15.7895
14 4 1.46311 -1.4617 6.50937 10.277
114 2 -0.0274051 0.476059 6.35894 13.232
82 3 -0.768506 1.21376 5.09917 8.37753
124 2 0.0574772 3.02948 5.22979 12.3567
27 4 1.35835 1.35267 6.55185 9.09956
179 4 1.27936 7.32845 2.68235 15.6727
183 1 -0.682278 5.87644 1.67457 14.9881
99 3 -0.854931 8.09132 1.2999 8.38146
123 2 0.0324125 4.84071 5.58414 10.4488
77 3 -0.771685 6.95066 4.22996 15.765
228 2 -0.0535256 2.37125 6.54416 15.1774
80 3 -0.760552 4.52209 4.35454 8.66936
267 2 0.168191 -1.09793 5.45318 15.1586
245 1 -0.662259 2.87751 2.82305 15.1881
246 2 0.161506 2.3265 3.5328 14.4808
247 2 0.176233 3.24081 1.87596 14.7777
262 3 -0.808602 0.3509 1.65792 15.2077
137 2 0.168779 1.38143 0.755642 12.4994
196 2 0.17511 4.81236 2.12654 15.1232
86 3 -0.80361 2.44073 6.51615 10.3235
197 2 0.217505 5.98881 0.733614 15.6338
249 1 -0.685858 -1.97904 5.52441 15.8517
248 2 0.167929 3.66685 3.26176 16.0452
60 3 -0.821278 -0.675921 3.27287 8.13011
1 4 1.21091 -6.57076 12.1897 1.9087
3 3 -0.770212 -5.70586 11.0658 0.790262
122 2 -0.0126789 2.90071 7.78155 5.95242
16 4 1.4953 -3.03035 8.63292 6.74895
17 4 1.26371 -4.61244 9.92945 4.41669
265 2 0.171876 -4.39424 12.1972 2.6391
79 3 -0.850808 0.146116 6.84071 4.26818
31 4 1.2033 -2.10116 10.5999 2.95415
33 4 1.14309 -0.139036 11.1012 5.48143
48 1 -0.646445 -1.04211 9.17713 2.18025
49 1 -0.64407 0.259804 9.48829 6.30873
148 2 0.160605 3.20425 7.5439 7.93384
68 3 -0.771067 -1.88353 7.35928 5.94288
19 4 1.41528 -1.18333 12.9209 7.86564
70 3 -0.838069 -4.03411 9.28702 5.73471
30 4 1.03707 2.59611 8.83618 1.25236
87 3 -0.75784 1.84929 7.77032 2.20894
154 2 0.14553 1.19242 9.25838 5.6393
89 3 -0.763951 -2.08578 12.0548 1.79004
90 3 -0.801975 -3.52485 9.82281 3.18052
93 3 -0.828464 -1.15985 10.8939 4.27073
94 3 -0.814048 -0.479041 12.2516 6.6139
115 2 -0.0155671 -4.56481 11.6932 4.68075
147 2 0.189544 1.60128 7.35148 6.86444
151 2 0.197688 -0.0114369 9.6165 1.81015
152 2 0.176894 -1.78557 8.93381 1.38149
153 2 0.228462 -0.946754 8.29856 2.88357
161 2 0.188156 -0.94674 10.2762 0.478492
155 2 0.28138 -0.569806 8.68414 6.19712
156 2 0.189794 0.514239 9.77217 7.36973
271 2 0.17288 0.762333 10.6684 0.601894
244 2 0.107623 -5.85948 12.6626 4.05309
91 3 -0.842888 -2.22188 9.70709 7.60159
67 3 -0.809058 -3.88621 7.60551 7.64392
134 2 0.204703 -7.29752 12.2557 5.40281
252 2 0.175228 -4.42432 7.87223 0.431303
46 1 -0.665687 2.08415 7.81575 7.75412
149 2 0.168078 1.77743 8.88721 7.99925
15 4 1.18059 -3.92308 10.4258 15.8578
18 4 1.14089 -2.24592 8.60432 12.925
159 2 0.24294 1.7382 11.5203 12.5627
32 4 0.94558 -2.3599 10.3929 9.02767
35 4 1.20501 -1.07029 10.9538 14.205
71 3 -0.824244 -2.48089 7.34969 13.9087
160 2 0.15957 1.19548 10.7381 14.7932
50 1 -0.645733 2.17057 10.4021 12.4207
51 1 -0.633517 0.340989 11.2507 15.4611
22 4 1.23508 -0.459438 13.0908 12.1668
72 3 -0.787998 -2.18181 7.96254 11.333
83 3 -0.809887 -0.178157 7.13474 9.51584
157 2 0.197807 1.40531 9.58055 12.1642
92 3 -0.80238 -1.37473 11.626 9.27628
95 3 -0.779854 4.06642 7.6813 11.9437
96 3 -0.765358 -0.85242 9.49041 13.2736
97 3 -0.847153 -1.17716 12.2795 13.2986
98 3 -0.778809 -2.53298 10.5111 15.2743
116 2 -0.0287098 -3.59846 9.60203 12.9878
120 2 0.0642636 -0.68164 12.29 10.7418
126 2 0.0753922 -2.06371 9.22188 10.2499
127 2 -0.0593938 -3.92294 10.7768 9.40605
229 2 0.0628384 4.16055 7.45737 13.4992
162 2 0.214404 0.358878 12.4037 15.4914
88 3 -0.802357 3.72405 8.65561 15.8549
269 2 0.168075 -4.3624 11.2563 13.536
43 1 -0.668442 -4.96339 10.5526 14.1284
226 4 0.92945 3.81445 7.26517 15.1975
128 2 0.084251 2.90559 9.98215 13.8886
233 2 0.172684 12.2417 2.03196 1.97543
37 4 1.27822 13.1739 1.53077 5.92181
224 2 0.188463 8.87714 1.42329 1.32201
39 4 1.31123 11.2637 3.77472 7.09596
45 1 -0.677149 6.92824 5.44596 7.19399
54 1 -0.651643 10.7832 4.76283 5.50319
101 3 -0.830193 14.0569 2.54463 5.05411
102 3 -0.872303 13.8579 0.685401 7.03411
103 3 -0.757034 5.59092 5.69876 1.92235
225 2 0.116099 8.96138 0.917426 3.10825
106 3 -0.791861 11.96 2.34219 6.60116
231 1 -0.674935 11.9883 0.951357 1.90998
129 2 -0.0104924 12.4093 0.417082 4.84984
273 2 0.186291 9.59521 0.456873 0.218555
4 4 1.43549 15.1922 2.37728 3.8719
130 2 0.0802661 7.67127 5.54956 3.9042
221 1 -0.677126 8.72482 0.546993 2.03534
232 3 -0.797499 14.6591 1.1176 2.84065
169 2 0.191127 9.71258 4.9712 5.67177
170 2 0.171398 11.0289 4.02352 4.70356
171 2 0.203398 11.4043 5.67103 5.41147
235 2 0.186943 11.6262 0.634726 0.938749
146 2 0.196848 7.65721 4.61017 6.91371
135 2 0.245367 16.8953 0.382754 6.69281
145 2 0.167706 7.02885 6.38229 6.51259
105 3 -0.775553 9.8421 3.4228 7.61248
107 3 -0.799411 12.2607 4.94206 7.91105
234 2 0.156666 11.2416 0.600322 2.67068
11 4 1.55753 12.8374 6.26261 8.59986
36 4 1.28048 9.05914 2.36149 8.97124
52 1 -0.684256 10.4073 1.26525 9.87015
184 1 -0.660223 11.1904 0.827285 15.153
100 3 -0.823408 8.3439 3.26195 10.1252
201 2 0.137311 13.2597 2.47085 11.0551
110 2 0.0367768 14.7008 3.09868 10.2947
121 2 -0.00987662 7.15373 4.38038 12.2289
6 4 1.33571 16.0089 2.37762 9.39049
163 2 0.170474 11.302 1.87924 9.85525
175 2 0.034224 15.8779 1.27002 12.7878
165 2 0.249161 10.0583 0.949485 10.9701
191 3 -0.823986 11.6564 6.64339 9.74188
173 1 -0.651696 14.2863 1.69932 13.6158
174 2 0.0704755 14.2373 2.56163 14.9544
202 2 0.214625 13.9052 4.12181 11.6983
176 2 0.174175 13.8356 2.33017 12.7775
182 4 1.08927 10.5426 6.16713 10.7065
178 4 1.02903 13.5766 6.173 14.5743
180 4 1.22966 10.0583 1.65131 13.9571
181 4 1.33392 11.8104 4.19938 12.7314
199 2 0.178834 12.165 1.39991 14.9823
185 1 -0.699287 13.0579 3.53552 11.2954
263 3 -0.826886 15.5069 0.891296 9.0137
189 3 -0.762813 10.9641 2.94465 13.3547
190 3 -0.820455 12.6498 5.04523 13.7282
192 3 -0.8152 10.8014 5.12203 11.8209
203 2 0.190192 8.79091 5.43973 9.51226
164 2 0.169457 10.485 0.372627 9.20939
200 2 0.209387 12.5894 4.06478 10.4383
188 3 -0.758565 8.87991 2.20046 14.8527
172 4 0.98207 16.0364 2.49905 14.1279
186 1 -0.654556 8.68635 6.55019 10.1338
205 2 0.157837 8.00782 6.45551 11.0029
177 2 0.174466 13.7231 0.769524 13.7778
144 2 0.181127 6.91869 5.62527 8.3054
187 3 -0.802694 9.5403 0.352545 12.5023
266 2 0.147118 14.419 4.49646 15.9428
251 1 -0.66124 11.3714 8.29121 0.641502
2 3 -0.847323 9.24335 11.4198 2.90978
219 2 0.191728 9.27448 8.93887 7.96653
53 1 -0.653537 8.09776 7.03389 3.31495
104 3 -0.75102 5.04893 7.11661 4.17845
261 2 0.159381 5.32591 12.0178 4.80103
125 2 -0.0194268 4.14672 8.86527 1.93117
255 2 0.163008 1.16755 12.1783 3.45835
166 2 0.0172681 7.01285 8.11419 2.28587
168 2 0.171198 8.34361 7.71609 4.16685
206 4 1.22109 9.35343 10.1092 3.81538
272 2 0.148552 2.68583 11.0841 0.839849
208 4 1.09226 7.62474 10.2919 6.60726
209 1 -0.656589 5.90245 9.68636 6.0947
38 4 1.00584 6.19453 6.65721 3.03591
211 3 -0.797561 8.6063 10.1508 5.25679
212 3 -0.819355 7.21444 11.6118 7.499
213 2 0.00510532 8.49702 8.88367 2.89685
215 2 0.147303 5.98414 8.63141 6.69106
216 2 0.185 5.84772 9.53058 5.0269
217 2 0.148565 5.10594 10.4178 6.51358
47 1 -0.653337 1.74228 10.5238 1.34233
260 2 0.145889 3.5405 11.7002 3.96222
270 2 0.179595 0.851752 12.3899 1.82455
238 3 -0.785615 5.58762 11.8362 1.12069
240 2 0.181089 8.27871 10.1301 1.30763
257 2 0.153419 2.17513 12.3351 5.00537
259 2 0.157131 5.20472 10.818 3.35868
258 1 -0.665398 4.78605 11.7535 3.83471
150 2 0.152052 1.61472 10.961 2.53185
254 1 -0.665356 1.58242 11.6222 4.40879
230 4 1.15412 5.28023 12.8575 2.30349
210 1 -0.644403 8.18231 8.8878 7.96698
256 2 0.130104 2.17022 10.6433 4.19985
253 2 0.216071 11.0983 8.32378 1.70265
274 2 0.151811 7.83779 7.89968 7.40929
237 1 -0.680805 7.83303 9.91661 0.247243
69 3 -0.842103 10.7579 9.46828 3.99969
167 2 0.178961 8.97946 6.90572 2.70609
239 2 0.12196 6.91917 9.09534 0.153493
207 4 1.27893 6.3077 12.7469 8.05061
40 4 0.875957 6.40601 11.4769 12.8929
108 3 -0.808545 5.19962 10.4887 12.6236
109 3 -0.804072 7.00714 11.5871 14.447
214 2 -0.0404548 5.31206 11.8969 9.06413
132 2 -0.0321381 7.66269 11.0239 11.9556
131 2 -0.0194517 6.19062 13.0763 12.3182
140 2 0.127492 11.721 9.5576 13.6536
198 2 0.16018 2.83361 12.6121 14.6635
264 2 0.0855993 9.20659 12.2313 15.7201
241 2 0.162749 9.82522 10.2347 15.538
194 2 0.0115274 9.75458 7.49727 11.4487
204 2 0.178994 8.47752 7.44935 9.30825
236 4 1.03326 7.60088 11.5676 15.8364
34 4 0.89464 3.91268 9.67725 12.2891
158 2 0.0417457 2.94314 10.4826 10.9247
218 2 0.156095 7.70744 9.11823 8.97907
268 2 0.121681 11.6539 8.4409 15.9722
193 2 0.00723089 12.6036 6.93293 15.8599
139 2 0.157297 10.8646 11.0511 14.3866
ITEM: TIMESTEP
200
ITEM: NUMBER OF ATOMS
274
ITEM: BOX BOUNDS xy xz yz pp pp pp
-8.3814075499999987e+00 1.8013900000000000e+01 -8.3814075499999987e+00
0.0000000000000000e+00 1.3273200000000001e+01 1.1950000000000001e+00
0.0000000000000000e+00 1.6075500000000002e+01 4.3120000000000003e-01
ITEM: ATOMS id type q x y z
223 2 -0.0762631 6.46931 0.984803 3.95987
12 4 1.31108 -1.04687 6.12053 5.22247
7 4 1.16109 1.12271 2.12017 5.33466
9 4 1.29208 -0.610109 4.32712 1.84252
10 4 1.51917 0.423851 4.2318 7.4042
220 4 1.01754 6.97165 0.450049 2.30188
21 4 0.852059 5.95568 1.51821 5.81037
26 4 1.25282 5.23392 4.64211 6.86721
5 4 1.34501 0.380675 1.79061 0.248582
44 1 -0.667684 3.64553 3.65736 1.65141
55 3 -0.796689 1.09482 0.61132 1.19268
56 3 -0.874602 -0.144069 2.29652 4.49512
58 3 -0.846631 -1.57111 4.10691 3.04666
59 3 -0.843773 -0.0782775 3.12613 1.00583
243 2 0.142027 3.09609 1.28018 2.62269
61 3 -0.774445 1.51505 3.08737 6.47037
62 3 -0.844087 -0.325009 5.23097 6.29408
74 3 -0.770998 5.61999 0.462498 7.3247
78 3 -0.851156 0.625962 5.24169 2.31057
81 3 -0.792345 5.63233 2.96997 6.01211
84 3 -0.794705 2.60453 5.8875 4.22385
85 3 -0.817048 4.37902 5.76847 6.08978
222 3 -0.764717 6.42837 1.64021 1.23609
111 2 0.00708177 2.50007 1.84545 4.28347
112 2 -0.0107029 -1.56899 5.14629 0.770589
24 4 1.33786 4.79756 4.78822 0.574997
118 2 0.0322258 4.59604 1.03067 4.65224
113 2 0.0957912 -2.00818 5.10288 4.33511
143 2 0.211304 4.10569 3.86434 2.68595
25 4 1.46782 1.22734 6.39358 3.28758
141 2 0.168011 3.76421 2.60989 1.33838
142 2 0.210428 2.54729 3.97432 1.55835
119 2 -0.0298319 7.58373 1.45818 5.35023
41 1 -0.676795 1.15612 0.336755 6.0116
242 1 -0.663974 3.4488 0.341813 3.36228
250 2 0.128485 -3.37905 5.51359 0.643222
135 2 0.234552 0.63203 0.329576 7.03212
248 2 0.156116 2.55011 3.05439 0.0794816
138 2 0.173769 2.5234 2.23183 13.4708
8 4 1.27951 1.93743 2.77269 10.9774
13 4 1.25523 0.143788 4.94836 12.4472
117 2 0.0970325 5.13143 1.69872 8.38778
20 4 1.28831 4.63151 2.98662 9.33461
23 4 1.24931 7.12869 3.01402 11.2209
29 4 0.975606 3.44945 6.51216 11.3484
136 2 0.167016 3.10657 0.922892 12.0118
42 1 -0.651383 2.25276 1.63706 12.4009
57 3 -0.812588 0.518516 2.32394 10.3699
63 3 -0.841694 -0.46897 3.76882 13.4024
64 3 -0.81877 1.52356 4.46568 11.9548
65 3 -0.822579 -2.51339 6.05108 9.28502
66 3 -0.860035 -0.860147 5.3993 11.2563
73 3 -0.816576 3.23059 2.57518 10.0284
75 3 -0.85137 5.7125 3.21191 10.4331
76 3 -0.855015 7.19168 1.63944 12.0076
195 2 0.231561 6.28592 1.47807 14.0596
227 3 -0.826289 4.98645 6.19974 15.9701
14 4 1.46196 -1.39211 6.61103 10.3887
114 2 -0.0430074 0.433231 6.22638 13.4869
82 3 -0.821973 1.26274 5.21741 8.53348
124 2 0.0273274 2.85637 5.41206 12.4339
197 2 0.216824 5.87285 0.71043 15.7785
179 4 1.25313 7.51564 2.57661 15.7429
183 1 -0.666898 5.98157 1.68336 15.134
99 3 -0.820622 8.14102 1.13831 8.34147
123 2 0.00068037 4.62129 5.53777 10.8502
77 3 -0.752544 7.03053 4.30704 15.7751
228 2 -0.0639087 2.42934 6.51689 15.2556
80 3 -0.799223 4.74117 4.26002 8.38408
267 2 0.159642 -0.986001 5.35097 15.3508
245 1 -0.653514 2.9969 2.95122 15.2617
246 2 0.156908 2.67263 3.73366 14.4924
247 2 0.153646 3.44569 1.95777 14.8862
262 3 -0.812397 0.373924 1.91127 15.2338
137 2 0.159092 1.21355 1.11393 12.4596
196 2 0.168365 4.98072 2.28855 15.1695
60 3 -0.838568 -0.650493 3.30329 8.17092
1 4 1.25741 -6.52246 12.2949 2.09618
3 3 -0.748167 -5.78363 11.2417 0.930578
122 2 -0.00817632 2.80472 8.0419 5.65924
16 4 1.51989 -3.08448 8.48783 6.69743
17 4 1.25809 -4.67039 9.92975 4.38414
265 2 0.179577 -4.31081 12.3639 2.7974
79 3 -0.859466 0.0639928 6.84022 4.21836
31 4 1.24845 -2.09953 10.3395 2.85097
33 4 1.15991 -0.0877958 11.0142 5.3132
48 1 -0.685161 -0.935156 9.02044 2.07035
49 1 -0.631885 0.139787 9.31742 6.13049
148 2 0.17523 3.21443 7.41613 7.46617
68 3 -0.813627 -1.94272 7.28389 5.80318
19 4 1.28412 -1.14617 12.7479 7.87869
70 3 -0.828474 -4.00119 9.15061 5.62068
30 4 1.02832 2.62126 8.66641 1.37258
87 3 -0.801492 1.73379 7.82308 2.41037
154 2 0.138336 1.15742 9.05056 5.56677
89 3 -0.770508 -1.91111 11.8044 2.05391
90 3 -0.809295 -3.66319 9.84427 3.13852
93 3 -0.797063 -1.27649 10.9418 4.24973
94 3 -0.793136 -0.235059 11.9522 6.53012
115 2 -0.013563 -4.69831 11.6889 4.65379
147 2 0.184591 1.50831 7.22618 6.58426
151 2 0.202549 0.0959457 9.51882 1.74082
152 2 0.154286 -1.44811 8.63971 1.1857
153 2 0.235429 -0.798839 8.2329 2.867
161 2 0.179479 -0.874896 9.97793 0.280118
155 2 0.295753 -0.672955 8.53947 5.91661
156 2 0.208354 0.304207 9.50655 7.24159
271 2 0.185525 0.947823 10.5791 0.527472
244 2 0.122129 -5.73721 12.8303 4.19061
91 3 -0.844559 -2.23052 9.53418 7.50188
67 3 -0.818269 -3.99988 7.68716 7.74862
251 1 -0.651419 -5.23993 8.37809 0.476283
252 2 0.153953 -4.31973 7.72066 0.344871
46 1 -0.669071 2.1171 7.69056 7.48172
28 4 1.26499 3.67588 6.71076 5.02596
133 2 0.152272 -6.15543 12.9159 6.01028
149 2 0.161874 1.95743 8.80019 7.55641
253 2 0.218312 -5.49578 8.67473 1.59213
15 4 1.07125 -3.88895 10.5973 15.7913
18 4 1.22442 -2.21265 8.46085 12.7511
159 2 0.225941 1.66688 11.6081 12.4732
32 4 0.965958 -2.25515 10.3315 8.90849
35 4 1.2216 -1.03695 10.8263 14.2679
71 3 -0.839768 -2.5621 7.27199 13.6961
160 2 0.166355 1.29363 10.6747 14.6745
50 1 -0.654805 1.87604 10.4446 12.4288
51 1 -0.67272 0.483255 11.0384 15.3577
22 4 1.26015 -0.44193 13.1194 12.1475
72 3 -0.842791 -2.23879 8.0003 11.2288
83 3 -0.784803 -0.066465 7.34678 9.57584
157 2 0.228011 0.860192 9.97132 12.2609
92 3 -0.814295 -1.30242 11.5412 9.30122
95 3 -0.798904 4.0261 7.69012 12.071
96 3 -0.784566 -0.888945 9.26225 13.237
97 3 -0.822564 -1.07471 12.0971 13.1971
98 3 -0.77511 -2.35747 10.8674 15.2188
116 2 -0.00371975 -3.41489 9.66155 12.9618
120 2 0.0932125 -0.606853 12.2578 10.7135
126 2 0.102016 -1.87493 9.21416 10.1855
127 2 -0.0394502 -3.78726 10.5838 9.57107
229 2 0.0565234 4.00044 7.32201 13.5988
162 2 0.204079 0.526118 12.1494 15.5836
88 3 -0.803141 3.96896 8.65902 15.8692
269 2 0.152982 -4.36246 10.9852 13.1082
43 1 -0.644135 -4.81741 10.533 14.0657
226 4 0.930722 3.92614 7.22971 15.3159
128 2 0.0881529 2.49572 9.96615 13.6455
139 2 0.139584 -5.64884 11.3474 14.5665
86 3 -0.817848 2.42616 6.90882 10.2004
27 4 1.39996 1.40241 6.67016 9.04333
233 2 0.172776 12.0995 2.10533 1.95052
37 4 1.29947 13.1656 1.47587 5.91556
224 2 0.173747 9.08282 1.26721 1.1597
39 4 1.26219 11.3006 3.93445 6.99225
45 1 -0.661625 6.88419 5.50848 7.10276
54 1 -0.668587 10.7691 4.85885 5.42263
101 3 -0.815826 14.0988 2.34212 5.01964
102 3 -0.872342 13.8799 0.687637 6.99103
103 3 -0.789112 5.547 5.50989 1.84286
225 2 0.0978306 9.07311 0.765777 3.0638
106 3 -0.784503 12.0575 2.58394 6.40636
231 1 -0.669513 12.0321 1.02055 1.77585
129 2 -0.0172663 12.3403 0.3247 4.8833
273 2 0.181363 9.52841 0.323108 0.0693868
4 4 1.47643 15.2434 2.42519 3.87117
130 2 0.048515 7.25003 5.60893 4.04647
221 1 -0.6608 8.81788 0.40538 1.91473
232 3 -0.798616 14.6092 1.20764 2.84233
169 2 0.159254 9.69058 4.62047 5.33488
170 2 0.177724 11.3899 4.37704 4.58471
171 2 0.208018 11.0188 5.92372 5.65501
235 2 0.182593 12.132 0.78829 0.67524
146 2 0.163216 7.58196 4.88214 6.42827
230 4 1.15199 13.6185 0.092784 2.38652
145 2 0.160724 6.73258 6.59886 6.76516
105 3 -0.798497 9.89387 3.40566 8.02385
107 3 -0.762737 12.2924 5.00012 7.77925
234 2 0.159667 11.0741 0.636868 2.26072
11 4 1.54116 12.8549 6.39553 8.71947
36 4 1.27699 9.19445 2.38968 8.94371
52 1 -0.677235 10.5432 1.24582 9.65211
184 1 -0.657237 11.1177 0.637792 14.9904
100 3 -0.788961 8.48105 3.12098 10.3842
201 2 0.146398 13.1294 2.18329 11.0809
110 2 0.0315321 14.7902 3.19793 10.3291
121 2 -0.000899464 7.16238 4.1266 12.4555
6 4 1.30842 15.9975 2.41528 9.42162
163 2 0.173447 11.528 1.7829 9.48074
175 2 0.0232721 15.9433 0.955536 13.029
165 2 0.26757 10.2738 1.10916 10.7586
249 1 -0.669201 14.7874 5.27552 15.813
173 1 -0.644665 14.363 1.56244 13.7158
174 2 0.0983352 14.2721 2.38802 14.9793