ITEM: TIMESTEP
0
ITEM: NUMBER OF ATOMS
274
ITEM: BOX BOUNDS xy xz yz pp pp pp
-8.3797999999999995e+00 1.8013900000000000e+01 -8.3797999999999995e+00
0.0000000000000000e+00 1.3273200000000001e+01 1.1950000000000001e+00
0.0000000000000000e+00 1.6075500000000002e+01 4.3120000000000003e-01
ITEM: ATOMS id type q x y z
223 2 -0.0880184 6.20788 1.12032 3.97541
12 4 1.31231 -0.852778 6.31033 5.14239
7 4 1.09862 1.1888 1.94505 5.25396
9 4 1.2431 -0.587267 4.28437 1.9825
10 4 1.58004 0.31892 4.21157 7.17535
220 4 0.97626 6.80147 0.602109 2.30808
21 4 0.825056 5.62904 1.61539 5.79813
26 4 1.36019 5.21156 4.539 6.94654
5 4 1.29927 0.315401 1.63644 0.169882
44 1 -0.669806 3.56886 3.75201 1.52203
55 3 -0.801687 0.97424 0.38021 1.06253
56 3 -0.823453 -0.181187 1.993 4.36162
58 3 -0.840752 -1.64118 4.17433 3.06371
59 3 -0.799538 0.0273111 2.99848 1.05569
243 2 0.147438 2.91593 1.05559 2.49968
61 3 -0.767563 1.34274 3.13969 6.25126
62 3 -0.866212 -0.426274 5.20071 6.21926
74 3 -0.785922 5.32435 0.569901 7.27937
78 3 -0.857569 0.652084 5.22662 2.30227
81 3 -0.825644 5.5015 3.19236 6.08857
84 3 -0.812141 2.76422 5.8548 3.9298
85 3 -0.828737 4.34905 5.58407 6.06663
222 3 -0.787296 6.22731 1.77675 1.07673
111 2 0.00762461 2.63952 1.76221 4.21668
112 2 0.00182706 -1.44286 5.20914 0.734009
24 4 1.2943 4.66237 4.91072 0.453381
118 2 0.0149644 4.44264 0.96947 4.5045
113 2 0.0877809 -1.91553 5.5655 4.00398
143 2 0.208429 3.87755 3.92339 2.5998
135 2 0.240101 0.658323 0.755714 7.28267
141 2 0.161534 3.93474 2.71757 1.08638
142 2 0.232622 2.49946 4.01472 1.30593
119 2 -0.00748305 7.35284 1.4227 5.41419
41 1 -0.670709 1.4065 0.546165 6.49691
60 3 -0.830073 -0.740575 3.27738 8.03466
250 2 0.149126 -3.12236 5.50481 0.812217
242 1 -0.664713 3.31387 0.208334 3.30498
133 2 0.176491 2.50848 0.476698 6.83713
25 4 1.39124 1.38466 6.36962 3.22545
28 4 1.20636 3.78717 6.53921 4.97721
138 2 0.183752 2.43424 2.02094 13.3474
8 4 1.26335 1.79954 2.70054 11.0003
13 4 1.21696 0.123784 4.98905 12.5298
117 2 0.0938267 4.93267 1.6886 8.45387
20 4 1.32096 4.60511 3.01354 9.42447
23 4 1.25174 7.12813 3.0385 11.2414
29 4 0.976631 3.65286 6.34739 11.1184
136 2 0.152476 2.78515 0.781987 11.8908
42 1 -0.69052 2.03821 1.52475 12.3664
57 3 -0.802517 0.398636 2.50278 10.2152
63 3 -0.860646 -0.549812 3.94813 13.5295
64 3 -0.793737 1.57159 4.38956 12.0344
65 3 -0.859501 -2.65946 5.96592 9.47057
66 3 -0.842248 -0.969337 5.33569 11.3891
73 3 -0.796255 3.11272 2.74006 10.0173
75 3 -0.867426 5.63599 3.08498 10.532
76 3 -0.873603 7.37298 1.69625 11.9975
195 2 0.251209 6.37195 1.60885 13.8155
227 3 -0.835694 4.77723 6.23584 15.8567
14 4 1.4653 -1.42757 6.51547 10.3872
114 2 -0.0316296 0.334236 6.404 13.4192
82 3 -0.785052 1.38442 5.01079 8.195
124 2 0.0555923 3.13165 5.12738 12.0693
27 4 1.36423 1.38696 6.42018 8.99142
179 4 1.25483 7.4081 2.69202 15.6741
183 1 -0.660591 6.08556 1.64683 14.9211
99 3 -0.81237 7.98461 1.29526 8.34648
123 2 -0.000707439 5.06274 5.52462 10.6376
77 3 -0.730657 6.75888 4.49168 15.4743
228 2 -0.0488074 2.18295 6.50192 15.0846
80 3 -0.82841 4.7341 4.22186 8.44127
267 2 0.164574 -1.08213 5.45889 15.2051
245 1 -0.657026 3.06043 2.67752 15.2325
246 2 0.165531 2.53623 3.36341 14.4682
247 2 0.156753 3.37636 1.61825 14.8903
262 3 -0.839404 0.338496 1.80749 15.0908
137 2 0.147037 1.01979 1.00622 12.5037
196 2 0.170991 4.99814 2.06433 15.0908
86 3 -0.819671 2.59502 6.53669 9.97653
197 2 0.220886 6.2034 0.651248 15.463
249 1 -0.692796 -1.99915 5.35838 15.9505
248 2 0.172377 3.79879 3.1781 16.0086
1 4 1.2911 -6.60182 12.0505 1.84638
3 3 -0.809634 -5.89659 11.0414 0.782521
122 2 -0.000396144 2.87966 7.82969 5.72131
16 4 1.48326 -2.96555 8.39069 6.82688
17 4 1.26166 -4.52706 10.1049 4.46407
265 2 0.167135 -4.46554 12.1983 2.73824
79 3 -0.848377 0.290467 7.02001 4.39413
31 4 1.30921 -1.98202 10.5041 2.95171
33 4 1.15276 -0.123863 11.1263 5.46719
48 1 -0.678262 -0.897336 9.11358 2.1274
49 1 -0.640163 0.25319 9.67924 6.54958
148 2 0.196556 3.17862 6.97365 7.32302
68 3 -0.789791 -1.70832 7.51074 5.83731
19 4 1.30723 -1.36102 12.9285 7.78501
70 3 -0.774812 -3.89548 9.34266 5.74483
30 4 1.04395 2.45461 8.87236 1.22258
87 3 -0.76693 1.80839 7.94342 2.24934
154 2 0.123588 1.36917 9.54541 6.02041
89 3 -0.800205 -1.97137 11.9174 2.1049
90 3 -0.802626 -3.41837 9.93335 3.27046
93 3 -0.806922 -1.24337 10.8374 4.41108
94 3 -0.807462 -0.531441 12.2884 6.55241
115 2 -0.0150246 -4.54474 11.7543 4.7525
147 2 0.195383 1.36089 7.4036 6.80073
151 2 0.203985 0.107236 9.56267 1.79625
152 2 0.163955 -1.53067 8.86817 1.27758
153 2 0.22644 -0.782655 8.23568 2.81546
161 2 0.170504 -0.762782 10.1416 0.362016
155 2 0.291973 -0.461427 8.8287 6.30135
156 2 0.205237 0.322579 9.87805 7.66639
271 2 0.168429 0.795931 10.8466 0.657652
244 2 0.123736 -5.90783 12.5368 3.98611
91 3 -0.847192 -2.27187 9.50832 7.79527
67 3 -0.83814 -3.85018 7.34372 7.59743
134 2 0.202876 -7.27073 12.467 5.8981
149 2 0.153027 2.39743 8.60884 7.93876
46 1 -0.651879 2.1831 7.5311 7.55546
252 2 0.153208 -4.48647 7.86819 0.527812
15 4 1.11752 -4.01876 10.415 15.8518
18 4 1.1898 -2.20271 8.60923 12.8831
139 2 0.150197 -5.66748 11.229 14.5036
32 4 1.0069 -2.31737 10.4726 8.97409
35 4 1.20146 -1.18073 10.9435 14.4008
71 3 -0.835537 -2.52324 7.40172 13.8774
160 2 0.177758 1.16295 10.8968 14.6334
50 1 -0.654653 2.45202 10.5114 12.391
51 1 -0.653994 0.416519 11.2518 15.4169
22 4 1.25023 -0.440099 13.1006 12.3316
72 3 -0.795087 -2.05715 8.16276 11.3361
83 3 -0.824408 -0.164178 6.9757 9.52352
157 2 0.194404 1.59843 9.83784 12.1464
92 3 -0.80741 -1.43341 11.6823 9.24778
95 3 -0.798255 4.0148 7.5889 11.9465
96 3 -0.741171 -0.838793 9.4222 13.3038
97 3 -0.814844 -1.35055 12.2596 13.3082
98 3 -0.796608 -2.43428 10.6894 15.3706
116 2 -0.0162265 -3.61798 9.60143 12.9904
120 2 0.0696406 -0.645058 12.3346 10.8648
126 2 0.0856884 -2.26323 9.45446 10.385
127 2 -0.0434052 -3.88809 10.9228 9.30313
229 2 0.0494711 4.04164 7.19183 13.5661
162 2 0.201231 0.519971 12.3649 15.6051
88 3 -0.799773 3.6479 8.61857 15.7648
269 2 0.126406 -4.66868 10.5728 13.0575
43 1 -0.665903 -5.07937 10.2867 14.1449
226 4 0.978948 3.77668 7.18297 15.2042
233 2 0.16585 12.1648 1.95312 1.83796
37 4 1.27458 13.2417 1.57183 5.92713
224 2 0.172877 8.88239 1.51774 1.33193
39 4 1.30109 11.2294 3.78234 6.98044
45 1 -0.671516 6.95458 5.38392 7.20889
54 1 -0.668094 10.7855 4.62805 5.34977
101 3 -0.794813 14.2347 2.60601 5.13261
102 3 -0.874349 13.9467 0.756489 7.01881
103 3 -0.759913 5.62216 5.80827 1.71597
225 2 0.10078 8.83722 1.08791 3.17929
106 3 -0.807067 12.0058 2.45219 6.49765
231 1 -0.661688 11.9744 0.833682 1.79512
129 2 -0.0142211 12.4462 0.429868 4.86643
273 2 0.17509 9.44374 0.449524 0.179499
4 4 1.41412 15.1839 2.37589 3.88348
130 2 0.0367598 7.2552 5.34589 3.98849
221 1 -0.65902 8.62353 0.680856 2.05613
232 3 -0.788476 14.4608 1.08463 2.89157
169 2 0.161016 9.67619 4.66676 5.48082
170 2 0.172626 11.1157 3.9184 4.54354
171 2 0.198871 11.3028 5.64 5.37475
235 2 0.178341 11.5596 0.569197 0.784418
146 2 0.213124 7.63194 4.51778 7.44039
167 2 0.161234 8.9237 6.39243 2.87566
145 2 0.158268 7.27224 5.95584 6.27156
105 3 -0.768212 9.67742 3.40141 8.03757
107 3 -0.766484 12.0911 4.73142 7.82203
234 2 0.143493 11.3115 0.566623 2.68968
266 2 0.167082 13.2863 3.8909 0.0625959
11 4 1.51131 12.8319 6.18258 8.70993
36 4 1.34535 9.05672 2.40009 9.04481
52 1 -0.679731 10.5095 1.5441 9.84431
184 1 -0.671362 11.0445 0.785497 15.1418
100 3 -0.817172 8.32392 3.28236 10.1697
201 2 0.145103 13.0093 2.32264 11.4164
110 2 0.0359434 14.5755 3.13631 10.2071
121 2 0.00480071 7.22838 4.26405 12.4654
6 4 1.31325 15.864 2.43868 9.3228
163 2 0.18501 11.322 2.31736 10.0701
175 2 0.0223593 16.0124 1.40087 12.5673
165 2 0.202979 10.1197 1.1194 10.8018
191 3 -0.81936 11.5839 6.61101 9.76904
173 1 -0.634297 14.4585 1.49951 13.5968
174 2 0.0961253 14.3275 2.13152 14.9759
202 2 0.206723 14.0342 3.95864 12.0558
176 2 0.15726 13.9798 2.21405 12.7328
182 4 1.08714 10.4697 6.30058 10.7634
178 4 1.07699 13.6864 6.18252 14.6687
180 4 1.21244 10.085 1.71635 13.8692
181 4 1.27663 11.7811 4.20583 12.6696
199 2 0.170815 12.0862 1.15116 15.0656
185 1 -0.683437 13.0756 3.49066 11.4436
263 3 -0.830504 15.4259 0.89222 9.22543
189 3 -0.796676 11.0281 2.89195 13.2153
190 3 -0.765903 12.8037 5.21845 13.8426
192 3 -0.803082 10.8116 5.23564 11.8847
203 2 0.220382 8.95825 5.36864 9.40438
164 2 0.158348 10.8865 0.717025 9.1308
200 2 0.200678 12.743 4.07482 10.5227
188 3 -0.766894 8.68292 2.3837 14.7114
172 4 1.0573 16.1581 2.48628 14.0558
186 1 -0.660674 8.65546 6.43496 10.0159
205 2 0.158035 7.79877 6.36276 10.7136
177 2 0.165017 13.883 0.481562 13.6417
193 2 0.00927188 12.7719 6.83767 15.9755
144 2 0.170147 6.81436 6.07418 8.05794
251 1 -0.642465 11.2354 8.26201 0.604228
2 3 -0.840938 9.29938 11.2857 2.85365
219 2 0.183798 9.40775 8.81712 7.33777
53 1 -0.644755 8.04492 6.86797 3.42064
104 3 -0.779593 5.0843 7.30487 4.06883
261 2 0.169823 5.355 11.7791 4.91712
125 2 0.000695414 4.0955 9.08421 1.51847
255 2 0.163565 1.05441 12.4605 3.54134
166 2 0.0596413 7.38365 7.92809 2.34615
168 2 0.164059 8.42345 7.34152 4.32692
206 4 1.24646 9.3741 10.0979 3.88156
272 2 0.161471 2.62566 11.1915 0.869429
208 4 1.07225 7.63098 10.2015 6.5895
209 1 -0.654456 5.96495 9.55878 5.87584
38 4 1.00553 6.13356 6.51396 3.04481
211 3 -0.798178 8.57357 10.3986 5.24637
212 3 -0.79923 7.30899 11.5881 7.47699
213 2 0.00670609 8.62952 8.70177 3.1285
215 2 0.145279 5.88547 8.65045 6.59206
216 2 0.205401 5.98059 9.27366 4.74947
217 2 0.148694 5.19904 10.3493 6.11073
47 1 -0.673452 1.75424 10.6643 1.35776
260 2 0.145551 3.53897 11.6967 4.16139
270 2 0.165094 0.787359 12.409 1.80067
238 3 -0.724315 5.71823 11.7624 1.05154
240 2 0.198347 8.27442 10.1143 1.10824
257 2 0.154316 2.04835 12.4712 5.16096
259 2 0.159426 4.95291 10.7195 3.3773
258 1 -0.679354 4.72426 11.6459 3.97402
150 2 0.152234 1.59583 11.1254 2.53196
254 1 -0.682695 1.50915 11.8251 4.4269
230 4 1.08458 5.11079 12.7674 2.43683
210 1 -0.666719 8.34917 8.76711 7.8169
256 2 0.140085 2.07649 10.9273 4.07839
253 2 0.196233 10.8161 8.28339 1.68478
274 2 0.153805 7.84233 7.77351 7.72063
237 1 -0.682523 7.90148 9.90546 0.0932962
239 2 0.151216 7.16749 8.99565 0.115177
69 3 -0.854186 10.8415 9.63762 4.05362
207 4 1.24226 6.38892 12.7763 8.02705
128 2 0.116676 3.02991 10.2021 13.6766
40 4 0.93269 6.60047 11.3973 12.829
108 3 -0.810254 5.40925 10.4446 12.5287
109 3 -0.792677 7.08869 11.4136 14.2642
214 2 -0.0323939 5.11922 12.0433 8.75486
132 2 -0.0348381 7.89409 10.9921 11.8827
131 2 -0.0112935 6.3619 12.9981 12.1772
159 2 0.254667 2.00426 11.6007 12.425
198 2 0.176482 2.57072 12.5352 14.757
264 2 0.0721428 9.3927 12.2538 15.7663
241 2 0.159124 9.97672 10.3381 15.3088
194 2 0.000532982 9.51047 7.63826 11.2636
204 2 0.168936 8.54129 7.30574 9.18346
236 4 1.00123 7.77558 11.6007 15.7731
34 4 0.892469 4.12177 9.58295 12.2264
158 2 0.0304919 3.37947 10.5301 10.7956
218 2 0.156138 8.33574 9.089 8.87277
268 2 0.133001 11.6655 8.38213 15.8025
140 2 0.13868 11.0767 9.38014 14.1003
187 3 -0.803994 1.12687 13.0854 12.7499
ITEM: TIMESTEP
100
ITEM: NUMBER OF ATOMS
274
ITEM: BOX BOUNDS xy xz yz pp pp pp
-8.3797999999999995e+00 1.8013900000000000e+01 -8.3797999999999995e+00
0.0000000000000000e+00 1.3273200000000001e+01 1.1950000000000001e+00
0.0000000000000000e+00 1.6076303775000003e+01 4.3120000000000003e-01
ITEM: ATOMS id type q x y z
223 2 -0.0968253 6.42224 1.07162 3.92019
12 4 1.29358 -0.926602 6.20072 5.24805
7 4 1.09768 1.20518 1.9559 5.28917
9 4 1.27388 -0.565389 4.29631 1.80048
10 4 1.57283 0.40914 4.1695 7.20362
220 4 1.00971 6.82664 0.58507 2.24274
21 4 0.86193 5.87148 1.68078 5.65506
26 4 1.217 5.25733 4.66116 6.92835
5 4 1.34292 0.206131 1.74397 0.22181
44 1 -0.675549 3.65936 3.45446 1.45599
55 3 -0.773286 1.1407 0.542166 1.02079
56 3 -0.818438 -0.135802 2.02462 4.45403
58 3 -0.820334 -1.57546 4.00851 2.9393
59 3 -0.847833 -0.222397 2.92762 1.16882
243 2 0.146589 2.98786 1.16074 2.59477
61 3 -0.808506 1.42132 3.16691 6.31853
62 3 -0.862621 -0.221204 5.30007 6.32208
74 3 -0.787347 5.78309 0.639774 7.23257
78 3 -0.836732 0.775039 5.13413 2.15948
81 3 -0.791822 5.56418 3.10753 5.96952
84 3 -0.805947 2.67173 5.79238 4.02044
85 3 -0.80905 4.41897 5.61923 6.07802
222 3 -0.754045 6.2947 1.74061 1.15064
111 2 0.00254201 2.61025 1.67804 4.29658
112 2 -0.0143227 -1.44556 5.328 0.763491
24 4 1.23128 4.78923 4.75864 0.657239
118 2 0.0104823 4.77151 0.817124 4.44013
113 2 0.0686483 -1.88186 5.21489 4.26309
143 2 0.205219 3.96758 3.55495 2.52749
25 4 1.40468 1.34312 6.32408 3.19139
141 2 0.18499 3.81904 2.41593 1.00716
142 2 0.205076 2.62694 4.01704 1.24367
119 2 -0.0107932 7.4992 1.65947 5.28082
41 1 -0.688585 1.07024 0.285767 6.1233
28 4 1.22371 3.64784 6.50251 5.03669
250 2 0.156783 -3.16252 5.70823 0.70036
242 1 -0.649391 3.44054 0.204478 3.31303
133 2 0.164159 1.88057 0.296019 6.83787
138 2 0.168116 2.52499 2.04899 13.3845
8 4 1.27716 1.84244 2.73844 11.0351
13 4 1.25102 0.184315 4.95007 12.3742
117 2 0.0576614 4.89115 1.78827 8.29046
20 4 1.26283 4.5816 3.00898 9.35796
23 4 1.27609 7.14089 2.99613 11.1836
29 4 0.973045 3.61382 6.31645 11.2779
136 2 0.160449 3.19024 0.972944 11.7588
42 1 -0.659921 2.25702 1.43942 12.3175
57 3 -0.837124 0.449149 2.28983 10.3152
63 3 -0.853436 -0.386843 3.85816 13.4261
64 3 -0.812245 1.58855 4.45974 12.0089
65 3 -0.82485 -2.58679 5.89273 9.26027
66 3 -0.838422 -0.951573 5.28294 11.2142
73 3 -0.809696 3.19116 2.82812 10.1931
75 3 -0.849774 5.82745 3.11351 10.392
76 3 -0.870562 7.288 1.67336 12.0434
195 2 0.243451 6.15129 1.43285 13.9136
227 3 -0.764644 4.94126 6.30057 15.7895
14 4 1.46311 -1.4617 6.50936 10.277
114 2 -0.0274065 0.476058 6.35894 13.232
82 3 -0.768506 1.21376 5.09917 8.37753
124 2 0.0574761 3.02948 5.22979 12.3567
27 4 1.35835 1.35267 6.55185 9.09956
179 4 1.27936 7.32845 2.68235 15.6727
183 1 -0.682276 5.87644 1.67458 14.9881
99 3 -0.854932 8.09132 1.2999 8.38146
123 2 0.0324121 4.84071 5.58415 10.4488
77 3 -0.771685 6.95066 4.22996 15.765
228 2 -0.0535261 2.37125 6.54416 15.1774
80 3 -0.760552 4.52209 4.35454 8.66936
267 2 0.168181 -1.09794 5.45316 15.1585
245 1 -0.662272 2.87752 2.82305 15.1882
246 2 0.161504 2.32661 3.53284 14.4809
247 2 0.176233 3.24079 1.876 14.7777
262 3 -0.808603 0.350899 1.65792 15.2077
137 2 0.16878 1.38144 0.755659 12.4994
196 2 0.175106 4.81235 2.12656 15.1232
86 3 -0.803609 2.44073 6.51615 10.3235
197 2 0.217506 5.98881 0.733617 15.6338
249 1 -0.685848 -1.97906 5.52441 15.8517
248 2 0.167938 3.66685 3.26169 16.0452
60 3 -0.821278 -0.675921 3.27287 8.13011
1 4 1.21091 -6.57077 12.1897 1.9087
3 3 -0.770211 -5.70586 11.0658 0.790262
122 2 -0.0126789 2.90071 7.78155 5.95242
16 4 1.4953 -3.03035 8.63292 6.74895
17 4 1.26371 -4.61244 9.92945 4.41669
265 2 0.171876 -4.39424 12.1972 2.6391
79 3 -0.850808 0.146117 6.84071 4.26818
31 4 1.2033 -2.10116 10.5999 2.95415
33 4 1.14309 -0.139036 11.1012 5.48143
48 1 -0.646445 -1.04211 9.17713 2.18025
49 1 -0.64407 0.259804 9.48829 6.30873
148 2 0.160605 3.20425 7.5439 7.93384
68 3 -0.771067 -1.88353 7.35928 5.94288
19 4 1.41528 -1.18333 12.9209 7.86564
70 3 -0.838069 -4.03411 9.28702 5.73471
30 4 1.03707 2.59611 8.83618 1.25236
87 3 -0.75784 1.84929 7.77032 2.20894
154 2 0.14553 1.19242 9.25838 5.6393
89 3 -0.763951 -2.08578 12.0548 1.79004
90 3 -0.801975 -3.52485 9.82281 3.18052
93 3 -0.828464 -1.15985 10.8939 4.27073
94 3 -0.814048 -0.47904 12.2516 6.6139
115 2 -0.015567 -4.56481 11.6932 4.68075
147 2 0.189544 1.60128 7.35148 6.86444
151 2 0.197688 -0.0114369 9.6165 1.81015
152 2 0.176893 -1.78557 8.93381 1.38148
153 2 0.228462 -0.946753 8.29856 2.88357
161 2 0.188155 -0.946736 10.2762 0.478493
155 2 0.28138 -0.569806 8.68414 6.19712
156 2 0.189794 0.514239 9.77217 7.36973
271 2 0.172881 0.762335 10.6684 0.601895
244 2 0.107623 -5.85947 12.6626 4.0531
91 3 -0.842888 -2.22188 9.70709 7.60159
67 3 -0.809058 -3.88621 7.60551 7.64392
134 2 0.204703 -7.29752 12.2557 5.40281
252 2 0.175236 -4.42438 7.87225 0.431352
46 1 -0.665687 2.08415 7.81575 7.75412
149 2 0.168078 1.77743 8.88721 7.99925
15 4 1.18059 -3.92308 10.4258 15.8578
18 4 1.14089 -2.24592 8.60432 12.925
159 2 0.242929 1.7381 11.5202 12.5627
32 4 0.94558 -2.3599 10.3929 9.02767
35 4 1.20501 -1.07029 10.9538 14.205
71 3 -0.824251 -2.48089 7.34969 13.9087
160 2 0.159569 1.19548 10.7381 14.7932
50 1 -0.645735 2.17056 10.4021 12.4207
51 1 -0.633518 0.340993 11.2507 15.4611
22 4 1.23512 -0.459473 13.0908 12.1668
72 3 -0.787999 -2.18181 7.96255 11.333
83 3 -0.809887 -0.178157 7.13474 9.51584
157 2 0.197803 1.40536 9.5805 12.1642
92 3 -0.80238 -1.37473 11.626 9.27628
95 3 -0.779854 4.06641 7.6813 11.9437
96 3 -0.765357 -0.852417 9.49041 13.2736
97 3 -0.847147 -1.1772 12.2795 13.2986
98 3 -0.778809 -2.53299 10.5111 15.2743
116 2 -0.0287092 -3.59846 9.60202 12.9878
120 2 0.0642628 -0.681626 12.29 10.7418
126 2 0.075393 -2.06371 9.22188 10.2499
127 2 -0.0593941 -3.92294 10.7768 9.40605
229 2 0.062838 4.16055 7.45737 13.4992
162 2 0.214404 0.358878 12.4037 15.4914
88 3 -0.802357 3.72405 8.65561 15.8549
269 2 0.168075 -4.3624 11.2563 13.5359
43 1 -0.668442 -4.96339 10.5526 14.1284
226 4 0.929449 3.81445 7.26517 15.1975
128 2 0.0842485 2.90561 9.98219 13.8886
233 2 0.172684 12.2416 2.03196 1.97543
37 4 1.27822 13.1739 1.53077 5.92181
224 2 0.188464 8.87715 1.4233 1.32201
39 4 1.31123 11.2637 3.77472 7.09596
45 1 -0.677149 6.92824 5.44596 7.19399
54 1 -0.651643 10.7832 4.76283 5.50319
101 3 -0.830192 14.0569 2.54463 5.05411
102 3 -0.872303 13.8579 0.685401 7.03411
103 3 -0.757034 5.59092 5.69876 1.92235
225 2 0.116097 8.96137 0.917424 3.10825
106 3 -0.791861 11.96 2.34219 6.60116
231 1 -0.674935 11.9883 0.951358 1.90998
129 2 -0.0104924 12.4093 0.417082 4.84984
273 2 0.186292 9.59517 0.456896 0.218535
4 4 1.43549 15.1922 2.37728 3.8719
130 2 0.0802662 7.67127 5.54956 3.9042
221 1 -0.677124 8.72482 0.546993 2.03533
232 3 -0.797499 14.6591 1.1176 2.84065
169 2 0.191127 9.71258 4.9712 5.67177
170 2 0.171399 11.0289 4.02352 4.70356
171 2 0.203399 11.4043 5.67103 5.41147
235 2 0.186944 11.6262 0.634724 0.938749
146 2 0.196848 7.65721 4.61017 6.91371
135 2 0.245368 16.8953 0.382754 6.69281
145 2 0.167706 7.02885 6.38229 6.51259
105 3 -0.775554 9.8421 3.42279 7.61248
107 3 -0.799411 12.2607 4.94206 7.91105
234 2 0.156666 11.2416 0.600323 2.67068
11 4 1.55753 12.8374 6.26261 8.59986
36 4 1.28049 9.05914 2.36149 8.97124
52 1 -0.684258 10.4073 1.26524 9.87018
184 1 -0.660217 11.1904 0.827305 15.153
100 3 -0.823407 8.3439 3.26195 10.1252
201 2 0.137309 13.2597 2.47085 11.0551
110 2 0.0367772 14.7008 3.09868 10.2947
121 2 -0.00987761 7.15373 4.38039 12.2288
6 4 1.33571 16.0089 2.37762 9.39049
163 2 0.170473 11.302 1.87923 9.85533
175 2 0.0342243 15.8779 1.27002 12.7878
165 2 0.249158 10.0582 0.949484 10.9701
191 3 -0.823986 11.6564 6.64339 9.74189
173 1 -0.651697 14.2863 1.69932 13.6158
174 2 0.0704757 14.2373 2.56164 14.9544
202 2 0.214624 13.9052 4.12181 11.6983
176 2 0.174175 13.8356 2.33017 12.7775
182 4 1.08927 10.5426 6.16713 10.7065
178 4 1.02904 13.5766 6.17299 14.5743
180 4 1.22966 10.0583 1.6513 13.9571
181 4 1.33392 11.8104 4.19938 12.7314
199 2 0.178834 12.1649 1.39993 14.9823
185 1 -0.699287 13.0579 3.53552 11.2954
263 3 -0.826886 15.5069 0.891296 9.0137
189 3 -0.762809 10.9641 2.94464 13.3547
190 3 -0.820455 12.6498 5.04522 13.7282
192 3 -0.8152 10.8014 5.12203 11.8209
203 2 0.190192 8.79091 5.43973 9.51226
164 2 0.169455 10.485 0.372631 9.20941
200 2 0.209386 12.5894 4.06478 10.4383
188 3 -0.75856 8.87992 2.20046 14.8527
172 4 0.982072 16.0364 2.49905 14.1279
186 1 -0.654556 8.68635 6.55019 10.1338
205 2 0.157836 8.00782 6.45551 11.0029
177 2 0.174465 13.7231 0.769525 13.7778
144 2 0.181127 6.91869 5.62527 8.3054
187 3 -0.802709 9.5401 0.352569 12.5023
266 2 0.147117 14.4189 4.49645 15.9429
251 1 -0.66125 11.3715 8.29122 0.641518
2 3 -0.847322 9.24335 11.4198 2.90979
219 2 0.191728 9.27448 8.93887 7.96653
53 1 -0.653537 8.09776 7.0339 3.31495
104 3 -0.75102 5.04893 7.11661 4.17845
261 2 0.159381 5.32591 12.0178 4.80103
125 2 -0.0194269 4.14672 8.86527 1.93117
255 2 0.163007 1.16755 12.1783 3.45835
166 2 0.0172684 7.01285 8.11419 2.28587
168 2 0.171198 8.34361 7.71609 4.16685
206 4 1.22109 9.35343 10.1092 3.81538
272 2 0.148553 2.68583 11.0841 0.839848
208 4 1.09226 7.62474 10.2919 6.60726
209 1 -0.656589 5.90245 9.68636 6.0947
38 4 1.00584 6.19453 6.65721 3.03591
211 3 -0.79756 8.6063 10.1508 5.25679
212 3 -0.819355 7.21444 11.6118 7.499
213 2 0.00510391 8.49702 8.88367 2.89684
215 2 0.147303 5.98414 8.63141 6.69106
216 2 0.185 5.84772 9.53058 5.0269
217 2 0.148565 5.10594 10.4178 6.51358
47 1 -0.653337 1.74228 10.5238 1.34233
260 2 0.145889 3.5405 11.7002 3.96222
270 2 0.179595 0.851757 12.3899 1.82454
238 3 -0.785615 5.58762 11.8362 1.12069
240 2 0.181088 8.2787 10.1301 1.30767
257 2 0.153419 2.17513 12.3351 5.00537
259 2 0.157131 5.20472 10.818 3.35868
258 1 -0.665399 4.78605 11.7535 3.83471
150 2 0.152052 1.61472 10.961 2.53185
254 1 -0.665355 1.58242 11.6222 4.40879
230 4 1.15412 5.28023 12.8575 2.30349
210 1 -0.644402 8.18231 8.8878 7.96698
256 2 0.130104 2.17022 10.6433 4.19985
253 2 0.216074 11.0983 8.32384 1.70265
274 2 0.151811 7.83779 7.89968 7.40929
237 1 -0.680806 7.83305 9.91662 0.247265
69 3 -0.842103 10.7579 9.46828 3.99969
167 2 0.178962 8.97946 6.90572 2.70609
239 2 0.121959 6.9192 9.09536 0.153404
207 4 1.27893 6.3077 12.7469 8.05061
40 4 0.875955 6.40601 11.4769 12.8929
108 3 -0.808545 5.19962 10.4887 12.6236
109 3 -0.804071 7.00714 11.5871 14.447
214 2 -0.0404553 5.31206 11.8969 9.06413
132 2 -0.0321379 7.66268 11.0239 11.9556
131 2 -0.0194524 6.19062 13.0763 12.3182
140 2 0.127492 11.721 9.55759 13.6536
198 2 0.160163 2.8335 12.6121 14.6634
264 2 0.0856007 9.20658 12.2313 15.7201
241 2 0.162751 9.82525 10.2348 15.538
194 2 0.0115276 9.75458 7.49727 11.4487
204 2 0.178994 8.47752 7.44935 9.30825
236 4 1.03326 7.60088 11.5676 15.8364
34 4 0.894636 3.91268 9.67725 12.2891
158 2 0.0417503 2.94313 10.4827 10.9248
218 2 0.156095 7.70744 9.11823 8.97907
268 2 0.12168 11.6539 8.44095 15.9722
193 2 0.00723695 12.6035 6.93298 15.8599
139 2 0.157296 10.8646 11.0511 14.3866
ITEM: TIMESTEP
200
ITEM: NUMBER OF ATOMS
274
ITEM: BOX BOUNDS xy xz yz pp pp pp
-8.3797999999999995e+00 1.8013900000000000e+01 -8.3797999999999995e+00
0.0000000000000000e+00 1.3273200000000001e+01 1.1950000000000001e+00
0.0000000000000000e+00 1.6077107550000001e+01 4.3120000000000003e-01
ITEM: ATOMS id type q x y z
223 2 -0.0759394 6.46807 0.982538 3.95757
12 4 1.31103 -1.04682 6.12053 5.22241
7 4 1.161 1.12248 2.11981 5.33471
9 4 1.29213 -0.610084 4.32693 1.8424
10 4 1.51915 0.42385 4.23176 7.40421
220 4 1.01769 6.97101 0.44993 2.3016
21 4 0.852598 5.95492 1.51821 5.81024
26 4 1.25282 5.23381 4.64221 6.8672
5 4 1.34488 0.380479 1.79059 0.248204
44 1 -0.667654 3.64536 3.6576 1.65094
55 3 -0.796706 1.09456 0.610746 1.19279
56 3 -0.874579 -0.144157 2.29609 4.49497
58 3 -0.846628 -1.5711 4.1067 3.04652
59 3 -0.843796 -0.0782424 3.12624 1.00531
243 2 0.142043 3.0962 1.2793 2.62265
61 3 -0.77444 1.5149 3.08722 6.4703
62 3 -0.844059 -0.32497 5.23095 6.29408
74 3 -0.771287 5.62082 0.462698 7.32433
78 3 -0.851188 0.625664 5.2418 2.31046
81 3 -0.792357 5.63243 2.97 6.01196
84 3 -0.794728 2.60447 5.88751 4.22373
85 3 -0.817079 4.37897 5.76857 6.08981
222 3 -0.764716 6.42801 1.63991 1.23545
111 2 0.00709877 2.50097 1.84353 4.28249
112 2 -0.0106939 -1.56882 5.1464 0.770257
24 4 1.33794 4.79742 4.78863 0.574625
118 2 0.0322991 4.58996 1.03272 4.65549
113 2 0.0958337 -2.00781 5.10274 4.33481
143 2 0.211297 4.10576 3.86445 2.68508
25 4 1.46785 1.22728 6.39352 3.28742
141 2 0.167986 3.76407 2.61002 1.33794
142 2 0.21043 2.54679 3.97464 1.55852
119 2 -0.0307714 7.57525 1.46646 5.3307
41 1 -0.676675 1.15552 0.336669 6.01194
242 1 -0.664266 3.44884 0.341834 3.36219
250 2 0.128562 -3.37805 5.5143 0.641025
135 2 0.234538 0.632165 0.328856 7.03318
248 2 0.156058 2.55082 3.05386 0.0785862
138 2 0.17392 2.52265 2.2324 13.4702
8 4 1.27934 1.93744 2.77277 10.9777
13 4 1.25524 0.143737 4.94835 12.4473
117 2 0.0968488 5.13125 1.69932 8.38801
20 4 1.28825 4.63149 2.98661 9.33453
23 4 1.24931 7.12859 3.01385 11.2208
29 4 0.975645 3.44941 6.51232 11.3486
136 2 0.167065 3.10699 0.923688 12.0125
42 1 -0.651514 2.25315 1.63743 12.4015
57 3 -0.812511 0.518381 2.32371 10.3699
63 3 -0.841697 -0.46893 3.76882 13.4025
64 3 -0.818785 1.5235 4.46585 11.9547
65 3 -0.82257 -2.51337 6.05111 9.28507
66 3 -0.860019 -0.860205 5.39926 11.2564
73 3 -0.816523 3.23057 2.57522 10.0285
75 3 -0.851352 5.71255 3.21204 10.4329
76 3 -0.855037 7.19141 1.63924 12.0077
195 2 0.231696 6.28401 1.47861 14.0615
227 3 -0.826434 4.98658 6.19966 15.9706
14 4 1.46196 -1.39209 6.61106 10.3887
114 2 -0.0429777 0.433108 6.22633 13.4869
82 3 -0.82196 1.26272 5.2174 8.53349
124 2 0.0273319 2.85637 5.41212 12.434
197 2 0.216795 5.87128 0.711859 15.7791
179 4 1.25316 7.51597 2.57675 15.7433
183 1 -0.667127 5.98084 1.6837 15.134
99 3 -0.820501 8.14075 1.13828 8.34167
123 2 0.000642555 4.622 5.5388 10.851
77 3 -0.752548 7.0307 4.30706 15.776
228 2 -0.0638777 2.42939 6.51694 15.2557
80 3 -0.79921 4.74111 4.26008 8.38408
267 2 0.159752 -0.986018 5.34982 15.3511
245 1 -0.653243 2.99638 2.95106 15.262
246 2 0.156912 2.67265 3.73331 14.4924
247 2 0.153412 3.44554 1.95564 14.8864
262 3 -0.812343 0.373681 1.91131 15.2346
137 2 0.158999 1.21311 1.11429 12.4589
196 2 0.168349 4.9805 2.28945 15.1696
60 3 -0.838557 -0.650493 3.30323 8.1709
1 4 1.2576 -6.52175 12.295 2.09585
3 3 -0.7482 -5.78346 11.2413 0.930618
122 2 -0.0081929 2.80465 8.04174 5.65922
16 4 1.51988 -3.08445 8.48783 6.69743
17 4 1.2581 -4.6701 9.92978 4.38412
265 2 0.179649 -4.30962 12.3646 2.79725
79 3 -0.859449 0.0640132 6.84025 4.21829
31 4 1.24843 -2.09948 10.3397 2.85092
33 4 1.16 -0.0875268 11.0143 5.31308
48 1 -0.685216 -0.935159 9.02037 2.0699
49 1 -0.631881 0.139837 9.31741 6.1303
148 2 0.175241 3.21442 7.41612 7.46612
68 3 -0.813602 -1.9427 7.28391 5.80315
19 4 1.2844 -1.14604 12.7477 7.87917
70 3 -0.828534 -4.00111 9.1505 5.62059
30 4 1.02821 2.62117 8.66641 1.37243
87 3 -0.801494 1.73385 7.82281 2.40997
154 2 0.138332 1.15741 9.05052 5.56673
89 3 -0.770571 -1.91088 11.8044 2.0538
90 3 -0.809265 -3.66313 9.84452 3.13825
93 3 -0.797084 -1.27637 10.9418 4.24981
94 3 -0.793019 -0.234626 11.9518 6.53016
115 2 -0.0135641 -4.69767 11.6896 4.6537
147 2 0.184592 1.50833 7.22617 6.58421
151 2 0.202541 0.0958305 9.51853 1.74041
152 2 0.154428 -1.44752 8.63918 1.18573
153 2 0.235412 -0.79888 8.23384 2.86745
161 2 0.179553 -0.875095 9.9781 0.278998
155 2 0.295754 -0.672918 8.53947 5.9165
156 2 0.208385 0.304119 9.50683 7.24129
271 2 0.185532 0.94773 10.5785 0.527194
244 2 0.122157 -5.73539 12.8307 4.19043
91 3 -0.844573 -2.2305 9.53419 7.50187
67 3 -0.818273 -3.99986 7.68716 7.74862
251 1 -0.65137 -5.23986 8.378 0.475382
252 2 0.15394 -4.31938 7.72065 0.344124
46 1 -0.66906 2.11708 7.69051 7.48173
28 4 1.26498 3.67587 6.71075 5.02584
133 2 0.152124 -6.15529 12.9151 6.00921
149 2 0.161878 1.95742 8.80014 7.55645
253 2 0.218263 -5.49659 8.67356 1.59109
15 4 1.07125 -3.88914 10.5974 15.7916
18 4 1.22442 -2.21261 8.46098 12.7511
159 2 0.22601 1.66711 11.608 12.4733
32 4 0.965731 -2.25516 10.3314 8.90845
35 4 1.22169 -1.03693 10.8263 14.268
71 3 -0.839714 -2.56199 7.27204 13.6962
160 2 0.166418 1.29346 10.6744 14.6746
50 1 -0.654793 1.8762 10.4447 12.4288
51 1 -0.672751 0.483182 11.038 15.3576
22 4 1.26036 -0.441393 13.1195 12.1475
72 3 -0.842777 -2.23873 8.00043 11.2289
83 3 -0.784794 -0.0664812 7.34675 9.57587
157 2 0.228028 0.860525 9.97104 12.2608
92 3 -0.814326 -1.302 11.5415 9.30132
95 3 -0.798948 4.02607 7.69011 12.0714
96 3 -0.784542 -0.888883 9.2622 13.2371
97 3 -0.822525 -1.07383 12.097 13.1973
98 3 -0.775012 -2.3572 10.8676 15.2191
116 2 -0.00375738 -3.41474 9.66191 12.962
120 2 0.0931839 -0.605531 12.258 10.7135
126 2 0.102011 -1.87536 9.21427 10.1857
127 2 -0.0394919 -3.78731 10.5843 9.57075
229 2 0.0565479 4.00091 7.32177 13.5992
162 2 0.204089 0.526552 12.149 15.5835
88 3 -0.803011 3.96878 8.65902 15.8693
269 2 0.152954 -4.36279 10.985 13.1085
43 1 -0.644168 -4.81722 10.533 14.0663
226 4 0.9307 3.92623 7.22966 15.3162
128 2 0.0881658 2.49599 9.96624 13.6458
139 2 0.139489 -5.64904 11.3477 14.5667
86 3 -0.817842 2.42621 6.90883 10.2005
27 4 1.39995 1.40244 6.67015 9.04336
233 2 0.172761 12.0996 2.10592 1.95056
37 4 1.29955 13.1654 1.47596 5.91557
224 2 0.173685 9.0829 1.26742 1.15934
39 4 1.26219 11.3005 3.93447 6.9923
45 1 -0.661628 6.88413 5.50841 7.10273
54 1 -0.668563 10.7691 4.8589 5.42268
101 3 -0.81577 14.0985 2.34222 5.01956
102 3 -0.872397 13.8795 0.687849 6.99102
103 3 -0.7892 5.54699 5.51016 1.84273
225 2 0.0979887 9.07297 0.765995 3.06256
106 3 -0.784484 12.0574 2.58425 6.40611
231 1 -0.669553 12.0315 1.02105 1.77604
129 2 -0.0172585 12.3398 0.324676 4.88333
273 2 0.181293 9.52767 0.322804 0.0691872
4 4 1.47635 15.2432 2.42492 3.87097
130 2 0.0485122 7.24971 5.60876 4.04585
221 1 -0.660842 8.81729 0.405308 1.91421
232 3 -0.798667 14.6087 1.20746 2.84243
169 2 0.159295 9.69051 4.62045 5.33496
170 2 0.177759 11.3899 4.37703 4.58483
171 2 0.208014 11.0187 5.92377 5.655
235 2 0.182552 12.1318 0.789092 0.675397
146 2 0.163281 7.58179 4.88203 6.42824
230 4 1.152 13.6178 0.0929142 2.38625
145 2 0.160724 6.7326 6.59877 6.76519
105 3 -0.79848 9.89378 3.4054 8.02392
107 3 -0.762751 12.2923 5.00017 7.77931
234 2 0.159683 11.0737 0.637429 2.26082
11 4 1.54115 12.8549 6.39555 8.71948
36 4 1.2771 9.1942 2.38956 8.94377
52 1 -0.677263 10.5429 1.24561 9.65238
184 1 -0.657242 11.1172 0.637498 14.9904
100 3 -0.789033 8.48092 3.12084 10.3841
201 2 0.146395 13.1294 2.1833 11.0816
110 2 0.0315064 14.79 3.19768 10.3292
121 2 -0.000918348 7.16231 4.12627 12.4558
6 4 1.30837 15.9975 2.4154 9.42172
163 2 0.173431 11.5274 1.78295 9.481
175 2 0.0232742 15.9435 0.955388 13.0289
165 2 0.267559 10.2733 1.10923 10.7589
249 1 -0.669317 14.7875 5.27567 15.8129
173 1 -0.644697 14.363 1.56244 13.7158
174 2 0.0983702 14.2727 2.38791 14.9785
202 2 0.182854 14.0763 3.6822 11.8239
176 2 0.179346 13.9239 2.21621 12.8701