LAMMPS (2 Aug 2023 - Update 2)
  using 1 OpenMP thread(s) per MPI task
Reading data file ...
  triclinic box = (0 0 0) to (17.1722 13.1279 17.5867) with tilt (-8.382 0.0305 0.3027)
WARNING: Triclinic box skew is large. LAMMPS will run inefficiently. (src/domain.cpp:220)
  2 by 2 by 2 MPI processor grid
  reading atoms ...
  362 atoms
  reading velocities ...
  362 velocities
Finding 1-2 1-3 1-4 neighbors ...
  special bond factors lj:    0        0        0       
  special bond factors coul:  0        0        0       
     0 = max # of 1-2 neighbors
     0 = max # of 1-3 neighbors
     0 = max # of 1-4 neighbors
     1 = max # of special neighbors
  special bonds CPU = 0.001 seconds
  read_data CPU = 0.007 seconds
WARNING: Van der Waals parameters for element SI indicate inner wall+shielding, but earlier atoms indicate a different van der Waals method. This may cause division-by-zero errors. Keeping van der Waals setting for earlier atoms. (src/REAXFF/reaxff_ffield.cpp:251)
System init for write_restart ...
Neighbor list info ...
  update: every = 1 steps, delay = 0 steps, check = yes
  max neighbors/atom: 2000, page size: 100000
  master list distance cutoff = 12
  ghost atom cutoff = 12
  binsize = 6, bins = 5 3 3
  2 neighbor lists, perpetual/occasional/extra = 2 0 0
  (1) pair reaxff, perpetual
      attributes: half, newton off, ghost
      pair build: half/bin/newtoff/ghost
      stencil: full/ghost/bin/3d
      bin: standard
  (2) fix qeq/reaxff, perpetual, copy from (1)
      attributes: half, newton off
      pair build: copy
      stencil: none
      bin: none
  using 1 OpenMP thread(s) per MPI task
Reading restart file ...
  restart file = 2 Aug 2023, LAMMPS = 2 Aug 2023
  restoring atom style full from restart
  triclinic box = (0 0 0) to (17.1722 13.1279 17.5867) with tilt (-8.382 0.0305 0.3027)
WARNING: Triclinic box skew is large. LAMMPS will run inefficiently. (src/domain.cpp:220)
  2 by 2 by 2 MPI processor grid
  pair style reaxff stores no restart info
  362 atoms
Finding 1-2 1-3 1-4 neighbors ...
  special bond factors lj:    0        0        0       
  special bond factors coul:  0        0        0       
     0 = max # of 1-2 neighbors
     0 = max # of 1-3 neighbors
     0 = max # of 1-4 neighbors
     1 = max # of special neighbors
  special bonds CPU = 0.000 seconds
  read_restart CPU = 0.003 seconds
*****debug*****
xy = -8.3819999999999996732, deltaxy = 0.08382
xz = 0.030499999999999999334, deltaxz = -0.000305
yz = 0.3027000000000000246, deltayz = -0.003027
*****
*****Negative-deform 1 starts.*****
WARNING: Van der Waals parameters for element SI indicate inner wall+shielding, but earlier atoms indicate a different van der Waals method. This may cause division-by-zero errors. Keeping van der Waals setting for earlier atoms. (src/REAXFF/reaxff_ffield.cpp:251)

CITE-CITE-CITE-CITE-CITE-CITE-CITE-CITE-CITE-CITE-CITE-CITE-CITE

Your simulation uses code contributions which should be cited:
- pair reaxff command: doi:10.1016/j.parco.2011.08.005
- fix qeq/reaxff command: doi:10.1016/j.parco.2011.08.005
The log file lists these citations in BibTeX format.

CITE-CITE-CITE-CITE-CITE-CITE-CITE-CITE-CITE-CITE-CITE-CITE-CITE

Neighbor list info ...
  update: every = 10 steps, delay = 0 steps, check = yes
  max neighbors/atom: 2000, page size: 100000
  master list distance cutoff = 12
  ghost atom cutoff = 12
  binsize = 6, bins = 5 3 3
  2 neighbor lists, perpetual/occasional/extra = 2 0 0
  (1) pair reaxff, perpetual
      attributes: half, newton off, ghost
      pair build: half/bin/newtoff/ghost
      stencil: full/ghost/bin/3d
      bin: standard
  (2) fix qeq/reaxff, perpetual, copy from (1)
      attributes: half, newton off
      pair build: copy
      stencil: none
      bin: none
Setting up Verlet run ...
  Unit style    : real
  Current step  : 0
  Time step     : 0.5
Per MPI rank memory allocation (min/avg/max) = 127.2 | 129.5 | 131.4 Mbytes
   Step          Temp          PotEng         Press          Volume    
         0   300           -36976.766      388.61312      3964.6564    
       100   295.72387     -36978.286     -2084.7309      3964.2599    
       200   297.56373     -37006.772      1803.9905      3963.8635    
       300   270.99569     -36997.416      5745.8632      3963.467     
       400   276.73749     -36978.302     -55.267192      3963.0705    
       500   314.43738     -36994.204     -1576.2609      3962.6741    
       600   302.69036     -36986.259      44.705437      3962.2776    
       700   286.53545     -36982.532     -13121.409      3961.8811    
       800   286.47932     -37000.016      27.78114       3961.4847    
       900   301.25739     -37012.922      6649.6702      3961.0882    
      1000   304.4706      -36985.227      3873.926       3960.6917    
      1100   301.02256     -36975.891      1439.2003      3960.2953    
      1200   306.54919     -37003.02       6014.8444      3959.8988    
      1300   291.84826     -37000.6       -11000.531      3959.5023    
      1400   278.24664     -36986.361     -4179.7337      3959.1059    
      1500   305.57145     -36983.421      1025.7688      3958.7094    
      1600   320.64383     -36979.879      8613.4282      3958.3129    
      1700   302.17435     -36982.395      24957.482      3957.9165    
      1800   305.14695     -37004.71       9970.1716      3957.52      
      1900   298.64234     -37002.283      9885.5909      3957.1235    
      2000   275.80025     -36989.425     -2506.4969      3956.7271    
      2100   288.48921     -37038.304      12848.414      3956.3306    
      2200   290.1791      -37042.543      9287.494       3955.9341    
      2300   291.1992      -37013.88       13979.964      3955.5377    
      2400   317.50798     -37029.276      11910.953      3955.1412    
      2500   305.87119     -37023.351      176.13165      3954.7447    
      2600   284.39097     -37013.978      1554.7486      3954.3483    
      2700   287.01592     -37035.73      -4090.4738      3953.9518    
      2800   299.47263     -37051.165     -6288.2899      3953.5553    
      2900   297.34572     -37013.093     -4099.4569      3953.1589    
      3000   323.83831     -37028.482      2937.2396      3952.7624    
      3100   295.71835     -37005.302      1270.4544      3952.3659    
      3200   280.73686     -37012.918      13244.328      3951.9695    
      3300   310.87034     -37052.202      8112.2062      3951.573     
      3400   311.12928     -37030.264     -4854.6609      3951.1766    
      3500   321.03402     -37026.488     -2843.2086      3950.7801    
      3600   305.07714     -37023.244      2230.3989      3950.3836    
      3700   274.59094     -37014.322     -7552.4658      3949.9872    
      3800   281.93801     -37027.131      3040.8319      3949.5907    
      3900   311.59076     -37017.66       15227.186      3949.1942    
      4000   289.93852     -36991.285      6026.8468      3948.7978    
      4100   311.03827     -37027.761     -614.90376      3948.4013    
      4200   287.74168     -37029.852     -3958.1883      3948.0048    
      4300   285.10817     -37032.001      2261.9885      3947.6084    
      4400   313.7387      -37049.889      19414.742      3947.2119    
      4500   293.39718     -37030.454      7129.8161      3946.8154    
      4600   303.62574     -37060.263      3641.9919      3946.419     
      4700   276.81595     -37070.894      7987.1229      3946.0225    
      4800   297.71372     -37084.573      1156.8868      3945.626     
      4900   295.65509     -37058.908      16803.649      3945.2296    
      5000   299.08607     -37042.214     -816.56232      3944.8331    
      5100   308.38912     -37055.82       7027.5973      3944.4366    
      5200   292.46403     -37046.95      -9430.9013      3944.0402    
      5300   309.31302     -37083.856      6627.8625      3943.6437    
      5400   275.93161     -37081.378      2982.9273      3943.2472    
      5500   301.79222     -37095.474      889.02503      3942.8508    
      5600   294.66431     -37069.764      9383.7811      3942.4543    
      5700   277.51389     -37038.615     -1435.1316      3942.0578    
      5800   307.04369     -37058.571      9678.7571      3941.6614    
      5900   312.00924     -37068.562      21026.002      3941.2649    
      6000   290.74108     -37062.378      5418.3404      3940.8684    
      6100   311.75454     -37101.926      12706.412      3940.472     
      6200   313.84067     -37105.475     -5298.6683      3940.0755    
      6300   311.07025     -37101.501     -377.99668      3939.679     
      6400   297.91935     -37085.863      2742.2645      3939.2826    
      6500   323.35354     -37083.508      6471.3112      3938.8861    
      6600   301.85692     -37056.395      2965.2868      3938.4897    
      6700   300.72055     -37078.935      6720.1288      3938.0932    
      6800   320.90389     -37123.386      18428.587      3937.6967    
      6900   270.66796     -37077.641      7725.7614      3937.3003    
      7000   306.53284     -37102.465     -825.43431      3936.9038    
      7100   294.08233     -37075.134      1214.2418      3936.5073    
      7200   304.08678     -37084.655      6001.7576      3936.1109    
      7300   335.00737     -37122.516      7496.5829      3935.7144    
      7400   287.28132     -37099.636      3853.1298      3935.3179    
      7500   297.93848     -37120.908      3950.3823      3934.9215    
      7600   312.65569     -37092.482      10914.208      3934.525     
      7700   309.82699     -37080.714      9297.2636      3934.1285    
      7800   314.83634     -37105.794      8055.9501      3933.7321    
      7900   266.49717     -37071.926      8472.7421      3933.3356    
      8000   292.69477     -37093.8       -755.38149      3932.9391    
      8100   322.80913     -37100.696     -3351.7728      3932.5427    
      8200   315.29827     -37075.058      1382.4769      3932.1462    
      8300   306.91891     -37082.67       14202.363      3931.7497    
      8400   297.91113     -37085.216      13996.591      3931.3533    
      8500   296.99575     -37086.979      8763.1409      3930.9568    
      8600   297.98838     -37088.738      8780.2246      3930.5603    
      8700   298.31479     -37089.854      10457.763      3930.1639    
      8800   321.3948      -37110.873      6839.9969      3929.7674    
      8900   317.0151      -37107.231      1778.9063      3929.3709    
      9000   283.61192     -37086.811      748.11524      3928.9745    
      9100   287.29046     -37097.071      6979.2334      3928.578     
      9200   296.06147     -37098.403     -1114.11        3928.1815    
      9300   319.78344     -37100.246      3747.4453      3927.7851    
      9400   300.94071     -37074.964     -3637.0672      3927.3886    
      9500   298.93004     -37100.422      11514.055      3926.9921    
      9600   290.46572     -37115.845      15151.299      3926.5957    
      9700   285.35474     -37105.429      18586.76       3926.1992    
      9800   296.38735     -37097.345      13860.109      3925.8028    
      9900   294.90943     -37087.452      3935.314       3925.4063    
     10000   315.3072      -37108.854      161.11902      3925.0098    
Loop time of 440.916 on 8 procs for 10000 steps with 362 atoms

Performance: 0.980 ns/day, 24.495 hours/ns, 22.680 timesteps/s, 8.210 katom-step/s
98.9% CPU use with 8 MPI tasks x 1 OpenMP threads

MPI task timing breakdown:
Section |  min time  |  avg time  |  max time  |%varavg| %total
---------------------------------------------------------------
Pair    | 272.16     | 340.84     | 387.71     | 244.1 | 77.30
Bond    | 0.027942   | 0.029779   | 0.031519   |   0.6 |  0.01
Neigh   | 3.5387     | 4.482      | 5.0988     |  28.6 |  1.02
Comm    | 8.5525     | 55.572     | 124.27     | 605.0 | 12.60
Output  | 0.034294   | 0.089019   | 0.20219    |  19.9 |  0.02
Modify  | 39.002     | 39.653     | 40.655     |  10.1 |  8.99
Other   |            | 0.2536     |            |       |  0.06

Nlocal:          45.25 ave          49 max          41 min
Histogram: 3 0 0 0 0 0 2 0 0 3
Nghost:        3360.12 ave        3384 max        3327 min
Histogram: 1 0 0 1 0 2 2 0 0 2
Neighs:          29097 ave       31454 max       26431 min
Histogram: 3 0 0 0 0 0 2 0 0 3

Total # of neighbors = 232776
Ave neighs/atom = 643.02762
Ave special neighs/atom = 0
Neighbor list builds = 168
Dangerous builds = 0
  using 1 OpenMP thread(s) per MPI task
Reading restart file ...
  restart file = 2 Aug 2023, LAMMPS = 2 Aug 2023
  restoring atom style full from restart
  triclinic box = (0 0 0) to (17.1722 13.1279 17.5867) with tilt (-8.382 0.0305 0.3027)
WARNING: Triclinic box skew is large. LAMMPS will run inefficiently. (src/domain.cpp:220)
  2 by 2 by 2 MPI processor grid
  pair style reaxff stores no restart info
  362 atoms
Finding 1-2 1-3 1-4 neighbors ...
  special bond factors lj:    0        0        0       
  special bond factors coul:  0        0        0       
     0 = max # of 1-2 neighbors
     0 = max # of 1-3 neighbors
     0 = max # of 1-4 neighbors
     1 = max # of special neighbors
  special bonds CPU = 0.000 seconds
  read_restart CPU = 0.003 seconds
*****Positive-deform 1 starts.*****
WARNING: Van der Waals parameters for element SI indicate inner wall+shielding, but earlier atoms indicate a different van der Waals method. This may cause division-by-zero errors. Keeping van der Waals setting for earlier atoms. (src/REAXFF/reaxff_ffield.cpp:251)
Neighbor list info ...
  update: every = 10 steps, delay = 0 steps, check = yes
  max neighbors/atom: 2000, page size: 100000
  master list distance cutoff = 12
  ghost atom cutoff = 12
  binsize = 6, bins = 5 3 3
  2 neighbor lists, perpetual/occasional/extra = 2 0 0
  (1) pair reaxff, perpetual
      attributes: half, newton off, ghost
      pair build: half/bin/newtoff/ghost
      stencil: full/ghost/bin/3d
      bin: standard
  (2) fix qeq/reaxff, perpetual, copy from (1)
      attributes: half, newton off
      pair build: copy
      stencil: none
      bin: none
Setting up Verlet run ...
  Unit style    : real
  Current step  : 0
  Time step     : 0.5
Per MPI rank memory allocation (min/avg/max) = 127.3 | 129.5 | 131.4 Mbytes
   Step          Temp          PotEng         Press          Volume    
         0   300           -36976.766      388.61312      3964.6564    
       100   295.70729     -36978.286     -2072.6937      3965.0529    
       200   297.88049     -37006.77       1558.336       3965.4493    
       300   271.25345     -36997.213      5680.7581      3965.8458    
       400   274.02034     -36974.95      -387.86489      3966.2422    
       500   314.48997     -36992.898     -1259.5407      3966.6387    
       600   310.04466     -36993.014     -244.31359      3967.0352    
       700   290.85512     -36986.081     -11568.443      3967.4316    
       800   279.2715      -36989.037      1559.8387      3967.8281    
       900   305.53718     -37019.958      6488.1893      3968.2246    
      1000   307.88368     -36997.5        4432.2235      3968.621     
      1100   293.835       -36967.15       1584.3739      3969.0175    
      1200   305.52224     -36991.049      7080.6605      3969.414     
      1300   302.21575     -37012.136     -3527.6258      3969.8104    
      1400   271.63281     -36997.497     -4341.2951      3970.2069    
      1500   283.03069     -36982.878     -1329.1463      3970.6034    
      1600   319.55218     -36992.285      12949.463      3970.9998    
      1700   312.42814     -36990.186      11468.09       3971.3963    
      1800   280.23826     -36977.699     -3909.4138      3971.7928    
      1900   270.37001     -36984.126      9596.7728      3972.1892    
      2000   296.93768     -37008.499     -5589.7812      3972.5857    
      2100   301.3479      -36970.536     -1551.8691      3972.9822    
      2200   326.27166     -36991.862      9467.5053      3973.3786    
      2300   293.69707     -36974.964      12239.042      3973.7751    
      2400   304.08611     -37002.554      5627.23        3974.1716    
      2500   300.99811     -37012.715     -12503.038      3974.568     
      2600   302.00775     -36999.608      413.0823       3974.9645    
      2700   298.39487     -36958.541      2190.2516      3975.361     
      2800   322.24757     -36982.132      2028.9904      3975.7574    
      2900   315.15268     -37003.691      4701.4023      3976.1539    
      3000   293.06544     -36989.747      1423.2658      3976.5504    
      3100   295.20559     -36994.682      5348.9553      3976.9468    
      3200   293.31547     -37002.238      3744.1568      3977.3433    
      3300   299.04358     -37008.573      6881.2132      3977.7398    
      3400   293.89255     -36983.863     -3803.5027      3978.1362    
      3500   315.89716     -36981.916      7930.5832      3978.5327    
      3600   322.87257     -36985.059      2194.3189      3978.9291    
      3700   300.81687     -36988.142      10140.284      3979.3256    
      3800   304.04935     -37010.474      6184.8197      3979.7221    
      3900   303.80669     -37010.93       13733.654      3980.1185    
      4000   310.05001     -37016.092      2886.4015      3980.515     
      4100   289.452       -37004.759      4310.9505      3980.9115    
      4200   272.64692     -37013.948      3384.4983      3981.3079    
      4300   276.30621     -37031.309      5475.5945      3981.7044    
      4400   297.98984     -37020.121      4443.0644      3982.1009    
      4500   302.89515     -37009.431     -120.88777      3982.4973    
      4600   285.47373     -36981.649     -1258.3855      3982.8938    
      4700   304.15259     -36992.183     -1008.6364      3983.2903    
      4800   317.56619     -37006.87      -4509.3537      3983.6867    
      4900   299.06996     -37015.984      863.2573       3984.0832    
      5000   294.93574     -37024.804      7897.0751      3984.4797    
      5100   293.57128     -37002.621     -6677.6367      3984.8761    
      5200   300.64267     -36995.737      4864.2334      3985.2726    
      5300   312.09771     -37019.899      4242.6985      3985.6691    
      5400   291.62374     -37009.854      3977.5402      3986.0655    
      5500   285.43496     -37006.314      17072.018      3986.462     
      5600   310.29547     -37035.199      12647.639      3986.8585    
      5700   299.85586     -37048.623      2907.7386      3987.2549    
      5800   285.71456     -37050.399     -1298.7213      3987.6514    
      5900   284.59044     -37040.015     -2028.4794      3988.0479    
      6000   319.5734      -37048.068      769.88182      3988.4443    
      6100   296.84459     -37018.693      3125.1122      3988.8408    
      6200   296.26816     -37021.645      1286.7581      3989.2373    
      6300   292.70229     -37040.231     -3588.2928      3989.6337    
      6400   256.58387     -37031.175      6225.8374      3990.0302    
      6500   299.84603     -37068.334     -7406.5297      3990.4267    
      6600   314.89927     -37064.535     -12497.564      3990.8231    
      6700   288.59249     -37026.531      9589.2554      3991.2196    
      6800   309.69802     -37034.469      6182.5422      3991.616     
      6900   318.51801     -37023.353      10320.468      3992.0125    
      7000   316.77319     -37010.067      6139.0963      3992.409     
      7100   308.13842     -37028.2       -7801.9313      3992.8054    
      7200   303.87072     -37049.668     -9792.2245      3993.2019    
      7300   289.69241     -37038.337     -12960.779      3993.5984    
      7400   298.06497     -37049.201     -5085.9332      3993.9948    
      7500   305.90229     -37072.874      1782.9887      3994.3913    
      7600   280.51691     -37057.65      -6630.2547      3994.7878    
      7700   301.52935     -37062.046     -1855.0882      3995.1842    
      7800   321.26227     -37052.764      3504.4496      3995.5807    
      7900   307.07467     -37042.854     -1243.1364      3995.9772    
      8000   294.03331     -37053.245     -9.8779012      3996.3736    
      8100   300.64243     -37066.416     -9192.0364      3996.7701    
      8200   288.50156     -37051.342      10653.198      3997.1666    
      8300   297.33304     -37057.278      11096.589      3997.563     
      8400   308.25602     -37027.03       2779.5793      3997.9595    
      8500   313.80778     -37029.008     -10556.865      3998.356     
      8600   313.54784     -37061.413      7657.288       3998.7524    
      8700   307.26754     -37072.879     -5470.3585      3999.1489    
      8800   291.46645     -37061.281     -5563.266       3999.5454    
      8900   278.01677     -37049.65      -2298.5433      3999.9418    
      9000   299.95948     -37042.256     -3354.579       4000.3383    
      9100   314.49031     -37043.479     -9820.1757      4000.7348    
      9200   300.10985     -37050.703     -11272.043      4001.1312    
      9300   307.45446     -37072.064     -4310.486       4001.5277    
      9400   295.84508     -37056.17       5140.4762      4001.9242    
      9500   305.67617     -37056.915      3191.5617      4002.3206    
      9600   338.03684     -37068.458      3672.3215      4002.7171    
      9700   320.77674     -37069.711      1551.3556      4003.1136    
      9800   276.86314     -37054.14      -7771.5392      4003.51      
      9900   288.43905     -37060.994     -8218.0336      4003.9065    
     10000   305.54511     -37063.301     -3771.8325      4004.3029    
Loop time of 437.641 on 8 procs for 10000 steps with 362 atoms

Performance: 0.987 ns/day, 24.313 hours/ns, 22.850 timesteps/s, 8.272 katom-step/s
98.8% CPU use with 8 MPI tasks x 1 OpenMP threads

MPI task timing breakdown:
Section |  min time  |  avg time  |  max time  |%varavg| %total
---------------------------------------------------------------
Pair    | 268.41     | 339.51     | 388.21     | 245.3 | 77.58
Bond    | 0.027      | 0.029502   | 0.031035   |   0.8 |  0.01
Neigh   | 3.221      | 4.1432     | 4.7293     |  27.5 |  0.95
Comm    | 4.8895     | 53.713     | 124.82     | 617.2 | 12.27
Output  | 0.034694   | 0.090726   | 0.20495    |  20.0 |  0.02
Modify  | 39.243     | 39.89      | 40.884     |   9.3 |  9.11
Other   |            | 0.2655     |            |       |  0.06

Nlocal:          45.25 ave          51 max          36 min
Histogram: 1 0 1 1 0 0 1 0 1 3
Nghost:        3313.25 ave        3359 max        3270 min
Histogram: 1 2 1 0 0 0 0 2 1 1
Neighs:        28514.5 ave       32062 max       22918 min
Histogram: 1 0 1 1 0 0 1 0 1 3

Total # of neighbors = 228116
Ave neighs/atom = 630.1547
Ave special neighs/atom = 0
Neighbor list builds = 154
Dangerous builds = 0
  using 1 OpenMP thread(s) per MPI task
Reading restart file ...
  restart file = 2 Aug 2023, LAMMPS = 2 Aug 2023
  restoring atom style full from restart
  triclinic box = (0 0 0) to (17.1722 13.1279 17.5867) with tilt (-8.382 0.0305 0.3027)
WARNING: Triclinic box skew is large. LAMMPS will run inefficiently. (src/domain.cpp:220)
  2 by 2 by 2 MPI processor grid
  pair style reaxff stores no restart info
  362 atoms
Finding 1-2 1-3 1-4 neighbors ...
  special bond factors lj:    0        0        0       
  special bond factors coul:  0        0        0       
     0 = max # of 1-2 neighbors
     0 = max # of 1-3 neighbors
     0 = max # of 1-4 neighbors
     1 = max # of special neighbors
  special bonds CPU = 0.000 seconds
  read_restart CPU = 0.004 seconds
*****debug*****
xy = -8.3819999999999996732, deltaxy = 0.08382
xz = 0.030499999999999999334, deltaxz = -0.000305
yz = 0.3027000000000000246, deltayz = -0.003027
*****
*****Negative-deform 2 starts.*****
WARNING: Van der Waals parameters for element SI indicate inner wall+shielding, but earlier atoms indicate a different van der Waals method. This may cause division-by-zero errors. Keeping van der Waals setting for earlier atoms. (src/REAXFF/reaxff_ffield.cpp:251)
Neighbor list info ...
  update: every = 10 steps, delay = 0 steps, check = yes
  max neighbors/atom: 2000, page size: 100000
  master list distance cutoff = 12
  ghost atom cutoff = 12
  binsize = 6, bins = 5 3 3
  2 neighbor lists, perpetual/occasional/extra = 2 0 0
  (1) pair reaxff, perpetual
      attributes: half, newton off, ghost
      pair build: half/bin/newtoff/ghost
      stencil: full/ghost/bin/3d
      bin: standard
  (2) fix qeq/reaxff, perpetual, copy from (1)
      attributes: half, newton off
      pair build: copy
      stencil: none
      bin: none
Setting up Verlet run ...
  Unit style    : real
  Current step  : 0
  Time step     : 0.5
Per MPI rank memory allocation (min/avg/max) = 127.2 | 129.5 | 131.4 Mbytes
   Step          Temp          PotEng         Press          Volume    
         0   300           -36976.766      388.61312      3964.6564    
       100   295.71557     -36978.286     -2078.6111      3964.2599    
       200   297.61982     -37006.838      1947.9257      3963.8635    
       300   271.20522     -36997.452      6660.6921      3963.467     
       400   275.68565     -36976.855      152.55515      3963.0705    
       500   314.8694      -36994.033     -1081.3262      3962.6741    
       600   304.83267     -36988.089     -808.31841      3962.2776    
       700   286.37917     -36981.914     -11465.133      3961.8811    
       800   286.24596     -36998.124      2421.1129      3961.4847    
       900   304.98025     -37012.454      8662.749       3961.0882    
      1000   307.96568     -36982.177      4527.0993      3960.6917    
      1100   292.43876     -36964.84       3157.1416      3960.2953    
      1200   305.8591      -37004.262      9614.6755      3959.8988    
      1300   286.57965     -36991.871     -13938.114      3959.5023    
      1400   281.51476     -36979.98      -5222.71        3959.1059    
      1500   302.68713     -36996.916      281.3557       3958.7094    
      1600   294.24196     -36987.528      13619.536      3958.3129    
      1700   273.25877     -36975.694      10434.694      3957.9165    
      1800   295.32317     -37023.4        4261.7712      3957.52      
      1900   284.19956     -37026.046      3187.7716      3957.1235    
      2000   299.62097     -37021.19      -3329.3193      3956.7271    
      2100   302.03824     -36996.327      14537.783      3956.3306    
      2200   315.0957      -37006.635      5437.6856      3955.9341    
      2300   294.00504     -36994.675      4236.542       3955.5377    
      2400   300.04171     -37023.58      -3083.5964      3955.1412    
      2500   288.15452     -37036.413     -61.866658      3954.7447    
      2600   309.03934     -37043.526      8561.2264      3954.3483    
      2700   304.65894     -37008.641     -867.90193      3953.9518    
      2800   305.60891     -37006.714     -2026.125       3953.5553    
      2900   293.93297     -37011.127     -7686.8275      3953.1589    
      3000   305.94514     -37043.573     -1151.1046      3952.7624    
      3100   272.41594     -37017.619     -5596.0676      3952.3659    
      3200   311.00273     -37041.075      9108.0363      3951.9695    
      3300   298.4747      -36990.591      1091.2125      3951.573     
      3400   309.30647     -36998.063      2273.8239      3951.1766    
      3500   303.61225     -37012.97       4316.415       3950.7801    
      3600   300.05835     -37025.807      8976.2005      3950.3836    
      3700   304.18146     -37033.469      11159.97       3949.9872    
      3800   305.47396     -37025.697      14850.982      3949.5907    
      3900   324.28991     -37004.172      10576.812      3949.1942    
      4000   297.46389     -36967.704     -323.88438      3948.7978    
      4100   332.13351     -37024.629      6600.7575      3948.4013    
      4200   298.12365     -37017.16       2796.2763      3948.0048    
      4300   274.53562     -36992.971      1048.0064      3947.6084    
      4400   299.54207     -37011.748      4290.5044      3947.2119    
      4500   319.36779     -37012.688      15422.505      3946.8154    
      4600   309.76479     -36978.102      1172.4208      3946.419     
      4700   307.28393     -37004.251      6570.8503      3946.0225    
      4800   314.44799     -37040.523      1070.1708      3945.626     
      4900   323.75645     -37059.292      12167.622      3945.2296    
      5000   300.48857     -37037.522      2314.3091      3944.8331    
      5100   281.29945     -37028.055      1432.3144      3944.4366    
      5200   304.92337     -37059.18       1316.3839      3944.0402    
      5300   288.25621     -37031.2        15479.743      3943.6437    
      5400   325.82541     -37059.362      16236.623      3943.2472    
      5500   327.45733     -37070.418      4051.6204      3942.8508    
      5600   283.07971     -37060.063      7570.3046      3942.4543    
      5700   297.46736     -37083.093      9683.3452      3942.0578    
      5800   291.96861     -37067.242      9087.0838      3941.6614    
      5900   303.25883     -37053.086      4991.6326      3941.2649    
      6000   320.08633     -37058.399      6717.0047      3940.8684    
      6100   311.48414     -37068.181     -231.21426      3940.472     
      6200   316.77901     -37082.205     -6969.0456      3940.0755    
      6300   302.059       -37084.46      -1634.2318      3939.679     
      6400   294.60555     -37090.456     -749.90853      3939.2826    
      6500   294.36015     -37094.833      5600.729       3938.8861    
      6600   305.94879     -37107.595      1013.4791      3938.4897    
      6700   284.67643     -37061.895     -901.13984      3938.0932    
      6800   304.50406     -37066.822     -6153.3535      3937.6967    
      6900   312.26419     -37081.976      6292.7428      3937.3003    
      7000   292.22213     -37093.534      7494.8133      3936.9038    
      7100   297.42784     -37106.508      7956.8077      3936.5073    
      7200   288.72053     -37085.284     -3758.0699      3936.1109    
      7300   307.6807      -37095.053      7636.7199      3935.7144    
      7400   300.56887     -37079.832      14404.129      3935.3179    
      7500   295.02706     -37082.294      23048.751      3934.9215    
      7600   286.60697     -37074.121      5794.3209      3934.525     
      7700   296.83978     -37078.863      7959.5342      3934.1285    
      7800   306.25013     -37106.654      8798.6601      3933.7321    
      7900   282.24647     -37113.164      9334.2917      3933.3356    
      8000   273.25708     -37093.976      11204.939      3932.9391    
      8100   296.01945     -37103.35       6437.5458      3932.5427    
      8200   303.74127     -37098.652     -1883.591       3932.1462    
      8300   305.1807      -37087.41      -2091.6642      3931.7497    
      8400   318.68227     -37081.584      9414.6646      3931.3533    
      8500   327.71104     -37068.974      11772.617      3930.9568    
      8600   324.6116      -37055.515      5596.4861      3930.5603    
      8700   337.28475     -37109.365      9733.156       3930.1639    
      8800   296.22599     -37085.714      22411.149      3929.7674    
      8900   284.1406      -37081.662      3704.6361      3929.3709    
      9000   302.57397     -37099.481      5726.9113      3928.9745    
      9100   291.87523     -37085.469      9600.2165      3928.578     
      9200   320.25846     -37092.004      5356.7045      3928.1815    
      9300   310.90959     -37071.811      3989.2792      3927.7851    
      9400   311.34672     -37095.732      5968.2454      3927.3886    
      9500   294.11315     -37106.17       4021.4907      3926.9921    
      9600   291.42002     -37103.604      20781.826      3926.5957    
      9700   290.93697     -37088.823      7376.0516      3926.1992    
      9800   298.35435     -37080.994     -237.40072      3925.8028    
      9900   296.8787      -37078.555      6094.0537      3925.4063    
     10000   305.31458     -37092.073      9788.4706      3925.0098    
Loop time of 441.867 on 8 procs for 10000 steps with 362 atoms

Performance: 0.978 ns/day, 24.548 hours/ns, 22.631 timesteps/s, 8.193 katom-step/s
98.8% CPU use with 8 MPI tasks x 1 OpenMP threads

MPI task timing breakdown:
Section |  min time  |  avg time  |  max time  |%varavg| %total
---------------------------------------------------------------
Pair    | 268.5      | 350.55     | 392.09     | 235.4 | 79.33
Bond    | 0.02803    | 0.029497   | 0.030809   |   0.6 |  0.01
Neigh   | 3.4504     | 4.5941     | 5.2743     |  30.0 |  1.04
Comm    | 5.5488     | 47.063     | 129.11     | 642.0 | 10.65
Output  | 0.0342     | 0.083182   | 0.18274    |  18.2 |  0.02
Modify  | 38.469     | 39.26      | 40.524     |  11.6 |  8.89
Other   |            | 0.2826     |            |       |  0.06

Nlocal:          45.25 ave          52 max          40 min
Histogram: 2 0 0 1 1 2 1 0 0 1
Nghost:        3362.38 ave        3377 max        3338 min
Histogram: 1 0 0 0 1 0 3 1 1 1
Neighs:        29123.8 ave       33349 max       25889 min
Histogram: 2 0 0 1 3 0 1 0 0 1

Total # of neighbors = 232990
Ave neighs/atom = 643.61878
Ave special neighs/atom = 0
Neighbor list builds = 163
Dangerous builds = 0
  using 1 OpenMP thread(s) per MPI task
Reading restart file ...
  restart file = 2 Aug 2023, LAMMPS = 2 Aug 2023
  restoring atom style full from restart
  triclinic box = (0 0 0) to (17.1722 13.1279 17.5867) with tilt (-8.382 0.0305 0.3027)
WARNING: Triclinic box skew is large. LAMMPS will run inefficiently. (src/domain.cpp:220)
  2 by 2 by 2 MPI processor grid
  pair style reaxff stores no restart info
  362 atoms
Finding 1-2 1-3 1-4 neighbors ...
  special bond factors lj:    0        0        0       
  special bond factors coul:  0        0        0       
     0 = max # of 1-2 neighbors
     0 = max # of 1-3 neighbors
     0 = max # of 1-4 neighbors
     1 = max # of special neighbors
  special bonds CPU = 0.000 seconds
  read_restart CPU = 0.005 seconds
*****Positive-deform 2 starts.*****
WARNING: Van der Waals parameters for element SI indicate inner wall+shielding, but earlier atoms indicate a different van der Waals method. This may cause division-by-zero errors. Keeping van der Waals setting for earlier atoms. (src/REAXFF/reaxff_ffield.cpp:251)
Neighbor list info ...
  update: every = 10 steps, delay = 0 steps, check = yes
  max neighbors/atom: 2000, page size: 100000
  master list distance cutoff = 12
  ghost atom cutoff = 12
  binsize = 6, bins = 5 3 3
  2 neighbor lists, perpetual/occasional/extra = 2 0 0
  (1) pair reaxff, perpetual
      attributes: half, newton off, ghost
      pair build: half/bin/newtoff/ghost
      stencil: full/ghost/bin/3d
      bin: standard
  (2) fix qeq/reaxff, perpetual, copy from (1)
      attributes: half, newton off
      pair build: copy
      stencil: none
      bin: none
Setting up Verlet run ...
  Unit style    : real
  Current step  : 0
  Time step     : 0.5
Per MPI rank memory allocation (min/avg/max) = 127.3 | 129.5 | 131.4 Mbytes
   Step          Temp          PotEng         Press          Volume    
         0   300           -36976.766      388.61312      3964.6564    
       100   295.71556     -36978.286     -2078.3098      3965.0529    
       200   297.64251     -37006.786      1523.8006      3965.4493    
       300   270.88941     -36997.146      5133.5538      3965.8458    
       400   276.22079     -36977.603     -514.07782      3966.2422    
       500   315.39639     -36994.586     -2916.3144      3966.6387    
       600   305.22145     -36988.639     -389.50684      3967.0352    
       700   285.59788     -36981.259     -7594.8338      3967.4316    
       800   286.02918     -36998.634      1071.8534      3967.8281    
       900   301.28462     -37018.325      9034.4933      3968.2246    
      1000   299.87478     -36988.276      1538.0039      3968.621     
      1100   305.09995     -36981.716     -3047.3118      3969.0175    
      1200   312.20076     -37003.717      14250.589      3969.414     
      1300   280.99983     -36990.677     -8820.4746      3969.8104    
      1400   286.28733     -37000.983     -2685.9682      3970.2069    
      1500   306.93453     -36988.201     -2134.9325      3970.6034    
      1600   316.14057     -36978.069      9495.1921      3970.9998    
      1700   321.24646     -36997.409      15293.535      3971.3963    
      1800   308.27104     -37012.924      3379.1875      3971.7928    
      1900   287.5829      -37007.788      4139.5839      3972.1892    
      2000   296.80285     -37021.798      11799.496      3972.5857    
      2100   308.26894     -37024.965     -2546.503       3972.9822    
      2200   313.55337     -37014.184      4768.7712      3973.3786    
      2300   328.46231     -37032.949      4967.947       3973.7751    
      2400   317.51863     -37060.657     -12765.582      3974.1716    
      2500   296.71298     -37052         -6475.8585      3974.568     
      2600   290.74786     -37043.605     -5125.8563      3974.9645    
      2700   314.5039      -37065.125     -5181.776       3975.361     
      2800   285.07668     -37041.188     -12871.502      3975.7574    
      2900   305.36469     -37073.009      4794.1262      3976.1539    
      3000   292.27121     -37068.374     -6619.5244      3976.5504    
      3100   296.36053     -37064.484     -7365.3311      3976.9468    
      3200   297.20337     -37037.63      -3351.1742      3977.3433    
      3300   293.61161     -37016.009     -798.48786      3977.7398    
      3400   310.46272     -37048.381      1574.2565      3978.1362    
      3500   340.04477     -37104.767      5571.5638      3978.5327    
      3600   309.33855     -37103.35      -9022.3048      3978.9291    
      3700   289.26282     -37101.33      -8740.2658      3979.3256    
      3800   289.84321     -37106.275      3620.0126      3979.7221    
      3900   310.74625     -37130.096      4078.2794      3980.1185    
      4000   286.61772     -37102.691     -10361.036      3980.515     
      4100   312.12631     -37111.597      3534.5369      3980.9115    
      4200   298.53059     -37070.653      7126.3385      3981.3079    
      4300   325.80426     -37086.503      6219.5732      3981.7044    
      4400   308.39609     -37092.11      -10875.147      3982.1009    
      4500   301.88297     -37099.654     -7477.9753      3982.4973    
      4600   307.5009      -37114.564      5111.0186      3982.8938    
      4700   293.77386     -37114.472      10175.88       3983.2903    
      4800   309.49094     -37126.694      7698.0073      3983.6867    
      4900   289.30452     -37066.653      5261.89        3984.0832    
      5000   308.95594     -37080.476      2130.9863      3984.4797    
      5100   304.06284     -37088.867      5852.7915      3984.8761    
      5200   282.93541     -37092.733      9706.6934      3985.2726    
      5300   295.29038     -37126.963      8456.4298      3985.6691    
      5400   304.45749     -37133.921      8616.3233      3986.0655    
      5500   300.28193     -37124.585      2095.9769      3986.462     
      5600   303.60177     -37107.302     -1177.6258      3986.8585    
      5700   301.93549     -37097.397     -431.59078      3987.2549    
      5800   287.68948     -37113.496      2267.4375      3987.6514    
      5900   282.72672     -37128.829     -5083.6266      3988.0479    
      6000   281.97386     -37111.795      8589.9956      3988.4443    
      6100   306.93272     -37123.736      9621.1052      3988.8408    
      6200   292.44954     -37098.658      2302.5676      3989.2373    
      6300   302.65522     -37106.048     -1944.9455      3989.6337    
      6400   303.59358     -37118.304      265.04727      3990.0302    
      6500   296.52152     -37135.731      5333.3368      3990.4267    
      6600   294.05683     -37137.446     -14432.163      3990.8231    
      6700   293.50667     -37112.547     -17287.955      3991.2196    
      6800   299.7771      -37095.703     -2539.018       3991.616     
      6900   303.89142     -37100.517      4147.3587      3992.0125    
      7000   297.81103     -37111.314      5589.3141      3992.409     
      7100   304.47947     -37124.191     -1782.74        3992.8054    
      7200   296.07938     -37114.366      6079.885       3993.2019    
      7300   306.53018     -37127.19       10609.897      3993.5984    
      7400   283.19531     -37127.17       13553.114      3993.9948    
      7500   301.78609     -37148.888     -4328.7447      3994.3913    
      7600   296.9494      -37114.549      3956.9907      3994.7878    
      7700   309.03778     -37114.659     -19555.737      3995.1842    
      7800   307.95678     -37116.208     -9666.0409      3995.5807    
      7900   276.65176     -37113.232     -4708.6575      3995.9772    
      8000   297.08513     -37151.484     -2415.0374      3996.3736    
      8100   295.55689     -37135.847      1245.4799      3996.7701    
      8200   316.56342     -37136.093     -6861.3732      3997.1666    
      8300   304.83627     -37115.647     -5540.9923      3997.563     
      8400   304.50391     -37108.414     -3649.889       3997.9595    
      8500   297.83703     -37118.278      2996.2366      3998.356     
      8600   296.18797     -37151.509      14610.233      3998.7524    
      8700   305.74942     -37156.498      2846.2075      3999.1489    
      8800   295.97838     -37126.352     -2167.5093      3999.5454    
      8900   284.28163     -37104.851     -14335.796      3999.9418    
      9000   296.64011     -37112.425     -1556.1097      4000.3383    
      9100   297.15586     -37109.967     -7107.5066      4000.7348    
      9200   279.37798     -37094.953      5162.3268      4001.1312    
      9300   305.37296     -37129.318     -1196.7094      4001.5277    
      9400   282.73088     -37117.68       939.84445      4001.9242    
      9500   287.83172     -37135.064     -4806.6035      4002.3206    
      9600   291.2729      -37125.8        1249.702       4002.7171    
      9700   304.19642     -37115.936      6236.781       4003.1136    
      9800   308.53295     -37111.649      4851.1503      4003.51      
      9900   316.36119     -37121.349     -3681.799       4003.9065    
     10000   296.62651     -37131.124     -4924.7807      4004.3029    
Loop time of 437.021 on 8 procs for 10000 steps with 362 atoms

Performance: 0.989 ns/day, 24.279 hours/ns, 22.882 timesteps/s, 8.283 katom-step/s
98.8% CPU use with 8 MPI tasks x 1 OpenMP threads

MPI task timing breakdown:
Section |  min time  |  avg time  |  max time  |%varavg| %total
---------------------------------------------------------------
Pair    | 276.35     | 348.23     | 384.61     | 205.2 | 79.68
Bond    | 0.027893   | 0.029215   | 0.030217   |   0.4 |  0.01
Neigh   | 3.4555     | 4.4302     | 5.0873     |  26.3 |  1.01
Comm    | 9.1239     | 45.499     | 117.4      | 567.6 | 10.41
Output  | 0.034277   | 0.085338   | 0.19121    |  19.0 |  0.02
Modify  | 37.69      | 38.463     | 39.505     |  10.1 |  8.80
Other   |            | 0.2814     |            |       |  0.06

Nlocal:          45.25 ave          54 max          36 min
Histogram: 1 1 0 1 0 2 0 1 1 1
Nghost:        3293.62 ave        3309 max        3277 min
Histogram: 3 0 0 0 0 0 1 2 0 2
Neighs:        28516.4 ave       33636 max       23025 min
Histogram: 1 1 0 0 2 1 0 1 1 1

Total # of neighbors = 228131
Ave neighs/atom = 630.19613
Ave special neighs/atom = 0
Neighbor list builds = 160
Dangerous builds = 0
  using 1 OpenMP thread(s) per MPI task
Reading restart file ...
  restart file = 2 Aug 2023, LAMMPS = 2 Aug 2023
  restoring atom style full from restart
  triclinic box = (0 0 0) to (17.1722 13.1279 17.5867) with tilt (-8.382 0.0305 0.3027)
WARNING: Triclinic box skew is large. LAMMPS will run inefficiently. (src/domain.cpp:220)
  2 by 2 by 2 MPI processor grid
  pair style reaxff stores no restart info
  362 atoms
Finding 1-2 1-3 1-4 neighbors ...
  special bond factors lj:    0        0        0       
  special bond factors coul:  0        0        0       
     0 = max # of 1-2 neighbors
     0 = max # of 1-3 neighbors
     0 = max # of 1-4 neighbors
     1 = max # of special neighbors
  special bonds CPU = 0.000 seconds
  read_restart CPU = 0.003 seconds
*****debug*****
xy = -8.3819999999999996732, deltaxy = 0.08382
xz = 0.030499999999999999334, deltaxz = -0.000305
yz = 0.3027000000000000246, deltayz = -0.003027
*****
*****Negative-deform 3 starts.*****
WARNING: Van der Waals parameters for element SI indicate inner wall+shielding, but earlier atoms indicate a different van der Waals method. This may cause division-by-zero errors. Keeping van der Waals setting for earlier atoms. (src/REAXFF/reaxff_ffield.cpp:251)
Neighbor list info ...
  update: every = 10 steps, delay = 0 steps, check = yes
  max neighbors/atom: 2000, page size: 100000
  master list distance cutoff = 12
  ghost atom cutoff = 12
  binsize = 6, bins = 5 3 3
  2 neighbor lists, perpetual/occasional/extra = 2 0 0
  (1) pair reaxff, perpetual
      attributes: half, newton off, ghost
      pair build: half/bin/newtoff/ghost
      stencil: full/ghost/bin/3d
      bin: standard
  (2) fix qeq/reaxff, perpetual, copy from (1)
      attributes: half, newton off
      pair build: copy
      stencil: none
      bin: none
Setting up Verlet run ...
  Unit style    : real
  Current step  : 0
  Time step     : 0.5
Per MPI rank memory allocation (min/avg/max) = 127.2 | 129.5 | 131.4 Mbytes
   Step          Temp          PotEng         Press          Volume    
         0   300           -36976.766      388.61312      3964.6564    
       100   295.71659     -36978.29      -2078.3049      3964.2599    
       200   297.51763     -37006.686      1833.2239      3963.8635    
       300   270.97378     -36997.271      5959.1433      3963.467     
       400   276.4561      -36977.588     -165.83072      3963.0705    
       500   314.66157     -36993.589     -1292.3806      3962.6741    
       600   303.18867     -36986.873      700.94205      3962.2776    
       700   285.11842     -36981.89      -11256.805      3961.8811    
       800   289.97038     -37002.495      1163.9282      3961.4847    
       900   299.76892     -37009.3        10318.874      3961.0882    
      1000   301.71791     -36977.752      692.21948      3960.6917    
      1100   300.91057     -36973.983      3411.3724      3960.2953    
      1200   309.77885     -37004.187      12728.812      3959.8988    
      1300   287.40281     -36991.77      -7120.5826      3959.5023    
      1400   289.4105      -36990.421     -6612.7047      3959.1059    
      1500   321.45188     -36993.197      1992.1492      3958.7094    
      1600   320.4385      -36975.381      5035.0848      3958.3129    
      1700   305.81807     -36975.41       14953.014      3957.9165    
      1800   300.7049      -37002.474      9847.2517      3957.52      
      1900   313.85834     -37035.454      4539.7445      3957.1235    
      2000   273.20346     -37012.1        1044.2571      3956.7271    
      2100   283.67891     -37029.723      1082.3608      3956.3306    
      2200   296.92999     -37034.784     -6334.8414      3955.9341    
      2300   315.68765     -37018.811      6881.2384      3955.5377    
      2400   332.52802     -37036.753      10211.29       3955.1412    
      2500   303.00507     -37037.424      11133.963      3954.7447    
      2600   308.38871     -37055.971     -5004.782       3954.3483    
      2700   301.06638     -37067.655     -1574.9764      3953.9518    
      2800   299.85549     -37082.958      2891.9381      3953.5553    
      2900   285.47809     -37077.487      2953.3472      3953.1589    
      3000   281.68275     -37060.211      4414.0358      3952.7624    
      3100   300.1808      -37041.037      2433.7179      3952.3659    
      3200   302.96927     -37036.71       3204.6163      3951.9695    
      3300   328.61251     -37084.023      6494.5772      3951.573     
      3400   300.83254     -37077.135      6287.7996      3951.1766    
      3500   278.03289     -37057.611     -4489.6594      3950.7801    
      3600   304.1364      -37071.206      10629.812      3950.3836    
      3700   318.81119     -37062.344     -1217.3961      3949.9872    
      3800   310.21205     -37019.102      11372.595      3949.5907    
      3900   331.46612     -37056.383      7009.3769      3949.1942    
      4000   307.19904     -37050.686      22893.236      3948.7978    
      4100   308.66879     -37069.98       7300.3029      3948.4013    
      4200   289.22909     -37073.302      15313.729      3948.0048    
      4300   297.87904     -37090.357      12943.472      3947.6084    
      4400   290.91467     -37085.224      9510.4934      3947.2119    
      4500   331.55051     -37086.413      1105.9033      3946.8154    
      4600   306.42767     -37053.074     -5580.8093      3946.419     
      4700   321.29323     -37085.73      -10518.661      3946.0225    
      4800   292.1178      -37080.774     -11637.181      3945.626     
      4900   303.79428     -37098.697      10442.858      3945.2296    
      5000   299.27141     -37089.127      12044.633      3944.8331    
      5100   306.72907     -37093.054      16116.358      3944.4366    
      5200   298.55539     -37067.505      22317.303      3944.0402    
      5300   319.54172     -37063.995      2129.1161      3943.6437    
      5400   307.75553     -37066.857     -5447.3743      3943.2472    
      5500   299.87222     -37083.973      7192.4413      3942.8508    
      5600   297.36184     -37089.078      50.700041      3942.4543    
      5700   309.54646     -37112.302      16225.959      3942.0578    
      5800   270.48171     -37076.268      11500.602      3941.6614    
      5900   302.79621     -37096.104     -979.9567       3941.2649    
      6000   325.26988     -37081.106      9632.5598      3940.8684    
      6100   307.40469     -37074.086      1520.4927      3940.472     
      6200   303.77688     -37099.678     -3244.8585      3940.0755    
      6300   287.56453     -37098.782      2973.0472      3939.679     
      6400   286.91334     -37102.626      12774.412      3939.2826    
      6500   305.94353     -37103.97       4809.12        3938.8861    
      6600   318.32371     -37080.14       339.52091      3938.4897    
      6700   309.44865     -37072.965     -4082.6882      3938.0932    
      6800   313.83073     -37100.083      6228.4388      3937.6967    
      6900   300.04031     -37105.892      5771.9792      3937.3003    
      7000   303.46092     -37121.659      19557.427      3936.9038    
      7100   286.27496     -37105.52       15450.312      3936.5073    
      7200   302.65154     -37097.305      1780.0228      3936.1109    
      7300   319.70428     -37093.086     -3613.2129      3935.7144    
      7400   307.17267     -37092.714     -3599.0949      3935.3179    
      7500   298.59276     -37106.598     -859.87984      3934.9215    
      7600   282.49105     -37110.431     -6248.1135      3934.525     
      7700   306.23769     -37136.439      3466.3313      3934.1285    
      7800   294.4844      -37111.4        12077.89       3933.7321    
      7900   296.37415     -37092.733      15592.553      3933.3356    
      8000   321.58869     -37106.168      388.3009       3932.9391    
      8100   306.00558     -37096.133      9929.735       3932.5427    
      8200   299.33048     -37117.791      3245.8153      3932.1462    
      8300   273.53751     -37101.984     -2211.7989      3931.7497    
      8400   281.87657     -37080.184      10778.454      3931.3533    
      8500   303.87589     -37086.859      14067.448      3930.9568    
      8600   309.65878     -37108.492      4185.2742      3930.5603    
      8700   278.62814     -37091.792      5106.5814      3930.1639    
      8800   295.83302     -37121.336      17961.969      3929.7674    
      8900   303.66453     -37129.282      1165.9917      3929.3709    
      9000   297.79634     -37087.109      7375.6039      3928.9745    
      9100   306.27649     -37085.47       48.042583      3928.578     
      9200   284.01907     -37081.531     -1203.2389      3928.1815    
      9300   293.32726     -37113.675      3942.0797      3927.7851    
      9400   300.26015     -37122.224      4838.5884      3927.3886    
      9500   279.50788     -37088.603      2980.3543      3926.9921    
      9600   301.00026     -37099.292      6010.6286      3926.5957    
      9700   315.98695     -37068.562      5579.2227      3926.1992    
      9800   315.49743     -37067.776      2413.8451      3925.8028    
      9900   318.94677     -37105.173     -12383.541      3925.4063    
     10000   296.32733     -37098.798      11296.504      3925.0098    
Loop time of 445.554 on 8 procs for 10000 steps with 362 atoms

Performance: 0.970 ns/day, 24.753 hours/ns, 22.444 timesteps/s, 8.125 katom-step/s
98.9% CPU use with 8 MPI tasks x 1 OpenMP threads

MPI task timing breakdown:
Section |  min time  |  avg time  |  max time  |%varavg| %total
---------------------------------------------------------------
Pair    | 308.23     | 365.37     | 393.47     | 150.3 | 82.00
Bond    | 0.027538   | 0.029264   | 0.030892   |   0.6 |  0.01
Neigh   | 4.0146     | 4.8211     | 5.4112     |  21.6 |  1.08
Comm    | 6.5709     | 34.668     | 91.826     | 487.3 |  7.78
Output  | 0.032354   | 0.080776   | 0.18035    |  18.4 |  0.02
Modify  | 39.582     | 40.3       | 41.185     |   8.7 |  9.04
Other   |            | 0.2815     |            |       |  0.06

Nlocal:          45.25 ave          52 max          34 min
Histogram: 1 0 0 1 0 0 3 1 1 1
Nghost:        3358.12 ave        3391 max        3307 min
Histogram: 1 0 1 2 0 0 0 0 0 4
Neighs:        29087.8 ave       33314 max       22174 min
Histogram: 1 0 0 1 0 0 3 1 1 1

Total # of neighbors = 232702
Ave neighs/atom = 642.8232
Ave special neighs/atom = 0
Neighbor list builds = 167
Dangerous builds = 0
  using 1 OpenMP thread(s) per MPI task
Reading restart file ...
  restart file = 2 Aug 2023, LAMMPS = 2 Aug 2023
  restoring atom style full from restart
  triclinic box = (0 0 0) to (17.1722 13.1279 17.5867) with tilt (-8.382 0.0305 0.3027)
WARNING: Triclinic box skew is large. LAMMPS will run inefficiently. (src/domain.cpp:220)
  2 by 2 by 2 MPI processor grid
  pair style reaxff stores no restart info
  362 atoms
Finding 1-2 1-3 1-4 neighbors ...
  special bond factors lj:    0        0        0       
  special bond factors coul:  0        0        0       
     0 = max # of 1-2 neighbors
     0 = max # of 1-3 neighbors
     0 = max # of 1-4 neighbors
     1 = max # of special neighbors
  special bonds CPU = 0.000 seconds
  read_restart CPU = 0.003 seconds
*****Positive-deform 3 starts.*****
WARNING: Van der Waals parameters for element SI indicate inner wall+shielding, but earlier atoms indicate a different van der Waals method. This may cause division-by-zero errors. Keeping van der Waals setting for earlier atoms. (src/REAXFF/reaxff_ffield.cpp:251)
Neighbor list info ...
  update: every = 10 steps, delay = 0 steps, check = yes
  max neighbors/atom: 2000, page size: 100000
  master list distance cutoff = 12
  ghost atom cutoff = 12
  binsize = 6, bins = 5 3 3
  2 neighbor lists, perpetual/occasional/extra = 2 0 0
  (1) pair reaxff, perpetual
      attributes: half, newton off, ghost
      pair build: half/bin/newtoff/ghost
      stencil: full/ghost/bin/3d
      bin: standard
  (2) fix qeq/reaxff, perpetual, copy from (1)
      attributes: half, newton off
      pair build: copy
      stencil: none
      bin: none
Setting up Verlet run ...
  Unit style    : real
  Current step  : 0
  Time step     : 0.5
Per MPI rank memory allocation (min/avg/max) = 127.2 | 129.5 | 131.4 Mbytes
   Step          Temp          PotEng         Press          Volume    
         0   300           -36976.766      388.61312      3964.6564    
       100   295.71453     -36978.282     -2078.6599      3965.0529    
       200   297.72174     -37006.902      1650.5539      3965.4493    
       300   271.10775     -36997.278      5577.237       3965.8458    
       400   275.43521     -36976.82      -233.57759      3966.2422    
       500   314.99846     -36994.248     -1724.7884      3966.6387    
       600   305.40174     -36988.404      287.54028      3967.0352    
       700   287.89004     -36981.727     -10865.042      3967.4316    
       800   285.46421     -36996.169     -1006.5138      3967.8281    
       900   299.9669      -37020.28       10250.191      3968.2246    
      1000   298.36825     -37000.689      3588.8281      3968.621     
      1100   295.95567     -36978.584      1530.2281      3969.0175    
      1200   316.45116     -36997.129      18914.031      3969.414     
      1300   309.49625     -36993.358     -7124.5227      3969.8104    
      1400   280.72275     -36988.652     -158.70948      3970.2069    
      1500   294.26432     -37010.648     -322.70533      3970.6034    
      1600   324.43628     -37014.467      3533.7562      3970.9998    
      1700   308.93611     -36988.283      11600.796      3971.3963    
      1800   295.36185     -36987.552      4228.788       3971.7928    
      1900   301.56847     -37014.631      7051.168       3972.1892    
      2000   287.65055     -37007.37      -9214.9036      3972.5857    
      2100   289.7604      -37010.669      181.22131      3972.9822    
      2200   310.02504     -37025.484     -12405.449      3973.3786    
      2300   297.17452     -36997.299      1869.6177      3973.7751    
      2400   331.1037      -37009.029      1690.5533      3974.1716    
      2500   314.60409     -37000.714     -896.57983      3974.568     
      2600   293.335       -37009.924      9240.3281      3974.9645    
      2700   310.57348     -37042.616      12124.304      3975.361     
      2800   286.68364     -37018.953      3010.3173      3975.7574    
      2900   291.50586     -37005.307      464.62269      3976.1539    
      3000   302.06751     -36988.929     -6097.1018      3976.5504    
      3100   307.69384     -37011.1       -1105.6584      3976.9468    
      3200   314.31018     -37041.999      4215.0277      3977.3433    
      3300   310.17684     -37053.752      5841.5528      3977.7398    
      3400   296.14694     -37047.492      4718.8374      3978.1362    
      3500   284.59805     -37035.651      6439.2368      3978.5327    
      3600   301.57753     -37039.75      -3963.6446      3978.9291    
      3700   313.11441     -37022.778      6356.3457      3979.3256    
      3800   313.67711     -37029.278      2133.9917      3979.7221    
      3900   293.83173     -37036.834     -2678.7657      3980.1185    
      4000   293.79389     -37038.794     -2029.7053      3980.515     
      4100   312.01105     -37058.506     -111.92165      3980.9115    
      4200   306.69906     -37043.089      4274.3025      3981.3079    
      4300   301.55457     -37016.139      2910.9658      3981.7044    
      4400   331.45779     -37035.909      4678.4042      3982.1009    
      4500   282.42574     -37009.054      12224.712      3982.4973    
      4600   298.78055     -37050.209      19450.22       3982.8938    
      4700   314.63076     -37067.575      4909.5489      3983.2903    
      4800   298.79215     -37039.772     -5456.4238      3983.6867    
      4900   306.68166     -37019.485     -4287.1274      3984.0832    
      5000   332.79409     -37029.309      8864.9689      3984.4797    
      5100   295.8643      -37021.915      7345.8977      3984.8761    
      5200   297.92705     -37043.012     -5131.4522      3985.2726    
      5300   286.78122     -37041.135      4671.8758      3985.6691    
      5400   282.9557      -37036.987     -4860.241       3986.0655    
      5500   303.78842     -37041.978      8582.0952      3986.462     
      5600   326.41996     -37048.85      -3972.6933      3986.8585    
      5700   305.32274     -37041.59       6383.1137      3987.2549    
      5800   293.36298     -37062.489      295.37071      3987.6514    
      5900   294.86119     -37067.974     -10757.409      3988.0479    
      6000   297.81845     -37060.924      1264.7831      3988.4443    
      6100   308.2623      -37049.46       4777.566       3988.8408    
      6200   310.31952     -37048.925     -15558.604      3989.2373    
      6300   292.14434     -37070.705      3269.1976      3989.6337    
      6400   300.14491     -37081.365      5652.4223      3990.0302    
      6500   315.42037     -37081.92       1235.9143      3990.4267    
      6600   309.9587      -37055.647     -7877.3101      3990.8231    
      6700   296.59405     -37038.387      1449.3006      3991.2196    
      6800   305.27721     -37085.196     -9189.072       3991.616     
      6900   272.75345     -37069.952      64.40198       3992.0125    
      7000   292.7697      -37079.631      18129.812      3992.409     
      7100   297.90134     -37070.177      5740.2596      3992.8054    
      7200   320.90644     -37074.938      14124.67       3993.2019    
      7300   326.74386     -37060.631      10122.489      3993.5984    
      7400   312.32374     -37045.365      6571.6718      3993.9948    
      7500   309.93358     -37083.528      850.65988      3994.3913    
      7600   289.17261     -37072.968      8444.4344      3994.7878    
      7700   288.64549     -37069.396     -1963.0854      3995.1842    
      7800   300.39972     -37082.478      4366.0548      3995.5807    
      7900   292.70452     -37070.341     -6169.9393      3995.9772    
      8000   312.81753     -37088.909     -1452.7095      3996.3736    
      8100   299.86589     -37074.792      5941.6429      3996.7701    
      8200   302.93468     -37080.443      9648.4076      3997.1666    
      8300   290.01512     -37088.902      3239.9099      3997.563     
      8400   294.21541     -37105.924      9765.2996      3997.9595    
      8500   302.68606     -37091.88       35.008704      3998.356     
      8600   314.37303     -37074.777     -3961.9203      3998.7524    
      8700   308.11948     -37064.816      7535.8408      3999.1489    
      8800   294.49658     -37068.767      16075.082      3999.5454    
      8900   278.3469      -37068.716      8629.7522      3999.9418    
      9000   278.54816     -37068.551      8133.6383      4000.3383    
      9100   331.84809     -37084.884      7384.2221      4000.7348    
      9200   314.50754     -37057.812     -5257.5953      4001.1312    
      9300   306.31395     -37067.984     -9387.0211      4001.5277    
      9400   293.99382     -37073.954      1138.3468      4001.9242    
      9500   314.50452     -37105.079     -4239.2316      4002.3206    
      9600   297.7805      -37086.048      918.82167      4002.7171    
      9700   313.3886      -37097.154     -12001.255      4003.1136    
      9800   307.03509     -37063.079      1602.5902      4003.51      
      9900   317.71312     -37065.563      6314.3111      4003.9065    
     10000   300.64269     -37073.955     -8089.4032      4004.3029    
Loop time of 434.831 on 8 procs for 10000 steps with 362 atoms

Performance: 0.993 ns/day, 24.157 hours/ns, 22.997 timesteps/s, 8.325 katom-step/s
98.8% CPU use with 8 MPI tasks x 1 OpenMP threads

MPI task timing breakdown:
Section |  min time  |  avg time  |  max time  |%varavg| %total
---------------------------------------------------------------
Pair    | 283.9      | 362.73     | 385.57     | 169.5 | 83.42
Bond    | 0.027543   | 0.029837   | 0.030975   |   0.7 |  0.01
Neigh   | 3.6203     | 4.8956     | 5.4345     |  24.0 |  1.13
Comm    | 6.9551     | 29.85      | 108.5      | 589.7 |  6.86
Output  | 0.031338   | 0.07544    | 0.16621    |  17.3 |  0.02
Modify  | 36.351     | 36.964     | 38.371     |   9.8 |  8.50
Other   |            | 0.2901     |            |       |  0.07

Nlocal:          45.25 ave          54 max          37 min
Histogram: 3 0 0 0 0 2 0 1 1 1
Nghost:        3292.75 ave        3331 max        3256 min
Histogram: 3 0 0 0 1 0 0 1 2 1
Neighs:        28532.5 ave       33927 max       23641 min
Histogram: 3 0 0 0 0 2 0 1 1 1

Total # of neighbors = 228260
Ave neighs/atom = 630.55249
Ave special neighs/atom = 0
Neighbor list builds = 170
Dangerous builds = 0
  using 1 OpenMP thread(s) per MPI task
Reading restart file ...
  restart file = 2 Aug 2023, LAMMPS = 2 Aug 2023
  restoring atom style full from restart
  triclinic box = (0 0 0) to (17.1722 13.1279 17.5867) with tilt (-8.382 0.0305 0.3027)
WARNING: Triclinic box skew is large. LAMMPS will run inefficiently. (src/domain.cpp:220)
  2 by 2 by 2 MPI processor grid
  pair style reaxff stores no restart info
  362 atoms
Finding 1-2 1-3 1-4 neighbors ...
  special bond factors lj:    0        0        0       
  special bond factors coul:  0        0        0       
     0 = max # of 1-2 neighbors
     0 = max # of 1-3 neighbors
     0 = max # of 1-4 neighbors
     1 = max # of special neighbors
  special bonds CPU = 0.000 seconds
  read_restart CPU = 0.004 seconds
*****debug*****
xy = -8.3819999999999996732, deltaxy = 0.08382
xz = 0.030499999999999999334, deltaxz = -0.000305
yz = 0.3027000000000000246, deltayz = -0.003027
*****
*****Negative-deform 4 starts.*****
WARNING: Van der Waals parameters for element SI indicate inner wall+shielding, but earlier atoms indicate a different van der Waals method. This may cause division-by-zero errors. Keeping van der Waals setting for earlier atoms. (src/REAXFF/reaxff_ffield.cpp:251)
Neighbor list info ...
  update: every = 10 steps, delay = 0 steps, check = yes
  max neighbors/atom: 2000, page size: 100000
  master list distance cutoff = 12
  ghost atom cutoff = 12
  binsize = 6, bins = 5 3 3
  2 neighbor lists, perpetual/occasional/extra = 2 0 0
  (1) pair reaxff, perpetual
      attributes: half, newton off, ghost
      pair build: half/bin/newtoff/ghost
      stencil: full/ghost/bin/3d
      bin: standard
  (2) fix qeq/reaxff, perpetual, copy from (1)
      attributes: half, newton off
      pair build: copy
      stencil: none
      bin: none
Setting up Verlet run ...
  Unit style    : real
  Current step  : 0
  Time step     : 0.5
Per MPI rank memory allocation (min/avg/max) = 127.2 | 129.5 | 131.4 Mbytes
   Step          Temp          PotEng         Press          Volume    
         0   300           -36976.766      388.61312      3964.6564    
       100   295.71548     -36978.285     -2078.752       3964.6564    
       200   297.73519     -37006.883      1796.3325      3964.6564    
       300   270.97212     -36997.15       5828.5059      3964.6564    
       400   275.77791     -36977.305     -82.758933      3964.6564    
       500   314.67949     -36994.099     -1691.6394      3964.6564    
       600   304.4735      -36987.977     -311.41756      3964.6564    
       700   285.96564     -36981.969     -12263.34       3964.6564    
       800   284.30882     -36996.512      671.59909      3964.6564    
       900   306.53588     -37014.891      8513.0178      3964.6564    
      1000   306.73827     -36979.274      4817.0419      3964.6564    
      1100   296.05247     -36968.896      1907.4154      3964.6564    
      1200   314.99397     -37010.442      14949.2        3964.6564    
      1300   306.02937     -37005.052     -5513.2561      3964.6564    
      1400   289.47216     -36977.056     -4372.6427      3964.6564    
      1500   316.14233     -36963.963     -2929.8418      3964.6564    
      1600   330.37322     -36984.103      13547.587      3964.6564    
      1700   304.61523     -36989.877      24436.087      3964.6564    
      1800   303.36492     -37005.197      14762.237      3964.6564    
      1900   300.43845     -37023.593      15558.127      3964.6564    
      2000   306.08578     -37040.281      4147.3849      3964.6564    
      2100   281.38868     -37002.684      512.5784       3964.6564    
      2200   313.18569     -37005.05      -878.599        3964.6564    
      2300   336.32484     -37001.891      600.88342      3964.6564    
      2400   322.78785     -37030.602      10567.284      3964.6564    
      2500   287.7978      -37016.775      10474.919      3964.6564    
      2600   304.10495     -37034.65      -2241.536       3964.6564    
      2700   313.30815     -37036.628      14185.962      3964.6564    
      2800   304.19649     -37020.656      4589.6628      3964.6564    
      2900   296.85884     -37021.146     -2577.4557      3964.6564    
      3000   290.9819      -37040.188      6014.3394      3964.6564    
      3100   294.27362     -37053.967      8268.5156      3964.6564    
      3200   285.01133     -37020.105      8557.9669      3964.6564    
      3300   316.18424     -37024.408      3679.7741      3964.6564    
      3400   316.8051      -37029.909      6814.1821      3964.6564    
      3500   285.77931     -37026.57      -2955.0638      3964.6564    
      3600   296.03023     -37048.325     -9560.4237      3964.6564    
      3700   305.64593     -37044.276     -11956.915      3964.6564    
      3800   304.0978      -37027.094      935.53179      3964.6564    
      3900   302.79744     -37017.343      14290.564      3964.6564    
      4000   304.23653     -37025.041     -4935.7022      3964.6564    
      4100   285.66186     -37015.729     -6866.1379      3964.6564    
      4200   303.0241      -37051.38       2540.5553      3964.6564    
      4300   310.3404      -37081.848      4067.2413      3964.6564    
      4400   289.77121     -37072.34       9677.8564      3964.6564    
      4500   285.19497     -37064.29       8417.916       3964.6564    
      4600   297.2422      -37060.724      13937.342      3964.6564    
      4700   309.68973     -37064.099      5365.0615      3964.6564    
      4800   308.69058     -37065.667      7600.7512      3964.6564    
      4900   302.95842     -37058.824      23689.776      3964.6564    
      5000   305.52984     -37072.342      4964.2925      3964.6564    
      5100   298.8522      -37080.82       4284.667       3964.6564    
      5200   292.78914     -37062.616      6916.2931      3964.6564    
      5300   289.5809      -37036.403      5501.8557      3964.6564    
      5400   293.93407     -37023.899      10476.321      3964.6564    
      5500   326.07037     -37081.282      11588.1        3964.6564    
      5600   275.34152     -37057.885      4079.5856      3964.6564    
      5700   284.71839     -37063.424     -4665.5531      3964.6564    
      5800   322.68053     -37084.586     -9916.4688      3964.6564    
      5900   294.24721     -37050.404     -7617.8022      3964.6564    
      6000   297.65302     -37068.97       9485.4407      3964.6564    
      6100   294.09365     -37091.356     -561.09064      3964.6564    
      6200   283.87068     -37088.921     -6468.6472      3964.6564    
      6300   300.05713     -37087.577     -3987.4694      3964.6564    
      6400   293.71498     -37047.616     -5.9835808      3964.6564    
      6500   318.61982     -37074.242     -787.77324      3964.6564    
      6600   311.27486     -37076.42       6703.1565      3964.6564    
      6700   291.73045     -37057.626      10742.338      3964.6564    
      6800   291.30545     -37063.384     -9035.8216      3964.6564    
      6900   302.25214     -37104.152      6056.8659      3964.6564    
      7000   270.7813      -37076.476     -1126.8791      3964.6564    
      7100   310.979       -37090.148      11398.172      3964.6564    
      7200   323.21573     -37087.218      2632.511       3964.6564    
      7300   301.36892     -37067.23      -9822.3064      3964.6564    
      7400   296.72088     -37075.197     -9323.3185      3964.6564    
      7500   301.6679      -37101.465      2976.9057      3964.6564    
      7600   272.70082     -37091.555     -131.45354      3964.6564    
      7700   288.4441      -37082.027      12772.883      3964.6564    
      7800   313.52693     -37090.998      894.98537      3964.6564    
      7900   301.339       -37068.253     -5654.658       3964.6564    
      8000   300.64155     -37064.139      11365.626      3964.6564    
      8100   298.94169     -37069.642     -77.961379      3964.6564    
      8200   324.31306     -37120.5        16106.462      3964.6564    
      8300   292.17387     -37107.775      940.40022      3964.6564    
      8400   294.19236     -37113.247      9984.0948      3964.6564    
      8500   306.5263      -37112.688     -8332.4573      3964.6564    
      8600   293.46906     -37061.733     -8867.5642      3964.6564    
      8700   298.60087     -37077.521     -6863.3107      3964.6564    
      8800   306.77384     -37110.396      6895.154       3964.6564    
      8900   280.672       -37092.846     -1290.096       3964.6564    
      9000   299.80583     -37109.516      4780.2547      3964.6564    
      9100   295.04207     -37094.244      4641.9071      3964.6564    
      9200   310.20953     -37072.573      10746.286      3964.6564    
      9300   330.36763     -37094.984     -5106.6817      3964.6564    
      9400   300.00101     -37086.193      2110.1069      3964.6564    
      9500   298.32751     -37097.033      2804.1151      3964.6564    
      9600   325.17025     -37140.309     -5045.652       3964.6564    
      9700   302.97638     -37131.165     -126.45941      3964.6564    
      9800   298.76371     -37126.077      659.96571      3964.6564    
      9900   293.82055     -37089.55       3761.3231      3964.6564    
     10000   332.31953     -37111.889      1953.2737      3964.6564    
Loop time of 439.297 on 8 procs for 10000 steps with 362 atoms

Performance: 0.983 ns/day, 24.405 hours/ns, 22.764 timesteps/s, 8.240 katom-step/s
98.8% CPU use with 8 MPI tasks x 1 OpenMP threads

MPI task timing breakdown:
Section |  min time  |  avg time  |  max time  |%varavg| %total
---------------------------------------------------------------
Pair    | 335.15     | 376.09     | 388.47     |  86.0 | 85.61
Bond    | 0.027987   | 0.029965   | 0.031464   |   0.6 |  0.01
Neigh   | 4.0786     | 4.787      | 5.1617     |  14.0 |  1.09
Comm    | 7.269      | 19.68      | 60.443     | 374.6 |  4.48
Output  | 0.032269   | 0.083392   | 0.18946    |  19.2 |  0.02
Modify  | 37.872     | 38.333     | 39.154     |   5.9 |  8.73
Other   |            | 0.2915     |            |       |  0.07

Nlocal:          45.25 ave          53 max          40 min
Histogram: 4 0 0 1 0 0 0 0 1 2
Nghost:        3328.25 ave        3358 max        3306 min
Histogram: 3 1 0 0 0 0 2 0 1 1
Neighs:        28837.4 ave       33646 max       25585 min
Histogram: 4 0 0 1 0 0 0 0 1 2

Total # of neighbors = 230699
Ave neighs/atom = 637.29006
Ave special neighs/atom = 0
Neighbor list builds = 161
Dangerous builds = 0
  using 1 OpenMP thread(s) per MPI task
Reading restart file ...
  restart file = 2 Aug 2023, LAMMPS = 2 Aug 2023
  restoring atom style full from restart
  triclinic box = (0 0 0) to (17.1722 13.1279 17.5867) with tilt (-8.382 0.0305 0.3027)
WARNING: Triclinic box skew is large. LAMMPS will run inefficiently. (src/domain.cpp:220)
  2 by 2 by 2 MPI processor grid
  pair style reaxff stores no restart info
  362 atoms
Finding 1-2 1-3 1-4 neighbors ...
  special bond factors lj:    0        0        0       
  special bond factors coul:  0        0        0       
     0 = max # of 1-2 neighbors
     0 = max # of 1-3 neighbors
     0 = max # of 1-4 neighbors
     1 = max # of special neighbors
  special bonds CPU = 0.000 seconds
  read_restart CPU = 0.003 seconds
*****Positive-deform 4 starts.*****
WARNING: Van der Waals parameters for element SI indicate inner wall+shielding, but earlier atoms indicate a different van der Waals method. This may cause division-by-zero errors. Keeping van der Waals setting for earlier atoms. (src/REAXFF/reaxff_ffield.cpp:251)
Neighbor list info ...
  update: every = 10 steps, delay = 0 steps, check = yes
  max neighbors/atom: 2000, page size: 100000
  master list distance cutoff = 12
  ghost atom cutoff = 12
  binsize = 6, bins = 5 3 3
  2 neighbor lists, perpetual/occasional/extra = 2 0 0
  (1) pair reaxff, perpetual
      attributes: half, newton off, ghost
      pair build: half/bin/newtoff/ghost
      stencil: full/ghost/bin/3d
      bin: standard
  (2) fix qeq/reaxff, perpetual, copy from (1)
      attributes: half, newton off
      pair build: copy
      stencil: none
      bin: none
Setting up Verlet run ...
  Unit style    : real
  Current step  : 0
  Time step     : 0.5
Per MPI rank memory allocation (min/avg/max) = 127.3 | 129.5 | 131.4 Mbytes
   Step          Temp          PotEng         Press          Volume    
         0   300           -36976.766      388.61312      3964.6564    
       100   295.71563     -36978.288     -2078.7988      3964.6564    
       200   297.53027     -37006.721      1691.5661      3964.6564    
       300   271.0222      -36997.361      5620.3307      3964.6564    
       400   276.2549      -36977.309     -261.29432      3964.6564    
       500   314.59234     -36993.731     -1702.1659      3964.6564    
       600   304.52314     -36987.491     -35.192633      3964.6564    
       700   285.32977     -36980.431     -11791.695      3964.6564    
       800   287.46129     -36999.298      1159.9206      3964.6564    
       900   300.06582     -37016.044      7488.6342      3964.6564    
      1000   298.22262     -36989.181      3594.7833      3964.6564    
      1100   301.35741     -36978.07       3493.6962      3964.6564    
      1200   318.05535     -37006.904      13623.182      3964.6564    
      1300   301.87        -37003.339     -7138.7051      3964.6564    
      1400   272.22832     -36988.358     -3779.1307      3964.6564    
      1500   288.11997     -37008.107      2338.8591      3964.6564    
      1600   317.39601     -37005.873      15462.19       3964.6564    
      1700   294.33993     -36973.646      19663.025      3964.6564    
      1800   306.85075     -36994.018      1313.0873      3964.6564    
      1900   279.77559     -36996.195      4083.987       3964.6564    
      2000   282.95464     -37011.806     -6220.4388      3964.6564    
      2100   296.6378      -37016.247      2341.9855      3964.6564    
      2200   296.24487     -37001.715      9966.7643      3964.6564    
      2300   285.65777     -36978.165      16878.394      3964.6564    
      2400   314.63258     -36999.557      7908.7312      3964.6564    
      2500   296.74351     -36985.599      6746.1866      3964.6564    
      2600   286.89343     -36993.387     -5591.7524      3964.6564    
      2700   290.42486     -37011.066      2561.3988      3964.6564    
      2800   283.47269     -36991.858     -7187.3347      3964.6564    
      2900   303.97471     -36985.795     -542.52451      3964.6564    
      3000   306.37795     -36975.338      12599.886      3964.6564    
      3100   309.12248     -36981.582      12176.809      3964.6564    
      3200   291.13541     -36998.427      2471.8343      3964.6564    
      3300   291.56568     -37008.621      1025.1379      3964.6564    
      3400   324.9895      -37032.469      84.26552       3964.6564    
      3500   300.86795     -36984.294      5440.4384      3964.6564    
      3600   318.97449     -36990.6       -106.23618      3964.6564    
      3700   301.16464     -36987.046     -1286.4222      3964.6564    
      3800   298.84177     -37022.76       5542.1856      3964.6564    
      3900   285.07455     -37008.971      2372.9421      3964.6564    
      4000   290.59014     -37002.612      1911.1227      3964.6564    
[...]
*****
*****Negative-deform 6 starts.*****
WARNING: Van der Waals parameters for element SI indicate inner wall+shielding, but earlier atoms indicate a different van der Waals method. This may cause division-by-zero errors. Keeping van der Waals setting for earlier atoms. (src/REAXFF/reaxff_ffield.cpp:251)
Neighbor list info ...
  update: every = 10 steps, delay = 0 steps, check = yes
  max neighbors/atom: 2000, page size: 100000
  master list distance cutoff = 12
  ghost atom cutoff = 12
  binsize = 6, bins = 5 3 3
  2 neighbor lists, perpetual/occasional/extra = 2 0 0
  (1) pair reaxff, perpetual
      attributes: half, newton off, ghost
      pair build: half/bin/newtoff/ghost
      stencil: full/ghost/bin/3d
      bin: standard
  (2) fix qeq/reaxff, perpetual, copy from (1)
      attributes: half, newton off
      pair build: copy
      stencil: none
      bin: none
Setting up Verlet run ...
  Unit style    : real
  Current step  : 0
  Time step     : 0.5
Per MPI rank memory allocation (min/avg/max) = 127.2 | 129.5 | 131.4 Mbytes
   Step          Temp          PotEng         Press          Volume    
         0   300           -36976.766      388.61312      3964.6564    
       100   295.71558     -36978.286     -2078.485       3964.6564    
       200   297.66862     -37006.863      1670.7609      3964.6564    
       300   270.92465     -36997.132      5633.3822      3964.6564    
       400   276.14242     -36977.488     -217.14721      3964.6564    
       500   314.88757     -36993.928     -1332.7672      3964.6564    
       600   304.90435     -36987.726     -313.53833      3964.6564    
       700   285.96387     -36980.634     -11041.564      3964.6564    
       800   288.26532     -37000.332      965.81082      3964.6564    
       900   295.04841     -37014.779      13909.439      3964.6564    
      1000   296.00847     -36996.931      3578.4294      3964.6564    
      1100   299.40537     -36979.929      4009.6721      3964.6564    
      1200   318.41422     -36997.48       12262.36       3964.6564    
      1300   299.33527     -36985.146     -5265.8804      3964.6564    
      1400   284.28222     -36996.788      202.57898      3964.6564    
      1500   292.76167     -37013.462      7919.6657      3964.6564    
      1600   304.9967      -36997.461      14310.18       3964.6564    
      1700   309.09982     -36989.129      11224.756      3964.6564    
      1800   319.68959     -37010.762      2037.7385      3964.6564    
      1900   295.6643      -37004.345     -387.66226      3964.6564    
      2000   301.65874     -37023.112     -8762.4727      3964.6564    
      2100   289.99224     -37010.911      12515.23       3964.6564    
      2200   303.37532     -37022.687     -2142.8892      3964.6564    
      2300   298.51652     -37021.767      5381.7292      3964.6564    
      2400   297.22417     -37015.873     -387.60089      3964.6564    
      2500   311.94472     -37021.205      7140.9767      3964.6564    
      2600   314.97821     -37013.436      4661.5835      3964.6564    
      2700   284.5965      -37011.363     -1701.2816      3964.6564    
      2800   298.6629      -37051.099      16567.644      3964.6564    
      2900   307.01508     -37064.564      7746.3131      3964.6564    
      3000   305.04453     -37071          91.362198      3964.6564    
      3100   296.06491     -37083.459      3477.1505      3964.6564    
      3200   290.38434     -37097.579     -7135.0485      3964.6564    
      3300   277.26611     -37081.662      5564.4448      3964.6564    
      3400   301.52478     -37064.596      8081.1548      3964.6564    
      3500   294.50029     -37042.675     -6501.2928      3964.6564    
      3600   299.9949      -37057.108      3318.5377      3964.6564    
      3700   291.11506     -37067.406     -8138.6649      3964.6564    
      3800   292.3769      -37082.61      -95.184348      3964.6564    
      3900   294.23162     -37068.216     -1081.4002      3964.6564    
      4000   304.65472     -37049.729      11640.614      3964.6564    
      4100   305.79039     -37062.11       1902.9454      3964.6564    
      4200   300.62199     -37084.503      10629.842      3964.6564    
      4300   299.48062     -37086.155      5961.1267      3964.6564    
      4400   312.367       -37094.322     -1073.7131      3964.6564    
      4500   304.78087     -37088.68       17618.763      3964.6564    
      4600   285.00436     -37073.039      14472.283      3964.6564    
      4700   295.34842     -37080.866      3192.4077      3964.6564    
      4800   307.62039     -37072.738     -4034.6673      3964.6564    
      4900   302.1771      -37063.668      3593.5957      3964.6564    
      5000   312.52107     -37098.348      5677.6631      3964.6564    
      5100   300.77124     -37100.16      -350.2506       3964.6564    
      5200   282.56386     -37068.636      947.30737      3964.6564    
      5300   325.76072     -37070.678     -8818.333       3964.6564    
      5400   309.44354     -37057.909      1928.4633      3964.6564    
      5500   302.10036     -37079.724      13796.169      3964.6564    
      5600   293.64258     -37077.223      3415.309       3964.6564    
      5700   291.95876     -37066.162      2844.999       3964.6564    
      5800   307.09351     -37067.12       2389.063       3964.6564    
      5900   323.19262     -37056.944      19263.449      3964.6564    
      6000   323.55533     -37076.097      9938.0244      3964.6564    
      6100   301.47239     -37080.491      4801.6911      3964.6564    
      6200   298.19095     -37078.427     -10313.406      3964.6564    
      6300   318.07265     -37102.69      -9358.6391      3964.6564    
      6400   297.76191     -37087.568      4982.7559      3964.6564    
      6500   299.31887     -37092.447      17028.842      3964.6564    
      6600   309.69195     -37093.624      13078.934      3964.6564    
      6700   302.39975     -37068.132      1451.9877      3964.6564    
      6800   303.13397     -37049.248      13085.404      3964.6564    
      6900   316.88193     -37067.659      8901.5765      3964.6564    
      7000   284.60067     -37070.95       5593.5718      3964.6564    
      7100   278.2794      -37073.903      8467.3945      3964.6564    
      7200   300.00568     -37086.495      748.62425      3964.6564    
      7300   293.59992     -37055.129      5666.1366      3964.6564    
      7400   305.14773     -37057.609     -1918.7661      3964.6564    
      7500   317.41988     -37073.543     -7697.2875      3964.6564    
      7600   299.80653     -37069.619      10362.114      3964.6564    
      7700   297.7377      -37085.951      5468.6624      3964.6564    
      7800   286.03038     -37080.641      7728.1515      3964.6564    
      7900   315.8448      -37088.555      7715.7931      3964.6564    
      8000   309.57948     -37046.5        1612.4591      3964.6564    
      8100   325.20308     -37080.25      -2887.8812      3964.6564    
      8200   286.80746     -37067.558     -11348.975      3964.6564    
      8300   309.65883     -37098.429     -10607.601      3964.6564    
      8400   286.01531     -37071.469      4278.0571      3964.6564    
      8500   321.45351     -37083.972     -2116.029       3964.6564    
      8600   314.46412     -37055.14       12133.633      3964.6564    
      8700   299.91693     -37063.992      10774.375      3964.6564    
      8800   299.28503     -37091.084      11550.131      3964.6564    
      8900   278.39747     -37074.751      5977.6747      3964.6564    
      9000   287.45819     -37072.57       1537.5682      3964.6564    
      9100   298.43895     -37067.553     -2481.7379      3964.6564    
      9200   306.09849     -37081.985     -1492.1144      3964.6564    
      9300   303.36549     -37107.82      -7325.019       3964.6564    
      9400   290.31777     -37111.172      9500.8888      3964.6564    
      9500   274.16251     -37086.642      5906.6214      3964.6564    
      9600   317.60941     -37094.884      13323.418      3964.6564    
      9700   302.95539     -37075.723      13880.135      3964.6564    
      9800   296.16327     -37081.966      6751.0925      3964.6564    
      9900   298.30614     -37101.795      12706.728      3964.6564    
     10000   281.82263     -37099.566     -2880.162       3964.6564    
Loop time of 458.689 on 8 procs for 10000 steps with 362 atoms

Performance: 0.942 ns/day, 25.483 hours/ns, 21.801 timesteps/s, 7.892 katom-step/s
98.7% CPU use with 8 MPI tasks x 1 OpenMP threads

MPI task timing breakdown:
Section |  min time  |  avg time  |  max time  |%varavg| %total
---------------------------------------------------------------
Pair    | 359.72     | 394.01     | 406.27     |  73.5 | 85.90
Bond    | 0.029973   | 0.031673   | 0.033663   |   0.8 |  0.01
Neigh   | 4.3344     | 4.8191     | 4.9606     |   9.2 |  1.05
Comm    | 6.3927     | 18.69      | 53.061     | 338.5 |  4.07
Output  | 0.039364   | 0.096029   | 0.21195    |  19.7 |  0.02
Modify  | 40.591     | 40.746     | 41.214     |   3.1 |  8.88
Other   |            | 0.2926     |            |       |  0.06

Nlocal:          45.25 ave          50 max          39 min
Histogram: 1 0 0 0 1 2 2 1 0 1
Nghost:         3342.5 ave        3391 max        3293 min
Histogram: 1 1 0 2 0 1 1 0 1 1
Neighs:        28839.1 ave       31500 max       25069 min
Histogram: 1 0 0 0 1 2 2 1 0 1

Total # of neighbors = 230713
Ave neighs/atom = 637.32873
Ave special neighs/atom = 0
Neighbor list builds = 162
Dangerous builds = 0
  using 1 OpenMP thread(s) per MPI task
Reading restart file ...
  restart file = 2 Aug 2023, LAMMPS = 2 Aug 2023
  restoring atom style full from restart
  triclinic box = (0 0 0) to (17.1722 13.1279 17.5867) with tilt (-8.382 0.0305 0.3027)
WARNING: Triclinic box skew is large. LAMMPS will run inefficiently. (src/domain.cpp:220)
  2 by 2 by 2 MPI processor grid
  pair style reaxff stores no restart info
  362 atoms
Finding 1-2 1-3 1-4 neighbors ...
  special bond factors lj:    0        0        0       
  special bond factors coul:  0        0        0       
     0 = max # of 1-2 neighbors
     0 = max # of 1-3 neighbors
     0 = max # of 1-4 neighbors
     1 = max # of special neighbors
  special bonds CPU = 0.000 seconds
  read_restart CPU = 0.003 seconds
*****Positive-deform 6 starts.*****
WARNING: Van der Waals parameters for element SI indicate inner wall+shielding, but earlier atoms indicate a different van der Waals method. This may cause division-by-zero errors. Keeping van der Waals setting for earlier atoms. (src/REAXFF/reaxff_ffield.cpp:251)
Neighbor list info ...
  update: every = 10 steps, delay = 0 steps, check = yes
  max neighbors/atom: 2000, page size: 100000
  master list distance cutoff = 12
  ghost atom cutoff = 12
  binsize = 6, bins = 5 3 3
  2 neighbor lists, perpetual/occasional/extra = 2 0 0
  (1) pair reaxff, perpetual
      attributes: half, newton off, ghost
      pair build: half/bin/newtoff/ghost
      stencil: full/ghost/bin/3d
      bin: standard
  (2) fix qeq/reaxff, perpetual, copy from (1)
      attributes: half, newton off
      pair build: copy
      stencil: none
      bin: none
Setting up Verlet run ...
  Unit style    : real
  Current step  : 0
  Time step     : 0.5
Per MPI rank memory allocation (min/avg/max) = 127.3 | 129.5 | 131.4 Mbytes
   Step          Temp          PotEng         Press          Volume    
         0   300           -36976.766      388.61312      3964.6564    
       100   295.71558     -36978.286     -2078.485       3964.6564    
       200   297.60095     -37006.766      1813.8684      3964.6564    
       300   271.13776     -36997.424      5970.1373      3964.6564    
       400   275.6398      -36976.753     -123.72186      3964.6564    
       500   314.91591     -36994.261     -1416.1401      3964.6564    
       600   303.84569     -36987.261      298.03299      3964.6564    
       700   287.31651     -36983.234     -12222.875      3964.6564    
       800   284.26048     -36996.351      1080.5525      3964.6564    
       900   307.44141     -37017.082      12209.572      3964.6564    
      1000   305.76841     -36983.634      4061.5187      3964.6564    
      1100   296.72646     -36970.66       1047.2537      3964.6564    
      1200   306.19767     -37004.623      8987.0199      3964.6564    
      1300   294.604       -37000.984     -7484.1021      3964.6564    
      1400   282.82539     -36978.24      -2986.1452      3964.6564    
      1500   310.95935     -36995.687      4163.9433      3964.6564    
      1600   307.1832      -36988.456      15889.307      3964.6564    
      1700   295.78214     -36985.603      15029.783      3964.6564    
      1800   294.41184     -36998.033      3309.0743      3964.6564    
      1900   295.72813     -37001.2        7141.8542      3964.6564    
      2000   293.64058     -37001.119     -2907.611       3964.6564    
      2100   287.64468     -36986.172      6562.7622      3964.6564    
      2200   313.5176      -36985.571      6689.7331      3964.6564    
      2300   315.0531      -36987.093      5264.3546      3964.6564    
      2400   310.1608      -37002.099      1410.3482      3964.6564    
      2500   289.41201     -37012.628      4693.2209      3964.6564    
      2600   296.85079     -37021.996      7011.2274      3964.6564    
      2700   312.9283      -37030.816      6327.3139      3964.6564    
      2800   306.5437      -37022.22       4821.4881      3964.6564    
      2900   287.03787     -37034.885     -2215.3303      3964.6564    
      3000   302.08797     -37061.519     -2205.5584      3964.6564    
      3100   303.08398     -37041.343      802.80919      3964.6564    
      3200   292.76999     -37016.668      8763.3821      3964.6564    
      3300   322.59431     -37043.965      19752.216      3964.6564    
      3400   306.40947     -37028.365      10956.809      3964.6564    
      3500   299.00329     -37020.524      12981.371      3964.6564    
      3600   301.44922     -37027.178     -3727.5848      3964.6564    
      3700   312.80387     -37043.063     -4774.7289      3964.6564    
      3800   292.74321     -37025.92      -1108.0181      3964.6564    
      3900   285.8391      -37017.275      4999.4516      3964.6564    
      4000   305.53172     -37029.761      12808.961      3964.6564    
      4100   306.35501     -37022.041     -8336.9286      3964.6564    
      4200   300.89192     -37005.483     -12345.443      3964.6564    
      4300   300.26731     -37001.925      676.63536      3964.6564    
      4400   303.68554     -37007.008      12257.645      3964.6564    
      4500   315.55663     -37040.758      11644.008      3964.6564    
      4600   307.14407     -37056.939      10196.035      3964.6564    
      4700   298.92339     -37050.391      13177.045      3964.6564    
      4800   306.30443     -37041.86       11073.544      3964.6564    
      4900   300.47423     -36999.176      20702.344      3964.6564    
      5000   337.03719     -37033.457      1408.8644      3964.6564    
      5100   303.70131     -37024.521      3467.4212      3964.6564    
      5200   300.64885     -37030.576      403.88763      3964.6564    
      5300   294.45998     -37029.837      2.1936334      3964.6564    
      5400   302.54919     -37048.452      11940.07       3964.6564    
      5500   302.05198     -37063.465      591.53111      3964.6564    
      5600   282.4083      -37053.708      668.18399      3964.6564    
      5700   315.67        -37056.233     -6019.7982      3964.6564    
      5800   277.87259     -36998.689      6934.9671      3964.6564    
      5900   326.17782     -37050.059      7150.5687      3964.6564    
      6000   286.79348     -37030.403      2799.9252      3964.6564    
      6100   278.37287     -37031.529      6193.2339      3964.6564    
      6200   308.75446     -37036.982      17383.22       3964.6564    
      6300   318.82932     -37023.924     -2307.1163      3964.6564    
      6400   290.98916     -37010.303     -5541.5671      3964.6564    
      6500   292.5145      -37036.29       2171.0416      3964.6564    
      6600   287.05571     -37031.194      14082.397      3964.6564    
      6700   297.90201     -37038.565      5980.1337      3964.6564    
      6800   301.31492     -37008.21       9330.4431      3964.6564    
      6900   304.55497     -36995.035      2345.4002      3964.6564    
      7000   289.82621     -37006.271      1669.2652      3964.6564    
      7100   323.16266     -37063.778      4082.6205      3964.6564    
      7200   279.9375      -37031.591     -1851.2559      3964.6564    
      7300   294.59197     -37046.079     -310.18232      3964.6564    
      7400   312.39312     -37051.187      12376.941      3964.6564    
      7500   312.03681     -37018.928      15647.832      3964.6564    
      7600   311.86183     -37023.434      3758.2684      3964.6564    
      7700   313.62526     -37052.788      2344.2653      3964.6564    
      7800   284.08192     -37033.231      8729.8429      3964.6564    
      7900   289.88485     -37036.42      -2788.8849      3964.6564    
      8000   299.69601     -37039.477      7248.0672      3964.6564    
      8100   331.45195     -37054.682     -4655.6161      3964.6564    
      8200   304.80379     -37028.84      -6870.0903      3964.6564    
      8300   287.41436     -37038.916      862.04364      3964.6564    
      8400   300.93981     -37063.291      330.15968      3964.6564    
      8500   287.79618     -37048.842      4608.2307      3964.6564    
      8600   334.9432      -37064.364      2842.569       3964.6564    
      8700   286.36251     -37008.594      7429.3189      3964.6564    
      8800   292.75328     -37032.27       3927.3763      3964.6564    
      8900   284.00943     -37042.432     -691.23168      3964.6564    
      9000   298.9246      -37058.169      2261.7869      3964.6564    
      9100   287.26204     -37034.584      5792.4997      3964.6564    
      9200   335.4418      -37076.06      -2125.4921      3964.6564    
      9300   292.57317     -37039.937      5690.7475      3964.6564    
      9400   280.5453      -37066.163      2296.7706      3964.6564    
      9500   294.08225     -37082.012      6574.6119      3964.6564    
      9600   270.51059     -37038.296      4037.7081      3964.6564    
      9700   332.64714     -37090.976      10535.497      3964.6564    
      9800   319.45249     -37077.269     -524.20164      3964.6564    
      9900   299.66993     -37080.665      5690.8575      3964.6564    
     10000   313.33557     -37104.706      4182.717       3964.6564    
Loop time of 426.97 on 8 procs for 10000 steps with 362 atoms

Performance: 1.012 ns/day, 23.721 hours/ns, 23.421 timesteps/s, 8.478 katom-step/s
98.8% CPU use with 8 MPI tasks x 1 OpenMP threads

MPI task timing breakdown:
Section |  min time  |  avg time  |  max time  |%varavg| %total
---------------------------------------------------------------
Pair    | 337.44     | 362.77     | 376.15     |  63.1 | 84.96
Bond    | 0.027442   | 0.028549   | 0.030286   |   0.5 |  0.01
Neigh   | 4.6752     | 4.9972     | 5.1591     |   6.5 |  1.17
Comm    | 5.9971     | 19.51      | 44.867     | 273.2 |  4.57
Output  | 0.032339   | 0.08607    | 0.19655    |  19.8 |  0.02
Modify  | 39.13      | 39.314     | 39.666     |   2.5 |  9.21
Other   |            | 0.2678     |            |       |  0.06

Nlocal:          45.25 ave          52 max          38 min
Histogram: 2 0 2 0 0 0 1 0 0 3
Nghost:        3336.62 ave        3366 max        3313 min
Histogram: 1 1 0 2 1 1 1 0 0 1
Neighs:        28839.6 ave       33065 max       24400 min
Histogram: 2 0 2 0 0 0 1 0 0 3

Total # of neighbors = 230717
Ave neighs/atom = 637.33978
Ave special neighs/atom = 0
Neighbor list builds = 171
Dangerous builds = 0
Total wall time: 1:29:34
