ITEM: TIMESTEP
0
ITEM: NUMBER OF ATOMS
366
ITEM: BOX BOUNDS xy xz yz pp pp pp
-7.7144399461178335e+00 1.5360197440179936e+01 -7.6448629701767841e+00
-2.5448601139492300e-01 1.3674893816520523e+01 2.5342046423892034e-01
-1.4304623784867587e-01 1.7750446237848607e+01 -1.1459219487448345e-01
ITEM: ATOMS id type x y z
69 3 -1.14317 3.00356 2.56281
73 3 -2.53241 6.20491 4.73084
74 3 -0.871608 5.20184 6.57491
71 3 -0.352643 5.28039 1.09591
99 3 4.61192 5.09334 6.80366
10 4 -0.0910114 4.22596 7.53806
66 3 -0.351951 1.5192 4.57477
339 2 2.97224 4.95192 0.193939
96 3 4.3325 3.15311 8.60678
7 4 0.0968086 3.98869 2.10285
72 3 0.497324 2.7304 6.83474
3 4 1.26794 1.7652 0.28805
5 4 0.984504 1.67667 5.71717
24 4 3.57491 1.6079 4.10423
91 3 3.17593 0.745071 8.42394
28 4 1.41119 5.84684 4.24993
65 3 1.38474 0.29677 0.957523
67 3 1.34267 0.315035 6.48117
70 3 1.25509 2.97374 1.37407
89 3 3.27654 0.346185 3.06663
90 3 2.29861 1.97588 4.88877
92 3 4.97015 1.61074 5.02517
93 3 6.83563 0.490635 6.64524
94 3 0.812185 4.5637 3.3952
98 3 2.45673 5.28274 5.36676
361 2 -0.0802111 0.476784 8.24931
178 1 3.56819 3.14223 2.96072
225 2 2.56079 3.65411 3.10638
226 2 3.84896 2.83992 1.89609
227 2 4.42163 3.71087 3.49123
338 1 3.92975 5.53309 0.469083
31 4 3.85973 6.13082 5.8506
172 1 1.3621 5.06483 8.38481
340 2 3.88731 5.77157 1.59609
9 4 -0.942918 6.63499 0.192239
209 2 2.15188 4.68294 7.64028
208 2 1.31865 6.25098 8.47433
12 4 -1.29121 6.51484 5.63176
27 4 6.35707 1.8539 5.86202
313 2 3.5364 0.587871 17.1432
312 1 3.12223 1.61404 17.0875
206 2 -0.935019 3.49419 9.82834
77 3 -1.37282 5.77728 13.2382
320 1 -2.13312 5.81288 17.1176
6 4 -0.865716 2.22587 15.8359
75 3 -0.658789 3.6791 15.2227
205 2 -0.80763 1.87186 13.5604
322 2 -1.77569 5.36428 16.1469
217 2 -0.621027 5.20151 10.1208
175 1 -0.00414158 6.0559 10.7631
349 2 -2.89195 5.89303 14.1756
230 2 5.73718 0.0276721 9.57304
229 2 6.20856 1.80591 9.43548
284 2 4.07711 6.19719 9.81564
13 4 -0.0338071 4.85848 14.2139
170 1 -0.424511 1.08348 14.3385
213 2 0.373396 3.83022 11.9947
212 2 2.08519 4.32198 12.7728
210 2 1.40967 4.51769 9.38461
328 2 5.09341 1.23959 16.6765
329 2 6.5742 -0.0381726 16.7612
68 3 0.367364 1.83358 17.0152
228 2 5.77578 1.0378 11.1589
26 4 3.90942 1.79255 9.36854
211 2 0.902577 2.82957 13.5642
100 3 1.06122 5.77686 14.7275
173 1 0.960968 3.89559 12.947
179 1 5.56552 1.01017 9.98694
180 1 2.80947 2.25209 10.9549
181 1 4.44766 3.20734 14.7962
231 2 2.64236 3.36969 10.4407
232 2 3.3891 2.30878 11.901
233 2 1.83191 1.63544 11.0092
234 2 3.74916 2.73861 14.0362
235 2 3.93677 3.83638 15.5641
236 2 5.11131 2.36244 15.3722
241 2 3.23727 5.40191 13.1208
303 1 6.1162 1.02217 13.134
306 2 5.48169 1.80135 13.6843
315 2 2.92579 1.8535 15.9971
327 1 6.20726 0.973225 16.3464
183 1 3.92876 4.91185 12.3783
218 2 0.767455 5.58679 11.4502
330 2 6.29177 1.09906 15.1665
204 2 0.716806 1.05437 14.3805
240 2 4.1865 5.75401 11.5274
242 2 3.52995 3.91824 11.8281
171 1 -1.5155 3.90013 8.99142
207 2 -1.93918 4.91091 9.26957
314 2 3.64844 2.44812 17.6696
224 2 4.60702 -0.15025 11.2304
95 3 0.0441765 6.88224 4.85607
358 2 -0.0209353 9.88954 0.693445
1 4 -5.32475 13.1415 2.18577
4 4 -5.28279 13.4096 7.51852
15 4 -2.57333 9.07553 1.98574
17 4 -4.08147 10.9458 0.187012
18 4 -2.51983 8.80829 7.6248
20 4 -3.82864 11.2047 5.78938
35 4 -1.41749 11.3904 3.79386
78 3 -3.27663 8.20222 3.01232
79 3 -1.27855 7.8654 1.17582
80 3 -3.58743 9.60418 0.852183
81 3 -4.43946 12.0885 1.34992
83 3 -1.71444 7.75629 6.73533
85 3 -5.04948 10.6935 4.98559
86 3 -3.27468 9.91864 6.69638
87 3 -4.21387 12.5298 6.71953
105 3 -1.76591 10.2252 2.63218
106 3 -1.00422 12.8977 2.92318
107 3 -2.64339 11.6324 4.75785
310 3 -6.29629 12.4318 3.19439
249 2 0.565332 7.75898 8.24155
185 1 0.885122 10.1624 0.0199091
111 3 -0.987916 12.1348 8.52024
113 3 -0.184643 10.8173 4.58525
110 3 -1.41643 9.52224 8.47487
25 4 -0.0964038 13.1502 7.54647
82 3 -3.46812 7.85863 8.60312
245 2 0.0731836 8.54036 2.18436
84 3 -6.18058 12.5437 8.59063
34 4 2.61572 8.18209 2.52029
39 4 1.18302 11.1306 5.45672
37 4 2.39174 8.65028 7.25869
114 3 1.66544 9.74566 6.46063
184 1 0.905251 8.94506 2.80159
243 2 1.03899 10.0765 2.56964
244 2 0.65616 8.7075 3.91327
109 3 3.13622 7.41306 6.62566
8 4 -3.78925 6.90033 3.87284
103 3 2.24207 6.8128 3.17444
351 2 -2.73679 6.83903 16.8836
121 3 1.38674 10.3792 12.9133
324 2 -4.81188 12.8802 14.9368
223 2 -4.76696 13.0239 11.435
119 3 -2.59318 11.5157 17.0287
215 2 -0.24657 8.43677 13.4074
22 4 -3.7771 10.9955 11.3362
38 4 -1.18502 10.8338 9.39986
41 4 -1.49698 11.3365 15.8828
88 3 -5.09836 10.9198 10.4241
112 3 -2.4211 10.966 10.4529
118 3 -1.86993 12.3633 14.5065
174 1 -0.922684 8.52357 12.4564
176 1 -3.76239 10.0836 12.9629
177 1 -3.65884 12.9766 12.0364
189 1 -1.61675 9.53822 15.4065
221 2 -2.9107 9.90987 13.8661
256 2 -0.871499 9.08684 16.2409
257 2 -1.31673 9.19616 14.2532
258 2 -2.78283 9.38852 15.6993
311 3 -4.98499 10.5751 17.0168
323 1 -5.88454 12.6748 15.1486
214 2 -0.32233 8.79777 11.5134
222 2 -3.84334 9.04212 12.4304
219 2 0.414139 6.89901 10.0865
302 4 -1.6811 13.1245 13.0921
216 2 -1.88155 9.16604 12.637
220 2 -4.74743 10.4229 13.342
122 3 -0.45896 12.3984 12.2764
117 3 0.0456606 11.7675 16.4322
102 3 0.295825 7.00412 16.9627
76 3 -2.73901 6.7858 10.9965
116 3 0.8849 8.45931 14.8977
101 3 2.79772 6.99566 16.3895
325 2 -6.30167 13.3741 15.8765
246 2 1.13117 9.46039 16.9649
248 2 2.09835 7.54566 9.42166
247 2 0.974385 9.14177 9.50119
120 3 0.267472 10.5834 10.3627
33 4 1.34322 7.06666 15.669
186 1 1.41861 8.22958 8.89111
42 4 0.649076 11.3522 11.752
326 2 -6.56833 12.676 14.2444
40 4 2.29852 9.51492 14.1692
14 4 -1.37391 6.75316 11.8663
254 2 3.5178 7.33004 13.8209
353 2 -3.93105 13.5708 12.9832
279 2 9.04043 2.5807 7.90396
97 3 6.31353 3.06853 6.89811
197 1 6.3624 5.28612 2.52518
278 2 6.33428 4.25853 3.08992
137 3 7.65396 6.20532 4.85073
277 2 5.46384 5.33328 1.7386
131 3 4.98067 6.49562 4.72716
276 2 7.41806 5.32607 1.80201
301 2 6.49043 4.3193 0.709185
354 2 9.70021 1.43471 -0.030949
125 3 7.37878 2.33924 4.73041
30 4 5.48918 4.15943 7.70866
198 1 9.07503 3.44208 8.68913
352 2 12.8532 3.22014 8.57299
2 4 13.5077 1.91393 3.76673
44 4 8.82302 2.15938 4.07082
46 4 11.3721 2.29587 5.89209
48 4 9.87637 4.67696 2.18085
51 4 10.2649 4.66116 7.81622
123 3 12.8902 0.547671 3.04591
124 3 8.73512 0.767274 3.10237
126 3 12.4224 2.68376 4.75299
127 3 9.98509 1.93785 5.26812
128 3 12.0358 0.986607 6.82498
129 3 9.19224 3.4908 3.03536
130 3 10.7168 5.77147 2.9294
132 3 8.90484 5.43305 1.00307
133 3 11.2056 3.6532 7.04459
138 3 9.52694 5.61143 6.74151
196 1 11.0735 3.80453 0.957248
274 2 10.8323 2.68124 1.09484
191 1 11.0809 0.367593 1.09684
273 2 10.8534 4.20882 -0.0779035
337 2 9.50557 0.627987 7.91701
360 2 10.2782 0.372407 1.85711
359 2 11.4561 1.46717 0.852024
275 2 12.1048 4.13653 1.46098
23 4 7.64386 0.0712034 2.22004
192 1 14.1133 0.732446 8.76278
280 2 8.01559 3.89521 8.7434
135 3 6.37135 5.09007 8.71288
297 3 6.84192 1.348 1.30337
49 4 6.34438 6.59303 3.88474
334 1 8.72221 0.305857 8.7482
356 2 4.95257 4.9562 0.18663
45 4 12.9465 -0.0991822 7.52299
362 2 14.0087 0.232988 9.84534
134 3 10.8181 5.51875 9.15864
300 2 7.56041 4.30472 16.9375
298 1 6.86014 3.72046 17.5752
140 3 5.81049 5.74248 14.617
182 1 6.8234 4.09407 12.3964
239 2 6.62581 3.1739 11.7798
307 2 7.21517 1.25811 12.5819
304 1 8.79476 0.00739955 14.6421
32 4 5.29102 4.55405 13.6466
237 2 7.05128 5.05947 11.7696
350 2 14.2229 0.0404593 14.4276
238 2 7.60154 3.84518 13.2509
308 2 7.83908 0.331589 15.2624
309 2 9.16434 0.824126 14.057
141 3 7.78392 6.57358 16.3783
144 3 7.23507 6.60358 10.8625
318 2 11.6256 2.48577 15.9215
336 2 8.00459 1.1989 9.01152
333 2 9.41954 2.98085 17.0112
294 2 14.326 -0.0249691 12.706
332 2 9.17963 1.22215 16.2284
316 1 12.4819 1.86361 16.2444
317 2 12.228 0.822452 16.0166
331 1 9.19468 1.85434 17.1707
281 2 9.44128 3.10906 9.68604
264 2 11.5199 1.11355 9.7805
285 2 8.0045 4.53521 14.7604
267 2 8.81451 0.856895 12.4974
319 2 12.7363 2.06497 17.4148
47 4 10.8971 2.19791 12.0177
54 4 10.0998 4.81081 13.5849
139 3 10.9219 3.62859 12.7488
145 3 9.39266 5.81565 12.4534
193 1 11.7674 2.03054 10.3174
194 1 8.96423 1.64288 11.717
195 1 11.7256 0.896527 13.2605
200 1 8.90474 3.86011 14.7841
265 2 12.8138 1.94551 10.7674
266 2 11.6106 3.00967 9.78008
268 2 8.82962 1.1791 10.5814
269 2 8.29096 2.55897 11.8973
286 2 9.35305 3.88457 15.8084
287 2 8.6442 2.7775 14.4408
272 2 12.591 0.238736 12.7076
271 2 11.9824 1.25327 14.3797
270 2 10.6783 0.293994 13.2876
365 2 11.1501 5.36974 15.6919
347 1 11.2709 5.94977 14.6064
299 2 5.85151 3.47028 17.0133
52 4 6.36747 6.65263 9.54011
263 2 13.9712 1.85848 8.83836
296 4 7.28775 1.8798 17.7415
321 2 12.3984 5.02685 17.6917
262 2 3.20209 13.5097 0.143722
43 4 4.79022 13.1874 2.07365
58 4 3.77041 10.7925 3.85634
61 4 6.18893 10.9935 5.81709
104 3 3.15787 8.0182 0.928759
251 2 4.84717 8.98011 8.15337
157 3 8.83996 9.9587 8.28873
115 3 0.869833 12.2154 6.62017
146 3 6.40814 8.0605 3.2208
149 3 3.37708 9.30814 3.28969
150 3 4.11169 11.9077 2.69476
151 3 2.40265 11.4601 4.63071
153 3 6.42479 10.2383 1.48648
154 3 5.83747 12.747 0.771023
159 3 4.98123 10.7411 4.85097
160 3 6.50532 9.74623 6.79338
161 3 5.77826 12.4251 6.70394
57 4 7.27718 9.04312 2.16402
155 3 6.70748 7.93612 8.64076
158 3 7.50256 11.2957 5.0163
59 4 6.11229 11.2635 0.193025
187 1 3.86864 9.5784 8.17032
108 3 0.725914 12.9037 1.07015
250 2 3.83047 10.3544 7.28312
343 2 3.98647 11.565 8.52313
364 2 10.6967 7.09794 0.279281
60 4 7.60822 8.89444 7.66126
50 4 8.33107 6.95941 0.00602959
147 3 7.77472 8.0995 0.947947
136 3 10.1793 7.36797 5.04532
148 3 8.49135 9.78509 2.96368
16 4 8.74573 11.009 4.02135
156 3 8.31129 8.0121 6.63628
363 2 2.98402 13.3195 8.69064
341 1 3.99768 12.7971 8.70312
53 4 8.92406 6.79635 5.7541
357 2 1.94406 10.0557 0.577897
345 2 10.5386 6.95054 16.3022
11 4 11.1044 6.9516 9.77546
344 1 10.2543 7.4205 17.3476
253 2 3.25156 8.35344 12.25
36 4 1.23978 11.8352 17.5691
164 3 8.59545 10.0144 14.7854
163 3 8.30531 8.18942 12.7223
199 1 4.57255 7.13686 10.0956
342 2 4.70795 13.133 9.62551
290 2 4.81757 13.2386 14.5285
283 2 4.63262 7.29357 11.2548
21 4 8.85077 11.0161 15.9738
305 2 1.97187 13.3105 15.414
252 2 3.5624 9.96163 9.19872
282 2 4.2229 8.04543 9.40302
19 4 8.8536 11.1243 9.28291
366 2 7.32739 13.2428 10.961
288 2 5.90264 11.6279 14.3285
255 2 4.52329 8.80862 13.5818
289 2 5.97546 12.7329 15.9243
55 4 6.40272 7.00813 15.5999
63 4 4.02994 11.3082 16.0459
64 4 6.44493 11.1586 11.5332
142 3 5.34657 7.37621 16.8307
162 3 6.63791 8.29897 14.7311
165 3 3.17873 10.402 15.073
166 3 5.0226 10.679 17.3138
167 3 2.87201 12.4387 16.6947
188 1 3.51695 8.30412 13.3539
190 1 2.20174 12.3746 11.2786
201 1 5.3353 12.314 15.0925
202 1 4.7348 10.4554 11.2265
346 2 10.2019 8.62273 17.3196
143 3 9.80835 7.61067 10.4853
259 2 2.77023 12.2863 10.3275
260 2 2.83117 11.9777 12.1873
291 2 3.94879 11.2571 11.0423
292 2 4.29564 9.66285 12.0593
293 2 5.0731 9.94803 10.2139
152 3 7.63452 11.1893 17.0179
169 3 6.85127 10.3509 12.8229
203 1 6.45613 13.1928 11.6669
62 4 7.62202 9.10852 13.796
168 3 7.49897 11.0229 10.2501
355 2 0.900255 13.0217 13.9086
348 2 10.8186 6.97212 14.6828
56 4 8.74228 7.14843 11.6473
261 2 1.85229 13.5399 11.4988
29 4 3.9223 7.15327 17.5268
335 2 1.5738 13.4742 9.70027
295 2 5.46116 13.4664 11.1293
ITEM: TIMESTEP
100
ITEM: NUMBER OF ATOMS
366
ITEM: BOX BOUNDS xy xz yz pp pp pp
-7.7144399461178335e+00 1.5360197440179936e+01 -7.6448629701767841e+00
-2.5448601139492300e-01 1.3674893816520523e+01 2.5342046423892034e-01
-1.4304623784867587e-01 1.7750446237848607e+01 -1.1459219487448345e-01
ITEM: ATOMS id type x y z
69 3 -1.18057 2.91073 2.47811
73 3 -2.37279 6.19183 4.58436
74 3 -0.614684 5.45649 6.63043
71 3 -0.520887 5.27272 1.3285
99 3 4.65567 5.12555 6.85634
10 4 0.00575355 4.28074 7.49542
66 3 -0.468519 1.60876 4.81321
27 4 6.33721 1.86263 5.92376
96 3 4.50034 3.21792 8.73328
7 4 0.0698805 3.93778 2.08099
72 3 0.530189 2.77894 6.87488
3 4 1.20955 1.71949 0.324384
5 4 0.866501 1.64702 5.83496
24 4 3.50217 1.78998 4.12111
91 3 3.2706 0.711636 8.45885
28 4 1.41735 5.9073 4.11319
65 3 1.37854 0.413306 1.29135
67 3 1.33933 0.268995 6.56763
70 3 1.25416 3.11268 1.09017
89 3 3.48318 0.459814 3.11066
90 3 2.1744 2.00792 4.97257
92 3 4.83587 1.75683 5.15738
93 3 6.70211 0.520002 6.75587
94 3 0.724468 4.5595 3.36374
98 3 2.50462 5.43508 5.29903
171 1 -1.47503 3.78338 8.73764
178 1 3.88134 3.15773 2.90089
225 2 2.92491 3.7207 3.00326
226 2 3.7788 2.47825 1.95964
227 2 4.81438 3.95124 2.8419
338 1 3.62118 5.31625 0.225262
31 4 3.81527 6.15475 5.86904
172 1 1.49213 5.02425 8.43527
340 2 3.45658 5.45693 1.34786
9 4 -0.930159 6.60944 0.485962
209 2 2.2961 4.58064 7.63511
208 2 1.47546 6.18633 8.53733
12 4 -1.17201 6.65569 5.57834
314 2 3.44675 2.39373 -0.00590369
356 2 4.71667 4.7582 0.0666672
361 2 -0.185618 0.256541 8.02733
313 2 3.59005 0.434754 17.4719
312 1 3.17745 1.48611 17.2656
206 2 -0.928213 3.41412 9.65678
77 3 -1.31925 5.72304 13.2147
320 1 -2.1287 5.77691 17.4285
6 4 -0.880041 2.23791 15.8992
75 3 -0.82119 3.81003 15.2971
224 2 4.6606 -0.140699 11.219
322 2 -1.65253 5.39133 16.502
217 2 -0.70504 5.10943 10.0387
175 1 -0.269327 5.98135 10.6382
349 2 -2.84147 5.69111 13.9287
230 2 5.93234 -0.08521 9.51594
229 2 6.41617 1.76653 9.36642
284 2 4.15187 6.06299 9.73483
13 4 0.0237017 4.75435 14.13
205 2 -0.932846 1.71137 13.4707
213 2 0.109574 3.74691 12.0421
212 2 1.93654 4.13339 12.5267
210 2 1.54466 4.50192 9.41801
328 2 5.11838 1.04902 16.8077
339 2 2.98726 4.66417 17.677
68 3 0.166193 1.60283 17.0899
228 2 6.00798 1.01399 11.1716
26 4 4.10463 1.75415 9.36141
211 2 0.970507 2.7139 13.3672
100 3 1.04338 5.71231 14.7821
173 1 0.870282 3.68432 12.8452
179 1 5.78793 1.00114 9.99573
180 1 2.96031 2.10358 10.9314
181 1 4.55701 3.04176 14.7797
231 2 2.50281 3.14267 10.7982
232 2 3.42812 1.8951 11.9462
233 2 2.22196 1.32011 10.6517
234 2 4.0148 2.46614 13.8882
235 2 3.76936 3.6407 15.3599
236 2 5.14817 2.31962 15.4338
241 2 3.14087 5.30301 13.0787
303 1 6.18968 0.758512 13.1941
306 2 5.50922 1.59271 13.7742
315 2 2.94974 1.79341 16.1847
327 1 6.17924 0.772803 16.4176
183 1 3.85913 4.93369 12.3392
218 2 0.465204 5.58402 11.4955
330 2 6.1804 0.732184 15.2643
204 2 0.49502 0.876899 14.3965
240 2 4.07192 5.81767 11.5462
242 2 3.55051 3.88866 11.7709
299 2 5.63065 3.19694 17.1173
207 2 -2.05378 4.75563 8.93178
329 2 6.52658 -0.168951 16.8644
95 3 0.228026 6.87666 4.66329
358 2 0.241603 10.1059 0.855261
1 4 -5.26606 13.2129 2.20755
4 4 -5.33072 13.301 7.57406
15 4 -2.6397 9.12749 2.00771
17 4 -4.10171 11.0433 0.161908
18 4 -2.34961 8.81115 7.55068
20 4 -3.7418 11.2143 5.87473
35 4 -1.3586 11.504 3.7869
78 3 -3.34709 8.30158 3.24483
79 3 -1.50403 7.89098 1.24717
80 3 -3.68242 9.62091 0.829608
81 3 -4.64533 12.1762 1.25327
83 3 -1.68937 7.94151 6.37997
85 3 -4.96826 10.8519 4.9849
86 3 -3.16915 10.0225 6.85963
87 3 -4.28913 12.4981 6.72859
105 3 -1.75282 10.4239 2.46182
106 3 -0.844395 12.9288 3.04326
107 3 -2.63125 11.6681 4.73114
310 3 -6.2661 12.4127 3.13643
249 2 0.426867 7.63597 8.33533
185 1 1.22231 10.288 0.299226
111 3 -1.01491 12.1499 8.55914
113 3 -0.129768 10.8816 4.52591
110 3 -1.16339 9.41901 8.46617
25 4 -0.0738544 13.2154 7.58028
82 3 -3.38245 7.8926 8.46103
245 2 0.0898242 8.60679 2.1398
84 3 -6.18849 12.4289 8.60257
34 4 2.6504 8.25545 2.49053
39 4 1.14492 11.1784 5.52886
37 4 2.49217 8.77395 7.3403
114 3 1.56825 9.65971 6.42693
184 1 0.922989 8.98011 2.74971
243 2 1.16298 10.0863 2.56933
244 2 0.751876 8.86154 3.87488
109 3 3.20742 7.54048 6.64757
8 4 -3.7429 6.94268 3.87864
103 3 2.39639 6.8018 3.059
254 2 3.36653 7.25879 13.5023
121 3 1.55729 10.3608 12.785
324 2 -4.83471 13.0247 15.5038
223 2 -4.73466 13.1056 11.4462
119 3 -2.68925 11.5552 17.2368
215 2 -0.202661 8.36145 13.3968
22 4 -3.76171 11.0637 11.2929
38 4 -1.14206 10.7992 9.41412
41 4 -1.68989 11.3309 15.9684
88 3 -5.13872 10.9721 10.4197
112 3 -2.39336 10.9492 10.4237
118 3 -1.85519 12.2025 14.6175
174 1 -0.929462 8.44925 12.4958
176 1 -3.70477 10.0222 12.8729
177 1 -3.67077 13.0255 11.9808
189 1 -1.75111 9.52746 15.4112
221 2 -3.0236 9.96036 13.7795
256 2 -1.03962 9.1348 16.2773
257 2 -1.399 9.09899 14.3382
258 2 -2.85231 9.22239 15.6102
311 3 -5.11179 10.5576 17.0766
323 1 -5.85415 12.6019 15.3404
214 2 -0.515651 8.848 11.472
222 2 -3.56447 9.01002 12.1362
219 2 0.267108 6.74071 9.95448
302 4 -1.71818 12.8604 13.1237
216 2 -1.96134 9.07895 12.7548
220 2 -4.78788 10.1075 13.0952
122 3 -0.465209 12.2892 12.3165
117 3 -0.134508 11.6892 16.6547
102 3 0.295181 7.01735 17.096
76 3 -2.83971 6.74334 10.8824
116 3 1.15272 8.40918 14.7575
101 3 2.75468 7.07888 16.276
325 2 -6.63039 13.2298 15.803
246 2 1.60216 9.46943 17.3035
248 2 1.84642 7.58128 9.41795
247 2 0.845149 9.14121 9.40608
120 3 0.448263 10.6062 10.3384
33 4 1.27027 7.06203 15.7336
186 1 1.20792 8.2318 8.80957
42 4 0.843678 11.3177 11.7476
326 2 -5.97747 12.4151 14.2498
40 4 2.24267 9.42715 13.9911
351 2 -2.66759 6.773 17.2645
353 2 -3.88782 13.5868 12.9309
14 4 -1.50089 6.70288 11.8584
279 2 8.77931 2.65042 7.84101
97 3 6.42423 3.07838 6.91179
197 1 6.12388 5.43942 2.51721
278 2 6.20832 4.40344 3.08383
137 3 7.67225 6.37945 4.80133
277 2 5.23151 5.44577 1.77091
131 3 4.93527 6.49093 4.65962
276 2 7.16583 5.45556 1.79025
301 2 6.33611 4.34531 0.801178
354 2 9.66851 1.36069 -0.0711479
125 3 7.46494 2.14943 4.7639
30 4 5.41477 4.11896 7.74835
198 1 8.87994 3.54187 8.53386
352 2 12.9932 3.02051 8.3642
2 4 13.5825 1.91271 3.77684
44 4 8.87638 2.11211 4.10327
46 4 11.4307 2.43989 5.79133
48 4 9.71945 4.77846 2.15126
51 4 10.2808 4.66928 7.80675
123 3 13.0163 0.409457 3.022
124 3 8.85282 0.804123 3.06486
126 3 12.4042 2.7637 4.53028
127 3 10.0015 2.02144 5.30441
128 3 12.1641 1.07112 6.64462
129 3 9.15925 3.52928 3.18692
130 3 10.6806 5.89754 2.76086
132 3 8.62108 5.35621 1.02709
133 3 11.2187 3.65419 6.81886
138 3 9.43257 5.70146 6.95621
196 1 10.9966 3.73076 1.14816
274 2 10.6405 2.61872 1.21144
191 1 11.0355 0.469315 1.11891
273 2 10.9104 4.14508 0.0849115
337 2 9.56468 0.802291 8.26661
360 2 10.135 0.57532 1.90602
359 2 11.4861 1.48194 0.916635
275 2 11.9231 3.96495 1.69372
23 4 7.65825 0.0465541 2.13088
192 1 14.0611 0.598199 8.69271
280 2 7.89871 4.18155 8.5753
135 3 6.25866 5.08266 8.65808
297 3 6.84601 1.24602 1.22343
49 4 6.33762 6.73827 3.89699
263 2 13.9298 1.81073 8.76816
45 4 12.8255 -0.130789 7.45947
321 2 12.1981 5.08227 0.156987
362 2 14.0785 0.120251 9.79055
134 3 11.0802 5.25574 9.1989
300 2 7.39653 4.2331 16.9158
298 1 6.72972 3.68244 17.6525
140 3 5.85854 5.59952 14.6326
182 1 6.72198 3.94178 12.4643
239 2 6.23084 3.18746 11.8581
307 2 7.23292 1.12755 12.7142
304 1 8.7789 -0.11078 14.646
32 4 5.19916 4.48579 13.733
237 2 7.13031 4.76993 11.7843
350 2 13.9029 0.148562 14.5741
238 2 7.50913 3.57952 13.2373
308 2 7.83714 0.285652 15.2805
309 2 9.27756 0.780892 14.0999
141 3 7.78339 6.5374 16.3968
144 3 7.30277 6.45797 10.9889
318 2 11.5425 2.23291 15.7789
336 2 7.88141 1.2418 9.07668
333 2 9.50571 2.92345 16.8829
294 2 14.2975 -0.0272042 12.6712
332 2 9.07073 1.1957 16.134
316 1 12.4383 1.82373 16.3215
317 2 12.5006 0.639185 16.3948
331 1 9.11879 1.84483 17.0997
281 2 9.25307 3.23057 9.53835
264 2 11.325 1.5007 9.53421
285 2 8.11202 4.69103 14.876
267 2 8.89231 0.953652 12.6002
319 2 12.55 2.24802 17.3702
47 4 11.0175 2.17019 12.088
54 4 10.0642 4.87169 13.5103
139 3 10.8545 3.57626 12.7949
145 3 9.16591 5.79129 12.6361
193 1 11.7415 2.2792 10.3428
194 1 8.97706 1.7305 11.7928
195 1 11.6834 0.822186 13.2335
200 1 9.05267 4.03296 14.8856
265 2 12.8515 1.98968 10.882
266 2 11.6575 3.37523 9.98249
268 2 8.90555 1.22503 10.698
269 2 8.15683 2.55494 11.9442
286 2 9.60751 3.94919 15.9439
287 2 8.84117 3.05214 14.4481
272 2 12.5458 0.257719 12.6721
271 2 11.8961 1.10079 14.4021
270 2 10.6711 0.231439 13.0811
365 2 11.4279 5.3575 15.4787
347 1 11.3617 5.86513 14.5394
170 1 14.5508 1.07939 14.3696
334 1 8.67502 0.397507 8.83329
296 4 7.31824 1.88047 17.703
261 2 9.55356 -0.186143 11.5281
295 2 13.2365 -0.180542 11.1053
262 2 3.07035 13.592 0.186057
43 4 4.70685 13.176 2.03701
58 4 3.74745 10.9601 3.89261
61 4 6.2274 11.1518 5.79713
104 3 2.99771 8.08191 0.963628
251 2 5.01579 9.24839 8.47961
157 3 8.62125 9.93338 8.33693
115 3 0.926478 12.3438 6.65767
146 3 6.57494 8.03054 3.06734
149 3 3.37937 9.45151 3.25977
150 3 3.89919 11.9754 2.60168
151 3 2.38607 11.5571 4.69247
153 3 6.50929 10.0806 1.28962
154 3 5.66831 12.6172 0.84296
159 3 4.99895 10.8697 4.84951
160 3 6.41269 9.93905 6.86603
161 3 5.8528 12.5056 6.69721
57 4 7.33983 9.00909 2.10503
155 3 6.91879 7.85597 8.6622
158 3 7.5279 11.1976 4.91506
59 4 6.04437 11.1698 0.157986
187 1 3.97138 9.66399 8.17447
108 3 0.649716 12.9579 0.91825
250 2 4.00142 10.439 7.24885
343 2 3.82244 11.6732 8.39749
364 2 10.6976 7.12023 0.160416
60 4 7.60098 8.98985 7.54175
50 4 8.34949 6.9256 -0.112666
147 3 7.8507 7.99223 0.916662
136 3 10.2225 7.24634 5.02448
148 3 8.55218 9.75144 2.96173
16 4 8.84001 11.0936 3.99246
156 3 8.39469 8.05836 6.50369
363 2 2.80313 13.3415 8.63148
341 1 3.80495 12.8678 8.60461
53 4 8.90807 6.8188 5.76079
357 2 2.12624 10.2856 0.997191
345 2 10.5929 6.87813 16.1584
11 4 11.1932 6.80421 9.74121
344 1 10.2964 7.43128 17.1981
253 2 3.10469 8.31376 12.0365
36 4 1.17369 11.8917 17.5857
164 3 8.67017 9.77273 14.9287
163 3 8.61292 8.34436 12.6185
199 1 4.61524 7.0072 9.98859
342 2 4.40114 13.0942 9.51891
290 2 4.76501 13.011 14.3181
283 2 4.70523 7.21643 11.157
21 4 8.83187 10.9149 16.145
305 2 1.94954 13.2022 15.3983
252 2 3.3173 10.0103 9.06367
282 2 4.27901 8.00467 9.29491
19 4 8.79578 11.0919 9.4169
366 2 7.41204 13.2293 11.0727
288 2 5.80421 11.2695 14.4058
255 2 4.53167 8.75649 13.2599
289 2 5.9001 12.5739 15.7473
55 4 6.45138 7.07379 15.6655
63 4 3.99349 11.2245 16.0764
64 4 6.43501 11.2006 11.5574
142 3 5.35517 7.2898 16.8548
162 3 6.61765 8.24161 14.5119
165 3 3.17366 10.3259 15.0305
166 3 4.85812 10.5719 17.2912
167 3 2.90044 12.3962 16.7892
188 1 3.49016 8.28918 13.1095
190 1 2.24545 12.507 11.2931
201 1 5.2449 12.1173 14.9679
202 1 4.73711 10.5213 11.1569
346 2 10.2635 8.5355 17.164
143 3 9.83199 7.21263 10.4369
259 2 2.85269 12.5164 10.3292
260 2 2.95533 12.2053 12.1594
291 2 3.95237 11.3919 11.034
292 2 4.26951 9.69715 11.8642
293 2 5.05661 10.0725 10.1263
152 3 7.45266 11.1865 17.0011
169 3 6.89428 10.5245 12.9759
203 1 6.46556 13.1916 11.6792
62 4 7.67784 9.12486 13.772
168 3 7.32508 11.0633 10.2543
355 2 0.74605 12.9663 13.8581
348 2 11.1481 6.99679 14.4848
56 4 8.68502 7.01902 11.6129
52 4 6.4552 6.73259 9.65576
29 4 3.85858 6.94294 17.3798
335 2 1.39025 13.5848 9.72678
ITEM: TIMESTEP
200
ITEM: NUMBER OF ATOMS
366
ITEM: BOX BOUNDS xy xz yz pp pp pp
-7.7144399461178335e+00 1.5360197440179936e+01 -7.6448629701767841e+00
-2.5448601139492300e-01 1.3674893816520523e+01 2.5342046423892034e-01
-1.4304623784867587e-01 1.7750446237848607e+01 -1.1459219487448345e-01
ITEM: ATOMS id type x y z
69 3 -0.984909 2.82904 2.55787
73 3 -2.36137 6.28199 4.48079
74 3 -0.566839 5.52682 6.60124
71 3 -0.582493 5.28361 1.28636
99 3 4.44288 5.02419 6.8765
10 4 0.115295 4.3611 7.4344
66 3 -0.367861 1.41852 4.78768
27 4 6.24424 1.99641 5.95098
96 3 4.40652 3.21363 8.71045
7 4 0.116528 3.96925 2.09786
72 3 0.556833 2.88965 6.5992
3 4 1.16258 1.78783 0.359953
5 4 0.969026 1.60336 5.67872
24 4 3.59342 1.71061 4.046
91 3 3.22553 0.614664 8.50838
28 4 1.46628 5.90288 4.05861
65 3 1.34968 0.610999 1.4201
67 3 1.3588 0.310295 6.64396
70 3 1.16588 3.29483 1.04739
89 3 3.3515 0.412243 3.22348
90 3 2.27859 2.00171 4.90296
92 3 4.91198 1.91858 5.01748
93 3 6.59092 0.596812 6.78873
94 3 0.909162 4.49179 3.43466
98 3 2.66137 5.52219 5.04206
171 1 -1.28441 3.77167 8.75319
178 1 3.63814 3.17084 2.75597
225 2 2.73139 3.81786 3.02391
226 2 3.53243 2.59714 1.78903
227 2 4.55411 3.86846 2.69711
338 1 3.63698 5.43193 0.474484
31 4 3.87418 6.05813 5.91793
172 1 1.59372 4.90248 8.41802
340 2 3.51463 5.69459 1.55827
9 4 -0.981866 6.63506 0.395496
209 2 2.51979 4.53386 7.86668
208 2 1.65597 6.13547 8.57928
313 2 3.64753 0.961903 -0.00711819
356 2 4.65675 4.76116 0.266782
361 2 -0.120471 0.301585 8.07243
339 2 2.7115 4.97052 -0.00606382
12 4 -1.13584 6.72537 5.50484
314 2 3.29019 2.66521 17.3389
312 1 3.10806 1.53647 17.3345
206 2 -0.746974 3.37434 9.65019
77 3 -1.22584 5.74803 13.0402
320 1 -2.15047 5.74703 17.3802
6 4 -0.895933 2.045 15.8818
75 3 -0.664688 3.51281 15.2179
224 2 4.6479 -0.189241 11.299
322 2 -1.64987 5.42666 16.4435
217 2 -0.38877 5.22662 9.87602
175 1 0.0237126 6.0355 10.6127
349 2 -2.70763 5.84241 13.9575
230 2 5.72239 0.242559 9.59781
205 2 -0.74528 1.47479 13.6806
329 2 6.48706 -0.12706 17.0364
13 4 0.0242568 4.73868 14.1497
207 2 -1.75481 4.79168 8.91328
213 2 0.291565 3.59627 12.0482
212 2 2.16517 4.10442 12.7039
210 2 1.44275 4.36096 9.43724
328 2 5.05318 1.02727 16.9122
170 1 -0.423474 0.828868 14.5332
68 3 0.212791 1.70751 17.0723
228 2 5.95088 0.996363 11.3403
26 4 3.94967 1.82771 9.42322
211 2 1.02639 2.68414 13.6776
100 3 1.07341 5.70687 14.7223
173 1 1.02838 3.67252 12.9651
179 1 5.70974 1.17075 10.1819
180 1 2.96406 2.18128 11.0664
181 1 4.32581 2.97837 14.7129
231 2 2.41976 3.1516 11.0517
232 2 3.87974 2.16894 11.7746
233 2 2.28324 1.27032 11.153
234 2 3.81361 2.43065 13.8899
235 2 3.60988 3.67475 15.2908
236 2 4.98629 2.27426 15.4501
241 2 3.13975 5.49019 13.095
303 1 6.15133 0.62501 13.2896
306 2 5.48457 1.50874 13.8763
315 2 2.70567 1.04837 16.3759
327 1 6.11656 0.874219 16.5269
183 1 3.88217 5.02317 12.3139
218 2 0.607808 5.53669 11.4841
330 2 6.05487 0.752313 15.2997
204 2 0.688879 0.629936 14.5749
240 2 4.16906 5.86829 11.5519
242 2 3.46896 3.94276 11.7835
299 2 5.59222 3.21114 17.2343
284 2 3.93054 6.34659 9.80152
229 2 6.39587 1.8874 9.74429
95 3 0.108449 6.88044 4.54322
358 2 0.606788 9.84349 0.56975
1 4 -5.32626 13.3412 2.30638
4 4 -5.20878 13.3432 7.65308
15 4 -2.56109 9.29778 2.13868
17 4 -4.16186 11.1294 0.354935
18 4 -2.38934 8.87995 7.48777
20 4 -3.7473 11.2142 5.77865
35 4 -1.30936 11.5902 3.80962
78 3 -3.3425 8.48871 3.36716
79 3 -1.45535 7.97467 1.33764
80 3 -3.59067 9.82924 0.985659
81 3 -4.50316 12.3811 1.31738
83 3 -1.57798 8.02667 6.38098
85 3 -4.91322 10.6827 4.81866
86 3 -3.22405 9.97417 6.69734
87 3 -4.24748 12.3955 6.78631
105 3 -1.63264 10.5278 2.6764
106 3 -0.961944 13.0887 3.12608
107 3 -2.49704 11.7602 4.92787
310 3 -6.06121 12.3674 3.31095
249 2 0.673665 7.6523 8.2619
185 1 1.56484 10.355 0.263303
111 3 -0.955252 12.2761 8.60177
113 3 -0.0657802 10.9928 4.62084
110 3 -1.33588 9.50604 8.43742
25 4 -0.15551 13.2068 7.60963
82 3 -3.33382 7.76028 8.58686
245 2 -0.0337579 8.59991 2.16493
84 3 -6.15676 12.5141 8.72599
34 4 2.49636 8.27813 2.398
39 4 1.23285 11.1867 5.73117
37 4 2.38603 8.6276 7.20574
114 3 1.75645 9.80139 6.3962
184 1 0.832044 9.12618 2.80263
243 2 0.895429 10.2205 2.61099
244 2 0.715469 8.95565 3.92062
109 3 3.20063 7.37089 6.71286
8 4 -3.699 6.9399 3.88577
103 3 2.30337 6.80265 2.91428
254 2 3.09721 7.14724 13.4637
121 3 1.5561 10.1428 12.6992
324 2 -5.27352 12.9354 16.1089
223 2 -4.77637 12.9416 11.4352
119 3 -2.84779 11.4354 17.0208
215 2 -0.435668 8.52011 13.3971
22 4 -3.72406 10.9578 11.3199
38 4 -1.04732 10.8251 9.28225
41 4 -1.6375 11.1985 15.9214
88 3 -5.05161 10.8727 10.4259
112 3 -2.30316 10.706 10.4718
118 3 -1.98227 12.0445 14.5814
174 1 -1.03306 8.51476 12.3942
176 1 -3.85928 10.0378 12.9557
177 1 -3.69933 12.8858 11.988
189 1 -1.76188 9.40436 15.3567
221 2 -3.07298 9.9361 13.8882
256 2 -1.08677 8.86355 16.1272
257 2 -1.48916 9.10612 14.2746
258 2 -2.88999 9.20452 15.5636
311 3 -5.20267 10.5158 17.3325
323 1 -5.93406 12.3995 15.3396
214 2 -0.439533 8.81702 11.4821
222 2 -3.85427 8.97121 12.4166
219 2 0.697434 6.75075 10.0898
302 4 -1.73414 12.7176 13.1797
216 2 -2.08879 9.06752 12.5202
220 2 -4.86686 10.3087 13.3484
122 3 -0.555626 11.9786 12.2967
117 3 -0.0281063 11.5352 16.6321
102 3 0.263082 6.88756 17.0287
76 3 -2.854 6.74068 11.0241
116 3 0.929232 8.26244 14.8294
101 3 2.85929 6.83207 16.261
325 2 -6.84934 13.0464 15.0574
353 2 -3.94413 13.31 13.0984
248 2 2.32101 7.45262 9.53774
247 2 1.28091 9.14465 9.42014
120 3 0.679231 10.5834 10.1065
33 4 1.31307 6.95096 15.7357
186 1 1.59741 8.14418 8.86167
42 4 0.867091 11.1961 11.5929
326 2 -5.37562 12.1202 14.3639
40 4 2.17476 9.21961 13.8816
351 2 -2.73508 6.78837 17.258
14 4 -1.35865 6.75474 11.7341
279 2 8.76559 2.72277 7.64477
97 3 6.38158 3.22816 6.94719
197 1 6.12238 5.23883 2.6359
278 2 5.94131 4.40717 3.34134
137 3 7.69257 6.30564 4.61204
277 2 5.23821 5.33825 1.8254
131 3 5.08186 6.68763 4.97986
276 2 7.04297 5.15835 2.0729
301 2 6.29499 4.31572 0.820093
354 2 9.66424 1.24731 -0.0431144
125 3 7.38752 2.20007 4.75766
30 4 5.35207 4.12492 7.82607
198 1 8.8768 3.59084 8.40376
296 4 7.0915 2.03236 -0.107963
2 4 13.7004 1.86524 3.74399
44 4 8.75288 2.17484 4.04038
46 4 11.3512 2.35654 5.68399
48 4 9.67357 4.72538 2.08826
51 4 10.1872 4.71217 7.59546
123 3 13.0597 0.517803 3.02658
124 3 9.00792 0.709126 2.92433
126 3 12.3751 2.59689 4.35521
127 3 9.94564 1.9242 5.09062
128 3 11.9498 1.33686 6.69154
129 3 9.06961 3.622 3.15473
130 3 10.7313 5.94813 2.78262
132 3 8.62659 5.37912 1.02147
133 3 11.1091 3.69561 6.63597
138 3 9.20427 5.80312 6.91703
196 1 10.9513 3.70397 1.10796
274 2 10.8538 2.55722 1.11538
191 1 11.2094 0.42096 0.977037
273 2 10.8536 4.08286 0.0606314
337 2 9.3841 0.770716 8.04175
360 2 10.3741 0.568771 1.77155
359 2 11.7416 1.42539 0.69724
275 2 11.887 4.04845 1.67814
23 4 7.72142 0.0409034 2.28852
192 1 14.1291 0.602214 8.66161
280 2 7.87287 4.21877 8.65319
352 2 13.1582 3.00228 8.28658
297 3 6.93312 1.48409 1.36628
49 4 6.34256 6.69079 3.95863
321 2 12.1463 5.02306 0.098359
45 4 12.8063 -0.0846417 7.44002
263 2 13.9509 1.80852 8.76844
362 2 14.1673 0.129158 9.75515
134 3 11.035 5.28509 8.94831
300 2 7.13321 4.44533 16.9342
298 1 6.64685 3.72053 17.6344
140 3 5.70491 5.68093 14.6398
182 1 6.70183 3.99753 12.6561
239 2 6.54333 2.97589 12.104
307 2 7.11875 1.02261 12.6726
304 1 8.48024 -0.146518 14.6148
32 4 5.08097 4.5357 13.7316