ITEM: TIMESTEP
0
ITEM: NUMBER OF ATOMS
366
ITEM: BOX BOUNDS xy xz yz pp pp pp
-7.5762920697874234e+00 1.5360197440179936e+01 -7.5067150938463740e+00
-4.3342093615189597e-01 1.3674893816520523e+01 2.5342046423892034e-01
-1.4304623784867587e-01 1.7750446237848607e+01 -2.9352711963145645e-01
ITEM: ATOMS id type x y z
69 3 -1.11156 2.97651 2.56281
73 3 -2.46865 6.15617 4.73084
74 3 -0.817761 5.13466 6.57491
71 3 -0.29836 5.268 1.09591
99 3 4.6647 5.02387 6.80366
10 4 -0.046861 4.14915 7.53806
66 3 -0.335057 1.47202 4.57477
339 2 3.02318 4.94855 0.193939
96 3 4.36599 3.06561 8.60678
7 4 0.138238 3.96623 2.10285
72 3 0.526474 2.66063 6.83474
3 4 1.28702 1.76089 0.28805
5 4 1.00304 1.61806 5.71717
24 4 3.59266 1.56543 4.10423
91 3 3.18533 0.659401 8.42394
28 4 1.47134 5.80291 4.24993
65 3 1.38918 0.285764 0.957523
67 3 1.34765 0.248793 6.48117
70 3 1.28632 2.95857 1.37407
89 3 3.28161 0.314089 3.06663
90 3 2.32009 1.92556 4.88877
92 3 4.98799 1.55906 5.02517
93 3 6.84237 0.422752 6.64524
94 3 0.859448 4.52832 3.3952
98 3 2.51131 5.22764 5.36676
361 2 -0.0735069 0.39286 8.24931
178 1 3.60121 3.11119 2.96072
225 2 2.59894 3.62162 3.10638
226 2 3.87889 2.81953 1.89609
227 2 4.46037 3.67453 3.49123
338 1 3.98652 5.52697 0.469083
31 4 3.92282 6.07088 5.8506
172 1 1.4147 4.97956 8.38481
340 2 3.94654 5.75418 1.59609
9 4 -0.875148 6.63164 0.192239
209 2 2.2006 4.6051 7.64028
208 2 1.38311 6.16481 8.47433
12 4 -1.2243 6.4571 5.63176
27 4 6.3774 1.79385 5.86202
313 2 3.54478 0.415009 17.1432
312 1 3.14088 1.44173 17.0875
206 2 -0.898039 3.39448 9.82834
77 3 -1.31279 5.64347 13.2382
320 1 -2.07249 5.64027 17.1176
6 4 -0.841035 2.06608 15.8359
75 3 -0.619615 3.52545 15.2227
205 2 -0.786634 1.73483 13.5604
322 2 -1.7196 5.20138 16.1469
217 2 -0.566956 5.09888 10.1208
175 1 0.0585148 5.94684 10.7631
349 2 -2.8307 5.74984 14.1756
230 2 5.73948 -0.0694887 9.57304
229 2 6.22863 1.71012 9.43548
284 2 4.14111 6.0976 9.81564
13 4 0.0170961 4.71491 14.2139
170 1 -0.41135 0.938662 14.3385
213 2 0.413874 3.70884 11.9947
212 2 2.13063 4.19283 12.7728
210 2 1.45685 4.42241 9.38461
328 2 5.10829 1.0714 16.6765
329 2 6.5763 -0.207215 16.7612
68 3 0.388198 1.66199 17.0152
228 2 5.78828 0.924778 11.1589
26 4 3.92936 1.69744 9.36854
211 2 0.93315 2.6925 13.5642
100 3 1.12134 5.62815 14.7275
173 1 1.00216 3.76469 12.947
179 1 5.57767 0.908868 9.98694
180 1 2.8341 2.14111 10.9549
181 1 4.48209 3.05795 14.7962
231 2 2.67813 3.26385 10.4407
232 2 3.41436 2.18834 11.901
233 2 1.85038 1.52392 11.0092
234 2 3.77885 2.59681 14.0362
235 2 3.97754 3.67931 15.5641
236 2 5.13732 2.20728 15.3722
241 2 3.29354 5.26928 13.1208
303 1 6.12867 0.889404 13.134
306 2 5.50198 1.66307 13.6843
315 2 2.94675 1.6921 15.9971
327 1 6.21945 0.808331 16.3464
183 1 3.98008 4.78663 12.3783
218 2 0.825464 5.47086 11.4502
330 2 6.30514 0.945965 15.1665
204 2 0.729679 0.909139 14.3805
240 2 4.24618 5.6373 11.5274
242 2 3.5713 3.79853 11.8281
171 1 -1.47451 3.80878 8.99142
207 2 -1.88807 4.81679 9.26957
314 2 3.67546 2.27 17.6696
224 2 4.60765 -0.263985 11.2304
95 3 0.114718 6.83225 4.85607
358 2 0.0794126 9.88118 0.693445
1 4 -5.19178 13.1183 2.18577
4 4 -5.1468 13.333 7.51852
15 4 -2.48103 9.05424 1.98574
17 4 -3.97059 10.9425 0.187012
18 4 -2.42985 8.73061 7.6248
20 4 -3.71481 11.1453 5.78938
35 4 -1.30193 11.351 3.79386
78 3 -3.19301 8.17067 3.01232
79 3 -1.19841 7.85221 1.17582
80 3 -3.48993 9.59422 0.852183
81 3 -4.31708 12.0736 1.34992
83 3 -1.63504 7.6875 6.73533
85 3 -4.94081 10.6422 4.98559
86 3 -3.17366 9.85024 6.69638
87 3 -4.08674 12.4612 6.71953
105 3 -1.66208 10.1975 2.63218
106 3 -0.873648 12.8671 2.92318
107 3 -2.52536 11.5834 4.75785
310 3 -6.17036 12.3984 3.19439
249 2 0.644858 7.67514 8.24155
185 1 0.988156 10.1608 0.0199091
111 3 -0.864614 12.0482 8.52024
113 3 -0.0747688 10.77 4.58525
110 3 -1.31926 9.43606 8.47487
25 4 0.0369894 13.0733 7.54647
82 3 -3.38757 7.77117 8.60312
245 2 0.160135 8.51709 2.18436
84 3 -6.05318 12.4563 8.59063
34 4 2.69911 8.15545 2.52029
39 4 1.29608 11.0746 5.45672
37 4 2.48012 8.57627 7.25869
114 3 1.76472 9.67962 6.46063
184 1 0.996289 8.91561 2.80159
243 2 1.14133 10.0494 2.56964
244 2 0.744893 8.66693 3.91327
109 3 3.21218 7.34538 6.62566
8 4 -3.71859 6.86017 3.87284
103 3 2.31181 6.77963 3.17444
351 2 -2.66591 6.66877 16.8836
121 3 1.49277 10.2486 12.9133
324 2 -4.68072 12.7294 14.9368
223 2 -4.63458 12.9081 11.435
119 3 -2.47552 11.344 17.0287
215 2 -0.159935 8.30127 13.4074
22 4 -3.66501 10.8807 11.3362
38 4 -1.07467 10.7384 9.39986
41 4 -1.38119 11.1763 15.8828
88 3 -4.98708 10.8141 10.4241
112 3 -2.30936 10.8601 10.4529
118 3 -1.74396 12.2169 14.5065
174 1 -0.835243 8.39758 12.4564
176 1 -3.65932 9.95253 12.9629
177 1 -3.5269 12.8549 12.0364
189 1 -1.51898 9.38272 15.4065
221 2 -2.80931 9.76978 13.8661
256 2 -0.778183 8.923 16.2409
257 2 -1.22244 9.0522 14.2532
258 2 -2.68653 9.2301 15.6993
311 3 -4.87674 10.4035 17.0168
323 1 -5.75542 12.5219 15.1486
214 2 -0.232207 8.6812 11.5134
222 2 -3.75071 8.91639 12.4304
219 2 0.485183 6.79671 10.0865
302 4 -1.54761 12.9922 13.0921
216 2 -1.78767 9.03824 12.637
220 2 -4.64094 10.2881 13.342
122 3 -0.332781 12.2742 12.2764
117 3 0.165796 11.6017 16.4322
102 3 0.36836 6.83306 16.9627
76 3 -2.66904 6.6744 10.9965
116 3 0.971855 8.3089 14.8977
101 3 2.87014 6.83034 16.3895
325 2 -6.1655 13.2139 15.8765
246 2 1.22827 9.28931 16.9649
248 2 2.17582 7.45002 9.42166
247 2 1.06782 9.04533 9.50119
120 3 0.375377 10.4783 10.3627
33 4 1.4163 6.90854 15.669
186 1 1.50288 8.13924 8.89111
42 4 0.764758 11.2333 11.752
326 2 -6.43925 12.5321 14.2444
40 4 2.39598 9.37179 14.1692
14 4 -1.30421 6.63306 11.8663
254 2 3.59339 7.1904 13.8209
353 2 -3.7931 13.4395 12.9832
279 2 9.06815 2.50023 7.90396
97 3 6.34607 2.99812 6.89811
197 1 6.41683 5.25944 2.52518
278 2 6.37848 4.2262 3.08992
137 3 7.71773 6.15538 4.85073
277 2 5.51869 5.31446 1.7386
131 3 5.04734 6.44692 4.72716
276 2 7.47284 5.30661 1.80201
301 2 6.53508 4.31078 0.709185
354 2 9.71596 1.43359 -0.030949
125 3 7.40389 2.2905 4.73041
30 4 5.53268 4.08091 7.70866
198 1 9.11141 3.35376 8.68913
352 2 12.8873 3.13298 8.57299
2 4 13.5285 1.87483 3.76673
44 4 8.84628 2.11724 4.07082
46 4 11.3969 2.23552 5.89209
48 4 9.92468 4.65372 2.18085
51 4 10.3134 4.58157 7.81622
123 3 12.8973 0.515781 3.04591
124 3 8.7444 0.73482 3.10237
126 3 12.451 2.6348 4.75299
127 3 10.0062 1.88374 5.26812
128 3 12.0475 0.916926 6.82498
129 3 9.22875 3.45902 3.03536
130 3 10.7761 5.74075 2.9294
132 3 8.96064 5.42159 1.00307
133 3 11.244 3.58132 7.04459
138 3 9.58489 5.54259 6.74151
196 1 11.113 3.79353 0.957248
274 2 10.8606 2.66886 1.09484
191 1 11.0861 0.355194 1.09684
273 2 10.8968 4.20817 -0.0779035
337 2 9.51377 0.547386 7.91701
360 2 10.2835 0.352405 1.85711
359 2 11.4723 1.45722 0.852024
275 2 12.1476 4.12049 1.46098
23 4 7.64613 0.0475726 2.22004
192 1 14.1226 0.643388 8.76278
280 2 8.05651 3.80634 8.7434
135 3 6.42421 5.00151 8.71288
297 3 6.85689 1.33353 1.30337
49 4 6.41197 6.55275 3.88474
334 1 8.72723 0.216945 8.7482
356 2 5.00355 4.9529 0.18663
45 4 12.9474 -0.175843 7.52299
362 2 14.0131 0.133104 9.84534
134 3 10.8752 5.42574 9.15864
300 2 7.60595 4.13392 16.9375
298 1 6.89988 3.54328 17.5752
140 3 5.87026 5.59488 14.617
182 1 6.86654 3.96868 12.3964
239 2 6.65972 3.05467 11.7798
307 2 7.22997 1.13086 12.5819
304 1 8.79718 -0.140452 14.6421
32 4 5.33885 4.41615 13.6466
237 2 7.10403 4.94034 11.7696
350 2 14.2257 -0.105247 14.4276
238 2 7.64225 3.71124 13.2509
308 2 7.84478 0.177534 15.2624
309 2 9.17489 0.682126 14.057
141 3 7.85211 6.40837 16.3783
144 3 7.3032 6.49352 10.8625
318 2 11.6529 2.32513 15.9215
336 2 8.01857 1.10735 9.01152
333 2 9.45185 2.8093 17.0112
294 2 14.328 -0.15346 12.706
332 2 9.19429 1.05843 16.2284
316 1 12.503 1.69974 16.2444
317 2 12.2386 0.660855 16.0166
331 1 9.21573 1.68121 17.1707
281 2 9.47439 3.01077 9.68604
264 2 11.533 1.01431 9.7805
285 2 8.05221 4.38617 14.7604
267 2 8.82528 0.73049 12.4974
319 2 12.7595 1.88939 17.4148
47 4 10.9213 2.0763 12.0177
54 4 10.1502 4.67353 13.5849
139 3 10.9604 3.49967 12.7488
145 3 9.45302 5.68969 12.4534
193 1 11.7898 1.92594 10.3174
194 1 8.98282 1.52428 11.717
195 1 11.7368 0.762492 13.2605
200 1 8.94569 3.71084 14.7841
265 2 12.8354 1.83641 10.7674
266 2 11.6428 2.91044 9.78008
268 2 8.8435 1.07185 10.5814
269 2 8.31871 2.43857 11.8973
286 2 9.39432 3.72505 15.8084
287 2 8.67431 2.63166 14.4408
272 2 12.5956 0.11023 12.7076
271 2 11.9973 1.10805 14.3797
270 2 10.6835 0.159687 13.2876
365 2 11.2062 5.21139 15.6919
347 1 11.3328 5.80228 14.6064
299 2 5.88871 3.29872 17.0133
52 4 6.43601 6.5558 9.54011
263 2 13.9917 1.76867 8.83836
296 4 7.3091 1.70095 17.7415
321 2 12.4512 4.8485 17.6917
262 2 3.3386 13.5068 0.143722
43 4 4.92364 13.1652 2.07365
58 4 3.87999 10.7525 3.85634
61 4 6.30064 10.9339 5.81709
104 3 3.23952 8.00748 0.928759
251 2 4.93891 8.89714 8.15337
157 3 8.94149 9.87439 8.28873
115 3 0.993819 12.1478 6.62017
146 3 6.49036 8.02686 3.2208
149 3 3.47178 9.27381 3.28969
150 3 4.23235 11.8794 2.69476
151 3 2.51895 11.4124 4.63071
153 3 6.52868 10.222 1.48648
154 3 5.9664 12.7379 0.771023
159 3 5.09036 10.6911 4.85097
160 3 6.60463 9.67686 6.79338
161 3 5.90435 12.3566 6.70394
57 4 7.36916 9.02005 2.16402
155 3 6.7888 7.84828 8.64076
158 3 7.61724 11.2441 5.0163
59 4 6.22635 11.2602 0.193025
187 1 3.96636 9.49526 8.17032
108 3 0.856428 12.8916 1.07015
250 2 3.93589 10.2801 7.28312
343 2 4.10407 11.4784 8.52313
364 2 10.7691 7.09372 0.279281
60 4 7.69906 8.81639 7.66126
50 4 8.40208 6.95792 0.00602959
147 3 7.85718 8.08859 0.947947
136 3 10.2547 7.31609 5.04532
148 3 8.5908 9.75403 2.96368
16 4 8.85749 10.9674 4.02135
156 3 8.39325 7.94431 6.63628
363 2 3.11917 13.2311 8.69064
341 1 4.12762 12.7086 8.70312
53 4 8.9938 6.73738 5.7541
357 2 2.04606 10.0485 0.577897
345 2 10.6105 6.78609 16.3022
11 4 11.176 6.85241 9.77546
344 1 10.331 7.2456 17.3476
253 2 3.33729 8.22951 12.25
36 4 1.36067 11.6581 17.5691
164 3 8.69795 9.86507 14.7854
163 3 8.38943 8.06077 12.7223
199 1 4.64598 7.03447 10.0956
342 2 4.84131 13.0353 9.62551
290 2 4.95229 13.0918 14.5285
283 2 4.70768 7.1796 11.2548
21 4 8.96337 10.8549 15.9738
305 2 2.10737 13.1549 15.414
252 2 3.66401 9.86821 9.19872
282 2 4.30536 7.94997 9.40302
19 4 8.96685 11.03 9.28291
366 2 7.46193 13.1317 10.961
288 2 6.02125 11.4832 14.3285
255 2 4.61365 8.67137 13.5818
289 2 6.10522 12.5722 15.9243
55 4 6.47521 6.8507 15.5999
63 4 4.14546 11.1463 16.0459
64 4 6.55866 11.0419 11.5332
142 3 5.42282 7.20647 16.8307
162 3 6.72325 8.15022 14.7311
165 3 3.28512 10.2498 15.073
166 3 5.1319 10.5045 17.3138
167 3 2.99888 12.2704 16.6947
188 1 3.60226 8.16915 13.3539
190 1 2.32761 12.2604 11.2786
201 1 5.46081 12.1617 15.0925
202 1 4.84148 10.3417 11.2265
346 2 10.2906 8.44811 17.3196
143 3 9.88654 7.50439 10.4853
259 2 2.89516 12.1816 10.3275
260 2 2.95314 11.8544 12.1873
291 2 4.06347 11.1452 11.0423
292 2 4.39445 9.54083 12.0593
293 2 5.17464 9.84446 10.2139
152 3 7.74891 11.0177 17.0179
169 3 6.95701 10.2212 12.8229
203 1 6.59021 13.0747 11.6669
62 4 7.7154 8.96913 13.796
168 3 7.61126 10.9189 10.2501
355 2 1.03277 12.8812 13.9086
348 2 10.8907 6.82386 14.6828
56 4 8.81592 7.03053 11.6473
261 2 1.98983 13.4235 11.4988
29 4 3.99637 6.97657 17.5268
335 2 1.71057 13.3758 9.70027
295 2 5.59795 13.3537 11.1293
ITEM: TIMESTEP
100
ITEM: NUMBER OF ATOMS
366
ITEM: BOX BOUNDS xy xz yz pp pp pp
-7.5762920697874234e+00 1.5360197440179936e+01 -7.5067150938463740e+00
-4.3342093615189597e-01 1.3674893816520523e+01 2.5342046423892034e-01
-1.4304623784867587e-01 1.7750446237848607e+01 -2.9352711963145645e-01
ITEM: ATOMS id type x y z
69 3 -1.14505 2.88912 2.48616
73 3 -2.30122 6.15098 4.56531
74 3 -0.565732 5.39118 6.63059
71 3 -0.474361 5.24792 1.32295
99 3 4.70199 5.04734 6.85927
10 4 0.0431719 4.20033 7.50142
66 3 -0.441886 1.55483 4.80287
27 4 6.35744 1.803 5.91999
96 3 4.52904 3.13157 8.73956
7 4 0.105387 3.91855 2.09172
72 3 0.554563 2.69296 6.87545
3 4 1.23064 1.7014 0.322663
5 4 0.891631 1.57627 5.82605
24 4 3.51743 1.74322 4.1265
91 3 3.27168 0.635937 8.46791
28 4 1.48648 5.87439 4.10561
65 3 1.37813 0.39254 1.29267
67 3 1.34834 0.186214 6.56547
70 3 1.28447 3.08203 1.09852
89 3 3.4898 0.416346 3.11874
90 3 2.20388 1.95587 4.96923
92 3 4.86551 1.69965 5.15367
93 3 6.70117 0.447589 6.74306
94 3 0.776718 4.53419 3.36065
98 3 2.57204 5.38773 5.27906
171 1 -1.42917 3.70805 8.74156
178 1 3.93179 3.12932 2.88488
225 2 2.98195 3.71596 2.96951
226 2 3.84435 2.48159 1.9305
227 2 4.86138 3.85421 2.88138
338 1 3.69934 5.32753 0.255999
31 4 3.88182 6.08876 5.86777
172 1 1.55739 4.92198 8.41566
340 2 3.50442 5.45741 1.38272
9 4 -0.865328 6.60221 0.476224
209 2 2.34554 4.48193 7.59397
208 2 1.55188 6.06297 8.5102
12 4 -1.10838 6.59662 5.57619
314 2 3.47708 2.36712 -0.0103243
356 2 4.78213 4.76336 0.0877965
361 2 -0.189107 0.181622 8.03563
313 2 3.59949 0.243731 17.4394
312 1 3.19398 1.30226 17.2588
206 2 -0.89093 3.33219 9.66671
77 3 -1.23633 5.59594 13.2061
320 1 -2.04123 5.57812 17.4211
6 4 -0.852999 2.07787 15.9005
75 3 -0.783689 3.68264 15.2886
299 2 5.70382 2.99727 17.0984
322 2 -1.54699 5.09828 16.5548
217 2 -0.633922 5.0269 10.0527
175 1 -0.169978 5.86877 10.638
349 2 -2.72485 5.55211 13.9487
230 2 5.92564 -0.173749 9.49439
229 2 6.41896 1.68096 9.36509
284 2 4.1931 5.97059 9.74226
13 4 0.0768139 4.6117 14.1333
339 2 3.05699 4.51673 17.675
213 2 0.165792 3.61465 12.0486
212 2 2.00545 4.02334 12.5406
210 2 1.63402 4.39237 9.3941
328 2 5.13749 0.877709 16.8241
329 2 6.56071 -0.333532 16.8434
68 3 0.185265 1.43801 17.0897
228 2 6.00737 0.904305 11.1853
26 4 4.12911 1.66406 9.36093
211 2 1.03745 2.54519 13.3488
100 3 1.10476 5.56118 14.7782
173 1 0.922636 3.53788 12.8352
179 1 5.76795 0.916306 9.98486
180 1 2.98896 2.01395 10.9356
181 1 4.58878 2.908 14.7915
231 2 2.58257 3.07863 10.7479
232 2 3.41172 1.80977 11.9585
233 2 2.23164 1.25927 10.6353
234 2 4.00642 2.35196 13.9542
235 2 3.84169 3.55014 15.4292
236 2 5.19724 2.17603 15.4422
241 2 3.16453 5.19363 13.1096
303 1 6.19557 0.623797 13.1984
306 2 5.50724 1.44824 13.7622
315 2 2.95186 1.62768 16.1827
327 1 6.20077 0.609401 16.4111
183 1 3.91901 4.83136 12.3434
218 2 0.562578 5.47445 11.491
330 2 6.1935 0.591723 15.2394
204 2 0.521985 0.719632 14.3594
240 2 4.13167 5.74268 11.5498
242 2 3.59282 3.74363 11.7584
224 2 4.64278 -0.212562 11.2213
353 2 3.75613 -0.332142 12.9446
207 2 -1.97963 4.71539 8.93418
95 3 0.302979 6.83202 4.6691
358 2 0.339342 10.1565 0.870041
1 4 -5.14327 13.1922 2.21468
4 4 -5.19956 13.2194 7.58468
15 4 -2.55528 9.10322 2.01344
17 4 -3.98794 11.0328 0.154794
18 4 -2.25576 8.73434 7.54484
20 4 -3.6224 11.1527 5.86707
35 4 -1.24044 11.4736 3.78466
78 3 -3.27676 8.28047 3.244
79 3 -1.41042 7.87035 1.25718
80 3 -3.58247 9.60593 0.827822
81 3 -4.52671 12.1488 1.26447
83 3 -1.61948 7.88362 6.38504
85 3 -4.84796 10.8052 4.97238
86 3 -3.06817 9.95236 6.84901
87 3 -4.16159 12.4237 6.73821
105 3 -1.65853 10.399 2.47272
106 3 -0.714046 12.8927 3.03979
107 3 -2.51172 11.6246 4.73164
310 3 -6.15486 12.3892 3.14315
249 2 0.491736 7.5602 8.34746
185 1 1.34357 10.3053 0.302549
111 3 -0.903392 12.0674 8.55548
113 3 -0.0111552 10.844 4.52478
110 3 -1.06316 9.33204 8.45874
25 4 0.0509169 13.1334 7.57962
82 3 -3.30777 7.79781 8.48344
245 2 0.161389 8.5588 2.15614
84 3 -6.06626 12.3482 8.60817
34 4 2.73335 8.22757 2.49268
39 4 1.25834 11.1078 5.5347
37 4 2.5885 8.71295 7.34292
114 3 1.66665 9.59233 6.42734
184 1 0.999831 8.9379 2.75548
243 2 1.22804 10.0456 2.58821
244 2 0.851412 8.80252 3.8845
109 3 3.29163 7.47518 6.6504
8 4 -3.67299 6.90888 3.87378
103 3 2.47428 6.7682 3.05667
254 2 3.50468 7.11855 13.4507
121 3 1.66108 10.2326 12.7883
324 2 -4.71725 12.8623 15.5111
223 2 -4.5942 12.9948 11.4423
119 3 -2.57483 11.3889 17.2385
215 2 -0.116902 8.28563 13.4143
22 4 -3.65407 10.9666 11.2931
38 4 -1.03147 10.7016 9.41534
41 4 -1.57922 11.1771 15.964
88 3 -5.02747 10.8781 10.4165
112 3 -2.28679 10.8503 10.4233
118 3 -1.73321 12.0695 14.6238
174 1 -0.825213 8.32219 12.4991
176 1 -3.58892 9.93474 12.8532
177 1 -3.54131 12.9367 11.9897
189 1 -1.65338 9.37582 15.4094
221 2 -2.92606 9.82349 13.7811
256 2 -0.994005 8.93303 16.2683
257 2 -1.32569 8.97246 14.386
258 2 -2.76478 9.12398 15.5773
311 3 -4.99124 10.385 17.0744
323 1 -5.73875 12.4417 15.3475
214 2 -0.403619 8.64435 11.4661
222 2 -3.47244 8.91962 12.1134
219 2 0.358536 6.62056 9.9613
302 4 -1.59387 12.7406 13.1275
216 2 -1.85879 8.98252 12.7321
220 2 -4.73349 10.0586 13.0865
122 3 -0.335393 12.1546 12.3094
117 3 -0.0243702 11.5172 16.6594
102 3 0.373452 6.85302 17.0755
76 3 -2.76414 6.63942 10.8884
116 3 1.24478 8.26182 14.7515
101 3 2.83631 6.90948 16.2674
325 2 -6.51892 13.0687 15.8212
246 2 1.71327 9.30761 17.3015
248 2 1.89403 7.43675 9.42334
247 2 0.940959 9.02679 9.38658
120 3 0.545 10.4896 10.3401
33 4 1.34514 6.90201 15.7328
351 2 -2.55395 6.58763 17.1691
42 4 0.953882 11.1952 11.7458
326 2 -5.85912 12.2676 14.2485
40 4 2.34107 9.28655 13.9919
14 4 -1.42578 6.59204 11.8581
186 1 1.29305 8.11577 8.80763
279 2 8.82882 2.56857 7.82575
97 3 6.45595 3.00278 6.92493
197 1 6.13476 5.42912 2.4887
278 2 6.27131 4.44267 3.09166
137 3 7.74319 6.32283 4.78287
277 2 5.19672 5.44427 1.6347
131 3 5.01424 6.44175 4.66356
276 2 7.13413 5.44432 1.81546
301 2 6.39388 4.33262 0.766426
354 2 9.69201 1.34322 -0.0699597
125 3 7.48933 2.0981 4.75853
30 4 5.45226 4.03389 7.76182
198 1 8.9288 3.46481 8.52659
352 2 13.0131 2.96337 8.38116
2 4 13.6082 1.875 3.77015
44 4 8.89514 2.07649 4.09907
46 4 11.4567 2.36993 5.79106
48 4 9.76214 4.76062 2.1474
51 4 10.3314 4.58409 7.79874
123 3 13.0227 0.386792 3.02319
124 3 8.85782 0.775109 3.06877
126 3 12.4336 2.71561 4.53369
127 3 10.0249 1.97739 5.29986
128 3 12.1648 0.998312 6.64289
129 3 9.20007 3.50139 3.18095
130 3 10.7423 5.87752 2.75231
132 3 8.65063 5.34881 1.04178
133 3 11.26 3.58753 6.82967
138 3 9.49148 5.62776 6.94697
196 1 11.0392 3.72667 1.14965
274 2 10.6794 2.57437 1.19585
191 1 11.0431 0.464262 1.12232
273 2 10.9502 4.13758 0.0896351
337 2 9.56108 0.679049 8.23136
360 2 10.1323 0.566086 1.90693
359 2 11.4848 1.50283 0.922433
275 2 11.9706 3.95599 1.69569
23 4 7.65515 0.0198163 2.12193
192 1 14.0643 0.508237 8.69622
280 2 7.93846 4.08465 8.58418
135 3 6.28992 5.0027 8.66784
297 3 6.85258 1.24143 1.23137
49 4 6.40508 6.69616 3.87554
263 2 13.9355 1.7274 8.77165
45 4 12.8186 -0.205787 7.46156
321 2 12.2273 5.06242 0.188291
362 2 14.0813 0.014564 9.78891
134 3 11.132 5.17046 9.19667
300 2 7.44539 4.07412 16.9008
298 1 6.79083 3.50259 17.6337
140 3 5.9143 5.47233 14.619
182 1 6.76901 3.84152 12.5104
239 2 6.37676 2.97602 11.9538
307 2 7.22473 1.03382 12.7135
304 1 8.79093 -0.278575 14.6561
32 4 5.22498 4.36685 13.7265
237 2 7.15608 4.60907 11.7598
350 2 13.937 0.0122181 14.5874
238 2 7.63499 3.65814 13.3802
308 2 7.83898 0.115192 15.2918
309 2 9.32074 0.613897 14.1318
141 3 7.86019 6.35767 16.3869
144 3 7.36842 6.34868 10.9793
318 2 11.5775 2.10864 15.7795
336 2 7.88208 1.13986 9.07471
333 2 9.54293 2.73246 16.9052
294 2 14.3326 -0.165084 12.6646
332 2 9.09598 1.0361 16.1534
316 1 12.4677 1.67611 16.3174
317 2 12.5039 0.49313 16.396
331 1 9.15771 1.66076 17.1102
281 2 9.29311 3.12733 9.52445
264 2 11.3376 1.33915 9.56423
285 2 8.12743 4.54792 14.8119
267 2 8.89272 0.769493 12.595
319 2 12.569 2.10317 17.3734
47 4 11.0403 2.04446 12.0819
54 4 10.12 4.75919 13.503
139 3 10.8961 3.44305 12.7911
145 3 9.21996 5.669 12.6294
193 1 11.7926 2.14399 10.3235
194 1 8.96785 1.60151 11.8119
195 1 11.6815 0.681555 13.2461
200 1 9.05403 3.85444 14.8645
265 2 12.8705 1.86157 10.8933
266 2 11.6898 3.22787 9.96905
268 2 8.91179 1.13075 10.6704
269 2 8.17036 2.4637 11.9831
286 2 9.57236 3.75617 15.9323
287 2 8.83653 2.78831 14.4011
272 2 12.5539 0.115121 12.6776
271 2 11.9306 0.991239 14.4195
270 2 10.6915 0.051041 13.1656
365 2 11.4756 5.249 15.4822
347 1 11.447 5.73647 14.5464
334 1 8.67006 0.301451 8.84083
261 2 9.55495 -0.293391 11.5026
296 4 7.34268 1.69829 17.7075
205 2 14.2356 1.57681 13.5009
170 1 14.5809 0.924765 14.3765
262 2 3.2032 13.5903 0.181078
43 4 4.83772 13.1611 2.04708
58 4 3.86438 10.9245 3.88686
61 4 6.34059 11.087 5.79594
104 3 3.07981 8.06034 0.954147
251 2 5.15531 9.22662 8.56256
157 3 8.73274 9.84564 8.3328
115 3 1.05988 12.2652 6.66557
146 3 6.65694 8.01149 3.07645
149 3 3.48276 9.42072 3.24862
150 3 4.0202 11.9544 2.6193
151 3 2.50687 11.5045 4.6901
153 3 6.61511 10.0634 1.2963
154 3 5.7881 12.5902 0.850859
159 3 5.11693 10.8134 4.84256
160 3 6.50989 9.87198 6.88271
161 3 5.98321 12.4316 6.69749
57 4 7.42408 8.98696 2.11539
155 3 6.98817 7.77332 8.67363
158 3 7.64261 11.1442 4.91244
59 4 6.15635 11.1625 0.154038
187 1 4.07608 9.56476 8.17912
108 3 0.772615 12.9658 0.934831
250 2 4.10603 10.3695 7.24092
343 2 3.94941 11.5772 8.43333
364 2 10.761 7.14133 0.191832
60 4 7.68957 8.91409 7.54091
50 4 8.41618 6.90481 -0.108924
147 3 7.92604 7.9762 0.919847
136 3 10.3002 7.19337 5.02744
148 3 8.65184 9.7177 2.95306
16 4 8.95261 11.059 3.98615
156 3 8.46478 7.98718 6.50803
363 2 2.93549 13.2516 8.62716
341 1 3.93622 12.783 8.6074
53 4 8.97579 6.75813 5.75754
357 2 2.25361 10.294 1.00997
345 2 10.6813 6.70143 16.2006
11 4 11.2721 6.7121 9.74345
344 1 10.3637 7.24614 17.2357
253 2 3.22342 8.17807 12.0252
36 4 1.2892 11.7064 17.5873
164 3 8.77942 9.61385 14.935
163 3 8.68277 8.21423 12.6302
199 1 4.68008 6.91612 9.99162
342 2 4.52159 13.0348 9.51772
290 2 4.8806 12.8817 14.3732
283 2 4.78429 7.13661 11.149
21 4 8.9465 10.7446 16.1462
305 2 2.09953 13.0109 15.425
252 2 3.34481 9.90231 9.11503
282 2 4.36764 7.91458 9.26677
19 4 8.91646 11.0012 9.41231
366 2 7.55661 13.1546 11.0095
288 2 5.90844 11.1779 14.3723
255 2 4.60505 8.65432 13.2842
289 2 6.01809 12.3755 15.7601
55 4 6.5221 6.91513 15.6674
63 4 4.11173 11.0564 16.0759
64 4 6.55038 11.0677 11.5556
142 3 5.42301 7.1257 16.8551
162 3 6.70163 8.10511 14.525
165 3 3.28071 10.1641 15.0196
166 3 4.98912 10.3947 17.2716
167 3 3.02317 12.2279 16.7918
188 1 3.58263 8.14731 13.098
190 1 2.37958 12.3782 11.2868
201 1 5.35347 11.9663 14.9844
202 1 4.85826 10.3773 11.1549
346 2 10.3296 8.35718 17.1833
143 3 9.91287 7.11095 10.4321
259 2 2.93625 12.3014 10.2754
260 2 3.08502 12.0684 12.1382
291 2 4.07933 11.2464 11.014
292 2 4.37443 9.53818 11.8541
293 2 5.18762 9.91366 10.1101
152 3 7.57158 11.0067 17.0051
169 3 7.00081 10.3958 12.9862
203 1 6.60641 13.064 11.666
62 4 7.77325 8.97955 13.7767
168 3 7.43935 10.945 10.2557
355 2 0.896057 12.8195 13.8487
348 2 11.2621 6.85879 14.5072
56 4 8.75257 6.88653 11.6322
295 2 5.69385 13.4853 11.1443
29 4 3.92942 6.77279 17.3782
335 2 1.53033 13.4663 9.75854
52 4 6.51741 6.63363 9.65112
ITEM: TIMESTEP
200
ITEM: NUMBER OF ATOMS
366
ITEM: BOX BOUNDS xy xz yz pp pp pp
-7.5762920697874234e+00 1.5360197440179936e+01 -7.5067150938463740e+00
-4.3342093615189597e-01 1.3674893816520523e+01 2.5342046423892034e-01
-1.4304623784867587e-01 1.7750446237848607e+01 -2.9352711963145645e-01
ITEM: ATOMS id type x y z
69 3 -0.963685 2.82254 2.57535
73 3 -2.27189 6.23619 4.43999
74 3 -0.525655 5.4477 6.56471
71 3 -0.505676 5.2714 1.24735
99 3 4.49576 4.93703 6.86117
10 4 0.150302 4.27371 7.42362
66 3 -0.340767 1.35202 4.76116
27 4 6.26508 1.92532 5.95128
96 3 4.41697 3.09046 8.7362
7 4 0.149014 3.95398 2.0918
72 3 0.559218 2.77998 6.59462
3 4 1.17959 1.76645 0.36314
5 4 0.967942 1.53346 5.6805
24 4 3.60668 1.63435 4.07321
91 3 3.19921 0.52829 8.53391
28 4 1.53503 5.86882 4.05754
65 3 1.34575 0.587038 1.40431
67 3 1.36763 0.22458 6.6514
70 3 1.1941 3.26923 1.04144
89 3 3.35263 0.352795 3.22242
90 3 2.30965 1.94988 4.92355
92 3 4.93125 1.85895 5.01454
93 3 6.61276 0.51869 6.75894
94 3 0.974285 4.46007 3.40191
98 3 2.73231 5.4648 5.01974
171 1 -1.22152 3.69638 8.7742
178 1 3.61598 3.08479 2.71921
225 2 2.68731 3.63506 3.13605
226 2 3.48646 2.65534 1.69426
227 2 4.5322 3.70989 2.75646
338 1 3.70849 5.41079 0.443615
31 4 3.95397 6.0023 5.9008
172 1 1.64427 4.80432 8.3843
340 2 3.49234 5.65401 1.52994
9 4 -0.896766 6.60789 0.361098
209 2 2.57685 4.46864 7.81815
208 2 1.71279 6.03216 8.55812
12 4 -1.06168 6.65993 5.48633
361 2 -0.166168 0.172544 8.01155
356 2 4.70575 4.8057 0.281147
313 2 3.66111 0.916814 -0.0284785
321 2 -3.02312 5.35195 0.119565
339 2 2.79233 4.95279 -0.126217
314 2 3.3032 2.45665 17.3472
312 1 3.11971 1.31564 17.3385
206 2 -0.655016 3.31378 9.66984
77 3 -1.15733 5.63899 13.0429
320 1 -2.02974 5.5867 17.3173
6 4 -0.859929 1.93315 15.88
75 3 -0.661328 3.38031 15.2916
299 2 5.62352 3.0675 17.2415
322 2 -1.61587 4.86409 16.4529
217 2 -0.301521 5.10631 9.93885
175 1 0.136717 5.87111 10.696
349 2 -2.62988 5.65155 13.8993
230 2 5.78162 0.0482699 9.64346
229 2 6.46907 1.64882 9.69761
207 2 -1.65667 4.72107 8.91523
13 4 0.0855818 4.61515 14.1516
170 1 -0.412381 0.693657 14.5225
213 2 0.330099 3.50532 12.053
212 2 2.13092 3.95177 12.7757
210 2 1.52911 4.25433 9.36742
328 2 5.07489 0.868952 16.9085
329 2 6.56388 -0.238934 17.0237
68 3 0.185659 1.55247 17.0144
228 2 5.94619 0.912173 11.3036
26 4 3.94461 1.72494 9.44789
211 2 1.02946 2.59442 13.6971
100 3 1.1514 5.55543 14.7159
173 1 1.07711 3.53452 12.9857
179 1 5.72258 1.00812 10.1527
180 1 2.97034 2.02942 11.0514
181 1 4.36776 2.85708 14.7193
231 2 2.54143 3.04704 10.6965
232 2 3.903 2.05682 11.7405
233 2 2.20484 1.18258 11.2394
234 2 3.80991 2.38753 13.8619
235 2 3.66285 3.51722 15.3602
236 2 4.97919 2.11727 15.3996
241 2 3.1226 5.39361 13.0387
303 1 6.17226 0.512915 13.2748
306 2 5.54039 1.38532 13.8762
315 2 2.70607 0.839109 16.3757
327 1 6.14845 0.745555 16.5171
183 1 3.8771 4.90989 12.3024
218 2 0.746793 5.32348 11.5287
330 2 6.08407 0.659259 15.3172
204 2 0.706832 0.495071 14.5945
240 2 4.21704 5.75079 11.4661
242 2 3.53406 3.89378 11.8457
224 2 4.65146 -0.317567 11.2826
205 2 -0.676752 1.25861 13.6194
284 2 4.12501 6.19008 9.67314
95 3 0.211263 6.82256 4.55128
358 2 0.70468 9.85653 0.521238
1 4 -5.20718 13.2991 2.30311
4 4 -5.09011 13.2537 7.66363
15 4 -2.46769 9.25962 2.14466
17 4 -4.05232 11.11 0.351989
18 4 -2.30098 8.80118 7.48481
20 4 -3.62323 11.1582 5.7771
35 4 -1.20217 11.5839 3.81175
78 3 -3.27779 8.46858 3.35828
79 3 -1.38711 7.9324 1.35281
80 3 -3.45634 9.81636 0.966237
81 3 -4.40214 12.3359 1.35349
83 3 -1.51484 7.94182 6.38755
85 3 -4.78195 10.6624 4.79812
86 3 -3.13256 9.90314 6.68397
87 3 -4.11679 12.3076 6.80468
105 3 -1.53909 10.4816 2.69663
106 3 -0.849705 13.047 3.12318
107 3 -2.37278 11.7303 4.95107
310 3 -5.96506 12.3491 3.33206
249 2 0.697308 7.35292 8.61804
185 1 1.67521 10.3554 0.271255
111 3 -0.843619 12.2385 8.60015
113 3 0.0583051 10.9685 4.61285
110 3 -1.251 9.4312 8.43483
25 4 -0.0321023 13.1365 7.63811
82 3 -3.2627 7.69527 8.59841
245 2 0.0826369 8.5632 2.17606
84 3 -6.0632 12.436 8.72439
34 4 2.58256 8.25767 2.38858
39 4 1.33333 11.1178 5.71081
37 4 2.54448 8.62048 7.21833
114 3 1.82371 9.69414 6.36779
184 1 0.898174 9.06906 2.79298
243 2 0.962362 10.1744 2.59098
244 2 0.736333 8.93675 3.92274
109 3 3.27933 7.30526 6.75922
8 4 -3.61783 6.91419 3.86859
103 3 2.39076 6.78738 2.89578
254 2 3.33383 7.04886 13.4878
121 3 1.65284 10.0045 12.6962
324 2 -5.12152 12.7494 16.1337
223 2 -4.62759 12.9239 11.4736
119 3 -2.73919 11.3026 17.0279
215 2 -0.329155 8.32784 13.3463
22 4 -3.61063 10.8833 11.317
38 4 -0.946453 10.7355 9.29165
41 4 -1.5413 11.0578 15.9315
88 3 -4.93109 10.804 10.4248
112 3 -2.18296 10.6317 10.4631
118 3 -1.86423 11.9451 14.5809
174 1 -0.9488 8.37728 12.3532
176 1 -3.75512 9.95953 12.965
177 1 -3.57919 12.8127 11.9942
189 1 -1.66706 9.27243 15.3437
221 2 -3.01113 9.81486 13.89
256 2 -0.972251 8.75139 16.1024
257 2 -1.40944 8.95206 14.2365
258 2 -2.771 9.06594 15.58
311 3 -5.06856 10.3152 17.3397
323 1 -5.82258 12.2361 15.3596
214 2 -0.301929 8.88656 11.5529
222 2 -3.79956 8.87643 12.408
219 2 0.762806 6.67521 10.1593
302 4 -1.60657 12.6255 13.196
216 2 -2.03443 8.95808 12.5191
220 2 -4.77169 10.2989 13.3332
122 3 -0.453682 11.8773 12.2965
117 3 0.0897455 11.3568 16.6457
102 3 0.352781 6.72098 17.0605
76 3 -2.73524 6.62305 10.9988
116 3 1.04877 8.12696 14.8403
101 3 2.94111 6.67897 16.2599
325 2 -6.72032 12.9191 15.0852
186 1 1.60578 8.02869 8.85104
248 2 2.43986 7.50722 9.49928
247 2 1.22298 8.99773 9.38145
120 3 0.774243 10.4796 10.0818
33 4 1.40089 6.80932 15.7298
14 4 -1.2596 6.64169 11.7282
42 4 0.975208 11.0743 11.5869
326 2 -5.2972 11.8971 14.3886
40 4 2.26969 9.0796 13.9191
353 2 -3.77157 13.2784 13.0606
351 2 -2.48545 6.55119 16.9184
279 2 8.83847 2.62323 7.62991
97 3 6.41854 3.13412 6.95093
197 1 6.18044 5.28748 2.59834
278 2 5.99584 4.33554 3.24529
137 3 7.8233 6.25125 4.5936
277 2 5.25391 5.38435 1.86227
131 3 5.15948 6.62921 4.98142
276 2 7.1633 5.37164 1.9801
301 2 6.38386 4.37451 0.795908
354 2 9.66177 1.2588 -0.0663417
125 3 7.40691 2.17629 4.75662
30 4 5.42251 4.06637 7.8239
198 1 8.94249 3.48919 8.40473
296 4 7.0931 2.01767 -0.0931955
2 4 13.7415 1.83849 3.74042
44 4 8.76408 2.1459 4.04605
46 4 11.3799 2.30414 5.69037
48 4 9.70555 4.70141 2.08485
51 4 10.2373 4.6489 7.60899
123 3 13.0875 0.49675 3.03052
124 3 8.98333 0.664247 2.93155
126 3 12.4178 2.53711 4.37088
127 3 9.96921 1.88574 5.08001
128 3 11.964 1.2564 6.69914
129 3 9.0963 3.6011 3.15083
130 3 10.7749 5.95876 2.78025
132 3 8.69247 5.32966 1.02111
133 3 11.1728 3.61026 6.62254
138 3 9.25946 5.71259 6.91052
196 1 11 3.69232 1.12332
274 2 10.8519 2.56575 1.26558
191 1 11.1994 0.378926 1.02414
273 2 10.7959 4.04986 0.103314
337 2 9.40224 0.672196 8.09027
360 2 10.3647 0.523043 1.83238
359 2 11.7127 1.35601 0.708747
275 2 11.9605 4.06389 1.60947
23 4 7.69083 0.0272462 2.2869
192 1 14.1147 0.514222 8.65129
280 2 7.9482 4.10831 8.63964
263 2 14.0254 1.72358 8.7511
297 3 6.92324 1.48512 1.37769
49 4 6.41001 6.67079 3.94331
352 2 13.127 2.92931 8.41235
45 4 12.7771 -0.155687 7.44971
362 2 14.1563 0.0356971 9.74245
134 3 11.0818 5.25253 8.90329
300 2 7.17769 4.22327 16.8512
298 1 6.703 3.5517 17.6127
140 3 5.67667 5.59217 14.6674
182 1 6.7362 3.97349 12.6671
239 2 6.55506 2.9978 12.074
307 2 7.05604 0.857255 12.665
304 1 8.49882 -0.334333 14.6138
135 3 6.46364 5.13372 8.91225
237 2 6.94958 4.95529 12.0528