ITEM: TIMESTEP
0
ITEM: NUMBER OF ATOMS
366
ITEM: BOX BOUNDS xy xz yz pp pp pp
-7.5762920697874234e+00 1.5539132364936910e+01 -7.5067150938463740e+00
-2.5448601139492300e-01 1.3674893816520523e+01 4.3235538899589332e-01
-1.4304623784867587e-01 1.7750446237848607e+01 -1.1459219487448345e-01
ITEM: ATOMS id type x y z
69 3 -1.0845 3.00356 2.56281
73 3 -2.41991 6.20491 4.73084
74 3 -0.750581 5.20184 6.57491
71 3 -0.285971 5.28039 1.09591
99 3 4.73416 5.09334 6.80366
10 4 0.0299501 4.22596 7.53806
66 3 -0.287879 1.5192 4.57477
339 2 3.02654 4.95192 0.193939
96 3 4.45348 3.15311 8.60678
7 4 0.160697 3.98869 2.10285
72 3 0.596252 2.7304 6.83474
3 4 1.29133 1.7652 0.28805
5 4 1.06165 1.67667 5.71717
24 4 3.63513 1.6079 4.10423
91 3 3.271 0.745071 8.42394
28 4 1.51527 5.84684 4.24993
65 3 1.40018 0.29677 0.957523
67 3 1.41389 0.315035 6.48117
70 3 1.30149 2.97374 1.37407
89 3 3.31371 0.346185 3.06663
90 3 2.37041 1.97588 4.88877
92 3 5.03967 1.61074 5.02517
93 3 6.91025 0.490635 6.64524
94 3 0.89483 4.5637 3.3952
98 3 2.56641 5.28274 5.36676
361 2 0.0104167 0.476784 8.24931
178 1 3.63225 3.14223 2.96072
225 2 2.63144 3.65411 3.10638
226 2 3.89928 2.83992 1.89609
227 2 4.49672 3.71087 3.49123
338 1 3.99264 5.53309 0.469083
31 4 3.98275 6.13082 5.8506
172 1 1.49998 5.06483 8.38481
340 2 3.96393 5.77157 1.59609
9 4 -0.871795 6.63499 0.192239
209 2 2.27844 4.68294 7.64028
208 2 1.46928 6.25098 8.47433
12 4 -1.16655 6.51484 5.63176
27 4 6.43745 1.8539 5.86202
313 2 3.71764 0.587871 17.1432
312 1 3.31318 1.61404 17.0875
206 2 -0.798326 3.49419 9.82834
77 3 -1.17898 5.77728 13.2382
320 1 -1.89988 5.81288 17.1176
6 4 -0.681245 2.22587 15.8359
75 3 -0.465958 3.6791 15.2227
205 2 -0.6496 1.87186 13.5604
322 2 -1.5567 5.36428 16.1469
217 2 -0.464318 5.20151 10.1208
175 1 0.167576 6.0559 10.7631
349 2 -2.68752 5.89303 14.1756
230 2 5.83664 0.0276721 9.57304
229 2 6.32441 1.80591 9.43548
284 2 4.2407 6.19719 9.81564
13 4 0.160666 4.85848 14.2139
170 1 -0.266535 1.08348 14.3385
213 2 0.535252 3.83022 11.9947
212 2 2.25979 4.32198 12.7728
210 2 1.55213 4.51769 9.38461
328 2 5.27648 1.23959 16.6765
329 2 6.74535 -0.0381726 16.7612
68 3 0.55978 1.83358 17.0152
228 2 5.9013 1.0378 11.1589
26 4 4.02447 1.79255 9.36854
211 2 1.07022 2.82957 13.5642
100 3 1.27004 5.77686 14.7275
173 1 1.13306 3.89559 12.947
179 1 5.67897 1.01017 9.98694
180 1 2.94508 2.25209 10.9549
181 1 4.63148 3.20734 14.7962
231 2 2.78397 3.36969 10.4407
232 2 3.5348 2.30878 11.901
233 2 1.9619 1.63544 11.0092
234 2 3.92065 2.73861 14.0362
235 2 4.13461 3.83638 15.5641
236 2 5.29248 2.36244 15.3722
241 2 3.42617 5.40191 13.1208
303 1 6.26144 1.02217 13.134
306 2 5.64026 1.80135 13.6843
315 2 3.10816 1.8535 15.9971
327 1 6.38434 0.973225 16.3464
183 1 4.1053 4.91185 12.3783
218 2 0.941396 5.58679 11.4502
330 2 6.45823 1.09906 15.1665
204 2 0.874915 1.05437 14.3805
240 2 4.36289 5.75401 11.5274
242 2 3.69101 3.91824 11.8281
171 1 -1.38317 3.90013 8.99142
207 2 -1.79395 4.91091 9.26957
314 2 3.85358 2.44812 17.6696
224 2 4.72138 -0.15025 11.2304
95 3 0.164709 6.88224 4.85607
358 2 0.0877775 9.88954 0.693445
1 4 -5.1685 13.1415 2.18577
4 4 -5.07019 13.4096 7.51852
15 4 -2.45975 9.07553 1.98574
17 4 -3.96729 10.9458 0.187012
18 4 -2.35217 8.80829 7.6248
20 4 -3.65549 11.2047 5.78938
35 4 -1.26257 11.3904 3.79386
78 3 -3.16145 8.20222 3.01232
79 3 -1.18522 7.8654 1.17582
80 3 -3.47998 9.60418 0.852183
81 3 -4.30215 12.0885 1.34992
83 3 -1.56626 7.75629 6.73533
85 3 -4.88953 10.6935 4.98559
86 3 -3.10526 9.91864 6.69638
87 3 -4.01811 12.5298 6.71953
105 3 -1.63433 10.2252 2.63218
106 3 -0.842986 12.8977 2.92318
107 3 -2.47635 11.6324 4.75785
310 3 -6.13699 12.4318 3.19439
249 2 0.728704 7.75898 8.24155
185 1 0.989785 10.1624 0.0199091
111 3 -0.777982 12.1348 8.52024
113 3 -0.0274858 10.8173 4.58525
110 3 -1.23308 9.52224 8.47487
25 4 0.113885 13.1502 7.54647
82 3 -3.30011 7.85863 8.60312
245 2 0.183409 8.54036 2.18436
84 3 -5.96585 12.5437 8.59063
34 4 2.72574 8.18209 2.52029
39 4 1.35208 11.1306 5.45672
37 4 2.55414 8.65028 7.25869
114 3 1.83076 9.74566 6.46063
184 1 1.02574 8.94506 2.80159
243 2 1.16846 10.0765 2.56964
244 2 0.785457 8.7075 3.91327
109 3 3.27987 7.41306 6.62566
8 4 -3.67843 6.90033 3.87284
103 3 2.34498 6.8128 3.17444
351 2 -2.49564 6.83903 16.8836
121 3 1.62333 10.3792 12.9133
324 2 -4.52992 12.8802 14.9368
223 2 -4.5188 13.0239 11.435
119 3 -2.3038 11.5157 17.0287
215 2 -0.024431 8.43677 13.4074
22 4 -3.55022 10.9955 11.3362
38 4 -0.979239 10.8338 9.39986
41 4 -1.22093 11.3365 15.8828
88 3 -4.88141 10.9198 10.4241
112 3 -2.2034 10.966 10.4529
118 3 -1.59746 12.3633 14.5065
174 1 -0.709248 8.52357 12.4564
176 1 -3.52826 10.0836 12.9629
177 1 -3.4051 12.9766 12.0364
189 1 -1.36348 9.53822 15.4065
221 2 -2.66921 9.90987 13.8661
256 2 -0.614343 9.08684 16.2409
257 2 -1.07848 9.19616 14.2532
258 2 -2.52811 9.38852 15.6993
311 3 -4.70514 10.5751 17.0168
323 1 -5.6025 12.6748 15.1486
214 2 -0.115642 8.79777 11.5134
222 2 -3.62498 9.04212 12.4304
219 2 0.587478 6.89901 10.0865
302 4 -1.41525 13.1245 13.0921
216 2 -1.65987 9.16604 12.637
220 2 -4.50609 10.4229 13.342
122 3 -0.208587 12.3984 12.2764
117 3 0.331548 11.7675 16.4322
102 3 0.539418 7.00412 16.9627
76 3 -2.55764 6.7858 10.9965
116 3 1.12226 8.45931 14.8977
101 3 3.03546 6.99566 16.3895
325 2 -6.00531 13.3741 15.8765
246 2 1.39935 9.46039 16.9649
248 2 2.27146 7.54566 9.42166
247 2 1.16426 9.14177 9.50119
120 3 0.480435 10.5834 10.3627
33 4 1.57442 7.06666 15.669
186 1 1.59322 8.22958 8.89111
42 4 0.883709 11.3522 11.752
326 2 -6.29538 12.676 14.2444
40 4 2.53911 9.51492 14.1692
14 4 -1.18412 6.75316 11.8663
254 2 3.73303 7.33004 13.8209
353 2 -3.66184 13.5708 12.9832
279 2 9.14862 2.5807 7.90396
97 3 6.41648 3.06853 6.89811
197 1 6.44351 5.28612 2.52518
278 2 6.41081 4.25853 3.08992
137 3 7.76767 6.20532 4.85073
277 2 5.53751 5.33328 1.7386
131 3 5.09604 6.49562 4.72716
276 2 7.49229 5.32607 1.80201
301 2 6.5436 4.3193 0.709185
354 2 9.71708 1.43471 -0.030949
125 3 7.45262 2.33924 4.73041
30 4 5.61119 4.15943 7.70866
198 1 9.19973 3.44208 8.68913
352 2 12.9745 3.22014 8.57299
2 4 13.5676 1.91393 3.76673
44 4 8.88842 2.15938 4.07082
46 4 11.4572 2.29587 5.89209
48 4 9.94792 4.67696 2.18085
51 4 10.393 4.66116 7.81622
123 3 12.9292 0.547671 3.04591
124 3 8.77686 0.767274 3.10237
126 3 12.4999 2.68376 4.75299
127 3 10.0603 1.93785 5.26812
128 3 12.1172 0.986607 6.82498
129 3 9.26054 3.4908 3.03536
130 3 10.8068 5.77147 2.9294
132 3 8.9721 5.43305 1.00307
133 3 11.3159 3.6532 7.04459
138 3 9.65374 5.61143 6.74151
196 1 11.124 3.80453 0.957248
274 2 10.873 2.68124 1.09484
191 1 11.0985 0.367593 1.09684
273 2 10.8975 4.20882 -0.0779035
337 2 9.59437 0.627987 7.91701
360 2 10.3035 0.372407 1.85711
359 2 11.4822 1.46717 0.852024
275 2 12.1637 4.13653 1.46098
23 4 7.66976 0.0712034 2.22004
192 1 14.2116 0.732446 8.76278
280 2 8.14538 3.89521 8.7434
135 3 6.51277 5.09007 8.71288
297 3 6.87135 1.348 1.30337
49 4 6.45225 6.59303 3.88474
334 1 8.81615 0.305857 8.7482
356 2 5.00685 4.9562 0.18663
45 4 13.0241 -0.0991822 7.52299
362 2 14.113 0.232988 9.84534
134 3 10.9682 5.51875 9.15864
300 2 7.77675 4.30472 16.9375
298 1 7.07706 3.72046 17.5752
140 3 6.01786 5.74248 14.617
182 1 6.99193 4.09407 12.3964
239 2 6.77894 3.1739 11.7798
307 2 7.35722 1.25811 12.5819
304 1 8.94503 0.00739955 14.6421
32 4 5.47674 4.55405 13.6466
237 2 7.22316 5.05947 11.7696
350 2 14.3714 0.0404593 14.4276
238 2 7.77619 3.84518 13.2509
308 2 7.99884 0.331589 15.2624
309 2 9.31689 0.824126 14.057
141 3 8.01732 6.57358 16.3783
144 3 7.41326 6.60358 10.8625
318 2 11.8135 2.48577 15.9215
336 2 8.11011 1.1989 9.01152
333 2 9.62339 2.98085 17.0112
294 2 14.4565 -0.0249691 12.706
332 2 9.35801 1.22215 16.2284
316 1 12.6669 1.86361 16.2444
317 2 12.4002 0.822452 16.0166
331 1 9.38887 1.85434 17.1707
281 2 9.57269 3.10906 9.68604
264 2 11.6323 1.11355 9.7805
285 2 8.20124 4.53521 14.7604
267 2 8.95169 0.856895 12.4974
319 2 12.9351 2.06497 17.4148
47 4 11.0429 2.19791 12.0177
54 4 10.2874 4.81081 13.5849
139 3 11.0894 3.62859 12.7488
145 3 9.57899 5.81565 12.4534
193 1 11.8944 2.03054 10.3174
194 1 9.10142 1.64288 11.717
195 1 11.8709 0.896527 13.2605
200 1 9.09496 3.86011 14.7841
265 2 12.9445 1.94551 10.7674
266 2 11.742 3.00967 9.78008
268 2 8.95075 1.1791 10.5814
269 2 8.43912 2.55897 11.8973
286 2 9.55383 3.88457 15.8084
287 2 8.82015 2.7775 14.4408
272 2 12.7241 0.238736 12.7076
271 2 12.1425 1.25327 14.3797
270 2 10.8178 0.293994 13.2876
365 2 11.3646 5.36974 15.6919
347 1 11.4803 5.94977 14.6064
299 2 6.06027 3.47028 17.0133
52 4 6.53285 6.65263 9.54011
263 2 14.0815 1.85848 8.83836
296 4 7.48794 1.8798 17.7415
321 2 12.6295 5.02685 17.6917
262 2 3.34147 13.5097 0.143722
43 4 4.9458 13.1874 2.07365
58 4 3.91998 10.7925 3.85634
61 4 6.36025 10.9935 5.81709
104 3 3.25024 8.0182 0.928759
251 2 5.02187 8.98011 8.15337
157 3 9.02581 9.9587 8.28873
115 3 1.06145 12.2154 6.62017
146 3 6.524 8.0605 3.2208
149 3 3.50611 9.30814 3.28969
150 3 4.26073 11.9077 2.69476
151 3 2.56669 11.4601 4.63071
153 3 6.54497 10.2383 1.48648
154 3 5.97554 12.747 0.771023
159 3 5.1403 10.7411 4.85097
160 3 6.67399 9.74623 6.79338
161 3 5.97282 12.4251 6.70394
57 4 7.39223 9.04312 2.16402
155 3 6.87664 7.93612 8.64076
158 3 7.66884 11.2957 5.0163
59 4 6.22971 11.2635 0.193025
187 1 4.04949 9.5784 8.17032
108 3 0.86856 12.9037 1.07015
250 2 4.01015 10.3544 7.28312
343 2 4.19073 11.565 8.52313
364 2 10.7733 7.09794 0.279281
60 4 7.77711 8.89444 7.66126
50 4 8.40357 6.95941 0.00602959
147 3 7.86809 8.0995 0.947947
136 3 10.3066 7.36797 5.04532
148 3 8.62187 9.78509 2.96368
16 4 8.89913 11.009 4.02135
156 3 8.46104 8.0121 6.63628
363 2 3.20751 13.3195 8.69064
341 1 4.21608 12.7971 8.70312
53 4 9.05277 6.79635 5.7541
357 2 2.05327 10.0557 0.577897
345 2 10.775 6.95054 16.3022
11 4 11.2751 6.9516 9.77546
344 1 10.5059 7.4205 17.3476
253 2 3.46122 8.35344 12.25
36 4 1.53779 11.8352 17.5691
164 3 8.84723 10.0144 14.7854
163 3 8.51808 8.18942 12.7223
199 1 4.74836 7.13686 10.0956
342 2 4.93899 13.133 9.62551
290 2 5.09901 13.2386 14.5285
283 2 4.82166 7.29357 11.2548
21 4 9.12453 11.0161 15.9738
305 2 2.26294 13.3105 15.414
252 2 3.75743 9.96163 9.19872
282 2 4.40082 8.04543 9.40302
19 4 9.06111 11.1243 9.28291
366 2 7.57297 13.2428 10.961
288 2 6.16596 11.6279 14.3285
255 2 4.7509 8.80862 13.5818
289 2 6.26589 12.7329 15.9243
55 4 6.63264 7.00813 15.5999
63 4 4.30735 11.3082 16.0459
64 4 6.67542 11.1586 11.5332
142 3 5.59256 7.37621 16.8307
162 3 6.87199 8.29897 14.7311
165 3 3.43728 10.402 15.073
166 3 5.30647 10.679 17.3138
167 3 3.16726 12.4387 16.6947
188 1 3.73723 8.30412 13.3539
190 1 2.44183 12.3746 11.2786
201 1 5.61317 12.314 15.0925
202 1 4.95518 10.4554 11.2265
346 2 10.4653 8.62273 17.3196
143 3 9.99282 7.61067 10.4853
259 2 2.99986 12.2863 10.3275
260 2 3.07644 11.9777 12.1873
291 2 4.17533 11.2571 11.0423
292 2 4.51647 9.66285 12.0593
293 2 5.27821 9.94803 10.2139
152 3 7.92052 11.1893 17.0179
169 3 7.08667 10.3509 12.8229
203 1 6.70831 13.1928 11.6669
62 4 7.85479 9.10852 13.796
168 3 7.71519 11.0229 10.2501
355 2 1.17329 13.0217 13.9086
348 2 11.0389 6.97212 14.6828
56 4 8.93382 7.14843 11.6473
261 2 2.10625 13.5399 11.4988
29 4 4.17306 7.15327 17.5268
335 2 1.809 13.4742 9.70027
295 2 5.71067 13.4664 11.1293
ITEM: TIMESTEP
100
ITEM: NUMBER OF ATOMS
366
ITEM: BOX BOUNDS xy xz yz pp pp pp
-7.5762920697874234e+00 1.5539132364936910e+01 -7.5067150938463740e+00
-2.5448601139492300e-01 1.3674893816520523e+01 4.3235538899589332e-01
-1.4304623784867587e-01 1.7750446237848607e+01 -1.1459219487448345e-01
ITEM: ATOMS id type x y z
69 3 -1.10778 2.91507 2.49323
73 3 -2.26681 6.19626 4.56967
74 3 -0.501543 5.45799 6.63431
71 3 -0.451903 5.28131 1.33084
99 3 4.76279 5.12183 6.85688
10 4 0.11404 4.27311 7.50008
66 3 -0.401454 1.60849 4.81118
27 4 6.41364 1.86152 5.91974
96 3 4.61341 3.21639 8.73779
7 4 0.140412 3.95113 2.09368
72 3 0.615864 2.76844 6.87843
3 4 1.22589 1.71321 0.316537
5 4 0.94183 1.64616 5.83031
24 4 3.55817 1.78767 4.11766
91 3 3.36553 0.715266 8.47062
28 4 1.53149 5.89944 4.11097
65 3 1.39164 0.417768 1.30245
67 3 1.41922 0.268244 6.57453
70 3 1.29678 3.10843 1.07998
89 3 3.52335 0.451569 3.11292
90 3 2.24852 2.01163 4.96262
92 3 4.90788 1.75719 5.15184
93 3 6.76851 0.521503 6.75925
94 3 0.831245 4.56511 3.35617
98 3 2.61178 5.43541 5.28842
361 2 -0.103141 0.275519 8.03572
178 1 3.95489 3.15326 2.86026
225 2 3.002 3.71945 2.93817
226 2 3.88591 2.48786 1.92303
227 2 4.87999 3.92093 2.82971
338 1 3.70488 5.33496 0.29493
31 4 3.92902 6.15385 5.86403
172 1 1.63825 5.00233 8.3988
340 2 3.54642 5.47464 1.4206
9 4 -0.849251 6.60753 0.486111
209 2 2.42934 4.54228 7.62417
208 2 1.64368 6.16328 8.49814
12 4 -1.0453 6.65722 5.57935
314 2 3.45912 2.38211 -0.0397128
356 2 4.79456 4.77757 0.110158
171 1 -1.34417 3.80767 8.74262
339 2 2.79794 4.79771 -0.140289
313 2 3.76728 0.419959 17.46
312 1 3.35926 1.47591 17.251
206 2 -0.793954 3.39621 9.66178
77 3 -1.10427 5.73607 13.2083
320 1 -1.88834 5.78154 17.4455
6 4 -0.691615 2.22772 15.8883
75 3 -0.626214 3.83238 15.2966
299 2 5.8656 3.19691 17.1149
322 2 -1.39766 5.39127 16.5225
217 2 -0.526526 5.08815 10.0511
175 1 -0.0671687 5.95489 10.6442
349 2 -2.59817 5.71496 13.945
230 2 6.02398 -0.0855491 9.5003
229 2 6.50387 1.76988 9.34009
284 2 4.31359 6.06139 9.76873
13 4 0.219474 4.75961 14.1488
207 2 -1.91006 4.80493 8.96815
213 2 0.309197 3.71573 12.0467
212 2 2.10964 4.14846 12.5549
210 2 1.65786 4.46707 9.3935
328 2 5.31218 1.05328 16.8171
219 2 0.458475 6.70146 9.95989
68 3 0.347835 1.59927 17.0924
228 2 6.1138 1.01928 11.1874
26 4 4.21861 1.75791 9.36407
211 2 1.18445 2.69632 13.3697
100 3 1.25569 5.70948 14.7817
173 1 1.05858 3.67605 12.8442
179 1 5.87552 1.0094 9.98183
180 1 3.10673 2.12447 10.9526
181 1 4.73926 3.04648 14.7932
231 2 2.68006 3.16264 10.7763
232 2 3.51833 1.93126 11.9862
233 2 2.36272 1.33419 10.6636
234 2 4.16031 2.50331 13.9276
235 2 4.01548 3.68695 15.4086
236 2 5.34665 2.31043 15.4314
241 2 3.30565 5.2877 13.1212
303 1 6.32172 0.760627 13.1957
306 2 5.65713 1.56352 13.7666
315 2 3.09023 1.78586 16.1746
327 1 6.37162 0.767643 16.4046
183 1 4.05605 4.9449 12.3441
218 2 0.664499 5.5561 11.4868
330 2 6.35143 0.729564 15.2189
204 2 0.667711 0.83244 14.3365
240 2 4.24713 5.83444 11.5648
242 2 3.74187 3.89856 11.7823
353 2 3.85962 -0.213659 12.9492
224 2 4.74275 -0.144916 11.2463
329 2 6.73222 -0.174212 16.8686
95 3 0.346166 6.86737 4.65916
358 2 0.375634 10.1173 0.894892
1 4 -5.11248 13.2195 2.21098
4 4 -5.11557 13.3036 7.58436
15 4 -2.52006 9.13751 2.01494
17 4 -3.98758 11.0349 0.154518
18 4 -2.17855 8.81461 7.55602
20 4 -3.57071 11.2136 5.8701
35 4 -1.20444 11.5047 3.7816
78 3 -3.23095 8.30106 3.24864
79 3 -1.40525 7.8983 1.25044
80 3 -3.5565 9.62022 0.826897
81 3 -4.51435 12.1679 1.25529
83 3 -1.54292 7.9566 6.38238
85 3 -4.80627 10.8462 4.96952
86 3 -3.00111 10.028 6.8637
87 3 -4.09755 12.4952 6.72983
105 3 -1.62025 10.4306 2.46113
106 3 -0.679306 12.9272 3.04311
107 3 -2.47439 11.6646 4.72395
310 3 -6.11151 12.4185 3.13706
249 2 0.565602 7.63212 8.3634
185 1 1.33976 10.29 0.30277
111 3 -0.808793 12.1582 8.56603
113 3 0.0308697 10.8793 4.52183
110 3 -0.969022 9.4193 8.46207
25 4 0.135944 13.2184 7.585
82 3 -3.1987 7.89298 8.47895
245 2 0.207228 8.59241 2.13354
84 3 -5.97778 12.4365 8.61295
34 4 2.77713 8.24909 2.48485
39 4 1.31427 11.1659 5.52604
37 4 2.65476 8.78428 7.3451
114 3 1.727 9.65472 6.42246
184 1 1.01532 8.99053 2.76291
243 2 1.24236 10.1129 2.5645
244 2 0.849292 8.85158 3.88327
109 3 3.3553 7.54076 6.64555
8 4 -3.63121 6.94006 3.87744
103 3 2.51746 6.80017 3.06036
351 2 -2.41851 6.76206 17.2628
121 3 1.78849 10.3558 12.7933
324 2 -4.55998 13.0132 15.4862
223 2 -4.49501 13.1198 11.4586
119 3 -2.40168 11.5599 17.2328
215 2 0.0400798 8.37185 13.4044
22 4 -3.53741 11.0696 11.2985
38 4 -0.934802 10.7981 9.41363
41 4 -1.41694 11.3395 15.9666
88 3 -4.92433 10.9696 10.4214
112 3 -2.18379 10.9474 10.4354
118 3 -1.57619 12.2212 14.6237
174 1 -0.706197 8.43384 12.4876
176 1 -3.47078 10.0457 12.8773
177 1 -3.43099 13.0356 11.9944
189 1 -1.49175 9.53066 15.4144
221 2 -2.77721 9.96061 13.7964
256 2 -0.80153 9.10645 16.2663
257 2 -1.17134 9.12135 14.3699
258 2 -2.58899 9.25358 15.6168
311 3 -4.83161 10.5551 17.0676
323 1 -5.57734 12.5933 15.3311
214 2 -0.306594 8.76023 11.4734
222 2 -3.34656 9.01332 12.1585
254 2 3.63732 7.2688 13.5002
302 4 -1.4725 12.8782 13.129
216 2 -1.71313 9.09212 12.7538
220 2 -4.57006 10.1682 13.1037
122 3 -0.233044 12.2775 12.2988
117 3 0.155581 11.694 16.6577
102 3 0.523841 7.01383 17.0917
76 3 -2.66497 6.73893 10.8835
116 3 1.39426 8.40135 14.7446
101 3 2.9887 7.06055 16.2799
325 2 -6.36216 13.2211 15.7869
246 2 1.88791 9.46463 17.3
248 2 1.99578 7.5326 9.4274
247 2 1.04403 9.12171 9.38547
120 3 0.655838 10.5914 10.3375
33 4 1.51111 7.06075 15.7278
186 1 1.38001 8.20644 8.80798
42 4 1.05757 11.309 11.7548
326 2 -5.68953 12.403 14.2374
40 4 2.47993 9.42849 13.9946
14 4 -1.31662 6.70175 11.8613
279 2 8.92355 2.64613 7.88138
97 3 6.51738 3.07203 6.91503
197 1 6.16951 5.44951 2.48304
278 2 6.31615 4.4745 3.09878
137 3 7.78825 6.37156 4.79165
277 2 5.22295 5.47279 1.64616
131 3 5.05502 6.48852 4.65643
276 2 7.19635 5.48252 1.79212
301 2 6.40032 4.35771 0.770276
354 2 9.68368 1.31571 -0.0818743
125 3 7.53319 2.14667 4.75979
30 4 5.52933 4.11628 7.75356
198 1 9.0116 3.55481 8.55785
352 2 13.1034 3.06424 8.36137
2 4 13.6499 1.91189 3.78097
44 4 8.93889 2.11895 4.1035
46 4 11.5092 2.43599 5.78467
48 4 9.80125 4.7859 2.14909
51 4 10.4101 4.67032 7.81114
123 3 13.0537 0.417113 3.0194
124 3 8.88617 0.801883 3.07773
126 3 12.4782 2.7616 4.52937
127 3 10.0759 2.02282 5.29881
128 3 12.2303 1.06871 6.64199
129 3 9.23205 3.52037 3.19113
130 3 10.7845 5.89126 2.75877
132 3 8.68949 5.36555 1.04151
133 3 11.3138 3.64872 6.82493
138 3 9.55333 5.70378 6.95872
196 1 11.0542 3.72373 1.14783
274 2 10.6981 2.58662 1.18884
191 1 11.0473 0.45681 1.11694
273 2 10.958 4.15958 0.0940541
337 2 9.62665 0.770478 8.22273
360 2 10.1523 0.572185 1.9082
359 2 11.4829 1.49633 0.918431
275 2 11.9894 3.94606 1.6915
23 4 7.6779 0.0482116 2.13193
192 1 14.154 0.601391 8.68387
280 2 8.01555 4.1852 8.58272
135 3 6.3863 5.08951 8.65511
297 3 6.86395 1.25366 1.23314
49 4 6.44223 6.73374 3.87543
263 2 14.0204 1.80337 8.75841
45 4 12.9009 -0.121406 7.45234
321 2 12.2535 5.08865 0.170154
362 2 14.1792 0.121223 9.78279
134 3 11.23 5.26312 9.18941
300 2 7.63476 4.224 16.9039
298 1 6.96318 3.6805 17.641
140 3 6.06793 5.61378 14.6293
182 1 6.90904 3.96321 12.4897
239 2 6.46555 3.13072 11.9235
307 2 7.33875 1.16507 12.7109
304 1 8.94899 -0.134678 14.6447
32 4 5.3901 4.49936 13.75
237 2 7.31045 4.72987 11.751
350 2 14.0513 0.199973 14.6012
238 2 7.74124 3.7191 13.3164
308 2 7.98844 0.256283 15.2971
309 2 9.43794 0.763148 14.0822
141 3 8.02945 6.5392 16.4059
144 3 7.47685 6.45732 10.981
318 2 11.7461 2.27194 15.7826
336 2 7.97432 1.24763 9.08392
333 2 9.70957 2.89215 16.8995
294 2 14.4697 -0.0330181 12.6544
332 2 9.28283 1.17468 16.0968
316 1 12.6266 1.82929 16.3282
317 2 12.6553 0.641574 16.4038
331 1 9.31662 1.81671 17.0915
281 2 9.37588 3.25245 9.56773
264 2 11.4623 1.47755 9.53617
285 2 8.27041 4.63121 14.9534
267 2 9.0279 0.903904 12.5925
319 2 12.7313 2.24737 17.3768
47 4 11.1635 2.16168 12.0779
54 4 10.2467 4.896 13.5003
139 3 11.0042 3.57053 12.7837
145 3 9.34912 5.81696 12.6316
193 1 11.8796 2.26495 10.3304
194 1 9.08568 1.72231 11.793
195 1 11.8359 0.834548 13.2321
200 1 9.1999 4.00605 14.8549
265 2 13.0182 1.97789 10.8788
266 2 11.7743 3.35762 9.97827
268 2 9.02364 1.23774 10.6853
269 2 8.28638 2.57199 11.9515
286 2 9.78385 3.84861 15.8718
287 2 9.0178 3.04751 14.3517
272 2 12.7062 0.279688 12.6665
271 2 12.0576 1.11833 14.3911
270 2 10.8302 0.190556 13.1147
365 2 11.6371 5.42258 15.483
347 1 11.5713 5.87247 14.5423
334 1 8.75506 0.396758 8.83754
170 1 14.7255 1.08285 14.3626
296 4 7.52171 1.87326 17.7043
205 2 14.3707 1.71731 13.4578
261 2 9.681 -0.174158 11.4722
295 2 13.353 -0.165988 11.1133
262 2 3.20397 13.5658 0.188771
43 4 4.86001 13.1811 2.03583
58 4 3.90506 10.9594 3.89348
61 4 6.39352 11.1497 5.79354
104 3 3.08602 8.08876 0.94058
251 2 5.22064 9.33815 8.55947
157 3 8.82015 9.93346 8.33294
115 3 1.11572 12.3364 6.65586
146 3 6.69758 8.04532 3.08121
149 3 3.51596 9.46597 3.2572
150 3 4.06712 11.9773 2.6102
151 3 2.54984 11.5539 4.68518
153 3 6.62788 10.0856 1.29782
154 3 5.79885 12.6191 0.829854
159 3 5.15923 10.8562 4.85098
160 3 6.57662 9.95367 6.88757
161 3 6.04462 12.5071 6.68269
57 4 7.45231 9.01724 2.11068
155 3 7.08999 7.8652 8.67941
158 3 7.68933 11.1866 4.90472
59 4 6.15274 11.1654 0.151262
187 1 4.14658 9.64659 8.16553
108 3 0.786546 12.9722 0.92142
250 2 4.1736 10.4387 7.23355
343 2 4.02499 11.6522 8.43021
364 2 10.7641 7.14782 0.183688
60 4 7.77371 8.9925 7.54857
50 4 8.41875 6.92141 -0.117329
147 3 7.94724 7.99439 0.918986
136 3 10.3447 7.23378 5.02146
148 3 8.69306 9.74826 2.95514
16 4 8.99983 11.0881 3.99206
156 3 8.53627 8.05935 6.5062
363 2 3.03988 13.3513 8.6347
341 1 4.02793 12.878 8.61455
53 4 9.03361 6.82037 5.76408
357 2 2.25789 10.2864 0.976301
345 2 10.8209 6.89171 16.2198
11 4 11.3753 6.80843 9.73897
344 1 10.538 7.43409 17.2245
253 2 3.40614 8.28231 12.0247
36 4 1.47067 11.8932 17.5858
164 3 8.92699 9.76513 14.9289
163 3 8.81842 8.34326 12.619
199 1 4.79368 7.01722 9.98742
342 2 4.62318 13.113 9.52555
290 2 5.03103 13.0429 14.3654
283 2 4.90402 7.24728 11.1449
21 4 9.11201 10.9071 16.1423
305 2 2.2724 13.1809 15.3948
252 2 3.40264 9.98098 9.11297
282 2 4.46739 8.00706 9.25607
19 4 9.0134 11.0867 9.41414
366 2 7.66619 13.2177 11.0248
288 2 6.07479 11.3444 14.3888
255 2 4.74946 8.80693 13.2932
289 2 6.17945 12.5402 15.7418
55 4 6.68065 7.07092 15.6667
63 4 4.27677 11.2185 16.0819
64 4 6.66942 11.2047 11.5474
142 3 5.58295 7.28273 16.8547
162 3 6.84936 8.24606 14.5265
165 3 3.42265 10.3083 15.0249
166 3 5.15339 10.5591 17.2879
167 3 3.20217 12.3879 16.7885
188 1 3.72493 8.29048 13.1026
190 1 2.48816 12.4921 11.2934
201 1 5.51747 12.114 14.9874
202 1 4.97347 10.5178 11.1415
346 2 10.5117 8.54707 17.1568
143 3 10.0112 7.21762 10.4279
259 2 2.97247 12.2666 10.2453
260 2 3.19981 12.2067 12.133
291 2 4.20084 11.3877 11.0022
292 2 4.50153 9.68829 11.8545
293 2 5.31195 10.0634 10.1107
152 3 7.74196 11.1766 16.9885
169 3 7.13685 10.5219 12.9766
203 1 6.72874 13.1888 11.6654
62 4 7.91175 9.11696 13.7779
168 3 7.5546 11.0501 10.2523
355 2 1.05068 12.954 13.8566
348 2 11.373 6.98204 14.5122
56 4 8.87841 7.0101 11.6195
52 4 6.62474 6.7324 9.66184
29 4 4.09696 6.94573 17.3852
335 2 1.65233 13.5773 9.76355
ITEM: TIMESTEP
200
ITEM: NUMBER OF ATOMS
366
ITEM: BOX BOUNDS xy xz yz pp pp pp
-7.5762920697874234e+00 1.5539132364936910e+01 -7.5067150938463740e+00
-2.5448601139492300e-01 1.3674893816520523e+01 4.3235538899589332e-01
-1.4304623784867587e-01 1.7750446237848607e+01 -1.1459219487448345e-01
ITEM: ATOMS id type x y z
69 3 -0.900327 2.85731 2.58577
73 3 -2.24462 6.28264 4.48183
74 3 -0.471785 5.53557 6.58641
71 3 -0.505535 5.30574 1.30957
99 3 4.55455 5.0291 6.87881
10 4 0.19231 4.35268 7.43937
66 3 -0.300325 1.3826 4.78561
27 4 6.30612 2.0052 5.94766
96 3 4.52768 3.19551 8.73878
7 4 0.205439 3.97722 2.09893
72 3 0.62151 2.87189 6.56875
3 4 1.1733 1.77867 0.345985
5 4 1.02055 1.6065 5.66297
24 4 3.67589 1.70128 4.02856
91 3 3.27381 0.627881 8.55832
28 4 1.59413 5.9071 4.03133
65 3 1.3633 0.621391 1.4308
67 3 1.43496 0.314904 6.65883
70 3 1.20519 3.30796 1.00207
89 3 3.38952 0.398008 3.1976
90 3 2.34188 2.02429 4.87358
92 3 4.97059 1.916 5.00601
93 3 6.64931 0.603102 6.77236
94 3 1.06082 4.48489 3.38458
98 3 2.75763 5.53139 5.04318
171 1 -1.13054 3.75892 8.76162
178 1 3.72497 3.15022 2.71434
225 2 2.77903 3.79011 3.03004
226 2 3.62707 2.57584 1.75789
227 2 4.63607 3.75969 2.69382
338 1 3.70655 5.42383 0.482767
31 4 3.98795 6.08581 5.93197
172 1 1.73773 4.90912 8.3624
340 2 3.49083 5.65381 1.56824
9 4 -0.895547 6.64081 0.403911
209 2 2.71162 4.5148 7.93276
208 2 1.81566 6.1088 8.52196
12 4 -1.00802 6.7261 5.48427
361 2 -0.0499356 0.325777 7.97174
356 2 4.73937 4.81875 0.318348
313 2 3.65862 0.910959 -0.051143
339 2 2.80383 4.94585 -0.0701313
314 2 3.4661 2.64283 17.3201
312 1 3.28748 1.47888 17.3128
206 2 -0.650429 3.27362 9.66451
77 3 -1.06283 5.75095 13.0953
320 1 -1.88881 5.7565 17.3686
6 4 -0.697722 2.0567 15.8599
75 3 -0.448068 3.50265 15.214
299 2 5.80138 3.22206 17.265
322 2 -1.37501 5.41983 16.4203
217 2 -0.181187 5.1843 9.88838
175 1 0.240179 5.96676 10.6762
349 2 -2.4794 5.79651 13.9557
230 2 5.97214 0.17091 9.60499
229 2 6.51222 1.85821 9.73769
284 2 4.13662 6.34491 9.78044
13 4 0.228617 4.74417 14.1589
207 2 -1.5929 4.74176 8.99756
213 2 0.487268 3.58162 12.045
212 2 2.30259 4.10055 12.7877
210 2 1.50323 4.37799 9.34753
328 2 5.25071 1.00131 16.9298
329 2 6.70468 -0.0670334 16.9555
68 3 0.386403 1.69728 17.0389
228 2 6.03988 1.03528 11.3103
26 4 4.04315 1.83016 9.46549
211 2 1.26633 2.71379 13.7355
100 3 1.29679 5.67771 14.7249
173 1 1.23038 3.67647 12.9861
179 1 5.81267 1.11143 10.1566
180 1 3.13609 2.17368 11.0998
181 1 4.50318 3.03767 14.7293
231 2 2.67362 3.17242 10.7348
232 2 4.01939 2.28418 11.8166
233 2 2.35879 1.3806 11.3576
234 2 3.91695 2.47273 13.9266
235 2 3.81292 3.70807 15.336
236 2 5.20245 2.33296 15.4426
241 2 3.29387 5.51714 13.0542
303 1 6.32685 0.636085 13.2802
306 2 5.55626 1.58882 13.9014
315 2 2.8912 0.990889 16.3611
327 1 6.31549 0.887052 16.5207
183 1 4.05652 5.02993 12.3125
218 2 0.878 5.39295 11.4899
330 2 6.24928 0.822468 15.273
204 2 0.895842 0.569454 14.5664
240 2 4.41647 5.92126 11.4823
242 2 3.65815 4.05455 11.817
224 2 4.75137 -0.136864 11.2507
205 2 -0.522989 1.4699 13.5951
170 1 -0.25654 0.817447 14.4955
95 3 0.237937 6.85553 4.51501
358 2 0.615455 9.89679 0.587694
1 4 -5.17402 13.3383 2.31772
4 4 -5.00371 13.338 7.67766
15 4 -2.42811 9.29556 2.13835
17 4 -4.04018 11.132 0.341455
18 4 -2.21867 8.88359 7.47921
20 4 -3.57238 11.2149 5.78425
35 4 -1.17312 11.5939 3.80726
78 3 -3.23378 8.49593 3.35494
79 3 -1.35903 7.99588 1.35472
80 3 -3.46358 9.84143 0.990565
81 3 -4.39356 12.3803 1.32443
83 3 -1.42373 8.03099 6.36486
85 3 -4.76624 10.6834 4.81131
86 3 -3.06763 9.98612 6.69785
87 3 -4.04537 12.3944 6.78937
105 3 -1.48494 10.5212 2.68784
106 3 -0.818679 13.0924 3.12793
107 3 -2.33541 11.7597 4.9232
310 3 -5.90987 12.3766 3.33818
249 2 0.806198 7.62848 8.29449
185 1 1.65209 10.352 0.285553
111 3 -0.75439 12.3144 8.62066
113 3 0.0806047 11.0192 4.63538
110 3 -1.1445 9.51576 8.4146
25 4 0.03997 13.2172 7.62389
82 3 -3.1509 7.76813 8.60387
245 2 0.0190115 8.57887 2.1704
84 3 -5.94522 12.5208 8.72894
34 4 2.61751 8.2639 2.41297
39 4 1.39844 11.1771 5.72127
37 4 2.57258 8.64569 7.22003
114 3 1.89689 9.77089 6.38911
184 1 0.94808 9.10356 2.7963
243 2 1.10935 10.1639 2.58052
244 2 0.879575 8.95771 3.94414
109 3 3.37339 7.37359 6.72402
8 4 -3.57564 6.93861 3.87965
103 3 2.43652 6.79285 2.91821
351 2 -2.46577 6.80064 17.2476
121 3 1.75786 10.127 12.7208
324 2 -5.03551 12.9142 16.1162
223 2 -4.56 13.0293 11.4725
119 3 -2.56467 11.4585 17.0194
215 2 -0.245266 8.35165 13.3114
22 4 -3.50027 10.9704 11.3356
38 4 -0.857159 10.8197 9.2989
41 4 -1.37028 11.2326 15.9211
88 3 -4.81329 10.878 10.4324
112 3 -2.10009 10.7035 10.4939
118 3 -1.71841 12.0788 14.5945
174 1 -0.840403 8.50767 12.3409
176 1 -3.61554 10.0573 12.9988
177 1 -3.46586 12.8988 12.0101
189 1 -1.49967 9.42552 15.3471
221 2 -2.8728 9.91802 13.866
256 2 -0.765172 8.94623 16.0841
257 2 -1.26841 9.09735 14.2583
258 2 -2.57129 9.2106 15.6248
311 3 -4.8966 10.475 17.3189
323 1 -5.65915 12.3864 15.3161
214 2 -0.213493 9.00318 11.4727
222 2 -3.68511 9.00117 12.4435
254 2 3.41735 7.16555 13.4517
302 4 -1.48444 12.7548 13.1894
216 2 -1.92692 9.12457 12.5758
220 2 -4.60944 10.4219 13.388
122 3 -0.353895 11.9774 12.3017
117 3 0.264629 11.5497 16.6392
102 3 0.512157 6.88518 17.0412
76 3 -2.6368 6.72284 11.0347
116 3 1.22051 8.25731 14.8578
101 3 3.10183 6.80544 16.2817
325 2 -6.55121 13.0598 14.9629
353 2 -3.68378 13.3181 13.1179
248 2 2.45105 7.41854 9.53879
247 2 1.40055 9.11158 9.45076
120 3 0.842941 10.5365 10.1425
33 4 1.55768 6.93681 15.7486
186 1 1.75992 8.11929 8.85891
42 4 1.07202 11.1586 11.6016
326 2 -5.07981 12.0702 14.3866
40 4 2.41858 9.22513 13.9209
14 4 -1.16878 6.72653 11.7546
219 2 0.874469 6.77922 10.1241
279 2 8.93174 2.71615 7.70833
97 3 6.4814 3.22755 6.93123
197 1 6.21005 5.27732 2.65281
278 2 5.97994 4.38131 3.38268
137 3 7.83344 6.29426 4.61901
277 2 5.28424 5.4132 1.87781
131 3 5.20478 6.68847 4.96664
276 2 7.14746 5.25957 2.06057
301 2 6.37844 4.33652 0.809418
354 2 9.65755 1.23071 -0.0700159
125 3 7.44599 2.22226 4.76041
30 4 5.48203 4.14953 7.82235
198 1 9.0201 3.60311 8.45587
352 2 13.32 3.05823 8.20767
2 4 13.7661 1.87056 3.74583
44 4 8.80708 2.16914 4.03952
46 4 11.4144 2.35975 5.67591
48 4 9.7539 4.73307 2.09439
51 4 10.2971 4.7356 7.61967
123 3 13.1323 0.549504 3.00009
124 3 9.01899 0.702797 2.92912
126 3 12.4424 2.58848 4.36437
127 3 10.0096 1.91767 5.08037
128 3 12.0034 1.33552 6.70123
129 3 9.15045 3.63061 3.14322
130 3 10.8462 5.96511 2.79533
132 3 8.72528 5.3769 1.04492
133 3 11.1885 3.68246 6.62662
138 3 9.30862 5.80358 6.94421
196 1 11.0322 3.72521 1.13493
274 2 10.8632 2.5979 1.14252
191 1 11.2213 0.406536 0.980847
273 2 10.8269 4.15807 0.0779747
337 2 9.48278 0.718961 8.04182
360 2 10.4116 0.524998 1.79942
359 2 11.7046 1.43298 0.701802
275 2 12.0777 3.99397 1.59686
23 4 7.72547 0.0579848 2.29768
192 1 14.2073 0.601752 8.61583
280 2 7.99838 4.20414 8.68769
263 2 14.0765 1.76405 8.7797
297 3 6.93823 1.48871 1.36755
49 4 6.45327 6.69014 3.95002
296 4 7.09089 2.00508 -0.107574
45 4 12.8904 -0.0482076 7.41863
321 2 12.2593 5.04789 0.0814761
362 2 14.2695 0.0774971 9.69476
134 3 11.1918 5.31233 8.92268
300 2 7.33992 4.40921 16.8881
298 1 6.87766 3.70113 17.6257
140 3 5.86627 5.71668 14.6737
182 1 6.89409 4.02795 12.6983
239 2 6.75698 3.05254 12.0487
307 2 7.23289 1.00459 12.7025
135 3 6.54026 5.24707 8.92805
32 4 5.25509 4.56961 13.7655
237 2 7.07306 5.00042 12.1227
350 2 14.1162 -0.136905 14.6556