ITEM: TIMESTEP
0
ITEM: NUMBER OF ATOMS
366
ITEM: BOX BOUNDS xy xz yz pp pp pp
-7.4381441934570134e+00 1.5360197440179936e+01 -7.3685672175159640e+00
-2.5448601139492300e-01 1.3674893816520523e+01 2.5342046423892034e-01
-1.4304623784867587e-01 1.7750446237848607e+01 -1.1459219487448345e-01
ITEM: ATOMS id type x y z
69 3 -1.07995 3.00356 2.56281
73 3 -2.40489 6.20491 4.73084
74 3 -0.763913 5.20184 6.57491
71 3 -0.244078 5.28039 1.09591
99 3 4.71747 5.09334 6.80366
10 4 -0.00271053 4.22596 7.53806
66 3 -0.318164 1.5192 4.57477
339 2 3.07411 4.95192 0.193939
96 3 4.39948 3.15311 8.60678
7 4 0.179668 3.98869 2.10285
72 3 0.555624 2.7304 6.83474
3 4 1.3061 1.7652 0.28805
5 4 1.02159 1.67667 5.71717
24 4 3.61041 1.6079 4.10423
91 3 3.19472 0.745071 8.42394
28 4 1.53149 5.84684 4.24993
65 3 1.39361 0.29677 0.957523
67 3 1.35262 0.315035 6.48117
70 3 1.31755 2.97374 1.37407
89 3 3.28668 0.346185 3.06663
90 3 2.34157 1.97588 4.88877
92 3 5.00582 1.61074 5.02517
93 3 6.84911 0.490635 6.64524
94 3 0.90671 4.5637 3.3952
98 3 2.56589 5.28274 5.36676
361 2 -0.0668026 0.476784 8.24931
178 1 3.63423 3.14223 2.96072
225 2 2.63709 3.65411 3.10638
226 2 3.90882 2.83992 1.89609
227 2 4.49911 3.71087 3.49123
338 1 4.04329 5.53309 0.469083
31 4 3.98591 6.13082 5.8506
172 1 1.46729 5.06483 8.38481
340 2 4.00576 5.77157 1.59609
9 4 -0.807377 6.63499 0.192239
209 2 2.24933 4.68294 7.64028
208 2 1.44757 6.25098 8.47433
12 4 -1.15738 6.51484 5.63176
27 4 6.39772 1.8539 5.86202
313 2 3.55316 0.587871 17.1432
312 1 3.15952 1.61404 17.0875
206 2 -0.86106 3.49419 9.82834
77 3 -1.25276 5.77728 13.2382
320 1 -2.01185 5.81288 17.1176
6 4 -0.816354 2.22587 15.8359
75 3 -0.580441 3.6791 15.2227
205 2 -0.765639 1.87186 13.5604
322 2 -1.66352 5.36428 16.1469
217 2 -0.512884 5.20151 10.1208
175 1 0.121171 6.0559 10.7631
349 2 -2.76946 5.89303 14.1756
230 2 5.74178 0.0276721 9.57304
229 2 6.2487 1.80591 9.43548
284 2 4.20512 6.19719 9.81564
13 4 0.0679992 4.85848 14.2139
170 1 -0.398189 1.08348 14.3385
213 2 0.454353 3.83022 11.9947
212 2 2.17608 4.32198 12.7728
210 2 1.50404 4.51769 9.38461
328 2 5.12316 1.23959 16.6765
329 2 6.5784 -0.0381726 16.7612
68 3 0.409031 1.83358 17.0152
228 2 5.80078 1.0378 11.1589
26 4 3.94929 1.79255 9.36854
211 2 0.963722 2.82957 13.5642
100 3 1.18146 5.77686 14.7275
173 1 1.04335 3.89559 12.947
179 1 5.58982 1.01017 9.98694
180 1 2.85873 2.25209 10.9549
181 1 4.51652 3.20734 14.7962
231 2 2.71391 3.36969 10.4407
232 2 3.43962 2.30878 11.901
233 2 1.86885 1.63544 11.0092
234 2 3.80855 2.73861 14.0362
235 2 4.01831 3.83638 15.5641
236 2 5.16334 2.36244 15.3722
241 2 3.3498 5.40191 13.1208
303 1 6.14114 1.02217 13.134
306 2 5.52228 1.80135 13.6843
315 2 2.96772 1.8535 15.9971
327 1 6.23163 0.973225 16.3464
183 1 4.0314 4.91185 12.3783
218 2 0.883473 5.58679 11.4502
330 2 6.31851 1.09906 15.1665
204 2 0.742552 1.05437 14.3805
240 2 4.30587 5.75401 11.5274
242 2 3.61264 3.91824 11.8281
171 1 -1.43353 3.90013 8.99142
207 2 -1.83696 4.91091 9.26957
314 2 3.70248 2.44812 17.6696
224 2 4.60827 -0.15025 11.2304
95 3 0.185259 6.88224 4.85607
358 2 0.179761 9.88954 0.693445
1 4 -5.05882 13.1415 2.18577
4 4 -5.01082 13.4096 7.51852
15 4 -2.38874 9.07553 1.98574
17 4 -3.85971 10.9458 0.187012
18 4 -2.33987 8.80829 7.6248
20 4 -3.60099 11.2047 5.78938
35 4 -1.18638 11.3904 3.79386
78 3 -3.10939 8.20222 3.01232
79 3 -1.11828 7.8654 1.17582
80 3 -3.39243 9.60418 0.852183
81 3 -4.1947 12.0885 1.34992
83 3 -1.55564 7.75629 6.73533
85 3 -4.83215 10.6935 4.98559
86 3 -3.07263 9.91864 6.69638
87 3 -3.9596 12.5298 6.71953
105 3 -1.55825 10.2252 2.63218
106 3 -0.743076 12.8977 2.92318
107 3 -2.40732 11.6324 4.75785
310 3 -6.04443 12.4318 3.19439
249 2 0.724383 7.75898 8.24155
185 1 1.09119 10.1624 0.0199091
111 3 -0.741313 12.1348 8.52024
113 3 0.0351059 10.8173 4.58525
110 3 -1.22208 9.52224 8.47487
25 4 0.170383 13.1502 7.54647
82 3 -3.30703 7.85863 8.60312
245 2 0.247087 8.54036 2.18436
84 3 -5.92579 12.5437 8.59063
34 4 2.7825 8.18209 2.52029
39 4 1.40915 11.1306 5.45672
37 4 2.5685 8.65028 7.25869
114 3 1.864 9.74566 6.46063
184 1 1.08733 8.94506 2.80159
243 2 1.24367 10.0765 2.56964
244 2 0.833627 8.7075 3.91327
109 3 3.28814 7.41306 6.62566
8 4 -3.64793 6.90033 3.87284
103 3 2.38155 6.8128 3.17444
351 2 -2.59503 6.83903 16.8836
121 3 1.5988 10.3792 12.9133
324 2 -4.54955 12.8802 14.9368
223 2 -4.5022 13.0239 11.435
119 3 -2.35786 11.5157 17.0287
215 2 -0.0733009 8.43677 13.4074
22 4 -3.55292 10.9955 11.3362
38 4 -0.964319 10.8338 9.39986
41 4 -1.2654 11.3365 15.8828
88 3 -4.87581 10.9198 10.4241
112 3 -2.19762 10.966 10.4529
118 3 -1.61799 12.3633 14.5065
174 1 -0.747801 8.52357 12.4564
176 1 -3.55624 10.0836 12.9629
177 1 -3.39495 12.9766 12.0364
189 1 -1.4212 9.53822 15.4065
221 2 -2.70791 9.90987 13.8661
256 2 -0.684866 9.08684 16.2409
257 2 -1.12816 9.19616 14.2532
258 2 -2.59023 9.38852 15.6993
311 3 -4.76849 10.5751 17.0168
323 1 -5.62629 12.6748 15.1486
214 2 -0.142084 8.79777 11.5134
222 2 -3.65809 9.04212 12.4304
219 2 0.556227 6.89901 10.0865
302 4 -1.41411 13.1245 13.0921
216 2 -1.69379 9.16604 12.637
220 2 -4.53445 10.4229 13.342
122 3 -0.206603 12.3984 12.2764
117 3 0.285931 11.7675 16.4322
102 3 0.440896 7.00412 16.9627
76 3 -2.59907 6.7858 10.9965
116 3 1.05881 8.45931 14.8977
101 3 2.94255 6.99566 16.3895
325 2 -6.02934 13.3741 15.8765
246 2 1.32537 9.46039 16.9649
248 2 2.25328 7.54566 9.42166
247 2 1.16125 9.14177 9.50119
120 3 0.483283 10.5834 10.3627
33 4 1.48938 7.06666 15.669
186 1 1.58715 8.22958 8.89111
42 4 0.880441 11.3522 11.752
326 2 -6.31017 12.676 14.2444
40 4 2.49345 9.51492 14.1692
14 4 -1.23451 6.75316 11.8663
254 2 3.66898 7.33004 13.8209
353 2 -3.65515 13.5708 12.9832
279 2 9.09587 2.5807 7.90396
97 3 6.3786 3.06853 6.89811
197 1 6.47126 5.28612 2.52518
278 2 6.42267 4.25853 3.08992
137 3 7.7815 6.20532 4.85073
277 2 5.57354 5.33328 1.7386
131 3 5.11401 6.49562 4.72716
276 2 7.52762 5.32607 1.80201
301 2 6.57972 4.3193 0.709185
354 2 9.73172 1.43471 -0.030949
125 3 7.42899 2.33924 4.73041
30 4 5.57617 4.15943 7.70866
198 1 9.1478 3.44208 8.68913
352 2 12.9215 3.22014 8.57299
2 4 13.5493 1.91393 3.76673
44 4 8.86955 2.15938 4.07082
46 4 11.4216 2.29587 5.89209
48 4 9.973 4.67696 2.18085
51 4 10.3619 4.66116 7.81622
123 3 12.9044 0.547671 3.04591
124 3 8.75368 0.767274 3.10237
126 3 12.4795 2.68376 4.75299
127 3 10.0273 1.93785 5.26812
128 3 12.0592 0.986607 6.82498
129 3 9.26526 3.4908 3.03536
130 3 10.8354 5.77147 2.9294
132 3 9.01644 5.43305 1.00307
133 3 11.2824 3.6532 7.04459
138 3 9.64284 5.61143 6.74151
196 1 11.1525 3.80453 0.957248
274 2 10.8889 2.68124 1.09484
191 1 11.0912 0.367593 1.09684
273 2 10.9403 4.20882 -0.0779035
337 2 9.52196 0.627987 7.91701
360 2 10.2887 0.372407 1.85711
359 2 11.4884 1.46717 0.852024
275 2 12.1905 4.13653 1.46098
23 4 7.64839 0.0712034 2.22004
192 1 14.1319 0.732446 8.76278
280 2 8.09743 3.89521 8.7434
135 3 6.47708 5.09007 8.71288
297 3 6.87186 1.348 1.30337
49 4 6.47955 6.59303 3.88474
334 1 8.73226 0.305857 8.7482
356 2 5.05453 4.9562 0.18663
45 4 12.9483 -0.0991822 7.52299
362 2 14.0175 0.232988 9.84534
134 3 10.9324 5.51875 9.15864
300 2 7.65149 4.30472 16.9375
298 1 6.93962 3.72046 17.5752
140 3 5.93003 5.74248 14.617
182 1 6.90968 4.09407 12.3964
239 2 6.69362 3.1739 11.7798
307 2 7.24476 1.25811 12.5819
304 1 8.7996 0.00739955 14.6421
32 4 5.38667 4.55405 13.6466
237 2 7.15679 5.05947 11.7696
350 2 14.2284 0.0404593 14.4276
238 2 7.68296 3.84518 13.2509
308 2 7.85049 0.331589 15.2624
309 2 9.18544 0.824126 14.057
141 3 7.9203 6.57358 16.3783
144 3 7.37134 6.60358 10.8625
318 2 11.6801 2.48577 15.9215
336 2 8.03254 1.1989 9.01152
333 2 9.48415 2.98085 17.0112
294 2 14.33 -0.0249691 12.706
332 2 9.20896 1.22215 16.2284
316 1 12.5241 1.86361 16.2444
317 2 12.2493 0.822452 16.0166
331 1 9.23678 1.85434 17.1707
281 2 9.50751 3.10906 9.68604
264 2 11.5462 1.11355 9.7805
285 2 8.09991 4.53521 14.7604
267 2 8.83606 0.856895 12.4974
319 2 12.7827 2.06497 17.4148
47 4 10.9454 2.19791 12.0177
54 4 10.2006 4.81081 13.5849
139 3 10.9989 3.62859 12.7488
145 3 9.51338 5.81565 12.4534
193 1 11.8122 2.03054 10.3174
194 1 9.00141 1.64288 11.717
195 1 11.7481 0.896527 13.2605
200 1 8.98665 3.86011 14.7841
265 2 12.8569 1.94551 10.7674
266 2 11.6749 3.00967 9.78008
268 2 8.85738 1.1791 10.5814
269 2 8.34647 2.55897 11.8973
286 2 9.43559 3.88457 15.8084
287 2 8.70442 2.7775 14.4408
272 2 12.6002 0.238736 12.7076
271 2 12.0121 1.25327 14.3797
270 2 10.6887 0.293994 13.2876
365 2 11.2623 5.36974 15.6919
347 1 11.3946 5.94977 14.6064
299 2 5.92591 3.47028 17.0133
52 4 6.50456 6.65263 9.54011
263 2 14.0123 1.85848 8.83836
296 4 7.33044 1.8798 17.7415
321 2 12.504 5.02685 17.6917
262 2 3.47512 13.5097 0.143722
43 4 5.05705 13.1874 2.07365
58 4 3.98957 10.7925 3.85634
61 4 6.41236 10.9935 5.81709
104 3 3.32117 8.0182 0.928759
251 2 5.03064 8.98011 8.15337
157 3 9.04302 9.9587 8.28873
115 3 1.11781 12.2154 6.62017
146 3 6.57258 8.0605 3.2208
149 3 3.56648 9.30814 3.28969
150 3 4.35301 11.9077 2.69476
151 3 2.63526 11.4601 4.63071
153 3 6.63256 10.2383 1.48648
154 3 6.09533 12.747 0.771023
159 3 5.19949 10.7411 4.85097
160 3 6.70393 9.74623 6.79338
161 3 6.03043 12.4251 6.70394
57 4 7.46114 9.04312 2.16402
155 3 6.87012 7.93612 8.64076
158 3 7.73193 11.2957 5.0163
59 4 6.3404 11.2635 0.193025
187 1 4.06407 9.5784 8.17032
108 3 0.986942 12.9037 1.07015
250 2 4.04131 10.3544 7.28312
343 2 4.22168 11.565 8.52313
364 2 10.8415 7.09794 0.279281
60 4 7.78991 8.89444 7.66126
50 4 8.47308 6.95941 0.00602959
147 3 7.93965 8.0995 0.947947
136 3 10.3301 7.36797 5.04532
148 3 8.69025 9.78509 2.96368
16 4 8.96925 11.009 4.02135
156 3 8.4752 8.0121 6.63628
363 2 3.25433 13.3195 8.69064
341 1 4.25756 12.7971 8.70312
53 4 9.06354 6.79635 5.7541
357 2 2.14806 10.0557 0.577897
345 2 10.6825 6.95054 16.3022
11 4 11.2475 6.9516 9.77546
344 1 10.4077 7.4205 17.3476
253 2 3.42302 8.35344 12.25
36 4 1.48155 11.8352 17.5691
164 3 8.80045 10.0144 14.7854
163 3 8.47354 8.18942 12.7223
199 1 4.7194 7.13686 10.0956
342 2 4.97466 13.133 9.62551
290 2 5.08702 13.2386 14.5285
283 2 4.78275 7.29357 11.2548
21 4 9.07596 11.0161 15.9738
305 2 2.24287 13.3105 15.414
252 2 3.76563 9.96163 9.19872
282 2 4.38783 8.04543 9.40302
19 4 9.08009 11.1243 9.28291
366 2 7.59647 13.2428 10.961
288 2 6.13985 11.6279 14.3285
255 2 4.70402 8.80862 13.5818
289 2 6.23498 12.7329 15.9243
55 4 6.5477 7.00813 15.5999
63 4 4.26097 11.3082 16.0459
64 4 6.67239 11.1586 11.5332
142 3 5.49907 7.37621 16.8307
162 3 6.80859 8.29897 14.7311
165 3 3.39151 10.402 15.073
166 3 5.24121 10.679 17.3138
167 3 3.12574 12.4387 16.6947
188 1 3.68756 8.30412 13.3539
190 1 2.45349 12.3746 11.2786
201 1 5.58633 12.314 15.0925
202 1 4.94816 10.4554 11.2265
346 2 10.3794 8.62273 17.3196
143 3 9.96472 7.61067 10.4853
259 2 3.02009 12.2863 10.3275
260 2 3.0751 11.9777 12.1873
291 2 4.17816 11.2571 11.0423
292 2 4.49326 9.66285 12.0593
293 2 5.27619 9.94803 10.2139
152 3 7.8633 11.1893 17.0179
169 3 7.06275 10.3509 12.8229
203 1 6.7243 13.1928 11.6669
62 4 7.80877 9.10852 13.796
168 3 7.72355 11.0229 10.2501
355 2 1.16529 13.0217 13.9086
348 2 10.9627 6.97212 14.6828
56 4 8.88955 7.14843 11.6473
261 2 2.12738 13.5399 11.4988
29 4 4.07043 7.15327 17.5268
335 2 1.84734 13.4742 9.70027
295 2 5.73473 13.4664 11.1293
ITEM: TIMESTEP
100
ITEM: NUMBER OF ATOMS
366
ITEM: BOX BOUNDS xy xz yz pp pp pp
-7.4381441934570134e+00 1.5360197440179936e+01 -7.3685672175159640e+00
-2.5448601139492300e-01 1.3674893816520523e+01 2.5342046423892034e-01
-1.4304623784867587e-01 1.7750446237848607e+01 -1.1459219487448345e-01
ITEM: ATOMS id type x y z
69 3 -1.11304 2.92739 2.49678
73 3 -2.24661 6.19802 4.57183
74 3 -0.504986 5.45715 6.64075
71 3 -0.420621 5.26977 1.32408
99 3 4.75499 5.12173 6.85077
10 4 0.0903866 4.27326 7.51437
66 3 -0.42602 1.61289 4.8149
27 4 6.37951 1.86495 5.91375
96 3 4.5563 3.21141 8.73144
7 4 0.152467 3.94655 2.10273
72 3 0.588747 2.76989 6.8792
3 4 1.2442 1.71157 0.316723
5 4 0.909128 1.63851 5.83006
24 4 3.53262 1.78694 4.11815
91 3 3.27892 0.713647 8.47494
28 4 1.54648 5.9019 4.10916
65 3 1.3796 0.408255 1.30199
67 3 1.35795 0.264432 6.57054
70 3 1.30822 3.09946 1.09905
89 3 3.49098 0.437627 3.12922
90 3 2.21765 2.00895 4.95758
92 3 4.87577 1.76318 5.14678
93 3 6.70938 0.509952 6.74642
94 3 0.846224 4.56941 3.35571
98 3 2.61743 5.44614 5.27551
314 2 3.50491 2.35288 -0.0133886
178 1 3.96398 3.14903 2.86729
225 2 3.01372 3.72819 2.91778
226 2 3.89612 2.51063 1.92444
227 2 4.86584 3.85508 2.86922
338 1 3.75021 5.33473 0.273886
31 4 3.93573 6.15541 5.86215
172 1 1.6066 4.99218 8.40398
340 2 3.58109 5.47884 1.39201
9 4 -0.793759 6.60822 0.473252
209 2 2.38198 4.53234 7.59767
208 2 1.62433 6.13992 8.49644
12 4 -1.03777 6.65946 5.57951
171 1 -1.38029 3.81149 8.74425
356 2 4.82718 4.77705 0.0943336
361 2 -0.179313 0.263126 8.04937
313 2 3.59372 0.416778 17.4463
312 1 3.21012 1.48176 17.2586
206 2 -0.798702 3.39963 9.66863
77 3 -1.17296 5.7422 13.2051
320 1 -1.96944 5.76775 17.4302
6 4 -0.829494 2.22507 15.8913
75 3 -0.741309 3.85011 15.2905
299 2 5.73648 3.21896 17.0919
322 2 -1.47679 5.29363 16.582
217 2 -0.559716 5.09337 10.0645
175 1 -0.0933843 5.9584 10.6508
349 2 -2.67561 5.68403 13.9304
230 2 5.95527 -0.078644 9.49428
229 2 6.44922 1.79222 9.35038
284 2 4.26313 6.07881 9.77058
13 4 0.124476 4.75665 14.1548
224 2 4.64013 -0.0954314 11.2254
213 2 0.223441 3.72012 12.0651
212 2 2.03443 4.1454 12.5679
210 2 1.6744 4.47678 9.39526
328 2 5.13736 1.0172 16.8417
353 2 3.71375 -0.210864 12.9423
68 3 0.19795 1.60341 17.082
228 2 6.02442 1.0099 11.1768
26 4 4.15006 1.75583 9.35277
211 2 1.10522 2.68496 13.3819
100 3 1.16983 5.69954 14.7902
173 1 0.98023 3.66937 12.8573
179 1 5.79022 1.01427 9.98108
180 1 3.01768 2.14312 10.9402
181 1 4.62254 3.07303 14.7818
231 2 2.60586 3.18847 10.7645
232 2 3.43955 1.93312 11.9621
233 2 2.27349 1.38254 10.6469
234 2 4.07276 2.57166 13.9193
235 2 3.84773 3.68608 15.4107
236 2 5.23213 2.32245 15.4367
241 2 3.21357 5.32918 13.1306
303 1 6.19643 0.761185 13.1947
306 2 5.53067 1.5717 13.7427
315 2 2.96996 1.81907 16.1884
327 1 6.21118 0.758418 16.4153
183 1 3.96826 4.96152 12.3292
218 2 0.614612 5.56182 11.4993
330 2 6.19891 0.740915 15.2494
204 2 0.526425 0.87079 14.391
240 2 4.16921 5.84162 11.5387
242 2 3.64631 3.90172 11.7845
339 2 3.09948 4.70329 17.7122
329 2 6.60358 -0.195321 16.8313
207 2 -1.93483 4.82008 8.95235
205 2 -0.905781 1.72303 13.4772
219 2 0.446156 6.70255 9.97126
95 3 0.363483 6.87203 4.65526
358 2 0.48958 10.0936 0.871038
1 4 -5.00372 13.2099 2.21485
4 4 -5.05952 13.2995 7.58943
15 4 -2.45945 9.13028 2.02205
17 4 -3.87918 11.0329 0.153469
18 4 -2.16076 8.81281 7.5557
20 4 -3.51137 11.2201 5.86371
35 4 -1.13327 11.5099 3.77734
78 3 -3.1917 8.30813 3.24557
79 3 -1.31021 7.89062 1.26369
80 3 -3.46918 9.61735 0.826794
81 3 -4.403 12.1634 1.2617
83 3 -1.52528 7.95372 6.39032
85 3 -4.73964 10.8493 4.97292
86 3 -2.95848 10.0259 6.8615
87 3 -4.03517 12.4965 6.73364
105 3 -1.56043 10.4239 2.4717
106 3 -0.58672 12.9228 3.03511
107 3 -2.41153 11.6763 4.71962
310 3 -6.02905 12.4165 3.13226
249 2 0.551196 7.61731 8.36088
185 1 1.46419 10.2953 0.296608
111 3 -0.77448 12.1557 8.55781
113 3 0.0930205 10.8923 4.5222
110 3 -0.964198 9.40902 8.47457
25 4 0.188592 13.2175 7.58109
82 3 -3.22002 7.888 8.48534
245 2 0.26347 8.56271 2.15852
84 3 -5.93422 12.4281 8.60585
34 4 2.8339 8.24447 2.48481
39 4 1.36618 11.1726 5.53285
37 4 2.67625 8.77901 7.351
114 3 1.75302 9.65844 6.42054
184 1 1.07083 8.97887 2.75751
243 2 1.28859 10.1022 2.54919
244 2 0.90913 8.8551 3.87577
109 3 3.3759 7.53882 6.65045
8 4 -3.60651 6.94352 3.8703
103 3 2.54457 6.80308 3.06715
254 2 3.58605 7.26951 13.4835
121 3 1.76752 10.3645 12.7861
324 2 -4.59805 13.0058 15.4676
223 2 -4.47624 13.1367 11.4233
119 3 -2.46672 11.5548 17.2296
215 2 -0.00625955 8.38872 13.4116
22 4 -3.54089 11.0818 11.2935
38 4 -0.920853 10.7908 9.42359
41 4 -1.46622 11.3401 15.9576
88 3 -4.91384 10.9781 10.4174
112 3 -2.17282 10.9504 10.4316
118 3 -1.60576 12.2195 14.6146
174 1 -0.738378 8.43062 12.4718
176 1 -3.50169 10.0627 12.8729
177 1 -3.42052 13.0544 11.9749
189 1 -1.53598 9.53812 15.4096
221 2 -2.79579 9.96449 13.7928
256 2 -0.854695 9.11654 16.2765
257 2 -1.21004 9.1262 14.3894
258 2 -2.64417 9.28503 15.5955
311 3 -4.88066 10.5698 17.0728
323 1 -5.62666 12.594 15.3294
214 2 -0.352703 8.72122 11.4929
222 2 -3.39697 9.01329 12.1639
351 2 -2.49076 6.77351 17.1678
302 4 -1.47161 12.8842 13.1245
216 2 -1.75142 9.1123 12.7278
220 2 -4.60733 10.1945 13.11
122 3 -0.227903 12.2843 12.2926
117 3 0.11253 11.6913 16.6673
102 3 0.426848 7.01854 17.0798
76 3 -2.70071 6.74966 10.8867
116 3 1.3096 8.39967 14.7544
101 3 2.8997 7.07177 16.2711
325 2 -6.39697 13.2282 15.7938
246 2 1.88375 9.4354 17.3193
248 2 2.00745 7.50189 9.44543
247 2 1.03926 9.12256 9.40568
120 3 0.659231 10.5852 10.3487
33 4 1.41033 7.06069 15.739
186 1 1.37677 8.19001 8.81567
42 4 1.05512 11.3131 11.7415
326 2 -5.76202 12.3971 14.2393
40 4 2.45209 9.43255 13.991
14 4 -1.36399 6.70989 11.8559
279 2 8.90751 2.63933 7.85757
97 3 6.49504 3.06527 6.92496
197 1 6.19157 5.44781 2.49213
278 2 6.30412 4.49328 3.12511
137 3 7.80902 6.37031 4.79334
277 2 5.27822 5.44732 1.65293
131 3 5.07571 6.49799 4.6533
276 2 7.18863 5.43211 1.83468
301 2 6.4278 4.35488 0.794213
354 2 9.68388 1.31101 -0.0961715
125 3 7.50373 2.15615 4.75105
30 4 5.49538 4.10792 7.76198
198 1 8.99142 3.54938 8.54738
352 2 13.0588 3.07164 8.37645
2 4 13.6206 1.92223 3.76772
44 4 8.9175 2.11881 4.09494
46 4 11.4749 2.43907 5.78248
48 4 9.82441 4.78612 2.15166
51 4 10.3903 4.66372 7.8095
123 3 13.0342 0.414211 3.01797
124 3 8.8651 0.794547 3.08473
126 3 12.4478 2.76848 4.51787
127 3 10.0451 2.02573 5.30164
128 3 12.1769 1.05996 6.64606
129 3 9.24072 3.52149 3.18102
130 3 10.8043 5.90012 2.76012
132 3 8.70242 5.37487 1.04789
133 3 11.2914 3.64991 6.8235
138 3 9.5517 5.70735 6.96024
196 1 11.0969 3.74208 1.15106
274 2 10.6805 2.64059 1.25475
191 1 11.0335 0.453388 1.11992
273 2 11.0249 4.13789 0.0817591
337 2 9.53224 0.771739 8.22302
360 2 10.1152 0.579958 1.90576
359 2 11.499 1.45573 0.889468
275 2 12.0258 3.95605 1.70137
23 4 7.65561 0.0484958 2.13965
192 1 14.07 0.593439 8.69412
280 2 7.98681 4.16159 8.59382
135 3 6.34819 5.07713 8.67215
297 3 6.86886 1.26027 1.23459
49 4 6.47218 6.72811 3.87082
45 4 12.8228 -0.124433 7.4639
263 2 13.952 1.79376 8.76091
321 2 12.2864 5.08554 0.180526
362 2 14.0778 0.11373 9.78998
134 3 11.2008 5.25479 9.19839
300 2 7.48703 4.24722 16.9058
298 1 6.82181 3.68691 17.6295
140 3 5.97229 5.62249 14.6246
182 1 6.81877 3.96919 12.4943
239 2 6.38527 3.14185 11.923
307 2 7.22738 1.15062 12.6915
304 1 8.78777 -0.121926 14.6411
32 4 5.28425 4.50917 13.7468
237 2 7.22391 4.74263 11.7739
350 2 13.9177 0.145772 14.5502
238 2 7.62565 3.7115 13.3434
308 2 7.83308 0.262384 15.2862
309 2 9.30374 0.781322 14.1116
141 3 7.92673 6.53549 16.3984
144 3 7.43566 6.46292 10.9863
318 2 11.5969 2.2927 15.7705
336 2 7.88767 1.26483 9.08749
333 2 9.57049 2.85745 16.9134
294 2 14.329 -0.0487713 12.67
332 2 9.1049 1.1907 16.1227
316 1 12.487 1.84538 16.3121
317 2 12.5072 0.664306 16.4097
331 1 9.16354 1.80846 17.1053
281 2 9.34738 3.2136 9.55364
264 2 11.3458 1.4954 9.54453
285 2 8.10559 4.63683 14.9334
267 2 8.85046 0.882593 12.5683
319 2 12.6072 2.28262 17.364
47 4 11.0492 2.16513 12.0688
54 4 10.1823 4.8952 13.4975
139 3 10.9195 3.57863 12.7788
145 3 9.27794 5.81765 12.6191
193 1 11.8039 2.27527 10.3197
194 1 8.97595 1.71212 11.789
195 1 11.6959 0.817181 13.2449
200 1 9.09108 4.03128 14.8561
265 2 12.8579 1.97257 10.8849
266 2 11.6955 3.37436 9.97891
268 2 8.93741 1.265 10.6821
269 2 8.19702 2.58731 11.9418
286 2 9.65738 3.91375 15.8645
287 2 8.92948 3.04034 14.3838
272 2 12.5648 0.245849 12.6817
271 2 11.9359 1.13526 14.4066
270 2 10.7074 0.192353 13.1477
365 2 11.5668 5.38571 15.4924
347 1 11.4988 5.86529 14.5448
334 1 8.65597 0.389621 8.83749
170 1 14.5715 1.072 14.3714
296 4 7.35077 1.87725 17.6996
261 2 9.56358 -0.188924 11.4598
295 2 13.207 -0.194225 11.1352
262 2 3.33133 13.5589 0.183052
43 4 4.97791 13.1755 2.05297
58 4 3.97311 10.9614 3.88727
61 4 6.44518 11.1535 5.79327
104 3 3.16274 8.08047 0.946689
251 2 5.2145 9.28012 8.55556
157 3 8.83598 9.92479 8.34668
115 3 1.18128 12.3312 6.65956
146 3 6.74322 8.0381 3.07552
149 3 3.57629 9.46576 3.24909
150 3 4.15544 11.9844 2.61841
151 3 2.6081 11.5527 4.67609
153 3 6.72072 10.0897 1.30735
154 3 5.91316 12.6032 0.841949
159 3 5.22041 10.8614 4.84348
160 3 6.61562 9.95705 6.88633
161 3 6.10522 12.5041 6.69213
57 4 7.52596 9.00405 2.1238
155 3 7.08003 7.86005 8.6789
158 3 7.74447 11.1932 4.899
59 4 6.27547 11.1758 0.155094
187 1 4.17426 9.66581 8.16938
108 3 0.909615 12.9687 0.926842
250 2 4.2506 10.4765 7.28884
343 2 4.05991 11.6572 8.43766
364 2 10.8239 7.10986 0.192807
60 4 7.7872 8.99223 7.55249
50 4 8.48869 6.91231 -0.108053
147 3 8.02686 7.9987 0.920387
136 3 10.3626 7.24294 5.01234
148 3 8.76377 9.73581 2.96511
16 4 9.06389 11.0932 3.98963
156 3 8.56094 8.06382 6.51294
363 2 3.06203 13.3556 8.65733
341 1 4.07053 12.8801 8.62333
53 4 9.04419 6.82164 5.76134
357 2 2.37514 10.3246 1.00469
345 2 10.7397 6.86479 16.2046
11 4 11.3416 6.81389 9.73711
344 1 10.4388 7.42981 17.2272
253 2 3.30777 8.32771 12.0416
36 4 1.4243 11.8941 17.5861
164 3 8.88253 9.7434 14.9386
163 3 8.7754 8.34186 12.6298
199 1 4.76556 7.02082 9.97933
342 2 4.67336 13.0946 9.52853
290 2 5.0063 13.0032 14.3705
283 2 4.88122 7.25184 11.1484
21 4 9.05339 10.908 16.1411
305 2 2.2259 13.1679 15.3954
252 2 3.45086 10.0139 9.10835
282 2 4.42538 8.01375 9.27005
19 4 9.02966 11.0888 9.40928
366 2 7.67263 13.2158 11.0301
288 2 6.00345 11.2916 14.4219
255 2 4.72445 8.75657 13.2663
289 2 6.16367 12.559 15.7613
55 4 6.5896 7.06922 15.6664
63 4 4.22408 11.2069 16.0753
64 4 6.67081 11.193 11.5487
142 3 5.48546 7.28189 16.8481
162 3 6.78471 8.25307 14.5268
165 3 3.37451 10.306 15.0172
166 3 5.10508 10.5445 17.28
167 3 3.15442 12.3914 16.7888
188 1 3.68849 8.28705 13.1094
190 1 2.50313 12.4751 11.2868
201 1 5.47842 12.1024 14.9917
202 1 4.97767 10.5014 11.144
346 2 10.4429 8.51927 17.1784
143 3 9.97905 7.21881 10.4161
259 2 3.00394 12.2744 10.2431
260 2 3.20161 12.1698 12.1359
291 2 4.22424 11.368 10.9719
292 2 4.48331 9.67683 11.8527
293 2 5.32201 10.0171 10.1168
152 3 7.69258 11.1723 17.0037
169 3 7.12003 10.5331 12.9737
203 1 6.73623 13.1757 11.6724
62 4 7.87051 9.11315 13.7827
168 3 7.55728 11.0569 10.246
355 2 1.0213 12.9877 13.8313
348 2 11.3381 6.99411 14.5072
56 4 8.8317 7.00793 11.6327
335 2 1.67409 13.5953 9.75098
29 4 3.99143 6.95453 17.3793
52 4 6.59222 6.72455 9.64973
ITEM: TIMESTEP
200
ITEM: NUMBER OF ATOMS
366
ITEM: BOX BOUNDS xy xz yz pp pp pp
-7.4381441934570134e+00 1.5360197440179936e+01 -7.3685672175159640e+00
-2.5448601139492300e-01 1.3674893816520523e+01 2.5342046423892034e-01
-1.4304623784867587e-01 1.7750446237848607e+01 -1.1459219487448345e-01
ITEM: ATOMS id type x y z
69 3 -0.906757 2.8815 2.59309
73 3 -2.2223 6.28362 4.48494
74 3 -0.449081 5.53165 6.58913
71 3 -0.45237 5.31345 1.2659
99 3 4.56386 5.03531 6.86998
10 4 0.204184 4.35573 7.45153
66 3 -0.361318 1.41261 4.77605
27 4 6.2819 1.99863 5.93165
96 3 4.46516 3.18738 8.70777
7 4 0.206589 3.96895 2.1138
72 3 0.593134 2.8662 6.58438
3 4 1.2095 1.77456 0.369869
5 4 0.962366 1.60603 5.67613
24 4 3.60686 1.62613 4.09121
91 3 3.1899 0.622153 8.55011
28 4 1.6003 5.91547 4.03533
65 3 1.3397 0.613035 1.41164
67 3 1.371 0.308131 6.65433
70 3 1.19592 3.26798 1.00607
89 3 3.34608 0.348903 3.22834
90 3 2.30375 2.00423 4.91571
92 3 4.92862 1.91726 5.01449
93 3 6.59776 0.587066 6.71956
94 3 1.06169 4.49777 3.38487
98 3 2.74871 5.55524 5.04843
313 2 3.67502 0.908427 -0.0301489
178 1 3.57378 2.98653 2.6731
225 2 2.76563 3.62567 3.07384
226 2 3.42818 2.63643 1.61518
227 2 4.59281 3.47286 2.73907
338 1 3.76835 5.44128 0.450614
31 4 3.99277 6.10434 5.93081
172 1 1.74143 4.91125 8.37994
340 2 3.5674 5.6634 1.53454
9 4 -0.839734 6.61355 0.379588
209 2 2.61215 4.44704 7.81642
208 2 1.82395 6.14957 8.51038
12 4 -0.984182 6.72498 5.48067
171 1 -1.14848 3.763 8.80028
356 2 4.76792 4.81971 0.301953
361 2 -0.124249 0.273845 8.02192
339 2 2.85018 4.98647 -0.109873
314 2 3.34882 2.60196 17.3036
312 1 3.13925 1.48546 17.3457
206 2 -0.616742 3.33635 9.67576
77 3 -1.10754 5.75349 13.0881
320 1 -1.94749 5.72673 17.3497
6 4 -0.845819 2.1073 15.8563
75 3 -0.607923 3.54441 15.2865
299 2 5.62294 3.21299 17.2824
322 2 -1.46622 5.04408 16.4801
217 2 -0.204011 5.20606 9.92519
175 1 0.212244 6.00672 10.6734
349 2 -2.58669 5.81687 13.8829
230 2 5.87234 0.180905 9.60447
229 2 6.42127 1.86978 9.67581
207 2 -1.60625 4.74659 9.01687
13 4 0.151165 4.73481 14.193
329 2 6.55618 -0.10079 16.972
213 2 0.404323 3.55408 12.1172
212 2 2.24227 4.08224 12.845
210 2 1.57886 4.39242 9.35874
328 2 5.08575 1.03037 16.9102
224 2 4.64467 -0.181209 11.2814
68 3 0.138902 1.70717 16.9868
228 2 5.9498 1.05172 11.2722
26 4 3.99327 1.82792 9.43292
211 2 1.18885 2.69476 13.7922
100 3 1.21066 5.68382 14.7398
173 1 1.16169 3.64854 13.0639
179 1 5.72443 1.12118 10.129
180 1 3.02438 2.22629 11.0587
181 1 4.38679 3.06679 14.7225
231 2 2.53617 3.17001 10.8064
232 2 3.89276 2.27998 11.8175
233 2 2.27988 1.3738 11.199
234 2 3.90256 2.58277 13.8437
235 2 3.65725 3.76028 15.3702
236 2 5.03002 2.33792 15.4459
241 2 3.17322 5.53611 12.9995
303 1 6.16684 0.672081 13.2644
306 2 5.49532 1.52755 13.816
315 2 2.71495 0.981852 16.4034
327 1 6.14998 0.903765 16.5199
183 1 3.94718 5.03885 12.2809
218 2 0.799302 5.50804 11.4828
330 2 6.11032 0.853174 15.3277
204 2 0.700134 0.69467 14.5523
240 2 4.33303 5.91163 11.4854
242 2 3.52509 4.04124 11.7756
284 2 4.16672 6.32122 9.64669
95 3 0.27465 6.85949 4.51112
358 2 0.756456 9.86536 0.51331
1 4 -5.06843 13.3153 2.30509
4 4 -4.94595 13.3371 7.67611
15 4 -2.35069 9.27427 2.13503
17 4 -3.92663 11.1179 0.332588
18 4 -2.20489 8.87683 7.48645
20 4 -3.50313 11.2268 5.78134
35 4 -1.10811 11.6164 3.80401
78 3 -3.19143 8.49079 3.3476
79 3 -1.31394 7.99641 1.39238
80 3 -3.35354 9.82764 0.959853
81 3 -4.26822 12.3568 1.32692
83 3 -1.40682 8.01908 6.37431
85 3 -4.68497 10.7021 4.83201
86 3 -3.01485 9.98783 6.69103
87 3 -3.96884 12.3961 6.80601
105 3 -1.43654 10.5104 2.71496
106 3 -0.724478 13.0922 3.11113
107 3 -2.27402 11.7872 4.92461
310 3 -5.83721 12.364 3.31677
249 2 0.789291 7.65028 8.33265
185 1 1.79301 10.3529 0.298968
111 3 -0.735042 12.3201 8.59891
113 3 0.132892 11.0265 4.636
110 3 -1.14273 9.48533 8.44615
25 4 0.0778546 13.2102 7.60139
82 3 -3.17943 7.76067 8.58284
245 2 0.160457 8.59311 2.20624
84 3 -5.90136 12.499 8.70957
34 4 2.64905 8.27749 2.40609
39 4 1.45095 11.1635 5.71425
37 4 2.57603 8.61014 7.20768
114 3 1.92096 9.75769 6.38419
184 1 1.0074 9.10226 2.7739
243 2 1.13028 10.1631 2.56562
244 2 0.973349 8.98357 3.9165
109 3 3.40508 7.36737 6.74585
8 4 -3.55537 6.94691 3.8724
103 3 2.4477 6.79866 2.9107
254 2 3.43709 7.19488 13.4692
121 3 1.76866 10.1024 12.7472
324 2 -5.01244 12.9093 16.0051
223 2 -4.46964 13.0528 11.4564
119 3 -2.63996 11.4601 17.005
215 2 -0.216408 8.47521 13.3876
22 4 -3.49652 10.994 11.3351
38 4 -0.849246 10.8043 9.31221
41 4 -1.41151 11.2275 15.9143
88 3 -4.81578 10.8899 10.4313
112 3 -2.08984 10.6984 10.4908
118 3 -1.74471 12.0924 14.559
174 1 -0.845835 8.49608 12.3784
176 1 -3.62141 10.103 13.0025
177 1 -3.45014 12.9305 11.9854
189 1 -1.53229 9.42712 15.3809
221 2 -2.88648 9.9841 13.9281
256 2 -0.80444 8.94374 16.1102
257 2 -1.29159 9.08107 14.2736
258 2 -2.60697 9.21575 15.6781
311 3 -4.95855 10.4874 17.3255
323 1 -5.73298 12.362 15.3079
214 2 -0.20961 8.99262 11.5261
222 2 -3.6836 9.03359 12.4576
219 2 0.832492 6.79735 10.1237
302 4 -1.48559 12.7958 13.1767
216 2 -1.89038 9.11126 12.5356
220 2 -4.66358 10.473 13.357
122 3 -0.339043 12.0054 12.2959
117 3 0.215027 11.5352 16.6611
102 3 0.405687 6.90417 17.0749
76 3 -2.6552 6.74546 11.0082
116 3 1.07104 8.22643 14.8239
101 3 2.99314 6.87572 16.2695
325 2 -6.6668 13.0199 15.09
14 4 -1.18239 6.76688 11.738
248 2 2.40821 7.38604 9.58534
247 2 1.44609 9.13319 9.48641
120 3 0.847555 10.5339 10.1559
33 4 1.44938 6.98048 15.7172
186 1 1.79465 8.12136 8.87483
42 4 1.08818 11.1753 11.5896
326 2 -5.27877 12.0169 14.3153
40 4 2.39128 9.21822 13.923
353 2 -3.67275 13.3673 13.0473
351 2 -2.42287 6.74232 16.9274
279 2 8.88511 2.72482 7.65981
97 3 6.47985 3.21326 6.96398
197 1 6.3008 5.3828 2.5695
278 2 6.1643 4.4485 3.21112
137 3 7.89015 6.28375 4.64735
277 2 5.38252 5.48528 1.88846
131 3 5.19892 6.68517 4.96149
276 2 7.27284 5.47561 1.90583
301 2 6.45111 4.37949 0.747064
354 2 9.64946 1.2057 -0.0520756
125 3 7.41497 2.24436 4.72761
30 4 5.45729 4.127 7.84
198 1 8.99449 3.58863 8.431
296 4 7.10326 2.01257 -0.115829
2 4 13.7487 1.88067 3.74647
44 4 8.77809 2.17341 4.03342
46 4 11.3753 2.36793 5.67132
48 4 9.77512 4.70941 2.0845
51 4 10.2842 4.72068 7.60601
123 3 13.1029 0.543993 3.0008
124 3 8.98798 0.67608 2.93911
126 3 12.4041 2.58223 4.3456
127 3 9.96166 1.93294 5.10268
128 3 11.9705 1.33331 6.6992
129 3 9.14063 3.62667 3.14745
130 3 10.8626 6.00108 2.79564
132 3 8.79742 5.36704 1.0137
133 3 11.1928 3.69553 6.62637
138 3 9.33194 5.79811 6.96566
196 1 11.0957 3.71034 1.14902
274 2 10.9975 2.59641 1.30893
191 1 11.1841 0.41291 1.03382
273 2 10.7896 4.08639 0.0878659
337 2 9.43248 0.681932 7.98265
360 2 10.3388 0.561598 1.8053
359 2 11.6874 1.42511 0.686537
275 2 12.0554 4.17841 1.58053
23 4 7.69801 0.0464621 2.29298
192 1 14.1373 0.594409 8.63288
280 2 7.98221 4.18617 8.69283
352 2 13.2305 3.02073 8.36894
297 3 6.94327 1.49027 1.36029
49 4 6.47431 6.73299 3.93711
45 4 12.8105 -0.0522288 7.43796
321 2 12.2359 5.23695 0.114516
334 1 8.64872 0.407222 8.77977
263 2 14.0426 1.75741 8.758
362 2 14.157 0.116035 9.71242
134 3 11.2116 5.30339 8.97243
300 2 7.21861 4.3647 16.8227
298 1 6.73425 3.7196 17.6051
140 3 5.75911 5.75689 14.6468
182 1 6.79243 4.08186 12.7164
239 2 6.68689 3.0536 12.1252
307 2 7.06203 1.06526 12.6773
135 3 6.52892 5.21324 8.95313
32 4 5.1478 4.59085 13.7446
237 2 7.00025 5.01247 12.0966
350 2 13.9502 -0.146803 14.7019
238 2 7.65244 3.9479 13.449