ITEM: TIMESTEP
0
ITEM: NUMBER OF ATOMS
366
ITEM: BOX BOUNDS xy xz yz pp pp pp
-7.6513592207258867e+00 1.5514495184341149e+01 -7.5817822447848373e+00
-2.5448601139492300e-01 1.3674893816520523e+01 2.5595466888130952e-01
-1.4304623784867587e-01 1.7750446237848607e+01 -1.1459219487448345e-01
ITEM: ATOMS id type x y z
69 3 -1.12198 3.00356 2.56281
73 3 -2.49264 6.20491 4.73084
74 3 -0.825243 5.20184 6.57491
71 3 -0.300648 5.28039 1.09591
99 3 4.71204 5.09334 6.80366
10 4 -0.0466338 4.22596 7.53806
66 3 -0.337712 1.5192 4.57477
339 2 3.0541 4.95192 0.193939
96 3 4.41034 3.15311 8.60678
7 4 0.140316 3.98869 2.10285
72 3 0.532435 2.7304 6.83474
3 4 1.30058 1.7652 0.28805
5 4 1.01377 1.67667 5.71717
24 4 3.62928 1.6079 4.10423
91 3 3.21787 0.745071 8.42394
28 4 1.48675 5.84684 4.24993
65 3 1.40376 0.29677 0.957523
67 3 1.36182 0.315035 6.48117
70 3 1.29988 2.97374 1.37407
89 3 3.31512 0.346185 3.06663
90 3 2.34399 1.97588 4.88877
92 3 5.03856 1.61074 5.02517
93 3 6.91149 0.490635 6.64524
94 3 0.868738 4.5637 3.3952
98 3 2.53712 5.28274 5.36676
361 2 -0.0735462 0.476784 8.24931
178 1 3.63792 3.14223 2.96072
225 2 2.62563 3.65411 3.10638
226 2 3.91838 2.83992 1.89609
227 2 4.50567 3.71087 3.49123
338 1 4.02708 5.53309 0.469083
31 4 3.96274 6.13082 5.8506
172 1 1.42954 5.06483 8.38481
340 2 3.9867 5.77157 1.59609
9 4 -0.883203 6.63499 0.192239
209 2 2.22331 4.68294 7.64028
208 2 1.39764 6.25098 8.47433
12 4 -1.23584 6.51484 5.63176
27 4 6.44187 1.8539 5.86202
313 2 3.58092 0.587871 17.1432
312 1 3.17298 1.61404 17.0875
206 2 -0.906324 3.49419 9.82834
77 3 -1.32522 5.77728 13.2382
320 1 -2.09252 5.81288 17.1176
6 4 -0.848749 2.22587 15.8359
75 3 -0.625116 3.6791 15.2227
205 2 -0.793805 1.87186 13.5604
322 2 -1.7361 5.36428 16.1469
217 2 -0.57193 5.20151 10.1208
175 1 0.0597957 6.0559 10.7631
349 2 -2.85831 5.89303 14.1756
230 2 5.79757 0.0276721 9.57304
229 2 6.29161 1.80591 9.43548
284 2 4.18322 6.19719 9.81564
13 4 0.0179628 4.85848 14.2139
170 1 -0.414768 1.08348 14.3385
213 2 0.418709 3.83022 11.9947
212 2 2.15263 4.32198 12.7728
210 2 1.47212 4.51769 9.38461
328 2 5.16007 1.23959 16.6765
329 2 6.64276 -0.0381726 16.7612
68 3 0.392775 1.83358 17.0152
228 2 5.84685 1.0378 11.1589
26 4 3.96934 1.79255 9.36854
211 2 0.943177 2.82957 13.5642
100 3 1.13325 5.77686 14.7275
173 1 1.01288 3.89559 12.947
179 1 5.63415 1.01017 9.98694
180 1 2.86314 2.25209 10.9549
181 1 4.52761 3.20734 14.7962
231 2 2.70561 3.36969 10.4407
232 2 3.4492 2.30878 11.901
233 2 1.86958 1.63544 11.0092
234 2 3.81734 2.73861 14.0362
235 2 4.01801 3.83638 15.5641
236 2 5.18939 2.36244 15.3722
241 2 3.32717 5.40191 13.1208
303 1 6.19065 1.02217 13.134
306 2 5.5577 1.80135 13.6843
315 2 2.97692 1.8535 15.9971
327 1 6.28234 0.973225 16.3464
183 1 4.02058 4.91185 12.3783
218 2 0.834415 5.58679 11.4502
330 2 6.36888 1.09906 15.1665
204 2 0.737672 1.05437 14.3805
240 2 4.28934 5.75401 11.5274
242 2 3.6077 3.91824 11.8281
171 1 -1.48856 3.90013 8.99142
207 2 -1.90626 4.91091 9.26957
314 2 3.71291 2.44812 17.6696
224 2 4.65442 -0.15025 11.2304
95 3 0.116561 6.88224 4.85607
358 2 0.0809025 9.88954 0.693445
1 4 -5.24301 13.1415 2.18577
4 4 -5.19758 13.4096 7.51852
15 4 -2.50515 9.07553 1.98574
17 4 -4.0096 10.9458 0.187012
18 4 -2.45345 8.80829 7.6248
20 4 -3.75127 11.2047 5.78938
35 4 -1.31426 11.3904 3.79386
78 3 -3.22424 8.20222 3.01232
79 3 -1.2097 7.8654 1.17582
80 3 -3.52413 9.60418 0.852183
81 3 -4.35956 12.0885 1.34992
83 3 -1.65069 7.75629 6.73533
85 3 -4.98953 10.6935 4.98559
86 3 -3.2047 9.91864 6.69638
87 3 -4.12691 12.5298 6.71953
105 3 -1.678 10.2252 2.63218
106 3 -0.881689 12.8977 2.92318
107 3 -2.54991 11.6324 4.75785
310 3 -6.23137 12.4318 3.19439
249 2 0.652002 7.75898 8.24155
185 1 0.998733 10.1624 0.0199091
111 3 -0.872565 12.1348 8.52024
113 3 -0.0748207 10.8173 4.58525
110 3 -1.33175 9.52224 8.47487
25 4 0.0380551 13.1502 7.54647
82 3 -3.42075 7.85863 8.60312
245 2 0.162432 8.54036 2.18436
84 3 -6.11302 12.5437 8.59063
34 4 2.72679 8.18209 2.52029
39 4 1.30974 11.1306 5.45672
37 4 2.50562 8.65028 7.25869
114 3 1.78307 9.74566 6.46063
184 1 1.00695 8.94506 2.80159
243 2 1.15344 10.0765 2.56964
244 2 0.753038 8.7075 3.91327
109 3 3.245 7.41306 6.62566
8 4 -3.75508 6.90033 3.87284
103 3 2.33562 6.8128 3.17444
351 2 -2.69187 6.83903 16.8836
121 3 1.50839 10.3792 12.9133
324 2 -4.72683 12.8802 14.9368
223 2 -4.68023 13.0239 11.435
119 3 -2.49958 11.5157 17.0287
215 2 -0.160839 8.43677 13.4074
22 4 -3.70096 10.9955 11.3362
38 4 -1.08472 10.8338 9.39986
41 4 -1.3943 11.3365 15.8828
88 3 -5.03626 10.9198 10.4241
112 3 -2.33176 10.966 10.4529
118 3 -1.7607 12.3633 14.5065
174 1 -0.8429 8.52357 12.4564
176 1 -3.69521 10.0836 12.9629
177 1 -3.56147 12.9766 12.0364
189 1 -1.53347 9.53822 15.4065
221 2 -2.8367 9.90987 13.8661
256 2 -0.785269 9.08684 16.2409
257 2 -1.23397 9.19616 14.2532
258 2 -2.7127 9.38852 15.6993
311 3 -4.92481 10.5751 17.0168
323 1 -5.81227 12.6748 15.1486
214 2 -0.233833 8.79777 11.5134
222 2 -3.78752 9.04212 12.4304
219 2 0.49073 6.89901 10.0865
302 4 -1.56239 13.1245 13.0921
216 2 -1.80485 9.16604 12.637
220 2 -4.68665 10.4229 13.342
122 3 -0.335413 12.3984 12.2764
117 3 0.168149 11.7675 16.4322
102 3 0.37274 7.00412 16.9627
76 3 -2.69503 6.7858 10.9965
116 3 0.982269 8.45931 14.8977
101 3 2.89953 6.99566 16.3895
325 2 -6.22646 13.3741 15.8765
246 2 1.24125 9.46039 16.9649
248 2 2.19827 7.54566 9.42166
247 2 1.07919 9.14177 9.50119
120 3 0.379827 10.5834 10.3627
33 4 1.43116 7.06666 15.669
186 1 1.51861 8.22958 8.89111
42 4 0.773102 11.3522 11.752
326 2 -6.50295 12.676 14.2444
40 4 2.42064 9.51492 14.1692
14 4 -1.31656 6.75316 11.8663
254 2 3.63002 7.33004 13.8209
353 2 -3.83034 13.5708 12.9832
279 2 9.15953 2.5807 7.90396
97 3 6.41022 3.06853 6.89811
197 1 6.4817 5.28612 2.52518
278 2 6.44296 4.25853 3.08992
137 3 7.7956 6.20532 4.85073
277 2 5.57457 5.33328 1.7386
131 3 5.09851 6.49562 4.72716
276 2 7.54826 5.32607 1.80201
301 2 6.60112 4.3193 0.709185
354 2 9.81382 1.43471 -0.030949
125 3 7.47862 2.33924 4.73041
30 4 5.5887 4.15943 7.70866
198 1 9.20322 3.44208 8.68913
352 2 13.0169 3.22014 8.57299
2 4 13.6644 1.91393 3.76673
44 4 8.93544 2.15938 4.07082
46 4 11.5115 2.29587 5.89209
48 4 10.0246 4.67696 2.18085
51 4 10.4172 4.66116 7.81622
123 3 13.027 0.547671 3.04591
124 3 8.83254 0.767274 3.10237
126 3 12.5762 2.68376 4.75299
127 3 10.107 1.93785 5.26812
128 3 12.1686 0.986607 6.82498
129 3 9.32174 3.4908 3.03536
130 3 10.8846 5.77147 2.9294
132 3 9.05094 5.43305 1.00307
133 3 11.3572 3.6532 7.04459
138 3 9.68144 5.61143 6.74151
196 1 11.2248 3.80453 0.957248
274 2 10.9699 2.68124 1.09484
191 1 11.1976 0.367593 1.09684
273 2 11.0065 4.20882 -0.0779035
337 2 9.6096 0.627987 7.91701
360 2 10.387 0.372407 1.85711
359 2 11.5877 1.46717 0.852024
275 2 12.2698 4.13653 1.46098
23 4 7.72328 0.0712034 2.22004
192 1 14.2645 0.732446 8.76278
280 2 8.13778 3.89521 8.7434
135 3 6.48915 5.09007 8.71288
297 3 6.92615 1.348 1.30337
49 4 6.47678 6.59303 3.88474
334 1 8.8152 0.305857 8.7482
356 2 5.05428 4.9562 0.18663
45 4 13.0776 -0.0991822 7.52299
362 2 14.1539 0.232988 9.84534
134 3 10.9847 5.51875 9.15864
300 2 7.6827 4.30472 16.9375
298 1 6.96957 3.72046 17.5752
140 3 5.92966 5.74248 14.617
182 1 6.9359 4.09407 12.3964
239 2 6.72701 3.1739 11.7798
307 2 7.30297 1.25811 12.5819
304 1 8.88585 0.00739955 14.6421
32 4 5.39293 4.55405 13.6466
237 2 7.17577 5.05947 11.7696
350 2 14.3686 0.0404593 14.4276
238 2 7.71937 3.84518 13.2509
308 2 7.92393 0.331589 15.2624
309 2 9.26733 0.824126 14.057
141 3 7.93133 6.57358 16.3783
144 3 7.37693 6.60358 10.8625
318 2 11.7701 2.48577 15.9215
336 2 8.09945 1.1989 9.01152
333 2 9.54706 2.98085 17.0112
294 2 14.472 -0.0249691 12.706
332 2 9.28693 1.22215 16.2284
316 1 12.6287 1.86361 16.2444
317 2 12.3617 0.822452 16.0166
331 1 9.30859 1.85434 17.1707
281 2 9.56983 3.10906 9.68604
264 2 11.6491 1.11355 9.7805
285 2 8.13343 4.53521 14.7604
267 2 8.91423 0.856895 12.4974
319 2 12.8878 2.06497 17.4148
47 4 11.0312 2.19791 12.0177
54 4 10.2524 4.81081 13.5849
139 3 11.0707 3.62859 12.7488
145 3 9.54825 5.81565 12.4534
193 1 11.9084 2.03054 10.3174
194 1 9.07334 1.64288 11.717
195 1 11.8549 0.896527 13.2605
200 1 9.03584 3.86011 14.7841
265 2 12.9644 1.94551 10.7674
266 2 11.7599 3.00967 9.78008
268 2 8.93263 1.1791 10.5814
269 2 8.4026 2.55897 11.8973
286 2 9.48896 3.88457 15.8084
287 2 8.76175 2.7775 14.4408
272 2 12.7223 0.238736 12.7076
271 2 12.1179 1.25327 14.3797
270 2 10.791 0.293994 13.2876
365 2 11.319 5.36974 15.6919
347 1 11.4468 5.94977 14.6064
299 2 5.94829 3.47028 17.0133
52 4 6.50107 6.65263 9.54011
263 2 14.1323 1.85848 8.83836
296 4 7.38288 1.8798 17.7415
321 2 12.5764 5.02685 17.6917
262 2 3.37269 13.5097 0.143722
43 4 4.97357 13.1874 2.07365
58 4 3.91948 10.7925 3.85634
61 4 6.36435 10.9935 5.81709
104 3 3.27261 8.0182 0.928759
251 2 4.98899 8.98011 8.15337
157 3 9.0316 9.9587 8.28873
115 3 1.00445 12.2154 6.62017
146 3 6.55596 8.0605 3.2208
149 3 3.5072 9.30814 3.28969
150 3 4.27537 11.9077 2.69476
151 3 2.54484 11.4601 4.63071
153 3 6.59466 10.2383 1.48648
154 3 6.02676 12.747 0.771023
159 3 5.14196 10.7411 4.85097
160 3 6.67137 9.74623 6.79338
161 3 5.96408 12.4251 6.70394
57 4 7.44354 9.04312 2.16402
155 3 6.85738 7.93612 8.64076
158 3 7.69411 11.2957 5.0163
59 4 6.28931 11.2635 0.193025
187 1 4.00672 9.5784 8.17032
108 3 0.865688 12.9037 1.07015
250 2 3.97594 10.3544 7.28312
343 2 4.14581 11.565 8.52313
364 2 10.8775 7.09794 0.279281
60 4 7.77675 8.89444 7.66126
50 4 8.48679 6.95941 0.00602959
147 3 7.93645 8.0995 0.947947
136 3 10.3579 7.36797 5.04532
148 3 8.6774 9.78509 2.96368
16 4 8.94676 11.009 4.02135
156 3 8.47788 8.0121 6.63628
363 2 3.15106 13.3195 8.69064
341 1 4.16959 12.7971 8.70312
53 4 9.08443 6.79635 5.7541
357 2 2.06722 10.0557 0.577897
345 2 10.7173 6.95054 16.3022
11 4 11.2884 6.9516 9.77546
344 1 10.435 7.4205 17.3476
253 2 3.37136 8.35344 12.25
36 4 1.37497 11.8352 17.5691
164 3 8.78562 10.0144 14.7854
163 3 8.47402 8.18942 12.7223
199 1 4.69313 7.13686 10.0956
342 2 4.89042 13.133 9.62551
290 2 5.00251 13.2386 14.5285
283 2 4.75546 7.29357 11.2548
21 4 9.05369 11.0161 15.9738
305 2 2.12914 13.3105 15.414
252 2 3.70135 9.96163 9.19872
282 2 4.34911 8.04543 9.40302
19 4 9.05721 11.1243 9.28291
366 2 7.53724 13.2428 10.961
288 2 6.08216 11.6279 14.3285
255 2 4.66048 8.80862 13.5818
289 2 6.16697 12.7329 15.9243
55 4 6.54066 7.00813 15.5999
63 4 4.18761 11.3082 16.0459
64 4 6.62494 11.1586 11.5332
142 3 5.47774 7.37621 16.8307
162 3 6.79118 8.29897 14.7311
165 3 3.31867 10.402 15.073
166 3 5.18392 10.679 17.3138
167 3 3.02956 12.4387 16.6947
188 1 3.63897 8.30412 13.3539
190 1 2.35159 12.3746 11.2786
201 1 5.51612 12.314 15.0925
202 1 4.89059 10.4554 11.2265
346 2 10.3942 8.62273 17.3196
143 3 9.9861 7.61067 10.4853
259 2 2.92481 12.2863 10.3275
260 2 2.98336 11.9777 12.1873
291 2 4.1048 11.2571 11.0423
292 2 4.43909 9.66285 12.0593
293 2 5.22709 9.94803 10.2139
152 3 7.8271 11.1893 17.0179
169 3 7.02728 10.3509 12.8229
203 1 6.65681 13.1928 11.6669
62 4 7.79325 9.10852 13.796
168 3 7.68807 11.0229 10.2501
355 2 1.04379 13.0217 13.9086
348 2 11.0003 6.97212 14.6828
56 4 8.90477 7.14843 11.6473
261 2 2.01043 13.5399 11.4988
29 4 4.03703 7.15327 17.5268
335 2 1.72837 13.4742 9.70027
295 2 5.65462 13.4664 11.1293
ITEM: TIMESTEP
100
ITEM: NUMBER OF ATOMS
366
ITEM: BOX BOUNDS xy xz yz pp pp pp
-7.6513592207258867e+00 1.5514495184341149e+01 -7.5817822447848373e+00
-2.5448601139492300e-01 1.3674893816520523e+01 2.5595466888130952e-01
-1.4304623784867587e-01 1.7750446237848607e+01 -1.1459219487448345e-01
ITEM: ATOMS id type x y z
69 3 -1.1331 2.91973 2.52345
73 3 -2.3304 6.19746 4.57927
74 3 -0.574037 5.44416 6.60926
71 3 -0.472269 5.25426 1.34455
99 3 4.74387 5.11609 6.83507
10 4 0.0402215 4.27237 7.4756
66 3 -0.452845 1.61655 4.82156
27 4 6.42416 1.85933 5.92658
96 3 4.59662 3.20555 8.71826
7 4 0.125092 3.92864 2.10579
72 3 0.573542 2.79345 6.86878
3 4 1.26725 1.71314 0.331211
5 4 0.890779 1.64525 5.83196
24 4 3.5506 1.78789 4.13405
91 3 3.31959 0.711899 8.46235
28 4 1.479 5.90738 4.11578
65 3 1.40753 0.417149 1.29371
67 3 1.3592 0.26776 6.57817
70 3 1.27971 3.09721 1.10317
89 3 3.49643 0.436207 3.12399
90 3 2.21954 1.99868 4.98279
92 3 4.90301 1.76358 5.12973
93 3 6.78805 0.513682 6.75954
94 3 0.804641 4.5768 3.36399
98 3 2.59726 5.43759 5.28439
171 1 -1.45566 3.79834 8.73146
178 1 3.97508 3.18373 2.91169
225 2 3.01168 3.78395 2.99066
226 2 3.89469 2.54481 1.9562
227 2 4.90464 3.87326 2.92798
338 1 3.75794 5.32857 0.242793
31 4 3.91982 6.15196 5.85005
172 1 1.52373 5.00814 8.41042
340 2 3.57333 5.48454 1.35896
9 4 -0.865117 6.61911 0.488655
209 2 2.30832 4.57445 7.61405
208 2 1.4996 6.14394 8.51774
12 4 -1.11848 6.65534 5.57519
314 2 3.51117 2.39715 0.022112
356 2 4.856 4.78034 0.0992833
313 2 3.6502 0.455493 17.5053
312 1 3.24791 1.48859 17.2913
206 2 -0.857259 3.37609 9.62032
77 3 -1.25052 5.72979 13.1969
320 1 -2.06336 5.78362 17.4472
6 4 -0.837324 2.23117 15.8903
75 3 -0.752927 3.84776 15.2794
299 2 5.77506 3.21876 17.0932
322 2 -1.61312 5.35736 16.5113
217 2 -0.660389 5.11957 10.0286
175 1 -0.212909 5.99171 10.6207
349 2 -2.81472 5.69923 13.9165
230 2 6.00985 -0.0770403 9.46823
229 2 6.47713 1.79673 9.3878
207 2 -2.03925 4.7464 8.96626
13 4 0.0702753 4.77237 14.1519
205 2 -0.895014 1.6895 13.4472
213 2 0.176072 3.80219 12.0738
212 2 2.05243 4.16643 12.5748
210 2 1.60833 4.5208 9.40197
328 2 5.15338 1.02369 16.8248
353 2 3.77782 -0.217796 12.9236
68 3 0.215768 1.59584 17.085
228 2 6.06029 0.986286 11.1939
26 4 4.18379 1.75211 9.35505
211 2 1.03599 2.68835 13.3457
100 3 1.10501 5.73513 14.7961
173 1 0.950101 3.68505 12.8692
179 1 5.83712 0.994368 9.98177
180 1 3.05228 2.13086 10.9265
181 1 4.66622 3.07073 14.7766
231 2 2.66918 3.18728 10.7195
232 2 3.51561 1.96306 11.9131
233 2 2.30917 1.38226 10.6861
234 2 4.14342 2.5172 13.9173
235 2 3.85863 3.64382 15.3544
236 2 5.23488 2.33643 15.44
241 2 3.25709 5.29533 13.1848
303 1 6.26717 0.758899 13.1877
306 2 5.60044 1.57954 13.7763
315 2 3.05125 1.79939 16.2118
327 1 6.24108 0.7573 16.4112
183 1 3.92353 4.97991 12.3175
218 2 0.532394 5.58254 11.4723
330 2 6.24977 0.763624 15.2418
204 2 0.469067 0.921841 14.5073
240 2 4.14494 5.85603 11.5334
242 2 3.63561 3.94299 11.8039
339 2 3.14123 4.67048 17.6739
224 2 4.69633 -0.146508 11.2167
329 2 6.60213 -0.205027 16.8245
95 3 0.295072 6.86842 4.65303
358 2 0.395337 10.09 0.883994
1 4 -5.18303 13.2031 2.2096
4 4 -5.25435 13.2893 7.57562
15 4 -2.56752 9.12303 2.03074
17 4 -4.02669 11.0276 0.169049
18 4 -2.28188 8.83064 7.54784
20 4 -3.66733 11.2139 5.86021
35 4 -1.24974 11.497 3.79303
78 3 -3.29464 8.30657 3.24491
79 3 -1.43542 7.90863 1.25323
80 3 -3.59886 9.61706 0.832442
81 3 -4.5649 12.1602 1.25504
83 3 -1.62517 7.95726 6.37705
85 3 -4.91799 10.8644 4.96607
86 3 -3.10094 10.0311 6.85907
87 3 -4.22103 12.4957 6.71309
105 3 -1.67962 10.4212 2.49431
106 3 -0.705205 12.912 3.04668
107 3 -2.54058 11.6579 4.73625
310 3 -6.20515 12.4127 3.13018
249 2 0.482645 7.60569 8.3246
185 1 1.3441 10.2919 0.272875
111 3 -0.877872 12.1491 8.54039
113 3 0.000382717 10.8766 4.51481
110 3 -1.08486 9.40801 8.46656
25 4 0.0663171 13.212 7.58289
82 3 -3.32641 7.90665 8.48789
245 2 0.181389 8.61283 2.12161
84 3 -6.11934 12.4181 8.59247
34 4 2.75492 8.26108 2.49005
39 4 1.26263 11.1858 5.52328
37 4 2.61306 8.7751 7.34386
114 3 1.68827 9.65599 6.42164
184 1 1.01066 8.97613 2.74319
243 2 1.26703 10.0991 2.57357
244 2 0.831399 8.84299 3.868
109 3 3.31695 7.54384 6.63787
8 4 -3.70245 6.95124 3.88473
103 3 2.48281 6.8328 3.09366
186 1 1.27125 8.2335 8.793
254 2 3.48687 7.29463 13.5003
121 3 1.67722 10.3548 12.7915
324 2 -4.79304 13.0112 15.493
223 2 -4.63399 13.117 11.4639
119 3 -2.60521 11.5434 17.2404
215 2 -0.0796756 8.37178 13.389
22 4 -3.67117 11.0676 11.2706
38 4 -1.05155 10.7938 9.4238
41 4 -1.59762 11.3306 15.9675
88 3 -5.06741 10.9702 10.398
112 3 -2.30258 10.9582 10.4145
118 3 -1.72665 12.21 14.6187
174 1 -0.847363 8.44002 12.513
176 1 -3.60333 10.0318 12.8667
177 1 -3.56204 13.0232 11.9788
189 1 -1.64733 9.54557 15.3919
221 2 -2.9069 9.96939 13.771
256 2 -0.908377 9.14069 16.2405
257 2 -1.33056 9.09489 14.3321
258 2 -2.74099 9.28875 15.649
311 3 -5.05253 10.5686 17.0826
323 1 -5.81463 12.5821 15.3423
214 2 -0.470934 8.73291 11.4059
222 2 -3.47816 9.02083 12.1468
219 2 0.312268 6.74301 9.94859
302 4 -1.58203 12.857 13.1196
216 2 -1.86386 9.08148 12.7656
220 2 -4.68938 10.1161 13.1206
122 3 -0.332398 12.2879 12.3054
117 3 -0.00730773 11.7018 16.6787
102 3 0.360193 7.0265 17.0958
76 3 -2.81089 6.73456 10.8939
116 3 1.26218 8.40533 14.746
101 3 2.84608 7.06097 16.2837
325 2 -6.59368 13.2195 15.7885
246 2 1.73196 9.44015 17.2728
248 2 1.99406 7.60754 9.34015
247 2 0.905483 9.14984 9.4171
120 3 0.534433 10.5906 10.3543
33 4 1.34689 7.0634 15.7463
40 4 2.3668 9.4346 13.9887
42 4 0.95064 11.306 11.7397
326 2 -5.91912 12.3775 14.2496
351 2 -2.61595 6.8203 17.2458
14 4 -1.46349 6.7051 11.85
279 2 8.9514 2.66337 7.84563
97 3 6.51216 3.07622 6.89984
197 1 6.20447 5.42544 2.51752
278 2 6.25366 4.45261 3.10868
137 3 7.79994 6.4053 4.79629
277 2 5.36118 5.44539 1.72241
131 3 5.05302 6.49406 4.64803
276 2 7.25998 5.41145 1.84397
301 2 6.43797 4.34633 0.832903
354 2 9.7488 1.32558 -0.078974
125 3 7.57157 2.15409 4.76922
30 4 5.50493 4.11501 7.7377
198 1 9.01943 3.59256 8.53222
352 2 13.1725 3.03315 8.31213
2 4 13.7659 1.91388 3.79159
44 4 8.99383 2.11305 4.10087
46 4 11.5713 2.4284 5.76914
48 4 9.87174 4.79475 2.15952
51 4 10.4244 4.68641 7.81232
123 3 13.1509 0.421658 2.99674
124 3 8.93569 0.785142 3.06703
126 3 12.5583 2.76369 4.51701
127 3 10.1414 2.01879 5.273
128 3 12.2828 1.0649 6.62971
129 3 9.28423 3.51273 3.18756
130 3 10.845 5.88249 2.77635
132 3 8.76183 5.38316 1.04971
133 3 11.3765 3.62808 6.79732
138 3 9.60014 5.72125 6.95371
196 1 11.1548 3.7486 1.15964
274 2 10.8028 2.59174 1.18378
191 1 11.1159 0.444108 1.12393
273 2 10.9606 4.24782 0.133432
337 2 9.6377 0.811035 8.22781
360 2 10.2355 0.531464 1.91055
359 2 11.5407 1.48782 0.895993
275 2 12.1474 3.94372 1.65905
23 4 7.74086 0.0531542 2.15308
192 1 14.1851 0.569812 8.67388
280 2 8.01099 4.2007 8.56975
135 3 6.3642 5.08187 8.63991
297 3 6.93848 1.24987 1.22812
49 4 6.47618 6.73494 3.88619
263 2 14.0439 1.78845 8.73687
45 4 12.9357 -0.14841 7.46102
361 2 15.0965 0.231679 8.06125
321 2 12.366 5.09145 0.200241
362 2 14.1623 0.0968532 9.78205
134 3 11.2592 5.257 9.18887
300 2 7.54081 4.23583 16.9393
298 1 6.85512 3.67829 17.651
140 3 5.95667 5.61721 14.6295
182 1 6.87719 3.97477 12.56
239 2 6.59366 3.04941 12.0959
307 2 7.36093 1.11109 12.6725
304 1 8.86011 -0.121592 14.6305
32 4 5.32877 4.49988 13.7145
237 2 7.20906 4.69825 11.7553
350 2 14.0261 0.0996983 14.537
238 2 7.73429 3.89319 13.4156
308 2 7.92509 0.261727 15.25
309 2 9.36649 0.770399 14.118
141 3 7.91422 6.54582 16.4301
144 3 7.47409 6.44258 10.9668
318 2 11.7446 2.31777 15.7757
336 2 7.95262 1.23222 9.09218
333 2 9.58831 2.89431 16.8904
170 1 14.6534 1.07972 14.3769
332 2 9.15403 1.18368 16.1455
316 1 12.6175 1.84064 16.3119
317 2 12.632 0.653428 16.3698
331 1 9.20826 1.81561 17.0983
281 2 9.3846 3.28989 9.53747
264 2 11.4168 1.51602 9.54178
285 2 8.28432 4.74882 14.7433
267 2 8.93993 0.930935 12.5694
319 2 12.7446 2.25349 17.3758
47 4 11.125 2.16041 12.0769
54 4 10.2317 4.89367 13.5055
139 3 10.9772 3.571 12.7832
145 3 9.33341 5.8028 12.625
193 1 11.8675 2.28444 10.3415
194 1 9.08033 1.69437 11.8029
195 1 11.8053 0.819891 13.2511
200 1 9.1621 3.97853 14.8429
265 2 13.0031 1.93477 10.8855
266 2 11.8225 3.37589 10.0042
268 2 8.99724 1.20889 10.7257
269 2 8.33231 2.5739 11.9116
286 2 9.67536 3.9165 15.9218
287 2 8.89579 2.90981 14.4191
272 2 12.6543 0.258639 12.6769
271 2 12.0442 1.12124 14.4248
270 2 10.775 0.198661 13.1275
365 2 11.5865 5.30868 15.4431
347 1 11.5391 5.86354 14.5257
334 1 8.73752 0.379788 8.83587
284 2 4.32392 6.04556 9.73471
296 4 7.41188 1.87114 17.71
294 2 14.4149 -0.0368494 12.6704
261 2 9.65981 -0.190929 11.4565
262 2 3.24328 13.5649 0.192104
43 4 4.86592 13.1883 2.04102
58 4 3.90168 10.9561 3.9005
61 4 6.39324 11.1453 5.78726
104 3 3.11963 8.07406 0.968206
251 2 5.13498 9.23866 8.54848
157 3 8.80094 9.93377 8.34117
115 3 1.0495 12.3351 6.64053
146 3 6.72414 8.03185 3.08131
149 3 3.50065 9.46089 3.2645
150 3 4.0649 11.9937 2.638
151 3 2.51971 11.5519 4.69441
153 3 6.68161 10.0894 1.29323
154 3 5.80875 12.5997 0.850024
159 3 5.15442 10.8645 4.85749
160 3 6.59375 9.94179 6.85422
161 3 6.03484 12.5072 6.70059
57 4 7.50269 9.0103 2.11736
155 3 7.07026 7.84692 8.66195
158 3 7.70167 11.193 4.89779
59 4 6.21539 11.1731 0.158418
187 1 4.11951 9.66846 8.16134
108 3 0.805857 12.9592 0.912504
250 2 4.20681 10.4187 7.2725
343 2 3.97366 11.7088 8.38671
364 2 10.8576 7.06905 0.0934387
60 4 7.7819 8.99833 7.53305
50 4 8.50512 6.93259 -0.111577
147 3 8.02711 8.00642 0.924601
136 3 10.4022 7.25656 5.02184
148 3 8.72813 9.74445 2.96577
16 4 9.04193 11.0964 4.00321
156 3 8.58459 8.07762 6.50247
363 2 2.94198 13.3405 8.64636
341 1 3.95173 12.8856 8.6137
53 4 9.07269 6.83057 5.76267
357 2 2.29352 10.3156 0.955828
345 2 10.7481 6.87527 16.1455
11 4 11.385 6.79892 9.74952
344 1 10.4353 7.39117 17.1822
253 2 3.2098 8.38198 12.0396
36 4 1.31699 11.8989 17.5867
164 3 8.84693 9.75388 14.9431
163 3 8.77412 8.33004 12.6134
199 1 4.7943 7.01751 9.98516
342 2 4.53041 13.1043 9.4975
290 2 4.93491 12.9778 14.3245
283 2 4.87448 7.23541 11.1429
21 4 9.02854 10.9038 16.1595
305 2 2.07602 13.1899 15.3758
252 2 3.41103 10.0564 9.05473
282 2 4.45288 8.01459 9.28923
19 4 9.0042 11.0909 9.41295
366 2 7.56866 13.2592 11.0602
288 2 5.94186 11.2182 14.4095
255 2 4.66467 8.75802 13.2664
289 2 6.07905 12.5514 15.73
55 4 6.57265 7.0723 15.6644
63 4 4.14055 11.2234 16.0958
64 4 6.62439 11.1954 11.5568
142 3 5.45628 7.30513 16.8218
162 3 6.77048 8.24317 14.5194
165 3 3.29345 10.2941 15.0305
166 3 5.04284 10.5739 17.2914
167 3 3.05522 12.3825 16.7866
188 1 3.6286 8.31377 13.1132
190 1 2.38171 12.4717 11.299
201 1 5.39893 12.1014 14.9738
202 1 4.91785 10.5323 11.1558
346 2 10.4805 8.50872 17.1948
143 3 10.0147 7.21311 10.4362
259 2 2.86389 12.2221 10.2446
260 2 3.08289 12.1535 12.16
291 2 4.13908 11.4088 10.9704
292 2 4.42859 9.72256 11.8719
293 2 5.25514 10.0484 10.125
152 3 7.63805 11.1881 17.0074
169 3 7.06273 10.5217 12.9944
203 1 6.6375 13.1906 11.689
62 4 7.83776 9.12615 13.773
168 3 7.54027 11.0704 10.2594
355 2 0.91175 12.9665 13.834
348 2 11.383 6.98351 14.5788
56 4 8.85112 6.99991 11.6129
295 2 5.7359 13.5947 11.1458
29 4 3.96645 6.95135 17.3629
335 2 1.55507 13.5872 9.73404
52 4 6.60941 6.72423 9.656
ITEM: TIMESTEP
200
ITEM: NUMBER OF ATOMS
366
ITEM: BOX BOUNDS xy xz yz pp pp pp
-7.6513592207258867e+00 1.5514495184341149e+01 -7.5817822447848373e+00
-2.5448601139492300e-01 1.3674893816520523e+01 2.5595466888130952e-01
-1.4304623784867587e-01 1.7750446237848607e+01 -1.1459219487448345e-01
ITEM: ATOMS id type x y z
69 3 -0.909011 2.86762 2.61795
73 3 -2.33442 6.29738 4.48358
74 3 -0.553647 5.51827 6.56621
71 3 -0.493108 5.29904 1.30059
99 3 4.52392 5.00793 6.84258
10 4 0.127509 4.362 7.40602
66 3 -0.354669 1.38028 4.79615
27 4 6.33537 1.98081 5.94496
96 3 4.51051 3.18502 8.65199
7 4 0.205828 3.96863 2.12166
72 3 0.550794 2.88261 6.58551
3 4 1.23525 1.77954 0.350162
5 4 0.96678 1.60452 5.68954
24 4 3.6526 1.63055 4.12045
91 3 3.24961 0.606497 8.5211
28 4 1.55919 5.91507 4.04644
65 3 1.39271 0.57616 1.38201
67 3 1.37528 0.32737 6.68103
70 3 1.21433 3.31196 1.08342
89 3 3.37529 0.382212 3.22193
90 3 2.31007 1.99588 4.92231
92 3 4.97156 1.82063 5.04787
93 3 6.65898 0.583929 6.78449
94 3 1.01767 4.52243 3.42029
98 3 2.72686 5.55498 5.04887
171 1 -1.27608 3.75678 8.70338
178 1 3.77309 3.08107 2.81871
225 2 2.79989 3.66638 3.12991
226 2 3.7452 2.47946 1.86426
227 2 4.6085 3.77282 2.80909
338 1 3.79045 5.4367 0.412966
31 4 3.98168 6.0614 5.88818
172 1 1.63484 4.88769 8.34721
340 2 3.6744 5.65277 1.52098
9 4 -0.918408 6.64062 0.401925
209 2 2.49368 4.53141 7.75263
208 2 1.74046 6.10467 8.55572
12 4 -1.07892 6.72044 5.4999
313 2 3.70537 0.970683 0.0210159
356 2 4.836 4.80337 0.224539
339 2 2.86145 4.96176 -0.0623126
361 2 -0.175303 0.230011 8.0369
224 2 4.69402 -0.177331 11.2584
312 1 3.21185 1.54497 17.366
206 2 -0.674116 3.37865 9.59532
77 3 -1.17909 5.74494 13.0655
320 1 -2.08382 5.74761 17.3717
6 4 -0.875625 2.08328 15.8559
75 3 -0.596233 3.47767 15.2073
299 2 5.73056 3.20279 17.1665
322 2 -1.5868 5.38979 16.4873
217 2 -0.374736 5.13065 9.87405
175 1 0.0781928 5.96214 10.6348
349 2 -2.5491 5.91191 13.9485
230 2 5.94324 0.18768 9.59584
229 2 6.43003 1.92521 9.73808
207 2 -1.71254 4.78159 8.86121
13 4 0.101179 4.75279 14.1443
329 2 6.37167 -0.17539 16.9016
213 2 0.497927 3.69072 12.0399
212 2 2.2467 4.09883 12.7821
210 2 1.6024 4.30289 9.35672
328 2 5.11928 1.10742 16.8839
314 2 3.43043 2.65837 17.3464
68 3 0.371073 1.6957 17.0828
228 2 5.96406 0.980349 11.2933
26 4 4.0502 1.82282 9.39116
211 2 1.12934 2.73229 13.6348
100 3 1.10731 5.73703 14.7586
173 1 1.17568 3.72083 13.0304
179 1 5.77637 1.13484 10.1347
180 1 3.07107 2.23002 11.0534
181 1 4.4801 2.99856 14.7117
231 2 2.56041 3.24448 11.0812
232 2 3.98759 2.09567 11.7652
233 2 2.30812 1.33851 11.0134
234 2 4.04412 2.51223 13.8425
235 2 3.76418 3.7158 15.2239
236 2 5.12225 2.19818 15.4768
241 2 3.21988 5.46329 13.1366
303 1 6.26754 0.648712 13.296
306 2 5.62196 1.54533 13.8429
315 2 2.8321 1.05556 16.3952
327 1 6.16061 0.836164 16.527
183 1 3.98543 5.03722 12.265
218 2 0.681124 5.42442 11.493
330 2 6.21551 0.835761 15.3018
204 2 0.760752 0.695542 14.6187
240 2 4.3118 5.92731 11.51
242 2 3.62004 3.99707 11.7732
95 3 0.184882 6.88208 4.57003
358 2 0.624307 9.88171 0.447825
1 4 -5.24355 13.3157 2.29452
4 4 -5.13942 13.3466 7.6658
15 4 -2.46169 9.28161 2.14641
17 4 -4.08645 11.119 0.341941
18 4 -2.34535 8.87278 7.48883
20 4 -3.65931 11.2318 5.76538
35 4 -1.21636 11.5923 3.8167
78 3 -3.29496 8.4875 3.34586
79 3 -1.39962 8.0173 1.40783
80 3 -3.51174 9.8195 0.980352
81 3 -4.4035 12.3526 1.33883
83 3 -1.53458 8.02176 6.40109
85 3 -4.86824 10.7083 4.79417
86 3 -3.18177 9.97083 6.68884
87 3 -4.18675 12.4143 6.76769
105 3 -1.56172 10.5195 2.70776
106 3 -0.838898 13.0577 3.12654
107 3 -2.41365 11.7629 4.94118
310 3 -6.00394 12.3599 3.3113
249 2 0.782474 7.63224 8.25592
185 1 1.68959 10.3255 0.242703
111 3 -0.818873 12.3001 8.57116
113 3 0.0375689 11.0148 4.63056
110 3 -1.26211 9.508 8.4181
25 4 -0.0420385 13.2292 7.59879
82 3 -3.28492 7.75345 8.59618
245 2 0.0791225 8.5894 2.1368
84 3 -6.08335 12.4963 8.73497
34 4 2.59568 8.29933 2.39779
39 4 1.34165 11.1968 5.72892
37 4 2.53204 8.63821 7.20897
114 3 1.87345 9.81359 6.3909
184 1 0.908207 9.10331 2.76109
243 2 0.973129 10.2299 2.56057
244 2 0.798905 8.93528 3.89527
109 3 3.34858 7.41882 6.71513
8 4 -3.67373 6.9513 3.8885
103 3 2.3793 6.82247 2.91707
254 2 3.34173 7.20781 13.4021
121 3 1.65283 10.1293 12.7472
324 2 -5.34567 12.8789 16.1847
223 2 -4.64024 12.9983 11.4437
119 3 -2.80555 11.4354 16.9939
215 2 -0.392236 8.30402 13.2843
22 4 -3.61201 10.9857 11.2968
38 4 -0.95565 10.8105 9.27754
41 4 -1.55391 11.1934 15.9095
88 3 -4.94868 10.8855 10.4264
112 3 -2.22702 10.7139 10.4483
118 3 -1.86271 12.079 14.5846
174 1 -1.02295 8.51655 12.3123
176 1 -3.74563 10.0662 12.9503
177 1 -3.59169 12.9252 11.9973
189 1 -1.66386 9.41281 15.34
221 2 -3.00586 9.94861 13.8644
256 2 -0.956024 8.94933 16.141
257 2 -1.39232 9.03783 14.2608
258 2 -2.76818 9.12464 15.5747
311 3 -5.16596 10.5081 17.3579
323 1 -5.95076 12.365 15.3478
214 2 -0.336512 8.92261 11.4373
222 2 -3.79082 9.02789 12.3943
219 2 0.725538 6.73085 10.085
302 4 -1.61228 12.7621 13.1835
216 2 -1.99952 9.09506 12.559
220 2 -4.73831 10.4042 13.3246
122 3 -0.447575 11.9698 12.3123
117 3 0.0760953 11.5606 16.6913
102 3 0.30839 6.91741 17.0822
76 3 -2.80571 6.74126 11.0128
116 3 1.10482 8.27297 14.9283
101 3 2.94365 6.82056 16.3071
325 2 -6.8592 13.0405 15.0086
186 1 1.67315 8.12499 8.84464
248 2 2.41692 7.48039 9.5084
247 2 1.3025 9.09922 9.43935
120 3 0.740796 10.491 10.1509
33 4 1.38387 6.97236 15.749
40 4 2.32171 9.23623 13.9182
42 4 0.942444 11.1346 11.5933
326 2 -5.3476 12.1032 14.3779
351 2 -2.63394 6.79971 17.2426
14 4 -1.30531 6.72903 11.7089
353 2 -3.78387 13.3652 13.0509
279 2 8.90046 2.7473 7.68572
97 3 6.48639 3.23593 6.92354
197 1 6.30607 5.41242 2.57993
278 2 6.10285 4.5283 3.30345
137 3 7.9243 6.30725 4.62002
277 2 5.38783 5.58198 2.02023
131 3 5.18163 6.64048 4.92063
276 2 7.26943 5.30067 1.94681
301 2 6.42917 4.36188 0.714459
354 2 9.70473 1.24631 -0.0241866
125 3 7.51457 2.19039 4.75739
30 4 5.44708 4.11592 7.7995
198 1 9.01949 3.64842 8.43665
296 4 7.17329 2.04002 -0.0789561
2 4 13.8655 1.87562 3.74176
44 4 8.87231 2.14495 4.02589
46 4 11.4751 2.3445 5.64552
48 4 9.806 4.71515 2.11329
51 4 10.3371 4.7238 7.58502
123 3 13.2257 0.560206 3.01633
124 3 9.07827 0.69577 2.93366
126 3 12.5438 2.57873 4.36633
127 3 10.0854 1.90996 5.04766
128 3 12.0459 1.32674 6.66726
129 3 9.22401 3.61649 3.14117
130 3 10.9086 5.95683 2.80629
132 3 8.79786 5.37952 1.07941
133 3 11.1868 3.6929 6.63746
138 3 9.37692 5.82234 6.93167
196 1 11.0927 3.75458 1.11222
274 2 10.9485 2.62834 1.10585
191 1 11.3026 0.418237 1.03282
273 2 10.9944 4.15464 0.0457506
337 2 9.50125 0.740193 8.01767
360 2 10.4589 0.526982 1.85831
359 2 11.6922 1.44052 0.771311
275 2 12.0509 4.09387 1.66005
23 4 7.78734 0.0134543 2.3012
192 1 14.2056 0.564939 8.64495
280 2 8.0365 4.25022 8.65327
334 1 8.73059 0.403375 8.80362
297 3 7.00479 1.45469 1.37422
263 2 14.0629 1.7622 8.71324
321 2 12.3476 5.04262 0.111637
45 4 12.9209 -0.0925617 7.44557
352 2 13.3068 2.99601 8.24595
362 2 14.2076 0.0823968 9.77103
134 3 11.226 5.31516 8.93485
300 2 7.42668 4.24691 16.8751
298 1 6.78116 3.68124 17.6156
140 3 5.77183 5.7422 14.6218
182 1 6.88747 4.04651 12.7793
239 2 6.69386 2.99943 12.2611
307 2 7.19579 1.02716 12.7011
135 3 6.54212 5.20433 8.87689
32 4 5.20914 4.58529 13.7135
237 2 7.14078 4.95808 12.0323
350 2 14.2702 -0.141488 14.6991
238 2 7.76307 3.94804 13.5919
308 2 7.63592 0.102261 15.2674
309 2 8.97372 0.693486 14.0814