LAMMPS (2 Aug 2023 - Update 2)
  using 1 OpenMP thread(s) per MPI task
Reading data file ...
  triclinic box = (0 0 0) to (16.1249 13.4224 16.909) with tilt (-8.2539 0.6162 -0.6491)
WARNING: Triclinic box skew is large. LAMMPS will run inefficiently. (src/domain.cpp:220)
  2 by 1 by 2 MPI processor grid
  reading atoms ...
  366 atoms
Finding 1-2 1-3 1-4 neighbors ...
  special bond factors lj:    0        0        0       
  special bond factors coul:  0        0        0       
     0 = max # of 1-2 neighbors
     0 = max # of 1-3 neighbors
     0 = max # of 1-4 neighbors
     1 = max # of special neighbors
  special bonds CPU = 0.001 seconds
  read_data CPU = 0.013 seconds
WARNING: Van der Waals parameters for element SI indicate inner wall+shielding, but earlier atoms indicate a different van der Waals method. This may cause division-by-zero errors. Keeping van der Waals setting for earlier atoms. (src/REAXFF/reaxff_ffield.cpp:251)
*****Minimization starts.*****

CITE-CITE-CITE-CITE-CITE-CITE-CITE-CITE-CITE-CITE-CITE-CITE-CITE

Your simulation uses code contributions which should be cited:
- pair reaxff command: doi:10.1016/j.parco.2011.08.005
- fix qeq/reaxff command: doi:10.1016/j.parco.2011.08.005
The log file lists these citations in BibTeX format.

CITE-CITE-CITE-CITE-CITE-CITE-CITE-CITE-CITE-CITE-CITE-CITE-CITE

Switching to 'neigh_modify every 1 delay 0 check yes' setting during minimization
WARNING: Fix qeq/reaxff group is not charge neutral, net charge = -29.52 (src/REAXFF/fix_qeq_reaxff.cpp:392)
Neighbor list info ...
  update: every = 1 steps, delay = 0 steps, check = yes
  max neighbors/atom: 2000, page size: 100000
  master list distance cutoff = 12
  ghost atom cutoff = 12
  binsize = 6, bins = 5 3 3
  2 neighbor lists, perpetual/occasional/extra = 2 0 0
  (1) pair reaxff, perpetual
      attributes: half, newton off, ghost
      pair build: half/bin/newtoff/ghost
      stencil: full/ghost/bin/3d
      bin: standard
  (2) fix qeq/reaxff, perpetual, copy from (1)
      attributes: half, newton off
      pair build: copy
      stencil: none
      bin: none
Setting up cg style minimization ...
  Unit style    : real
  Current step  : 0
Per MPI rank memory allocation (min/avg/max) = 170 | 171.9 | 173.7 Mbytes
   Step          Temp          Press         Density         Volume         PotEng    
         0   0              14609.445      1.9525358      3659.697      -39804.227    
        54   0             -15401.221      1.9525358      3659.697      -41342.55     
Loop time of 9.06758 on 4 procs for 54 steps with 366 atoms

96.8% CPU use with 4 MPI tasks x 1 OpenMP threads

Minimization stats:
  Stopping criterion = energy tolerance
  Energy initial, next-to-last, final = 
     -39804.2272206181  -41342.5475326928  -41342.5501805158
  Force two-norm initial, final = 1976.3585 327.74245
  Force max component initial, final = 493.1919 129.44502
  Final line search alpha, max atom move = 2.0023776e-05 0.002591978
  Iterations, force evaluations = 54 188

MPI task timing breakdown:
Section |  min time  |  avg time  |  max time  |%varavg| %total
---------------------------------------------------------------
Pair    | 6.501      | 6.7232     | 6.9438     |   6.6 | 74.15
Bond    | 0.00041011 | 0.00043138 | 0.00044565 |   0.0 |  0.00
Neigh   | 0          | 0          | 0          |   0.0 |  0.00
Comm    | 0.20505    | 0.42554    | 0.64766    |  26.4 |  4.69
Output  | 0.014762   | 0.015438   | 0.016156   |   0.4 |  0.17
Modify  | 1.8936     | 1.8937     | 1.8937     |   0.0 | 20.88
Other   |            | 0.009286   |            |       |  0.10

Nlocal:           91.5 ave         109 max          77 min
Histogram: 1 0 0 1 0 1 0 0 0 1
Nghost:         4374.5 ave        4423 max        4340 min
Histogram: 2 0 0 0 0 0 1 0 0 1
Neighs:          62322 ave       73043 max       53283 min
Histogram: 1 0 0 1 0 1 0 0 0 1

Total # of neighbors = 249288
Ave neighs/atom = 681.11475
Ave special neighs/atom = 0
Neighbor list builds = 0
Dangerous builds = 0
System init for write_data ...
##### Equilibration starts.##### 
WARNING: Compute rdf cutoff less than neighbor cutoff - forcing a needless neighbor list build (src/compute_rdf.cpp:179)
Neighbor list info ...
  update: every = 10 steps, delay = 0 steps, check = yes
  max neighbors/atom: 2000, page size: 100000
  master list distance cutoff = 12
  ghost atom cutoff = 12
  binsize = 6, bins = 5 3 3
  3 neighbor lists, perpetual/occasional/extra = 2 1 0
  (1) pair reaxff, perpetual
      attributes: half, newton off, ghost
      pair build: half/bin/newtoff/ghost
      stencil: full/ghost/bin/3d
      bin: standard
  (2) compute rdf, occasional
      attributes: half, newton on, cut 7
      pair build: half/bin/newton/tri
      stencil: half/bin/3d/tri
      bin: standard
  (3) fix qeq/reaxff, perpetual, copy from (1)
      attributes: half, newton off
      pair build: copy
      stencil: none
      bin: none
Setting up Verlet run ...
  Unit style    : real
  Current step  : 0
  Time step     : 0.5
Per MPI rank memory allocation (min/avg/max) = 174.9 | 176.8 | 178.5 Mbytes
   Step          Temp          Press          PotEng         TotEng    
         0   300           -11325.28      -41342.551     -41016.152    
       100   201.06335     -3493.9301     -41207.654     -40988.898    
       200   245.77738     -6557.0528     -41194.276     -40926.872    
       300   269.5459      -7445.7871     -41150.461     -40857.196    
       400   293.40563     -4139.6912     -41119.719     -40800.495    
       500   318.19303     -6899.773      -41099.646     -40753.453    
       600   295.53267     -5954.274      -41064.033     -40742.494    
       700   309.84862     -2582.164      -41086.248     -40749.134    
       800   299.92278     -2151.8539     -41098.799     -40772.484    
       900   292.84531     -8774.5011     -41116.226     -40797.611    
      1000   285.81333      10701.477     -41125.792     -40814.828    
      1100   279.04986     -3241.4679     -41114.59      -40810.985    
      1200   300.26269      1939.7043     -41110.512     -40783.828    
      1300   300.84464     -14038.362     -41085.734     -40758.416    
      1400   303.78863      17183.631     -41071.501     -40740.98     
      1500   299.0625      -2506.8188     -41085.948     -40760.569    
      1600   293.11661      21159.333     -41110.184     -40791.275    
      1700   268.07602     -1393.6073     -41086.527     -40794.862    
      1800   292.8158       1627.8957     -41098.976     -40780.393    
      1900   305.1255      -5160.8771     -41086.019     -40754.044    
      2000   308.0651      -104.03219     -41081.299     -40746.126    
      2100   277.01768     -1187.9389     -41082.694     -40781.3      
      2200   290.56483      2573.8032     -41117.007     -40800.874    
      2300   289.45098     -1086.7418     -41105.005     -40790.084    
      2400   302.16929     -5724.9036     -41102.155     -40773.396    
      2500   304.44111     -1501.0217     -41089.695     -40758.464    
      2600   291.88168      665.39054     -41102.986     -40785.42     
      2700   291.71846     -10981.049     -41124.955     -40807.567    
      2800   294.57572     -496.21295     -41114.712     -40794.215    
      2900   285.4021       3235.1597     -41090.707     -40780.19     
      3000   306.42357     -247.89438     -41098.633     -40765.246    
      3100   298.16042      7029.0127     -41100.487     -40776.089    
      3200   297.00551     -1519.9366     -41101.937     -40778.796    
      3300   300.64664      2863.6026     -41110.696     -40783.594    
      3400   289.98055     -4173.6497     -41102.628     -40787.13     
      3500   275.99309      3081.5145     -41086.76      -40786.48     
      3600   314.82446      16725.207     -41110.98      -40768.452    
      3700   319.07368     -19250.887     -41093.849     -40746.699    
      3800   306.40999      2352.4555     -41087.182     -40753.809    
      3900   298.90169      6060.8303     -41109.415     -40784.211    
      4000   290.62359     -2381.7701     -41112.47      -40796.273    
      4100   286.16715     -4639.879      -41103.471     -40792.122    
      4200   298.61622      7220.8961     -41110.205     -40785.312    
      4300   323.91872      232.94892     -41112.684     -40760.261    
      4400   317.63706     -6922.6337     -41068.712     -40723.124    
      4500   311.45069      3537.751      -41073.259     -40734.402    
      4600   313.21436     -5958.5304     -41101.145     -40760.369    
      4700   308.85601      803.70787     -41116.224     -40780.19     
      4800   290.62545     -11427.715     -41102.843     -40786.644    
      4900   298.78096     -660.34539     -41109.593     -40784.521    
      5000   302.612        5870.3779     -41106.436     -40777.196    
      5100   334.64764     -6652.7557     -41123.129     -40759.033    
      5200   316.62895     -10357.37      -41105.266     -40760.775    
      5300   288.30384      5307.8712     -41107.355     -40793.681    
      5400   280.71521      2426.4206     -41111.037     -40805.62     
      5500   293.47465      4967.3514     -41114.662     -40795.363    
      5600   297.53705      10252.033     -41097.814     -40774.095    
      5700   297.42279     -4099.6247     -41099.348     -40775.753    
      5800   301.32958      1208.081      -41103.946     -40776.1      
      5900   300.63126      10650.875     -41101.389     -40774.304    
      6000   284.62698      4879.4591     -41099.799     -40790.126    
      6100   269.41628      7101.2951     -41118.547     -40825.423    
      6200   287.0865       3078.9779     -41119.355     -40807.006    
      6300   315.31129     -7664.2247     -41126.265     -40783.208    
      6400   313.66691     -607.67149     -41107.334     -40766.066    
      6500   313.88738     -902.93305     -41096.763     -40755.255    
      6600   294.26635      8291.4957     -41083.131     -40762.97     
      6700   290.84966     -9688.5346     -41120.113     -40803.67     
      6800   271.43481      4068.8856     -41104.323     -40809.003    
      6900   303.63675      7450.3688     -41120.366     -40790.01     
      7000   283.71646     -4736.8075     -41085.207     -40776.525    
      7100   298.19991     -11048.073     -41104.54      -40780.1      
      7200   297.30849     -4627.4592     -41133.347     -40809.877    
      7300   277.55978     -6890.4826     -41126.285     -40824.301    
      7400   281.8226       6047.8647     -41115.236     -40808.614    
      7500   299.94665      12085.727     -41107.6       -40781.26     
      7600   304.11323      34.651248     -41108.802     -40777.928    
      7700   292.07167     -10628.325     -41092.959     -40775.186    
      7800   309.2835      -3076.4963     -41097.403     -40760.904    
      7900   329.73508     -5234.8192     -41093.407     -40734.657    
      8000   306.12919     -2797.8623     -41063.02      -40729.953    
      8100   317.14321      8753.9913     -41122.216     -40777.165    
      8200   292.52125     -5261.5652     -41115.118     -40796.856    
      8300   289.98329     -3076.6274     -41108.669     -40793.169    
      8400   316.72789      4046.9375     -41126.148     -40781.549    
      8500   312.3048       11034.456     -41095.432     -40755.646    
      8600   333.4862       2679.1467     -41100.661     -40737.829    
      8700   303.71685     -7294.9619     -41109.954     -40779.511    
      8800   284.59274      4124.1367     -41101.498     -40791.862    
      8900   284.95945      2220.4236     -41097.148     -40787.113    
      9000   312.64412      3010.3964     -41113.498     -40773.342    
      9100   301.96494      7453.7554     -41100.663     -40772.127    
      9200   294.23049     -10941.061     -41099.142     -40779.021    
      9300   301.5221      -5997.0519     -41134.178     -40806.123    
      9400   277.33723      787.78093     -41115.338     -40813.596    
      9500   323.51086      9942.0451     -41140.136     -40788.157    
      9600   325.2981       6676.9431     -41119.57      -40765.647    
      9700   299.22915     -12172.461     -41091.773     -40766.213    
      9800   288.86596      12389.048     -41083.199     -40768.914    
      9900   292.45794     -9682.6851     -41093.713     -40775.52     
     10000   283.44755      4336.3719     -41122.372     -40813.983    
     10100   274.92242     -26.374568     -41123.631     -40824.516    
     10200   303.9185      -1575.0821     -41131.055     -40800.393    
     10300   304.94834      9463.0845     -41118.391     -40786.608    
     10400   289.89206      2864.6336     -41097.426     -40782.025    
     10500   315.66874     -1935.2261     -41107.755     -40764.309    
     10600   335.93217     -628.04687     -41095.737     -40730.244    
     10700   312.09476     -9275.3907     -41065.912     -40726.354    
     10800   292.43944     -5132.9086     -41086.159     -40767.986    
     10900   291.09705     -11665.654     -41093.809     -40777.097    
     11000   306.05475      728.58521     -41111.492     -40778.506    
     11100   315.16612     -4755.313      -41118.38      -40775.481    
     11200   294.63568     -8529.1028     -41112.021     -40791.458    
     11300   293.59028     -8218.7938     -41130.89      -40811.465    
     11400   274.89398     -13607.218     -41103.606     -40804.522    
     11500   309.29074      2337.5376     -41104.211     -40767.704    
     11600   299.99854     -5669.7963     -41092.432     -40766.035    
     11700   296.00684     -6781.1301     -41094.958     -40772.903    
     11800   302.14193      1132.0621     -41116.032     -40787.303    
     11900   284.60738      18002.093     -41126.599     -40816.948    
     12000   279.37131     -6114.6353     -41121.223     -40817.268    
     12100   312.75165     -14744.168     -41116.916     -40776.643    
     12200   309.07604      4723.6506     -41101.528     -40765.254    
     12300   304.79273      7366.4615     -41108.743     -40777.13     
     12400   300.06251      4829.8355     -41119.514     -40793.047    
     12500   275.82835      3031.5239     -41107.206     -40807.106    
     12600   270.5802      -14864.885     -41108.039     -40813.649    
     12700   297.15158      2061.2656     -41106.85      -40783.55     
     12800   318.06558      121.63929     -41108.324     -40762.27     
     12900   313.57661     -1033.9795     -41103.038     -40761.868    
     13000   299.20441      12885.387     -41112.282     -40786.749    
     13100   310.04835      2788.2563     -41146.318     -40808.987    
     13200   291.05097      5055.3973     -41123.734     -40807.072    
     13300   294.33859     -3943.4059     -41114.303     -40794.063    
     13400   299.07763     -14714.87      -41105.518     -40780.123    
     13500   305.83002     -11497.234     -41097.942     -40765.2      
     13600   304.77296     -5722.2663     -41104.017     -40772.426    
     13700   278.76736      1539.4095     -41103.536     -40800.239    
     13800   293.22179     -2222.7328     -41132.45      -40813.426    
     13900   288.94408      15131.919     -41117.679     -40803.309    
     14000   285.19963      7880.742      -41080.821     -40770.525    
     14100   313.03037      1302.0516     -41100.186     -40759.61     
     14200   321.4202      -6895.8787     -41110.2       -40760.496    
     14300   289.22333      1887.9824     -41102.941     -40788.268    
     14400   290.80289      7929.8578     -41116.582     -40800.189    
     14500   282.21614     -13365.144     -41105.819     -40798.769    
     14600   282.05118      10758.101     -41088.562     -40781.692    
     14700   319.64765      320.74706     -41115.956     -40768.181    
     14800   299.69881     -483.1874      -41112.466     -40786.395    
     14900   295.37243     -21538.55      -41148.014     -40826.65     
     15000   293.58176      4207.6391     -41127.188     -40807.772    
     15100   297.51818     -15155.781     -41106.858     -40783.16     
     15200   303.26433      6369.579      -41096.643     -40766.693    
     15300   309.69954      6605.3193     -41112.198     -40775.246    
     15400   307.11255     -656.45088     -41131.805     -40797.668    
     15500   281.4797       1783.5269     -41119.39      -40813.141    
     15600   284.05936     -10836.573     -41120.953     -40811.897    
     15700   281.71745      3836.0297     -41094.762     -40788.255    
     15800   308.51283     -278.76644     -41095.508     -40759.847    
     15900   291.8422      -2210.8055     -41073.857     -40756.333    
     16000   308.49855     -4461.694      -41110.451     -40774.806    
     16100   291.7768      -9820.5143     -41121.955     -40804.503    
     16200   276.51844     -9574.7164     -41107.977     -40807.126    
     16300   291.7391      -16328.761     -41118.168     -40800.758    
     16400   308.57561      5624.8427     -41119.974     -40784.245    
     16500   316.52707     -1592.98       -41117.059     -40772.679    
     16600   312.34543     -886.5081      -41109.415     -40769.584    
     16700   312.98237     -2219.3735     -41115.566     -40775.042    
     16800   301.50182     -7193.6254     -41108.029     -40779.997    
     16900   292.51985      3570.3806     -41123.977     -40805.717    
     17000   293.40485      12534.559     -41143.878     -40824.655    
     17100   295.5576       6663.6336     -41129.744     -40808.179    
     17200   284.62748     -7027.8828     -41074.99      -40765.316    
     17300   320.42854     -998.46973     -41109.063     -40760.438    
     17400   302.81043      5686.1304     -41106.97      -40777.513    
     17500   297.01308     -1311.9247     -41123.718     -40800.569    
     17600   290.08949      5267.9151     -41121.214     -40805.598    
     17700   272.05233     -10808.657     -41076.763     -40780.771    
     17800   323.74471      8423.2863     -41105.436     -40753.204    
     17900   310.95796      5381.6363     -41104.929     -40766.608    
     18000   289.31035     -14167.33      -41098.653     -40783.885    
     18100   295.50729     -1495.6351     -41115.231     -40793.72     
     18200   285.62126      9394.8352     -41120.042     -40809.288    
     18300   282.77523     -8598.3402     -41132.404     -40824.746    
     18400   286.96884      15254.039     -41135.1       -40822.879    
     18500   307.96679      787.86157     -41125.393     -40790.327    
     18600   313.19621     -4475.1909     -41120.886     -40780.13     
     18700   311.15111     -22454.593     -41109.629     -40771.098    
     18800   303.16898     -6634.1907     -41106.23      -40776.383    
     18900   298.97687      2436.8904     -41123.857     -40798.571    
     19000   297.55173     -2825.3668     -41147.319     -40823.584    
     19100   273.83027     -7173.4731     -41122.301     -40824.375    
     19200   293.05128     -3571.2113     -41113.996     -40795.157    
     19300   295.96085      10142.528     -41104.186     -40782.182    
     19400   289.08914     -8523.5682     -41094.99      -40780.462    
     19500   297.82116      832.40034     -41101.004     -40776.975    
     19600   305.00818     -7542.9838     -41107.384     -40775.537    
     19700   303.0122      -977.91575     -41117.883     -40788.207    
     19800   285.3201       9047.1226     -41117.498     -40807.071    
     19900   301.64114     -12436.691     -41133.455     -40805.271    
     20000   311.54855      4221.0901     -41107.431     -40768.467    
Loop time of 809.879 on 4 procs for 20000 steps with 366 atoms

Performance: 1.067 ns/day, 22.497 hours/ns, 24.695 timesteps/s, 9.038 katom-step/s
98.7% CPU use with 4 MPI tasks x 1 OpenMP threads

MPI task timing breakdown:
Section |  min time  |  avg time  |  max time  |%varavg| %total
---------------------------------------------------------------
Pair    | 674.57     | 694.21     | 706.17     |  48.3 | 85.72
Bond    | 0.039662   | 0.042756   | 0.04453    |   0.9 |  0.01
Neigh   | 8.4727     | 8.6399     | 8.7751     |   4.2 |  1.07
Comm    | 6.5799     | 18.594     | 38.289     | 296.4 |  2.30
Output  | 0.066256   | 0.16792    | 0.3232     |  25.9 |  0.02
Modify  | 87.517     | 87.718     | 87.936     |   1.6 | 10.83
Other   |            | 0.5022     |            |       |  0.06

Nlocal:           91.5 ave         102 max          81 min
Histogram: 1 0 0 1 0 0 1 0 0 1
Nghost:           4382 ave        4426 max        4344 min
Histogram: 1 1 0 0 0 0 0 1 0 1
Neighs:        62940.5 ave       69563 max       56236 min
Histogram: 1 0 0 1 0 0 1 0 0 1

Total # of neighbors = 251762
Ave neighs/atom = 687.87432
Ave special neighs/atom = 0
Neighbor list builds = 265
Dangerous builds = 0
System init for write_data ...
WARNING: Compute rdf cutoff less than neighbor cutoff - forcing a needless neighbor list build (src/compute_rdf.cpp:179)
Total wall time: 0:13:39
