ITEM: TIMESTEP
0
ITEM: NUMBER OF ATOMS
366
ITEM: BOX BOUNDS xy xz yz pp pp pp
-7.5762920697874234e+00 1.5360197440179936e+01 -7.5067150938463740e+00
-2.5448601139492300e-01 1.3674893816520523e+01 2.5342046423892034e-01
-1.4304623784867587e-01 1.7750446237848607e+01 -1.1459219487448345e-01
ITEM: ATOMS id type x y z
69 3 -1.11156 3.00356 2.56281
73 3 -2.46865 6.20491 4.73084
74 3 -0.817761 5.20184 6.57491
71 3 -0.29836 5.28039 1.09591
99 3 4.6647 5.09334 6.80366
10 4 -0.046861 4.22596 7.53806
66 3 -0.335057 1.5192 4.57477
339 2 3.02318 4.95192 0.193939
96 3 4.36599 3.15311 8.60678
7 4 0.138238 3.98869 2.10285
72 3 0.526474 2.7304 6.83474
3 4 1.28702 1.7652 0.28805
5 4 1.00304 1.67667 5.71717
24 4 3.59266 1.6079 4.10423
91 3 3.18533 0.745071 8.42394
28 4 1.47134 5.84684 4.24993
65 3 1.38918 0.29677 0.957523
67 3 1.34765 0.315035 6.48117
70 3 1.28632 2.97374 1.37407
89 3 3.28161 0.346185 3.06663
90 3 2.32009 1.97588 4.88877
92 3 4.98799 1.61074 5.02517
93 3 6.84237 0.490635 6.64524
94 3 0.859448 4.5637 3.3952
98 3 2.51131 5.28274 5.36676
361 2 -0.0735069 0.476784 8.24931
178 1 3.60121 3.14223 2.96072
225 2 2.59894 3.65411 3.10638
226 2 3.87889 2.83992 1.89609
227 2 4.46037 3.71087 3.49123
338 1 3.98652 5.53309 0.469083
31 4 3.92282 6.13082 5.8506
172 1 1.4147 5.06483 8.38481
340 2 3.94654 5.77157 1.59609
9 4 -0.875148 6.63499 0.192239
209 2 2.2006 4.68294 7.64028
208 2 1.38311 6.25098 8.47433
12 4 -1.2243 6.51484 5.63176
27 4 6.3774 1.8539 5.86202
313 2 3.54478 0.587871 17.1432
312 1 3.14088 1.61404 17.0875
206 2 -0.898039 3.49419 9.82834
77 3 -1.31279 5.77728 13.2382
320 1 -2.07249 5.81288 17.1176
6 4 -0.841035 2.22587 15.8359
75 3 -0.619615 3.6791 15.2227
205 2 -0.786634 1.87186 13.5604
322 2 -1.7196 5.36428 16.1469
217 2 -0.566956 5.20151 10.1208
175 1 0.0585148 6.0559 10.7631
349 2 -2.8307 5.89303 14.1756
230 2 5.73948 0.0276721 9.57304
229 2 6.22863 1.80591 9.43548
284 2 4.14111 6.19719 9.81564
13 4 0.0170961 4.85848 14.2139
170 1 -0.41135 1.08348 14.3385
213 2 0.413874 3.83022 11.9947
212 2 2.13063 4.32198 12.7728
210 2 1.45685 4.51769 9.38461
328 2 5.10829 1.23959 16.6765
329 2 6.5763 -0.0381726 16.7612
68 3 0.388198 1.83358 17.0152
228 2 5.78828 1.0378 11.1589
26 4 3.92936 1.79255 9.36854
211 2 0.93315 2.82957 13.5642
100 3 1.12134 5.77686 14.7275
173 1 1.00216 3.89559 12.947
179 1 5.57767 1.01017 9.98694
180 1 2.8341 2.25209 10.9549
181 1 4.48209 3.20734 14.7962
231 2 2.67813 3.36969 10.4407
232 2 3.41436 2.30878 11.901
233 2 1.85038 1.63544 11.0092
234 2 3.77885 2.73861 14.0362
235 2 3.97754 3.83638 15.5641
236 2 5.13732 2.36244 15.3722
241 2 3.29354 5.40191 13.1208
303 1 6.12867 1.02217 13.134
306 2 5.50198 1.80135 13.6843
315 2 2.94675 1.8535 15.9971
327 1 6.21945 0.973225 16.3464
183 1 3.98008 4.91185 12.3783
218 2 0.825464 5.58679 11.4502
330 2 6.30514 1.09906 15.1665
204 2 0.729679 1.05437 14.3805
240 2 4.24618 5.75401 11.5274
242 2 3.5713 3.91824 11.8281
171 1 -1.47451 3.90013 8.99142
207 2 -1.88807 4.91091 9.26957
314 2 3.67546 2.44812 17.6696
224 2 4.60765 -0.15025 11.2304
95 3 0.114718 6.88224 4.85607
358 2 0.0794126 9.88954 0.693445
1 4 -5.19178 13.1415 2.18577
4 4 -5.1468 13.4096 7.51852
15 4 -2.48103 9.07553 1.98574
17 4 -3.97059 10.9458 0.187012
18 4 -2.42985 8.80829 7.6248
20 4 -3.71481 11.2047 5.78938
35 4 -1.30193 11.3904 3.79386
78 3 -3.19301 8.20222 3.01232
79 3 -1.19841 7.8654 1.17582
80 3 -3.48993 9.60418 0.852183
81 3 -4.31708 12.0885 1.34992
83 3 -1.63504 7.75629 6.73533
85 3 -4.94081 10.6935 4.98559
86 3 -3.17366 9.91864 6.69638
87 3 -4.08674 12.5298 6.71953
105 3 -1.66208 10.2252 2.63218
106 3 -0.873648 12.8977 2.92318
107 3 -2.52536 11.6324 4.75785
310 3 -6.17036 12.4318 3.19439
249 2 0.644858 7.75898 8.24155
185 1 0.988156 10.1624 0.0199091
111 3 -0.864614 12.1348 8.52024
113 3 -0.0747688 10.8173 4.58525
110 3 -1.31926 9.52224 8.47487
25 4 0.0369894 13.1502 7.54647
82 3 -3.38757 7.85863 8.60312
245 2 0.160135 8.54036 2.18436
84 3 -6.05318 12.5437 8.59063
34 4 2.69911 8.18209 2.52029
39 4 1.29608 11.1306 5.45672
37 4 2.48012 8.65028 7.25869
114 3 1.76472 9.74566 6.46063
184 1 0.996289 8.94506 2.80159
243 2 1.14133 10.0765 2.56964
244 2 0.744893 8.7075 3.91327
109 3 3.21218 7.41306 6.62566
8 4 -3.71859 6.90033 3.87284
103 3 2.31181 6.8128 3.17444
351 2 -2.66591 6.83903 16.8836
121 3 1.49277 10.3792 12.9133
324 2 -4.68072 12.8802 14.9368
223 2 -4.63458 13.0239 11.435
119 3 -2.47552 11.5157 17.0287
215 2 -0.159935 8.43677 13.4074
22 4 -3.66501 10.9955 11.3362
38 4 -1.07467 10.8338 9.39986
41 4 -1.38119 11.3365 15.8828
88 3 -4.98708 10.9198 10.4241
112 3 -2.30936 10.966 10.4529
118 3 -1.74396 12.3633 14.5065
174 1 -0.835243 8.52357 12.4564
176 1 -3.65932 10.0836 12.9629
177 1 -3.5269 12.9766 12.0364
189 1 -1.51898 9.53822 15.4065
221 2 -2.80931 9.90987 13.8661
256 2 -0.778183 9.08684 16.2409
257 2 -1.22244 9.19616 14.2532
258 2 -2.68653 9.38852 15.6993
311 3 -4.87674 10.5751 17.0168
323 1 -5.75542 12.6748 15.1486
214 2 -0.232207 8.79777 11.5134
222 2 -3.75071 9.04212 12.4304
219 2 0.485183 6.89901 10.0865
302 4 -1.54761 13.1245 13.0921
216 2 -1.78767 9.16604 12.637
220 2 -4.64094 10.4229 13.342
122 3 -0.332781 12.3984 12.2764
117 3 0.165796 11.7675 16.4322
102 3 0.36836 7.00412 16.9627
76 3 -2.66904 6.7858 10.9965
116 3 0.971855 8.45931 14.8977
101 3 2.87014 6.99566 16.3895
325 2 -6.1655 13.3741 15.8765
246 2 1.22827 9.46039 16.9649
248 2 2.17582 7.54566 9.42166
247 2 1.06782 9.14177 9.50119
120 3 0.375377 10.5834 10.3627
33 4 1.4163 7.06666 15.669
186 1 1.50288 8.22958 8.89111
42 4 0.764758 11.3522 11.752
326 2 -6.43925 12.676 14.2444
40 4 2.39598 9.51492 14.1692
14 4 -1.30421 6.75316 11.8663
254 2 3.59339 7.33004 13.8209
353 2 -3.7931 13.5708 12.9832
279 2 9.06815 2.5807 7.90396
97 3 6.34607 3.06853 6.89811
197 1 6.41683 5.28612 2.52518
278 2 6.37848 4.25853 3.08992
137 3 7.71773 6.20532 4.85073
277 2 5.51869 5.33328 1.7386
131 3 5.04734 6.49562 4.72716
276 2 7.47284 5.32607 1.80201
301 2 6.53508 4.3193 0.709185
354 2 9.71596 1.43471 -0.030949
125 3 7.40389 2.33924 4.73041
30 4 5.53268 4.15943 7.70866
198 1 9.11141 3.44208 8.68913
352 2 12.8873 3.22014 8.57299
2 4 13.5285 1.91393 3.76673
44 4 8.84628 2.15938 4.07082
46 4 11.3969 2.29587 5.89209
48 4 9.92468 4.67696 2.18085
51 4 10.3134 4.66116 7.81622
123 3 12.8973 0.547671 3.04591
124 3 8.7444 0.767274 3.10237
126 3 12.451 2.68376 4.75299
127 3 10.0062 1.93785 5.26812
128 3 12.0475 0.986607 6.82498
129 3 9.22875 3.4908 3.03536
130 3 10.7761 5.77147 2.9294
132 3 8.96064 5.43305 1.00307
133 3 11.244 3.6532 7.04459
138 3 9.58489 5.61143 6.74151
196 1 11.113 3.80453 0.957248
274 2 10.8606 2.68124 1.09484
191 1 11.0861 0.367593 1.09684
273 2 10.8968 4.20882 -0.0779035
337 2 9.51377 0.627987 7.91701
360 2 10.2835 0.372407 1.85711
359 2 11.4723 1.46717 0.852024
275 2 12.1476 4.13653 1.46098
23 4 7.64613 0.0712034 2.22004
192 1 14.1226 0.732446 8.76278
280 2 8.05651 3.89521 8.7434
135 3 6.42421 5.09007 8.71288
297 3 6.85689 1.348 1.30337
49 4 6.41197 6.59303 3.88474
334 1 8.72723 0.305857 8.7482
356 2 5.00355 4.9562 0.18663
45 4 12.9474 -0.0991822 7.52299
362 2 14.0131 0.232988 9.84534
134 3 10.8752 5.51875 9.15864
300 2 7.60595 4.30472 16.9375
298 1 6.89988 3.72046 17.5752
140 3 5.87026 5.74248 14.617
182 1 6.86654 4.09407 12.3964
239 2 6.65972 3.1739 11.7798
307 2 7.22997 1.25811 12.5819
304 1 8.79718 0.00739955 14.6421
32 4 5.33885 4.55405 13.6466
237 2 7.10403 5.05947 11.7696
350 2 14.2257 0.0404593 14.4276
238 2 7.64225 3.84518 13.2509
308 2 7.84478 0.331589 15.2624
309 2 9.17489 0.824126 14.057
141 3 7.85211 6.57358 16.3783
144 3 7.3032 6.60358 10.8625
318 2 11.6529 2.48577 15.9215
336 2 8.01857 1.1989 9.01152
333 2 9.45185 2.98085 17.0112
294 2 14.328 -0.0249691 12.706
332 2 9.19429 1.22215 16.2284
316 1 12.503 1.86361 16.2444
317 2 12.2386 0.822452 16.0166
331 1 9.21573 1.85434 17.1707
281 2 9.47439 3.10906 9.68604
264 2 11.533 1.11355 9.7805
285 2 8.05221 4.53521 14.7604
267 2 8.82528 0.856895 12.4974
319 2 12.7595 2.06497 17.4148
47 4 10.9213 2.19791 12.0177
54 4 10.1502 4.81081 13.5849
139 3 10.9604 3.62859 12.7488
145 3 9.45302 5.81565 12.4534
193 1 11.7898 2.03054 10.3174
194 1 8.98282 1.64288 11.717
195 1 11.7368 0.896527 13.2605
200 1 8.94569 3.86011 14.7841
265 2 12.8354 1.94551 10.7674
266 2 11.6428 3.00967 9.78008
268 2 8.8435 1.1791 10.5814
269 2 8.31871 2.55897 11.8973
286 2 9.39432 3.88457 15.8084
287 2 8.67431 2.7775 14.4408
272 2 12.5956 0.238736 12.7076
271 2 11.9973 1.25327 14.3797
270 2 10.6835 0.293994 13.2876
365 2 11.2062 5.36974 15.6919
347 1 11.3328 5.94977 14.6064
299 2 5.88871 3.47028 17.0133
52 4 6.43601 6.65263 9.54011
263 2 13.9917 1.85848 8.83836
296 4 7.3091 1.8798 17.7415
321 2 12.4512 5.02685 17.6917
262 2 3.3386 13.5097 0.143722
43 4 4.92364 13.1874 2.07365
58 4 3.87999 10.7925 3.85634
61 4 6.30064 10.9935 5.81709
104 3 3.23952 8.0182 0.928759
251 2 4.93891 8.98011 8.15337
157 3 8.94149 9.9587 8.28873
115 3 0.993819 12.2154 6.62017
146 3 6.49036 8.0605 3.2208
149 3 3.47178 9.30814 3.28969
150 3 4.23235 11.9077 2.69476
151 3 2.51895 11.4601 4.63071
153 3 6.52868 10.2383 1.48648
154 3 5.9664 12.747 0.771023
159 3 5.09036 10.7411 4.85097
160 3 6.60463 9.74623 6.79338
161 3 5.90435 12.4251 6.70394
57 4 7.36916 9.04312 2.16402
155 3 6.7888 7.93612 8.64076
158 3 7.61724 11.2957 5.0163
59 4 6.22635 11.2635 0.193025
187 1 3.96636 9.5784 8.17032
108 3 0.856428 12.9037 1.07015
250 2 3.93589 10.3544 7.28312
343 2 4.10407 11.565 8.52313
364 2 10.7691 7.09794 0.279281
60 4 7.69906 8.89444 7.66126
50 4 8.40208 6.95941 0.00602959
147 3 7.85718 8.0995 0.947947
136 3 10.2547 7.36797 5.04532
148 3 8.5908 9.78509 2.96368
16 4 8.85749 11.009 4.02135
156 3 8.39325 8.0121 6.63628
363 2 3.11917 13.3195 8.69064
341 1 4.12762 12.7971 8.70312
53 4 8.9938 6.79635 5.7541
357 2 2.04606 10.0557 0.577897
345 2 10.6105 6.95054 16.3022
11 4 11.176 6.9516 9.77546
344 1 10.331 7.4205 17.3476
253 2 3.33729 8.35344 12.25
36 4 1.36067 11.8352 17.5691
164 3 8.69795 10.0144 14.7854
163 3 8.38943 8.18942 12.7223
199 1 4.64598 7.13686 10.0956
342 2 4.84131 13.133 9.62551
290 2 4.95229 13.2386 14.5285
283 2 4.70768 7.29357 11.2548
21 4 8.96337 11.0161 15.9738
305 2 2.10737 13.3105 15.414
252 2 3.66401 9.96163 9.19872
282 2 4.30536 8.04543 9.40302
19 4 8.96685 11.1243 9.28291
366 2 7.46193 13.2428 10.961
288 2 6.02125 11.6279 14.3285
255 2 4.61365 8.80862 13.5818
289 2 6.10522 12.7329 15.9243
55 4 6.47521 7.00813 15.5999
63 4 4.14546 11.3082 16.0459
64 4 6.55866 11.1586 11.5332
142 3 5.42282 7.37621 16.8307
162 3 6.72325 8.29897 14.7311
165 3 3.28512 10.402 15.073
166 3 5.1319 10.679 17.3138
167 3 2.99888 12.4387 16.6947
188 1 3.60226 8.30412 13.3539
190 1 2.32761 12.3746 11.2786
201 1 5.46081 12.314 15.0925
202 1 4.84148 10.4554 11.2265
346 2 10.2906 8.62273 17.3196
143 3 9.88654 7.61067 10.4853
259 2 2.89516 12.2863 10.3275
260 2 2.95314 11.9777 12.1873
291 2 4.06347 11.2571 11.0423
292 2 4.39445 9.66285 12.0593
293 2 5.17464 9.94803 10.2139
152 3 7.74891 11.1893 17.0179
169 3 6.95701 10.3509 12.8229
203 1 6.59021 13.1928 11.6669
62 4 7.7154 9.10852 13.796
168 3 7.61126 11.0229 10.2501
355 2 1.03277 13.0217 13.9086
348 2 10.8907 6.97212 14.6828
56 4 8.81592 7.14843 11.6473
261 2 1.98983 13.5399 11.4988
29 4 3.99637 7.15327 17.5268
335 2 1.71057 13.4742 9.70027
295 2 5.59795 13.4664 11.1293
ITEM: TIMESTEP
100
ITEM: NUMBER OF ATOMS
366
ITEM: BOX BOUNDS xy xz yz pp pp pp
-7.5762920697874234e+00 1.5360197440179936e+01 -7.5067150938463740e+00
-2.5448601139492300e-01 1.3674893816520523e+01 2.5342046423892034e-01
-1.4304623784867587e-01 1.7741499491610757e+01 -1.1459219487448345e-01
ITEM: ATOMS id type x y z
69 3 -1.14666 2.91939 2.48602
73 3 -2.30921 6.19492 4.57557
74 3 -0.559142 5.45672 6.63146
71 3 -0.470413 5.26959 1.32634
99 3 4.70525 5.1229 6.84985
10 4 0.048616 4.27622 7.50045
66 3 -0.447461 1.61104 4.81141
27 4 6.35823 1.8641 5.91586
96 3 4.52802 3.2144 8.72845
7 4 0.112425 3.94148 2.09113
72 3 0.559635 2.77374 6.87336
3 4 1.22786 1.71641 0.320136
5 4 0.887977 1.64375 5.83039
24 4 3.51728 1.78813 4.11853
91 3 3.27612 0.713667 8.46288
28 4 1.48105 5.90526 4.10806
65 3 1.37931 0.411294 1.29543
67 3 1.34889 0.265797 6.56611
70 3 1.28286 3.10624 1.09447
89 3 3.48713 0.449023 3.118
90 3 2.19644 2.0089 4.96224
92 3 4.85598 1.76013 5.14881
93 3 6.70585 0.515118 6.74757
94 3 0.783919 4.56414 3.35757
98 3 2.56153 5.44097 5.28438
361 2 -0.18118 0.256512 8.03518
178 1 3.92057 3.15227 2.8807
225 2 2.97647 3.73411 2.94874
226 2 3.8303 2.50125 1.93753
227 2 4.85926 3.90583 2.85602
338 1 3.69598 5.32751 0.260424
31 4 3.87637 6.15381 5.86213
172 1 1.54894 5.00928 8.41473
340 2 3.51733 5.46496 1.37928
9 4 -0.861648 6.60819 0.47962
209 2 2.34872 4.55591 7.61469
208 2 1.55696 6.16724 8.5146
12 4 -1.10539 6.65742 5.57702
314 2 3.47688 2.37344 -0.0106329
356 2 4.77808 4.76887 0.0893528
171 1 -1.42595 3.79528 8.73348
313 2 3.591 0.428022 17.4525
312 1 3.19502 1.48461 17.2554
206 2 -0.856878 3.40494 9.65239
77 3 -1.24628 5.73115 13.2031
320 1 -2.05118 5.77151 17.4209
6 4 -0.854332 2.23265 15.8874
75 3 -0.780953 3.82695 15.2852
299 2 5.68335 3.20209 17.0908
322 2 -1.56023 5.35226 16.5245
217 2 -0.6261 5.11215 10.0559
175 1 -0.1871 5.97286 10.6394
349 2 -2.75277 5.68833 13.9297
230 2 5.93717 -0.0793348 9.49814
229 2 6.42442 1.77533 9.35069
284 2 4.20484 6.0734 9.74233
13 4 0.0756138 4.75458 14.1348
353 2 3.74223 -0.220736 12.9277
213 2 0.163736 3.7387 12.0524
212 2 1.98555 4.13918 12.5407
210 2 1.60034 4.47924 9.4033
328 2 5.1288 1.03455 16.8197
329 2 6.56718 -0.177963 16.8295
68 3 0.18243 1.60337 17.0772
228 2 6.01228 1.01687 11.1691
26 4 4.12891 1.75453 9.35327
211 2 1.0413 2.69489 13.367
100 3 1.10551 5.70517 14.7788
173 1 0.926881 3.67481 12.8453
179 1 5.78358 1.01194 9.97906
180 1 2.99306 2.12304 10.9304
181 1 4.58792 3.05249 14.7741
231 2 2.55842 3.1655 10.7727
232 2 3.42322 1.91515 11.9487
233 2 2.24709 1.34576 10.6379
234 2 4.02882 2.49666 13.8824
235 2 3.81059 3.67065 15.3994
236 2 5.18666 2.3187 15.4249
241 2 3.15286 5.31764 13.0758
303 1 6.19535 0.758301 13.1876
306 2 5.51641 1.58294 13.7494
315 2 2.96099 1.80656 16.1789
327 1 6.19712 0.762115 16.4081
183 1 3.91691 4.94654 12.3319
218 2 0.52553 5.58333 11.4996
330 2 6.1919 0.748138 15.2344
204 2 0.510037 0.87326 14.3827
240 2 4.13082 5.83053 11.538
242 2 3.59739 3.88819 11.7671
339 2 3.05061 4.69236 17.6851
224 2 4.64553 -0.120142 11.2173
207 2 -2.00096 4.78852 8.94605
205 2 -0.920748 1.71826 13.466
95 3 0.296331 6.87539 4.65589
358 2 0.370241 10.095 0.864511
1 4 -5.13444 13.2112 2.21023
4 4 -5.19547 13.2994 7.57755
15 4 -2.55047 9.12934 2.01394
17 4 -3.99158 11.0377 0.158283
18 4 -2.2556 8.81165 7.54952
20 4 -3.62674 11.2172 5.8664
35 4 -1.24511 11.5072 3.77989
78 3 -3.26959 8.30492 3.24418
79 3 -1.40641 7.89015 1.25593
80 3 -3.57634 9.61945 0.827665
81 3 -4.52446 12.1696 1.25707
83 3 -1.6067 7.9478 6.38118
85 3 -4.85337 10.851 4.97628
86 3 -3.0642 10.0245 6.85742
87 3 -4.16257 12.4971 6.72803
105 3 -1.65535 10.4234 2.46491
106 3 -0.713658 12.926 3.03709
107 3 -2.52114 11.6721 4.72287
310 3 -6.14742 12.4148 3.13264
249 2 0.503139 7.63867 8.3418
185 1 1.34257 10.2908 0.297918
111 3 -0.89524 12.154 8.55544
113 3 -0.018996 10.8879 4.52033
110 3 -1.06384 9.41429 8.46614
25 4 0.0570244 13.2163 7.5763
82 3 -3.30109 7.89134 8.46866
245 2 0.176301 8.58949 2.15209
84 3 -6.06218 12.4286 8.59883
34 4 2.74158 8.24852 2.48665
39 4 1.25622 11.1771 5.52493
37 4 2.58558 8.77719 7.34424
114 3 1.66199 9.65691 6.42264
184 1 0.992665 8.98355 2.75307
243 2 1.22705 10.1039 2.56245
244 2 0.842287 8.85246 3.8894
109 3 3.28919 7.53905 6.64548
8 4 -3.67471 6.94284 3.87234
103 3 2.4698 6.80305 3.06041
254 2 3.47154 7.26619 13.4904
121 3 1.66318 10.3628 12.7793
324 2 -4.71614 13.0165 15.4824
223 2 -4.60854 13.1172 11.4281
119 3 -2.57854 11.5547 17.2254
215 2 -0.0971672 8.37491 13.3894
22 4 -3.65204 11.0724 11.2884
38 4 -1.0313 10.7954 9.4138
41 4 -1.57824 11.3366 15.9536
88 3 -5.02648 10.9753 10.4131
112 3 -2.28265 10.9498 10.4222
118 3 -1.73006 12.2113 14.6092
174 1 -0.837178 8.44135 12.4831
176 1 -3.59952 10.044 12.865
177 1 -3.54607 13.0398 11.9732
189 1 -1.64182 9.53325 15.4026
221 2 -2.90865 9.95714 13.7815
256 2 -0.956103 9.11708 16.2665
257 2 -1.30278 9.11737 14.3575
258 2 -2.7535 9.26125 15.5879
311 3 -4.99624 10.5634 17.0665
323 1 -5.73949 12.5971 15.3268
214 2 -0.433857 8.76353 11.4162
222 2 -3.48478 9.0043 12.1446
219 2 0.351797 6.71711 9.96155
302 4 -1.59517 12.8716 13.1182
216 2 -1.85937 9.08915 12.7315
220 2 -4.69829 10.1625 13.089
122 3 -0.347017 12.2867 12.2984
117 3 -0.0110431 11.6901 16.6538
102 3 0.362682 7.01879 17.0785
76 3 -2.77025 6.74726 10.8796
116 3 1.23106 8.40365 14.749
101 3 2.82769 7.07562 16.2658
325 2 -6.51669 13.2274 15.7891
246 2 1.73698 9.45582 17.2986
248 2 1.91524 7.5406 9.42026
247 2 0.945546 9.12108 9.39817
120 3 0.55325 10.596 10.3365
33 4 1.3412 7.06145 15.7275
186 1 1.30147 8.21148 8.806
42 4 0.949667 11.3152 11.7393
326 2 -5.86452 12.406 14.236
40 4 2.34779 9.43072 13.9845
351 2 -2.58289 6.77492 17.2147
14 4 -1.4297 6.70644 11.8507
279 2 8.84537 2.64524 7.84461
97 3 6.45934 3.07201 6.91481
197 1 6.14722 5.44879 2.4943
278 2 6.26768 4.46495 3.107
137 3 7.74094 6.37479 4.79491
277 2 5.2446 5.43141 1.66855
131 3 5.00518 6.49442 4.65427
276 2 7.17097 5.4444 1.81705
301 2 6.38417 4.34526 0.796061
354 2 9.68715 1.33806 -0.0804034
125 3 7.48436 2.15248 4.75573
30 4 5.45468 4.11313 7.75098
198 1 8.93557 3.54504 8.53627
352 2 13.029 3.04265 8.36176
2 4 13.6016 1.91772 3.77003
44 4 8.89691 2.11532 4.09693
46 4 11.4529 2.43931 5.78393
48 4 9.77172 4.78277 2.15045
51 4 10.3357 4.6671 7.80415
123 3 13.025 0.411474 3.01829
124 3 8.85953 0.799234 3.07237
126 3 12.426 2.76615 4.52132
127 3 10.0232 2.02353 5.30018
128 3 12.1706 1.06667 6.64169
129 3 9.20026 3.52637 3.18216
130 3 10.7427 5.89898 2.75865
132 3 8.66026 5.36528 1.03874
133 3 11.2553 3.65153 6.81748
138 3 9.49205 5.70451 6.95442
196 1 11.046 3.73412 1.14996
274 2 10.6683 2.6195 1.22439
191 1 11.0345 0.461563 1.11822
273 2 10.9652 4.14542 0.0853348
337 2 9.55229 0.789135 8.24457
360 2 10.1252 0.578255 1.90549
359 2 11.4846 1.47807 0.904439
275 2 11.9732 3.96228 1.69938
23 4 7.6568 0.0487554 2.13263
192 1 14.0671 0.594437 8.68867
280 2 7.94216 4.17079 8.57882
135 3 6.30271 5.08001 8.66053
297 3 6.85796 1.25368 1.22676
49 4 6.40408 6.73102 3.88069
45 4 12.8246 -0.127298 7.45712
263 2 13.9445 1.80592 8.76129
321 2 12.2457 5.07667 0.16561
362 2 14.0771 0.116244 9.78466
134 3 11.1401 5.25658 9.19373
300 2 7.43739 4.24695 16.9028
298 1 6.7792 3.68106 17.632
140 3 5.91884 5.60959 14.6192
182 1 6.76604 3.95534 12.4726
239 2 6.30518 3.16174 11.8798
307 2 7.22272 1.14137 12.7025
304 1 8.78664 -0.116394 14.6335
32 4 5.24107 4.49872 13.7325
237 2 7.17661 4.75118 11.7804
350 2 13.9102 0.153163 14.5562
238 2 7.56239 3.63771 13.2887
308 2 7.83349 0.280647 15.2752
309 2 9.29847 0.776432 14.095
141 3 7.85505 6.53272 16.3881
144 3 7.37005 6.4625 10.9809
318 2 11.5669 2.26351 15.7696
336 2 7.88038 1.25397 9.07212
333 2 9.54641 2.90229 16.8852
294 2 14.3101 -0.0340591 12.6674
332 2 9.08913 1.19213 16.125
316 1 12.463 1.83756 16.3064
317 2 12.5046 0.654063 16.3898
331 1 9.14254 1.82702 17.0952
281 2 9.30032 3.22149 9.54125
264 2 11.3444 1.50103 9.51731
285 2 8.1149 4.66474 14.904
267 2 8.89747 0.908842 12.5762
319 2 12.5805 2.26453 17.3572
47 4 11.0333 2.16797 12.0672
54 4 10.1202 4.88455 13.4951
139 3 10.8912 3.57436 12.7761
145 3 9.22363 5.80402 12.6205
193 1 11.7682 2.27464 10.3332
194 1 8.97847 1.72807 11.7875
195 1 11.6803 0.806796 13.2387
200 1 9.06574 4.03389 14.8813
265 2 12.8905 1.96904 10.8735
266 2 11.681 3.37999 9.97778
268 2 8.91267 1.24537 10.6731
269 2 8.15694 2.56355 11.9429
286 2 9.62157 3.93483 15.926
287 2 8.82975 2.99174 14.4532
272 2 12.5511 0.243427 12.6678
271 2 11.9142 1.11766 14.3991
270 2 10.705 0.193013 13.1242
365 2 11.4901 5.37825 15.4701
347 1 11.4379 5.8752 14.5447
334 1 8.66725 0.395174 8.8324
170 1 14.5611 1.07749 14.3621
296 4 7.33251 1.87738 17.694
261 2 9.56344 -0.178507 11.4883
295 2 13.2187 -0.180509 11.1143
262 2 3.19888 13.5729 0.180311
43 4 4.84086 13.1762 2.0433
58 4 3.86034 10.9627 3.88929
61 4 6.33605 11.1528 5.79221
104 3 3.07761 8.08312 0.955155
251 2 5.12174 9.27248 8.52705
157 3 8.72862 9.92855 8.3377
115 3 1.0542 12.3383 6.65486
146 3 6.65936 8.03343 3.06914
149 3 3.47638 9.45796 3.25253
150 3 4.02694 11.9803 2.60864
151 3 2.49618 11.5556 4.68126
153 3 6.61521 10.0849 1.29806
154 3 5.79043 12.6098 0.842712
159 3 5.10985 10.8668 4.84483
160 3 6.51318 9.94816 6.87264
161 3 5.97897 12.5048 6.69096
57 4 7.43299 9.00618 2.11344
155 3 6.99958 7.85844 8.66609
158 3 7.63615 11.1954 4.90419
59 4 6.15991 11.1732 0.156073
187 1 4.06647 9.65972 8.17181
108 3 0.779447 12.9637 0.922228
250 2 4.08616 10.4322 7.24979
343 2 3.94276 11.6538 8.41764
364 2 10.7591 7.11683 0.179846
60 4 7.69397 8.99114 7.54314
50 4 8.41909 6.91853 -0.110804
147 3 7.93858 7.99548 0.917598
136 3 10.2924 7.24442 5.01594
148 3 8.65801 9.74362 2.96208
16 4 8.95202 11.0937 3.98929
156 3 8.47805 8.06042 6.50422
363 2 2.93762 13.3509 8.63534
341 1 3.93818 12.8775 8.60923
53 4 8.97582 6.82049 5.75791
357 2 2.246 10.3022 0.987905
345 2 10.6785 6.86121 16.1685
11 4 11.2665 6.80942 9.73538
344 1 10.3673 7.43002 17.2047
253 2 3.21309 8.31528 12.0306
36 4 1.29932 11.8936 17.577
164 3 8.77606 9.75786 14.9266
163 3 8.69443 8.34219 12.6159
199 1 4.69103 7.01275 9.97989
342 2 4.532 13.1048 9.51903
290 2 4.88774 12.9987 14.3453
283 2 4.78679 7.22827 11.1448
21 4 8.94283 10.9112 16.1351
305 2 2.09034 13.1822 15.3917
252 2 3.37872 10.0139 9.09526
282 2 4.3635 8.00133 9.28223
19 4 8.9125 11.0899 9.4081
366 2 7.5365 13.2175 11.0498
288 2 5.90035 11.2787 14.4087
255 2 4.62881 8.7538 13.2572
289 2 6.02682 12.5591 15.7457
55 4 6.5211 7.07105 15.658
63 4 4.10917 11.2154 16.067
64 4 6.55268 11.1977 11.5467
142 3 5.42026 7.28538 16.8428
162 3 6.70143 8.24744 14.5122
165 3 3.27397 10.3159 15.0162
166 3 4.98126 10.5588 17.2769
167 3 3.02657 12.3951 16.781
188 1 3.58922 8.28859 13.1014
190 1 2.37536 12.4907 11.2844
201 1 5.36187 12.1066 14.974
202 1 4.85919 10.5102 11.1446
346 2 10.3551 8.52323 17.1586
143 3 9.90367 7.21593 10.422
259 2 2.93614 12.3863 10.2798
260 2 3.07888 12.1792 12.1379
291 2 4.09137 11.3821 10.9931
292 2 4.37325 9.68174 11.8591
293 2 5.19419 10.04 10.1197
152 3 7.57245 11.1795 16.9938
169 3 7.00784 10.5279 12.9679
203 1 6.59701 13.1862 11.6712
62 4 7.7747 9.11838 13.7704
168 3 7.44057 11.0595 10.2451
355 2 0.881721 12.9768 13.8377
348 2 11.2556 6.9931 14.4886
56 4 8.75702 7.01836 11.6135
52 4 6.52308 6.729 9.64699
29 4 3.92561 6.94758 17.3702
335 2 1.53469 13.5919 9.73475
ITEM: TIMESTEP
200
ITEM: NUMBER OF ATOMS
366
ITEM: BOX BOUNDS xy xz yz pp pp pp
-7.5762920697874234e+00 1.5360197440179936e+01 -7.5067150938463740e+00
-2.5448601139492300e-01 1.3674893816520523e+01 2.5342046423892034e-01
-1.4304623784867587e-01 1.7732552745372910e+01 -1.1459219487448345e-01
ITEM: ATOMS id type x y z
69 3 -0.948009 2.85118 2.56468
73 3 -2.29369 6.2827 4.48079
74 3 -0.511685 5.53438 6.58692
71 3 -0.517518 5.29356 1.27794
99 3 4.50248 5.02761 6.8633
10 4 0.156659 4.3622 7.43722
66 3 -0.361093 1.41861 4.77573
27 4 6.25789 1.99969 5.93507
96 3 4.45004 3.18027 8.71216
7 4 0.161696 3.96613 2.10122
72 3 0.583145 2.871 6.58157
3 4 1.18585 1.7814 0.363375
5 4 0.97422 1.60664 5.66698
24 4 3.61038 1.69497 4.03905
91 3 3.19655 0.613548 8.53387
28 4 1.53701 5.90759 4.03838
65 3 1.34841 0.611425 1.41496
67 3 1.37016 0.311946 6.63873
70 3 1.18902 3.27991 1.03397
89 3 3.34949 0.396991 3.2168
90 3 2.29328 2.0122 4.88809
92 3 4.92324 1.92783 5.00548
93 3 6.59321 0.596837 6.74954
94 3 0.984261 4.4905 3.407
98 3 2.70963 5.53459 5.03409
171 1 -1.21963 3.76399 8.7525
178 1 3.66644 3.13656 2.7239
225 2 2.71688 3.72919 3.06598
226 2 3.55653 2.61259 1.78112
227 2 4.53157 3.8867 2.61162
338 1 3.72164 5.42786 0.459281
31 4 3.93324 6.08623 5.91567
172 1 1.67242 4.89872 8.3886
340 2 3.49842 5.60374 1.54738
9 4 -0.915155 6.62613 0.390485
209 2 2.61568 4.5174 7.8744
208 2 1.73654 6.13452 8.54189
361 2 -0.125858 0.267576 8.0201
313 2 3.67464 0.945638 -0.0230516
356 2 4.7397 4.81634 0.298179
12 4 -1.06088 6.72337 5.48969
339 2 2.83634 4.95888 -0.112843
314 2 3.3098 2.63409 17.2958
312 1 3.12217 1.51243 17.3262
206 2 -0.666754 3.3657 9.62586
77 3 -1.15193 5.76315 13.0428
320 1 -2.0598 5.70133 17.3626
6 4 -0.87077 2.06286 15.8574
75 3 -0.633098 3.51377 15.2168
299 2 5.60073 3.21691 17.2562
322 2 -1.5751 5.32804 16.4268
217 2 -0.292112 5.14606 9.89828
175 1 0.146555 5.97835 10.6913
349 2 -2.69464 5.85284 13.9155
230 2 5.81891 0.161015 9.61418
229 2 6.46026 1.7934 9.69432
207 2 -1.6482 4.79173 8.87305
13 4 0.0875833 4.74756 14.1391
205 2 -0.739526 1.49918 13.6574
213 2 0.360387 3.61128 12.0571
212 2 2.16988 4.07522 12.7539
210 2 1.49486 4.35665 9.37394
328 2 5.08962 1.02813 16.917
329 2 6.55654 -0.0916135 16.9588
68 3 0.182141 1.70881 17.0125
228 2 5.95495 1.03315 11.3024
26 4 3.95169 1.82603 9.44037
211 2 1.09093 2.70753 13.6979
100 3 1.13939 5.68996 14.7167
173 1 1.10416 3.66866 12.9724
179 1 5.72881 1.11686 10.1377
180 1 3.0159 2.15175 11.0493
181 1 4.35614 3.01908 14.6954
231 2 2.5585 3.14168 10.6888
232 2 3.91978 2.24438 11.7375
233 2 2.26198 1.31677 11.3002
234 2 3.82252 2.44 13.9378
235 2 3.57864 3.6951 15.2887
236 2 4.99565 2.33166 15.4566
241 2 3.15048 5.50829 13.0405
303 1 6.15631 0.649028 13.2656
306 2 5.5003 1.53152 13.8322
315 2 2.71447 1.00595 16.3798
327 1 6.13501 0.894778 16.5126
183 1 3.90114 5.03184 12.292
218 2 0.747616 5.46221 11.4413
330 2 6.09264 0.840141 15.3092
204 2 0.684584 0.619773 14.5492
240 2 4.23604 5.86592 11.5194
242 2 3.51522 4.00457 11.7817
284 2 4.07771 6.31546 9.70001
224 2 4.65664 -0.159822 11.226
170 1 -0.429896 0.835592 14.5097
95 3 0.185291 6.87484 4.52431
358 2 0.671922 9.85204 0.524799
1 4 -5.19504 13.3361 2.31138
4 4 -5.08104 13.3336 7.65289
15 4 -2.46139 9.29132 2.13712
17 4 -4.04497 11.1232 0.344889
18 4 -2.29434 8.8822 7.4833
20 4 -3.62523 11.2205 5.77387
35 4 -1.21388 11.6092 3.80395
78 3 -3.26649 8.49035 3.3567
79 3 -1.38755 7.97298 1.35385
80 3 -3.47082 9.82852 0.971438
81 3 -4.38671 12.3711 1.32486
83 3 -1.49544 8.01917 6.37171
85 3 -4.80021 10.6921 4.81941
86 3 -3.1192 9.98185 6.68914
87 3 -4.10736 12.3937 6.788
105 3 -1.53588 10.5194 2.69283
106 3 -0.847801 13.0918 3.10961
107 3 -2.38702 11.7742 4.92043
310 3 -5.9498 12.3674 3.31029
249 2 0.749331 7.63891 8.15269
185 1 1.68598 10.3573 0.275166
111 3 -0.843513 12.3105 8.59212
113 3 0.0309802 11.0212 4.6297
110 3 -1.23895 9.49968 8.43735
25 4 -0.0420364 13.2079 7.60623
82 3 -3.25522 7.76667 8.57709
245 2 0.0633898 8.58423 2.168
84 3 -6.0288 12.5067 8.70592
34 4 2.5797 8.26254 2.41001
39 4 1.34068 11.1802 5.7177
37 4 2.49371 8.62973 7.19875
114 3 1.83934 9.77938 6.37981
184 1 0.920873 9.11335 2.7863
243 2 1.0697 10.2 2.55906
244 2 0.856027 8.95922 3.96245
109 3 3.2889 7.35337 6.72296
8 4 -3.62779 6.94171 3.87575
103 3 2.37981 6.79014 2.90603
254 2 3.25801 7.18363 13.4646
121 3 1.66756 10.1254 12.7111
324 2 -5.15233 12.9031 16.0713
223 2 -4.62238 12.9998 11.4498
119 3 -2.74608 11.4599 17.0018
215 2 -0.407068 8.23872 13.3267
22 4 -3.61067 10.9789 11.3141
38 4 -0.946696 10.8127 9.28597
41 4 -1.52926 11.2165 15.9146
88 3 -4.93369 10.882 10.4194
112 3 -2.19639 10.7059 10.4695
118 3 -1.86307 12.0703 14.5523
174 1 -0.99032 8.4955 12.3629
176 1 -3.74446 10.0918 12.98
177 1 -3.58652 12.9086 11.9767
189 1 -1.64949 9.41318 15.3502
221 2 -2.98604 9.96078 13.8915
256 2 -0.980134 8.88701 16.1053
257 2 -1.42649 9.08424 14.3046
258 2 -2.77901 9.24262 15.5843
311 3 -5.07936 10.5013 17.313
323 1 -5.84035 12.3818 15.3061
214 2 -0.330089 8.78454 11.4578
222 2 -3.79096 9.02279 12.4503
219 2 0.753495 6.77673 10.1224
302 4 -1.60686 12.7479 13.1633
216 2 -1.97888 9.08487 12.615
220 2 -4.7718 10.4012 13.3835
122 3 -0.441688 11.9937 12.273
117 3 0.0889768 11.5425 16.6267
102 3 0.323841 6.89428 17.0369
76 3 -2.77895 6.73083 11.0032
116 3 1.05095 8.25425 14.8565
101 3 2.93294 6.84501 16.2604
325 2 -6.72659 13.0629 15.0116
14 4 -1.26936 6.76001 11.6998
248 2 2.40556 7.43725 9.50748
247 2 1.34528 9.13238 9.41585
120 3 0.782286 10.5671 10.107
33 4 1.39091 6.96452 15.7181
186 1 1.68652 8.13502 8.84623
42 4 0.975914 11.1847 11.5837
326 2 -5.3014 12.0386 14.3434
40 4 2.28954 9.22165 13.886
353 2 -3.81806 13.3386 13.07
351 2 -2.65246 6.73399 17.2079
279 2 8.83328 2.71673 7.64242
97 3 6.43902 3.22716 6.93663
197 1 6.19002 5.28514 2.62208
278 2 6.03662 4.32105 3.28706
137 3 7.78668 6.29119 4.62319
277 2 5.2967 5.39594 1.88219
131 3 5.14221 6.69095 4.96451
276 2 7.16777 5.3685 1.97605
301 2 6.37436 4.35469 0.743935
354 2 9.67875 1.28686 -0.0983201
125 3 7.39728 2.22537 4.73941
30 4 5.43266 4.14661 7.81802
198 1 8.94128 3.58425 8.40981
296 4 7.09218 2.02688 -0.119771
2 4 13.7232 1.87074 3.73806
44 4 8.76435 2.17398 4.03202
46 4 11.3675 2.36578 5.67128
48 4 9.7183 4.71088 2.10048
51 4 10.2375 4.7212 7.59543
123 3 13.0795 0.526447 3.00957
124 3 8.99447 0.722666 2.93411
126 3 12.3894 2.59202 4.34197
127 3 9.95669 1.92831 5.09562
128 3 11.9698 1.34092 6.68226
129 3 9.10754 3.61836 3.14956
130 3 10.8041 5.96858 2.78237
132 3 8.68426 5.35618 1.05226
133 3 11.1516 3.69744 6.62433
138 3 9.2646 5.79907 6.93329
196 1 10.978 3.6898 1.08284
274 2 10.9211 2.54321 1.07104
191 1 11.2401 0.449824 0.972529
273 2 10.8695 4.10312 0.044558
337 2 9.40034 0.734059 8.0061
360 2 10.4046 0.624234 1.76595
359 2 11.8638 1.41437 0.641891
275 2 11.9038 4.07736 1.67054
23 4 7.71194 0.0424728 2.28628
192 1 14.1292 0.596288 8.64571
280 2 7.94035 4.19237 8.65679
352 2 13.1743 3.01668 8.34922
297 3 6.94396 1.48543 1.35194
49 4 6.407 6.68801 3.93827
45 4 12.8005 -0.0707376 7.42918
321 2 12.201 4.98706 0.109466
263 2 14.0005 1.78888 8.75081
362 2 14.1737 0.124543 9.73159
134 3 11.1123 5.29497 8.94183
300 2 7.15735 4.38941 16.8319
298 1 6.68828 3.70859 17.5844
140 3 5.72149 5.71168 14.6293
182 1 6.70737 4.06142 12.6346
239 2 6.53291 3.14038 12.0075
307 2 7.07328 0.975282 12.7075
135 3 6.48219 5.21507 8.93469
32 4 5.12297 4.55851 13.73
237 2 6.97656 4.99327 12.0088
350 2 13.9659 -0.0879221 14.7146