ITEM: TIMESTEP
0
ITEM: NUMBER OF ATOMS
366
ITEM: BOX BOUNDS xy xz yz pp pp pp
-7.5762920697874234e+00 1.5360197440179936e+01 -7.5067150938463740e+00
-2.5448601139492300e-01 1.3674893816520523e+01 2.5342046423892034e-01
-1.4304623784867587e-01 1.7750446237848607e+01 -1.1459219487448345e-01
ITEM: ATOMS id type x y z
69 3 -1.11156 3.00356 2.56281
73 3 -2.46865 6.20491 4.73084
74 3 -0.817761 5.20184 6.57491
71 3 -0.29836 5.28039 1.09591
99 3 4.6647 5.09334 6.80366
10 4 -0.046861 4.22596 7.53806
66 3 -0.335057 1.5192 4.57477
339 2 3.02318 4.95192 0.193939
96 3 4.36599 3.15311 8.60678
7 4 0.138238 3.98869 2.10285
72 3 0.526474 2.7304 6.83474
3 4 1.28702 1.7652 0.28805
5 4 1.00304 1.67667 5.71717
24 4 3.59266 1.6079 4.10423
91 3 3.18533 0.745071 8.42394
28 4 1.47134 5.84684 4.24993
65 3 1.38918 0.29677 0.957523
67 3 1.34765 0.315035 6.48117
70 3 1.28632 2.97374 1.37407
89 3 3.28161 0.346185 3.06663
90 3 2.32009 1.97588 4.88877
92 3 4.98799 1.61074 5.02517
93 3 6.84237 0.490635 6.64524
94 3 0.859448 4.5637 3.3952
98 3 2.51131 5.28274 5.36676
361 2 -0.0735069 0.476784 8.24931
178 1 3.60121 3.14223 2.96072
225 2 2.59894 3.65411 3.10638
226 2 3.87889 2.83992 1.89609
227 2 4.46037 3.71087 3.49123
338 1 3.98652 5.53309 0.469083
31 4 3.92282 6.13082 5.8506
172 1 1.4147 5.06483 8.38481
340 2 3.94654 5.77157 1.59609
9 4 -0.875148 6.63499 0.192239
209 2 2.2006 4.68294 7.64028
208 2 1.38311 6.25098 8.47433
12 4 -1.2243 6.51484 5.63176
27 4 6.3774 1.8539 5.86202
313 2 3.54478 0.587871 17.1432
312 1 3.14088 1.61404 17.0875
206 2 -0.898039 3.49419 9.82834
77 3 -1.31279 5.77728 13.2382
320 1 -2.07249 5.81288 17.1176
6 4 -0.841035 2.22587 15.8359
75 3 -0.619615 3.6791 15.2227
205 2 -0.786634 1.87186 13.5604
322 2 -1.7196 5.36428 16.1469
217 2 -0.566956 5.20151 10.1208
175 1 0.0585148 6.0559 10.7631
349 2 -2.8307 5.89303 14.1756
230 2 5.73948 0.0276721 9.57304
229 2 6.22863 1.80591 9.43548
284 2 4.14111 6.19719 9.81564
13 4 0.0170961 4.85848 14.2139
170 1 -0.41135 1.08348 14.3385
213 2 0.413874 3.83022 11.9947
212 2 2.13063 4.32198 12.7728
210 2 1.45685 4.51769 9.38461
328 2 5.10829 1.23959 16.6765
329 2 6.5763 -0.0381726 16.7612
68 3 0.388198 1.83358 17.0152
228 2 5.78828 1.0378 11.1589
26 4 3.92936 1.79255 9.36854
211 2 0.93315 2.82957 13.5642
100 3 1.12134 5.77686 14.7275
173 1 1.00216 3.89559 12.947
179 1 5.57767 1.01017 9.98694
180 1 2.8341 2.25209 10.9549
181 1 4.48209 3.20734 14.7962
231 2 2.67813 3.36969 10.4407
232 2 3.41436 2.30878 11.901
233 2 1.85038 1.63544 11.0092
234 2 3.77885 2.73861 14.0362
235 2 3.97754 3.83638 15.5641
236 2 5.13732 2.36244 15.3722
241 2 3.29354 5.40191 13.1208
303 1 6.12867 1.02217 13.134
306 2 5.50198 1.80135 13.6843
315 2 2.94675 1.8535 15.9971
327 1 6.21945 0.973225 16.3464
183 1 3.98008 4.91185 12.3783
218 2 0.825464 5.58679 11.4502
330 2 6.30514 1.09906 15.1665
204 2 0.729679 1.05437 14.3805
240 2 4.24618 5.75401 11.5274
242 2 3.5713 3.91824 11.8281
171 1 -1.47451 3.90013 8.99142
207 2 -1.88807 4.91091 9.26957
314 2 3.67546 2.44812 17.6696
224 2 4.60765 -0.15025 11.2304
95 3 0.114718 6.88224 4.85607
358 2 0.0794126 9.88954 0.693445
1 4 -5.19178 13.1415 2.18577
4 4 -5.1468 13.4096 7.51852
15 4 -2.48103 9.07553 1.98574
17 4 -3.97059 10.9458 0.187012
18 4 -2.42985 8.80829 7.6248
20 4 -3.71481 11.2047 5.78938
35 4 -1.30193 11.3904 3.79386
78 3 -3.19301 8.20222 3.01232
79 3 -1.19841 7.8654 1.17582
80 3 -3.48993 9.60418 0.852183
81 3 -4.31708 12.0885 1.34992
83 3 -1.63504 7.75629 6.73533
85 3 -4.94081 10.6935 4.98559
86 3 -3.17366 9.91864 6.69638
87 3 -4.08674 12.5298 6.71953
105 3 -1.66208 10.2252 2.63218
106 3 -0.873648 12.8977 2.92318
107 3 -2.52536 11.6324 4.75785
310 3 -6.17036 12.4318 3.19439
249 2 0.644858 7.75898 8.24155
185 1 0.988156 10.1624 0.0199091
111 3 -0.864614 12.1348 8.52024
113 3 -0.0747688 10.8173 4.58525
110 3 -1.31926 9.52224 8.47487
25 4 0.0369894 13.1502 7.54647
82 3 -3.38757 7.85863 8.60312
245 2 0.160135 8.54036 2.18436
84 3 -6.05318 12.5437 8.59063
34 4 2.69911 8.18209 2.52029
39 4 1.29608 11.1306 5.45672
37 4 2.48012 8.65028 7.25869
114 3 1.76472 9.74566 6.46063
184 1 0.996289 8.94506 2.80159
243 2 1.14133 10.0765 2.56964
244 2 0.744893 8.7075 3.91327
109 3 3.21218 7.41306 6.62566
8 4 -3.71859 6.90033 3.87284
103 3 2.31181 6.8128 3.17444
351 2 -2.66591 6.83903 16.8836
121 3 1.49277 10.3792 12.9133
324 2 -4.68072 12.8802 14.9368
223 2 -4.63458 13.0239 11.435
119 3 -2.47552 11.5157 17.0287
215 2 -0.159935 8.43677 13.4074
22 4 -3.66501 10.9955 11.3362
38 4 -1.07467 10.8338 9.39986
41 4 -1.38119 11.3365 15.8828
88 3 -4.98708 10.9198 10.4241
112 3 -2.30936 10.966 10.4529
118 3 -1.74396 12.3633 14.5065
174 1 -0.835243 8.52357 12.4564
176 1 -3.65932 10.0836 12.9629
177 1 -3.5269 12.9766 12.0364
189 1 -1.51898 9.53822 15.4065
221 2 -2.80931 9.90987 13.8661
256 2 -0.778183 9.08684 16.2409
257 2 -1.22244 9.19616 14.2532
258 2 -2.68653 9.38852 15.6993
311 3 -4.87674 10.5751 17.0168
323 1 -5.75542 12.6748 15.1486
214 2 -0.232207 8.79777 11.5134
222 2 -3.75071 9.04212 12.4304
219 2 0.485183 6.89901 10.0865
302 4 -1.54761 13.1245 13.0921
216 2 -1.78767 9.16604 12.637
220 2 -4.64094 10.4229 13.342
122 3 -0.332781 12.3984 12.2764
117 3 0.165796 11.7675 16.4322
102 3 0.36836 7.00412 16.9627
76 3 -2.66904 6.7858 10.9965
116 3 0.971855 8.45931 14.8977
101 3 2.87014 6.99566 16.3895
325 2 -6.1655 13.3741 15.8765
246 2 1.22827 9.46039 16.9649
248 2 2.17582 7.54566 9.42166
247 2 1.06782 9.14177 9.50119
120 3 0.375377 10.5834 10.3627
33 4 1.4163 7.06666 15.669
186 1 1.50288 8.22958 8.89111
42 4 0.764758 11.3522 11.752
326 2 -6.43925 12.676 14.2444
40 4 2.39598 9.51492 14.1692
14 4 -1.30421 6.75316 11.8663
254 2 3.59339 7.33004 13.8209
353 2 -3.7931 13.5708 12.9832
279 2 9.06815 2.5807 7.90396
97 3 6.34607 3.06853 6.89811
197 1 6.41683 5.28612 2.52518
278 2 6.37848 4.25853 3.08992
137 3 7.71773 6.20532 4.85073
277 2 5.51869 5.33328 1.7386
131 3 5.04734 6.49562 4.72716
276 2 7.47284 5.32607 1.80201
301 2 6.53508 4.3193 0.709185
354 2 9.71596 1.43471 -0.030949
125 3 7.40389 2.33924 4.73041
30 4 5.53268 4.15943 7.70866
198 1 9.11141 3.44208 8.68913
352 2 12.8873 3.22014 8.57299
2 4 13.5285 1.91393 3.76673
44 4 8.84628 2.15938 4.07082
46 4 11.3969 2.29587 5.89209
48 4 9.92468 4.67696 2.18085
51 4 10.3134 4.66116 7.81622
123 3 12.8973 0.547671 3.04591
124 3 8.7444 0.767274 3.10237
126 3 12.451 2.68376 4.75299
127 3 10.0062 1.93785 5.26812
128 3 12.0475 0.986607 6.82498
129 3 9.22875 3.4908 3.03536
130 3 10.7761 5.77147 2.9294
132 3 8.96064 5.43305 1.00307
133 3 11.244 3.6532 7.04459
138 3 9.58489 5.61143 6.74151
196 1 11.113 3.80453 0.957248
274 2 10.8606 2.68124 1.09484
191 1 11.0861 0.367593 1.09684
273 2 10.8968 4.20882 -0.0779035
337 2 9.51377 0.627987 7.91701
360 2 10.2835 0.372407 1.85711
359 2 11.4723 1.46717 0.852024
275 2 12.1476 4.13653 1.46098
23 4 7.64613 0.0712034 2.22004
192 1 14.1226 0.732446 8.76278
280 2 8.05651 3.89521 8.7434
135 3 6.42421 5.09007 8.71288
297 3 6.85689 1.348 1.30337
49 4 6.41197 6.59303 3.88474
334 1 8.72723 0.305857 8.7482
356 2 5.00355 4.9562 0.18663
45 4 12.9474 -0.0991822 7.52299
362 2 14.0131 0.232988 9.84534
134 3 10.8752 5.51875 9.15864
300 2 7.60595 4.30472 16.9375
298 1 6.89988 3.72046 17.5752
140 3 5.87026 5.74248 14.617
182 1 6.86654 4.09407 12.3964
239 2 6.65972 3.1739 11.7798
307 2 7.22997 1.25811 12.5819
304 1 8.79718 0.00739955 14.6421
32 4 5.33885 4.55405 13.6466
237 2 7.10403 5.05947 11.7696
350 2 14.2257 0.0404593 14.4276
238 2 7.64225 3.84518 13.2509
308 2 7.84478 0.331589 15.2624
309 2 9.17489 0.824126 14.057
141 3 7.85211 6.57358 16.3783
144 3 7.3032 6.60358 10.8625
318 2 11.6529 2.48577 15.9215
336 2 8.01857 1.1989 9.01152
333 2 9.45185 2.98085 17.0112
294 2 14.328 -0.0249691 12.706
332 2 9.19429 1.22215 16.2284
316 1 12.503 1.86361 16.2444
317 2 12.2386 0.822452 16.0166
331 1 9.21573 1.85434 17.1707
281 2 9.47439 3.10906 9.68604
264 2 11.533 1.11355 9.7805
285 2 8.05221 4.53521 14.7604
267 2 8.82528 0.856895 12.4974
319 2 12.7595 2.06497 17.4148
47 4 10.9213 2.19791 12.0177
54 4 10.1502 4.81081 13.5849
139 3 10.9604 3.62859 12.7488
145 3 9.45302 5.81565 12.4534
193 1 11.7898 2.03054 10.3174
194 1 8.98282 1.64288 11.717
195 1 11.7368 0.896527 13.2605
200 1 8.94569 3.86011 14.7841
265 2 12.8354 1.94551 10.7674
266 2 11.6428 3.00967 9.78008
268 2 8.8435 1.1791 10.5814
269 2 8.31871 2.55897 11.8973
286 2 9.39432 3.88457 15.8084
287 2 8.67431 2.7775 14.4408
272 2 12.5956 0.238736 12.7076
271 2 11.9973 1.25327 14.3797
270 2 10.6835 0.293994 13.2876
365 2 11.2062 5.36974 15.6919
347 1 11.3328 5.94977 14.6064
299 2 5.88871 3.47028 17.0133
52 4 6.43601 6.65263 9.54011
263 2 13.9917 1.85848 8.83836
296 4 7.3091 1.8798 17.7415
321 2 12.4512 5.02685 17.6917
262 2 3.3386 13.5097 0.143722
43 4 4.92364 13.1874 2.07365
58 4 3.87999 10.7925 3.85634
61 4 6.30064 10.9935 5.81709
104 3 3.23952 8.0182 0.928759
251 2 4.93891 8.98011 8.15337
157 3 8.94149 9.9587 8.28873
115 3 0.993819 12.2154 6.62017
146 3 6.49036 8.0605 3.2208
149 3 3.47178 9.30814 3.28969
150 3 4.23235 11.9077 2.69476
151 3 2.51895 11.4601 4.63071
153 3 6.52868 10.2383 1.48648
154 3 5.9664 12.747 0.771023
159 3 5.09036 10.7411 4.85097
160 3 6.60463 9.74623 6.79338
161 3 5.90435 12.4251 6.70394
57 4 7.36916 9.04312 2.16402
155 3 6.7888 7.93612 8.64076
158 3 7.61724 11.2957 5.0163
59 4 6.22635 11.2635 0.193025
187 1 3.96636 9.5784 8.17032
108 3 0.856428 12.9037 1.07015
250 2 3.93589 10.3544 7.28312
343 2 4.10407 11.565 8.52313
364 2 10.7691 7.09794 0.279281
60 4 7.69906 8.89444 7.66126
50 4 8.40208 6.95941 0.00602959
147 3 7.85718 8.0995 0.947947
136 3 10.2547 7.36797 5.04532
148 3 8.5908 9.78509 2.96368
16 4 8.85749 11.009 4.02135
156 3 8.39325 8.0121 6.63628
363 2 3.11917 13.3195 8.69064
341 1 4.12762 12.7971 8.70312
53 4 8.9938 6.79635 5.7541
357 2 2.04606 10.0557 0.577897
345 2 10.6105 6.95054 16.3022
11 4 11.176 6.9516 9.77546
344 1 10.331 7.4205 17.3476
253 2 3.33729 8.35344 12.25
36 4 1.36067 11.8352 17.5691
164 3 8.69795 10.0144 14.7854
163 3 8.38943 8.18942 12.7223
199 1 4.64598 7.13686 10.0956
342 2 4.84131 13.133 9.62551
290 2 4.95229 13.2386 14.5285
283 2 4.70768 7.29357 11.2548
21 4 8.96337 11.0161 15.9738
305 2 2.10737 13.3105 15.414
252 2 3.66401 9.96163 9.19872
282 2 4.30536 8.04543 9.40302
19 4 8.96685 11.1243 9.28291
366 2 7.46193 13.2428 10.961
288 2 6.02125 11.6279 14.3285
255 2 4.61365 8.80862 13.5818
289 2 6.10522 12.7329 15.9243
55 4 6.47521 7.00813 15.5999
63 4 4.14546 11.3082 16.0459
64 4 6.55866 11.1586 11.5332
142 3 5.42282 7.37621 16.8307
162 3 6.72325 8.29897 14.7311
165 3 3.28512 10.402 15.073
166 3 5.1319 10.679 17.3138
167 3 2.99888 12.4387 16.6947
188 1 3.60226 8.30412 13.3539
190 1 2.32761 12.3746 11.2786
201 1 5.46081 12.314 15.0925
202 1 4.84148 10.4554 11.2265
346 2 10.2906 8.62273 17.3196
143 3 9.88654 7.61067 10.4853
259 2 2.89516 12.2863 10.3275
260 2 2.95314 11.9777 12.1873
291 2 4.06347 11.2571 11.0423
292 2 4.39445 9.66285 12.0593
293 2 5.17464 9.94803 10.2139
152 3 7.74891 11.1893 17.0179
169 3 6.95701 10.3509 12.8229
203 1 6.59021 13.1928 11.6669
62 4 7.7154 9.10852 13.796
168 3 7.61126 11.0229 10.2501
355 2 1.03277 13.0217 13.9086
348 2 10.8907 6.97212 14.6828
56 4 8.81592 7.14843 11.6473
261 2 1.98983 13.5399 11.4988
29 4 3.99637 7.15327 17.5268
335 2 1.71057 13.4742 9.70027
295 2 5.59795 13.4664 11.1293
ITEM: TIMESTEP
100
ITEM: NUMBER OF ATOMS
366
ITEM: BOX BOUNDS xy xz yz pp pp pp
-7.5831994636039441e+00 1.5360197440179936e+01 -7.5136224876628948e+00
-2.5448601139492300e-01 1.3674893816520523e+01 2.5342046423892034e-01
-1.4304623784867587e-01 1.7750446237848607e+01 -1.1459219487448345e-01
ITEM: ATOMS id type x y z
69 3 -1.1482 2.91939 2.48734
73 3 -2.31239 6.19492 4.57793
74 3 -0.561962 5.45672 6.63485
71 3 -0.473123 5.26959 1.32707
99 3 4.7026 5.1229 6.85335
10 4 0.0463835 4.27622 7.50427
66 3 -0.448352 1.61104 4.81389
27 4 6.35721 1.8641 5.91889
96 3 4.52632 3.2144 8.73288
7 4 0.110377 3.94148 2.09225
72 3 0.558156 2.77374 6.87687
3 4 1.22693 1.71641 0.320368
5 4 0.887066 1.64375 5.83337
24 4 3.5163 1.78813 4.12066
91 3 3.27566 0.713667 8.46719
28 4 1.47801 5.90526 4.11019
65 3 1.37903 0.411294 1.29615
67 3 1.34867 0.265797 6.56947
70 3 1.28123 3.10624 1.09509
89 3 3.48683 0.449023 3.11964
90 3 2.19535 2.0089 4.96479
92 3 4.85501 1.76013 5.15146
93 3 6.7055 0.515118 6.75102
94 3 0.781556 4.56414 3.35932
98 3 2.55872 5.44097 5.2871
361 2 -0.181404 0.256512 8.03927
178 1 3.91892 3.15227 2.88222
225 2 2.97453 3.73411 2.95028
226 2 3.82897 2.50125 1.93857
227 2 4.85723 3.90583 2.85752
338 1 3.69325 5.32751 0.260626
31 4 3.8732 6.15381 5.86513
172 1 1.54634 5.00928 8.41901
340 2 3.51452 5.46496 1.38004
9 4 -0.865024 6.60819 0.479931
209 2 2.34635 4.55591 7.61857
208 2 1.55378 6.16724 8.51894
12 4 -1.10881 6.65742 5.57988
314 2 3.47562 2.37344 -0.0105667
356 2 4.77563 4.76887 0.0894691
171 1 -1.42794 3.79528 8.73793
313 2 3.59066 0.428022 17.4613
312 1 3.19416 1.48461 17.2641
206 2 -0.858682 3.40494 9.65729
77 3 -1.24926 5.73115 13.2098
320 1 -2.05419 5.77151 17.4297
6 4 -0.85557 2.23265 15.8954
75 3 -0.782985 3.82695 15.293
299 2 5.68163 3.20209 17.0994
322 2 -1.56303 5.35226 16.5329
217 2 -0.628759 5.11215 10.061
175 1 -0.190191 5.97286 10.6448
349 2 -2.75573 5.68833 13.9367
230 2 5.9371 -0.0793348 9.50297
229 2 6.42343 1.77533 9.35544
284 2 4.2017 6.0734 9.74727
13 4 0.0731208 4.75458 14.142
353 2 3.74223 -0.220736 12.9342
213 2 0.161757 3.7387 12.0585
212 2 1.98337 4.13918 12.547
210 2 1.598 4.47924 9.40808
328 2 5.12816 1.03455 16.8282
329 2 6.56715 -0.177963 16.8379
68 3 0.181503 1.60337 17.0858
228 2 6.01167 1.01687 11.1748
26 4 4.12794 1.75453 9.35802
211 2 1.03984 2.69489 13.3738
100 3 1.10254 5.70517 14.7863
173 1 0.924932 3.67481 12.8518
179 1 5.78297 1.01194 9.98413
180 1 2.99189 2.12304 10.9359
181 1 4.58628 3.05249 14.7815
231 2 2.55673 3.1655 10.7781
232 2 3.42215 1.91515 11.9547
233 2 2.24632 1.34576 10.6433
234 2 4.02746 2.49666 13.8894
235 2 3.80864 3.67065 15.4072
236 2 5.18538 2.3187 15.4326
241 2 3.15009 5.31764 13.0824
303 1 6.19486 0.758301 13.1942
306 2 5.5155 1.58294 13.7563
315 2 2.95997 1.80656 16.1871
327 1 6.19661 0.762115 16.4163
183 1 3.91432 4.94654 12.3381
218 2 0.522631 5.58333 11.5055
330 2 6.19141 0.748138 15.242
204 2 0.509484 0.87326 14.39
240 2 4.12779 5.83053 11.5439
242 2 3.59534 3.88819 11.773
339 2 3.04814 4.69236 17.694
224 2 4.64548 -0.120142 11.223
207 2 -2.00346 4.78852 8.95059
205 2 -0.921721 1.71826 13.4728
95 3 0.292808 6.87539 4.65829
358 2 0.36512 10.095 0.865015
1 4 -5.14112 13.2112 2.2114
4 4 -5.20222 13.2994 7.58142
15 4 -2.55512 9.12934 2.01502
17 4 -3.99717 11.0377 0.158434
18 4 -2.2601 8.81165 7.55337
20 4 -3.63244 11.2172 5.86941
35 4 -1.25094 11.5072 3.78185
78 3 -3.27382 8.30492 3.24587
79 3 -1.41043 7.89015 1.25663
80 3 -3.58123 9.61945 0.82815
81 3 -4.53062 12.1696 1.25777
83 3 -1.61077 7.9478 6.38444
85 3 -4.85888 10.851 4.97884
86 3 -3.06931 10.0245 6.86092
87 3 -4.16891 12.4971 6.73147
105 3 -1.66064 10.4234 2.46621
106 3 -0.720202 12.926 3.03868
107 3 -2.52707 11.6721 4.72531
310 3 -6.15371 12.4148 3.13428
249 2 0.499223 7.63867 8.34604
185 1 1.33735 10.2908 0.298138
111 3 -0.901415 12.154 8.55979
113 3 -0.0245248 10.8879 4.52267
110 3 -1.06865 9.41429 8.47045
25 4 0.0503215 13.2163 7.58016
82 3 -3.30514 7.89134 8.47296
245 2 0.171929 8.58949 2.15324
84 3 -6.06849 12.4286 8.6032
34 4 2.73738 8.24852 2.48797
39 4 1.25054 11.1771 5.52776
37 4 2.5811 8.77719 7.34799
114 3 1.65707 9.65691 6.42592
184 1 0.988094 8.98355 2.75452
243 2 1.22192 10.1039 2.5638
244 2 0.837778 8.85246 3.89142
109 3 3.28533 7.53905 6.64887
8 4 -3.67826 6.94284 3.87435
103 3 2.46631 6.80305 3.06201
254 2 3.4678 7.26619 13.4972
121 3 1.65789 10.3628 12.7858
324 2 -4.72276 13.0165 15.4902
223 2 -4.61521 13.1172 11.4339
119 3 -2.58444 11.5547 17.2341
215 2 -0.101468 8.37491 13.3961
22 4 -3.65768 11.0724 11.2941
38 4 -1.03679 10.7954 9.41858
41 4 -1.58403 11.3366 15.9616
88 3 -5.03207 10.9753 10.4184
112 3 -2.28823 10.9498 10.4275
118 3 -1.73628 12.2113 14.6166
174 1 -0.841509 8.44135 12.4894
176 1 -3.60465 10.044 12.8715
177 1 -3.5527 13.0398 11.9792
189 1 -1.64671 9.53325 15.4104
221 2 -2.91375 9.95714 13.7885
256 2 -0.960784 9.11708 16.2747
257 2 -1.30746 9.11737 14.3648
258 2 -2.75825 9.26125 15.5957
311 3 -5.00165 10.5634 17.0751
323 1 -5.74591 12.5971 15.3346
214 2 -0.438345 8.76353 11.422
222 2 -3.48939 9.0043 12.1508
219 2 0.348336 6.71711 9.96661
302 4 -1.60171 12.8716 13.1249
216 2 -1.86403 9.08915 12.7379
220 2 -4.70349 10.1625 13.0956
122 3 -0.35327 12.2867 12.3046
117 3 -0.017012 11.6901 16.6622
102 3 0.359047 7.01879 17.0871
76 3 -2.77373 6.74726 10.8851
116 3 1.22674 8.40365 14.7565
101 3 2.82403 7.07562 16.274
325 2 -6.52342 13.2274 15.797
246 2 1.73212 9.45582 17.3073
248 2 1.91137 7.5406 9.42505
247 2 0.940885 9.12108 9.40295
120 3 0.547849 10.596 10.3417
33 4 1.33755 7.06145 15.7354
186 1 1.29727 8.21148 8.81048
42 4 0.943902 11.3152 11.7453
326 2 -5.87084 12.406 14.2432
40 4 2.34296 9.43072 13.9916
351 2 -2.5864 6.77492 17.2234
14 4 -1.43316 6.70644 11.8567
279 2 8.84395 2.64524 7.8486
97 3 6.45771 3.07201 6.91834
197 1 6.14441 5.44879 2.49562
278 2 6.26537 4.46495 3.10863
137 3 7.73766 6.37479 4.79738
277 2 5.24181 5.43141 1.66946
131 3 5.00185 6.49442 4.65667
276 2 7.16817 5.4444 1.81803
301 2 6.38193 4.34526 0.796531
354 2 9.68641 1.33806 -0.0803721
125 3 7.4832 2.15248 4.75818
30 4 5.45253 4.11313 7.75493
198 1 8.9337 3.54504 8.54061
352 2 13.0274 3.04265 8.36602
2 4 13.6006 1.91772 3.77199
44 4 8.89577 2.11532 4.09905
46 4 11.4516 2.43931 5.78689
48 4 9.76925 4.78277 2.15159
51 4 10.3333 4.6671 7.80812
123 3 13.0247 0.411474 3.01987
124 3 8.85905 0.799234 3.07398
126 3 12.4246 2.76615 4.52365
127 3 10.0221 2.02353 5.3029
128 3 12.17 1.06667 6.64508
129 3 9.19841 3.52637 3.18382
130 3 10.7397 5.89898 2.76011
132 3 8.65751 5.36528 1.03933
133 3 11.2534 3.65153 6.82096
138 3 9.4891 5.70451 6.95797
196 1 11.044 3.73412 1.1506
274 2 10.6669 2.6195 1.22508
191 1 11.0342 0.461563 1.11885
273 2 10.9631 4.14542 0.085449
337 2 9.5518 0.789135 8.24877
360 2 10.1248 0.578255 1.90651
359 2 11.4838 1.47807 0.904963
275 2 11.9711 3.96228 1.7003
23 4 7.6567 0.0487554 2.13376
192 1 14.0667 0.594437 8.69308
280 2 7.93997 4.17079 8.58318
135 3 6.30007 5.08001 8.66493
297 3 6.85726 1.25368 1.22745
49 4 6.40063 6.73102 3.8827
45 4 12.8246 -0.127298 7.46092
263 2 13.9435 1.80592 8.76575
321 2 12.2431 5.07667 0.165764
362 2 14.0769 0.116244 9.78963
134 3 11.1373 5.25658 9.1984
300 2 7.43514 4.24695 16.9114
298 1 6.77724 3.68106 17.6409
140 3 5.91592 5.60959 14.6265
182 1 6.76395 3.95534 12.4789
239 2 6.30349 3.16174 11.8858
307 2 7.22204 1.14137 12.709
304 1 8.78658 -0.116394 14.6409
32 4 5.23871 4.49872 13.7394
237 2 7.17413 4.75118 11.7863
350 2 13.91 0.153163 14.5636
238 2 7.56045 3.63771 13.2954
308 2 7.83323 0.280647 15.2829
309 2 9.29797 0.776432 14.1022
141 3 7.85166 6.53272 16.3963
144 3 7.36672 6.4625 10.9864
318 2 11.5656 2.26351 15.7776
336 2 7.87966 1.25397 9.07673
333 2 9.54484 2.90229 16.8937
294 2 14.31 -0.0340591 12.6738
332 2 9.08842 1.19213 16.1331
316 1 12.462 1.83756 16.3146
317 2 12.5042 0.654063 16.3981
331 1 9.1415 1.82702 17.1038
281 2 9.2986 3.22149 9.5461
264 2 11.3436 1.50103 9.52214
285 2 8.11245 4.66474 14.9116
267 2 8.8969 0.908842 12.5826
319 2 12.5792 2.26453 17.3659
47 4 11.0321 2.16797 12.0733
54 4 10.1176 4.88455 13.5019
139 3 10.8893 3.57436 12.7825
145 3 9.22062 5.80402 12.6268
193 1 11.7669 2.27464 10.3384
194 1 8.9775 1.72807 11.7934
195 1 11.6798 0.806796 13.2454
200 1 9.0636 4.03389 14.8888
265 2 12.8894 1.96904 10.879
266 2 11.6792 3.37999 9.98284
268 2 8.91194 1.24537 10.6785
269 2 8.15555 2.56355 11.949
286 2 9.61948 3.93483 15.934
287 2 8.82813 2.99174 14.4605
272 2 12.5509 0.243427 12.6742
271 2 11.9135 1.11766 14.4064
270 2 10.7048 0.193013 13.1309
365 2 11.4873 5.37825 15.4779
347 1 11.4349 5.8752 14.5521
334 1 8.66696 0.395174 8.83689
170 1 14.5605 1.07749 14.3694
296 4 7.33145 1.87738 17.7029
261 2 9.56342 -0.178507 11.4941
295 2 13.2187 -0.180509 11.12
262 2 3.19202 13.5729 0.180473
43 4 4.8342 13.1762 2.04439
58 4 3.85478 10.9627 3.89131
61 4 6.33038 11.1528 5.79518
104 3 3.0735 8.08312 0.955704
251 2 5.11701 9.27248 8.53139
157 3 8.72356 9.92855 8.34194
115 3 1.04794 12.3383 6.65826
146 3 6.65526 8.03343 3.07074
149 3 3.47157 9.45796 3.25422
150 3 4.02087 11.9803 2.61002
151 3 2.49032 11.5556 4.68367
153 3 6.6101 10.0849 1.29878
154 3 5.78405 12.6098 0.843205
159 3 5.10433 10.8668 4.84732
160 3 6.50811 9.94816 6.87615
161 3 5.97262 12.5048 6.69438
57 4 7.4284 9.00618 2.11457
155 3 6.99555 7.85844 8.6705
158 3 7.63046 11.1954 4.90671
59 4 6.15425 11.1732 0.156223
187 1 4.06154 9.65972 8.17597
108 3 0.772892 12.9637 0.922761
250 2 4.08085 10.4322 7.25349
343 2 3.93684 11.6538 8.42192
364 2 10.7555 7.11683 0.180007
60 4 7.68938 8.99114 7.54699
50 4 8.41556 6.91853 -0.110787
147 3 7.93451 7.99548 0.918129
136 3 10.2887 7.24442 5.01852
148 3 8.65306 9.74362 2.96363
16 4 8.94639 11.0937 3.99136
156 3 8.47393 8.06042 6.50754
363 2 2.93085 13.3509 8.63973
341 1 3.93164 12.8775 8.61361
53 4 8.97232 6.82049 5.76087
357 2 2.24078 10.3022 0.988471
345 2 10.675 6.86121 16.1767
11 4 11.263 6.80942 9.74032
344 1 10.3634 7.43002 17.2134
253 2 3.20882 8.31528 12.0367
36 4 1.29324 11.8936 17.5859
164 3 8.77106 9.75786 14.9342
163 3 8.69015 8.34219 12.6223
199 1 4.68743 7.01275 9.98496
342 2 4.52535 13.1048 9.52387
290 2 4.88112 12.9987 14.3526
283 2 4.78307 7.22827 11.1504
21 4 8.93726 10.9112 16.1432
305 2 2.08363 13.1822 15.3995
252 2 3.37362 10.0139 9.09988
282 2 4.3594 8.00133 9.28694
19 4 8.90685 11.0899 9.41288
366 2 7.52979 13.2175 11.0554
288 2 5.89459 11.2787 14.416
255 2 4.62432 8.7538 13.2639
289 2 6.02042 12.5591 15.7537
55 4 6.51744 7.07105 15.666
63 4 4.10344 11.2154 16.0751
64 4 6.54698 11.1977 11.5525
142 3 5.41649 7.28538 16.8513
162 3 6.69719 8.24744 14.5195
165 3 3.2687 10.3159 15.0238
166 3 4.97586 10.5588 17.2856
167 3 3.02025 12.3951 16.7894
188 1 3.58496 8.28859 13.108
190 1 2.36901 12.4907 11.2901
201 1 5.3557 12.1066 14.9816
202 1 4.85383 10.5102 11.1503
346 2 10.3507 8.52323 17.1672
143 3 9.89995 7.21593 10.4273
259 2 2.92985 12.3863 10.285
260 2 3.07268 12.1792 12.144
291 2 4.08558 11.3821 10.9986
292 2 4.3683 9.68174 11.8651
293 2 5.18907 10.04 10.1249
152 3 7.56673 11.1795 17.0024
169 3 7.00247 10.5279 12.9745
203 1 6.59031 13.1862 11.6771
62 4 7.77003 9.11838 13.7774
168 3 7.43494 11.0595 10.2503
355 2 0.875117 12.9768 13.8447
348 2 11.252 6.9931 14.4959
56 4 8.75341 7.01836 11.6194
52 4 6.51961 6.729 9.65189
29 4 3.92201 6.94758 17.3789
335 2 1.52779 13.5919 9.73969
ITEM: TIMESTEP
200
ITEM: NUMBER OF ATOMS
366
ITEM: BOX BOUNDS xy xz yz pp pp pp
-7.5901068574204649e+00 1.5360197440179936e+01 -7.5205298814794155e+00
-2.5448601139492300e-01 1.3674893816520523e+01 2.5342046423892034e-01
-1.4304623784867587e-01 1.7750446237848607e+01 -1.1459219487448345e-01
ITEM: ATOMS id type x y z
69 3 -0.950903 2.85171 2.5694
73 3 -2.30032 6.28382 4.48648
74 3 -0.517531 5.53324 6.59314
71 3 -0.521755 5.29268 1.28022
99 3 4.49677 5.02742 6.8695
10 4 0.151332 4.36203 7.44391
66 3 -0.362456 1.41769 4.78178
27 4 6.25593 2.0004 5.94145
96 3 4.44734 3.17932 8.71979
7 4 0.15796 3.96594 2.10344
72 3 0.580346 2.87243 6.58781
3 4 1.18326 1.78184 0.364366
5 4 0.97283 1.60626 5.67328
24 4 3.60807 1.69434 4.04394
91 3 3.19687 0.612715 8.54272
28 4 1.53088 5.90801 4.04249
65 3 1.34851 0.610672 1.41634
67 3 1.36992 0.312865 6.64581
70 3 1.18457 3.28062 1.03664
89 3 3.34838 0.39702 3.22027
90 3 2.2917 2.01166 4.89393
92 3 4.92131 1.92767 5.01018
93 3 6.59308 0.596937 6.75789
94 3 0.979962 4.49125 3.41008
98 3 2.70401 5.53497 5.03893
171 1 -1.22327 3.76435 8.7608
178 1 3.66119 3.13596 2.72922
225 2 2.71238 3.72943 3.07177
226 2 3.55316 2.61374 1.78417
227 2 4.52419 3.88067 2.61909
338 1 3.71722 5.42819 0.460157
31 4 3.92688 6.08567 5.92135
172 1 1.66592 4.90001 8.39671
340 2 3.49358 5.60554 1.54906
9 4 -0.920845 6.6257 0.390945
209 2 2.6111 4.52003 7.88513
208 2 1.72846 6.13554 8.55005
356 2 4.73482 4.81772 0.29861
313 2 3.67636 0.946539 -0.0234703
361 2 -0.129195 0.266973 8.02944
12 4 -1.06785 6.72355 5.49585
339 2 2.83168 4.95981 -0.113448
314 2 3.30378 2.63847 17.3181
312 1 3.11976 1.51313 17.3444
206 2 -0.671681 3.367 9.63561
77 3 -1.1577 5.76269 13.0553
320 1 -2.06519 5.70066 17.381
6 4 -0.873012 2.06215 15.8723
75 3 -0.636367 3.5133 15.231
299 2 5.59552 3.21463 17.2765
322 2 -1.58062 5.32997 16.446
217 2 -0.300124 5.14699 9.90835
175 1 0.138684 5.97976 10.7009
349 2 -2.69825 5.85205 13.9268
230 2 5.81547 0.162212 9.6256
229 2 6.46109 1.79393 9.7048
207 2 -1.65341 4.79163 8.88122
13 4 0.0823846 4.74851 14.1527
205 2 -0.74929 1.50794 13.6739
213 2 0.354539 3.61222 12.0679
212 2 2.16517 4.07615 12.7674
210 2 1.48697 4.35824 9.38157
328 2 5.08904 1.02595 16.929
329 2 6.55756 -0.0891131 16.9778
68 3 0.182122 1.70903 17.0306
228 2 5.95652 1.03553 11.3156
26 4 3.9505 1.82605 9.44976
211 2 1.08526 2.71135 13.7137
100 3 1.13302 5.69083 14.7319
173 1 1.1004 3.66996 12.986
179 1 5.72811 1.11772 10.1495
180 1 3.01418 2.15205 11.0591
181 1 4.3524 3.01889 14.709
231 2 2.55675 3.14348 10.6978
232 2 3.91585 2.24524 11.7503
233 2 2.26024 1.31783 11.3104
234 2 3.81889 2.43956 13.9497
235 2 3.57426 3.69596 15.3028
236 2 4.99299 2.32928 15.4715
241 2 3.14436 5.50897 13.0495
303 1 6.15578 0.649314 13.2792
306 2 5.49724 1.5319 13.8454
315 2 2.71403 1.00801 16.3967
327 1 6.13329 0.896313 16.5268
183 1 3.89655 5.03201 12.3045
218 2 0.739563 5.46479 11.4554
330 2 6.08939 0.838071 15.3213
204 2 0.687635 0.628642 14.5573
240 2 4.23234 5.8671 11.5312
242 2 3.51103 4.00535 11.793
284 2 4.06954 6.31483 9.71551
224 2 4.65748 -0.154511 11.2319
170 1 -0.428852 0.834077 14.5234
95 3 0.178274 6.87509 4.52983
358 2 0.662637 9.85052 0.522941
1 4 -5.20844 13.3359 2.31348
4 4 -5.09455 13.3335 7.65982
15 4 -2.47042 9.29165 2.13933
17 4 -4.05583 11.1235 0.345406
18 4 -2.30304 8.88195 7.49083
20 4 -3.63672 11.2209 5.77898
35 4 -1.22484 11.6087 3.80844
78 3 -3.27522 8.49003 3.35959
79 3 -1.39644 7.97519 1.35568
80 3 -3.48109 9.82904 0.972913
81 3 -4.39848 12.3704 1.32603
83 3 -1.50318 8.019 6.37918
85 3 -4.81175 10.6928 4.82399
86 3 -3.12852 9.98144 6.69561
87 3 -4.12031 12.3942 6.79366
105 3 -1.54663 10.5194 2.69705
106 3 -0.860103 13.0913 3.11323
107 3 -2.39822 11.7743 4.92613
310 3 -5.96236 12.3669 3.31295
249 2 0.741743 7.63973 8.16005
185 1 1.6753 10.3582 0.276359
111 3 -0.854417 12.3102 8.60101
113 3 0.0204689 11.02 4.63368
110 3 -1.24826 9.49964 8.44529
25 4 -0.0547516 13.2073 7.61361
82 3 -3.26292 7.76661 8.58632
245 2 0.0542278 8.58646 2.16867
84 3 -6.04137 12.5055 8.71351
34 4 2.57054 8.26311 2.41246
39 4 1.32923 11.1806 5.72414
37 4 2.48567 8.63066 7.20582
114 3 1.83015 9.77988 6.38634
184 1 0.911857 9.11334 2.78798
243 2 1.05939 10.2001 2.56375
244 2 0.847198 8.95782 3.96361
109 3 3.28023 7.35386 6.72968
8 4 -3.63526 6.94202 3.88048
103 3 2.37204 6.79132 2.90992
254 2 3.24937 7.18314 13.4775
121 3 1.65629 10.1264 12.7231
324 2 -5.16689 12.9009 16.0914
223 2 -4.63484 12.9983 11.4612
119 3 -2.75817 11.4582 17.019
215 2 -0.419418 8.23687 13.3406
22 4 -3.62191 10.9784 11.3242
38 4 -0.957732 10.812 9.29474
41 4 -1.54117 11.2153 15.9294
88 3 -4.9446 10.8816 10.4288
112 3 -2.20774 10.7059 10.4801
118 3 -1.87537 12.0703 14.5677
174 1 -1.00094 8.49458 12.3769
176 1 -3.75487 10.0918 12.9915
177 1 -3.59973 12.9079 11.9888
189 1 -1.65971 9.41361 15.3631
221 2 -2.99621 9.96089 13.9026
256 2 -0.991551 8.88533 16.1198
257 2 -1.43525 9.08407 14.316
258 2 -2.78821 9.24033 15.5932
311 3 -5.0902 10.5016 17.3307
323 1 -5.85478 12.382 15.3224
214 2 -0.340309 8.78431 11.4717
222 2 -3.80249 9.02154 12.4616
219 2 0.746475 6.77644 10.1316
302 4 -1.61973 12.7466 13.1774
216 2 -1.99092 9.0838 12.6266
220 2 -4.78199 10.4026 13.3965
122 3 -0.454249 11.9941 12.2863
117 3 0.0778481 11.5422 16.6446
102 3 0.316386 6.894 17.0544
76 3 -2.78523 6.72991 11.0135
116 3 1.0444 8.25445 14.8723
101 3 2.92558 6.84476 16.2787
325 2 -6.74137 13.063 15.027
14 4 -1.27669 6.76017 11.7122
248 2 2.3959 7.43847 9.51562
247 2 1.33375 9.13279 9.4248
120 3 0.771409 10.5664 10.1183
33 4 1.38406 6.96432 15.7344
186 1 1.67601 8.13562 8.85406
42 4 0.964508 11.1848 11.5953
326 2 -5.31135 12.0393 14.3581
40 4 2.28002 9.22183 13.9
353 2 -3.83436 13.336 13.0817
351 2 -2.65944 6.73271 17.2277
279 2 8.82775 2.71824 7.64852
97 3 6.43554 3.22794 6.94249
197 1 6.18573 5.28738 2.62619
278 2 6.033 4.32168 3.28904
137 3 7.78103 6.29228 4.62928
277 2 5.29265 5.39706 1.88606
131 3 5.13496 6.69039 4.96877
276 2 7.1631 5.37136 1.97869
301 2 6.36871 4.35335 0.745972
354 2 9.67447 1.2846 -0.0938007
125 3 7.39601 2.22486 4.7456
30 4 5.42735 4.14684 7.82432
198 1 8.93671 3.58571 8.41664
296 4 7.09116 2.02642 -0.118399
2 4 13.721 1.87091 3.74211
44 4 8.76234 2.17352 4.03605
46 4 11.3653 2.36485 5.67683
48 4 9.71342 4.71102 2.10341
51 4 10.2329 4.72155 7.60239
123 3 13.0783 0.527166 3.01194
124 3 8.99373 0.723163 2.93659
126 3 12.3871 2.59161 4.34721
127 3 9.95539 1.92721 5.09954
128 3 11.968 1.34054 6.68838
129 3 9.10348 3.61872 3.15301
130 3 10.7981 5.96751 2.78706
132 3 8.67855 5.35682 1.05465
133 3 11.1474 3.69759 6.63146
138 3 9.25957 5.79999 6.93909
196 1 10.9737 3.68951 1.08563
274 2 10.9164 2.54322 1.07157
191 1 11.2387 0.448656 0.973495
273 2 10.8611 4.10511 0.0457656
337 2 9.39944 0.732798 8.01434
360 2 10.4044 0.625141 1.76701
359 2 11.8607 1.41342 0.642413
275 2 11.9008 4.07561 1.67022
23 4 7.71129 0.0425332 2.28865
192 1 14.1265 0.59563 8.65731
280 2 7.93397 4.19452 8.6649
352 2 13.1718 3.01595 8.35516
297 3 6.94271 1.48393 1.35292
49 4 6.39979 6.68857 3.94184
45 4 12.8005 -0.071745 7.4374
321 2 12.1984 4.98624 0.11095
263 2 13.9955 1.78844 8.76244
362 2 14.1734 0.123419 9.74397
134 3 11.1061 5.29594 8.9494
300 2 7.14972 4.39235 16.8502
298 1 6.68438 3.70875 17.6036
140 3 5.71663 5.7116 14.6433
182 1 6.70365 4.05979 12.6481
239 2 6.52855 3.13751 12.0227
307 2 7.06991 0.975654 12.7226
135 3 6.47672 5.21578 8.94265
32 4 5.11955 4.55902 13.743
237 2 6.973 4.98972 12.0206