ITEM: TIMESTEP
0
ITEM: NUMBER OF ATOMS
366
ITEM: BOX BOUNDS xy xz yz pp pp pp
-7.5762920697874234e+00 1.5360197440179936e+01 -7.5067150938463740e+00
-2.5448601139492300e-01 1.3674893816520523e+01 2.5342046423892034e-01
-1.4304623784867587e-01 1.7750446237848607e+01 -1.1459219487448345e-01
ITEM: ATOMS id type x y z
69 3 -1.11156 3.00356 2.56281
73 3 -2.46865 6.20491 4.73084
74 3 -0.817761 5.20184 6.57491
71 3 -0.29836 5.28039 1.09591
99 3 4.6647 5.09334 6.80366
10 4 -0.046861 4.22596 7.53806
66 3 -0.335057 1.5192 4.57477
339 2 3.02318 4.95192 0.193939
96 3 4.36599 3.15311 8.60678
7 4 0.138238 3.98869 2.10285
72 3 0.526474 2.7304 6.83474
3 4 1.28702 1.7652 0.28805
5 4 1.00304 1.67667 5.71717
24 4 3.59266 1.6079 4.10423
91 3 3.18533 0.745071 8.42394
28 4 1.47134 5.84684 4.24993
65 3 1.38918 0.29677 0.957523
67 3 1.34765 0.315035 6.48117
70 3 1.28632 2.97374 1.37407
89 3 3.28161 0.346185 3.06663
90 3 2.32009 1.97588 4.88877
92 3 4.98799 1.61074 5.02517
93 3 6.84237 0.490635 6.64524
94 3 0.859448 4.5637 3.3952
98 3 2.51131 5.28274 5.36676
361 2 -0.0735069 0.476784 8.24931
178 1 3.60121 3.14223 2.96072
225 2 2.59894 3.65411 3.10638
226 2 3.87889 2.83992 1.89609
227 2 4.46037 3.71087 3.49123
338 1 3.98652 5.53309 0.469083
31 4 3.92282 6.13082 5.8506
172 1 1.4147 5.06483 8.38481
340 2 3.94654 5.77157 1.59609
9 4 -0.875148 6.63499 0.192239
209 2 2.2006 4.68294 7.64028
208 2 1.38311 6.25098 8.47433
12 4 -1.2243 6.51484 5.63176
27 4 6.3774 1.8539 5.86202
313 2 3.54478 0.587871 17.1432
312 1 3.14088 1.61404 17.0875
206 2 -0.898039 3.49419 9.82834
77 3 -1.31279 5.77728 13.2382
320 1 -2.07249 5.81288 17.1176
6 4 -0.841035 2.22587 15.8359
75 3 -0.619615 3.6791 15.2227
205 2 -0.786634 1.87186 13.5604
322 2 -1.7196 5.36428 16.1469
217 2 -0.566956 5.20151 10.1208
175 1 0.0585148 6.0559 10.7631
349 2 -2.8307 5.89303 14.1756
230 2 5.73948 0.0276721 9.57304
229 2 6.22863 1.80591 9.43548
284 2 4.14111 6.19719 9.81564
13 4 0.0170961 4.85848 14.2139
170 1 -0.41135 1.08348 14.3385
213 2 0.413874 3.83022 11.9947
212 2 2.13063 4.32198 12.7728
210 2 1.45685 4.51769 9.38461
328 2 5.10829 1.23959 16.6765
329 2 6.5763 -0.0381726 16.7612
68 3 0.388198 1.83358 17.0152
228 2 5.78828 1.0378 11.1589
26 4 3.92936 1.79255 9.36854
211 2 0.93315 2.82957 13.5642
100 3 1.12134 5.77686 14.7275
173 1 1.00216 3.89559 12.947
179 1 5.57767 1.01017 9.98694
180 1 2.8341 2.25209 10.9549
181 1 4.48209 3.20734 14.7962
231 2 2.67813 3.36969 10.4407
232 2 3.41436 2.30878 11.901
233 2 1.85038 1.63544 11.0092
234 2 3.77885 2.73861 14.0362
235 2 3.97754 3.83638 15.5641
236 2 5.13732 2.36244 15.3722
241 2 3.29354 5.40191 13.1208
303 1 6.12867 1.02217 13.134
306 2 5.50198 1.80135 13.6843
315 2 2.94675 1.8535 15.9971
327 1 6.21945 0.973225 16.3464
183 1 3.98008 4.91185 12.3783
218 2 0.825464 5.58679 11.4502
330 2 6.30514 1.09906 15.1665
204 2 0.729679 1.05437 14.3805
240 2 4.24618 5.75401 11.5274
242 2 3.5713 3.91824 11.8281
171 1 -1.47451 3.90013 8.99142
207 2 -1.88807 4.91091 9.26957
314 2 3.67546 2.44812 17.6696
224 2 4.60765 -0.15025 11.2304
95 3 0.114718 6.88224 4.85607
358 2 0.0794126 9.88954 0.693445
1 4 -5.19178 13.1415 2.18577
4 4 -5.1468 13.4096 7.51852
15 4 -2.48103 9.07553 1.98574
17 4 -3.97059 10.9458 0.187012
18 4 -2.42985 8.80829 7.6248
20 4 -3.71481 11.2047 5.78938
35 4 -1.30193 11.3904 3.79386
78 3 -3.19301 8.20222 3.01232
79 3 -1.19841 7.8654 1.17582
80 3 -3.48993 9.60418 0.852183
81 3 -4.31708 12.0885 1.34992
83 3 -1.63504 7.75629 6.73533
85 3 -4.94081 10.6935 4.98559
86 3 -3.17366 9.91864 6.69638
87 3 -4.08674 12.5298 6.71953
105 3 -1.66208 10.2252 2.63218
106 3 -0.873648 12.8977 2.92318
107 3 -2.52536 11.6324 4.75785
310 3 -6.17036 12.4318 3.19439
249 2 0.644858 7.75898 8.24155
185 1 0.988156 10.1624 0.0199091
111 3 -0.864614 12.1348 8.52024
113 3 -0.0747688 10.8173 4.58525
110 3 -1.31926 9.52224 8.47487
25 4 0.0369894 13.1502 7.54647
82 3 -3.38757 7.85863 8.60312
245 2 0.160135 8.54036 2.18436
84 3 -6.05318 12.5437 8.59063
34 4 2.69911 8.18209 2.52029
39 4 1.29608 11.1306 5.45672
37 4 2.48012 8.65028 7.25869
114 3 1.76472 9.74566 6.46063
184 1 0.996289 8.94506 2.80159
243 2 1.14133 10.0765 2.56964
244 2 0.744893 8.7075 3.91327
109 3 3.21218 7.41306 6.62566
8 4 -3.71859 6.90033 3.87284
103 3 2.31181 6.8128 3.17444
351 2 -2.66591 6.83903 16.8836
121 3 1.49277 10.3792 12.9133
324 2 -4.68072 12.8802 14.9368
223 2 -4.63458 13.0239 11.435
119 3 -2.47552 11.5157 17.0287
215 2 -0.159935 8.43677 13.4074
22 4 -3.66501 10.9955 11.3362
38 4 -1.07467 10.8338 9.39986
41 4 -1.38119 11.3365 15.8828
88 3 -4.98708 10.9198 10.4241
112 3 -2.30936 10.966 10.4529
118 3 -1.74396 12.3633 14.5065
174 1 -0.835243 8.52357 12.4564
176 1 -3.65932 10.0836 12.9629
177 1 -3.5269 12.9766 12.0364
189 1 -1.51898 9.53822 15.4065
221 2 -2.80931 9.90987 13.8661
256 2 -0.778183 9.08684 16.2409
257 2 -1.22244 9.19616 14.2532
258 2 -2.68653 9.38852 15.6993
311 3 -4.87674 10.5751 17.0168
323 1 -5.75542 12.6748 15.1486
214 2 -0.232207 8.79777 11.5134
222 2 -3.75071 9.04212 12.4304
219 2 0.485183 6.89901 10.0865
302 4 -1.54761 13.1245 13.0921
216 2 -1.78767 9.16604 12.637
220 2 -4.64094 10.4229 13.342
122 3 -0.332781 12.3984 12.2764
117 3 0.165796 11.7675 16.4322
102 3 0.36836 7.00412 16.9627
76 3 -2.66904 6.7858 10.9965
116 3 0.971855 8.45931 14.8977
101 3 2.87014 6.99566 16.3895
325 2 -6.1655 13.3741 15.8765
246 2 1.22827 9.46039 16.9649
248 2 2.17582 7.54566 9.42166
247 2 1.06782 9.14177 9.50119
120 3 0.375377 10.5834 10.3627
33 4 1.4163 7.06666 15.669
186 1 1.50288 8.22958 8.89111
42 4 0.764758 11.3522 11.752
326 2 -6.43925 12.676 14.2444
40 4 2.39598 9.51492 14.1692
14 4 -1.30421 6.75316 11.8663
254 2 3.59339 7.33004 13.8209
353 2 -3.7931 13.5708 12.9832
279 2 9.06815 2.5807 7.90396
97 3 6.34607 3.06853 6.89811
197 1 6.41683 5.28612 2.52518
278 2 6.37848 4.25853 3.08992
137 3 7.71773 6.20532 4.85073
277 2 5.51869 5.33328 1.7386
131 3 5.04734 6.49562 4.72716
276 2 7.47284 5.32607 1.80201
301 2 6.53508 4.3193 0.709185
354 2 9.71596 1.43471 -0.030949
125 3 7.40389 2.33924 4.73041
30 4 5.53268 4.15943 7.70866
198 1 9.11141 3.44208 8.68913
352 2 12.8873 3.22014 8.57299
2 4 13.5285 1.91393 3.76673
44 4 8.84628 2.15938 4.07082
46 4 11.3969 2.29587 5.89209
48 4 9.92468 4.67696 2.18085
51 4 10.3134 4.66116 7.81622
123 3 12.8973 0.547671 3.04591
124 3 8.7444 0.767274 3.10237
126 3 12.451 2.68376 4.75299
127 3 10.0062 1.93785 5.26812
128 3 12.0475 0.986607 6.82498
129 3 9.22875 3.4908 3.03536
130 3 10.7761 5.77147 2.9294
132 3 8.96064 5.43305 1.00307
133 3 11.244 3.6532 7.04459
138 3 9.58489 5.61143 6.74151
196 1 11.113 3.80453 0.957248
274 2 10.8606 2.68124 1.09484
191 1 11.0861 0.367593 1.09684
273 2 10.8968 4.20882 -0.0779035
337 2 9.51377 0.627987 7.91701
360 2 10.2835 0.372407 1.85711
359 2 11.4723 1.46717 0.852024
275 2 12.1476 4.13653 1.46098
23 4 7.64613 0.0712034 2.22004
192 1 14.1226 0.732446 8.76278
280 2 8.05651 3.89521 8.7434
135 3 6.42421 5.09007 8.71288
297 3 6.85689 1.348 1.30337
49 4 6.41197 6.59303 3.88474
334 1 8.72723 0.305857 8.7482
356 2 5.00355 4.9562 0.18663
45 4 12.9474 -0.0991822 7.52299
362 2 14.0131 0.232988 9.84534
134 3 10.8752 5.51875 9.15864
300 2 7.60595 4.30472 16.9375
298 1 6.89988 3.72046 17.5752
140 3 5.87026 5.74248 14.617
182 1 6.86654 4.09407 12.3964
239 2 6.65972 3.1739 11.7798
307 2 7.22997 1.25811 12.5819
304 1 8.79718 0.00739955 14.6421
32 4 5.33885 4.55405 13.6466
237 2 7.10403 5.05947 11.7696
350 2 14.2257 0.0404593 14.4276
238 2 7.64225 3.84518 13.2509
308 2 7.84478 0.331589 15.2624
309 2 9.17489 0.824126 14.057
141 3 7.85211 6.57358 16.3783
144 3 7.3032 6.60358 10.8625
318 2 11.6529 2.48577 15.9215
336 2 8.01857 1.1989 9.01152
333 2 9.45185 2.98085 17.0112
294 2 14.328 -0.0249691 12.706
332 2 9.19429 1.22215 16.2284
316 1 12.503 1.86361 16.2444
317 2 12.2386 0.822452 16.0166
331 1 9.21573 1.85434 17.1707
281 2 9.47439 3.10906 9.68604
264 2 11.533 1.11355 9.7805
285 2 8.05221 4.53521 14.7604
267 2 8.82528 0.856895 12.4974
319 2 12.7595 2.06497 17.4148
47 4 10.9213 2.19791 12.0177
54 4 10.1502 4.81081 13.5849
139 3 10.9604 3.62859 12.7488
145 3 9.45302 5.81565 12.4534
193 1 11.7898 2.03054 10.3174
194 1 8.98282 1.64288 11.717
195 1 11.7368 0.896527 13.2605
200 1 8.94569 3.86011 14.7841
265 2 12.8354 1.94551 10.7674
266 2 11.6428 3.00967 9.78008
268 2 8.8435 1.1791 10.5814
269 2 8.31871 2.55897 11.8973
286 2 9.39432 3.88457 15.8084
287 2 8.67431 2.7775 14.4408
272 2 12.5956 0.238736 12.7076
271 2 11.9973 1.25327 14.3797
270 2 10.6835 0.293994 13.2876
365 2 11.2062 5.36974 15.6919
347 1 11.3328 5.94977 14.6064
299 2 5.88871 3.47028 17.0133
52 4 6.43601 6.65263 9.54011
263 2 13.9917 1.85848 8.83836
296 4 7.3091 1.8798 17.7415
321 2 12.4512 5.02685 17.6917
262 2 3.3386 13.5097 0.143722
43 4 4.92364 13.1874 2.07365
58 4 3.87999 10.7925 3.85634
61 4 6.30064 10.9935 5.81709
104 3 3.23952 8.0182 0.928759
251 2 4.93891 8.98011 8.15337
157 3 8.94149 9.9587 8.28873
115 3 0.993819 12.2154 6.62017
146 3 6.49036 8.0605 3.2208
149 3 3.47178 9.30814 3.28969
150 3 4.23235 11.9077 2.69476
151 3 2.51895 11.4601 4.63071
153 3 6.52868 10.2383 1.48648
154 3 5.9664 12.747 0.771023
159 3 5.09036 10.7411 4.85097
160 3 6.60463 9.74623 6.79338
161 3 5.90435 12.4251 6.70394
57 4 7.36916 9.04312 2.16402
155 3 6.7888 7.93612 8.64076
158 3 7.61724 11.2957 5.0163
59 4 6.22635 11.2635 0.193025
187 1 3.96636 9.5784 8.17032
108 3 0.856428 12.9037 1.07015
250 2 3.93589 10.3544 7.28312
343 2 4.10407 11.565 8.52313
364 2 10.7691 7.09794 0.279281
60 4 7.69906 8.89444 7.66126
50 4 8.40208 6.95941 0.00602959
147 3 7.85718 8.0995 0.947947
136 3 10.2547 7.36797 5.04532
148 3 8.5908 9.78509 2.96368
16 4 8.85749 11.009 4.02135
156 3 8.39325 8.0121 6.63628
363 2 3.11917 13.3195 8.69064
341 1 4.12762 12.7971 8.70312
53 4 8.9938 6.79635 5.7541
357 2 2.04606 10.0557 0.577897
345 2 10.6105 6.95054 16.3022
11 4 11.176 6.9516 9.77546
344 1 10.331 7.4205 17.3476
253 2 3.33729 8.35344 12.25
36 4 1.36067 11.8352 17.5691
164 3 8.69795 10.0144 14.7854
163 3 8.38943 8.18942 12.7223
199 1 4.64598 7.13686 10.0956
342 2 4.84131 13.133 9.62551
290 2 4.95229 13.2386 14.5285
283 2 4.70768 7.29357 11.2548
21 4 8.96337 11.0161 15.9738
305 2 2.10737 13.3105 15.414
252 2 3.66401 9.96163 9.19872
282 2 4.30536 8.04543 9.40302
19 4 8.96685 11.1243 9.28291
366 2 7.46193 13.2428 10.961
288 2 6.02125 11.6279 14.3285
255 2 4.61365 8.80862 13.5818
289 2 6.10522 12.7329 15.9243
55 4 6.47521 7.00813 15.5999
63 4 4.14546 11.3082 16.0459
64 4 6.55866 11.1586 11.5332
142 3 5.42282 7.37621 16.8307
162 3 6.72325 8.29897 14.7311
165 3 3.28512 10.402 15.073
166 3 5.1319 10.679 17.3138
167 3 2.99888 12.4387 16.6947
188 1 3.60226 8.30412 13.3539
190 1 2.32761 12.3746 11.2786
201 1 5.46081 12.314 15.0925
202 1 4.84148 10.4554 11.2265
346 2 10.2906 8.62273 17.3196
143 3 9.88654 7.61067 10.4853
259 2 2.89516 12.2863 10.3275
260 2 2.95314 11.9777 12.1873
291 2 4.06347 11.2571 11.0423
292 2 4.39445 9.66285 12.0593
293 2 5.17464 9.94803 10.2139
152 3 7.74891 11.1893 17.0179
169 3 6.95701 10.3509 12.8229
203 1 6.59021 13.1928 11.6669
62 4 7.7154 9.10852 13.796
168 3 7.61126 11.0229 10.2501
355 2 1.03277 13.0217 13.9086
348 2 10.8907 6.97212 14.6828
56 4 8.81592 7.14843 11.6473
261 2 1.98983 13.5399 11.4988
29 4 3.99637 7.15327 17.5268
335 2 1.71057 13.4742 9.70027
295 2 5.59795 13.4664 11.1293
ITEM: TIMESTEP
100
ITEM: NUMBER OF ATOMS
366
ITEM: BOX BOUNDS xy xz yz pp pp pp
-7.5762920697874234e+00 1.5360197440179936e+01 -7.5067150938463740e+00
-2.6343275763277241e-01 1.3674893816520523e+01 2.5342046423892034e-01
-1.4304623784867587e-01 1.7750446237848607e+01 -1.2353894111233288e-01
ITEM: ATOMS id type x y z
69 3 -1.14666 2.91807 2.48734
73 3 -2.30921 6.19256 4.57793
74 3 -0.559142 5.45333 6.63485
71 3 -0.470413 5.26886 1.32707
99 3 4.70525 5.1194 6.85335
10 4 0.048616 4.27239 7.50427
66 3 -0.447461 1.60857 4.81389
27 4 6.35823 1.86107 5.91889
96 3 4.52802 3.20997 8.73288
7 4 0.112425 3.94036 2.09225
72 3 0.559635 2.77023 6.87687
3 4 1.22786 1.71618 0.320368
5 4 0.887977 1.64076 5.83337
24 4 3.51728 1.78599 4.12066
91 3 3.27612 0.709362 8.46719
28 4 1.48105 5.90314 4.11019
65 3 1.37931 0.410575 1.29615
67 3 1.34889 0.262441 6.56947
70 3 1.28286 3.10562 1.09509
89 3 3.48713 0.447392 3.11964
90 3 2.19644 2.00635 4.96479
92 3 4.85598 1.75749 5.15146
93 3 6.70585 0.511671 6.75102
94 3 0.783919 4.56238 3.35932
98 3 2.56153 5.43825 5.2871
361 2 -0.18118 0.252421 8.03927
178 1 3.92057 3.15076 2.88222
225 2 2.97647 3.73257 2.95028
226 2 3.8303 2.50021 1.93857
227 2 4.85926 3.90433 2.85752
338 1 3.69598 5.32731 0.260626
31 4 3.87637 6.15081 5.86513
172 1 1.54894 5.005 8.41901
340 2 3.51733 5.4642 1.38004
9 4 -0.861648 6.60788 0.479931
209 2 2.34872 4.55203 7.61857
208 2 1.55696 6.16291 8.51894
12 4 -1.10539 6.65456 5.57988
314 2 3.47688 2.37337 -0.0105667
356 2 4.77808 4.76875 0.0894691
171 1 -1.42595 3.79084 8.73793
313 2 3.591 0.419219 17.4613
312 1 3.19502 1.4759 17.2641
206 2 -0.856878 3.40004 9.65729
77 3 -1.24628 5.72448 13.2098
320 1 -2.05118 5.76272 17.4297
6 4 -0.854332 2.22464 15.8954
75 3 -0.780953 3.81924 15.293
299 2 5.68335 3.19347 17.0994
322 2 -1.56023 5.34392 16.5329
217 2 -0.6261 5.10704 10.061
175 1 -0.1871 5.96746 10.6448
349 2 -2.75277 5.68129 13.9367
230 2 5.93717 -0.0841578 9.50297
229 2 6.42442 1.77058 9.35544
284 2 4.20484 6.06846 9.74727
13 4 0.0756138 4.74744 14.142
353 2 3.74223 -0.227275 12.9342
213 2 0.163736 3.7326 12.0585
212 2 1.98555 4.13283 12.547
210 2 1.60034 4.47447 9.40808
328 2 5.1288 1.02606 16.8282
329 2 6.56718 -0.186453 16.8379
68 3 0.18243 1.59476 17.0858
228 2 6.01228 1.01121 11.1748
26 4 4.12891 1.74978 9.35802
211 2 1.0413 2.68813 13.3738
100 3 1.10551 5.69771 14.7863
173 1 0.926881 3.66831 12.8518
179 1 5.78358 1.00688 9.98413
180 1 2.99306 2.1175 10.9359
181 1 4.58792 3.04503 14.7815
231 2 2.55842 3.16004 10.7781
232 2 3.42322 1.9091 11.9547
233 2 2.24709 1.34037 10.6433
234 2 4.02882 2.48964 13.8894
235 2 3.81059 3.66288 15.4072
236 2 5.18666 2.31091 15.4326
241 2 3.15286 5.31103 13.0824
303 1 6.19535 0.751632 13.1942
306 2 5.51641 1.57599 13.7563
315 2 2.96099 1.79839 16.1871
327 1 6.19712 0.753836 16.4163
183 1 3.91691 4.9403 12.3381
218 2 0.52553 5.5775 11.5055
330 2 6.1919 0.740446 15.242
204 2 0.510037 0.865994 14.39
240 2 4.13082 5.82468 11.5439
242 2 3.59739 3.88223 11.773
339 2 3.05061 4.68344 17.694
224 2 4.64553 -0.125825 11.223
207 2 -2.00096 4.78398 8.95059
205 2 -0.920748 1.71145 13.4728
95 3 0.296331 6.87299 4.65829
358 2 0.370241 10.0945 0.865015
1 4 -5.13444 13.21 2.2114
4 4 -5.19547 13.2956 7.58142
15 4 -2.55047 9.12827 2.01502
17 4 -3.99158 11.0375 0.158434
18 4 -2.2556 8.8078 7.55337
20 4 -3.62674 11.2142 5.86941
35 4 -1.24511 11.5052 3.78185
78 3 -3.26959 8.30322 3.24587
79 3 -1.40641 7.88945 1.25663
80 3 -3.57634 9.61896 0.82815
81 3 -4.52446 12.1689 1.25777
83 3 -1.6067 7.94454 6.38444
85 3 -4.85337 10.8484 4.97884
86 3 -3.0642 10.021 6.86092
87 3 -4.16257 12.4937 6.73147
105 3 -1.65535 10.4221 2.46621
106 3 -0.713658 12.9244 3.03868
107 3 -2.52114 11.6697 4.72531
310 3 -6.14742 12.4131 3.13428
249 2 0.503139 7.63443 8.34604
185 1 1.34257 10.2905 0.298138
111 3 -0.89524 12.1497 8.55979
113 3 -0.018996 10.8856 4.52267
110 3 -1.06384 9.40999 8.47045
25 4 0.0570244 13.2124 7.58016
82 3 -3.30109 7.88703 8.47296
245 2 0.176301 8.58834 2.15324
84 3 -6.06218 12.4242 8.6032
34 4 2.74158 8.2472 2.48797
39 4 1.25622 11.1743 5.52776
37 4 2.58558 8.77345 7.34799
114 3 1.66199 9.65363 6.42592
184 1 0.992665 8.9821 2.75452
243 2 1.22705 10.1025 2.5638
244 2 0.842287 8.85044 3.89142
109 3 3.28919 7.53566 6.64887
8 4 -3.67471 6.94083 3.87435
103 3 2.4698 6.80145 3.06201
254 2 3.47154 7.25937 13.4972
121 3 1.66318 10.3564 12.7858
324 2 -4.71614 13.0087 15.4902
223 2 -4.60854 13.1114 11.4339
119 3 -2.57854 11.546 17.2341
215 2 -0.0971672 8.36814 13.3961
22 4 -3.65204 11.0666 11.2941
38 4 -1.0313 10.7906 9.41858
41 4 -1.57824 11.3285 15.9616
88 3 -5.02648 10.97 10.4184
112 3 -2.28265 10.9445 10.4275
118 3 -1.73006 12.204 14.6166
174 1 -0.837178 8.43504 12.4894
176 1 -3.59952 10.0375 12.8715
177 1 -3.54607 13.0337 11.9792
189 1 -1.64182 9.52547 15.4104
221 2 -2.90865 9.95017 13.7885
256 2 -0.956103 9.10887 16.2747
257 2 -1.30278 9.11012 14.3648
258 2 -2.7535 9.25338 15.5957
311 3 -4.99624 10.5548 17.0751
323 1 -5.73949 12.5894 15.3346
214 2 -0.433857 8.75775 11.422
222 2 -3.48478 8.99815 12.1508
219 2 0.351797 6.71206 9.96661
302 4 -1.59517 12.865 13.1249
216 2 -1.85937 9.08271 12.7379
220 2 -4.69829 10.1559 13.0956
122 3 -0.347017 12.2805 12.3046
117 3 -0.0110431 11.6817 16.6622
102 3 0.362682 7.01017 17.0871
76 3 -2.77025 6.74175 10.8851
116 3 1.23106 8.3962 14.7565
101 3 2.82769 7.06741 16.274
325 2 -6.51669 13.2194 15.797
246 2 1.73698 9.4471 17.3073
248 2 1.91524 7.53582 9.42505
247 2 0.945546 9.1163 9.40295
120 3 0.55325 10.5908 10.3417
33 4 1.3412 7.05351 15.7354
186 1 1.30147 8.207 8.81048
42 4 0.949667 11.3092 11.7453
326 2 -5.86452 12.3988 14.2432
40 4 2.34779 9.42365 13.9916
351 2 -2.58289 6.76624 17.2234
14 4 -1.4297 6.70044 11.8567
279 2 8.84537 2.64124 7.8486
97 3 6.45934 3.06848 6.91834
197 1 6.14722 5.44747 2.49562
278 2 6.26768 4.46332 3.10863
137 3 7.74094 6.37232 4.79738
277 2 5.2446 5.4305 1.66946
131 3 5.00518 6.49202 4.65667
276 2 7.17097 5.44342 1.81803
301 2 6.38417 4.34479 0.796531
354 2 9.68715 1.33803 -0.0803721
125 3 7.48436 2.15003 4.75818
30 4 5.45468 4.10918 7.75493
198 1 8.93557 3.54069 8.54061
352 2 13.029 3.0384 8.36602
2 4 13.6016 1.91576 3.77199
44 4 8.89691 2.1132 4.09905
46 4 11.4529 2.43634 5.78689
48 4 9.77172 4.78162 2.15159
51 4 10.3357 4.66313 7.80812
123 3 13.025 0.409892 3.01987
124 3 8.85953 0.797625 3.07398
126 3 12.426 2.76382 4.52365
127 3 10.0232 2.02081 5.3029
128 3 12.1706 1.06327 6.64508
129 3 9.20026 3.52471 3.18382
130 3 10.7427 5.89753 2.76011
132 3 8.66026 5.36468 1.03933
133 3 11.2553 3.64805 6.82096
138 3 9.49205 5.70096 6.95797
196 1 11.046 3.73348 1.1506
274 2 10.6683 2.61882 1.22508
191 1 11.0345 0.460932 1.11885
273 2 10.9652 4.14531 0.085449
337 2 9.55229 0.784939 8.24877
360 2 10.1252 0.57723 1.90651
359 2 11.4846 1.47755 0.904963
275 2 11.9732 3.96136 1.7003
23 4 7.6568 0.047617 2.13376
192 1 14.0671 0.590019 8.69308
280 2 7.94216 4.16642 8.58318
135 3 6.30271 5.07561 8.66493
297 3 6.85796 1.253 1.22745
49 4 6.40408 6.72901 3.8827
45 4 12.8246 -0.1311 7.46092
263 2 13.9445 1.80146 8.76575
321 2 12.2457 5.07651 0.165764
362 2 14.0771 0.111277 9.78963
134 3 11.1401 5.25191 9.1984
300 2 7.43739 4.23842 16.9114
298 1 6.7792 3.67217 17.6409
140 3 5.91884 5.6022 14.6265
182 1 6.76604 3.94903 12.4789
239 2 6.30518 3.15573 11.8858
307 2 7.22272 1.13494 12.709
304 1 8.78664 -0.123786 14.6409
32 4 5.24107 4.49178 13.7394
237 2 7.17661 4.74522 11.7863
350 2 13.9102 0.14581 14.5636
238 2 7.56239 3.63099 13.2954
308 2 7.83349 0.272934 15.2829
309 2 9.29847 0.76931 14.1022
141 3 7.85505 6.52445 16.3963
144 3 7.37005 6.45693 10.9864
318 2 11.5669 2.25555 15.7776
336 2 7.88038 1.24936 9.07673
333 2 9.54641 2.89377 16.8937
294 2 14.3101 -0.0404675 12.6738
332 2 9.08913 1.18399 16.1331
316 1 12.463 1.82934 16.3146
317 2 12.5046 0.645792 16.3981
331 1 9.14254 1.8184 17.1038
281 2 9.30032 3.21665 9.5461
264 2 11.3444 1.4962 9.52214
285 2 8.1149 4.65721 14.9116
267 2 8.89747 0.90248 12.5826
319 2 12.5805 2.25578 17.3659
47 4 11.0333 2.16186 12.0733
54 4 10.1202 4.87773 13.5019
139 3 10.8912 3.5679 12.7825
145 3 9.22363 5.79763 12.6268
193 1 11.7682 2.26939 10.3384
194 1 8.97847 1.7221 11.7934
195 1 11.6803 0.800102 13.2454
200 1 9.06574 4.02637 14.8888
265 2 12.8905 1.96353 10.879
266 2 11.681 3.37493 9.98284
268 2 8.91267 1.23996 10.6785
269 2 8.15694 2.5575 11.949
286 2 9.62157 3.92679 15.934
287 2 8.82975 2.98444 14.4605
272 2 12.5511 0.237018 12.6742
271 2 11.9142 1.11038 14.4064
270 2 10.705 0.186376 13.1309
365 2 11.4901 5.37044 15.4779
347 1 11.4379 5.86786 14.5521
334 1 8.66725 0.390684 8.83689
170 1 14.5611 1.07023 14.3694
296 4 7.33251 1.86846 17.7029
261 2 9.56344 -0.184326 11.4941
295 2 13.2187 -0.18614 11.12
262 2 3.19888 13.5727 0.180473
43 4 4.84086 13.1751 2.04439
58 4 3.86034 10.9607 3.89131
61 4 6.33605 11.1499 5.79518
104 3 3.07761 8.08257 0.955704
251 2 5.12174 9.26814 8.53139
157 3 8.72862 9.9243 8.34194
115 3 1.0542 12.3349 6.65826
146 3 6.65936 8.03182 3.07074
149 3 3.47638 9.45626 3.25422
150 3 4.02694 11.9789 2.61002
151 3 2.49618 11.5532 4.68367
153 3 6.61521 10.0842 1.29878
154 3 5.79043 12.6093 0.843205
159 3 5.10985 10.8643 4.84732
160 3 6.51318 9.94465 6.87615
161 3 5.97897 12.5014 6.69438
57 4 7.43299 9.00505 2.11457
155 3 6.99958 7.85403 8.6705
158 3 7.63615 11.1928 4.90671
59 4 6.15991 11.1731 0.156223
187 1 4.06647 9.65556 8.17597
108 3 0.779447 12.9631 0.922761
250 2 4.08616 10.4285 7.25349
343 2 3.94276 11.6495 8.42192
364 2 10.7591 7.11667 0.180007
60 4 7.69397 8.9873 7.54699
50 4 8.41909 6.91852 -0.110787
147 3 7.93858 7.99495 0.918129
136 3 10.2924 7.24184 5.01852
148 3 8.65801 9.74206 2.96363
16 4 8.95202 11.0917 3.99136
156 3 8.47805 8.05709 6.50754
363 2 2.93762 13.3465 8.63973
341 1 3.93818 12.8731 8.61361
53 4 8.97582 6.81754 5.76087
357 2 2.246 10.3016 0.988471
345 2 10.6785 6.85305 16.1767
11 4 11.2665 6.80448 9.74032
344 1 10.3673 7.42134 17.2134
253 2 3.21309 8.30919 12.0367
36 4 1.29932 11.8847 17.5859
164 3 8.77606 9.75032 14.9342
163 3 8.69443 8.33581 12.6223
199 1 4.69103 7.00769 9.98496
342 2 4.532 13.0999 9.52387
290 2 4.88774 12.9914 14.3526
283 2 4.78679 7.22262 11.1504
21 4 8.94283 10.9031 16.1432
305 2 2.09034 13.1744 15.3995
252 2 3.37872 10.0093 9.09988
282 2 4.3635 7.99662 9.28694
19 4 8.9125 11.0851 9.41288
366 2 7.5365 13.2119 11.0554
288 2 5.90035 11.2714 14.416
255 2 4.62881 8.74709 13.2639
289 2 6.02682 12.5511 15.7537
55 4 6.5211 7.06315 15.666
63 4 4.10917 11.2073 16.0751
64 4 6.55268 11.1919 11.5525
142 3 5.42026 7.27688 16.8513
162 3 6.70143 8.24011 14.5195
165 3 3.27397 10.3083 15.0238
166 3 4.98126 10.5501 17.2856
167 3 3.02657 12.3866 16.7894
188 1 3.58922 8.28197 13.108
190 1 2.37536 12.4849 11.2901
201 1 5.36187 12.099 14.9816
202 1 4.85919 10.5045 11.1503
346 2 10.3551 8.51458 17.1672
143 3 9.90367 7.21065 10.4273
259 2 2.93614 12.3811 10.285
260 2 3.07888 12.1731 12.144
291 2 4.09137 11.3765 10.9986
292 2 4.37325 9.67573 11.8651
293 2 5.19419 10.0348 10.1249
152 3 7.57245 11.1709 17.0024
169 3 7.00784 10.5214 12.9745
203 1 6.59701 13.1802 11.6771
62 4 7.7747 9.11142 13.7774
168 3 7.44057 11.0543 10.2503
355 2 0.881721 12.9698 13.8447
348 2 11.2556 6.98578 14.4959
56 4 8.75702 7.01248 11.6194
52 4 6.52308 6.7241 9.65189
29 4 3.92561 6.93882 17.3789
335 2 1.53469 13.5869 9.73969
ITEM: TIMESTEP
200
ITEM: NUMBER OF ATOMS
366
ITEM: BOX BOUNDS xy xz yz pp pp pp
-7.5762920697874234e+00 1.5360197440179936e+01 -7.5067150938463740e+00
-2.7237950387062071e-01 1.3674893816520523e+01 2.5342046423892034e-01
-1.4304623784867587e-01 1.7750446237848607e+01 -1.3248568735018118e-01
ITEM: ATOMS id type x y z
69 3 -0.947735 2.84905 2.57005
73 3 -2.29325 6.2791 4.48555
74 3 -0.512228 5.52673 6.59283
71 3 -0.515993 5.29074 1.27938
99 3 4.50213 5.02023 6.86932
10 4 0.155068 4.35408 7.4446
66 3 -0.360718 1.41253 4.78117
27 4 6.25798 1.99396 5.94141
96 3 4.45066 3.1708 8.7199
7 4 0.16178 3.96395 2.10382
72 3 0.583054 2.86462 6.5877
3 4 1.1852 1.78077 0.364122
5 4 0.974336 1.60022 5.67335
24 4 3.61027 1.69024 4.04398
91 3 3.19694 0.605048 8.54298
28 4 1.53691 5.90413 4.0427
65 3 1.34865 0.609232 1.4165
67 3 1.37022 0.305376 6.64627
70 3 1.18735 3.27939 1.03687
89 3 3.34902 0.393671 3.2204
90 3 2.29395 2.00633 4.89409
92 3 4.92343 1.92211 5.01003
93 3 6.59356 0.589943 6.75699
94 3 0.984946 4.48803 3.40979
98 3 2.71077 5.5297 5.0379
171 1 -1.21847 3.75643 8.76081
178 1 3.66496 3.13276 2.72945
225 2 2.71476 3.72596 3.07209
226 2 3.55804 2.61062 1.7841
227 2 4.52841 3.87615 2.62086
338 1 3.72284 5.4276 0.459482
31 4 3.93362 6.07938 5.92109
172 1 1.6714 4.88911 8.39576
340 2 3.4978 5.60473 1.54841
9 4 -0.914885 6.6253 0.390056
209 2 2.6179 4.50987 7.88535
208 2 1.73533 6.12599 8.55045
361 2 -0.127888 0.25649 8.03014
313 2 3.67666 0.945073 -0.0232564
356 2 4.7394 4.81692 0.299562
12 4 -1.06083 6.71781 5.49559
339 2 2.83789 4.96006 -0.11513
314 2 3.30699 2.62017 17.3183
312 1 3.1216 1.49492 17.3443
206 2 -0.669089 3.35506 9.63667
77 3 -1.15146 5.74967 13.0557
320 1 -2.0586 5.68193 17.383
6 4 -0.870693 2.04637 15.8721
75 3 -0.633821 3.49845 15.2328
299 2 5.59863 3.19844 17.2766
322 2 -1.57456 5.30348 16.4472
217 2 -0.294163 5.13608 9.90973
175 1 0.146708 5.96836 10.7026
349 2 -2.69193 5.83894 13.926
230 2 5.81623 0.151526 9.62446
229 2 6.46273 1.78272 9.70481
207 2 -1.64792 4.78326 8.88516
13 4 0.087209 4.73463 14.1526
205 2 -0.746621 1.48592 13.6727
213 2 0.359107 3.59953 12.0678
212 2 2.16937 4.06408 12.7674
210 2 1.49019 4.34589 9.38114
328 2 5.09003 1.00956 16.9292
329 2 6.5583 -0.105427 16.9774
68 3 0.184086 1.69181 17.0303
228 2 5.95633 1.02365 11.3149
26 4 3.95253 1.81716 9.44977
211 2 1.08885 2.69812 13.7119
100 3 1.13929 5.67609 14.7316
173 1 1.1047 3.65672 12.9857
179 1 5.72878 1.10628 10.149
180 1 3.01714 2.14103 11.0574
181 1 4.3561 3.00547 14.7093
231 2 2.56192 3.13554 10.6937
232 2 3.91949 2.2324 11.7484
233 2 2.26136 1.30782 11.3076
234 2 3.82103 2.42674 13.951
235 2 3.58071 3.68282 15.3031
236 2 4.99655 2.31489 15.4719
241 2 3.15141 5.49697 13.049
303 1 6.15581 0.635408 13.2786
306 2 5.49805 1.51929 13.8464
315 2 2.71526 0.990407 16.3958
327 1 6.13459 0.879891 16.5264
183 1 3.90165 5.01997 12.3043
218 2 0.746781 5.45265 11.4563
330 2 6.08954 0.82256 15.3211
204 2 0.686072 0.609707 14.5594
240 2 4.23894 5.85598 11.5296
242 2 3.51538 3.9956 11.7935
284 2 4.08432 6.29864 9.7067
224 2 4.6594 -0.162114 11.2334
170 1 -0.430006 0.819761 14.5237
95 3 0.185869 6.86983 4.52994
358 2 0.675721 9.84988 0.52356
1 4 -5.19505 13.3335 2.31358
4 4 -5.08092 13.3259 7.66032
15 4 -2.46119 9.28943 2.13989
17 4 -4.04457 11.1226 0.345292
18 4 -2.2941 8.87459 7.49084
20 4 -3.62528 11.2151 5.77875
35 4 -1.21317 11.6058 3.80825
78 3 -3.26704 8.48683 3.35961
79 3 -1.38842 7.97314 1.35563
80 3 -3.47063 9.82811 0.972957
81 3 -4.38645 12.3688 1.32671
83 3 -1.49556 8.01221 6.3793
85 3 -4.80024 10.6879 4.82338
86 3 -3.11861 9.97451 6.69549
87 3 -4.10763 12.3872 6.7939
105 3 -1.5366 10.5162 2.69772
106 3 -0.847196 13.0879 3.11275
107 3 -2.38657 11.7695 4.92589
310 3 -5.95023 12.364 3.31347
249 2 0.751592 7.62975 8.15306
185 1 1.6863 10.3573 0.27555
111 3 -0.842339 12.3027 8.6008
113 3 0.0315059 11.0161 4.6337
110 3 -1.23888 9.49126 8.44542
25 4 -0.0417777 13.2 7.61414
82 3 -3.25523 7.75805 8.5869
245 2 0.0636629 8.58176 2.16964
84 3 -6.02902 12.497 8.71394
34 4 2.57988 8.26049 2.41244
39 4 1.34057 11.1747 5.72394
37 4 2.49571 8.62371 7.20594
114 3 1.83947 9.77291 6.38631
184 1 0.920578 9.10987 2.78916
243 2 1.06915 10.1963 2.56351
244 2 0.854939 8.95369 3.96511
109 3 3.28726 7.34605 6.72948
8 4 -3.62807 6.93809 3.88028
103 3 2.37981 6.78822 2.90974
254 2 3.26115 7.17106 13.4782
121 3 1.66692 10.1125 12.7236
324 2 -5.15374 12.8848 16.0908
223 2 -4.61889 12.988 11.4579
119 3 -2.74664 11.4414 17.0188
215 2 -0.410268 8.22457 13.3404
22 4 -3.61088 10.9683 11.324
38 4 -0.947344 10.8029 9.29523
41 4 -1.53012 11.1995 15.9289
88 3 -4.93379 10.8712 10.4289
112 3 -2.19655 10.6955 10.4802
118 3 -1.86308 12.0561 14.5678
174 1 -0.991598 8.48181 12.3762
176 1 -3.74385 10.0802 12.9908
177 1 -3.58663 12.8972 11.9894
189 1 -1.64968 9.39839 15.3633
221 2 -2.98606 9.94789 13.9034
256 2 -0.982679 8.87108 16.1203
257 2 -1.42504 9.06949 14.3162
258 2 -2.77811 9.22386 15.5919
311 3 -5.07906 10.483 17.3307
323 1 -5.84235 12.3664 15.3233
214 2 -0.329659 8.77104 11.4712
222 2 -3.79304 9.00916 12.4592
219 2 0.754203 6.76519 10.1337
302 4 -1.6064 12.7331 13.1779
216 2 -1.98051 9.07097 12.6257
220 2 -4.77222 10.3947 13.3955
122 3 -0.441676 11.9811 12.2865
117 3 0.0895908 11.5254 16.6446
102 3 0.323329 6.8768 17.0546
76 3 -2.77769 6.71898 11.0136
116 3 1.05307 8.23977 14.8719
101 3 2.93273 6.82859 16.2776
325 2 -6.72805 13.048 15.0293
14 4 -1.26951 6.74841 11.7126
248 2 2.40783 7.42945 9.51148
247 2 1.33978 9.12068 9.42543
120 3 0.78212 10.5561 10.1175
33 4 1.39128 6.9489 15.7337
186 1 1.6836 8.12553 8.8541
42 4 0.975935 11.1728 11.5952
326 2 -5.30102 12.0243 14.3585
40 4 2.2897 9.20749 13.9007
353 2 -3.81942 13.3252 13.0841
351 2 -2.65099 6.71182 17.2224
279 2 8.83161 2.71099 7.6481
97 3 6.43868 3.22037 6.94327
197 1 6.19148 5.28441 2.62543
278 2 6.03852 4.31885 3.2889
137 3 7.7882 6.28736 4.62839
277 2 5.29828 5.39418 1.88504
131 3 5.14204 6.6855 4.96916
276 2 7.16997 5.3708 1.97945
301 2 6.37367 4.35479 0.747186
354 2 9.6765 1.28406 -0.0948834
125 3 7.39834 2.21993 4.74525
30 4 5.43064 4.13824 7.82484
198 1 8.94099 3.57725 8.41667
296 4 7.09335 2.02637 -0.118322
2 4 13.7233 1.86716 3.74206
44 4 8.76461 2.16909 4.03584
46 4 11.3678 2.35892 5.67714
48 4 9.71834 4.708 2.1031
51 4 10.2378 4.71401 7.60287
123 3 13.0788 0.523868 3.01207
124 3 8.99358 0.720507 2.93717
126 3 12.3901 2.58671 4.34724
127 3 9.95763 1.92234 5.09918
128 3 11.9689 1.3334 6.68893
129 3 9.10757 3.61584 3.1521
130 3 10.8047 5.96509 2.78675
132 3 8.68341 5.35555 1.05425
133 3 11.1517 3.69052 6.6314
138 3 9.26538 5.79302 6.93865
196 1 10.977 3.68856 1.08406
274 2 10.9193 2.54239 1.07001
191 1 11.2396 0.448623 0.973917
273 2 10.8694 4.10466 0.044835
337 2 9.40009 0.722304 8.01563
360 2 10.4054 0.625171 1.76551
359 2 11.8655 1.41129 0.642159
275 2 11.9021 4.0756 1.67341
23 4 7.71119 0.0397783 2.28846
192 1 14.1277 0.587174 8.65597
280 2 7.9382 4.18634 8.66507
352 2 13.1787 3.01092 8.35017
297 3 6.94399 1.48279 1.35308
49 4 6.40657 6.6846 3.94182
45 4 12.8007 -0.0793317 7.43766
321 2 12.1986 4.98682 0.111076
263 2 13.999 1.77817 8.75937
362 2 14.1714 0.116489 9.74228
134 3 11.1113 5.28719 8.94851
300 2 7.15465 4.3739 16.8499
298 1 6.6888 3.69099 17.6033
140 3 5.72233 5.69763 14.6429
182 1 6.70836 4.04928 12.6475
239 2 6.53347 3.12892 12.0198
307 2 7.06999 0.959599 12.7236
135 3 6.48178 5.20682 8.94278
32 4 5.12323 4.54634 13.7434
237 2 6.97937 4.98086 12.0225
350 2 13.9676 -0.103576 14.7297