ITEM: TIMESTEP
0
ITEM: NUMBER OF ATOMS
331
ITEM: BOX BOUNDS xy xz yz pp pp pp
-8.5267422552386698e+00 1.6992590935126586e+01 -8.6846960268427011e+00
-2.3082318705380849e+00 1.3000996215598949e+01 1.4418447067307354e+00
-1.5199799933352409e-02 1.7539999799933383e+01 -2.3940356549391200e+00
ITEM: ATOMS id type x y z
230 2 -2.89547 5.15223 2.70097
1 4 0.637337 2.81357 5.67637
2 4 1.11767 4.08506 2.59196
3 1 1.94326 3.42056 6.84853
8 2 1.33008 3.29396 7.80906
9 2 1.12541 1.16554 5.63428
10 2 1.93372 4.52966 6.51883
18 3 0.806467 3.53849 4.24305
83 2 1.96352 0.243381 7.10362
161 2 -0.336064 3.93092 1.41911
6 1 0.991589 2.71209 1.3642
15 2 2.61531 3.25256 1.71849
5 1 3.28244 0.627188 2.18754
12 2 3.87719 1.01457 3.044
4 1 1.83914 -0.603959 6.19252
16 2 -1.12962 5.28877 3.50145
131 3 -0.885035 2.84327 6.38445
11 2 2.99522 2.96653 6.95367
17 2 0.63393 1.71464 1.83207
187 2 2.99233 4.83011 7.90623
14 2 2.44328 1.38057 1.93546
214 1 -2.1834 5.63868 3.51313
266 3 5.65678 3.31035 0.470283
95 2 2.94869 5.26489 4.4093
89 2 3.91822 0.553177 1.25169
162 2 2.27136 -0.254969 5.21174
13 2 1.4335 5.80242 2.38977
79 2 5.13605 -0.00259682 2.36063
311 2 0.889071 2.6268 0.185637
118 3 7.4054 -0.0643143 6.59702
122 3 4.68203 2.09259 7.18913
27 4 4.54304 1.10151 8.42767
24 4 6.87109 0.145533 2.66463
47 1 4.66002 -0.782307 7.8707
184 2 -0.113605 5.20234 7.84176
117 3 7.15354 0.734437 4.04433
82 2 5.46914 -0.717463 7.05958
170 2 -0.799485 3.7876 8.92482
149 4 -0.296436 4.75799 10.449
254 2 -1.64366 3.18773 16.1945
145 4 -1.68307 3.93402 13.1276
116 3 3.06857 1.17617 9.22227
250 1 -1.35423 4.01573 16.962
197 3 -0.920647 4.18994 11.768
22 4 2.65181 0.472444 10.7101
23 4 2.82023 1.81178 13.4049
112 3 1.04453 -0.381759 10.7166
113 3 3.97339 -0.501724 11.1161
114 3 2.80067 1.83107 11.807
77 2 2.50628 3.36367 14.2275
44 1 1.04197 2.07722 14.0456
76 2 0.899549 1.32586 14.9646
60 2 0.769088 3.2249 14.3137
75 2 0.459492 1.62847 13.1166
267 3 5.23085 3.11181 17.4393
262 2 1.67148 -1.75802 16.0063
125 3 3.57832 0.784829 14.3737
278 2 1.60104 0.454532 16.5222
59 2 0.112314 1.95298 9.61215
271 1 0.655057 -0.0977493 16.3089
186 2 3.94761 4.4758 9.86077
322 2 7.3791 -1.45053 16.7094
121 3 4.59181 -1.08285 16.2086
119 3 5.07712 -1.03287 13.4078
84 2 6.08462 0.623716 10.3951
85 2 5.79949 2.55335 10.1244
29 4 4.87342 -0.108501 14.7758
48 1 5.97706 1.54111 9.60242
120 3 6.18605 0.867986 14.8557
99 2 6.48523 1.42537 12.033
310 2 0.747741 -0.730656 14.6673
183 2 -2.79427 5.31205 8.8106
276 2 -0.550322 1.14134 16.5419
326 2 8.91856 -1.80697 14.1026
198 3 1.22273 5.14417 10.2449
188 2 7.40543 -1.64652 12.8428
252 2 -0.330371 3.84593 17.4179
291 1 2.56853 7.38171 2.38665
221 2 -5.89563 11.0636 3.25835
169 2 -5.32571 10.7131 5.51567
143 4 -5.49056 11.2783 7.10237
213 1 -7.01874 10.8985 3.03628
228 2 -4.97283 10.1037 3.90482
220 2 -3.43982 9.5929 5.0225
49 1 -5.21419 9.07085 4.42106
167 2 -4.60021 8.89035 5.36515
144 4 -3.08616 6.26116 5.07594
274 2 -2.36816 7.23995 3.5451
80 2 -3.35662 10.6081 2.68147
62 2 0.156837 9.34397 0.0251504
87 2 -1.71054 11.7959 5.53888
193 3 -6.15003 10.0037 8.14584
285 2 -5.8969 11.7715 0.315122
286 2 -4.40869 10.9921 0.758989
200 3 -1.5053 10.4658 8.56042
158 1 3.61419 5.70135 8.49545
70 2 -3.72758 6.89909 0.103134
294 2 3.06161 6.60538 1.68316
45 1 -2.21318 10.9537 2.79636
293 2 2.90871 7.12878 3.49012
192 3 -2.19136 6.49204 6.35042
206 4 -2.00486 10.4117 4.44471
324 2 0.392319 9.46601 6.92659
227 2 -5.05173 8.20404 3.69984
163 2 -4.71521 8.07506 0.481254
93 2 2.39669 6.85433 5.16647
78 2 -0.632976 11.7996 2.0793
235 2 -0.655094 6.66165 4.30464
98 2 -1.45388 10.3117 2.233
146 4 -1.2667 6.55151 7.63845
199 3 -0.76795 7.98096 8.42894
207 4 0.521536 8.85823 5.2544
215 1 0.385927 7.11638 4.68102
232 2 1.4839 7.45616 2.25083
233 2 0.766155 6.6672 5.70958
234 2 1.22173 7.0827 3.78058
242 3 -0.792295 9.4837 4.47159
26 4 -0.488672 11.7928 8.13649
7 2 -5.98125 12.532 2.44294
312 2 -7.70051 12.4103 2.68112
108 2 -4.18668 7.17094 7.62593
185 2 2.88659 7.00634 8.54006
81 2 -3.72022 11.4903 8.7606
156 1 -3.96878 6.88051 11.6713
127 3 3.53689 4.7734 15.925
249 4 -0.861645 5.42732 15.7954
126 3 0.813398 5.36148 15.9089
159 1 -0.192795 10.9708 13.0086
319 2 -3.31942 6.25098 11.0358
21 4 -4.55951 11.3139 12.2499
19 4 -4.7063 10.3185 16.1958
115 3 -5.97144 10.793 12.9977
284 2 -4.261 7.66215 16.408
283 1 -3.71209 8.60193 16.5848
148 4 -4.25792 8.54844 10.7677
194 3 -1.47727 4.99364 14.3795
180 2 -3.47818 7.23522 12.6144
196 3 -3.88479 9.67833 11.737
201 3 -3.13332 8.52411 9.38901
325 2 -3.70426 9.40548 14.9308
202 3 3.26531 6.74515 11.3664
303 2 -0.46594 9.50956 17.5242
204 3 1.48084 8.52867 12.4916
153 4 0.0899417 9.28903 12.1323
282 2 0.0865239 10.7974 15.4294
259 1 -6.50812 10.0943 15.7949
280 4 -1.87951 8.44222 16.8219
281 2 -1.75464 10.1696 15.3777
150 4 2.69964 5.71416 10.2056
331 3 -1.45991 6.82051 16.4578
327 2 -1.04596 9.2319 13.4291
301 1 -0.662085 9.90033 15.7492
203 3 -0.676058 9.12633 10.7954
34 4 2.36255 5.79959 15.7441
302 2 -0.29948 8.94277 15.1632
182 2 -1.39356 6.46985 10.2438
64 2 2.59563 6.71585 14.2123
151 4 -1.61415 9.06277 9.28297
270 1 2.53147 7.30754 16.9732
253 2 2.2431 8.19565 16.3664
157 1 -1.6035 5.4099 9.05721
28 4 7.87687 1.21911 5.59352
31 4 6.00531 3.33335 6.61497
123 3 7.39935 2.60508 6.29388
124 3 5.39338 4.30992 5.3545
128 3 9.51488 1.11382 5.43753
263 4 5.12004 4.82844 0.755924
50 1 6.53466 4.46541 7.97722
96 2 4.94932 5.10777 2.59204
109 2 7.7686 4.55351 7.88636
264 2 7.25289 5.00264 0.0206844
46 1 7.69647 1.11088 1.09475
91 2 10.0258 5.41194 6.17472
320 2 8.31754 2.02166 1.58443
40 4 9.69632 4.13402 2.81706
69 2 9.88732 3.62469 0.866252
295 1 11.0811 0.243495 1.06919
137 3 10.1768 3.03131 3.7751
42 4 9.54535 5.43425 8.05252
106 2 8.13816 4.84183 3.12421
32 4 4.72086 5.35284 4.39141
58 2 10.7811 5.5633 2.81637
35 4 10.6937 2.00563 4.88149
175 2 10.4796 6.2869 1.25471
273 2 11.5234 1.35199 0.982046
304 1 11.1587 4.34617 1.4454
37 4 12.8451 2.1852 6.95504
132 3 11.6262 2.6773 5.99487
139 3 12.5187 2.69996 8.50984
133 3 13.0039 0.565325 6.99519
208 4 13.8551 -0.664408 7.45044
129 3 15.1447 -0.321076 8.37877
323 2 11.7151 0.844138 4.10281
306 2 11.8675 3.55795 1.78186
52 1 6.494 5.94022 0.185288
330 2 11.686 5.03766 0.685131
65 2 10.4807 0.0579211 1.9832
321 2 8.40946 0.330284 0.683243
231 2 12.2788 4.4765 4.61663
277 2 13.6394 0.187513 13.8642
179 2 11.6337 4.40542 12.4541
33 4 7.22762 1.88705 14.2106
53 1 7.41809 1.99274 12.4079
63 2 7.44485 3.10512 12.1334
66 2 8.87484 0.99089 11.7283
309 2 11.3089 -0.1495 14.4957
314 2 13.3287 -1.33731 13.1693
100 2 8.72357 1.16903 13.4766
130 3 8.71015 -0.231313 9.43715
134 3 9.43528 0.490983 16.4493
141 3 7.78672 3.32166 15.0415
36 4 9.74757 0.593328 10.2107
25 4 8.28122 -0.174881 17.4596
101 2 10.1064 2.38777 14.4854
138 3 10.2373 1.91599 9.57282
103 2 10.3356 3.02539 16.9513
102 2 10.6183 3.87972 15.2104
86 2 6.81234 1.53403 8.84091
140 3 10.4164 4.44891 8.94992
155 1 11.9196 3.25931 12.9289
307 1 12.2265 -0.924178 13.1001
269 4 14.3874 -0.345327 15.3513
38 4 10.5817 1.10917 15.6205
308 2 9.1395 -1.36546 12.2209
178 2 11.3254 2.4903 12.4127
104 2 12.1513 3.43006 16.4274
54 1 11.0254 3.11731 16.0451
41 4 11.251 3.04627 9.39166
189 2 15.9564 -0.996094 17.0728
177 2 11.5523 3.2719 14.1348
305 2 12.0833 1.54878 16.5137
71 2 11.8379 3.37814 10.9401
39 4 12.3242 -0.0109781 11.4753
135 3 13.7174 0.0649916 10.6998
136 3 10.9669 -0.415478 10.7069
68 2 12.1283 0.923004 13.0883
165 2 13.454 2.29659 13.6263
92 2 6.18252 3.79473 8.89841
279 3 13.6458 -1.63357 16.0144
20 4 15.1678 0.288304 9.87574
107 2 7.13235 6.17724 3.25095
94 2 3.66779 6.40271 6.54209
297 2 3.52587 12.0255 0.98788
299 2 1.7493 11.1137 8.1067
298 1 0.936045 11.1267 7.31034
243 3 1.95193 9.43827 4.65041
292 2 3.16314 8.07079 0.673772
209 4 3.28463 9.84745 3.92898
236 2 2.30337 11.81 4.67037
300 2 1.05208 11.795 6.34814
216 1 3.22199 11.769 3.86568
237 2 3.26643 9.09002 2.28632
212 1 6.19289 10.3146 0.382239
51 1 3.53067 6.77998 5.43472
238 2 4.18618 12.3507 4.26677
265 2 3.98181 7.80326 5.29297
226 2 7.89986 10.3341 3.92579
223 2 2.89877 12.2188 2.74805
88 2 9.0467 9.02754 4.72189
171 2 4.71685 5.85331 8.03002
176 2 8.96257 7.37355 0.944347
61 2 7.66916 7.68349 4.2386
55 1 8.01386 6.7103 3.71216
105 2 8.75905 7.00141 2.78692
74 2 6.5824 6.56495 1.2638
218 2 5.95115 9.30293 1.51343
97 2 5.28668 7.0016 4.59303
222 2 3.96031 11.0735 8.30675
56 1 10.2256 6.86297 7.1439
219 2 5.06109 11.8725 3.33905
110 2 9.44128 7.72522 6.96722
205 4 6.30832 11.1875 2.16762
246 3 4.58861 9.51524 4.61714
211 4 5.52426 9.73434 5.92393
245 3 7.2926 9.1679 5.15663
248 3 5.71644 11.3599 6.17815
313 2 7.80403 9.52629 5.92727
247 3 5.04808 8.96614 7.19756
317 2 5.85794 12.0669 0.620949
154 1 10.0732 7.40027 1.25261
164 2 10.6693 6.90989 5.29464
225 2 7.49688 11.9649 6.11603
210 4 5.48814 8.60008 8.73278
229 2 8.3433 10.1593 2.10758
72 2 9.08495 7.07386 8.70955
329 2 10.1949 7.84781 2.33299
90 2 6.02541 5.54228 7.94108
174 2 8.51143 5.96569 4.48739
275 2 1.95737 9.85062 0.0944423
30 4 4.87 4.60737 16.8898
142 3 6.32801 5.21323 16.2096
239 2 5.14102 10.3926 10.2787
256 2 10.3153 5.17176 14.7924
315 2 6.85276 7.75986 17.2179
240 2 4.77468 7.11576 9.22963
268 4 4.35849 10.0367 16.8515
255 2 10.4009 6.88246 15.4271
289 2 6.7967 7.40271 12.4022
290 2 6.52254 8.30696 13.9655
241 2 3.62812 9.39232 9.94081
173 2 2.83585 11.1824 12.7565
287 1 7.16125 8.2846 13.0685
191 2 3.92331 10.0318 13.2036
272 2 3.96637 8.47822 16.1357
43 4 7.72073 4.42868 16.1426
160 1 4.17133 8.86616 13.1396
67 2 10.6433 6.51237 13.5221
73 2 9.11458 5.4767 16.1219
152 4 2.86335 7.63674 12.6904
172 2 4.42905 8.40688 14.1936
195 3 9.4618 8.51005 10.266
166 2 6.93383 5.35424 11.6777
181 2 10.3533 6.34424 11.844
224 2 7.42761 6.94181 10.7733
190 2 4.90036 8.56001 12.2648
217 1 4.49172 9.96864 9.54085
318 2 8.37927 9.22266 16.5109
260 2 6.90102 9.95213 14.0976
261 2 8.8748 8.02527 13.61
258 4 8.60703 9.74102 13.9128
257 2 8.91159 6.3188 14.4292
288 2 6.87343 9.21259 12.4566
251 1 10.0344 6.22798 14.532
147 4 8.48604 9.50545 9.45259
57 1 6.66846 6.10179 10.818
244 3 7.06429 8.7303 9.10595
168 2 8.11517 10.8243 10.395
328 2 5.65148 6.57718 10.9716
111 2 6.65418 5.47949 9.76101
296 2 2.62026 10.4923 17.3439
316 2 8.62653 7.80495 17.5351
ITEM: TIMESTEP
100
ITEM: NUMBER OF ATOMS
331
ITEM: BOX BOUNDS xy xz yz pp pp pp
-8.5331998514542668e+00 1.6992590935126586e+01 -8.6911536230583000e+00
-2.3082318705380849e+00 1.3000996215598949e+01 1.4418447067307354e+00
-1.5199799933352409e-02 1.7539999799933383e+01 -2.3940356549391200e+00
ITEM: ATOMS id type x y z
230 2 -2.95703 5.2241 2.75395
1 4 0.45685 2.84578 5.85913
2 4 0.905639 3.98073 2.88698
3 1 1.86305 3.50498 6.92111
8 2 1.2788 3.33205 7.94161
9 2 1.33212 1.32852 5.97059
10 2 1.80561 4.60925 6.51178
18 3 0.681502 3.43731 4.33362
83 2 1.7864 0.103771 7.25316
161 2 -0.523122 3.84745 1.82045
6 1 0.995314 2.82114 1.36285
15 2 2.48706 3.22317 1.91572
5 1 3.26502 0.687398 2.03529
12 2 3.80878 1.12959 2.92361
4 1 1.96917 -0.495655 6.23115
16 2 -1.08501 5.34624 3.4883
131 3 -0.992251 2.8314 6.5451
11 2 2.92145 3.03645 6.88167
17 2 0.575891 1.82961 1.70363
187 2 3.12618 4.86467 7.83747
14 2 2.38153 1.45631 1.75172
214 1 -2.16414 5.68995 3.60083
252 2 -2.03622 6.34182 0.0931316
95 2 2.98579 5.186 4.21371
89 2 3.97214 0.59308 1.16383
162 2 2.43696 0.157426 5.41904
13 2 1.53162 5.628 2.65843
79 2 5.11934 0.207197 2.35139
311 2 0.889084 3.11463 0.250759
118 3 7.35904 -0.0772416 6.49143
122 3 4.53501 2.11727 7.10327
27 4 4.37119 1.12618 8.31316
24 4 6.79089 0.36725 2.64782
47 1 4.60282 -0.670378 7.91304
184 2 -0.0665119 5.1646 7.77204
117 3 7.11941 0.82519 4.04534
267 3 3.82442 5.51454 0.11372
82 2 5.54655 -0.593959 7.29574
170 2 -0.739993 3.77595 8.93791
149 4 -0.212812 4.85992 10.4677
254 2 -1.83549 3.24111 16.3986
145 4 -1.88033 4.30378 12.9706
116 3 2.93286 1.21195 9.10686
250 1 -1.56446 4.10664 17.011
197 3 -0.911123 4.31213 11.7542
22 4 2.68027 0.463721 10.7132
23 4 2.87908 1.84712 13.3972
112 3 1.11531 -0.511495 10.6856
113 3 3.83696 -0.664529 10.9745
114 3 2.69311 1.63103 11.8443
77 2 2.68843 3.52067 13.8457
44 1 1.16412 2.35974 14.1191
76 2 1.0162 1.42637 14.9479
60 2 0.754644 3.28989 14.477
75 2 0.617676 2.03647 13.1226
198 3 1.3457 4.98812 10.2427
262 2 1.58817 -1.68882 16.1188
125 3 3.48827 0.812786 14.4339
278 2 1.47901 0.923259 16.6155
59 2 0.141826 1.90784 9.896
271 1 0.687364 0.0851647 16.4153
186 2 4.10809 4.68519 9.91303
322 2 7.51467 -1.53139 16.7322
121 3 4.68949 -1.32922 15.9356
119 3 5.35049 -0.983321 13.3757
84 2 5.93143 0.543587 10.0515
85 2 5.24497 2.18813 10.4071
29 4 4.84772 -0.0931814 14.6239
48 1 5.67124 1.48957 9.62429
120 3 6.00847 1.08958 14.8945
99 2 6.31857 1.29645 12.4274
310 2 0.916121 -0.598857 14.8987
188 2 7.39367 -1.55224 12.9428
189 2 0.711743 -0.722479 17.1694
183 2 -2.6368 5.25463 8.88918
291 1 2.599 7.22931 2.43118
221 2 -5.8046 10.9438 3.13806
169 2 -4.82433 10.6112 5.53404
143 4 -5.4657 11.1651 7.08249
213 1 -6.91735 10.8503 3.00289
228 2 -4.94889 10.0867 3.92952
220 2 -3.36914 9.52994 4.9339
49 1 -5.15701 8.99392 4.44786
167 2 -4.47758 8.83143 5.37581
144 4 -2.94121 6.20263 5.21372
274 2 -2.39409 7.35442 3.71864
80 2 -3.46411 11.2715 2.80173
329 2 -5.06272 8.06793 2.2368
87 2 -1.9586 11.8506 5.44265
193 3 -6.06071 10.1047 8.04466
285 2 -5.44116 12.1303 0.425102
286 2 -4.26266 10.8518 0.736654
200 3 -1.44082 10.4564 8.42666
158 1 3.72673 5.70085 8.47959
70 2 -3.88116 6.91524 0.150212
294 2 3.05696 6.53589 1.68766
45 1 -2.26547 11.0478 2.68282
293 2 2.94912 6.99478 3.51356
192 3 -2.05039 6.36421 6.47825
206 4 -2.02892 10.508 4.36655
324 2 0.792423 9.38885 7.05137
227 2 -5.00385 8.11769 3.60013
185 2 2.80201 7.06302 8.66855
93 2 2.40692 6.75969 5.08975
78 2 -0.812853 11.9263 1.92273
235 2 -0.53003 6.57795 4.31343
98 2 -2.08911 10.0094 2.14961
146 4 -1.15255 6.55224 7.72107
199 3 -0.595029 7.93011 8.29062
207 4 0.500967 8.78422 5.36276
215 1 0.434139 7.07357 4.74961
232 2 1.39785 7.23102 2.38421
233 2 0.797953 6.61304 5.78485
234 2 1.31587 7.19738 3.84069
242 3 -0.744915 9.61847 4.6769
26 4 -0.40752 11.6859 7.89639
7 2 -5.94424 12.5352 2.35143
312 2 -7.62342 12.414 2.82715
108 2 -4.15087 6.55884 8.05495
225 2 -7.70486 11.9341 5.88473
94 2 3.57738 6.24289 6.57466
156 1 -3.78943 6.99138 11.7321
127 3 3.54397 4.77251 15.9595
249 4 -0.800576 5.40752 15.811
126 3 0.798589 5.27863 15.763
159 1 -0.202588 11.0157 12.918
319 2 -2.99493 6.3327 11.2368
157 1 -1.47699 5.34785 9.04267
19 4 -4.71499 10.2748 16.3218
115 3 -6.09978 11.0175 13.1579
284 2 -4.52921 7.52895 16.9393
283 1 -3.86419 8.48745 16.6974
148 4 -4.16252 8.64656 10.7058
194 3 -1.51074 4.9595 14.4172
180 2 -3.44507 7.45143 12.6895
196 3 -3.96907 9.9376 11.7243
201 3 -3.02913 8.56257 9.61288
325 2 -3.96833 8.90272 15.1294
202 3 3.05698 6.54871 11.6425
303 2 -0.625752 9.69054 17.3938
204 3 1.27859 8.59314 12.3555
153 4 -0.083382 9.3031 12.0161
282 2 -0.143707 10.7044 15.243
259 1 -6.51101 10.2074 15.8303
280 4 -1.80233 8.39301 16.7605
281 2 -1.93382 9.89937 15.1157
150 4 2.70329 5.81355 10.1999
331 3 -1.31204 6.94051 16.3304
327 2 -1.3373 9.42388 13.1966
301 1 -0.745398 9.80067 15.5936
203 3 -0.668086 9.08451 10.623
34 4 2.33237 5.73237 15.7967
302 2 -0.171686 8.88873 15.1793
182 2 -1.0821 6.53429 10.3491
64 2 2.51883 6.73487 14.3044
151 4 -1.48953 9.10757 9.21955
270 1 2.69518 7.34856 16.7725
255 2 -4.76934 7.2336 15.3721
21 4 -4.58134 11.2817 12.2857
168 2 -6.95976 10.863 10.4084
81 2 -3.93603 11.6148 8.8449
62 2 1.64291 7.12424 17.4419
28 4 7.90789 1.16643 5.55558
31 4 5.94745 3.25379 6.4577
123 3 7.32353 2.59416 6.05991
124 3 5.35742 4.22384 5.36904
128 3 9.53802 0.982046 5.48567
263 4 5.19727 4.86264 0.85674
50 1 6.29295 4.48018 7.87213
96 2 4.98831 5.05635 2.57976
109 2 7.44969 4.4476 8.13093
266 3 5.79542 3.3748 0.573832
46 1 7.75132 1.44572 1.29858
91 2 9.80187 5.36586 6.22171
320 2 8.32956 1.99621 2.18751
40 4 9.6871 4.03341 2.82959
69 2 9.70425 3.55656 0.925032
295 1 10.6902 -0.0330322 0.972801
137 3 10.1716 2.89062 3.81048
42 4 9.38428 5.17675 8.01965
106 2 8.11691 4.79149 3.18299
32 4 4.73262 5.26662 4.36768
58 2 10.7049 5.50799 2.98312
35 4 10.755 1.82432 4.90547
90 2 5.95395 5.51324 7.45601
273 2 10.956 1.05551 1.14879
304 1 11.0862 4.44599 1.52585
37 4 12.7912 2.20203 7.06236
132 3 11.6817 2.56988 5.9198
139 3 12.4732 2.88096 8.47009
133 3 12.9132 0.551452 7.12333
208 4 13.8241 -0.710513 7.43317
129 3 14.9416 -0.273293 8.4851
323 2 11.7147 0.740639 3.97915
306 2 11.8676 3.69038 1.9411
52 1 6.56495 5.8591 0.109749
330 2 11.5108 5.16287 0.680779
231 2 12.2451 4.47283 4.60838
321 2 8.43799 0.720138 0.762232
92 2 5.6169 4.03122 8.67247
174 2 8.51534 5.93553 4.3791
277 2 13.6848 0.127895 14.0448
179 2 11.6877 4.74747 12.3574
33 4 7.35793 1.86601 14.3906
53 1 7.30605 1.78504 12.6177
63 2 7.31665 2.90351 12.3934
66 2 8.63674 1.1159 11.5269
309 2 11.4566 0.0858004 14.4654
314 2 13.3965 -1.35316 13.0492
100 2 8.6317 0.841375 13.5367
130 3 8.70338 -0.193672 9.15566
134 3 9.46661 0.440003 16.4965
141 3 7.77911 3.31801 14.897
36 4 9.67806 0.588636 10.1077
25 4 8.32422 -0.147937 17.4583
101 2 10.0201 2.24643 14.5431
138 3 10.228 1.92857 9.6431
103 2 10.2198 3.344 16.897
102 2 10.4152 3.94733 15.1674
86 2 6.55973 1.98997 9.02955
140 3 10.3481 4.34131 8.89867
155 1 11.8748 3.2254 12.924
307 1 12.3254 -0.953527 13.0651
269 4 14.4958 -0.546066 15.422
38 4 10.6561 1.09735 15.618
308 2 9.16441 -1.40104 12.03
178 2 11.0955 2.55788 12.3457
104 2 11.9496 3.59372 16.3099
54 1 10.8525 3.29256 15.9926
41 4 11.2145 3.09078 9.44914
264 2 8.8158 2.74099 17.2725
177 2 11.4751 3.27884 14.0747
305 2 12.087 1.84916 16.3408
71 2 11.8485 3.52145 10.9873
39 4 12.3074 -0.0783407 11.4341
135 3 13.7641 0.10969 10.7851
136 3 10.8925 -0.301987 10.6643
68 2 12.0883 0.935809 12.9619
165 2 13.412 2.39522 13.0843
276 2 14.5567 1.04997 16.418
279 3 13.8043 -1.80696 16.144
20 4 15.3042 0.202877 9.91948
326 2 8.97119 -1.71664 13.9678
173 2 11.4523 -1.66857 12.901
107 2 6.90252 6.25217 3.40489
229 2 8.30512 10.2229 2.03148
297 2 3.56942 11.9471 1.1221
299 2 1.87203 11.0791 8.16156
298 1 1.10111 10.8827 7.30471
243 3 1.91878 9.29249 4.64175
292 2 3.26265 8.06585 0.777715
209 4 3.2422 9.72914 3.93784
236 2 2.20028 11.6871 4.63128
300 2 1.32673 11.5368 6.37521
216 1 3.10797 11.6351 3.84502
237 2 3.17407 9.02465 2.28635
212 1 6.35538 10.3935 0.366255
51 1 3.50979 6.64326 5.40491
238 2 4.02996 12.0717 4.29643
265 2 4.13151 7.63326 5.29194
226 2 8.04648 10.3208 3.89468
223 2 2.74215 12.155 2.66861
88 2 9.13883 8.99297 4.74242
171 2 4.69484 5.97406 7.99029
176 2 8.74324 7.55456 1.26918
61 2 7.75351 7.71991 4.46657
55 1 7.93274 6.68713 3.76196
105 2 8.59022 7.00186 2.84958
65 2 1.33822 12.5719 1.84132
218 2 6.1739 9.44971 1.78085
97 2 5.30765 6.86014 4.61873
222 2 4.1289 10.9919 8.43684
56 1 10.2556 6.68008 7.43273
219 2 4.87087 11.5922 2.97958
110 2 9.82174 7.6658 7.52067
205 4 6.32767 11.3313 2.12181
246 3 4.61852 9.33911 4.53576
211 4 5.65836 9.88026 5.71455
245 3 7.4461 9.10692 5.26269
248 3 5.58068 11.4965 6.05336
313 2 7.50185 8.69704 6.19631
247 3 5.25532 8.90507 7.15328
317 2 5.86185 11.8942 0.333929
154 1 9.8737 7.47494 1.30805
164 2 10.7958 6.73235 5.63762
316 2 7.49042 10.3051 0.194487
210 4 5.47142 8.69289 8.7547
163 2 10.2293 7.87268 0.370295
175 2 10.2416 6.36652 1.35329
74 2 6.83774 6.44471 1.1257
72 2 8.93403 6.73495 8.73573
30 4 4.9056 4.64028 16.8965
142 3 6.22407 5.2306 16.2458
239 2 5.61178 10.3759 10.36
256 2 10.3173 5.36662 14.877
315 2 7.23515 7.44732 17.073
240 2 4.90725 7.04968 9.19031
268 4 4.35283 9.98747 16.9558
296 2 2.51224 10.3787 17.0435
289 2 6.84935 7.64104 12.0684
290 2 6.46545 8.58669 13.6314
241 2 4.03744 9.42422 10.4031
275 2 3.58931 7.35374 17.4646
287 1 7.19112 8.57045 12.7749
191 2 3.94889 9.97683 13.039
272 2 4.29896 8.40561 16.1975
43 4 7.68992 4.42722 16.0369
160 1 4.09308 8.7458 12.9888
67 2 10.7068 6.69836 13.5315
73 2 9.00387 5.5555 15.9536
152 4 2.67211 7.6431 12.7747
172 2 4.48339 8.32917 14.0096
195 3 9.61921 8.61366 10.2093
166 2 6.45323 5.40097 11.5341
181 2 10.5746 6.47719 11.8024
224 2 7.60838 6.5084 10.8357
190 2 4.73469 8.38096 12.0883
217 1 4.78261 9.97437 9.75269
318 2 8.47998 9.35034 16.553
260 2 6.78564 10.1647 13.8705
261 2 8.85703 8.10681 13.3463
258 4 8.50729 9.86969 13.9556
257 2 9.02818 6.71384 14.5035
288 2 6.96552 9.52711 12.1601
251 1 10.1384 6.48877 14.6047
147 4 8.65325 9.554 9.40116
57 1 6.60903 6.06303 10.7366
244 3 7.23922 8.9257 9.13997
253 2 2.61382 8.2528 16.1068
328 2 5.83603 6.83747 10.8337
111 2 6.53634 5.46014 9.77823
ITEM: TIMESTEP
200
ITEM: NUMBER OF ATOMS
331
ITEM: BOX BOUNDS xy xz yz pp pp pp
1.5795377160403223e-01 2.3687772172644507e+01 6.6951812375179216e+00
-2.3082318705380849e+00 1.3000996215598949e+01 1.4418447067307354e+00
-1.5199799933352409e-02 1.7539999799933383e+01 -2.3940356549391200e+00
ITEM: ATOMS id type x y z
82 2 5.73939 -0.600846 7.17763
267 3 3.83833 5.27656 0.0739932
117 3 7.26924 0.881677 3.95512
47 1 4.72742 -0.756149 7.78398
24 4 6.74278 0.436528 2.59519
27 4 4.23993 1.22342 8.38344
122 3 4.38774 2.17016 7.08974
118 3 7.25685 -0.173897 6.40739
83 2 1.62688 -0.121579 7.12671
79 2 5.04927 0.485127 2.56646
162 2 2.62149 0.105767 5.55186
15 2 2.33587 3.35244 2.1679
5 1 3.10099 0.880245 2.27222
12 2 3.65616 1.35949 3.16109
4 1 2.0318 -0.588509 6.19191
89 2 3.75988 0.729767 1.36045
14 2 2.21628 1.57049 1.97541
58 2 10.5731 5.67051 2.92625
28 4 7.92067 1.07528 5.70147
32 4 4.61575 5.22296 4.2869
92 2 5.39469 3.93741 8.44376
31 4 5.91715 3.16086 6.37008
123 3 7.36221 2.50314 6.30852
124 3 5.3543 4.09114 5.16666
52 1 6.60332 6.05605 0.17661
263 4 5.253 4.85592 0.793234
50 1 6.26573 4.34247 7.73476
96 2 4.92752 5.00012 2.57116
109 2 7.6692 4.16052 8.24699
266 3 5.98487 3.47696 0.450511
46 1 7.613 1.48492 1.19541
91 2 9.55643 5.07949 6.27195
320 2 7.97625 2.22308 2.02363
40 4 9.60071 4.06361 2.91094
69 2 9.51318 3.71024 1.03696
106 2 8.04282 4.77053 3.07984
42 4 9.31387 5.11653 8.11559
90 2 6.10785 5.40489 7.39778
11 2 2.92046 3.15316 6.96394
7 2 2.69078 -0.238235 2.5646
175 2 10.163 6.43515 1.2157
264 2 7.53635 5.54307 0.10654
188 2 7.24878 -1.4189 12.7454
99 2 6.3198 1.25715 12.2769
120 3 6.17664 0.902613 14.9907
48 1 5.6359 1.66928 9.46779
116 3 2.7439 1.11939 9.1528
29 4 4.8937 -0.0440555 14.6706
85 2 5.1207 2.0705 10.4066
22 4 2.52025 0.431587 10.7334
84 2 6.11267 0.617248 9.68063
119 3 5.31686 -0.693795 13.147
113 3 3.7852 -0.719373 10.8294
121 3 4.69958 -1.34771 15.93
322 2 7.32283 -1.38983 16.6337
186 2 4.27127 4.64268 9.95084
125 3 3.47357 0.769997 14.4598
38 4 10.7242 1.24627 15.6401
33 4 7.3339 1.86422 14.3244
140 3 10.4059 4.40605 9.03258
53 1 7.37818 1.71069 12.5407
63 2 7.54761 2.77156 12.1252
66 2 8.65981 0.73359 11.5245
100 2 8.71668 0.936395 13.4633
130 3 8.87247 -0.321317 9.09532
134 3 9.5597 0.517595 16.4487
141 3 7.76757 3.32971 14.9262
25 4 8.25587 -0.117079 17.3607
101 2 9.9854 2.41824 14.5309
138 3 10.2302 1.89788 9.7256
177 2 11.4547 3.27611 14.0914
178 2 11.0959 2.60086 12.424
103 2 10.2134 3.39072 16.9387
54 1 10.8517 3.37611 15.9798
104 2 11.9295 3.76729 16.2358
102 2 10.3555 3.99811 15.1444
86 2 6.43182 2.37323 9.11161
326 2 8.49646 -1.62147 14.0963
179 2 11.6679 4.86613 12.5153
225 2 7.94883 11.7133 5.6089
221 2 9.67684 11.1108 3.3487
169 2 10.6353 10.4011 5.50557
143 4 10.1178 11.1338 7.0112
213 1 8.52214 10.9013 2.97386
228 2 10.4721 10.0536 3.75606
220 2 11.98 9.44114 4.81787
49 1 10.1407 8.97324 4.18256
167 2 10.7098 8.6845 5.20189
108 2 10.9208 6.85648 7.67173
312 2 7.74212 12.4937 2.80629
80 2 12.1477 11.3508 2.75294
329 2 9.92463 8.18576 1.98067
87 2 13.284 11.779 5.32288
193 3 9.29516 10.2745 8.06191
285 2 9.63313 12.0863 0.510624
286 2 11.3029 11.0471 0.785216
200 3 13.9846 10.4893 8.13706
174 2 8.61078 6.13708 4.40297
26 4 15.0361 11.7249 7.86117
98 2 13.3776 10.0454 2.16164
45 1 13.2826 11.1348 2.69128
227 2 10.3425 8.15506 3.28124
206 4 13.3488 10.3388 4.38226
70 2 11.2644 6.8816 0.0660439
72 2 8.75081 6.73324 8.56642
74 2 6.5554 6.7094 1.17849
163 2 9.88521 7.91913 0.0920619
229 2 8.56593 10.2611 2.01503
107 2 7.06015 6.14187 3.45607
164 2 10.2915 6.35846 5.43776
154 1 9.59845 7.50369 1.04208
212 1 6.40884 10.1863 0.388656
226 2 8.03152 10.2755 3.84784
313 2 7.83762 9.55666 5.87871
88 2 9.07382 9.01797 4.50443
245 3 7.35022 9.19414 5.09236
171 2 4.92528 5.91446 8.0767
176 2 8.50368 7.40196 1.05066
205 4 6.52946 11.3416 2.08715
110 2 9.15276 7.56635 7.09523
61 2 7.65345 7.68621 4.24051
56 1 9.95021 6.68338 7.07469
55 1 7.96091 6.68713 3.70541
97 2 5.30472 6.79327 4.5669
218 2 6.12226 9.29137 1.17435
105 2 8.59103 7.01802 2.70453
156 1 11.5844 7.0617 11.6422
81 2 11.5011 11.5646 8.78746
168 2 8.30207 10.937 10.2531
21 4 10.9604 11.3269 12.2653
159 1 14.9668 11.1336 12.9965
319 2 12.3013 6.30683 11.132
255 2 10.776 7.29541 15.4888
19 4 10.6726 10.2129 16.2462
115 3 9.38941 10.8913 13.1144
284 2 10.9731 7.64614 17.0964
283 1 11.5705 8.51823 16.8863
148 4 11.3472 8.65477 10.5764
73 2 8.93208 5.73902 15.8059
180 2 12.1027 7.58871 12.5384
196 3 11.4865 9.89928 11.9194
201 3 12.4645 8.6948 9.29295
325 2 11.5233 8.85186 15.1747
301 1 14.5268 9.90682 15.5977
303 2 14.8985 9.44767 17.3427
327 2 14.1155 9.39513 13.2341
281 2 13.329 10.1359 15.2939
282 2 15.1883 10.8811 15.4233
259 1 8.89179 10.0258 15.778
280 4 13.5274 8.41769 16.7059
142 3 6.20663 5.14069 16.3332
111 2 6.602 5.36387 9.58102
328 2 5.81621 6.55002 10.9279
256 2 10.3821 5.35846 14.8129
244 3 7.29658 8.78778 9.14065
57 1 6.75157 6.04533 10.5662
147 4 8.67593 9.54776 9.36946
251 1 10.3003 6.52834 14.6122
288 2 7.35456 9.43224 11.9599
257 2 9.21838 6.77177 14.5077
258 4 8.42902 9.93278 13.9424
261 2 8.70618 8.11445 13.5202
315 2 7.04138 7.84027 17.1722
318 2 8.44811 9.20325 16.4807
289 2 7.04181 7.64798 11.8401
287 1 7.27621 8.52491 12.6731
224 2 7.50171 6.8284 10.3409
181 2 10.6209 6.66668 11.8551
166 2 7.13275 5.28147 11.3736
195 3 9.73566 8.65196 10.0625
43 4 7.75624 4.4559 16.0704
67 2 10.8046 6.80836 13.558
316 2 8.88883 7.69043 17.4665
321 2 8.43173 0.869893 0.724321
231 2 12.0555 4.4794 4.59918
330 2 11.4162 5.21965 0.719866
306 2 11.6942 3.78049 1.91911
128 3 9.48388 0.908957 5.55539
323 2 11.6295 0.780112 3.88542
129 3 15.1236 -0.284513 8.41864
208 4 13.8219 -0.697264 7.50418
133 3 12.7356 0.452354 7.28015
139 3 12.4494 2.68003 8.60267
132 3 11.7264 2.46454 5.87374
37 4 12.7681 2.10232 7.14033
304 1 10.9135 4.56887 1.58743
273 2 11.1553 0.798976 0.984364
35 4 10.7071 1.76707 4.93203
187 2 18.6498 4.98695 7.8121
137 3 10.1249 2.935 3.94347
230 2 12.2802 5.32613 2.84538
1 4 15.877 2.81384 6.03807
2 4 16.3013 4.06606 2.89699
3 1 17.2179 3.67659 6.9507
184 2 15.4823 5.12485 7.75059
8 2 16.6716 3.62347 8.03325
9 2 16.7732 1.25697 6.02422
10 2 17.1499 4.74744 6.53866
18 3 15.9591 3.51091 4.40248
161 2 14.8862 3.81351 1.52909
311 2 16.4483 2.79756 0.393364
6 1 16.0823 2.80771 1.45846
13 2 16.4986 5.83158 2.68026
16 2 14.1043 5.56044 3.50745
131 3 14.4115 2.68715 6.69588
95 2 18.2406 5.15647 4.48647
252 2 13.2271 6.48895 0.224838
214 1 13.015 5.80442 3.66552
17 2 15.855 1.79801 1.97642
277 2 13.4373 0.119417 14.2634
278 2 16.9715 0.849872 16.3564
20 4 15.0539 0.218894 9.96056
279 3 13.9074 -1.791 16.1974
276 2 14.6972 0.936239 16.8653
165 2 13.4263 2.41898 13.0877
309 2 11.7232 0.180417 14.6581
314 2 13.2346 -1.45874 13.2101
68 2 12.1311 1.01372 12.8813
136 3 10.9099 -0.380954 10.6778
135 3 13.6842 0.0461285 10.7318
39 4 12.2763 -0.101599 11.4608
36 4 9.72087 0.509122 10.1323
71 2 11.8572 3.43633 11.0095
305 2 11.8971 1.88109 16.7543
41 4 11.1252 3.08062 9.44733
75 2 15.9054 2.45321 13.4767
308 2 9.2245 -1.26161 12.2363
269 4 14.4851 -0.474422 15.5847
307 1 12.2215 -0.866647 13.1568
155 1 11.7912 3.19331 12.9543
170 2 14.5604 3.8457 8.84982
198 3 16.825 4.90008 10.2831
189 2 16.4029 -0.762752 17.1467
149 4 15.221 4.92095 10.4986
310 2 16.1306 -0.658777 14.6993
254 2 13.6511 3.26535 16.4391
145 4 13.4897 4.2823 12.9793
250 1 13.7512 4.15098 17.0623
197 3 14.4139 4.37335 11.724
23 4 18.0756 1.73028 13.4851
112 3 16.4152 -0.459607 10.7362
60 2 16.4827 3.67741 14.8854
77 2 18.2853 3.38322 14.0085
44 1 16.6226 2.61913 14.4108
76 2 16.4086 1.63093 15.3401
271 1 16.1771 0.0337816 16.3806
59 2 15.3919 1.86604 9.79797
157 1 13.9375 5.26722 8.94571
262 2 16.9664 -1.71613 16.0232
173 2 11.3463 -1.59982 13.0478
114 3 18.0412 1.59748 11.9526
183 2 12.7828 5.26111 8.77619
210 4 21.069 8.82619 8.76954
317 2 21.6844 12.1523 0.55639
297 2 18.7705 11.5625 1.11439
299 2 17.3858 11.2624 7.84277
298 1 16.5397 10.9621 7.17798
243 3 17.3446 9.33744 4.60634
292 2 18.6918 7.86603 0.961407
209 4 18.679 9.80329 3.8276
236 2 17.7177 11.726 4.59796
300 2 16.5173 11.4375 6.10692
216 1 18.6376 11.6893 3.76449
237 2 18.6223 8.85741 2.28103
247 3 20.7398 9.20405 7.25429
51 1 18.957 6.68658 5.48345
238 2 19.5629 12.27 4.15813
265 2 19.4183 7.68881 5.17675
248 3 20.9223 11.5548 6.03175
223 2 18.1902 12.1065 2.68066
211 4 21.012 9.9517 5.80926
246 3 20.0886 9.3588 4.59469
219 2 20.5015 11.3984 2.9807
222 2 19.6057 10.9485 8.55552
65 2 16.5391 12.6315 1.67782
291 1 17.9251 7.13054 2.47182
94 2 19.1721 6.33277 6.59244
144 4 12.2405 6.16587 5.25381
274 2 12.5689 7.46548 3.83517
158 1 19.2806 5.69606 8.5256
324 2 16.2146 9.31985 7.15127
294 2 18.3819 6.31393 1.81401
242 3 14.6661 9.59513 4.80352
234 2 16.6325 7.2231 3.87594
233 2 16.22 6.71678 5.86373
232 2 16.8547 7.22982 2.40197
215 1 15.8349 7.14992 4.80486
207 4 16.0254 8.88195 5.36105
199 3 14.8418 7.79592 8.29956
146 4 14.3399 6.4629 7.60402
293 2 18.3163 7.02029 3.54532
235 2 14.7582 6.73135 4.47778
78 2 14.264 12.0154 1.58107
93 2 17.8053 6.75099 5.27922
295 1 17.3741 12.6779 0.929262
192 3 13.2875 6.26831 6.42474
185 2 18.5075 6.97667 8.70612
30 4 20.3407 4.44108 17.0547
253 2 18.0241 8.02648 15.9402
239 2 20.5843 10.428 10.5132
260 2 22.1449 10.268 13.6003
217 1 19.9351 9.93313 9.66862
240 2 20.2999 7.26143 9.03676
268 4 19.744 9.71297 16.923
296 2 17.9286 10.0129 17.0318
190 2 20.0083 8.54769 11.9305
290 2 21.6812 8.62167 13.3409
241 2 19.1169 9.2188 9.97608
275 2 19.0631 7.06576 17.3953