ITEM: TIMESTEP
0
ITEM: NUMBER OF ATOMS
331
ITEM: BOX BOUNDS xy xz yz pp pp pp
-8.5267422552386698e+00 1.6992590935126586e+01 -8.6846960268427011e+00
-2.3082318705380849e+00 1.3000996215598949e+01 1.4418447067307354e+00
-1.5199799933352409e-02 1.7539999799933383e+01 -2.3940356549391200e+00
ITEM: ATOMS id type x y z
230 2 -2.89547 5.15223 2.70097
1 4 0.637337 2.81357 5.67637
2 4 1.11767 4.08506 2.59196
3 1 1.94326 3.42056 6.84853
8 2 1.33008 3.29396 7.80906
9 2 1.12541 1.16554 5.63428
10 2 1.93372 4.52966 6.51883
18 3 0.806467 3.53849 4.24305
83 2 1.96352 0.243381 7.10362
161 2 -0.336064 3.93092 1.41911
6 1 0.991589 2.71209 1.3642
15 2 2.61531 3.25256 1.71849
5 1 3.28244 0.627188 2.18754
12 2 3.87719 1.01457 3.044
4 1 1.83914 -0.603959 6.19252
16 2 -1.12962 5.28877 3.50145
131 3 -0.885035 2.84327 6.38445
11 2 2.99522 2.96653 6.95367
17 2 0.63393 1.71464 1.83207
187 2 2.99233 4.83011 7.90623
14 2 2.44328 1.38057 1.93546
214 1 -2.1834 5.63868 3.51313
266 3 5.65678 3.31035 0.470283
95 2 2.94869 5.26489 4.4093
89 2 3.91822 0.553177 1.25169
162 2 2.27136 -0.254969 5.21174
13 2 1.4335 5.80242 2.38977
79 2 5.13605 -0.00259682 2.36063
311 2 0.889071 2.6268 0.185637
118 3 7.4054 -0.0643143 6.59702
122 3 4.68203 2.09259 7.18913
27 4 4.54304 1.10151 8.42767
24 4 6.87109 0.145533 2.66463
47 1 4.66002 -0.782307 7.8707
184 2 -0.113605 5.20234 7.84176
117 3 7.15354 0.734437 4.04433
82 2 5.46914 -0.717463 7.05958
170 2 -0.799485 3.7876 8.92482
149 4 -0.296436 4.75799 10.449
254 2 -1.64366 3.18773 16.1945
145 4 -1.68307 3.93402 13.1276
116 3 3.06857 1.17617 9.22227
250 1 -1.35423 4.01573 16.962
197 3 -0.920647 4.18994 11.768
22 4 2.65181 0.472444 10.7101
23 4 2.82023 1.81178 13.4049
112 3 1.04453 -0.381759 10.7166
113 3 3.97339 -0.501724 11.1161
114 3 2.80067 1.83107 11.807
77 2 2.50628 3.36367 14.2275
44 1 1.04197 2.07722 14.0456
76 2 0.899549 1.32586 14.9646
60 2 0.769088 3.2249 14.3137
75 2 0.459492 1.62847 13.1166
267 3 5.23085 3.11181 17.4393
262 2 1.67148 -1.75802 16.0063
125 3 3.57832 0.784829 14.3737
278 2 1.60104 0.454532 16.5222
59 2 0.112314 1.95298 9.61215
271 1 0.655057 -0.0977493 16.3089
186 2 3.94761 4.4758 9.86077
322 2 7.3791 -1.45053 16.7094
121 3 4.59181 -1.08285 16.2086
119 3 5.07712 -1.03287 13.4078
84 2 6.08462 0.623716 10.3951
85 2 5.79949 2.55335 10.1244
29 4 4.87342 -0.108501 14.7758
48 1 5.97706 1.54111 9.60242
120 3 6.18605 0.867986 14.8557
99 2 6.48523 1.42537 12.033
310 2 0.747741 -0.730656 14.6673
183 2 -2.79427 5.31205 8.8106
276 2 -0.550322 1.14134 16.5419
326 2 8.91856 -1.80697 14.1026
198 3 1.22273 5.14417 10.2449
188 2 7.40543 -1.64652 12.8428
252 2 -0.330371 3.84593 17.4179
291 1 2.56853 7.38171 2.38665
221 2 -5.89563 11.0636 3.25835
169 2 -5.32571 10.7131 5.51567
143 4 -5.49056 11.2783 7.10237
213 1 -7.01874 10.8985 3.03628
228 2 -4.97283 10.1037 3.90482
220 2 -3.43982 9.5929 5.0225
49 1 -5.21419 9.07085 4.42106
167 2 -4.60021 8.89035 5.36515
144 4 -3.08616 6.26116 5.07594
274 2 -2.36816 7.23995 3.5451
80 2 -3.35662 10.6081 2.68147
62 2 0.156837 9.34397 0.0251504
87 2 -1.71054 11.7959 5.53888
193 3 -6.15003 10.0037 8.14584
285 2 -5.8969 11.7715 0.315122
286 2 -4.40869 10.9921 0.758989
200 3 -1.5053 10.4658 8.56042
158 1 3.61419 5.70135 8.49545
70 2 -3.72758 6.89909 0.103134
294 2 3.06161 6.60538 1.68316
45 1 -2.21318 10.9537 2.79636
293 2 2.90871 7.12878 3.49012
192 3 -2.19136 6.49204 6.35042
206 4 -2.00486 10.4117 4.44471
324 2 0.392319 9.46601 6.92659
227 2 -5.05173 8.20404 3.69984
163 2 -4.71521 8.07506 0.481254
93 2 2.39669 6.85433 5.16647
78 2 -0.632976 11.7996 2.0793
235 2 -0.655094 6.66165 4.30464
98 2 -1.45388 10.3117 2.233
146 4 -1.2667 6.55151 7.63845
199 3 -0.76795 7.98096 8.42894
207 4 0.521536 8.85823 5.2544
215 1 0.385927 7.11638 4.68102
232 2 1.4839 7.45616 2.25083
233 2 0.766155 6.6672 5.70958
234 2 1.22173 7.0827 3.78058
242 3 -0.792295 9.4837 4.47159
26 4 -0.488672 11.7928 8.13649
7 2 -5.98125 12.532 2.44294
312 2 -7.70051 12.4103 2.68112
108 2 -4.18668 7.17094 7.62593
185 2 2.88659 7.00634 8.54006
81 2 -3.72022 11.4903 8.7606
156 1 -3.96878 6.88051 11.6713
127 3 3.53689 4.7734 15.925
249 4 -0.861645 5.42732 15.7954
126 3 0.813398 5.36148 15.9089
159 1 -0.192795 10.9708 13.0086
319 2 -3.31942 6.25098 11.0358
21 4 -4.55951 11.3139 12.2499
19 4 -4.7063 10.3185 16.1958
115 3 -5.97144 10.793 12.9977
284 2 -4.261 7.66215 16.408
283 1 -3.71209 8.60193 16.5848
148 4 -4.25792 8.54844 10.7677
194 3 -1.47727 4.99364 14.3795
180 2 -3.47818 7.23522 12.6144
196 3 -3.88479 9.67833 11.737
201 3 -3.13332 8.52411 9.38901
325 2 -3.70426 9.40548 14.9308
202 3 3.26531 6.74515 11.3664
303 2 -0.46594 9.50956 17.5242
204 3 1.48084 8.52867 12.4916
153 4 0.0899417 9.28903 12.1323
282 2 0.0865239 10.7974 15.4294
259 1 -6.50812 10.0943 15.7949
280 4 -1.87951 8.44222 16.8219
281 2 -1.75464 10.1696 15.3777
150 4 2.69964 5.71416 10.2056
331 3 -1.45991 6.82051 16.4578
327 2 -1.04596 9.2319 13.4291
301 1 -0.662085 9.90033 15.7492
203 3 -0.676058 9.12633 10.7954
34 4 2.36255 5.79959 15.7441
302 2 -0.29948 8.94277 15.1632
182 2 -1.39356 6.46985 10.2438
64 2 2.59563 6.71585 14.2123
151 4 -1.61415 9.06277 9.28297
270 1 2.53147 7.30754 16.9732
253 2 2.2431 8.19565 16.3664
157 1 -1.6035 5.4099 9.05721
28 4 7.87687 1.21911 5.59352
31 4 6.00531 3.33335 6.61497
123 3 7.39935 2.60508 6.29388
124 3 5.39338 4.30992 5.3545
128 3 9.51488 1.11382 5.43753
263 4 5.12004 4.82844 0.755924
50 1 6.53466 4.46541 7.97722
96 2 4.94932 5.10777 2.59204
109 2 7.7686 4.55351 7.88636
264 2 7.25289 5.00264 0.0206844
46 1 7.69647 1.11088 1.09475
91 2 10.0258 5.41194 6.17472
320 2 8.31754 2.02166 1.58443
40 4 9.69632 4.13402 2.81706
69 2 9.88732 3.62469 0.866252
295 1 11.0811 0.243495 1.06919
137 3 10.1768 3.03131 3.7751
42 4 9.54535 5.43425 8.05252
106 2 8.13816 4.84183 3.12421
32 4 4.72086 5.35284 4.39141
58 2 10.7811 5.5633 2.81637
35 4 10.6937 2.00563 4.88149
175 2 10.4796 6.2869 1.25471
273 2 11.5234 1.35199 0.982046
304 1 11.1587 4.34617 1.4454
37 4 12.8451 2.1852 6.95504
132 3 11.6262 2.6773 5.99487
139 3 12.5187 2.69996 8.50984
133 3 13.0039 0.565325 6.99519
208 4 13.8551 -0.664408 7.45044
129 3 15.1447 -0.321076 8.37877
323 2 11.7151 0.844138 4.10281
306 2 11.8675 3.55795 1.78186
52 1 6.494 5.94022 0.185288
330 2 11.686 5.03766 0.685131
65 2 10.4807 0.0579211 1.9832
321 2 8.40946 0.330284 0.683243
231 2 12.2788 4.4765 4.61663
277 2 13.6394 0.187513 13.8642
179 2 11.6337 4.40542 12.4541
33 4 7.22762 1.88705 14.2106
53 1 7.41809 1.99274 12.4079
63 2 7.44485 3.10512 12.1334
66 2 8.87484 0.99089 11.7283
309 2 11.3089 -0.1495 14.4957
314 2 13.3287 -1.33731 13.1693
100 2 8.72357 1.16903 13.4766
130 3 8.71015 -0.231313 9.43715
134 3 9.43528 0.490983 16.4493
141 3 7.78672 3.32166 15.0415
36 4 9.74757 0.593328 10.2107
25 4 8.28122 -0.174881 17.4596
101 2 10.1064 2.38777 14.4854
138 3 10.2373 1.91599 9.57282
103 2 10.3356 3.02539 16.9513
102 2 10.6183 3.87972 15.2104
86 2 6.81234 1.53403 8.84091
140 3 10.4164 4.44891 8.94992
155 1 11.9196 3.25931 12.9289
307 1 12.2265 -0.924178 13.1001
269 4 14.3874 -0.345327 15.3513
38 4 10.5817 1.10917 15.6205
308 2 9.1395 -1.36546 12.2209
178 2 11.3254 2.4903 12.4127
104 2 12.1513 3.43006 16.4274
54 1 11.0254 3.11731 16.0451
41 4 11.251 3.04627 9.39166
189 2 15.9564 -0.996094 17.0728
177 2 11.5523 3.2719 14.1348
305 2 12.0833 1.54878 16.5137
71 2 11.8379 3.37814 10.9401
39 4 12.3242 -0.0109781 11.4753
135 3 13.7174 0.0649916 10.6998
136 3 10.9669 -0.415478 10.7069
68 2 12.1283 0.923004 13.0883
165 2 13.454 2.29659 13.6263
92 2 6.18252 3.79473 8.89841
279 3 13.6458 -1.63357 16.0144
20 4 15.1678 0.288304 9.87574
107 2 7.13235 6.17724 3.25095
94 2 3.66779 6.40271 6.54209
297 2 3.52587 12.0255 0.98788
299 2 1.7493 11.1137 8.1067
298 1 0.936045 11.1267 7.31034
243 3 1.95193 9.43827 4.65041
292 2 3.16314 8.07079 0.673772
209 4 3.28463 9.84745 3.92898
236 2 2.30337 11.81 4.67037
300 2 1.05208 11.795 6.34814
216 1 3.22199 11.769 3.86568
237 2 3.26643 9.09002 2.28632
212 1 6.19289 10.3146 0.382239
51 1 3.53067 6.77998 5.43472
238 2 4.18618 12.3507 4.26677
265 2 3.98181 7.80326 5.29297
226 2 7.89986 10.3341 3.92579
223 2 2.89877 12.2188 2.74805
88 2 9.0467 9.02754 4.72189
171 2 4.71685 5.85331 8.03002
176 2 8.96257 7.37355 0.944347
61 2 7.66916 7.68349 4.2386
55 1 8.01386 6.7103 3.71216
105 2 8.75905 7.00141 2.78692
74 2 6.5824 6.56495 1.2638
218 2 5.95115 9.30293 1.51343
97 2 5.28668 7.0016 4.59303
222 2 3.96031 11.0735 8.30675
56 1 10.2256 6.86297 7.1439
219 2 5.06109 11.8725 3.33905
110 2 9.44128 7.72522 6.96722
205 4 6.30832 11.1875 2.16762
246 3 4.58861 9.51524 4.61714
211 4 5.52426 9.73434 5.92393
245 3 7.2926 9.1679 5.15663
248 3 5.71644 11.3599 6.17815
313 2 7.80403 9.52629 5.92727
247 3 5.04808 8.96614 7.19756
317 2 5.85794 12.0669 0.620949
154 1 10.0732 7.40027 1.25261
164 2 10.6693 6.90989 5.29464
225 2 7.49688 11.9649 6.11603
210 4 5.48814 8.60008 8.73278
229 2 8.3433 10.1593 2.10758
72 2 9.08495 7.07386 8.70955
329 2 10.1949 7.84781 2.33299
90 2 6.02541 5.54228 7.94108
174 2 8.51143 5.96569 4.48739
275 2 1.95737 9.85062 0.0944423
30 4 4.87 4.60737 16.8898
142 3 6.32801 5.21323 16.2096
239 2 5.14102 10.3926 10.2787
256 2 10.3153 5.17176 14.7924
315 2 6.85276 7.75986 17.2179
240 2 4.77468 7.11576 9.22963
268 4 4.35849 10.0367 16.8515
255 2 10.4009 6.88246 15.4271
289 2 6.7967 7.40271 12.4022
290 2 6.52254 8.30696 13.9655
241 2 3.62812 9.39232 9.94081
173 2 2.83585 11.1824 12.7565
287 1 7.16125 8.2846 13.0685
191 2 3.92331 10.0318 13.2036
272 2 3.96637 8.47822 16.1357
43 4 7.72073 4.42868 16.1426
160 1 4.17133 8.86616 13.1396
67 2 10.6433 6.51237 13.5221
73 2 9.11458 5.4767 16.1219
152 4 2.86335 7.63674 12.6904
172 2 4.42905 8.40688 14.1936
195 3 9.4618 8.51005 10.266
166 2 6.93383 5.35424 11.6777
181 2 10.3533 6.34424 11.844
224 2 7.42761 6.94181 10.7733
190 2 4.90036 8.56001 12.2648
217 1 4.49172 9.96864 9.54085
318 2 8.37927 9.22266 16.5109
260 2 6.90102 9.95213 14.0976
261 2 8.8748 8.02527 13.61
258 4 8.60703 9.74102 13.9128
257 2 8.91159 6.3188 14.4292
288 2 6.87343 9.21259 12.4566
251 1 10.0344 6.22798 14.532
147 4 8.48604 9.50545 9.45259
57 1 6.66846 6.10179 10.818
244 3 7.06429 8.7303 9.10595
168 2 8.11517 10.8243 10.395
328 2 5.65148 6.57718 10.9716
111 2 6.65418 5.47949 9.76101
296 2 2.62026 10.4923 17.3439
316 2 8.62653 7.80495 17.5351
ITEM: TIMESTEP
100
ITEM: NUMBER OF ATOMS
331
ITEM: BOX BOUNDS xy xz yz pp pp pp
-8.5223999072252461e+00 1.6984173616544830e+01 -8.6803536788292792e+00
-2.3082318705380849e+00 1.3000996215598949e+01 1.4411237843773712e+00
-1.5199799933352409e-02 1.7539999799933383e+01 -2.3940356549391200e+00
ITEM: ATOMS id type x y z
230 2 -2.95272 5.2241 2.75395
1 4 0.45848 2.84578 5.85913
2 4 0.90741 3.98073 2.88698
3 1 1.86438 3.50498 6.92111
8 2 1.28041 3.33205 7.94161
9 2 1.33256 1.32852 5.97059
10 2 1.80749 4.60925 6.51178
18 3 0.683212 3.43731 4.33362
83 2 1.78609 0.103771 7.25316
161 2 -0.520776 3.84745 1.82045
6 1 0.996356 2.82114 1.36285
15 2 2.4876 3.22317 1.91572
5 1 3.2639 0.687398 2.03529
12 2 3.80768 1.12959 2.92361
4 1 1.9684 -0.495655 6.23115
16 2 -1.08152 5.34624 3.4883
131 3 -0.989857 2.8314 6.5451
11 2 2.92201 3.03645 6.88167
17 2 0.57667 1.82961 1.70363
187 2 3.12762 4.86467 7.83747
14 2 2.38122 1.45631 1.75172
214 1 -2.15993 5.68995 3.60083
252 2 -2.03199 6.34182 0.0931316
95 2 2.98721 5.186 4.21371
89 2 3.97057 0.59308 1.16383
162 2 2.43622 0.157426 5.41904
13 2 1.53388 5.628 2.65843
79 2 5.11708 0.207197 2.35139
311 2 0.89025 3.11463 0.250759
118 3 7.35581 -0.0772416 6.49143
122 3 4.53432 2.11727 7.10327
27 4 4.37017 1.12618 8.31316
24 4 6.7879 0.36725 2.64782
47 1 4.60076 -0.670378 7.91304
184 2 -0.0633308 5.1646 7.77204
117 3 7.11658 0.82519 4.04534
267 3 3.8253 5.51454 0.11372
82 2 5.54401 -0.593959 7.29574
170 2 -0.73709 3.77595 8.93791
149 4 -0.209526 4.85992 10.4677
254 2 -1.83179 3.24111 16.3986
145 4 -1.87632 4.30378 12.9706
116 3 2.93266 1.21195 9.10686
250 1 -1.56043 4.10664 17.011
197 3 -0.907674 4.31213 11.7542
22 4 2.67993 0.463721 10.7132
23 4 2.87951 1.84712 13.3972
112 3 1.11526 -0.511495 10.6856
113 3 3.8355 -0.664529 10.9745
114 3 2.69342 1.63103 11.8443
77 2 2.68983 3.52067 13.8457
44 1 1.16572 2.35974 14.1191
76 2 1.01746 1.42637 14.9479
60 2 0.756934 3.28989 14.477
75 2 0.619316 2.03647 13.1226
198 3 1.34826 4.98812 10.2427
262 2 1.58767 -1.68882 16.1188
125 3 3.48795 0.812786 14.4339
278 2 1.4799 0.923259 16.6155
59 2 0.14342 1.90784 9.896
271 1 0.688218 0.0851647 16.4153
186 2 4.10909 4.68519 9.91303
322 2 7.51133 -1.53139 16.7322
121 3 4.6876 -1.32922 15.9356
119 3 5.34827 -0.983321 13.3757
84 2 5.92946 0.543587 10.0515
85 2 5.24419 2.18813 10.4071
29 4 4.84629 -0.0931814 14.6239
48 1 5.66984 1.48957 9.62429
120 3 6.00706 1.08958 14.8945
99 2 6.31694 1.29645 12.4274
310 2 0.916416 -0.598857 14.8987
188 2 7.39012 -1.55224 12.9428
189 2 0.712234 -0.722479 17.1694
183 2 -2.63221 5.25463 8.88918
291 1 2.60151 7.22931 2.43118
221 2 -5.79598 10.9438 3.13806
169 2 -4.8162 10.6112 5.53404
143 4 -5.45687 11.1651 7.08249
213 1 -6.90823 10.8503 3.00289
228 2 -4.94107 10.0867 3.92952
220 2 -3.36232 9.52994 4.9339
49 1 -5.1496 8.99392 4.44786
167 2 -4.47052 8.83143 5.37581
144 4 -2.93625 6.20263 5.21372
274 2 -2.38893 7.35442 3.71864
80 2 -3.45652 11.2715 2.80173
329 2 -5.05596 8.06793 2.2368
87 2 -1.95129 11.8506 5.44265
193 3 -6.05204 10.1047 8.04466
285 2 -5.43231 12.1303 0.425102
286 2 -4.25502 10.8518 0.736654
200 3 -1.43426 10.4564 8.42666
158 1 3.72833 5.70085 8.47959
70 2 -3.87572 6.91524 0.150212
294 2 3.05885 6.53589 1.68766
45 1 -2.2586 11.0478 2.68282
293 2 2.95141 6.99478 3.51356
192 3 -2.04571 6.36421 6.47825
206 4 -2.02232 10.508 4.36655
324 2 0.797237 9.38885 7.05137
227 2 -4.99701 8.11769 3.60013
185 2 2.80476 7.06302 8.66855
93 2 2.40948 6.75969 5.08975
78 2 -0.806318 11.9263 1.92273
235 2 -0.526147 6.57795 4.31343
98 2 -2.08288 10.0094 2.14961
146 4 -1.14814 6.55224 7.72107
199 3 -0.590166 7.93011 8.29062
207 4 0.505509 8.78422 5.36276
215 1 0.437818 7.07357 4.74961
232 2 1.40096 7.23102 2.38421
233 2 0.80129 6.61304 5.78485
234 2 1.31911 7.19738 3.84069
242 3 -0.73938 9.61847 4.6769
26 4 -0.400901 11.6859 7.89639
7 2 -5.9348 12.5352 2.35143
312 2 -7.61317 12.414 2.82715
108 2 -4.14493 6.55884 8.05495
225 2 -7.69461 11.9341 5.88473
94 2 3.5792 6.24289 6.57466
156 1 -3.78321 6.99138 11.7321
127 3 3.54571 4.77251 15.9595
249 4 -0.796359 5.40752 15.811
126 3 0.801939 5.27863 15.763
159 1 -0.196064 11.0157 12.918
319 2 -2.98947 6.3327 11.2368
157 1 -1.47293 5.34785 9.04267
19 4 -4.70634 10.2748 16.3218
115 3 -6.09029 11.0175 13.1579
284 2 -4.52199 7.52895 16.9393
283 1 -3.85684 8.48745 16.6974
148 4 -4.15535 8.64656 10.7058
194 3 -1.50649 4.9595 14.4172
180 2 -3.43872 7.45143 12.6895
196 3 -3.96128 9.9376 11.7243
201 3 -3.02265 8.56257 9.61288
325 2 -3.96083 8.90272 15.1294
202 3 3.05955 6.54871 11.6425
303 2 -0.619374 9.69054 17.3938
204 3 1.28312 8.59314 12.3555
153 4 -0.0778351 9.3031 12.0161
282 2 -0.137209 10.7044 15.243
259 1 -6.50153 10.2074 15.8303
280 4 -1.79605 8.39301 16.7605
281 2 -1.92684 9.89937 15.1157
150 4 2.70557 5.81355 10.1999
331 3 -1.30676 6.94051 16.3304
327 2 -1.33099 9.42388 13.1966
301 1 -0.739028 9.80067 15.5936
203 3 -0.662451 9.08451 10.623
34 4 2.33518 5.73237 15.7967
302 2 -0.166087 8.88873 15.1793
182 2 -1.07755 6.53429 10.3491
64 2 2.52195 6.73487 14.3044
151 4 -1.48357 9.10757 9.21955
270 1 2.69868 7.34856 16.7725
255 2 -4.76226 7.2336 15.3721
21 4 -4.57254 11.2817 12.2857
168 2 -6.9501 10.863 10.4084
81 2 -3.92762 11.6148 8.8449
62 2 1.64687 7.12424 17.4419
28 4 7.90494 1.16643 5.55558
31 4 5.94658 3.25379 6.4577
123 3 7.32162 2.59416 6.05991
124 3 5.35725 4.22384 5.36904
128 3 9.53416 0.982046 5.48567
263 4 5.1972 4.86264 0.85674
50 1 6.29262 4.48018 7.87213
96 2 4.98855 5.05635 2.57976
109 2 7.44878 4.4476 8.13093
266 3 5.79429 3.3748 0.573832
46 1 7.74829 1.44572 1.29858
91 2 9.80012 5.36586 6.22171
320 2 8.32658 1.99621 2.18751
40 4 9.68451 4.03341 2.82959
69 2 9.70128 3.55656 0.925032
295 1 10.685 -0.0330322 0.972801
137 3 10.1683 2.89062 3.81048
42 4 9.38275 5.17675 8.01965
106 2 8.1155 4.79149 3.18299
32 4 4.73322 5.26662 4.36768
58 2 10.7025 5.50799 2.98312
35 4 10.7509 1.82432 4.90547
90 2 5.95427 5.51324 7.45601
273 2 10.9512 1.05551 1.14879
304 1 11.0831 4.44599 1.52585
37 4 12.7864 2.20203 7.06236
132 3 11.6776 2.56988 5.9198
139 3 12.469 2.88096 8.47009
133 3 12.9076 0.551452 7.12333
208 4 13.8174 -0.710513 7.43317
129 3 14.9346 -0.273293 8.4851
323 2 11.7095 0.740639 3.97915
306 2 11.8637 3.69038 1.9411
52 1 6.56464 5.8591 0.109749
330 2 11.5077 5.16287 0.680779
231 2 12.2416 4.47283 4.60838
321 2 8.43422 0.720138 0.762232
92 2 5.61674 4.03122 8.67247
174 2 8.51438 5.93553 4.3791
277 2 13.6791 0.127895 14.0448
179 2 11.6851 4.74747 12.3574
33 4 7.3562 1.86601 14.3906
53 1 7.30419 1.78504 12.6177
63 2 7.31533 2.90351 12.3934
66 2 8.6338 1.1159 11.5269
309 2 11.4519 0.0858004 14.4654
314 2 13.3901 -1.35316 13.0492
100 2 8.62876 0.841375 13.5367
130 3 8.69959 -0.193672 9.15566
134 3 9.46326 0.440003 16.4965
141 3 7.77793 3.31801 14.897
36 4 9.67425 0.588636 10.1077
25 4 8.32121 -0.147937 17.4583
101 2 10.0172 2.24643 14.5431
138 3 10.2246 1.92857 9.6431
103 2 10.2175 3.344 16.897
102 2 10.4131 3.94733 15.1674
86 2 6.5581 1.98997 9.02955
140 3 10.3457 4.34131 8.89867
155 1 11.8714 3.2254 12.924
307 1 12.3197 -0.953527 13.0651
269 4 14.4894 -0.546066 15.422
38 4 10.6524 1.09735 15.618
308 2 9.15999 -1.40104 12.03
178 2 11.0921 2.55788 12.3457
104 2 11.9465 3.59372 16.3099
54 1 10.8499 3.29256 15.9926
41 4 11.2111 3.09078 9.44914
264 2 8.81398 2.74099 17.2725
177 2 11.472 3.27884 14.0747
305 2 12.083 1.84916 16.3408
71 2 11.8451 3.52145 10.9873
39 4 12.302 -0.0783407 11.4341
135 3 13.7581 0.10969 10.7851
136 3 10.8876 -0.301987 10.6643
68 2 12.0836 0.935809 12.9619
165 2 13.4075 2.39522 13.0843
276 2 14.5511 1.04997 16.418
279 3 13.7977 -1.80696 16.144
20 4 15.2974 0.202877 9.91948
326 2 8.96683 -1.71664 13.9678
173 2 11.4467 -1.66857 12.901
107 2 6.90246 6.25217 3.40489
229 2 8.30625 10.2229 2.03148
297 2 3.57372 11.9471 1.1221
299 2 1.87723 11.0791 8.16156
298 1 1.10653 10.8827 7.30471
243 3 1.92282 9.29249 4.64175
292 2 3.26514 8.06585 0.777715
209 4 3.24575 9.72914 3.93784
236 2 2.20538 11.6871 4.63128
300 2 1.33231 11.5368 6.37521
216 1 3.11253 11.6351 3.84502
237 2 3.17719 9.02465 2.28635
212 1 6.35746 10.3935 0.366255
51 1 3.51176 6.64326 5.40491
238 2 4.03431 12.0717 4.29643
265 2 4.13366 7.63326 5.29194
226 2 8.04791 10.3208 3.89468
223 2 2.74707 12.155 2.66861
88 2 9.13911 8.99297 4.74242
171 2 4.69606 5.97406 7.99029
176 2 8.74277 7.55456 1.26918
61 2 7.75384 7.71991 4.46657
55 1 7.93241 6.68713 3.76196
105 2 8.58966 7.00186 2.84958
65 2 1.344 12.5719 1.84132
218 2 6.17569 9.44971 1.78085
97 2 5.30877 6.86014 4.61873
222 2 4.13294 10.9919 8.43684
56 1 10.2543 6.68008 7.43273
219 2 4.87446 11.5922 2.97958
110 2 9.82121 7.6658 7.52067
205 4 6.33035 11.3313 2.12181
246 3 4.62122 9.33911 4.53576
211 4 5.6609 9.88026 5.71455
245 3 7.44733 9.10692 5.26269
248 3 5.58408 11.4965 6.05336
313 2 7.5029 8.69704 6.19631
247 3 5.25767 8.90507 7.15328
317 2 5.86492 11.8942 0.333929
154 1 9.87263 7.47494 1.30805
164 2 10.7942 6.73235 5.63762
316 2 7.49187 10.3051 0.194487
210 4 5.47367 8.69289 8.7547
163 2 10.2282 7.87268 0.370295
175 2 10.2398 6.36652 1.35329
74 2 6.83766 6.44471 1.1257
72 2 8.93356 6.73495 8.73573
30 4 4.90665 4.64028 16.8965
142 3 6.22472 5.2306 16.2458
239 2 5.61491 10.3759 10.36
256 2 10.3158 5.36662 14.877
315 2 7.23645 7.44732 17.073
240 2 4.90898 7.04968 9.19031
268 4 4.35684 9.98747 16.9558
296 2 2.51737 10.3787 17.0435
289 2 6.8506 7.64104 12.0684
290 2 6.46747 8.58669 13.6314
241 2 4.04088 9.42422 10.4031
275 2 3.59242 7.35374 17.4646
287 1 7.19272 8.57045 12.7749
191 2 3.95283 9.97683 13.039
272 2 4.30215 8.40561 16.1975
43 4 7.68942 4.42722 16.0369
160 1 4.09633 8.7458 12.9888
67 2 10.7057 6.69836 13.5315
73 2 9.00327 5.5555 15.9536
152 4 2.6755 7.6431 12.7747
172 2 4.4863 8.32917 14.0096
195 3 9.61944 8.61366 10.2093
166 2 6.45352 5.40097 11.5341
181 2 10.5734 6.47719 11.8024
224 2 7.6086 6.5084 10.8357
190 2 4.73737 8.38096 12.0883
217 1 4.78591 9.97437 9.75269
318 2 8.48158 9.35034 16.553
260 2 6.7883 10.1647 13.8705
261 2 8.8576 8.10681 13.3463
258 4 8.50896 9.86969 13.9556
257 2 9.02804 6.71384 14.5035
288 2 6.96767 9.52711 12.1601
251 1 10.1376 6.48877 14.6047
147 4 8.65438 9.554 9.40116
57 1 6.60952 6.06303 10.7366
244 3 7.24073 8.9257 9.13997
253 2 2.61777 8.2528 16.1068
328 2 5.8373 6.83747 10.8337
111 2 6.53651 5.46014 9.77823
ITEM: TIMESTEP
200
ITEM: NUMBER OF ATOMS
331
ITEM: BOX BOUNDS xy xz yz pp pp pp
1.5795377160403223e-01 2.3677144631482232e+01 6.7013883335191657e+00
-2.3082318705380849e+00 1.3000996215598949e+01 1.4404028620240048e+00
-1.5199799933352409e-02 1.7539999799933383e+01 -2.3940356549391200e+00
ITEM: ATOMS id type x y z
82 2 5.7323 -0.601227 7.17711
267 3 3.83832 5.27688 0.074285
117 3 7.26277 0.882021 3.95553
47 1 4.72382 -0.75747 7.78426
24 4 6.73741 0.435383 2.59484
27 4 4.23831 1.22316 8.38382
122 3 4.38481 2.17048 7.0898
118 3 7.2517 -0.1748 6.40681
83 2 1.63165 -0.121747 7.12007
79 2 5.04203 0.475281 2.56471
162 2 2.61731 0.10337 5.5456
15 2 2.33756 3.35257 2.16609
5 1 3.09733 0.879712 2.27197
12 2 3.65322 1.35969 3.15946
4 1 2.03074 -0.588903 6.18964
89 2 3.75513 0.728031 1.36019
14 2 2.21492 1.56878 1.97545
58 2 10.567 5.66941 2.92587
28 4 7.91566 1.07492 5.70076
32 4 4.61753 5.22325 4.28728
92 2 5.39341 3.9408 8.44407
31 4 5.91523 3.161 6.3704
123 3 7.35872 2.5019 6.30886
124 3 5.35362 4.091 5.16632
52 1 6.60493 6.05445 0.176273
263 4 5.25277 4.85519 0.793349
50 1 6.26636 4.34291 7.73419
96 2 4.92732 5.0001 2.57519
109 2 7.67142 4.15601 8.25174
266 3 5.98189 3.47677 0.451141
46 1 7.60832 1.48433 1.19407
91 2 9.55256 5.0745 6.2769
320 2 7.97258 2.22099 2.02246
40 4 9.59336 4.06424 2.90959
69 2 9.50641 3.71047 1.03776
106 2 8.03768 4.77111 3.08056
42 4 9.31028 5.11616 8.11621
90 2 6.10792 5.40932 7.39735
11 2 2.92604 3.15084 6.96365
7 2 2.68697 -0.240756 2.56624
175 2 10.1567 6.43657 1.21604
264 2 7.53832 5.53879 0.105798
188 2 7.23337 -1.41449 12.7623
99 2 6.31448 1.26105 12.2763
120 3 6.174 0.902938 14.9919
48 1 5.63434 1.66967 9.46679
116 3 2.7433 1.11973 9.15289
29 4 4.891 -0.0451605 14.6708
85 2 5.11787 2.07144 10.4048
22 4 2.51923 0.431529 10.7343
84 2 6.10771 0.615312 9.67794
119 3 5.31731 -0.695045 13.1483
113 3 3.78417 -0.719171 10.8305
121 3 4.6965 -1.3474 15.9298
322 2 7.3143 -1.38994 16.6339
186 2 4.27351 4.64367 9.94845
125 3 3.4723 0.769565 14.4594
38 4 10.7177 1.2457 15.641
33 4 7.33131 1.86478 14.3247
140 3 10.401 4.40804 9.03487
53 1 7.37157 1.71261 12.5408
63 2 7.54485 2.77344 12.1243
66 2 8.65126 0.733609 11.5228
100 2 8.712 0.936203 13.4604
130 3 8.86369 -0.320559 9.09416
134 3 9.55374 0.517977 16.4487
141 3 7.76696 3.32989 14.9254
25 4 8.25004 -0.117578 17.3607
101 2 9.97939 2.42072 14.5311
138 3 10.2229 1.89841 9.72558
177 2 11.4484 3.27433 14.0922
178 2 11.0906 2.59858 12.4243
103 2 10.2126 3.39465 16.9405
54 1 10.8465 3.37605 15.9804
104 2 11.9247 3.76663 16.2308
102 2 10.3498 3.99468 15.1455
86 2 6.43053 2.37191 9.11076
326 2 8.49927 -1.63181 14.0946
179 2 11.6619 4.86426 12.5167
225 2 7.95226 11.7112 5.61014
221 2 9.67904 11.1114 3.34849
169 2 10.6342 10.4016 5.50435
143 4 10.1198 11.1323 7.01117
213 1 8.52592 10.9007 2.97624
228 2 10.4724 10.0515 3.75517
220 2 11.9798 9.44241 4.81854
49 1 10.141 8.97141 4.18195
167 2 10.7087 8.6827 5.20005
108 2 10.9148 6.85615 7.67804
312 2 7.74138 12.4954 2.81344
80 2 12.1463 11.3541 2.75116
329 2 9.92445 8.18658 1.97917
87 2 13.2787 11.7839 5.32033
193 3 9.29718 10.2738 8.06195
285 2 9.63616 12.0848 0.513065
286 2 11.3038 11.0484 0.78518
200 3 13.9816 10.49 8.13688
174 2 8.60955 6.13647 4.40184
26 4 15.0341 11.7247 7.86067
98 2 13.3731 10.0429 2.16374
45 1 13.2833 11.1357 2.69018
227 2 10.3435 8.15221 3.28162
206 4 13.3472 10.3409 4.38204
70 2 11.2615 6.88218 0.0659835
72 2 8.74617 6.72989 8.56173
74 2 6.55604 6.7053 1.17721
163 2 9.88142 7.91616 0.0915491
229 2 8.56776 10.2603 2.01618
107 2 7.05761 6.14161 3.45678
164 2 10.2755 6.35764 5.43224
154 1 9.59543 7.50341 1.04248
212 1 6.41577 10.1852 0.387711
226 2 8.0368 10.2751 3.84838
313 2 7.84123 9.55615 5.87959
88 2 9.07387 9.01629 4.50465
245 3 7.35382 9.19235 5.09331
171 2 4.93138 5.9145 8.07054
176 2 8.50061 7.40295 1.05337
205 4 6.53446 11.3419 2.08445
110 2 9.15129 7.56686 7.09283
61 2 7.6535 7.68561 4.24143
56 1 9.94856 6.68525 7.07307
55 1 7.95914 6.68728 3.70539
97 2 5.30993 6.79273 4.56776
218 2 6.12992 9.28839 1.17159
105 2 8.5876 7.01859 2.70481
156 1 11.5835 7.06059 11.6417
81 2 11.5055 11.5628 8.78563
168 2 8.30505 10.9383 10.2498
21 4 10.9633 11.3264 12.2661
159 1 14.9616 11.1335 12.9966
319 2 12.2991 6.30738 11.1288
255 2 10.776 7.29523 15.4879
19 4 10.6738 10.2132 16.2471
115 3 9.3924 10.8923 13.1145
284 2 10.974 7.64581 17.0965
283 1 11.5699 8.51863 16.8872
148 4 11.3467 8.65348 10.5767
73 2 8.93369 5.73936 15.8049
180 2 12.1038 7.58601 12.5379
196 3 11.4872 9.89844 11.9208
201 3 12.4624 8.69414 9.29216
325 2 11.5229 8.85107 15.1754
301 1 14.5245 9.90669 15.598
303 2 14.8972 9.44554 17.3435
327 2 14.1096 9.39447 13.2326
281 2 13.3278 10.1366 15.2948
282 2 15.1884 10.879 15.4249
259 1 8.89443 10.0262 15.7767
280 4 13.5258 8.41784 16.7069
142 3 6.2093 5.13941 16.3352
111 2 6.60247 5.36391 9.58064
328 2 5.81776 6.54936 10.9285
256 2 10.3804 5.35951 14.8156
244 3 7.29823 8.78844 9.13974
57 1 6.75268 6.04509 10.566
147 4 8.67756 9.54724 9.36935
251 1 10.3013 6.52803 14.6118
288 2 7.35762 9.43259 11.9599
257 2 9.2208 6.77203 14.505
258 4 8.43219 9.93274 13.9415
261 2 8.70905 8.11601 13.5175
315 2 7.04386 7.84344 17.1736
318 2 8.45062 9.20253 16.481
289 2 7.04378 7.64766 11.8397
287 1 7.27894 8.52451 12.6726
224 2 7.50292 6.82832 10.3405
181 2 10.6207 6.66526 11.856
166 2 7.13419 5.281 11.3728
195 3 9.73519 8.65135 10.0626
43 4 7.75635 4.45544 16.0705
67 2 10.8083 6.80502 13.5588
316 2 8.89318 7.68949 17.4608
321 2 8.42688 0.869698 0.721428
231 2 12.0475 4.48126 4.59941
330 2 11.4101 5.2182 0.719393
306 2 11.6863 3.77892 1.91983
128 3 9.47858 0.906689 5.55237
323 2 11.6287 0.782404 3.88537
129 3 15.1093 -0.286103 8.4186
208 4 13.8077 -0.697366 7.50417
133 3 12.7239 0.453077 7.28026
139 3 12.4415 2.68043 8.60368
132 3 11.7178 2.46652 5.87392
37 4 12.7583 2.10321 7.14057
304 1 10.9063 4.56744 1.58679
273 2 11.1475 0.800525 0.983614
35 4 10.7004 1.76746 4.93133
187 2 18.6374 4.98696 7.81326
137 3 10.1177 2.93549 3.94251
230 2 12.272 5.32496 2.84477
1 4 15.8665 2.81446 6.03762
2 4 16.289 4.0667 2.89657
3 1 17.2076 3.67679 6.95026
184 2 15.4707 5.12075 7.75316
8 2 16.6607 3.62302 8.03375
9 2 16.7604 1.26026 6.01945
10 2 17.1409 4.74786 6.53934
18 3 15.9482 3.51291 4.40087
161 2 14.874 3.81099 1.52824
311 2 16.4403 2.80537 0.395289
6 1 16.0662 2.8089 1.45843
13 2 16.4859 5.83569 2.68239
16 2 14.0962 5.55979 3.50718
131 3 14.4021 2.68739 6.69554
95 2 18.2281 5.15807 4.48564
252 2 13.222 6.48724 0.224603
214 1 13.0072 5.80428 3.66523
17 2 15.8394 1.7961 1.97347
277 2 13.4273 0.120763 14.2619
278 2 16.9566 0.85133 16.3593
20 4 15.0402 0.219798 9.9603
279 3 13.8945 -1.79121 16.1971
276 2 14.6831 0.935892 16.8651
165 2 13.4186 2.41763 13.0855
309 2 11.7146 0.180523 14.6595
314 2 13.2221 -1.45761 13.2092
68 2 12.1216 1.01206 12.8809
136 3 10.899 -0.381041 10.6781
135 3 13.6723 0.046456 10.7325
39 4 12.2645 -0.102219 11.4607
36 4 9.71208 0.509822 10.132
71 2 11.8493 3.43284 11.0119
305 2 11.891 1.88105 16.7546
41 4 11.1183 3.08099 9.44832
75 2 15.8919 2.45536 13.4768
308 2 9.20631 -1.25705 12.2298
269 4 14.4718 -0.474071 15.5845
307 1 12.2102 -0.86774 13.1571
155 1 11.784 3.19213 12.956
170 2 14.554 3.84454 8.85158
198 3 16.8151 4.90007 10.2837
189 2 16.3877 -0.760468 17.1481
149 4 15.2117 4.91953 10.4984
310 2 16.1171 -0.659766 14.6996
254 2 13.6425 3.26563 16.4368
145 4 13.4812 4.28299 12.9795
250 1 13.7441 4.15081 17.0631
197 3 14.4056 4.37222 11.724
23 4 18.0605 1.73139 13.4859
112 3 16.4011 -0.456329 10.7372
60 2 16.4678 3.67799 14.8868
77 2 18.2718 3.38355 14.0101
44 1 16.6092 2.62015 14.4106
76 2 16.3933 1.63117 15.3388
271 1 16.163 0.0355792 16.3814
59 2 15.3763 1.86702 9.79579
157 1 13.928 5.26777 8.94582
262 2 16.949 -1.71539 16.0218
173 2 11.336 -1.60214 13.0453
114 3 18.0272 1.59936 11.9533
183 2 12.7754 5.26148 8.77721
210 4 21.0581 8.82601 8.76948
317 2 21.6879 12.1586 0.5538
297 2 18.7629 11.5629 1.11364
299 2 17.3829 11.2607 7.84385
298 1 16.5369 10.9608 7.17851
243 3 17.3371 9.33741 4.60659
292 2 18.683 7.86527 0.959441
209 4 18.6701 9.80329 3.82733
236 2 17.7103 11.7283 4.59993
300 2 16.5156 11.4355 6.10896
216 1 18.6244 11.6893 3.76821
237 2 18.6142 8.85624 2.28226
247 3 20.7278 9.20327 7.25538
51 1 18.9469 6.68807 5.48276
238 2 19.5557 12.261 4.15915
265 2 19.4085 7.69043 5.1759
248 3 20.9124 11.5535 6.03103
223 2 18.1788 12.1055 2.6839
211 4 21.0022 9.95116 5.80929
246 3 20.0781 9.35896 4.59326
219 2 20.4876 11.4025 2.97346
222 2 19.5977 10.9491 8.55721
65 2 16.5364 12.6326 1.67859
291 1 17.9144 7.13162 2.47121
94 2 19.1618 6.33572 6.5883
144 4 12.2341 6.16601 5.25388
274 2 12.5622 7.46404 3.83405
158 1 19.2688 5.69819 8.5255
324 2 16.2112 9.3204 7.15246
294 2 18.3686 6.31137 1.81495
242 3 14.6625 9.59548 4.80558
234 2 16.6229 7.22176 3.87627
233 2 16.2114 6.71917 5.86328
232 2 16.8429 7.23111 2.39984
215 1 15.825 7.15044 4.80611
207 4 16.0189 8.88154 5.36234
199 3 14.8379 7.79514 8.29995
146 4 14.3332 6.46198 7.60362
293 2 18.304 7.02154 3.54595
235 2 14.7482 6.7301 4.47818
78 2 14.2661 12.0145 1.57907
93 2 17.7943 6.7531 5.27845
295 1 17.3711 12.679 0.928522
192 3 13.281 6.26876 6.42394
185 2 18.4949 6.97154 8.71114
30 4 20.3271 4.44 17.0542
253 2 18.0136 8.02866 15.9412
239 2 20.5722 10.4296 10.5165
260 2 22.1333 10.2664 13.5994
217 1 19.9246 9.93374 9.66981
240 2 20.2875 7.2607 9.03984
268 4 19.7368 9.7133 16.9239
296 2 17.9153 10.0163 17.0303
190 2 20 8.54252 11.9298
290 2 21.6697 8.62095 13.3422
241 2 19.106 9.22123 9.97569
275 2 19.0529 7.06079 17.3938
172 2 19.9189 8.49358 13.8149