ITEM: TIMESTEP
0
ITEM: NUMBER OF ATOMS
331
ITEM: BOX BOUNDS xy xz yz pp pp pp
-8.5267422552386698e+00 1.6992590935126586e+01 -8.6846960268427011e+00
-2.3082318705380849e+00 1.3000996215598949e+01 1.4418447067307354e+00
-1.5199799933352409e-02 1.7539999799933383e+01 -2.3940356549391200e+00
ITEM: ATOMS id type x y z
230 2 -2.89547 5.15223 2.70097
1 4 0.637337 2.81357 5.67637
2 4 1.11767 4.08506 2.59196
3 1 1.94326 3.42056 6.84853
8 2 1.33008 3.29396 7.80906
9 2 1.12541 1.16554 5.63428
10 2 1.93372 4.52966 6.51883
18 3 0.806467 3.53849 4.24305
83 2 1.96352 0.243381 7.10362
161 2 -0.336064 3.93092 1.41911
6 1 0.991589 2.71209 1.3642
15 2 2.61531 3.25256 1.71849
5 1 3.28244 0.627188 2.18754
12 2 3.87719 1.01457 3.044
4 1 1.83914 -0.603959 6.19252
16 2 -1.12962 5.28877 3.50145
131 3 -0.885035 2.84327 6.38445
11 2 2.99522 2.96653 6.95367
17 2 0.63393 1.71464 1.83207
187 2 2.99233 4.83011 7.90623
14 2 2.44328 1.38057 1.93546
214 1 -2.1834 5.63868 3.51313
266 3 5.65678 3.31035 0.470283
95 2 2.94869 5.26489 4.4093
89 2 3.91822 0.553177 1.25169
162 2 2.27136 -0.254969 5.21174
13 2 1.4335 5.80242 2.38977
79 2 5.13605 -0.00259682 2.36063
311 2 0.889071 2.6268 0.185637
118 3 7.4054 -0.0643143 6.59702
122 3 4.68203 2.09259 7.18913
27 4 4.54304 1.10151 8.42767
24 4 6.87109 0.145533 2.66463
47 1 4.66002 -0.782307 7.8707
184 2 -0.113605 5.20234 7.84176
117 3 7.15354 0.734437 4.04433
82 2 5.46914 -0.717463 7.05958
170 2 -0.799485 3.7876 8.92482
149 4 -0.296436 4.75799 10.449
254 2 -1.64366 3.18773 16.1945
145 4 -1.68307 3.93402 13.1276
116 3 3.06857 1.17617 9.22227
250 1 -1.35423 4.01573 16.962
197 3 -0.920647 4.18994 11.768
22 4 2.65181 0.472444 10.7101
23 4 2.82023 1.81178 13.4049
112 3 1.04453 -0.381759 10.7166
113 3 3.97339 -0.501724 11.1161
114 3 2.80067 1.83107 11.807
77 2 2.50628 3.36367 14.2275
44 1 1.04197 2.07722 14.0456
76 2 0.899549 1.32586 14.9646
60 2 0.769088 3.2249 14.3137
75 2 0.459492 1.62847 13.1166
267 3 5.23085 3.11181 17.4393
262 2 1.67148 -1.75802 16.0063
125 3 3.57832 0.784829 14.3737
278 2 1.60104 0.454532 16.5222
59 2 0.112314 1.95298 9.61215
271 1 0.655057 -0.0977493 16.3089
186 2 3.94761 4.4758 9.86077
322 2 7.3791 -1.45053 16.7094
121 3 4.59181 -1.08285 16.2086
119 3 5.07712 -1.03287 13.4078
84 2 6.08462 0.623716 10.3951
85 2 5.79949 2.55335 10.1244
29 4 4.87342 -0.108501 14.7758
48 1 5.97706 1.54111 9.60242
120 3 6.18605 0.867986 14.8557
99 2 6.48523 1.42537 12.033
310 2 0.747741 -0.730656 14.6673
183 2 -2.79427 5.31205 8.8106
276 2 -0.550322 1.14134 16.5419
326 2 8.91856 -1.80697 14.1026
198 3 1.22273 5.14417 10.2449
188 2 7.40543 -1.64652 12.8428
252 2 -0.330371 3.84593 17.4179
291 1 2.56853 7.38171 2.38665
221 2 -5.89563 11.0636 3.25835
169 2 -5.32571 10.7131 5.51567
143 4 -5.49056 11.2783 7.10237
213 1 -7.01874 10.8985 3.03628
228 2 -4.97283 10.1037 3.90482
220 2 -3.43982 9.5929 5.0225
49 1 -5.21419 9.07085 4.42106
167 2 -4.60021 8.89035 5.36515
144 4 -3.08616 6.26116 5.07594
274 2 -2.36816 7.23995 3.5451
80 2 -3.35662 10.6081 2.68147
62 2 0.156837 9.34397 0.0251504
87 2 -1.71054 11.7959 5.53888
193 3 -6.15003 10.0037 8.14584
285 2 -5.8969 11.7715 0.315122
286 2 -4.40869 10.9921 0.758989
200 3 -1.5053 10.4658 8.56042
158 1 3.61419 5.70135 8.49545
70 2 -3.72758 6.89909 0.103134
294 2 3.06161 6.60538 1.68316
45 1 -2.21318 10.9537 2.79636
293 2 2.90871 7.12878 3.49012
192 3 -2.19136 6.49204 6.35042
206 4 -2.00486 10.4117 4.44471
324 2 0.392319 9.46601 6.92659
227 2 -5.05173 8.20404 3.69984
163 2 -4.71521 8.07506 0.481254
93 2 2.39669 6.85433 5.16647
78 2 -0.632976 11.7996 2.0793
235 2 -0.655094 6.66165 4.30464
98 2 -1.45388 10.3117 2.233
146 4 -1.2667 6.55151 7.63845
199 3 -0.76795 7.98096 8.42894
207 4 0.521536 8.85823 5.2544
215 1 0.385927 7.11638 4.68102
232 2 1.4839 7.45616 2.25083
233 2 0.766155 6.6672 5.70958
234 2 1.22173 7.0827 3.78058
242 3 -0.792295 9.4837 4.47159
26 4 -0.488672 11.7928 8.13649
7 2 -5.98125 12.532 2.44294
312 2 -7.70051 12.4103 2.68112
108 2 -4.18668 7.17094 7.62593
185 2 2.88659 7.00634 8.54006
81 2 -3.72022 11.4903 8.7606
156 1 -3.96878 6.88051 11.6713
127 3 3.53689 4.7734 15.925
249 4 -0.861645 5.42732 15.7954
126 3 0.813398 5.36148 15.9089
159 1 -0.192795 10.9708 13.0086
319 2 -3.31942 6.25098 11.0358
21 4 -4.55951 11.3139 12.2499
19 4 -4.7063 10.3185 16.1958
115 3 -5.97144 10.793 12.9977
284 2 -4.261 7.66215 16.408
283 1 -3.71209 8.60193 16.5848
148 4 -4.25792 8.54844 10.7677
194 3 -1.47727 4.99364 14.3795
180 2 -3.47818 7.23522 12.6144
196 3 -3.88479 9.67833 11.737
201 3 -3.13332 8.52411 9.38901
325 2 -3.70426 9.40548 14.9308
202 3 3.26531 6.74515 11.3664
303 2 -0.46594 9.50956 17.5242
204 3 1.48084 8.52867 12.4916
153 4 0.0899417 9.28903 12.1323
282 2 0.0865239 10.7974 15.4294
259 1 -6.50812 10.0943 15.7949
280 4 -1.87951 8.44222 16.8219
281 2 -1.75464 10.1696 15.3777
150 4 2.69964 5.71416 10.2056
331 3 -1.45991 6.82051 16.4578
327 2 -1.04596 9.2319 13.4291
301 1 -0.662085 9.90033 15.7492
203 3 -0.676058 9.12633 10.7954
34 4 2.36255 5.79959 15.7441
302 2 -0.29948 8.94277 15.1632
182 2 -1.39356 6.46985 10.2438
64 2 2.59563 6.71585 14.2123
151 4 -1.61415 9.06277 9.28297
270 1 2.53147 7.30754 16.9732
253 2 2.2431 8.19565 16.3664
157 1 -1.6035 5.4099 9.05721
28 4 7.87687 1.21911 5.59352
31 4 6.00531 3.33335 6.61497
123 3 7.39935 2.60508 6.29388
124 3 5.39338 4.30992 5.3545
128 3 9.51488 1.11382 5.43753
263 4 5.12004 4.82844 0.755924
50 1 6.53466 4.46541 7.97722
96 2 4.94932 5.10777 2.59204
109 2 7.7686 4.55351 7.88636
264 2 7.25289 5.00264 0.0206844
46 1 7.69647 1.11088 1.09475
91 2 10.0258 5.41194 6.17472
320 2 8.31754 2.02166 1.58443
40 4 9.69632 4.13402 2.81706
69 2 9.88732 3.62469 0.866252
295 1 11.0811 0.243495 1.06919
137 3 10.1768 3.03131 3.7751
42 4 9.54535 5.43425 8.05252
106 2 8.13816 4.84183 3.12421
32 4 4.72086 5.35284 4.39141
58 2 10.7811 5.5633 2.81637
35 4 10.6937 2.00563 4.88149
175 2 10.4796 6.2869 1.25471
273 2 11.5234 1.35199 0.982046
304 1 11.1587 4.34617 1.4454
37 4 12.8451 2.1852 6.95504
132 3 11.6262 2.6773 5.99487
139 3 12.5187 2.69996 8.50984
133 3 13.0039 0.565325 6.99519
208 4 13.8551 -0.664408 7.45044
129 3 15.1447 -0.321076 8.37877
323 2 11.7151 0.844138 4.10281
306 2 11.8675 3.55795 1.78186
52 1 6.494 5.94022 0.185288
330 2 11.686 5.03766 0.685131
65 2 10.4807 0.0579211 1.9832
321 2 8.40946 0.330284 0.683243
231 2 12.2788 4.4765 4.61663
277 2 13.6394 0.187513 13.8642
179 2 11.6337 4.40542 12.4541
33 4 7.22762 1.88705 14.2106
53 1 7.41809 1.99274 12.4079
63 2 7.44485 3.10512 12.1334
66 2 8.87484 0.99089 11.7283
309 2 11.3089 -0.1495 14.4957
314 2 13.3287 -1.33731 13.1693
100 2 8.72357 1.16903 13.4766
130 3 8.71015 -0.231313 9.43715
134 3 9.43528 0.490983 16.4493
141 3 7.78672 3.32166 15.0415
36 4 9.74757 0.593328 10.2107
25 4 8.28122 -0.174881 17.4596
101 2 10.1064 2.38777 14.4854
138 3 10.2373 1.91599 9.57282
103 2 10.3356 3.02539 16.9513
102 2 10.6183 3.87972 15.2104
86 2 6.81234 1.53403 8.84091
140 3 10.4164 4.44891 8.94992
155 1 11.9196 3.25931 12.9289
307 1 12.2265 -0.924178 13.1001
269 4 14.3874 -0.345327 15.3513
38 4 10.5817 1.10917 15.6205
308 2 9.1395 -1.36546 12.2209
178 2 11.3254 2.4903 12.4127
104 2 12.1513 3.43006 16.4274
54 1 11.0254 3.11731 16.0451
41 4 11.251 3.04627 9.39166
189 2 15.9564 -0.996094 17.0728
177 2 11.5523 3.2719 14.1348
305 2 12.0833 1.54878 16.5137
71 2 11.8379 3.37814 10.9401
39 4 12.3242 -0.0109781 11.4753
135 3 13.7174 0.0649916 10.6998
136 3 10.9669 -0.415478 10.7069
68 2 12.1283 0.923004 13.0883
165 2 13.454 2.29659 13.6263
92 2 6.18252 3.79473 8.89841
279 3 13.6458 -1.63357 16.0144
20 4 15.1678 0.288304 9.87574
107 2 7.13235 6.17724 3.25095
94 2 3.66779 6.40271 6.54209
297 2 3.52587 12.0255 0.98788
299 2 1.7493 11.1137 8.1067
298 1 0.936045 11.1267 7.31034
243 3 1.95193 9.43827 4.65041
292 2 3.16314 8.07079 0.673772
209 4 3.28463 9.84745 3.92898
236 2 2.30337 11.81 4.67037
300 2 1.05208 11.795 6.34814
216 1 3.22199 11.769 3.86568
237 2 3.26643 9.09002 2.28632
212 1 6.19289 10.3146 0.382239
51 1 3.53067 6.77998 5.43472
238 2 4.18618 12.3507 4.26677
265 2 3.98181 7.80326 5.29297
226 2 7.89986 10.3341 3.92579
223 2 2.89877 12.2188 2.74805
88 2 9.0467 9.02754 4.72189
171 2 4.71685 5.85331 8.03002
176 2 8.96257 7.37355 0.944347
61 2 7.66916 7.68349 4.2386
55 1 8.01386 6.7103 3.71216
105 2 8.75905 7.00141 2.78692
74 2 6.5824 6.56495 1.2638
218 2 5.95115 9.30293 1.51343
97 2 5.28668 7.0016 4.59303
222 2 3.96031 11.0735 8.30675
56 1 10.2256 6.86297 7.1439
219 2 5.06109 11.8725 3.33905
110 2 9.44128 7.72522 6.96722
205 4 6.30832 11.1875 2.16762
246 3 4.58861 9.51524 4.61714
211 4 5.52426 9.73434 5.92393
245 3 7.2926 9.1679 5.15663
248 3 5.71644 11.3599 6.17815
313 2 7.80403 9.52629 5.92727
247 3 5.04808 8.96614 7.19756
317 2 5.85794 12.0669 0.620949
154 1 10.0732 7.40027 1.25261
164 2 10.6693 6.90989 5.29464
225 2 7.49688 11.9649 6.11603
210 4 5.48814 8.60008 8.73278
229 2 8.3433 10.1593 2.10758
72 2 9.08495 7.07386 8.70955
329 2 10.1949 7.84781 2.33299
90 2 6.02541 5.54228 7.94108
174 2 8.51143 5.96569 4.48739
275 2 1.95737 9.85062 0.0944423
30 4 4.87 4.60737 16.8898
142 3 6.32801 5.21323 16.2096
239 2 5.14102 10.3926 10.2787
256 2 10.3153 5.17176 14.7924
315 2 6.85276 7.75986 17.2179
240 2 4.77468 7.11576 9.22963
268 4 4.35849 10.0367 16.8515
255 2 10.4009 6.88246 15.4271
289 2 6.7967 7.40271 12.4022
290 2 6.52254 8.30696 13.9655
241 2 3.62812 9.39232 9.94081
173 2 2.83585 11.1824 12.7565
287 1 7.16125 8.2846 13.0685
191 2 3.92331 10.0318 13.2036
272 2 3.96637 8.47822 16.1357
43 4 7.72073 4.42868 16.1426
160 1 4.17133 8.86616 13.1396
67 2 10.6433 6.51237 13.5221
73 2 9.11458 5.4767 16.1219
152 4 2.86335 7.63674 12.6904
172 2 4.42905 8.40688 14.1936
195 3 9.4618 8.51005 10.266
166 2 6.93383 5.35424 11.6777
181 2 10.3533 6.34424 11.844
224 2 7.42761 6.94181 10.7733
190 2 4.90036 8.56001 12.2648
217 1 4.49172 9.96864 9.54085
318 2 8.37927 9.22266 16.5109
260 2 6.90102 9.95213 14.0976
261 2 8.8748 8.02527 13.61
258 4 8.60703 9.74102 13.9128
257 2 8.91159 6.3188 14.4292
288 2 6.87343 9.21259 12.4566
251 1 10.0344 6.22798 14.532
147 4 8.48604 9.50545 9.45259
57 1 6.66846 6.10179 10.818
244 3 7.06429 8.7303 9.10595
168 2 8.11517 10.8243 10.395
328 2 5.65148 6.57718 10.9716
111 2 6.65418 5.47949 9.76101
296 2 2.62026 10.4923 17.3439
316 2 8.62653 7.80495 17.5351
ITEM: TIMESTEP
100
ITEM: NUMBER OF ATOMS
331
ITEM: BOX BOUNDS xy xz yz pp pp pp
-8.5267422552386698e+00 1.6992590935126586e+01 -8.6846960268427011e+00
-2.3170094703380180e+00 1.3000996215598949e+01 1.4418447067307354e+00
-1.5199799933352409e-02 1.7539999799933383e+01 -2.4028132547390531e+00
ITEM: ATOMS id type x y z
230 2 -2.95428 5.22272 2.75395
1 4 0.45863 2.84284 5.85913
2 4 0.907785 3.97928 2.88698
3 1 1.86523 3.50151 6.92111
8 2 1.28097 3.32807 7.94161
9 2 1.33315 1.32553 5.97059
10 2 1.80832 4.60599 6.51178
18 3 0.683475 3.43513 4.33362
83 2 1.7869 0.100136 7.25316
161 2 -0.521116 3.84653 1.82045
6 1 0.996776 2.82045 1.36285
15 2 2.48876 3.2222 1.91572
5 1 3.26546 0.686373 2.03529
12 2 3.8095 1.12812 2.92361
4 1 1.96931 -0.498779 6.23115
16 2 -1.08214 5.34449 3.4883
131 3 -0.990431 2.82812 6.5451
11 2 2.92339 3.033 6.88167
17 2 0.57688 1.82875 1.70363
187 2 3.12911 4.86074 7.83747
14 2 2.38233 1.45542 1.75172
214 1 -2.16109 5.68814 3.60083
252 2 -2.03308 6.34177 0.0931316
95 2 2.98863 5.18389 4.21371
89 2 3.97247 0.592491 1.16383
162 2 2.43736 0.154709 5.41904
13 2 1.53457 5.62666 2.65843
79 2 5.11956 0.206014 2.35139
311 2 0.890617 3.1145 0.250759
118 3 7.35941 -0.0804949 6.49143
122 3 4.53651 2.11372 7.10327
27 4 4.37228 1.12201 8.31316
24 4 6.79122 0.365918 2.64782
47 1 4.60298 -0.674342 7.91304
184 2 -0.0634415 5.1607 7.77204
117 3 7.12006 0.82316 4.04534
267 3 3.82714 5.51448 0.11372
82 2 5.54671 -0.597615 7.29574
170 2 -0.737538 3.77148 8.93791
149 4 -0.20971 4.85468 10.4677
254 2 -1.83279 3.23291 16.3986
145 4 -1.87733 4.29728 12.9706
116 3 2.93405 1.20739 9.10686
250 1 -1.56129 4.09812 17.011
197 3 -0.908207 4.30625 11.7542
22 4 2.68119 0.458357 10.7132
23 4 2.88087 1.84042 13.3972
112 3 1.11574 -0.516845 10.6856
113 3 3.83733 -0.670024 10.9745
114 3 2.69469 1.6251 11.8443
77 2 2.69109 3.51374 13.8457
44 1 1.16623 2.35267 14.1191
76 2 1.01789 1.41889 14.9479
60 2 0.757234 3.28265 14.477
75 2 0.619547 2.0299 13.1226
198 3 1.34885 4.98299 10.2427
262 2 1.58838 -1.69688 16.1188
125 3 3.48962 0.805561 14.4339
278 2 1.48056 0.914944 16.6155
59 2 0.143413 1.90289 9.896
271 1 0.688484 0.0769494 16.4153
186 2 4.11107 4.68023 9.91303
322 2 7.515 -1.53977 16.7322
121 3 4.68987 -1.33719 15.9356
119 3 5.35087 -0.990016 13.3757
84 2 5.93235 0.538553 10.0515
85 2 5.24673 2.18292 10.4071
29 4 4.84863 -0.100501 14.6239
48 1 5.6726 1.48475 9.62429
120 3 6.00999 1.08212 14.8945
99 2 6.32002 1.29023 12.4274
310 2 0.916795 -0.606314 14.8987
188 2 7.39374 -1.55872 12.9428
189 2 0.712511 -0.731072 17.1694
183 2 -2.63361 5.25018 8.88918
291 1 2.60274 7.22809 2.43118
221 2 -5.79896 10.9422 3.13806
169 2 -4.81869 10.6085 5.53404
143 4 -5.45968 11.1615 7.08249
213 1 -6.91176 10.8488 3.00289
228 2 -4.94362 10.0847 3.92952
220 2 -3.36408 9.52746 4.9339
49 1 -5.15226 8.99169 4.44786
167 2 -4.47284 8.82873 5.37581
144 4 -2.9378 6.20001 5.21372
274 2 -2.3902 7.35255 3.71864
80 2 -3.45833 11.2701 2.80173
329 2 -5.05857 8.06681 2.2368
87 2 -1.95234 11.8478 5.44265
193 3 -6.05515 10.1007 8.04466
285 2 -5.4351 12.1301 0.425102
286 2 -4.25723 10.8514 0.736654
200 3 -1.43506 10.4521 8.42666
158 1 3.73012 5.6966 8.47959
70 2 -3.87774 6.91516 0.150212
294 2 3.0603 6.53504 1.68766
45 1 -2.25981 11.0465 2.68282
293 2 2.95281 6.99302 3.51356
192 3 -2.04681 6.36096 6.47825
206 4 -2.02341 10.5059 4.36655
324 2 0.797556 9.38531 7.05137
227 2 -4.99959 8.11588 3.60013
185 2 2.80609 7.05868 8.66855
93 2 2.41061 6.75714 5.08975
78 2 -0.8068 11.9253 1.92273
235 2 -0.526489 6.57578 4.31343
98 2 -2.084 10.0083 2.14961
146 4 -1.14879 6.54838 7.72107
199 3 -0.590541 7.92596 8.29062
207 4 0.505683 8.78153 5.36276
215 1 0.437958 7.07118 4.74961
232 2 1.40158 7.22982 2.38421
233 2 0.801612 6.61014 5.78485
234 2 1.31969 7.19546 3.84069
242 3 -0.739828 9.61612 4.6769
26 4 -0.401181 11.6819 7.89639
7 2 -5.93785 12.5341 2.35143
312 2 -7.61706 12.4126 2.82715
108 2 -4.14708 6.5548 8.05495
225 2 -7.69853 11.9312 5.88473
94 2 3.58091 6.2396 6.57466
156 1 -3.78518 6.9855 11.7321
127 3 3.5474 4.76452 15.9595
249 4 -0.796836 5.3996 15.811
126 3 0.802261 5.27074 15.763
159 1 -0.196242 11.0092 12.918
319 2 -2.99104 6.32708 11.2368
157 1 -1.47375 5.34332 9.04267
19 4 -4.70878 10.2666 16.3218
115 3 -6.09341 11.011 13.1579
284 2 -4.52433 7.52047 16.9393
283 1 -3.85885 8.4791 16.6974
148 4 -4.15751 8.6412 10.7058
194 3 -1.50732 4.95228 14.4172
180 2 -3.44052 7.44508 12.6895
196 3 -3.96334 9.93173 11.7243
201 3 -3.02424 8.55776 9.61288
325 2 -3.96289 8.89514 15.1294
202 3 3.061 6.54288 11.6425
303 2 -0.619763 9.68184 17.3938
204 3 1.28368 8.58695 12.3555
153 4 -0.077953 9.29709 12.0161
282 2 -0.137357 10.6967 15.243
259 1 -6.50486 10.1995 15.8303
280 4 -1.79703 8.38462 16.7605
281 2 -1.92789 9.8918 15.1157
150 4 2.70685 5.80844 10.1999
331 3 -1.3075 6.93234 16.3304
327 2 -1.33173 9.41727 13.1966
301 1 -0.739477 9.79287 15.5936
203 3 -0.662862 9.07919 10.623
34 4 2.33627 5.72447 15.7967
302 2 -0.166249 8.88113 15.1793
182 2 -1.07817 6.52911 10.3491
64 2 2.52313 6.72771 14.3044
151 4 -1.48439 9.10296 9.21955
270 1 2.69996 7.34017 16.7725
255 2 -4.76472 7.22591 15.3721
21 4 -4.5749 11.2755 12.2857
168 2 -6.95366 10.8578 10.4084
81 2 -3.92966 11.6104 8.8449
62 2 1.64762 7.11551 17.4419
28 4 7.90881 1.16365 5.55558
31 4 5.94948 3.25055 6.4577
123 3 7.3252 2.59112 6.05991
124 3 5.35985 4.22115 5.36904
128 3 9.53885 0.979296 5.48567
263 4 5.19972 4.8622 0.85674
50 1 6.29568 4.47624 7.87213
96 2 4.99097 5.05506 2.57976
109 2 7.45243 4.44353 8.13093
266 3 5.79711 3.37451 0.573832
46 1 7.75209 1.44506 1.29858
91 2 9.80494 5.36275 6.22171
320 2 8.33066 1.99511 2.18751
40 4 9.68927 4.03198 2.82959
69 2 9.70605 3.55609 0.925032
295 1 10.6902 -0.0335262 0.972801
137 3 10.1733 2.88871 3.81048
42 4 9.38737 5.17273 8.01965
106 2 8.11948 4.78989 3.18299
32 4 4.73551 5.26442 4.36768
58 2 10.7078 5.50649 2.98312
35 4 10.7562 1.82186 4.90547
90 2 5.95717 5.5095 7.45601
273 2 10.9566 1.05493 1.14879
304 1 11.0885 4.44522 1.52585
37 4 12.7927 2.19849 7.06236
132 3 11.6834 2.56691 5.9198
139 3 12.4752 2.87672 8.47009
133 3 12.914 0.547882 7.12333
208 4 13.8242 -0.714237 7.43317
129 3 14.942 -0.277543 8.4851
323 2 11.7153 0.738642 3.97915
306 2 11.8696 3.6894 1.9411
52 1 6.56785 5.85904 0.109749
330 2 11.5134 5.16252 0.680779
231 2 12.2476 4.47052 4.60838
321 2 8.43836 0.719749 0.762232
92 2 5.61947 4.02688 8.67247
174 2 8.51856 5.93333 4.3791
277 2 13.6858 0.120865 14.0448
179 2 11.6909 4.74128 12.3574
33 4 7.3598 1.85881 14.3906
53 1 7.30776 1.77873 12.6177
63 2 7.31891 2.8973 12.3934
66 2 8.63804 1.11013 11.5269
309 2 11.4575 0.0785601 14.4654
314 2 13.3967 -1.35969 13.0492
100 2 8.633 0.834599 13.5367
130 3 8.70386 -0.198257 9.15566
134 3 9.46791 0.431747 16.4965
141 3 7.78174 3.31055 14.897
36 4 9.67901 0.583575 10.1077
25 4 8.3253 -0.156674 17.4583
101 2 10.0222 2.23915 14.5431
138 3 10.2296 1.92374 9.6431
103 2 10.2226 3.33555 16.897
102 2 10.4182 3.93974 15.1674
86 2 6.5613 1.98544 9.02955
140 3 10.3508 4.33685 8.89867
155 1 11.8773 3.21893 12.924
307 1 12.3258 -0.960067 13.0651
269 4 14.4966 -0.553784 15.422
38 4 10.6576 1.08954 15.618
308 2 9.16449 -1.40706 12.03
178 2 11.0976 2.5517 12.3457
104 2 11.9524 3.58556 16.3099
54 1 10.8552 3.28456 15.9926
41 4 11.2167 3.08604 9.44914
264 2 8.81831 2.73235 17.2725
177 2 11.4777 3.27179 14.0747
305 2 12.089 1.84098 16.3408
71 2 11.8509 3.51594 10.9873
39 4 12.3081 -0.0840653 11.4341
135 3 13.7649 0.10429 10.7851
136 3 10.893 -0.307327 10.6643
68 2 12.0896 0.92932 12.9619
165 2 13.4141 2.38867 13.0843
276 2 14.5583 1.04175 16.418
279 3 13.8045 -1.81504 16.144
20 4 15.3049 0.19791 9.91948
326 2 8.97124 -1.72363 13.9678
173 2 11.4523 -1.67503 12.901
107 2 6.90584 6.25046 3.40489
229 2 8.31033 10.2218 2.03148
297 2 3.57543 11.9466 1.1221
299 2 1.87809 11.0751 8.16156
298 1 1.10701 10.879 7.30471
243 3 1.9237 9.29016 4.64175
292 2 3.26669 8.06545 0.777715
209 4 3.24729 9.72716 3.93784
236 2 2.2064 11.6847 4.63128
300 2 1.33289 11.5336 6.37521
216 1 3.11401 11.6332 3.84502
237 2 3.1787 9.0235 2.28635
212 1 6.36056 10.3933 0.366255
51 1 3.51343 6.64055 5.40491
238 2 4.03625 12.0696 4.29643
265 2 4.13564 7.63061 5.29194
226 2 8.05186 10.3188 3.89468
223 2 2.74837 12.1537 2.66861
88 2 9.14361 8.99059 4.74242
171 2 4.69833 5.97006 7.99029
176 2 8.74707 7.55391 1.26918
61 2 7.75764 7.71767 4.46657
55 1 7.9363 6.68525 3.76196
105 2 8.59388 7.00043 2.84958
65 2 1.34459 12.5709 1.84132
218 2 6.1787 9.44881 1.78085
97 2 5.31135 6.85782 4.61873
222 2 4.13493 10.9877 8.43684
56 1 10.2594 6.67635 7.43273
219 2 4.87682 11.5907 2.97958
110 2 9.82605 7.66204 7.52067
205 4 6.33344 11.3302 2.12181
246 3 4.62346 9.33684 4.53576
211 4 5.66365 9.87739 5.71455
245 3 7.45097 9.10428 5.26269
248 3 5.5868 11.4935 6.05336
313 2 7.50658 8.69393 6.19631
247 3 5.26022 8.90148 7.15328
317 2 5.86778 11.894 0.333929
154 1 9.87749 7.47428 1.30805
164 2 10.7996 6.72952 5.63762
316 2 7.49554 10.305 0.194487
210 4 5.47632 8.6885 8.7547
163 2 10.2333 7.87249 0.370295
175 2 10.2448 6.36583 1.35329
74 2 6.841 6.44414 1.1257
72 2 8.93795 6.73058 8.73573
30 4 4.90903 4.63182 16.8965
142 3 6.22776 5.22247 16.2458
239 2 5.61764 10.3707 10.36
256 2 10.3209 5.35918 14.877
315 2 7.24 7.43877 17.073
240 2 4.91136 7.04507 9.19031
268 4 4.35894 9.97898 16.9558
296 2 2.51855 10.3702 17.0435
289 2 6.85395 7.635 12.0684
290 2 6.47063 8.57987 13.6314
241 2 4.04282 9.41901 10.4031
275 2 3.59414 7.345 17.4646
287 1 7.19624 8.56405 12.7749
191 2 3.95473 9.97031 13.039
272 2 4.30422 8.3975 16.1975
43 4 7.69319 4.41919 16.0369
160 1 4.0983 8.73929 12.9888
67 2 10.711 6.69159 13.5315
73 2 9.0077 5.54751 15.9536
152 4 2.67676 7.6367 12.7747
172 2 4.48846 8.32216 14.0096
195 3 9.62417 8.60855 10.2093
166 2 6.45667 5.3952 11.5341
181 2 10.5786 6.47129 11.8024
224 2 7.61233 6.50298 10.8357
190 2 4.73966 8.37491 12.0883
217 1 4.78822 9.96949 9.75269
318 2 8.48574 9.34206 16.553
260 2 6.79162 10.1577 13.8705
261 2 8.86196 8.10013 13.3463
258 4 8.51314 9.8627 13.9556
257 2 9.03248 6.70658 14.5035
288 2 6.97107 9.52102 12.1601
251 1 10.1426 6.48146 14.6047
147 4 8.65863 9.54929 9.40116
57 1 6.61275 6.05766 10.7366
244 3 7.24427 8.92112 9.13997
253 2 2.619 8.24474 16.1068
328 2 5.84014 6.83205 10.8337
111 2 6.5397 5.45524 9.77823
ITEM: TIMESTEP
200
ITEM: NUMBER OF ATOMS
331
ITEM: BOX BOUNDS xy xz yz pp pp pp
1.5795377160403223e-01 2.3700687365075705e+01 6.7080964299491193e+00
-2.3257870701379524e+00 1.3000996215598949e+01 1.4418447067307354e+00
-1.5199799933352409e-02 1.7539999799933383e+01 -2.4115908545389875e+00
ITEM: ATOMS id type x y z
82 2 5.73974 -0.608641 7.1782
267 3 3.84367 5.27722 0.0733193
117 3 7.2713 0.876845 3.95478
47 1 4.72774 -0.763963 7.78301
24 4 6.74354 0.433959 2.59485
27 4 4.24232 1.21546 8.38403
122 3 4.38987 2.16403 7.09009
118 3 7.25867 -0.18065 6.40685
83 2 1.63379 -0.125557 7.12334
79 2 5.05004 0.482432 2.57023
162 2 2.6185 0.0970234 5.54525
15 2 2.33713 3.34905 2.1651
5 1 3.10156 0.876266 2.27406
12 2 3.6567 1.35522 3.16296
4 1 2.03227 -0.594863 6.19079
89 2 3.76112 0.724744 1.36293
14 2 2.2182 1.56785 1.97584
58 2 10.5774 5.66699 2.92766
28 4 7.92322 1.06912 5.70129
32 4 4.62136 5.21899 4.28736
92 2 5.39935 3.93374 8.44324
31 4 5.92054 3.15412 6.36995
123 3 7.36524 2.49595 6.30861
124 3 5.35843 4.0849 5.16648
52 1 6.61106 6.05461 0.176429
263 4 5.25883 4.85561 0.793272
50 1 6.27206 4.33576 7.73387
96 2 4.93304 4.99825 2.57261
109 2 7.67708 4.14952 8.249
266 3 5.98801 3.47659 0.450348
46 1 7.61422 1.48332 1.19586
91 2 9.56405 5.07147 6.27344
320 2 7.97915 2.22071 2.02463
40 4 9.60598 4.0611 2.90942
69 2 9.51834 3.70711 1.03443
106 2 8.04727 4.7674 3.07926
42 4 9.31955 5.10766 8.11541
90 2 6.11286 5.40155 7.39565
11 2 2.92688 3.14481 6.9636
7 2 2.68963 -0.241798 2.56675
175 2 10.1695 6.43254 1.21595
264 2 7.54473 5.54172 0.111757
188 2 7.24483 -1.42888 12.7543
99 2 6.31926 1.24545 12.2855
120 3 6.18005 0.887583 14.9921
48 1 5.63858 1.66011 9.4679
116 3 2.74642 1.10997 9.15317
29 4 4.89763 -0.057797 14.6711
85 2 5.12212 2.06013 10.406
22 4 2.52184 0.421103 10.7338
84 2 6.11351 0.607401 9.67886
119 3 5.31928 -0.707707 13.1461
113 3 3.78574 -0.731015 10.8292
121 3 4.7003 -1.36353 15.9303
322 2 7.32463 -1.40668 16.6323
186 2 4.27748 4.63336 9.9482
125 3 3.47569 0.756532 14.4598
38 4 10.7279 1.23037 15.6405
33 4 7.33612 1.84855 14.3238
140 3 10.4102 4.39735 9.03369
53 1 7.38028 1.69769 12.5402
63 2 7.54253 2.75765 12.1294
66 2 8.6607 0.725783 11.5279
100 2 8.71916 0.920428 13.4694
130 3 8.87315 -0.329667 9.09542
134 3 9.56218 0.501318 16.4493
141 3 7.77208 3.31342 14.9269
25 4 8.25904 -0.134994 17.3606
101 2 9.98908 2.40472 14.5312
138 3 10.2342 1.88814 9.72469
177 2 11.4605 3.26159 14.0922
178 2 11.1018 2.58894 12.4245
103 2 10.2221 3.37585 16.9365
54 1 10.8568 3.3605 15.9806
104 2 11.9355 3.75159 16.2376
102 2 10.3613 3.97926 15.1447
86 2 6.43469 2.36377 9.1125
326 2 8.50249 -1.63947 14.094
179 2 11.6735 4.85431 12.5169
225 2 7.95839 11.7059 5.61346
221 2 9.68858 11.1074 3.34958
169 2 10.6438 10.3998 5.50152
143 4 10.1293 11.1268 7.01236
213 1 8.53361 10.8983 2.97449
228 2 10.4822 10.05 3.75489
220 2 11.9899 9.43726 4.81819
49 1 10.1507 8.96839 4.18099
167 2 10.7196 8.67852 5.19991
108 2 10.9269 6.84781 7.67685
312 2 7.75348 12.49 2.80973
80 2 12.16 11.3489 2.75237
329 2 9.93346 8.18423 1.97871
87 2 13.2945 11.7758 5.32292
193 3 9.30679 10.266 8.06242
285 2 9.64411 12.0855 0.511649
286 2 11.315 11.0484 0.784127
200 3 13.9962 10.4818 8.13784
174 2 8.61851 6.13326 4.40125
26 4 15.0486 11.7166 7.86151
98 2 13.3882 10.0433 2.16185
45 1 13.2942 11.1319 2.69117
227 2 10.3522 8.15214 3.27897
206 4 13.3596 10.3354 4.38234
70 2 11.2707 6.88196 0.0660674
72 2 8.75723 6.72268 8.56599
74 2 6.56088 6.7087 1.17605
163 2 9.89072 7.91786 0.0914977
229 2 8.5757 10.2594 2.01473
107 2 7.06727 6.13729 3.45573
164 2 10.2931 6.35325 5.43579
154 1 9.60516 7.50294 1.04205
212 1 6.42077 10.1869 0.38642
226 2 8.04328 10.2714 3.84758
313 2 7.84832 9.55002 5.87859
88 2 9.08347 9.01253 4.50346
245 3 7.36087 9.18856 5.09187
171 2 4.93243 5.90398 8.07245
176 2 8.51054 7.40214 1.0532
205 4 6.54076 11.3394 2.0868
110 2 9.1612 7.55912 7.09513
61 2 7.66174 7.682 4.24049
56 1 9.95822 6.67688 7.07503
55 1 7.96814 6.68352 3.70465
97 2 5.31323 6.78799 4.56901
218 2 6.13621 9.29 1.17288
105 2 8.59763 7.01529 2.70397
156 1 11.5925 7.04971 11.6422
81 2 11.5141 11.5574 8.78784
168 2 8.3145 10.9256 10.2532
21 4 10.9727 11.3143 12.2648
159 1 14.9779 11.1211 12.9965
319 2 12.3082 6.29511 11.132
255 2 10.7849 7.28027 15.4888
19 4 10.6847 10.1969 16.2459
115 3 9.40196 10.8794 13.1143
284 2 10.9849 7.62956 17.0959
283 1 11.5813 8.50181 16.8861
148 4 11.3577 8.64381 10.5762
73 2 8.93958 5.7203 15.8039
180 2 12.1112 7.5763 12.5381
196 3 11.4972 9.88668 11.9193
201 3 12.4752 8.68559 9.29272
325 2 11.5351 8.83641 15.1755
301 1 14.5387 9.89002 15.5971
303 2 14.9106 9.42928 17.3423
327 2 14.1257 9.38224 13.2334
281 2 13.341 10.1197 15.293
282 2 15.2014 10.8634 15.4251
259 1 8.90395 10.0104 15.7781
280 4 13.5381 8.40113 16.706
142 3 6.21385 5.12465 16.3348
111 2 6.60876 5.35496 9.5811
328 2 5.82352 6.54026 10.9286
256 2 10.3886 5.34546 14.8132
244 3 7.30724 8.77779 9.13996
57 1 6.75861 6.03456 10.5667
147 4 8.68698 9.53813 9.36931
251 1 10.308 6.51395 14.6121
288 2 7.3677 9.42126 11.9628
257 2 9.22601 6.75878 14.5058
258 4 8.44111 9.91946 13.942
261 2 8.71608 8.10237 13.5199
315 2 7.05376 7.82217 17.1702
318 2 8.46186 9.1933 16.4763
289 2 7.05107 7.63575 11.8401
287 1 7.28653 8.51293 12.6736
224 2 7.5105 6.81753 10.3428
181 2 10.6289 6.65518 11.8553
166 2 7.13793 5.26942 11.3742
195 3 9.7462 8.64134 10.0618
43 4 7.76254 4.43983 16.0707
67 2 10.8131 6.79418 13.5583
316 2 8.90009 7.67637 17.4631
321 2 8.43195 0.867388 0.72441
231 2 12.0607 4.47545 4.59865
330 2 11.4225 5.21986 0.719705
306 2 11.6996 3.77917 1.91927
128 3 9.48613 0.903209 5.55404
323 2 11.6339 0.775629 3.88518
129 3 15.1247 -0.292988 8.41878
208 4 13.8221 -0.704365 7.50478
133 3 12.7372 0.445647 7.27998
139 3 12.4537 2.67215 8.60281
132 3 11.7292 2.45936 5.87389
37 4 12.771 2.09558 7.14016
304 1 10.9189 4.56736 1.58744
273 2 11.1568 0.79866 0.985054
35 4 10.7099 1.7627 4.93146
187 2 18.6532 4.97992 7.8129
137 3 10.1288 2.93174 3.94278
230 2 12.2855 5.32353 2.84574
1 4 15.8806 2.80724 6.03771
2 4 16.3057 4.06316 2.89737
3 1 17.2233 3.66884 6.95023
184 2 15.4882 5.115 7.75022
8 2 16.6779 3.61554 8.0331
9 2 16.7775 1.25436 6.0224
10 2 17.1566 4.74014 6.53965
18 3 15.9632 3.50688 4.40295
161 2 14.8862 3.81289 1.52769
311 2 16.4467 2.79396 0.390104
6 1 16.0863 2.8059 1.45735
13 2 16.5033 5.82874 2.68364
16 2 14.1108 5.55814 3.50684
131 3 14.4153 2.68002 6.69516
95 2 18.2457 5.15432 4.4847
252 2 13.2331 6.48832 0.22547
214 1 13.0215 5.80176 3.66517
17 2 15.8587 1.79742 1.97858
277 2 13.4381 0.105628 14.2654
278 2 16.9736 0.835226 16.3537
20 4 15.0553 0.209533 9.96087
279 3 13.9076 -1.80762 16.1973
276 2 14.6998 0.920293 16.866
165 2 13.4321 2.4066 13.0866
309 2 11.7237 0.164561 14.6577
314 2 13.2351 -1.47281 13.2071
68 2 12.1353 0.999615 12.8809
136 3 10.9113 -0.391551 10.6769
135 3 13.6858 0.0358919 10.7318
39 4 12.2779 -0.112915 11.4603
36 4 9.72306 0.499637 10.1324
71 2 11.8608 3.42554 11.0104
305 2 11.9022 1.86486 16.754
41 4 11.1296 3.0716 9.44779
75 2 15.9077 2.4407 13.4792
308 2 9.21902 -1.2714 12.2331
269 4 14.4863 -0.490817 15.5853
307 1 12.2225 -0.880532 13.1563
155 1 11.7969 3.18061 12.9552
170 2 14.5676 3.83638 8.84816
198 3 16.8313 4.8901 10.2831
189 2 16.4024 -0.78095 17.1464
149 4 15.2265 4.9107 10.4983
310 2 16.1312 -0.673207 14.6986
254 2 13.6578 3.24847 16.4382
145 4 13.4961 4.26919 12.9796
250 1 13.7577 4.13374 17.0627
197 3 14.4192 4.36281 11.7236
23 4 18.0781 1.71744 13.4855
112 3 16.4171 -0.468738 10.7364
60 2 16.4852 3.66268 14.8883
77 2 18.2893 3.37148 14.0086
44 1 16.6262 2.60505 14.4125
76 2 16.4114 1.61646 15.3406
271 1 16.1782 0.0173349 16.3808
59 2 15.393 1.85707 9.79899
157 1 13.9436 5.2574 8.94558
262 2 16.9664 -1.73043 16.0238
173 2 11.3477 -1.61337 13.0453
114 3 18.0444 1.58564 11.953
183 2 12.7916 5.25152 8.77711
210 4 21.078 8.81763 8.76891
317 2 21.7001 12.1544 0.555231
297 2 18.7827 11.5621 1.11583
299 2 17.3982 11.2526 7.84314
298 1 16.5513 10.9539 7.17816
243 3 17.3542 9.33248 4.6066
292 2 18.697 7.86722 0.961349
209 4 18.6889 9.79854 3.82831
236 2 17.7307 11.7224 4.59898
300 2 16.5286 11.4292 6.10717
216 1 18.6475 11.6846 3.76553
237 2 18.6311 8.85384 2.28132
247 3 20.7505 9.19683 7.25368
51 1 18.9641 6.68165 5.48291
238 2 19.5745 12.2626 4.15805
265 2 19.4263 7.68394 5.17607
248 3 20.9339 11.5476 6.03168
223 2 18.2011 12.1044 2.68097
211 4 21.023 9.94507 5.80932
246 3 20.0979 9.35338 4.5948
219 2 20.51 11.3951 2.9786
222 2 19.6171 10.9421 8.55772
65 2 16.5537 12.6323 1.67946
291 1 17.9329 7.12811 2.4715
94 2 19.1788 6.32732 6.59136
144 4 12.2475 6.16055 5.2542
274 2 12.5778 7.46002 3.83624
158 1 19.286 5.6891 8.525
324 2 16.2229 9.31195 7.15235
294 2 18.3891 6.31198 1.81326
242 3 14.6763 9.59104 4.80305
234 2 16.6402 7.21877 3.87596
233 2 16.2274 6.7134 5.86265
232 2 16.8616 7.22649 2.40195
215 1 15.8421 7.14593 4.80463
207 4 16.0342 8.8769 5.36142
199 3 14.8513 7.78654 8.29936
146 4 14.3474 6.4543 7.6037
293 2 18.3237 7.01603 3.54518
235 2 14.7647 6.72809 4.4784
78 2 14.2759 12.0134 1.57999
93 2 17.8125 6.74686 5.27883
295 1 17.3874 12.6783 0.930657
192 3 13.2945 6.26138 6.42472
185 2 18.5116 6.96883 8.70713
30 4 20.3462 4.42394 17.0545
253 2 18.0321 8.01214 15.9408
239 2 20.5955 10.4159 10.5124
260 2 22.1563 10.2547 13.6025
217 1 19.9462 9.92423 9.66835
240 2 20.306 7.25349 9.03732
268 4 19.7567 9.69656 16.923
296 2 17.9413 9.99747 17.0314
190 2 20.0188 8.53345 11.9313
290 2 21.6915 8.61088 13.3419
241 2 19.1251 9.20879 9.97517
275 2 19.0726 7.0483 17.3941
172 2 19.937 8.47971 13.8148