ITEM: TIMESTEP
0
ITEM: NUMBER OF ATOMS
331
ITEM: BOX BOUNDS xy xz yz pp pp pp
-8.5267422552386698e+00 1.6992590935126586e+01 -8.6846960268427011e+00
-2.3082318705380849e+00 1.3000996215598949e+01 1.4418447067307354e+00
-1.5199799933352409e-02 1.7539999799933383e+01 -2.3940356549391200e+00
ITEM: ATOMS id type x y z
230 2 -2.89547 5.15223 2.70097
1 4 0.637337 2.81357 5.67637
2 4 1.11767 4.08506 2.59196
3 1 1.94326 3.42056 6.84853
8 2 1.33008 3.29396 7.80906
9 2 1.12541 1.16554 5.63428
10 2 1.93372 4.52966 6.51883
18 3 0.806467 3.53849 4.24305
83 2 1.96352 0.243381 7.10362
161 2 -0.336064 3.93092 1.41911
6 1 0.991589 2.71209 1.3642
15 2 2.61531 3.25256 1.71849
5 1 3.28244 0.627188 2.18754
12 2 3.87719 1.01457 3.044
4 1 1.83914 -0.603959 6.19252
16 2 -1.12962 5.28877 3.50145
131 3 -0.885035 2.84327 6.38445
11 2 2.99522 2.96653 6.95367
17 2 0.63393 1.71464 1.83207
187 2 2.99233 4.83011 7.90623
14 2 2.44328 1.38057 1.93546
214 1 -2.1834 5.63868 3.51313
266 3 5.65678 3.31035 0.470283
95 2 2.94869 5.26489 4.4093
89 2 3.91822 0.553177 1.25169
162 2 2.27136 -0.254969 5.21174
13 2 1.4335 5.80242 2.38977
79 2 5.13605 -0.00259682 2.36063
311 2 0.889071 2.6268 0.185637
118 3 7.4054 -0.0643143 6.59702
122 3 4.68203 2.09259 7.18913
27 4 4.54304 1.10151 8.42767
24 4 6.87109 0.145533 2.66463
47 1 4.66002 -0.782307 7.8707
184 2 -0.113605 5.20234 7.84176
117 3 7.15354 0.734437 4.04433
82 2 5.46914 -0.717463 7.05958
170 2 -0.799485 3.7876 8.92482
149 4 -0.296436 4.75799 10.449
254 2 -1.64366 3.18773 16.1945
145 4 -1.68307 3.93402 13.1276
116 3 3.06857 1.17617 9.22227
250 1 -1.35423 4.01573 16.962
197 3 -0.920647 4.18994 11.768
22 4 2.65181 0.472444 10.7101
23 4 2.82023 1.81178 13.4049
112 3 1.04453 -0.381759 10.7166
113 3 3.97339 -0.501724 11.1161
114 3 2.80067 1.83107 11.807
77 2 2.50628 3.36367 14.2275
44 1 1.04197 2.07722 14.0456
76 2 0.899549 1.32586 14.9646
60 2 0.769088 3.2249 14.3137
75 2 0.459492 1.62847 13.1166
267 3 5.23085 3.11181 17.4393
262 2 1.67148 -1.75802 16.0063
125 3 3.57832 0.784829 14.3737
278 2 1.60104 0.454532 16.5222
59 2 0.112314 1.95298 9.61215
271 1 0.655057 -0.0977493 16.3089
186 2 3.94761 4.4758 9.86077
322 2 7.3791 -1.45053 16.7094
121 3 4.59181 -1.08285 16.2086
119 3 5.07712 -1.03287 13.4078
84 2 6.08462 0.623716 10.3951
85 2 5.79949 2.55335 10.1244
29 4 4.87342 -0.108501 14.7758
48 1 5.97706 1.54111 9.60242
120 3 6.18605 0.867986 14.8557
99 2 6.48523 1.42537 12.033
310 2 0.747741 -0.730656 14.6673
183 2 -2.79427 5.31205 8.8106
276 2 -0.550322 1.14134 16.5419
326 2 8.91856 -1.80697 14.1026
198 3 1.22273 5.14417 10.2449
188 2 7.40543 -1.64652 12.8428
252 2 -0.330371 3.84593 17.4179
291 1 2.56853 7.38171 2.38665
221 2 -5.89563 11.0636 3.25835
169 2 -5.32571 10.7131 5.51567
143 4 -5.49056 11.2783 7.10237
213 1 -7.01874 10.8985 3.03628
228 2 -4.97283 10.1037 3.90482
220 2 -3.43982 9.5929 5.0225
49 1 -5.21419 9.07085 4.42106
167 2 -4.60021 8.89035 5.36515
144 4 -3.08616 6.26116 5.07594
274 2 -2.36816 7.23995 3.5451
80 2 -3.35662 10.6081 2.68147
62 2 0.156837 9.34397 0.0251504
87 2 -1.71054 11.7959 5.53888
193 3 -6.15003 10.0037 8.14584
285 2 -5.8969 11.7715 0.315122
286 2 -4.40869 10.9921 0.758989
200 3 -1.5053 10.4658 8.56042
158 1 3.61419 5.70135 8.49545
70 2 -3.72758 6.89909 0.103134
294 2 3.06161 6.60538 1.68316
45 1 -2.21318 10.9537 2.79636
293 2 2.90871 7.12878 3.49012
192 3 -2.19136 6.49204 6.35042
206 4 -2.00486 10.4117 4.44471
324 2 0.392319 9.46601 6.92659
227 2 -5.05173 8.20404 3.69984
163 2 -4.71521 8.07506 0.481254
93 2 2.39669 6.85433 5.16647
78 2 -0.632976 11.7996 2.0793
235 2 -0.655094 6.66165 4.30464
98 2 -1.45388 10.3117 2.233
146 4 -1.2667 6.55151 7.63845
199 3 -0.76795 7.98096 8.42894
207 4 0.521536 8.85823 5.2544
215 1 0.385927 7.11638 4.68102
232 2 1.4839 7.45616 2.25083
233 2 0.766155 6.6672 5.70958
234 2 1.22173 7.0827 3.78058
242 3 -0.792295 9.4837 4.47159
26 4 -0.488672 11.7928 8.13649
7 2 -5.98125 12.532 2.44294
312 2 -7.70051 12.4103 2.68112
108 2 -4.18668 7.17094 7.62593
185 2 2.88659 7.00634 8.54006
81 2 -3.72022 11.4903 8.7606
156 1 -3.96878 6.88051 11.6713
127 3 3.53689 4.7734 15.925
249 4 -0.861645 5.42732 15.7954
126 3 0.813398 5.36148 15.9089
159 1 -0.192795 10.9708 13.0086
319 2 -3.31942 6.25098 11.0358
21 4 -4.55951 11.3139 12.2499
19 4 -4.7063 10.3185 16.1958
115 3 -5.97144 10.793 12.9977
284 2 -4.261 7.66215 16.408
283 1 -3.71209 8.60193 16.5848
148 4 -4.25792 8.54844 10.7677
194 3 -1.47727 4.99364 14.3795
180 2 -3.47818 7.23522 12.6144
196 3 -3.88479 9.67833 11.737
201 3 -3.13332 8.52411 9.38901
325 2 -3.70426 9.40548 14.9308
202 3 3.26531 6.74515 11.3664
303 2 -0.46594 9.50956 17.5242
204 3 1.48084 8.52867 12.4916
153 4 0.0899417 9.28903 12.1323
282 2 0.0865239 10.7974 15.4294
259 1 -6.50812 10.0943 15.7949
280 4 -1.87951 8.44222 16.8219
281 2 -1.75464 10.1696 15.3777
150 4 2.69964 5.71416 10.2056
331 3 -1.45991 6.82051 16.4578
327 2 -1.04596 9.2319 13.4291
301 1 -0.662085 9.90033 15.7492
203 3 -0.676058 9.12633 10.7954
34 4 2.36255 5.79959 15.7441
302 2 -0.29948 8.94277 15.1632
182 2 -1.39356 6.46985 10.2438
64 2 2.59563 6.71585 14.2123
151 4 -1.61415 9.06277 9.28297
270 1 2.53147 7.30754 16.9732
253 2 2.2431 8.19565 16.3664
157 1 -1.6035 5.4099 9.05721
28 4 7.87687 1.21911 5.59352
31 4 6.00531 3.33335 6.61497
123 3 7.39935 2.60508 6.29388
124 3 5.39338 4.30992 5.3545
128 3 9.51488 1.11382 5.43753
263 4 5.12004 4.82844 0.755924
50 1 6.53466 4.46541 7.97722
96 2 4.94932 5.10777 2.59204
109 2 7.7686 4.55351 7.88636
264 2 7.25289 5.00264 0.0206844
46 1 7.69647 1.11088 1.09475
91 2 10.0258 5.41194 6.17472
320 2 8.31754 2.02166 1.58443
40 4 9.69632 4.13402 2.81706
69 2 9.88732 3.62469 0.866252
295 1 11.0811 0.243495 1.06919
137 3 10.1768 3.03131 3.7751
42 4 9.54535 5.43425 8.05252
106 2 8.13816 4.84183 3.12421
32 4 4.72086 5.35284 4.39141
58 2 10.7811 5.5633 2.81637
35 4 10.6937 2.00563 4.88149
175 2 10.4796 6.2869 1.25471
273 2 11.5234 1.35199 0.982046
304 1 11.1587 4.34617 1.4454
37 4 12.8451 2.1852 6.95504
132 3 11.6262 2.6773 5.99487
139 3 12.5187 2.69996 8.50984
133 3 13.0039 0.565325 6.99519
208 4 13.8551 -0.664408 7.45044
129 3 15.1447 -0.321076 8.37877
323 2 11.7151 0.844138 4.10281
306 2 11.8675 3.55795 1.78186
52 1 6.494 5.94022 0.185288
330 2 11.686 5.03766 0.685131
65 2 10.4807 0.0579211 1.9832
321 2 8.40946 0.330284 0.683243
231 2 12.2788 4.4765 4.61663
277 2 13.6394 0.187513 13.8642
179 2 11.6337 4.40542 12.4541
33 4 7.22762 1.88705 14.2106
53 1 7.41809 1.99274 12.4079
63 2 7.44485 3.10512 12.1334
66 2 8.87484 0.99089 11.7283
309 2 11.3089 -0.1495 14.4957
314 2 13.3287 -1.33731 13.1693
100 2 8.72357 1.16903 13.4766
130 3 8.71015 -0.231313 9.43715
134 3 9.43528 0.490983 16.4493
141 3 7.78672 3.32166 15.0415
36 4 9.74757 0.593328 10.2107
25 4 8.28122 -0.174881 17.4596
101 2 10.1064 2.38777 14.4854
138 3 10.2373 1.91599 9.57282
103 2 10.3356 3.02539 16.9513
102 2 10.6183 3.87972 15.2104
86 2 6.81234 1.53403 8.84091
140 3 10.4164 4.44891 8.94992
155 1 11.9196 3.25931 12.9289
307 1 12.2265 -0.924178 13.1001
269 4 14.3874 -0.345327 15.3513
38 4 10.5817 1.10917 15.6205
308 2 9.1395 -1.36546 12.2209
178 2 11.3254 2.4903 12.4127
104 2 12.1513 3.43006 16.4274
54 1 11.0254 3.11731 16.0451
41 4 11.251 3.04627 9.39166
189 2 15.9564 -0.996094 17.0728
177 2 11.5523 3.2719 14.1348
305 2 12.0833 1.54878 16.5137
71 2 11.8379 3.37814 10.9401
39 4 12.3242 -0.0109781 11.4753
135 3 13.7174 0.0649916 10.6998
136 3 10.9669 -0.415478 10.7069
68 2 12.1283 0.923004 13.0883
165 2 13.454 2.29659 13.6263
92 2 6.18252 3.79473 8.89841
279 3 13.6458 -1.63357 16.0144
20 4 15.1678 0.288304 9.87574
107 2 7.13235 6.17724 3.25095
94 2 3.66779 6.40271 6.54209
297 2 3.52587 12.0255 0.98788
299 2 1.7493 11.1137 8.1067
298 1 0.936045 11.1267 7.31034
243 3 1.95193 9.43827 4.65041
292 2 3.16314 8.07079 0.673772
209 4 3.28463 9.84745 3.92898
236 2 2.30337 11.81 4.67037
300 2 1.05208 11.795 6.34814
216 1 3.22199 11.769 3.86568
237 2 3.26643 9.09002 2.28632
212 1 6.19289 10.3146 0.382239
51 1 3.53067 6.77998 5.43472
238 2 4.18618 12.3507 4.26677
265 2 3.98181 7.80326 5.29297
226 2 7.89986 10.3341 3.92579
223 2 2.89877 12.2188 2.74805
88 2 9.0467 9.02754 4.72189
171 2 4.71685 5.85331 8.03002
176 2 8.96257 7.37355 0.944347
61 2 7.66916 7.68349 4.2386
55 1 8.01386 6.7103 3.71216
105 2 8.75905 7.00141 2.78692
74 2 6.5824 6.56495 1.2638
218 2 5.95115 9.30293 1.51343
97 2 5.28668 7.0016 4.59303
222 2 3.96031 11.0735 8.30675
56 1 10.2256 6.86297 7.1439
219 2 5.06109 11.8725 3.33905
110 2 9.44128 7.72522 6.96722
205 4 6.30832 11.1875 2.16762
246 3 4.58861 9.51524 4.61714
211 4 5.52426 9.73434 5.92393
245 3 7.2926 9.1679 5.15663
248 3 5.71644 11.3599 6.17815
313 2 7.80403 9.52629 5.92727
247 3 5.04808 8.96614 7.19756
317 2 5.85794 12.0669 0.620949
154 1 10.0732 7.40027 1.25261
164 2 10.6693 6.90989 5.29464
225 2 7.49688 11.9649 6.11603
210 4 5.48814 8.60008 8.73278
229 2 8.3433 10.1593 2.10758
72 2 9.08495 7.07386 8.70955
329 2 10.1949 7.84781 2.33299
90 2 6.02541 5.54228 7.94108
174 2 8.51143 5.96569 4.48739
275 2 1.95737 9.85062 0.0944423
30 4 4.87 4.60737 16.8898
142 3 6.32801 5.21323 16.2096
239 2 5.14102 10.3926 10.2787
256 2 10.3153 5.17176 14.7924
315 2 6.85276 7.75986 17.2179
240 2 4.77468 7.11576 9.22963
268 4 4.35849 10.0367 16.8515
255 2 10.4009 6.88246 15.4271
289 2 6.7967 7.40271 12.4022
290 2 6.52254 8.30696 13.9655
241 2 3.62812 9.39232 9.94081
173 2 2.83585 11.1824 12.7565
287 1 7.16125 8.2846 13.0685
191 2 3.92331 10.0318 13.2036
272 2 3.96637 8.47822 16.1357
43 4 7.72073 4.42868 16.1426
160 1 4.17133 8.86616 13.1396
67 2 10.6433 6.51237 13.5221
73 2 9.11458 5.4767 16.1219
152 4 2.86335 7.63674 12.6904
172 2 4.42905 8.40688 14.1936
195 3 9.4618 8.51005 10.266
166 2 6.93383 5.35424 11.6777
181 2 10.3533 6.34424 11.844
224 2 7.42761 6.94181 10.7733
190 2 4.90036 8.56001 12.2648
217 1 4.49172 9.96864 9.54085
318 2 8.37927 9.22266 16.5109
260 2 6.90102 9.95213 14.0976
261 2 8.8748 8.02527 13.61
258 4 8.60703 9.74102 13.9128
257 2 8.91159 6.3188 14.4292
288 2 6.87343 9.21259 12.4566
251 1 10.0344 6.22798 14.532
147 4 8.48604 9.50545 9.45259
57 1 6.66846 6.10179 10.818
244 3 7.06429 8.7303 9.10595
168 2 8.11517 10.8243 10.395
328 2 5.65148 6.57718 10.9716
111 2 6.65418 5.47949 9.76101
296 2 2.62026 10.4923 17.3439
316 2 8.62653 7.80495 17.5351
ITEM: TIMESTEP
100
ITEM: NUMBER OF ATOMS
331
ITEM: BOX BOUNDS xy xz yz pp pp pp
-8.5267422552386698e+00 1.6992590935126586e+01 -8.6846960268427011e+00
-2.3070348527106153e+00 1.2994538619383350e+01 1.4418447067307354e+00
-1.5199799933352409e-02 1.7539999799933383e+01 -2.3928386371116503e+00
ITEM: ATOMS id type x y z
230 2 -2.95428 5.22153 2.75395
1 4 0.45863 2.8444 5.85913
2 4 0.907785 3.97878 2.88698
3 1 1.86523 3.50327 6.92111
8 2 1.28097 3.33043 7.94161
9 2 1.33315 1.3279 5.97059
10 2 1.80832 4.60699 6.51178
18 3 0.683475 3.43563 4.33362
83 2 1.7869 0.103762 7.25316
161 2 -0.521116 3.84557 1.82045
6 1 0.996776 2.81977 1.36285
15 2 2.48876 3.2216 1.91572
5 1 3.26546 0.687097 2.03529
12 2 3.8095 1.12907 2.92361
4 1 1.96931 -0.495365 6.23115
16 2 -1.08214 5.34361 3.4883
131 3 -0.990431 2.83003 6.5451
11 2 2.92339 3.03498 6.88167
17 2 0.57688 1.82873 1.70363
187 2 3.12911 4.86228 7.83747
14 2 2.38233 1.45562 1.75172
214 1 -2.16109 5.68715 3.60083
252 2 -2.03308 6.33869 0.0931316
95 2 2.98863 5.18345 4.21371
89 2 3.97247 0.592826 1.16383
162 2 2.43736 0.15739 5.41904
13 2 1.53457 5.62522 2.65843
79 2 5.11956 0.207137 2.35139
311 2 0.890617 3.11311 0.250759
118 3 7.35941 -0.07716 6.49143
122 3 4.53651 2.11626 7.10327
27 4 4.37228 1.12565 8.31316
24 4 6.79122 0.367109 2.64782
47 1 4.60298 -0.67 7.91304
184 2 -0.0634415 5.16206 7.77204
117 3 7.12006 0.82482 4.04534
267 3 3.82714 5.51183 0.11372
82 2 5.54671 -0.593619 7.29574
170 2 -0.737538 3.77411 8.93791
149 4 -0.20971 4.85753 10.4677
254 2 -1.83279 3.23954 16.3986
145 4 -1.87733 4.30167 12.9706
116 3 2.93405 1.21138 9.10686
250 1 -1.56129 4.10463 17.011
197 3 -0.908207 4.31002 11.7542
22 4 2.68119 0.463533 10.7132
23 4 2.88087 1.84624 13.3972
112 3 1.11574 -0.511196 10.6856
113 3 3.83733 -0.664154 10.9745
114 3 2.69469 1.63026 11.8443
77 2 2.69109 3.51895 13.8457
44 1 1.16623 2.3586 14.1191
76 2 1.01789 1.4257 14.9479
60 2 0.757234 3.28829 14.477
75 2 0.619547 2.0355 13.1226
198 3 1.34885 4.98566 10.2427
262 2 1.58838 -1.68793 16.1188
125 3 3.48962 0.812422 14.4339
278 2 1.48056 0.922841 16.6155
59 2 0.143413 1.90693 9.896
271 1 0.688484 0.085165 16.4153
186 2 4.11107 4.68289 9.91303
322 2 7.515 -1.53059 16.7322
121 3 4.68987 -1.32851 15.9356
119 3 5.35087 -0.982786 13.3757
84 2 5.93235 0.543358 10.0515
85 2 5.24673 2.18708 10.4071
29 4 4.84863 -0.0930919 14.6239
48 1 5.6726 1.48887 9.62429
120 3 6.00999 1.08908 14.8945
99 2 6.32002 1.29585 12.4274
310 2 0.916795 -0.598515 14.8987
188 2 7.39374 -1.55142 12.9428
189 2 0.712511 -0.722075 17.1694
183 2 -2.63361 5.25205 8.88918
291 1 2.60274 7.22574 2.43118
221 2 -5.79896 10.9384 3.13806
169 2 -4.81869 10.606 5.53404
143 4 -5.45968 11.1595 7.08249
213 1 -6.91176 10.8449 3.00289
228 2 -4.94362 10.0817 3.92952
220 2 -3.36408 9.52522 4.9339
49 1 -5.15226 8.98947 4.44786
167 2 -4.47284 8.82705 5.37581
144 4 -2.9378 6.19957 5.21372
274 2 -2.3902 7.35078 3.71864
80 2 -3.45833 11.2659 2.80173
329 2 -5.05857 8.06394 2.2368
87 2 -1.95234 11.8447 5.44265
193 3 -6.05515 10.0997 8.04466
285 2 -5.4351 12.1243 0.425102
286 2 -4.25723 10.8464 0.736654
200 3 -1.43506 10.4512 8.42666
158 1 3.73012 5.69804 8.47959
70 2 -3.87774 6.91182 0.150212
294 2 3.0603 6.53266 1.68766
45 1 -2.25981 11.0424 2.68282
293 2 2.95281 6.99133 3.51356
192 3 -2.04681 6.36107 6.47825
206 4 -2.02341 10.5028 4.36655
324 2 0.797556 9.3842 7.05137
227 2 -4.99959 8.11367 3.60013
185 2 2.80609 7.05953 8.66855
93 2 2.41061 6.75635 5.08975
78 2 -0.8068 11.9204 1.92273
235 2 -0.526489 6.5747 4.31343
98 2 -2.084 10.0044 2.14961
146 4 -1.14879 6.54901 7.72107
199 3 -0.590541 7.92619 8.29062
207 4 0.505683 8.77987 5.36276
215 1 0.437958 7.07007 4.74961
232 2 1.40158 7.22744 2.38421
233 2 0.801612 6.60978 5.78485
234 2 1.31969 7.19383 3.84069
242 3 -0.739828 9.6137 4.6769
26 4 -0.401181 11.6801 7.89639
7 2 -5.93785 12.529 2.35143
312 2 -7.61706 12.4079 2.82715
108 2 -4.14708 6.5556 8.05495
225 2 -7.69853 11.9282 5.88473
94 2 3.58091 6.23981 6.57466
156 1 -3.78518 6.98792 11.7321
127 3 3.5474 4.77016 15.9595
249 4 -0.796836 5.40485 15.811
126 3 0.802261 5.27604 15.763
159 1 -0.196242 11.0102 12.918
319 2 -2.99104 6.32958 11.2368
157 1 -1.47375 5.34522 9.04267
19 4 -4.70878 10.2697 16.3218
115 3 -6.09341 11.0121 13.1579
284 2 -4.52433 7.52523 16.9393
283 1 -3.85885 8.48325 16.6974
148 4 -4.15751 8.64228 10.7058
194 3 -1.50732 4.95706 14.4172
180 2 -3.44052 7.44775 12.6895
196 3 -3.96334 9.93267 11.7243
201 3 -3.02424 8.55833 9.61288
325 2 -3.96289 8.89831 15.1294
202 3 3.061 6.54548 11.6425
303 2 -0.619763 9.68574 17.3938
204 3 1.28368 8.58889 12.3555
153 4 -0.077953 9.29849 12.0161
282 2 -0.137357 10.6991 15.243
259 1 -6.50486 10.2023 15.8303
280 4 -1.79703 8.38886 16.7605
281 2 -1.92789 9.89446 15.1157
150 4 2.70685 5.81068 10.1999
331 3 -1.3075 6.93709 16.3304
327 2 -1.33173 9.41921 13.1966
301 1 -0.739477 9.79582 15.5936
203 3 -0.662862 9.08001 10.623
34 4 2.33627 5.72955 15.7967
302 2 -0.166249 8.88433 15.1793
182 2 -1.07817 6.53106 10.3491
64 2 2.52313 6.73154 14.3044
151 4 -1.48439 9.10306 9.21955
270 1 2.69996 7.34493 16.7725
255 2 -4.76472 7.23003 15.3721
21 4 -4.5749 11.2761 12.2857
168 2 -6.95366 10.8576 10.4084
81 2 -3.92966 11.609 8.8449
62 2 1.64762 7.12072 17.4419
28 4 7.90881 1.16589 5.55558
31 4 5.94948 3.2522 6.4577
123 3 7.3252 2.59291 6.05991
124 3 5.35985 4.22177 5.36904
128 3 9.53885 0.981598 5.48567
263 4 5.19972 4.86025 0.85674
50 1 6.29568 4.47798 7.87213
96 2 4.99097 5.05387 2.57976
109 2 7.45243 4.44542 8.13093
266 3 5.79711 3.37316 0.573832
46 1 7.75209 1.44504 1.29858
91 2 9.80494 5.36322 6.22171
320 2 8.33066 1.99526 2.18751
40 4 9.68927 4.03143 2.82959
69 2 9.70605 3.55482 0.925032
295 1 10.6902 -0.0329728 0.972801
137 3 10.1733 2.88922 3.81048
42 4 9.38737 5.1742 8.01965
106 2 8.11948 4.78913 3.18299
32 4 4.73551 5.26402 4.36768
58 2 10.7078 5.50528 2.98312
35 4 10.7562 1.82345 4.90547
90 2 5.95717 5.51052 7.45601
273 2 10.9566 1.05502 1.14879
304 1 11.0885 4.44381 1.52585
37 4 12.7927 2.20097 7.06236
132 3 11.6834 2.56864 5.9198
139 3 12.4752 2.87957 8.47009
133 3 12.914 0.551219 7.12333
208 4 13.8242 -0.710115 7.43317
129 3 14.942 -0.273113 8.4851
323 2 11.7153 0.740311 3.97915
306 2 11.8696 3.68858 1.9411
52 1 6.56785 5.85621 0.109749
330 2 11.5134 5.16033 0.680779
231 2 12.2476 4.47063 4.60838
321 2 8.43836 0.719821 0.762232
92 2 5.61947 4.02925 8.67247
174 2 8.51856 5.93261 4.3791
277 2 13.6858 0.127874 14.0448
179 2 11.6909 4.74514 12.3574
33 4 7.3598 1.86512 14.3906
53 1 7.30776 1.78419 12.6177
63 2 7.31891 2.9021 12.3934
66 2 8.63804 1.11538 11.5269
309 2 11.4575 0.0858004 14.4654
314 2 13.3967 -1.35244 13.0492
100 2 8.633 0.840997 13.5367
130 3 8.70386 -0.193532 9.15566
134 3 9.46791 0.439826 16.4965
141 3 7.78174 3.31639 14.897
36 4 9.67901 0.588385 10.1077
25 4 8.3253 -0.14782 17.4583
101 2 10.0222 2.24535 14.5431
138 3 10.2296 1.92765 9.6431
103 2 10.2226 3.34237 16.897
102 2 10.4182 3.9454 15.1674
86 2 6.5613 1.98901 9.02955
140 3 10.3508 4.33918 8.89867
155 1 11.8773 3.22383 12.924
307 1 12.3258 -0.953007 13.0651
269 4 14.4966 -0.54575 15.422
38 4 10.6576 1.09685 15.618
308 2 9.16449 -1.40029 12.03
178 2 11.0976 2.55665 12.3457
104 2 11.9524 3.59197 16.3099
54 1 10.8552 3.29096 15.9926
41 4 11.2167 3.08927 9.44914
264 2 8.81831 2.73967 17.2725
177 2 11.4777 3.27724 14.0747
305 2 12.089 1.84828 16.3408
71 2 11.8509 3.51973 10.9873
39 4 12.3081 -0.0782586 11.4341
135 3 13.7649 0.109678 10.7851
136 3 10.893 -0.301794 10.6643
68 2 12.0896 0.935384 12.9619
165 2 13.4141 2.39406 13.0843
276 2 14.5583 1.04949 16.418
279 3 13.8045 -1.80601 16.144
20 4 15.3049 0.202818 9.91948
326 2 8.97124 -1.71574 13.9678
173 2 11.4523 -1.6677 12.901
107 2 6.90584 6.24908 3.40489
229 2 8.31033 10.2178 2.03148
297 2 3.57543 11.9412 1.1221
299 2 1.87809 11.0736 8.16156
298 1 1.10701 10.8773 7.30471
243 3 1.9237 9.28788 4.64175
292 2 3.26669 8.06186 0.777715
209 4 3.24729 9.72432 3.93784
236 2 2.2064 11.6813 4.63128
300 2 1.33289 11.5311 6.37521
216 1 3.11401 11.6293 3.84502
237 2 3.1787 9.02018 2.28635
212 1 6.36056 10.3884 0.366255
51 1 3.51343 6.63998 5.40491
238 2 4.03625 12.0657 4.29643
265 2 4.13564 7.62949 5.29194
226 2 8.05186 10.3157 3.89468
223 2 2.74837 12.149 2.66861
88 2 9.14361 8.98851 4.74242
171 2 4.69833 5.97112 7.99029
176 2 8.74707 7.55082 1.26918
61 2 7.75764 7.7161 4.46657
55 1 7.9363 6.68383 3.76196
105 2 8.59388 6.99841 2.84958
65 2 1.34459 12.5656 1.84132
218 2 6.1787 9.44503 1.78085
97 2 5.31135 6.85675 4.61873
222 2 4.13493 10.9864 8.43684
56 1 10.2594 6.67678 7.43273
219 2 4.87682 11.5865 2.97958
110 2 9.82605 7.66201 7.52067
205 4 6.33344 11.3256 2.12181
246 3 4.62346 9.33449 4.53576
211 4 5.66365 9.87536 5.71455
245 3 7.45097 9.10241 5.26269
248 3 5.5868 11.4908 6.05336
313 2 7.50658 8.69273 6.19631
247 3 5.26022 8.90066 7.15328
317 2 5.86778 11.8883 0.333929
154 1 9.87749 7.47125 1.30805
164 2 10.7996 6.72903 5.63762
316 2 7.49554 10.3 0.194487
210 4 5.47632 8.68858 8.7547
163 2 10.2333 7.86879 0.370295
175 2 10.2448 6.36338 1.35329
74 2 6.841 6.44153 1.1257
72 2 8.93795 6.73163 8.73573
30 4 4.90903 4.638 16.8965
142 3 6.22776 5.22802 16.2458
239 2 5.61764 10.3708 10.36
256 2 10.3209 5.36398 14.877
315 2 7.24 7.44363 17.073
240 2 4.91136 7.04619 9.19031
268 4 4.35894 9.98252 16.9558
296 2 2.51855 10.3736 17.0435
289 2 6.85395 7.63726 12.0684
290 2 6.47063 8.58244 13.6314
241 2 4.04282 9.41955 10.4031
275 2 3.59414 7.3501 17.4646
287 1 7.19624 8.5662 12.7749
191 2 3.95473 9.97189 13.039
272 2 4.30422 8.40145 16.1975
43 4 7.69319 4.42505 16.0369
160 1 4.0983 8.74147 12.9888
67 2 10.711 6.69505 13.5315
73 2 9.0077 5.55276 15.9536
152 4 2.67676 7.63932 12.7747
172 2 4.48846 8.32505 14.0096
195 3 9.62417 8.6094 10.2093
166 2 6.45667 5.39831 11.5341
181 2 10.5786 6.474 11.8024
224 2 7.61233 6.50519 10.8357
190 2 4.73966 8.37681 12.0883
217 1 4.78822 9.96942 9.75269
318 2 8.48574 9.34571 16.553
260 2 6.79162 10.1596 13.8705
261 2 8.86196 8.1028 13.3463
258 4 8.51314 9.8648 13.9556
257 2 9.03248 6.71053 14.5035
288 2 6.97107 9.52239 12.1601
251 1 10.1426 6.48557 14.6047
147 4 8.65863 9.54927 9.40116
57 1 6.61275 6.06004 10.7366
244 3 7.24427 8.92128 9.13997
253 2 2.619 8.24872 16.1068
328 2 5.84014 6.8341 10.8337
111 2 6.5397 5.45745 9.77823
ITEM: TIMESTEP
200
ITEM: NUMBER OF ATOMS
331
ITEM: BOX BOUNDS xy xz yz pp pp pp
1.5795377160403223e-01 2.3700687365075705e+01 6.7080964299491193e+00
-2.3058378348831456e+00 1.2988081023167751e+01 1.4418447067307354e+00
-1.5199799933352409e-02 1.7539999799933383e+01 -2.3916416192841807e+00
ITEM: ATOMS id type x y z
82 2 5.73649 -0.600641 7.1786
267 3 3.84339 5.27099 0.0738922
117 3 7.27122 0.880798 3.95553
47 1 4.72881 -0.755551 7.78438
24 4 6.74382 0.435316 2.59521
27 4 4.24343 1.22203 8.38394
122 3 4.39033 2.16897 7.08876
118 3 7.25699 -0.174599 6.40681
83 2 1.63403 -0.12439 7.11818
79 2 5.04951 0.484469 2.56915
162 2 2.62078 0.10125 5.54778
15 2 2.3372 3.34965 2.16293
5 1 3.10246 0.87824 2.27217
12 2 3.65695 1.35742 3.16143
4 1 2.03187 -0.588789 6.18999
89 2 3.76221 0.727911 1.3607
14 2 2.21857 1.56931 1.97514
58 2 10.5781 5.6648 2.92545
28 4 7.92346 1.07365 5.70101
32 4 4.62109 5.21759 4.28736
92 2 5.39887 3.93585 8.44369
31 4 5.92157 3.15799 6.36998
123 3 7.36684 2.49998 6.30846
124 3 5.35931 4.08715 5.16577
52 1 6.61053 6.04977 0.176303
263 4 5.25822 4.85128 0.793035
50 1 6.27266 4.33893 7.73446
96 2 4.93247 4.99553 2.57273
109 2 7.67713 4.15225 8.24914
266 3 5.98799 3.4727 0.451805
46 1 7.61496 1.48204 1.19431
91 2 9.56276 5.07118 6.27409
320 2 7.97851 2.22101 2.02164
40 4 9.60382 4.06069 2.9098
69 2 9.51943 3.70315 1.03479
106 2 8.04572 4.76555 3.07787
42 4 9.31949 5.11223 8.11493
90 2 6.11469 5.40434 7.39735
11 2 2.92641 3.14845 6.96376
7 2 2.6913 -0.238541 2.56432
175 2 10.1691 6.42904 1.21469
264 2 7.54705 5.5403 0.112304
188 2 7.24266 -1.41496 12.7544
99 2 6.32195 1.25759 12.2789
120 3 6.17969 0.902464 14.9917
48 1 5.63832 1.6687 9.46674
116 3 2.7459 1.11986 9.15292
29 4 4.89603 -0.0435744 14.6713
85 2 5.12211 2.06867 10.4065
22 4 2.5204 0.431632 10.7347
84 2 6.11183 0.614675 9.67441
119 3 5.31966 -0.693742 13.1475
113 3 3.78551 -0.718337 10.8301
121 3 4.70043 -1.34609 15.9312
322 2 7.32201 -1.39152 16.6324
186 2 4.27547 4.63737 9.94686
125 3 3.47626 0.771163 14.4594
38 4 10.7279 1.24471 15.6409
33 4 7.33803 1.86228 14.3239
140 3 10.4109 4.4043 9.03429
53 1 7.38077 1.70973 12.5402
63 2 7.55068 2.76937 12.1252
66 2 8.66252 0.7323 11.527
100 2 8.72037 0.932931 13.4661
130 3 8.8728 -0.320101 9.09469
134 3 9.56239 0.516711 16.4487
141 3 7.77478 3.32672 14.9256
25 4 8.25783 -0.118397 17.3602
101 2 9.98964 2.41969 14.5297
138 3 10.2337 1.89656 9.72579
177 2 11.4596 3.27257 14.0926
178 2 11.0998 2.59745 12.4249
103 2 10.2227 3.39084 16.9367
54 1 10.8571 3.37407 15.9806
104 2 11.9358 3.76578 16.2377
102 2 10.3621 4.0003 15.1455
86 2 6.43159 2.37124 9.11029
326 2 8.49898 -1.62625 14.1012
179 2 11.6759 4.85995 12.5176
225 2 7.9629 11.6969 5.61023
221 2 9.68828 11.0998 3.3448
169 2 10.6426 10.3912 5.50471
143 4 10.1306 11.1208 7.01267
213 1 8.5333 10.8892 2.97351
228 2 10.4827 10.041 3.75524
220 2 11.9883 9.43387 4.82109
49 1 10.1502 8.96236 4.18192
167 2 10.7183 8.67294 5.20078
108 2 10.927 6.85084 7.67429
312 2 7.75637 12.479 2.80588
80 2 12.1593 11.3405 2.7524
329 2 9.93258 8.1789 1.9792
87 2 13.2925 11.7714 5.32246
193 3 9.30692 10.2616 8.06164
285 2 9.64469 12.0717 0.512657
286 2 11.3136 11.0377 0.786663
200 3 13.9956 10.4802 8.13791
174 2 8.61851 6.13058 4.40074
26 4 15.0488 11.7137 7.86085
98 2 13.3871 10.0333 2.16359
45 1 13.2939 11.123 2.69148
227 2 10.3521 8.14321 3.28142
206 4 13.3587 10.329 4.3827
70 2 11.272 6.87636 0.066882
72 2 8.75497 6.72543 8.5595
74 2 6.55885 6.70343 1.17666
163 2 9.89365 7.91261 0.0919905
229 2 8.57521 10.2488 2.0134
107 2 7.06659 6.13562 3.45479
164 2 10.2944 6.3496 5.43444
154 1 9.60601 7.49736 1.04142
212 1 6.42025 10.1745 0.389468
226 2 8.04367 10.2643 3.84777
313 2 7.84749 9.54475 5.88108
88 2 9.08354 9.00735 4.50502
245 3 7.36138 9.18368 5.09371
171 2 4.93428 5.90739 8.07082
176 2 8.5113 7.39658 1.0507
205 4 6.54111 11.3305 2.08593
110 2 9.16126 7.56219 7.09272
61 2 7.6616 7.67843 4.24035
56 1 9.95753 6.67844 7.074
55 1 7.968 6.68097 3.70375
97 2 5.31153 6.7875 4.56753
218 2 6.13246 9.27899 1.17257
105 2 8.59737 7.01248 2.70361
156 1 11.5948 7.05262 11.641
81 2 11.5166 11.5512 8.78629
168 2 8.31325 10.9271 10.2493
21 4 10.9736 11.3156 12.2655
159 1 14.9771 11.1227 12.9966
319 2 12.3112 6.3001 11.1292
255 2 10.7857 7.28825 15.489
19 4 10.6843 10.2028 16.247
115 3 9.40233 10.881 13.115
284 2 10.9845 7.63635 17.0956
283 1 11.5816 8.50907 16.8873
148 4 11.3582 8.6442 10.5762
73 2 8.94092 5.7335 15.8027
180 2 12.1139 7.57864 12.5379
196 3 11.4976 9.88802 11.9203
201 3 12.4754 8.68561 9.29206
325 2 11.5363 8.84282 15.1763
301 1 14.5394 9.89684 15.5972
303 2 14.9111 9.43848 17.3421
327 2 14.126 9.38428 13.2349
281 2 13.3411 10.125 15.2924
282 2 15.2037 10.8697 15.4165
259 1 8.90341 10.0157 15.7789
280 4 13.5387 8.41006 16.7069
142 3 6.21392 5.13633 16.3335
111 2 6.60871 5.3584 9.58112
328 2 5.82323 6.54295 10.9299
256 2 10.3875 5.34748 14.8125
244 3 7.30621 8.77807 9.13994
57 1 6.75856 6.03836 10.5672
147 4 8.68702 9.53714 9.36887
251 1 10.308 6.52355 14.6117
288 2 7.36538 9.42459 11.962
257 2 9.22623 6.7714 14.5052
258 4 8.44163 9.92325 13.9425
261 2 8.71556 8.10901 13.5172
315 2 7.0511 7.83658 17.1763
318 2 8.45874 9.19377 16.4829
289 2 7.04949 7.64025 11.8412
287 1 7.28528 8.51707 12.6731
224 2 7.50928 6.82121 10.3427
181 2 10.6316 6.65672 11.8546
166 2 7.13965 5.2739 11.3741
195 3 9.74554 8.64158 10.0626
43 4 7.76304 4.45272 16.0705
67 2 10.8148 6.80153 13.5585
316 2 8.89818 7.68064 17.4655
321 2 8.43522 0.867831 0.722645
231 2 12.0619 4.47591 4.59738
330 2 11.4226 5.21387 0.718579
306 2 11.6992 3.7761 1.9217
128 3 9.48779 0.904832 5.55344
323 2 11.6353 0.784984 3.88419
129 3 15.1243 -0.284941 8.41888
208 4 13.8217 -0.696849 7.50474
133 3 12.7365 0.452484 7.28052
139 3 12.4534 2.67905 8.60331
132 3 11.7286 2.46526 5.8749
37 4 12.7707 2.102 7.14063
304 1 10.9186 4.56311 1.58714
273 2 11.1563 0.798943 0.981919
35 4 10.7099 1.76681 4.93263
187 2 18.6561 4.98277 7.81243
137 3 10.1273 2.93398 3.94462
230 2 12.2831 5.31988 2.84459
1 4 15.8807 2.81185 6.0379
2 4 16.3036 4.06227 2.89666
3 1 17.223 3.67306 6.95062
184 2 15.4865 5.11801 7.75092
8 2 16.6772 3.61962 8.03421
9 2 16.7739 1.25832 6.01905
10 2 17.1568 4.74377 6.54026
18 3 15.9626 3.50954 4.39961
161 2 14.8874 3.80622 1.5263
311 2 16.452 2.7968 0.391448
6 1 16.0844 2.8044 1.45668
13 2 16.5015 5.82865 2.68054
16 2 14.1083 5.55649 3.50402
131 3 14.4148 2.6854 6.69509
95 2 18.2463 5.15116 4.48652
252 2 13.2367 6.48231 0.224725
214 1 13.0205 5.79892 3.66434
17 2 15.8573 1.79394 1.97359
277 2 13.4399 0.121164 14.2626
278 2 16.9715 0.852336 16.3572
20 4 15.0545 0.220108 9.96084
279 3 13.9084 -1.78929 16.1967
276 2 14.6969 0.936701 16.8669
165 2 13.4306 2.41434 13.0876
309 2 11.7186 0.175791 14.6594
314 2 13.2337 -1.456 13.2123
68 2 12.1313 1.01403 12.8821
136 3 10.9103 -0.381608 10.6779
135 3 13.685 0.0475078 10.7318
39 4 12.2774 -0.101043 11.4606
36 4 9.72273 0.508996 10.1325
71 2 11.8617 3.43214 11.0111
305 2 11.9022 1.87746 16.7535
41 4 11.1292 3.07867 9.44783
75 2 15.9085 2.45341 13.4752
308 2 9.21838 -1.25511 12.2317
269 4 14.4862 -0.47257 15.5846
307 1 12.224 -0.865633 13.1555
155 1 11.7961 3.18854 12.9554
170 2 14.5671 3.84125 8.8496
198 3 16.8305 4.89499 10.2829
189 2 16.4028 -0.759409 17.1485
149 4 15.2268 4.91493 10.4986
310 2 16.1321 -0.656904 14.6987
254 2 13.6575 3.25957 16.4398
145 4 13.496 4.27701 12.9798
250 1 13.7585 4.14605 17.0623
197 3 14.4197 4.36878 11.7245
23 4 18.0784 1.73073 13.4855
112 3 16.4175 -0.455717 10.7374
60 2 16.4838 3.67485 14.8865
77 2 18.2884 3.3834 14.0081
44 1 16.6251 2.61795 14.4105
76 2 16.4094 1.62927 15.3375
271 1 16.1778 0.0353747 16.382
59 2 15.3912 1.86656 9.79649
157 1 13.9427 5.26096 8.94579
262 2 16.9671 -1.71156 16.0224
173 2 11.3504 -1.59964 13.0458
114 3 18.0442 1.59829 11.953
183 2 12.7898 5.2562 8.77499
210 4 21.0793 8.81639 8.76917
317 2 21.6957 12.1387 0.556573
297 2 18.7816 11.5504 1.11444
299 2 17.398 11.2486 7.84407
298 1 16.5526 10.9502 7.17891
243 3 17.3561 9.32873 4.60649
292 2 18.6987 7.86014 0.958926
209 4 18.69 9.79443 3.82834
236 2 17.7334 11.7153 4.59765
300 2 16.5316 11.4241 6.10849
216 1 18.6488 11.6791 3.76435
237 2 18.6308 8.84826 2.28224
247 3 20.75 9.19324 7.2552
51 1 18.9641 6.68088 5.48283
238 2 19.5775 12.2568 4.15702
265 2 19.4264 7.68239 5.17566
248 3 20.9346 11.5422 6.03077
223 2 18.2016 12.0966 2.68206
211 4 21.0235 9.94082 5.80896
246 3 20.0977 9.34805 4.59425
219 2 20.5153 11.388 2.97813
222 2 19.6193 10.9389 8.55855
65 2 16.5513 12.6213 1.67753
291 1 17.9326 7.12505 2.47101
94 2 19.1795 6.32712 6.59095
144 4 12.2468 6.15976 5.25366
274 2 12.5763 7.46178 3.83474
158 1 19.2882 5.69035 8.52561
324 2 16.2244 9.30917 7.15139
294 2 18.3874 6.30763 1.81323
242 3 14.6759 9.58493 4.80336
234 2 16.6405 7.217 3.87511
233 2 16.2281 6.70733 5.86477
232 2 16.8615 7.22413 2.40079
215 1 15.842 7.14305 4.80505
207 4 16.0345 8.87288 5.36137
199 3 14.8518 7.78761 8.29921
146 4 14.3475 6.45612 7.60375
293 2 18.3227 7.0133 3.54478
235 2 14.7637 6.72461 4.47942
78 2 14.2805 12.0014 1.57661
93 2 17.8135 6.74551 5.27936
295 1 17.3871 12.6665 0.928336
192 3 13.2945 6.26206 6.42422
185 2 18.5126 6.96441 8.71249
30 4 20.3465 4.43671 17.0539
253 2 18.0337 8.02159 15.945
239 2 20.5949 10.4151 10.5145
260 2 22.1574 10.2585 13.6006
217 1 19.946 9.92314 9.66899
240 2 20.3087 7.25261 9.03911
268 4 19.7564 9.70295 16.9233
296 2 17.9411 10.0037 17.0302
190 2 20.0193 8.53254 11.9313
290 2 21.6904 8.6157 13.3429
241 2 19.1256 9.20972 9.97327
275 2 19.0693 7.06046 17.3984
172 2 19.9383 8.48433 13.8145