LAMMPS (2 Aug 2023 - Update 2)
  using 2 OpenMP thread(s) per MPI task
Reading data file ...
  triclinic box = (0 0 0) to (15.2382 14.5028 17.0085) with tilt (-6.2627 -0.4482 -0.642)
  1 by 2 by 2 MPI processor grid
  reading atoms ...
  350 atoms
Finding 1-2 1-3 1-4 neighbors ...
  special bond factors lj:    0        0        0       
  special bond factors coul:  0        0        0       
     0 = max # of 1-2 neighbors
     0 = max # of 1-3 neighbors
     0 = max # of 1-4 neighbors
     1 = max # of special neighbors
  special bonds CPU = 0.001 seconds
  read_data CPU = 0.007 seconds
WARNING: Van der Waals parameters for element SI indicate inner wall+shielding, but earlier atoms indicate a different van der Waals method. This may cause division-by-zero errors. Keeping van der Waals setting for earlier atoms. (src/REAXFF/reaxff_ffield.cpp:251)
*****Minimization starts.*****

CITE-CITE-CITE-CITE-CITE-CITE-CITE-CITE-CITE-CITE-CITE-CITE-CITE

Your simulation uses code contributions which should be cited:
- pair reaxff command: doi:10.1016/j.parco.2011.08.005
- fix qeq/reaxff command: doi:10.1016/j.parco.2011.08.005
The log file lists these citations in BibTeX format.

CITE-CITE-CITE-CITE-CITE-CITE-CITE-CITE-CITE-CITE-CITE-CITE-CITE

Switching to 'neigh_modify every 1 delay 0 check yes' setting during minimization
WARNING: Fix qeq/reaxff group is not charge neutral, net charge = -10.66 (src/REAXFF/fix_qeq_reaxff.cpp:392)
Neighbor list info ...
  update: every = 1 steps, delay = 0 steps, check = yes
  max neighbors/atom: 2000, page size: 100000
  master list distance cutoff = 12
  ghost atom cutoff = 12
  binsize = 6, bins = 4 3 3
  2 neighbor lists, perpetual/occasional/extra = 2 0 0
  (1) pair reaxff, perpetual
      attributes: half, newton off, ghost
      pair build: half/bin/newtoff/ghost
      stencil: full/ghost/bin/3d
      bin: standard
  (2) fix qeq/reaxff, perpetual, copy from (1)
      attributes: half, newton off
      pair build: copy
      stencil: none
      bin: none
Setting up cg style minimization ...
  Unit style    : real
  Current step  : 0
Per MPI rank memory allocation (min/avg/max) = 153.7 | 154 | 154.4 Mbytes
   Step          Temp          Press         Density         Volume         PotEng         TotEng    
         0   0              211972.8       1.7278661      3758.8201     -30994.714     -30994.714    
        30   0              11879.711      1.7278661      3758.8201     -33892.8       -33892.8      
Loop time of 7.69474 on 8 procs for 30 steps with 350 atoms

90.8% CPU use with 4 MPI tasks x 2 OpenMP threads

Minimization stats:
  Stopping criterion = energy tolerance
  Energy initial, next-to-last, final = 
     -30994.7138992163  -33892.7973859291   -33892.800363047
  Force two-norm initial, final = 4820.5085 253.68739
  Force max component initial, final = 634.7278 116.94342
  Final line search alpha, max atom move = 0.00022774299 0.026633043
  Iterations, force evaluations = 30 102

MPI task timing breakdown:
Section |  min time  |  avg time  |  max time  |%varavg| %total
---------------------------------------------------------------
Pair    | 4.6266     | 4.9794     | 5.2692     |  11.0 | 64.71
Bond    | 0.00028628 | 0.00029466 | 0.00030451 |   0.0 |  0.00
Neigh   | 0          | 0          | 0          |   0.0 |  0.00
Comm    | 0.90431    | 1.1943     | 1.5472     |  22.5 | 15.52
Output  | 0.017887   | 0.024937   | 0.03163    |   3.2 |  0.32
Modify  | 1.4669     | 1.4671     | 1.4672     |   0.0 | 19.07
Other   |            | 0.02878    |            |       |  0.37

Nlocal:           87.5 ave          94 max          81 min
Histogram: 1 0 0 1 0 0 1 0 0 1
Nghost:        3867.75 ave        3871 max        3862 min
Histogram: 1 0 0 0 0 0 0 2 0 1
Neighs:        55517.5 ave       59292 max       51879 min
Histogram: 1 0 0 1 0 0 1 0 0 1

Total # of neighbors = 222070
Ave neighs/atom = 634.48571
Ave special neighs/atom = 0
Neighbor list builds = 0
Dangerous builds = 0
System init for write_data ...
##### Equilibration starts.##### 
WARNING: Compute rdf cutoff less than neighbor cutoff - forcing a needless neighbor list build (src/compute_rdf.cpp:179)
Neighbor list info ...
  update: every = 10 steps, delay = 0 steps, check = yes
  max neighbors/atom: 2000, page size: 100000
  master list distance cutoff = 12
  ghost atom cutoff = 12
  binsize = 6, bins = 4 3 3
  3 neighbor lists, perpetual/occasional/extra = 2 1 0
  (1) pair reaxff, perpetual
      attributes: half, newton off, ghost
      pair build: half/bin/newtoff/ghost
      stencil: full/ghost/bin/3d
      bin: standard
  (2) compute rdf, occasional
      attributes: half, newton on, cut 7
      pair build: half/bin/newton/tri
      stencil: half/bin/3d/tri
      bin: standard
  (3) fix qeq/reaxff, perpetual, copy from (1)
      attributes: half, newton off
      pair build: copy
      stencil: none
      bin: none
Setting up Verlet run ...
  Unit style    : real
  Current step  : 0
  Time step     : 0.5
Per MPI rank memory allocation (min/avg/max) = 159 | 159.3 | 159.7 Mbytes
   Step          Temp          Press          PotEng         TotEng    
         0   300            15675.473     -33892.8       -33580.709    
       100   238.38233      3471.944      -33789.132     -33541.142    
       200   282.67204      6589.7034     -33783.67      -33489.606    
       300   376.71754      16192.364     -33841.085     -33449.185    
       400   433.72428      2682.1105     -33970.938     -33519.734    
       500   343.33653      2171.1157     -33993.655     -33636.481    
       600   333.47707     -1138.1376     -34085.796     -33738.879    
       700   370.52409      10524.092     -34219.664     -33834.207    
       800   384.28362      7228.2141     -34348.528     -33948.756    
       900   333.54631      4940.2541     -34394.384     -34047.395    
      1000   318.13936     -7234.5037     -34453.873     -34122.911    
      1100   298.13118     -3669.8735     -34470.979     -34160.832    
      1200   339.05245      6094.8592     -34544.384     -34191.666    
      1300   387.53753     -8761.4107     -34699.585     -34296.429    
      1400   343.89059      4037.3376     -34772.586     -34414.835    
      1500   298.09723      2322.6182     -34810.77      -34500.659    
      1600   277.9604      -2239.4359     -34840.652     -34551.489    
      1700   288.37829     -4833.0692     -34884.14      -34584.139    
      1800   299.38476      8448.5625     -34919.276     -34607.825    
      1900   274.87514     -3787.5235     -34901.739     -34615.786    
      2000   290.42137      16686.037     -34898.054     -34595.928    
      2100   343.29498      13366.675     -34947.183     -34590.052    
      2200   299.81551      2605.9406     -34943.056     -34631.157    
      2300   300.4389       3192.6549     -34983.573     -34671.025    
      2400   338.83487      14255.323     -35055.086     -34702.595    
      2500   278.08159      9005.6197     -35042.324     -34753.035    
      2600   295.58337     -3148.2658     -35096.887     -34789.391    
      2700   277.34088     -11097.683     -35099.717     -34811.199    
      2800   298.65208      1635.277      -35115         -34804.312    
      2900   303.98594      1397.9917     -35095.513     -34779.276    
      3000   338.21571      6786.3027     -35140.102     -34788.255    
      3100   319.27244     -1458.3475     -35163.919     -34831.779    
      3200   332.17228      3877.8979     -35213.808     -34868.248    
      3300   290.003        2435.1481     -35199.851     -34898.16     
      3400   272.29774      13578.755     -35194.006     -34910.734    
      3500   306.55545      10929.511     -35238.853     -34919.943    
      3600   283.18474      1880.2609     -35223.134     -34928.536    
      3700   298.86946     -453.83397     -35251.199     -34940.284    
      3800   281.16841      9361.9394     -35239.769     -34947.268    
      3900   298.98043     -2878.5277     -35239.258     -34928.228    
      4000   307.84935      2412.8538     -35222.339     -34902.082    
      4100   323.64924      6660.5616     -35241.799     -34905.106    
      4200   298.72628     -6780.3492     -35241.794     -34931.028    
      4300   315.83496      1769.2518     -35273.457     -34944.893    
      4400   299.95931      14296.976     -35257.392     -34945.343    
      4500   307.54833      9762.9411     -35270.594     -34950.651    
      4600   279.3141       7637.2596     -35267.065     -34976.494    
      4700   300.20136      4475.3171     -35312.142     -34999.841    
      4800   293.2865       2934.1389     -35322.827     -35017.72     
      4900   301.77207      10185.24      -35343.377     -35029.443    
      5000   294.61384      2885.4625     -35347.505     -35041.017    
      5100   305.88287      2539.4312     -35359.535     -35041.324    
      5200   313.56617      19000.959     -35355.811     -35029.607    
      5300   299.68753      4440.3958     -35373.487     -35061.721    
      5400   300.33576      7228.9052     -35398.627     -35086.186    
      5500   309.60265      5627.4165     -35407.512     -35085.432    
      5600   292.5569       911.1796      -35395.396     -35091.049    
      5700   279.5738       11297.238     -35403.726     -35112.884    
      5800   288.82392      6922.6562     -35423.554     -35123.089    
      5900   314.12198     -7748.755      -35419.844     -35093.062    
      6000   295.30127      129.23967     -35384.345     -35077.142    
      6100   298.43282      12514.111     -35393.512     -35083.051    
      6200   296.36891      11207.219     -35409.482     -35101.168    
      6300   287.64668      9005.9976     -35432.013     -35132.773    
      6400   295.47515     -7200.0634     -35439.545     -35132.162    
      6500   293.23012     -4081.6921     -35421.138     -35116.09     
      6600   308.75913      6608.9577     -35421.517     -35100.314    
      6700   310.18481      11384.178     -35416.022     -35093.336    
      6800   301.36799      274.27426     -35404.682     -35091.168    
      6900   302.632        685.8675      -35413.503     -35098.674    
      7000   279.5208      -18091.861     -35404.774     -35113.988    
      7100   305.34697      78.181484     -35451.518     -35133.865    
      7200   309.37302     -1132.6501     -35478.071     -35156.229    
      7300   288.91101      4910.8028     -35476.442     -35175.887    
      7400   301.39285      3041.285      -35495.83      -35182.291    
      7500   276.21283      8063.3981     -35469.636     -35182.291    
      7600   285.97589      2073.9364     -35468.807     -35171.305    
      7700   323.62078      26603.544     -35478.457     -35141.793    
      7800   342.22467      12787.169     -35480.092     -35124.075    
      7900   297.47631     -7780.2574     -35475.649     -35166.184    
      8000   301.64385      6090.0488     -35498.571     -35184.77     
      8100   319.30471      5180.2011     -35534.847     -35202.673    
      8200   301.72967     -5018.9144     -35529.69      -35215.799    
      8300   280.41156     -5379.9472     -35531.374     -35239.661    
      8400   284.55061      10007.123     -35535.89      -35239.871    
      8500   316.55879     -7325.3423     -35530.227     -35200.91     
      8600   302.46324      10949.383     -35500.525     -35185.871    
      8700   309.93417     -8027.185      -35524.181     -35201.756    
      8800   299.46369     -5363.2542     -35537.934     -35226.401    
      8900   358.21995      617.16897     -35609.178     -35236.521    
      9000   317.80463      5152.16       -35606.311     -35275.698    
      9100   297.45471     -1872.9266     -35613.462     -35304.019    
      9200   300.98803     -13178.533     -35639.949     -35326.831    
      9300   289.07809      13579.566     -35646.144     -35345.415    
      9400   282.46692      2673.1818     -35659.272     -35365.421    
      9500   314.96054     -2319.3637     -35706.161     -35378.507    
      9600   306.03547      13178.142     -35692.971     -35374.602    
      9700   315.8853      -585.48589     -35660.659     -35332.043    
      9800   350.62777      6449.6029     -35708.883     -35344.124    
      9900   285.05463     -3622.801      -35669.271     -35372.728    
     10000   288.90582      21275.105     -35696.497     -35395.948    
     10100   305.80341      5077.2269     -35737.59      -35419.462    
     10200   296.42524     -10529.084     -35732.915     -35424.543    
     10300   281.22985     -4605.5986     -35695.765     -35403.201    
     10400   332.81368      7749.9671     -35723.937     -35377.71     
     10500   304.21706     -11848.913     -35694.722     -35378.244    
     10600   271.19353     -19816.269     -35702.891     -35420.768    
     10700   283.36532     -10320.279     -35735.74      -35440.955    
     10800   302.27414     -20204.205     -35738.281     -35423.824    
     10900   297.92087      5347.176      -35707.7       -35397.772    
     11000   337.33557      12881.885     -35734.254     -35383.323    
     11100   299.77803      1539.015      -35704.401     -35392.541    
     11200   293.6134       6852.6821     -35730.051     -35424.604    
     11300   302.92542      6929.6218     -35749.102     -35433.967    
     11400   285.69267      13015.749     -35719.219     -35422.012    
     11500   303.40323      608.68162     -35721.151     -35405.52     
     11600   325.71259      7040.9303     -35730.552     -35391.713    
     11700   288.88534      3473.691      -35705.73      -35405.202    
     11800   286.76525      3961.2081     -35742.897     -35444.574    
     11900   272.0657       756.15146     -35724.802     -35441.771    
     12000   285.09459      18521.294     -35710.926     -35414.341    
     12100   313.56377     -3708.0106     -35731.741     -35405.54     
     12200   289.94096      6993.4476     -35715.813     -35414.186    
     12300   308.12089      1150.4545     -35748.165     -35427.626    
     12400   290.85777      10702.606     -35757.654     -35455.074    
     12500   260.89528      1756.6431     -35738.345     -35466.935    
     12600   289.03162      9284.4759     -35735.795     -35435.115    
     12700   310.30876     -4999.4486     -35745.235     -35422.42     
     12800   293.48145      3956.294      -35718.173     -35412.864    
     12900   322.13612      1351.9125     -35751.471     -35416.352    
     13000   288.5376       8513.7293     -35726.99      -35426.824    
     13100   288.4461      -10375.604     -35743.511     -35443.44     
     13200   304.93606     -4308.8019     -35755.339     -35438.113    
     13300   301.09895      13167.422     -35715.906     -35402.672    
     13400   329.61251      5758.1593     -35739.25      -35396.353    
     13500   291.3033      -7868.4135     -35712.493     -35409.45     
     13600   294.02168     -2335.7748     -35745.294     -35439.422    
     13700   308.1377       4174.5937     -35768.557     -35448.001    
     13800   287.67215     -1272.8626     -35730.253     -35430.987    
     13900   301.29333      7709.3213     -35727.506     -35414.07     
     14000   317.14339      7912.1701     -35741.382     -35411.457    
     14100   293.83598     -2616.9683     -35721.696     -35416.018    
     14200   306.75103     -2783.8591     -35764.143     -35445.029    
     14300   271.00802      5904.0119     -35736.421     -35454.49     
     14400   309.62606      6110.5031     -35752.38      -35430.275    
     14500   315.26921     -8445.1947     -35741.06      -35413.085    
     14600   296.66377      9161.9648     -35722.271     -35413.651    
     14700   280.6899       6150.5253     -35708.16      -35416.158    
     14800   306.75259      3718.3102     -35736.139     -35417.023    
     14900   295.52847      12699.003     -35734.384     -35426.945    
     15000   285.23178      1216.1344     -35741.714     -35444.987    
     15100   313.55994      1527.2387     -35775.547     -35449.35     
     15200   290.68347      5873.9445     -35726.627     -35424.229    
     15300   284.66153     -5398.8321     -35699.466     -35403.331    
     15400   326.5131      -5356.0457     -35745.734     -35406.061    
     15500   294.98605      6983.6611     -35724.07      -35417.196    
     15600   282.38424      368.36878     -35741.346     -35447.581    
     15700   292.18371      1103.1909     -35770.558     -35466.599    
     15800   276.88659     -2808.4529     -35738.83      -35450.785    
     15900   274.94025      12072.964     -35718.12      -35432.099    
     16000   299.58756     -1207.7562     -35732.997     -35421.336    
     16100   292.16118      8421.8339     -35712.511     -35408.575    
     16200   297.36199      8609.2817     -35710.955     -35401.608    
     16300   304.57505     -3171.3628     -35725.223     -35408.373    
     16400   286.80183     -967.16431     -35741.091     -35442.73     
     16500   289.52753      15706.346     -35753.593     -35452.396    
     16600   288.89918      3545.0835     -35731.971     -35431.429    
     16700   290.03076      10257.976     -35710.098     -35408.379    
     16800   306.37253      6962.602      -35722.805     -35404.085    
     16900   303.44513     -3690.2343     -35721.525     -35405.851    
     17000   310.65664      720.26657     -35746.716     -35423.539    
     17100   313.26491     -9521.6082     -35762.488     -35436.598    
     17200   270.03277      7491.0088     -35715.467     -35434.551    
     17300   300.44943      16244.338     -35737.22      -35424.661    
     17400   313.41434      2616.2702     -35736.306     -35410.261    
     17500   279.57522     -8797.4125     -35698.947     -35408.104    
     17600   309.04478      21909.036     -35734.196     -35412.696    
     17700   281.32551      12386.398     -35710.471     -35417.807    
     17800   293.41746      10006.155     -35727.623     -35422.38     
     17900   307.33282     -5850.0905     -35737.068     -35417.349    
     18000   310.32562      1755.0952     -35720.113     -35397.281    
     18100   315.95794      920.76674     -35721.423     -35392.731    
     18200   270.12004      1672.7459     -35691.71      -35410.704    
     18300   288.48032     -4726.1012     -35729.993     -35429.887    
     18400   304.95597      7127.8209     -35757.58      -35440.333    
     18500   282.57775      1459.1245     -35732.446     -35438.48     
     18600   310.49072      6493.5173     -35730.8       -35407.796    
     18700   317.14207      18035.826     -35728.009     -35398.085    
     18800   292.4714      -5051.3931     -35719.152     -35414.893    
     18900   300.68322      3235.9776     -35746.213     -35433.411    
     19000   297.85972     -9192.5938     -35730.651     -35420.787    
     19100   306.37811      2846.6238     -35700.345     -35381.619    
     19200   327.96876     -5176.5523     -35722.757     -35381.571    
     19300   285.97851      10723.62      -35698.724     -35401.22     
     19400   315.86624     -1016.0886     -35746.361     -35417.765    
     19500   281.126        6770.6938     -35716.952     -35424.495    
     19600   298.53823      10658.757     -35733.832     -35423.262    
     19700   330.7955       4645.6469     -35743.988     -35399.861    
     19800   313.39534      7016.6072     -35711.799     -35385.773    
     19900   312.63377      9655.2451     -35732.064     -35406.83     
     20000   307.4692       3551.3559     -35755.224     -35435.363    
     20100   272.99321     -7714.8869     -35716.548     -35432.553    
     20200   303.46186     -9693.5704     -35731.505     -35415.813    
     20300   309.55742     -3069.7843     -35729.689     -35407.656    
     20400   294.5792       5345.2823     -35708.478     -35402.027    
     20500   318.0392      -9278.8608     -35747.024     -35416.167    
     20600   288.79468     -772.933       -35754.155     -35453.721    
     20700   276.03511     -213.96469     -35733.529     -35446.369    
     20800   307.70881     -2366.509      -35740.724     -35420.613    
     20900   316.21094     -5033.1876     -35728.943     -35399.988    
     21000   298.31257      6440.8918     -35708.715     -35398.38     
     21100   310.58204      2061.4252     -35740.253     -35417.154    
     21200   295.11901      14050.413     -35747.899     -35440.886    
     21300   279.60452     -6075.8483     -35754.132     -35463.258    
     21400   288.03843      1474.0695     -35765.214     -35465.567    
     21500   282.82238      6273.6586     -35717.473     -35423.252    
     21600   289.77975      638.04061     -35703.553     -35402.094    
     21700   334.55335     -4530.8417     -35749.735     -35401.698    
     21800   281.68424      4244.4503     -35711.607     -35418.57     
     21900   294.51026      6174.7822     -35743.751     -35437.372    
     22000   304.59026     -3971.1974     -35763.737     -35446.871    
     22100   289.44274      2032.56       -35735.119     -35434.011    
     22200   300.03153      4687.1642     -35717.036     -35404.912    
     22300   324.19131      857.95737     -35738.212     -35400.955    
     22400   283.76838     -8256.8146     -35711.989     -35416.784    
     22500   300.57487     -10877.449     -35759.747     -35447.058    
     22600   290.6728      -8609.2913     -35748.715     -35446.328    
     22700   297.92754      296.76013     -35731.147     -35421.213    
     22800   289.78577      14013.269     -35722.853     -35421.388    
     22900   305.26484     -923.37973     -35740.263     -35422.695    
     23000   289.51808      14329.286     -35727.43      -35426.244    
     23100   281.35009      15308.106     -35728.612     -35435.923    
     23200   285.46601      5704.1728     -35737.696     -35440.725    
     23300   296.93589      12608.385     -35724.346     -35415.443    
     23400   329.60002     -9312.87       -35735.268     -35392.385    
     23500   298.92716     -11733.924     -35705.566     -35394.591    
     23600   308.94329      994.76537     -35740.316     -35418.921    
     23700   290.1177       14904.702     -35732.521     -35430.711    
     23800   280.63894      16495.227     -35718.996     -35427.047    
     23900   300.41947      10137.465     -35722.292     -35409.765    
     24000   290.23337      14315.137     -35703.04      -35401.109    
     24100   311.51509     -399.66721     -35737.162     -35413.092    
     24200   286.32951     -12445.678     -35751.969     -35454.099    
     24300   270.4245      -4056.9058     -35742.625     -35461.302    
     24400   298.784       -5537.643      -35751.934     -35441.108    
     24500   305.73769      18023.313     -35741.253     -35423.193    
     24600   302.19099     -832.56202     -35729.242     -35414.872    
     24700   311.55003     -10040.099     -35740.626     -35416.52     
     24800   318.67334     -2848.0333     -35739.518     -35408.001    
     24900   306.70001      1411.6198     -35727.048     -35407.987    
     25000   320.14876      16910.017     -35757.655     -35424.604    
     25100   277.1114       4454.234      -35734.309     -35446.029    
     25200   289.36952      14306.841     -35755.42      -35454.388    
     25300   310.08382     -4011.8812     -35758.882     -35436.301    
     25400   308.10844      3741.8489     -35722.834     -35402.308    
     25500   301.73431      3662.2148     -35730.193     -35416.298    
     25600   286.7979      -295.34511     -35733.637     -35435.28     
     25700   292.7876       103.11883     -35739.832     -35435.244    
     25800   304.30761      16049.512     -35727.664     -35411.092    
     25900   360.335       -2837.9754     -35758.333     -35383.475    
     26000   301.08562     -1824.955      -35714.966     -35401.746    
     26100   285.36367      13989.176     -35720.827     -35423.962    
     26200   298.762       -2406.47       -35742.971     -35432.168    
     26300   287.19607      4254.4979     -35735.407     -35436.636    
     26400   294.15448     -9539.5684     -35746.885     -35440.875    
     26500   311.35675      3609.3809     -35775.003     -35451.097    
     26600   264.66277     -1905.8968     -35747.483     -35472.154    
     26700   257.42365     -2437.4517     -35735.996     -35468.197    
     26800   307.1458      -16391.141     -35758.984     -35439.459    
     26900   301.69617     -993.84267     -35746.789     -35432.933    
     27000   297.51339     -3163.5536     -35750.691     -35441.187    
     27100   293.86962      22139.554     -35767.191     -35461.478    
     27200   299.49697     -8331.8268     -35804.735     -35493.168    
     27300   324.1875       8263.8453     -35855.739     -35518.486    
     27400   307.67065     -16575.253     -35844.218     -35524.147    
     27500   281.17559      17092.642     -35827.691     -35535.183    
     27600   270.14316     -4433.2669     -35821.395     -35540.364    
     27700   299.63659      6509.5313     -35831.618     -35519.905    
     27800   316.82654      4065.2451     -35822.694     -35493.099    
     27900   319.54836      4075.9371     -35827.005     -35494.578    
     28000   319.87632      2826.0797     -35855.933     -35523.164    
     28100   296.79114      9687.3028     -35842.653     -35533.9      
     28200   289.49689      22753.12      -35832.801     -35531.636    
     28300   290.21804     -4519.8318     -35824.681     -35522.766    
     28400   295.62338      20395.18      -35825.372     -35517.834    
     28500   306.40218     -2317.5837     -35839.92      -35521.169    
     28600   302.19108     -5510.2368     -35854.724     -35540.354    
     28700   276.94573      2933.4019     -35835.52      -35547.413    
     28800   296.36812      12162.196     -35844.529     -35536.217    
     28900   287.40294     -4752.1322     -35805.003     -35506.017    
     29000   315.23831     -2936.9774     -35834.174     -35506.231    
     29100   320.55146      5787.1075     -35849.804     -35516.333    
     29200   307.98693     -1535.4894     -35855.484     -35535.084    
     29300   273.71257      11817.369     -35861.044     -35576.3      
     29400   288.18037      1666.7884     -35870.332     -35570.537    
     29500   285.95309      2588.8565     -35843.632     -35546.154    
     29600   292.3378       3976.4927     -35833.771     -35529.651    
     29700   294.83167     -974.8766      -35830.426     -35523.712    
     29800   301.47003     -37.091007     -35833.376     -35519.756    
     29900   307.08214      5759.6125     -35861.736     -35542.277    
     30000   295.41672      8277.5838     -35859.434     -35552.111    
     30100   318.30238     -5143.7368     -35866.318     -35535.187    
     30200   309.49496     -3060.1331     -35834.625     -35512.657    
     30300   289.66017     -6818.0241     -35791.594     -35490.26     
     30400   321.34946      5818.6135     -35810.336     -35476.036    
     30500   299.65096      10013.425     -35823.674     -35511.946    
     30600   302.16813     -7920.6245     -35851.486     -35537.14     
     30700   297.32518      5269.8448     -35858         -35548.692    
     30800   299.48815     -5493.1434     -35851.891     -35540.333    
     30900   321.08921      4183.7588     -35844.818     -35510.788    
     31000   300.79965     -3875.3903     -35819.962     -35507.039    
     31100   293.57107     -1812.8807     -35826.991     -35521.588    
     31200   291.61024      6592.8504     -35827.409     -35524.046    
     31300   299.51258      5369.079      -35837.989     -35526.406    
     31400   303.95242     -12157.431     -35848.544     -35532.342    
     31500   286.57376     -6659.6603     -35851.547     -35553.423    
     31600   282.95247     -4428.9049     -35868.286     -35573.93     
     31700   291.25677      19063.538     -35861.143     -35558.147    
     31800   312.79274      10393.759     -35853.931     -35528.532    
     31900   321.82795      10830.623     -35864.452     -35529.653    
     32000   289.51284      13888.768     -35839.659     -35538.478    
     32100   297.75083      19087.305     -35849.587     -35539.836    
     32200   287.05836      6350.2563     -35829.729     -35531.101    
     32300   324.48184      1640.9738     -35844.702     -35507.142    
     32400   299.60476     -907.41163     -35826.316     -35514.637    
     32500   292.7222       11372.965     -35850.436     -35545.916    
     32600   299.17674      12152.315     -35862.738     -35551.504    
     32700   313.67192      2464.4808     -35873.045     -35546.731    
     32800   306.60034     -7368.5282     -35854.973     -35536.016    
     32900   319.62376     -3495.052      -35834.506     -35502        
     33000   317.51918      834.83951     -35808.827     -35478.511    
     33100   312.17318      6025.4612     -35825.659     -35500.904    
     33200   291.88348     -7786.1564     -35823.957     -35520.31     
     33300   327.10838     -9212.8513     -35879.252     -35538.96     
     33400   304.09677      5699.6478     -35866.453     -35550.1      
     33500   332.21167      3954.6386     -35885.989     -35540.388    
     33600   326.51983      13630.594     -35836.081     -35496.402    
     33700   332.22528      2802.7659     -35836.765     -35491.15     
     33800   287.93031      5430.2328     -35817.37      -35517.836    
     33900   290.9276       93.398821     -35843.492     -35540.839    
     34000   285.34305      549.16825     -35848.25      -35551.407    
     34100   270.39031      1900.1483     -35824.88      -35543.592    
     34200   296.17848      15070.119     -35819.905     -35511.789    
     34300   316.70975      820.86807     -35827.487     -35498.013    
     34400   316.1627      -946.3049      -35843.162     -35514.257    
     34500   308.91533     -9792.6058     -35845.565     -35524.2      
     34600   303.83425      4235.6979     -35851.17      -35535.09     
     34700   289.76828      2334.6654     -35846.439     -35544.992    
     34800   291.49037     -2751.5973     -35856.459     -35553.221    
     34900   269.65538      5360.8002     -35851.452     -35570.929    
     35000   274.58009     -4103.1728     -35839.258     -35553.611    
     35100   300.90298     -2824.3647     -35838.388     -35525.358    
     35200   294.10938     -7081.6321     -35820.639     -35514.676    
     35300   311.53857      15618.845     -35844.519     -35520.425    
     35400   283.46151      14341.661     -35844.988     -35550.102    
     35500   300.96838      8449.0499     -35877.958     -35564.86     
     35600   262.72483      5219.1458     -35828.765     -35555.451    
     35700   309.60444      662.75167     -35862.948     -35540.865    
     35800   319.98621      13213.313     -35872.851     -35539.968    
     35900   315.51272      9290.2175     -35864.358     -35536.129    
     36000   317.37182      8719.9804     -35847.444     -35517.282    
     36100   322.84777      232.10822     -35843.736     -35507.877    
     36200   330.21526      10019.391     -35847.112     -35503.588    
     36300   301.81526      6475.3055     -35842.227     -35528.247    
     36400   276.45987     -2420.0395     -35842.71      -35555.108    
     36500   287.93359      12332.493     -35852.003     -35552.465    
     36600   291.41064      7250.0122     -35842.834     -35539.679    
     36700   298.42941      8824.0232     -35825.449     -35514.992    
     36800   308.59409      11520.14      -35803.229     -35482.198    
     36900   308.99097     -9983.5684     -35815.313     -35493.868    
     37000   308.86252     -3513.7894     -35836.861     -35515.55     
     37100   299.72704     -10777.859     -35843.044     -35531.237    
     37200   296.64822      11079.267     -35851.278     -35542.674    
     37300   296.8256      -8899.4099     -35859.007     -35550.219    
     37400   308.92394     -5109.1573     -35869.271     -35547.896    
     37500   306.2568       6793.7652     -35849.166     -35530.566    
     37600   325.34477      4971.8864     -35851.892     -35513.435    
     37700   334.20803     -7929.9127     -35866.884     -35519.206    
     37800   301.92082     -3172.5136     -35865.642     -35551.553    
     37900   291.59696     -822.29062     -35865.452     -35562.103    
     38000   304.808        5626.6244     -35867.677     -35550.584    
     38100   305.51719     -7147.8808     -35853.122     -35535.292    
     38200   307.77712      8502.2734     -35854.197     -35534.016    
     38300   311.67484     -612.89378     -35856.346     -35532.109    
     38400   308.40186      2381.5402     -35850.31      -35529.478    
     38500   295.09022     -3572.174      -35825.602     -35518.619    
     38600   312.76954      6155.5991     -35828.161     -35502.786    
     38700   308.49597     -2294.8048     -35842.897     -35521.968    
     38800   281.81707      5616.8973     -35841.212     -35548.037    
     38900   287.61235      12512.6       -35848.511     -35549.307    
     39000   283.04732      6231.9741     -35820.188     -35525.733    
     39100   296.65845      18322.362     -35829.46      -35520.846    
     39200   286.21047      6872.7813     -35825.527     -35527.781    
     39300   312.41092      5806.2644     -35852.664     -35527.662    
     39400   300.5396       1707.8782     -35845.369     -35532.717    
     39500   291.91225     -2719.6957     -35867.803     -35564.126    
     39600   268.23906     -5101.2758     -35861.703     -35582.653    
     39700   293.55935     -13109.403     -35866.009     -35560.618    
     39800   290.28879     -3552.7107     -35846.964     -35544.976    
     39900   312.10525      7537.6556     -35854.65      -35529.966    
     40000   315.72636     -4128.8774     -35842.023     -35513.572    
     40100   331.06999      5060.8193     -35871.085     -35526.672    
     40200   308.10455      12541.888     -35876.378     -35555.856    
     40300   303.73982      13246.912     -35871.641     -35555.66     
     40400   303.75463      6261.4919     -35855.942     -35539.945    
     40500   313.31394      7760.4101     -35856.419     -35530.478    
     40600   311.42634      2446.9589     -35849.992     -35526.014    
     40700   331.2775       5093.9714     -35872.518     -35527.889    
     40800   309.42567      10593.442     -35852.048     -35530.151    
     40900   328.22485     -7116.4382     -35873.619     -35532.166    
     41000   302.65877     -1512.1551     -35850.253     -35535.396    
     41100   305.17671     -13043.651     -35855.337     -35537.861    
     41200   301.79421     -10147.117     -35849.073     -35535.116    
     41300   297.52577      2108.1021     -35851.514     -35541.997    
     41400   283.03853      354.10546     -35839.086     -35544.641    
     41500   316.93149      6936.9477     -35861.931     -35532.227    
     41600   303.004       -2407.6251     -35829.198     -35513.982    
     41700   300.74503     -7693.9682     -35825.9       -35513.034    
     41800   285.90612     -3103.9382     -35851.638     -35554.21     
     41900   279.36266      11349.101     -35854.089     -35563.468    
     42000   281.91776     -1841.499      -35834.936     -35541.656    
     42100   301.022       -710.89386     -35838.508     -35525.354    
     42200   292.45632      14091.741     -35832.793     -35528.55     
     42300   296.12312      12412.03      -35872.161     -35564.103    
     42400   295.08575     -7499.1796     -35886.901     -35579.923    
     42500   294.20397     -4106.3664     -35872.67      -35566.609    
     42600   292.6773       12640.705     -35852.145     -35547.672    
     42700   286.19996      10346.809     -35837.459     -35539.724    
     42800   312.04465      9824.856      -35850.075     -35525.454    
     42900   310.5605       2513.6301     -35830.888     -35507.811    
     43000   292.93249     -2223.6997     -35833.468     -35528.73     
     43100   278.00033     -1168.0064     -35846.621     -35557.416    
     43200   292.30616      9843.7796     -35864.342     -35560.255    
     43300   275.59057      3708.6643     -35845.605     -35558.907    
     43400   307.45679     -5940.2929     -35844.81      -35524.961    
     43500   300.97042     -235.62344     -35828.743     -35515.642    
     43600   309.38985     -6505.0468     -35855.412     -35533.553    
     43700   298.03093      1187.3443     -35856.029     -35545.987    
     43800   311.73121     -8291.278      -35869.482     -35545.187    
     43900   308.29692     -1947.2332     -35871.781     -35551.059    
     44000   308.81932     -1234.6087     -35876.956     -35555.691    
     44100   317.62591      3931.2008     -35878.861     -35548.434    
     44200   311.72819      907.03543     -35857.234     -35532.942    
     44300   316.99267      18741.703     -35857.66      -35527.891    
     44400   315.83107      1378.2072     -35871.259     -35542.699    
     44500   292.48205     -4073.8456     -35875.264     -35570.994    
     44600   290.28028     -525.80121     -35875.795     -35573.816    
     44700   315.7392      -5171.3433     -35899.884     -35571.42     
     44800   288.01663     -10040.208     -35883.068     -35583.443    
     44900   289.52165      14687.77      -35901.742     -35600.552    
     45000   298.22336     -256.20671     -35901.714     -35591.471    
     45100   313.99475      4036.5424     -35891.845     -35565.196    
     45200   318.4905      -11070.22      -35884.55      -35553.224    
     45300   308.72588      3103.2434     -35882.021     -35560.852    
     45400   298.92041     -1977.2533     -35911.857     -35600.889    
     45500   296.64465      2437.9171     -35916.097     -35607.497    
     45600   282.22711      6593.6869     -35881.354     -35587.752    
     45700   327.73683      1850.1611     -35905.824     -35564.878    
     45800   322.77526      340.26474     -35896.478     -35560.694    
     45900   320.40582      2003.4132     -35904.956     -35571.637    
     46000   291.3348       1499.8648     -35906.291     -35603.215    
     46100   300.27871      13230.038     -35922.82      -35610.439    
     46200   300.50935      14930.12      -35908.506     -35595.885    
     46300   298.5041       12534.555     -35892.559     -35582.024    
     46400   316.62182      10423.241     -35899.277     -35569.895    
     46500   313.36091      14390.201     -35882.068     -35556.078    
     46600   341.7454       5382.7007     -35902.202     -35546.684    
     46700   299.63908      2849.7376     -35893.828     -35582.112    
     46800   301.00537      13295.689     -35907.633     -35594.496    
     46900   301.97773     -1719.468      -35900.078     -35585.93     
     47000   326.56348     -12598.929     -35905.297     -35565.572    
     47100   295.77682      21110.155     -35872.23      -35564.533    
     47200   288.38976     -7976.5835     -35896.105     -35596.092    
     47300   301.0574       1471.472      -35921.967     -35608.776    
     47400   311.51556     -6063.3678     -35926.537     -35602.466    
     47500   311.43103      2781.9288     -35891.749     -35567.767    
     47600   308.04139      19661.815     -35879.288     -35558.832    
     47700   309.42812      4073.1161     -35888.217     -35566.318    
     47800   303.05009     -717.64358     -35895.513     -35580.249    
     47900   303.14273      10019.519     -35897.068     -35581.708    
     48000   300.12411      9631.2386     -35897.198     -35584.978    
     48100   307.02189      4191.0699     -35926.87      -35607.474    
     48200   279.02221      6013.607      -35903.824     -35613.557    
     48300   303.17768      6217.46       -35904.986     -35589.589    
     48400   304.86017     -3778.0208     -35886.113     -35568.966    
     48500   305.26356     -3412.9344     -35879.064     -35561.497    
     48600   306.29214      5602.0038     -35889.536     -35570.9      
     48700   286.23133      10046.849     -35903.993     -35606.226    
     48800   297.16872     -2958.4144     -35911.033     -35601.888    
     48900   293.29634      12152.895     -35897.63      -35592.513    
     49000   288.59288     -703.35107     -35877.528     -35577.304    
     49100   322.48676     -1546.8722     -35909.1       -35573.616    
     49200   300.51396      460.58003     -35890.937     -35578.312    
     49300   311.41685     -11916.073     -35906.932     -35582.965    
     49400   309.02776      16267.355     -35906.486     -35585.004    
     49500   312.43153      2238.1766     -35901.081     -35576.057    
     49600   284.32852      10414.11      -35863.3       -35567.512    
     49700   307.54515      2945.6189     -35889.897     -35569.956    
     49800   293.40951      447.844       -35882.665     -35577.43     
     49900   268.75221      2283.985      -35873.122     -35593.538    
     50000   278.52017      2484.2089     -35889.833     -35600.087    
     50100   284.16851      5060.8027     -35884.317     -35588.696    
     50200   306.15002      12228.881     -35878.481     -35559.992    
     50300   308.81653      590.3388      -35878.382     -35557.119    
     50400   303.95874      420.40486     -35891.215     -35575.005    
     50500   280.73758      29.5352       -35900.762     -35608.71     
     50600   281.33017      12878.751     -35901.346     -35608.678    
     50700   306.12072      8470.1038     -35911.61      -35593.152    
     50800   320.46103     -6449.4375     -35905.668     -35572.292    
     50900   315.63278     -3054.1172     -35897.166     -35568.812    
     51000   296.02096      1771.6329     -35888.45      -35580.499    
     51100   260.53359      8954.7001     -35886.735     -35615.701    
     51200   297.6153      -265.50497     -35939.816     -35630.206    
     51300   323.61888      8632.3932     -35933.857     -35597.195    
     51400   311.00623      1680.9584     -35895.837     -35572.297    
     51500   311.44023      17867.346     -35891.859     -35567.867    
     51600   296.0138       3845.6803     -35888.496     -35580.552    
     51700   279.5912       2817.5925     -35888.703     -35597.844    
     51800   297.14424     -15049.3       -35913.166     -35604.046    
     51900   309.33017      141.30132     -35900.56      -35578.763    
     52000   326.30937     -4227.3443     -35891.638     -35552.177    
     52100   312.37787     -1590.0151     -35889.921     -35564.953    
     52200   296.16218      1869.9139     -35891.228     -35583.13     
     52300   306.34839     -1507.3357     -35907.802     -35589.107    
     52400   289.45036      6512.2524     -35885.6       -35584.484    
     52500   308.81472      17879.441     -35884.174     -35562.913    
     52600   348.88578      11946.564     -35883.097     -35520.15     
     52700   322.87674     -14142.707     -35866.694     -35530.805    
     52800   292.67283      13575.171     -35860.864     -35556.396    
     52900   286.7307      -12628.305     -35876.015     -35577.728    
     53000   282.99971     -3234.5762     -35890.432     -35596.027    
     53100   274.9121      -11135.285     -35891.168     -35605.176    
     53200   273.00983      4481.826      -35876.284     -35592.271    
     53300   331.25418     -8601.3676     -35905.466     -35560.861    
     53400   306.02678     -6894.3453     -35886.407     -35568.046    
     53500   311.09777      6518.4961     -35912.606     -35588.97     
     53600   300.22982      720.03172     -35917.841     -35605.511    
     53700   293.01211      7417.7196     -35914.985     -35610.163    
     53800   314.97678      7007.9749     -35901.16      -35573.489    
     53900   296.01695      10800.962     -35864.088     -35556.141    
     54000   313.09441      4474.1949     -35880.058     -35554.345    
     54100   284.6323      -687.98803     -35875.969     -35579.865    
     54200   287.19974      3822.8771     -35894.554     -35595.78     
     54300   294.85102      11961.999     -35901.463     -35594.728    
     54400   286.36125      1353.6723     -35877.767     -35579.865    
     54500   311.16836      7839.9845     -35861.165     -35537.456    
     54600   299.31717      7338.7773     -35862.831     -35551.45     
     54700   280.06494      8219.3621     -35867.58      -35576.227    
     54800   295.37597      1583.2925     -35893.802     -35586.522    
     54900   293.83709      4927.2929     -35904.636     -35598.956    
     55000   270.66267      1853.3202     -35890.581     -35609.01     
     55100   286.27686      5876.2009     -35910.372     -35612.557    
     55200   288.21248     -3141.1656     -35887.184     -35587.355    
     55300   303.80453     -4912.6806     -35888.164     -35572.116    
     55400   303.79099     -7464.0497     -35891.801     -35575.766    
     55500   313.02541     -6355.7589     -35912.261     -35586.619    
     55600   294.66082      342.70431     -35927.343     -35620.807    
     55700   287.42008      3051.3445     -35912.439     -35613.435    
     55800   303.92051      9277.2181     -35901.931     -35585.761    
     55900   300.58582      1410.3162     -35888.663     -35575.963    
     56000   297.80499      4928.8428     -35888.965     -35579.158    
     56100   290.2787      -6892.7563     -35899.171     -35597.193    
     56200   264.35945     -6354.76       -35897.822     -35622.808    
     56300   286.30376     -4100.2988     -35902.729     -35604.887    
     56400   286.07048      1807.8029     -35870.101     -35572.501    
     56500   290.11189      15328.974     -35875.895     -35574.09     
     56600   306.61934     -13495.529     -35903.976     -35584.999    
     56700   306.3084       1722.1534     -35919.42      -35600.766    
     56800   291.36291      18631.186     -35911.881     -35608.775    
     56900   306.15545      3316.0495     -35913.003     -35594.509    
     57000   321.52589      2870.2604     -35902.492     -35568.007    
     57100   288.24427      6777.954      -35869.211     -35569.35     
     57200   277.86454      8562.0725     -35879.018     -35589.955    
     57300   279.26141     -7750.0781     -35904.04      -35613.524    
     57400   295.00147     -2211.5854     -35932.726     -35625.835    
     57500   293.62393      4189.2773     -35908.027     -35602.57     
     57600   304.40854     -6038.7837     -35893.069     -35576.392    
     57700   289.22208     -500.31862     -35868.846     -35567.968    
     57800   303.60951      7590.7977     -35894.063     -35578.217    
     57900   303.12329      3183.6858     -35925.068     -35609.728    
     58000   308.6095      -8773.8907     -35934.826     -35613.779    
     58100   295.89403      5718.6375     -35908.375     -35600.555    
     58200   289.14545      15236.131     -35883.56      -35582.761    
     58300   311.19048      22136.907     -35896.891     -35573.159    
     58400   291.55623     -209.05268     -35879.768     -35576.461    
     58500   300.39241     -2202.536      -35901.737     -35589.238    
     58600   277.36631     -6348.5385     -35903.818     -35615.273    
     58700   284.34847     -3011.6523     -35926.8       -35630.992    
     58800   297.97483     -7639.7716     -35910.878     -35600.894    
     58900   305.19448      8303.1132     -35899.317     -35581.822    
     59000   314.63574     -4007.984      -35909.448     -35582.131    
     59100   289.53569      4308.7615     -35891.687     -35590.482    
     59200   306.00768     -1758.6923     -35917.785     -35599.445    
     59300   298.45004      17512.98      -35917.696     -35607.218    
     59400   298.25808      19736.587     -35911.512     -35601.233    
     59500   303.45744      385.88891     -35891.749     -35576.061    
     59600   331.5289      -1014.6058     -35905.86      -35560.97     
     59700   324.33835     -10754.48      -35910.757     -35573.347    
     59800   276.62884     -5156.2242     -35897.949     -35610.172    
     59900   274.9384      -1052.436      -35888.802     -35602.783    
     60000   309.44736      14315.959     -35916.164     -35594.245    
     60100   296.02496     -6235.3569     -35897.105     -35589.15     
     60200   287.88805      7936.1501     -35873.412     -35573.921    
     60300   331.99311     -316.96933     -35893.396     -35548.022    
     60400   288.86343      17158.759     -35868.078     -35567.573    
     60500   292.43666     -2253.0669     -35895.758     -35591.535    
     60600   288.30136     -2341.8641     -35892.561     -35592.64     
     60700   310.55519      6706.6024     -35903.583     -35580.512    
     60800   308.49583     -367.27052     -35883.881     -35562.952    
     60900   330.5844       4943.9653     -35902.71      -35558.803    
     61000   289.65001      3603.5533     -35903.012     -35601.689    
     61100   281.34222      3951.9206     -35899.073     -35606.392    
     61200   297.83881      1792.2822     -35904.568     -35594.726    
     61300   282.54723      7566.3494     -35869.983     -35576.049    
     61400   302.83622      1466.6287     -35864.24      -35549.199    
     61500   299.21588      4030.7133     -35867.506     -35556.231    
     61600   294.18345      2828.2722     -35879.251     -35573.211    
     61700   303.10728      16826.575     -35895.301     -35579.977    
     61800   272.64487      7115.6506     -35872.189     -35588.556    
     61900   306.03893      6967.2109     -35903.704     -35585.331    
     62000   291.38367     -6947.1374     -35868.628     -35565.501    
     62100   312.16578      1076.4276     -35872.602     -35547.855    
     62200   281.98986     -2682.0539     -35867.406     -35574.051    
     62300   318.7775       12749.607     -35918.556     -35586.931    
     62400   295.15326      10523.028     -35903.27      -35596.221    
     62500   310.65262      3778.5438     -35915.111     -35591.938    
     62600   313.01913     -1946.0165     -35908.456     -35582.821    
     62700   298.23165      4578.459      -35897.246     -35586.995    
     62800   287.39093      1613.6366     -35911.328     -35612.355    
     62900   272.69029     -2347.468      -35917.2       -35633.52     
     63000   281.86972     -2817.6589     -35925.687     -35632.457    
     63100   291.57221     -1709.6098     -35895.078     -35591.755    
     63200   298.33297     -3.0549766     -35890.442     -35580.085    
     63300   302.26248      4484.4082     -35906.712     -35592.267    
     63400   281.63065     -5181.1504     -35899.912     -35606.931    
     63500   309.70001     -6587.4791     -35912.129     -35589.947    
     63600   313.61235     -5452.3561     -35887.169     -35560.917    
     63700   289.85329      8464.5692     -35863.139     -35561.603    
     63800   300.87702      16058.532     -35884.584     -35571.581    
     63900   312.94013      10578.643     -35900.448     -35574.895    
     64000   310.87644      23352.562     -35905.545     -35582.14     
     64100   307.20316      4077.6801     -35911.06      -35591.476    
     64200   285.83102      8968.2308     -35912.428     -35615.077    
     64300   269.88845      5532.6953     -35920.01      -35639.244    
     64400   283.84232     -3767.2265     -35914.224     -35618.942    
     64500   271.17732      5143.002      -35875.984     -35593.877    
     64600   324.42656     -4348.1845     -35915.533     -35578.032    
     64700   300.27613      6320.6636     -35900.187     -35587.809    
     64800   295.87351     -1142.3534     -35905.543     -35597.745    
     64900   297.92075     -1935.6591     -35900.853     -35590.925    
     65000   308.13574     -3539.3387     -35879.432     -35558.877    
     65100   314.96217      11839.352     -35875.111     -35547.455    
     65200   282.43802     -394.70135     -35862.411     -35568.59     
     65300   293.57592     -6283.3305     -35891.555     -35586.147    
     65400   316.95244      14675.471     -35916.649     -35586.922    
     65500   321.65603      718.08038     -35915.165     -35580.546    
     65600   294.44769      1643.6908     -35889.194     -35582.879    
     65700   292.41102      5353.8912     -35905.259     -35601.063    
     65800   278.33862     -3710.1805     -35907.264     -35617.708    
     65900   286.99747      3411.0378     -35903.705     -35605.141    
     66000   314.61247     -13088.139     -35901.578     -35574.286    
     66100   313.90421     -2276.8912     -35897.276     -35570.72     
     66200   285.65648     -2883.6359     -35875.204     -35578.035    
     66300   285.83809      5136.5605     -35887.302     -35589.944    
     66400   293.43693     -14711.143     -35916.669     -35611.406    
     66500   277.16002     -1230.0155     -35918.67      -35630.34     
     66600   293.60896      5484.8567     -35917.538     -35612.096    
     66700   320.03411      11166.298     -35915.058     -35582.125    
     66800   291.83775      8133.424      -35881.578     -35577.979    
     66900   295.14605      6653.7657     -35881.306     -35574.265    
     67000   303.76999      17853.998     -35891.35      -35575.337    
     67100   301.31639     -4091.6495     -35916.215     -35602.755    
     67200   290.12403     -6586.335      -35917.977     -35616.16     
     67300   292.01655      4110.6885     -35891.263     -35587.477    
     67400   301.72252      3745.4738     -35887.541     -35573.658    
     67500   295.10855      4520.4457     -35880.451     -35573.449    
     67600   313.21554     -3627.4646     -35902.02      -35576.181    
     67700   291.85974     -4736.5163     -35902.002     -35598.379    
     67800   285.92143      3320.3156     -35916.74      -35619.296    
     67900   302.22821      2371.3141     -35917.179     -35602.77     
     68000   298.42779      6448.5802     -35898.58      -35588.125    
     68100   291.98481      8175.7959     -35883.976     -35580.224    
     68200   301.6616       1882.8619     -35888.197     -35574.378    
     68300   298.82031     -10948.421     -35882.764     -35571.9      
     68400   307.85731      2470.0663     -35907.697     -35587.432    
     68500   308.29697      9577.3084     -35938.644     -35617.922    
     68600   270.15775     -1414.8616     -35902.052     -35621.006    
     68700   291.93342     -5509.8357     -35897.089     -35593.39     
     68800   317.69129      3370.8851     -35904.785     -35574.29     
     68900   311.59203      6842.3434     -35895.033     -35570.883    
     69000   312.54223      6219.8464     -35897.966     -35572.828    
     69100   276.51173      6882.2711     -35886.49      -35598.835    
     69200   282.05704     -3237.5634     -35907.295     -35613.87     
     69300   292.9739      -4038.8529     -35906.033     -35601.251    
     69400   323.72365     -15375.949     -35900.47      -35563.7      
     69500   302.83523     -16803.021     -35876.96      -35561.92     
     69600   285.42226     -1198.1275     -35873.387     -35576.461    
     69700   285.94667      7092.1768     -35884.042     -35586.571    
     69800   270.53954     -10808.472     -35869.58      -35588.137    
     69900   315.33338      4490.7306     -35915.481     -35587.439    
     70000   284.99958      43.74741      -35892.575     -35596.089    
     70100   275.28462      10498.593     -35890.186     -35603.807    
     70200   288.17557      6857.0187     -35893.806     -35594.016    
     70300   282.82088      16570.655     -35861.632     -35567.412    
     70400   320.79949      1911.1521     -35897.425     -35563.696    
     70500   298.03214     -6762.2286     -35897.545     -35587.502    
     70600   265.85448     -7356.0313     -35894.81      -35618.241    
     70700   286.0033      -59.936982     -35904.815     -35607.285    
     70800   295.45057     -904.36401     -35896.173     -35588.815    
     70900   305.80598      5249.9025     -35894.388     -35576.257    
     71000   316.6369       2636.8016     -35903.674     -35574.275    
     71100   300.0596      -4378.7079     -35890.897     -35578.744    
     71200   282.34306      6840.802      -35884.154     -35590.431    
     71300   275.57529      9464.6059     -35921.235     -35634.553    
     71400   303.01154      882.85649     -35935.557     -35620.333    
     71500   279.48822     -4641.064      -35881.804     -35591.052    
     71600   303.34173      4544.8789     -35887.71      -35572.143    
     71700   311.70273      10708.887     -35895.379     -35571.114    
     71800   314.48889      11637.943     -35927.615     -35600.451    
     71900   290.40646      674.56208     -35928.01      -35625.9      
     72000   283.51823     -1319.2889     -35918.372     -35623.427    
     72100   315.30442     -11235.197     -35926.836     -35598.824    
     72200   290.82635      3647.4279     -35890.919     -35588.371    
     72300   326.68981      11094.277     -35931.323     -35591.467    
     72400   276.43157      2575.508      -35921.128     -35633.555    
     72500   286.90301     -10365.405     -35932.162     -35633.696    
     72600   311.2068       4844.1385     -35936.643     -35612.893    
     72700   311.61564     -1427.5333     -35922.975     -35598.801    
     72800   293.18518      525.23642     -35906.765     -35601.764    
     72900   277.10325      11324.439     -35924.859     -35636.588    
     73000   299.07359      4831.0535     -35959.695     -35648.568    
     73100   279.47828      4847.3517     -35920.733     -35629.991    
     73200   286.93145     -4260.2905     -35910.556     -35612.06     
     73300   288.6785       8472.6325     -35908.727     -35608.414    
     73400   309.02808      5755.5807     -35926.475     -35604.993    
     73500   293.94713     -3896.2212     -35910.893     -35605.099    
     73600   306.84166      3743.0895     -35924.533     -35605.325    
     73700   276.3763      -1222.2764     -35894.806     -35607.291    
     73800   304.54337      7392.2558     -35928.543     -35611.725    
     73900   297.09681      9188.3426     -35929.823     -35620.752    
     74000   273.02808      13280.037     -35932.71      -35648.678    
     74100   282.22202      6701.0977     -35944.161     -35650.564    
     74200   272.89421      9908.7642     -35901.594     -35617.702    
     74300   307.83789     -1590.1253     -35920.783     -35600.539    
     74400   324.22227      6764.875      -35935.277     -35597.988    
     74500   294.90605      231.79855     -35916.263     -35609.472    
     74600   283.24944     -8068.5581     -35928.366     -35633.701    
     74700   284.35708      2300.2745     -35931.847     -35636.03     
     74800   339.34491      13669.494     -35948.348     -35595.327    
     74900   295.1373       3418.4572     -35895.414     -35588.382    
     75000   315.08736      3944.9947     -35924.793     -35597.007    
     75100   298.39072     -8588.3591     -35933.844     -35623.427    
     75200   285.55316     -12901.005     -35923.958     -35626.896    
     75300   295.60258      12818.79      -35924.253     -35616.736    
     75400   290.33158      1193.4924     -35916.418     -35614.385    
     75500   305.10356      8623.1312     -35924.305     -35606.905    
     75600   315.66543      9714.8196     -35921.506     -35593.118    
     75700   332.31527      1215.2208     -35907.841     -35562.133    
     75800   328.58513      15481.243     -35891.762     -35549.934    
     75900   296.48965      11327.269     -35900.165     -35591.726    
     76000   283.35663      5739.4936     -35904.095     -35609.319    
     76100   292.20478      12216.119     -35921.72      -35617.738    
     76200   304.98464      1694.7445     -35946.461     -35629.185    
     76300   285.37548     -19047.813     -35925.961     -35629.084    
     76400   307.12667     -8566.5885     -35922.113     -35602.608    
     76500   311.65438      607.69054     -35911.018     -35586.803    
     76600   305.35979      10168.639     -35919.283     -35601.617    
     76700   266.28582      11543.515     -35917.98      -35640.962    
     76800   294.29379     -10441.62      -35945.396     -35639.242    
     76900   296.97472     -650.81323     -35932.751     -35623.808    
     77000   306.21381     -10848.852     -35920.617     -35602.062    
     77100   306.48566      11369.506     -35911.874     -35593.036    
     77200   309.24504      11605.522     -35924.336     -35602.628    
     77300   320.63809     -8926.1866     -35948.924     -35615.363    
     77400   287.96009     -8051.9882     -35914.484     -35614.918    
     77500   286.4879       4679.1825     -35914.397     -35616.363    
     77600   305.36168      3962.091      -35915.51      -35597.842    
     77700   313.86288      8383.8512     -35904.771     -35578.258    
     77800   293.8057      -6589.8464     -35892.098     -35586.451    
     77900   281.53489     -14155.047     -35919.073     -35626.192    
     78000   300.12723     -9941.9487     -35940.814     -35628.591    
     78100   292.27133      12739.332     -35922.731     -35618.68     
     78200   311.47744      12862.614     -35918.329     -35594.298    
     78300   300.9077      -7561.5182     -35904.59      -35591.555    
     78400   291.25633     -3533.0041     -35916.238     -35613.244    
     78500   289.53188      117.14411     -35947.484     -35646.283    
     78600   260.95443      12388.17      -35916.243     -35644.771    
     78700   299.24846      8775.4356     -35946.864     -35635.555    
     78800   287.11724      3535.6364     -35920.972     -35622.284    
     78900   311.13756      13563.592     -35925.886     -35602.209    
     79000   284.21018      10569.57      -35894.314     -35598.649    
     79100   299.54158     -8604.2764     -35926.895     -35615.281    
     79200   298.07449      4197.3855     -35963.501     -35653.414    
     79300   271.23178     -5280.2504     -35938.301     -35656.138    
     79400   288.53609     -16212.65      -35941.69      -35641.525    
     79500   318.33187     -3075.8914     -35950.256     -35619.095    
     79600   322.06417      10623.231     -35939.616     -35604.572    
     79700   329.39655     -2323.718      -35962.36      -35619.687    
     79800   291.31296      2681.0353     -35955.772     -35652.718    
     79900   304.43303      3786.3422     -35978.329     -35661.627    
     80000   303.42764     -8823.5116     -35975.266     -35659.609    
     80100   318.50457      8346.2662     -35993.232     -35661.891    
     80200   281.8077       13519.877     -35956.996     -35663.831    
     80300   305.30006      9000.04       -35961.828     -35644.224    
     80400   333.18355      7781.1731     -35971.479     -35624.867    
     80500   304.32139      8120.7319     -35953.011     -35636.425    
     80600   299.37559     -6140.0935     -35983.802     -35672.361    
     80700   302.49914      2846.8975     -35987.623     -35672.932    
     80800   303.1634       5710.8999     -35978.894     -35663.512    
     80900   313.33466      7536.9236     -35971.958     -35645.995    
     81000   300.58588      10878.835     -35953.38      -35640.68     
     81100   301.89115     -12842.541     -35967.408     -35653.349    
     81200   304.59837      1766.6793     -35985.14      -35668.265    
     81300   289.99223      9298.1949     -35977.421     -35675.741    
     81400   306.05367     -2777.7851     -35988.707     -35670.318    
     81500   312.90313      3657.33       -35968.175     -35642.661    
     81600   296.9009       16414.496     -35940.607     -35631.74     
     81700   311.2791       7843.2807     -35966.529     -35642.704    
     81800   297.26574      21418.53      -35985.94      -35676.694    
     81900   286.89019      15551.796     -35980.102     -35681.65     
     82000   307.03614     -4467.5684     -35987.407     -35667.997    
     82100   321.04914      2867.7625     -35998.415     -35664.427    
     82200   281.05068      15938.445     -35987.926     -35695.548    
     82300   288.58676      13992.378     -36021.326     -35721.108    
     82400   298.61899      1662.0993     -36017.499     -35706.845    
     82500   294.36537     -5792.0295     -35995.701     -35689.472    
     82600   306.23949      6277.7621     -35986.513     -35667.932    
     82700   278.03533      10591.773     -35961.224     -35671.983    
     82800   302.96978      5655.6928     -36028.638     -35713.457    
     82900   302.74926      14088.772     -36037.582     -35722.631    
     83000   290.65396      13679.684     -36006.861     -35704.493    
     83100   296.25267     -673.06479     -35993.101     -35684.909    
     83200   288.01425      3702.963      -35976.577     -35676.955    
     83300   303.17285      11833.986     -36001.026     -35685.635    
     83400   280.70017     -1435.4394     -36016.732     -35724.719    
     83500   284.10202     -3649.4467     -36023.399     -35727.847    
     83600   294.03937     -9762.5701     -36014.109     -35708.219    
     83700   292.80562      10221.258     -35994.512     -35689.905    
     83800   313.68193      14746.264     -36017.613     -35691.289    
     83900   286.69164      11690.039     -35999.867     -35701.621    
     84000   293.33792      8776.9821     -36021.478     -35716.318    
     84100   263.89172      3705.8578     -36013.146     -35738.619    
     84200   302.32591     -3216.0536     -36031.472     -35716.962    
     84300   303.45866     -748.37018     -36006.699     -35691.01     
     84400   294.67872     -10246.821     -35986.298     -35679.743    
     84500   307.5696      -86.844227     -35990.035     -35670.07     
     84600   305.72563      3757.5089     -35989.148     -35671.101    
     84700   292.78025      5564.9551     -35999.575     -35694.995    
     84800   300.58088      9919.8354     -36027.891     -35715.196    
     84900   299.41448      4537.2049     -36025.668     -35714.186    
     85000   319.54308      12185.2       -36017.614     -35685.192    
     85100   297.16422      3860.4165     -35971.083     -35661.942    
     85200   303.23389     -8526.0847     -35990.839     -35675.384    
     85300   296.84648     -12509.527     -36007.374     -35698.564    
     85400   306.7027       695.84223     -36021.341     -35702.277    
     85500   317.50838      3084.3603     -36029.972     -35699.667    
     85600   286.70408      13753.466     -35960.289     -35662.03     
     85700   315.06909      5037.2956     -35970.61      -35642.843    
     85800   317.64905      9246.9553     -36000.472     -35670.021    
     85900   286.80516     -1857.7311     -35987.296     -35688.932    
     86000   308.04646      20972.718     -36009.19      -35688.728    
     86100   293.15094      19795.538     -35993.748     -35688.783    
     86200   286.45257      11475.008     -35998.345     -35700.348    
     86300   296.7337       4775.0488     -36025.385     -35716.692    
     86400   286.01427      19617.706     -36015.31      -35717.769    
     86500   316.78138     -8139.5345     -36020.74      -35691.191    
     86600   290.94623      1349.5947     -35978.272     -35675.6      
     86700   301.29124     -59.09327      -35989.189     -35675.755    
     86800   320.9308       4343.9438     -36032.665     -35698.8      
     86900   278.36921      5354.7382     -36017.504     -35727.916    
     87000   299.31283      2378.4761     -36036.188     -35724.812    
     87100   301.40148     -7084.0511     -36017.184     -35703.636    
     87200   319.65398      165.40148     -36014.354     -35681.817    
     87300   312.36646     -255.79404     -36004.711     -35679.755    
     87400   300.47848     -12197.82      -36002.531     -35689.942    
     87500   318.63058      15857.978     -36041.065     -35709.593    
     87600   273.49475     -6459.9667     -36023.006     -35738.489    
     87700   284.53154     -8067.3392     -36042.559     -35746.561    
     87800   279.19061      9217.6442     -36007.728     -35717.285    
     87900   289.72402      13685.721     -36010.582     -35709.181    
     88000   301.02759      6677.3035     -36010.446     -35697.286    
     88100   300.47209      1296.8513     -35994.811     -35682.229    
     88200   316.59947      4691.1183     -36009.701     -35680.341    
     88300   283.88306      587.01358     -35998.001     -35702.677    
     88400   280.61687      2229.513      -36015.456     -35723.529    
     88500   291.28898      6205.5796     -36018.297     -35715.269    
     88600   314.91852     -4649.3962     -36014.137     -35686.527    
     88700   307.91975     -3951.9115     -35998.892     -35678.562    
     88800   303.19881      2888.562      -36001.389     -35685.97     
     88900   300.49931      12687.854     -36018.278     -35705.668    
     89000   282.10112      13473.233     -36022.138     -35728.668    
     89100   287.77988     -3715.5109     -36022.503     -35723.125    
     89200   300.87405     -4840.0957     -36025.268     -35712.268    
     89300   280.77061     -6072.4301     -35992.494     -35700.408    
     89400   310           -1544.4546     -36010.213     -35687.719    
     89500   295.79577      8426.4479     -36001.677     -35693.96     
     89600   288.20344      847.9942      -36027.07      -35727.251    
     89700   287.71164      6877.7199     -36039.087     -35739.78     
     89800   293.92096      1577.7206     -36024.604     -35718.837    
     89900   290.18092     -8831.2229     -36004.906     -35703.03     
     90000   298.32772     -5031.4063     -36000.682     -35690.331    
     90100   306.33611      5055.7824     -36012.224     -35693.542    
     90200   275.6017      -7526.1396     -35999.355     -35712.646    
     90300   293.36078     -27.194875     -36044.609     -35739.425    
     90400   282.86802      415.76085     -36043.431     -35749.163    
     90500   294.77085      6172.5278     -36020.911     -35714.26     
     90600   304.71546      4168.1296     -36010.778     -35693.782    
     90700   310.75859      3341.8456     -36009.221     -35685.938    
     90800   318.37996      6947.0148     -36029.603     -35698.391    
     90900   267.9734       8214.1035     -36006.628     -35727.854    
     91000   304.33019      15073.305     -36040.403     -35723.808    
     91100   299.05996      9069.627      -36022.565     -35711.452    
     91200   294.08885     -598.61831     -36010.022     -35704.08     
     91300   301.26326      3584.6215     -36012.797     -35699.392    
     91400   317.74902     -3564.6771     -36020.327     -35689.772    
     91500   326.7391       21221.354     -36009.283     -35669.376    
     91600   305.07989      5018.4945     -35968.587     -35651.211    
     91700   312.62435      2223.1815     -36007.201     -35681.977    
     91800   294.77971     -6198.0359     -36008.252     -35701.592    
     91900   290.86311     -5607.0344     -36007.234     -35704.648    
     92000   296.9747       6991.7161     -36014.864     -35705.921    
     92100   310.61918      14948.992     -36006.187     -35683.049    
     92200   306.39986      1790.7896     -35987.27      -35668.522    
     92300   306.66354     -1980.0768     -36005.941     -35686.918    
     92400   282.18033     -4135.7784     -36011.219     -35717.666    
     92500   286.84319      4409.2931     -36013.559     -35715.155    
     92600   299.27985     -3246.915      -36014.629     -35703.287    
     92700   305.37015      22267.716     -36009.727     -35692.049    
     92800   322.84206      3913.6811     -36007.608     -35671.754    
     92900   301.75147      9510.6103     -36001.648     -35687.735    
     93000   299.44776      6819.8691     -36024.778     -35713.262    
     93100   307.63244     -3050.0767     -36043.243     -35723.212    
     93200   296.40193      1243.3408     -36040.377     -35732.029    
     93300   300.38805      6391.799      -36062.177     -35749.683    
     93400   280.92254     -14086.782     -36058.386     -35766.142    
     93500   284.32737     -2693.5962     -36046.206     -35750.419    
     93600   307.48777      14602.289     -36037.54      -35717.66     
     93700   317.52026      7721.0298     -36042.815     -35712.498    
     93800   300.97257      7700.1169     -36031.382     -35718.28     
     93900   314.12003      11112.225     -36049.882     -35723.102    
     94000   298.85673      15651.472     -36067.775     -35756.873    
     94100   289.32925      4099.6293     -36074.956     -35773.966    
     94200   281.00135      7611.9071     -36060.314     -35767.988    
     94300   327.50578      6188.9395     -36081.803     -35741.098    
     94400   305.71465      11466.284     -36051.714     -35733.679    
     94500   317.97782      6944.4591     -36075.445     -35744.652    
     94600   292.86946      2081.0288     -36078.385     -35773.712    
     94700   272.14581      9936.2186     -36091.101     -35807.987    
     94800   274.30556      8033.4477     -36086.706     -35801.345    
     94900   286.9474       2568.478      -36079.677     -35781.164    
     95000   283.69509      561.65611     -36049.922     -35754.793    
     95100   315.94392     -3103.3905     -36071.922     -35743.244    
     95200   314.20531     -1592.378      -36066.541     -35739.672    
     95300   290.24475     -6921.6618     -36050.71      -35748.768    
     95400   279.69062     -555.73462     -36063.695     -35772.733    
     95500   305.87088     -413.81376     -36095.802     -35777.604    
     95600   287.9993      -7940.7128     -36059.441     -35759.835    
     95700   332.80598     -3035.3824     -36076.803     -35730.584    
     95800   294.72969      1565.1059     -36042.847     -35736.239    
     95900   308.31653     -284.91373     -36078.836     -35758.094    
     96000   306.00696      12174.069     -36078.934     -35760.594    
     96100   308.45233      2634.7779     -36074.006     -35753.123    
     96200   295.77923     -5460.2511     -36048.307     -35740.607    
     96300   321.57025     -5853.4186     -36057.071     -35722.541    
     96400   313.28698      1908.0995     -36037.729     -35711.816    
     96500   312.412       -1011.9134     -36066.694     -35741.691    
     96600   298.66622     -2263.8926     -36078.055     -35767.352    
     96700   266.19703     -5154.6157     -36052.741     -35775.816    
     96800   287.40139      12533.944     -36069.185     -35770.201    
     96900   301.10764     -4474.6254     -36049.862     -35736.619    
     97000   308.7994       6763.2955     -36052.64      -35731.395    
     97100   309.76532     -1854.1706     -36065.059     -35742.809    
     97200   303.71273      4517.8261     -36074.617     -35758.663    
     97300   288.60301      899.54627     -36065.629     -35765.395    
     97400   299.15173      2924.1602     -36077.321     -35766.113    
     97500   298.59763     -12635.182     -36068.785     -35758.153    
     97600   322.66216     -5560.624      -36071.776     -35736.109    
     97700   321.83835      7890.2797     -36033.164     -35698.355    
     97800   320.01262      5315.2234     -36045.757     -35712.847    
     97900   297.18103     -1150.8491     -36060.137     -35750.979    
     98000   287.89775      12653.52      -36061.903     -35762.403    
     98100   324.59362     -3084.6123     -36094.212     -35756.536    
     98200   301.67688      8964.3772     -36074.788     -35760.953    
     98300   294.32205     -5168.2314     -36072.808     -35766.624    
     98400   295.26492      5003.3804     -36083.65      -35776.485    
     98500   311.36636      11071.741     -36087.506     -35763.591    
     98600   312.3906       22033.527     -36063.317     -35738.337    
     98700   302.55644      14096.758     -36051.229     -35736.479    
     98800   298.75413      12103.526     -36073.125     -35762.33     
     98900   292.78124     -394.5378      -36093.986     -35789.405    
     99000   287.40833     -19157.891     -36076.827     -35777.835    
     99100   294.29535      7535.5564     -36061.934     -35755.778    
     99200   308.03984      3889.5664     -36066.954     -35746.5      
     99300   307.55617     -2914.4845     -36065.156     -35745.204    
     99400   300.07946     -630.22029     -36077.648     -35765.474    
     99500   281.19664      3003.0598     -36088.226     -35795.696    
     99600   288.487        9828.0733     -36085.508     -35785.394    
     99700   299.73119      6437.4803     -36074.747     -35762.936    
     99800   321.61314      7803.7561     -36084.454     -35749.879    
     99900   297.03407      12294.514     -36055.347     -35746.341    
    100000   300.24627      12025.141     -36057.87      -35745.523    
    100100   297.07813      3767.9006     -36062.897     -35753.845    
    100200   294.68092      14714.142     -36070.846     -35764.289    
    100300   268.33888      12681.335     -36042.152     -35762.998    
    100400   288.88706      10717.181     -36044.885     -35744.355    
    100500   322.84641      2269.9678     -36062.751     -35726.893    
    100600   312.41514      7059.5869     -36057.429     -35732.422    
    100700   312.50853      2264.2752     -36092.9       -35767.796    
    100800   288.41168      3734.528      -36076.534     -35776.499    
    100900   293.43998      306.48616     -36072.397     -35767.131    
    101000   299.82184      5080.8922     -36055.834     -35743.928    
    101100   332.54578     -1600.4785     -36060.746     -35714.798    
    101200   312.26617      3687.8094     -36017.958     -35693.107    
    101300   298.82744      3434.4901     -36052.088     -35741.217    
    101400   293.17168      10952.037     -36060.971     -35755.984    
    101500   285.39112      9618.889      -36057.732     -35760.839    
    101600   305.08953     -9431.8112     -36078.584     -35761.198    
    101700   310.34456      3549.2123     -36074.894     -35752.042    
    101800   316.58133      8234.8683     -36069.72      -35740.38     
    101900   304.5034       9024.3666     -36060.939     -35744.164    
    102000   305.51487      11785.021     -36089.319     -35771.491    
    102100   280.92765      9468.6521     -36080.112     -35787.862    
    102200   300.29158     -4117.4842     -36084.151     -35771.757    
    102300   280.60475     -16835.341     -36047.18      -35755.266    
    102400   299.25248     -7543.7843     -36066.337     -35755.024    
    102500   305.88857      2409.189      -36075.033     -35756.816    
    102600   319.6513       11993.861     -36076.923     -35744.389    
    102700   320.09319      17250.565     -36054.774     -35721.78     
    102800   297.12782      12951.238     -36020.539     -35711.436    
    102900   301.06232      4538.0973     -36055.96      -35742.764    
    103000   309.6489       10362.855     -36090.524     -35768.395    
    103100   294.68508     -18497.36      -36080.1       -35773.538    
    103200   284.81833      1319.4562     -36056.246     -35759.949    
    103300   316.31339      27041.243     -36064.624     -35735.562    
    103400   309.85958     -6666.6286     -36052.152     -35729.804    
    103500   298.10991     -1037.3844     -36079.557     -35769.432    
    103600   288.73663      6560.0134     -36078.945     -35778.571    
    103700   305.2274      -773.99334     -36079.785     -35762.256    
    103800   312.67353     -6564.3438     -36074.138     -35748.863    
[...]
    174300   294.4538      -230.78749     -36098.655     -35792.334    
    174400   284.3549       4775.5989     -36082.579     -35786.764    
    174500   317.18177     -520.52715     -36097.853     -35767.888    
    174600   308.04018     -4479.5387     -36079.334     -35758.879    
    174700   297.67386      17273.919     -36107.265     -35797.594    
    174800   285.66621     -1276.9609     -36105.754     -35808.574    
    174900   299.54732      105.49029     -36119.88      -35808.26     
    175000   317.3937       963.55933     -36115.266     -35785.081    
    175100   311.75524      8063.0059     -36088.527     -35764.207    
    175200   306.86433      9713.4604     -36092.43      -35773.199    
    175300   281.6844       2437.5383     -36105.988     -35812.951    
    175400   280.0878       6808.4177     -36101.431     -35810.055    
    175500   315.35887      7207.2417     -36120.355     -35792.286    
    175600   310.72681      14797.08      -36100.248     -35776.998    
    175700   331.52067      15831.778     -36103.759     -35758.877    
    175800   321.71662     -404.0392      -36086.908     -35752.225    
    175900   300.06286      1864.5146     -36095.017     -35782.86     
    176000   283.29514      17535.807     -36097.459     -35802.746    
    176100   303.89455      9758.7217     -36124.145     -35808.003    
    176200   286.06115     -4252.343      -36100.693     -35803.103    
    176300   342.4339       4540.5761     -36126.935     -35770.7      
    176400   292.63308      7325.6099     -36066.113     -35761.686    
    176500   291.40902      9616.1296     -36079.811     -35776.657    
    176600   285.66704      7881.8407     -36108.154     -35810.974    
    176700   303.72558     -7079.8887     -36128.631     -35812.665    
    176800   315.18461      13627.982     -36131.481     -35803.594    
    176900   307.17728     -1087.2766     -36104.825     -35785.268    
    177000   326.35075     -350.74541     -36105.004     -35765.501    
    177100   316.5838       18430.426     -36102.88      -35773.537    
    177200   306.33824      7159.7352     -36102.56      -35783.875    
    177300   281.87687      635.85824     -36086.805     -35793.568    
    177400   291.22468     -12777.41      -36102.359     -35799.397    
    177500   282.86423      3477.8848     -36102.805     -35808.54     
    177600   298.05469     -6231.2735     -36120.786     -35810.719    
    177700   310.90194     -6372.4779     -36126.601     -35803.169    
    177800   310.39546      3063.1642     -36101.382     -35778.476    
    177900   310.05654      3969.1458     -36098.162     -35775.609    
    178000   284.82686     -5078.348      -36100.628     -35804.322    
    178100   280.68365      15430.348     -36117.264     -35825.268    
    178200   292.47016     -5581.4668     -36121.711     -35817.454    
    178300   295.3633      -10411.684     -36115.02      -35807.752    
    178400   310.83873     -3827.7226     -36115.145     -35791.778    
    178500   316.41037     -6075.5923     -36096.562     -35767.4      
    178600   286.76947     -3364.6231     -36079.015     -35780.688    
    178700   286.96749     -5548.0775     -36119.73      -35821.197    
    178800   277.61943     -1458.1598     -36111.779     -35822.97     
    178900   310.19957      13963.752     -36123.689     -35800.987    
    179000   304.92775      16668.145     -36096.179     -35778.962    
    179100   306.88718     -13252.296     -36095.807     -35776.551    
    179200   294.11937     -7918.8025     -36096.404     -35790.431    
    179300   280.21063      1289.7565     -36115.814     -35824.31     
    179400   288.80645      5181.002      -36125.515     -35825.069    
    179500   305.16453      18041.624     -36123.954     -35806.491    
    179600   306.29451      4253.2336     -36109.62      -35790.981    
    179700   297.76693      10146.486     -36098.329     -35788.561    
    179800   305.0014       5616.4689     -36102.919     -35785.625    
    179900   296.52694      3725.3285     -36100.486     -35792.008    
    180000   291.37383     -5668.6713     -36122.016     -35818.899    
    180100   291.02138     -2279.6382     -36134.626     -35831.876    
    180200   296.94887     -8554.1043     -36125.981     -35817.064    
    180300   289.77447     -2349.3675     -36082.074     -35780.621    
    180400   306.21284     -11795.166     -36094.022     -35775.468    
    180500   324.35518      4295.6267     -36129.37      -35791.942    
    180600   291.32707      2017.0663     -36115.457     -35812.388    
    180700   286.42343      6843.9779     -36113.677     -35815.71     
    180800   313.26191      2431.7217     -36105.714     -35779.827    
    180900   326.46662      14005.785     -36104.136     -35764.512    
    181000   306.64042      4950.5423     -36100.488     -35781.489    
    181100   273.36351      6464.7751     -36087.951     -35803.57     
    181200   306.40559      18362.577     -36130.367     -35811.613    
    181300   288.57521      2935.4032     -36112.69      -35812.484    
    181400   334.41406      19663.472     -36122.378     -35774.486    
    181500   289.84848     -904.8268      -36068.569     -35767.039    
    181600   306.26469      9003.2971     -36105.795     -35787.187    
    181700   306.17637      1249.5232     -36123.192     -35804.676    
    181800   278.31701      7974.4165     -36100.433     -35810.899    
    181900   295.91308     -4914.2067     -36091.047     -35783.208    
    182000   321.21722      1705.4302     -36093.431     -35759.268    
    182100   300.98585     -5519.3476     -36093.511     -35780.394    
    182200   281.77664      6521.1133     -36098.517     -35805.384    
    182300   285.81074      9887.9403     -36110.626     -35813.297    
    182400   310.72401     -50.481257     -36124.651     -35801.404    
    182500   292.94477      4854.627      -36070.699     -35765.948    
    182600   338.14237      6720.3351     -36110.881     -35759.11     
    182700   287.98717      2157.014      -36078.106     -35778.512    
    182800   310.91561     -448.72293     -36117.329     -35793.882    
    182900   281.6938      -2003.8143     -36099.921     -35806.874    
    183000   299.97041     -7209.5952     -36113.067     -35801.007    
    183100   309.89184      13317.521     -36087.763     -35765.382    
    183200   322.79057     -7197.9187     -36090.896     -35755.096    
    183300   304.27031     -17148.166     -36094.957     -35778.424    
    183400   306.52276      3098.4639     -36116.84      -35797.964    
    183500   302.89927     -4156.6157     -36117.912     -35802.805    
    183600   311.66443     -3997.177      -36128.456     -35804.23     
    183700   292.58313      21096.686     -36100.198     -35795.823    
    183800   338.53199      667.74152     -36134.542     -35782.366    
    183900   306.27645      7703.6957     -36095.581     -35776.961    
    184000   316.27866      6359.9691     -36117.159     -35788.134    
    184100   288.85264      9632.2443     -36116.441     -35815.946    
    184200   292.69816      11565.82      -36130.309     -35825.814    
    184300   295.29228      19111.719     -36123.22      -35816.027    
    184400   301.30822      7493.8267     -36090.506     -35777.054    
    184500   312.81115      12136.135     -36094.233     -35768.814    
    184600   304.44768     -14123.339     -36102.582     -35785.864    
    184700   288.49525      8395.6672     -36105.446     -35805.324    
    184800   284.63824     -1410.7902     -36117.467     -35821.357    
    184900   284.22137      4838.7943     -36108.144     -35812.468    
    185000   334.95232     -5137.6028     -36121.242     -35772.79     
    185100   309.35582      8532.3018     -36098.185     -35776.362    
    185200   314.95007      4535.6441     -36122.319     -35794.676    
    185300   284.34977     -9786.1353     -36110.545     -35814.735    
    185400   296.16334      9678.6173     -36126.41      -35818.311    
    185500   303.34027     -6811.5389     -36109.129     -35793.563    
    185600   302.4925       3327.1164     -36080.305     -35765.621    
    185700   300.07645      11312.605     -36094.24      -35782.069    
    185800   314.46427      24044.904     -36125.34      -35798.202    
    185900   300.19061      533.275       -36109.513     -35797.224    
    186000   313.18987      1771.6443     -36127.945     -35802.133    
    186100   278.87227     -7844.1204     -36122.4       -35832.288    
    186200   292.19968     -714.74966     -36140.698     -35836.722    
    186300   315.17232      13230.317     -36134.818     -35806.944    
    186400   301.58249      20084.627     -36109.116     -35795.379    
    186500   287.29754      2770.7687     -36094.127     -35795.251    
    186600   294.9242       15961.067     -36101.789     -35794.978    
    186700   301.94705      7667.1703     -36109.02      -35794.904    
    186800   299.71931      2623.4594     -36108.173     -35796.374    
    186900   297.86172     -13392.166     -36105.257     -35795.39     
    187000   287.80273     -6012.9026     -36108.549     -35809.148    
    187100   302.69203      5531.7306     -36135.905     -35821.013    
    187200   282.43835      16205.037     -36115.981     -35822.16     
    187300   295.00377      6369.9186     -36101.873     -35794.98     
    187400   305.02128      8825.8392     -36097.192     -35779.877    
    187500   306.13151      10938.706     -36091.364     -35772.895    
    187600   303.03207      1114.4914     -36107.656     -35792.411    
    187700   283.68654      18961.398     -36115.958     -35820.838    
    187800   274.52543      5254.7228     -36105.863     -35820.274    
    187900   296.8872       17810.832     -36103.185     -35794.333    
    188000   330.50816      3129.6387     -36124.026     -35780.197    
    188100   283.09535     -4398.0889     -36085.674     -35791.169    
    188200   312.11072      2353.983      -36124.881     -35800.192    
    188300   283.31161      16685.513     -36098.617     -35803.887    
    188400   294.35277      3841.8154     -36099.227     -35793.011    
    188500   308.97277      5417.0039     -36089.639     -35768.214    
    188600   326.89535      7565.0736     -36108.553     -35768.483    
    188700   302.61582     -7618.8978     -36116.053     -35801.241    
    188800   302.58363     -2009.8182     -36127.974     -35813.196    
    188900   294.56305      7906.6654     -36118.036     -35811.601    
    189000   319.5095      -2329.2134     -36126.116     -35793.729    
    189100   311.58293      8954.7077     -36083.554     -35759.413    
    189200   310.14503     -6273.0888     -36088.082     -35765.437    
    189300   302.80703      2099.1013     -36095.247     -35780.236    
    189400   305.15566      2597.3727     -36104.051     -35786.597    
    189500   284.84548      9972.842      -36099.373     -35803.047    
    189600   294.4492       12861.356     -36129.703     -35823.387    
    189700   278.47963      1110.691      -36111.374     -35821.671    
    189800   319.26221      4616.6065     -36111.155     -35779.025    
    189900   290.94042      7501.239      -36074.835     -35772.169    
    190000   308.9297      -7849.5752     -36113.063     -35791.683    
    190100   291.0882       2940.6101     -36110.689     -35807.869    
    190200   297.76494      7975.8158     -36131.282     -35821.516    
    190300   279.84587      5122.1324     -36108.499     -35817.375    
    190400   301.77617      7592.369      -36093.619     -35779.681    
    190500   315.2054       3913.5871     -36097.913     -35770.004    
    190600   306.45863     -6755.324      -36114.684     -35795.874    
    190700   299.13432     -4188.92       -36120.841     -35809.65     
    190800   315.3367      -5744.4124     -36135.288     -35807.242    
    190900   287.50092      5660.1306     -36102.609     -35803.521    
    191000   326.98802      17047.532     -36116.916     -35776.749    
    191100   326.18483     -893.44627     -36098.612     -35759.281    
    191200   295.03395     -7026.2105     -36096.658     -35789.733    
    191300   303.97639      14651.123     -36118.17      -35801.942    
    191400   303.28939     -2651.0543     -36122.971     -35807.458    
    191500   277.68191      1021.1528     -36095.14      -35806.267    
    191600   316.00524      2133.6467     -36107.063     -35778.322    
    191700   318.87021      11036.118     -36094.004     -35762.282    
    191800   303.90006      16910.583     -36094.025     -35777.877    
    191900   287.53892     -3686.9517     -36104.809     -35805.682    
    192000   290.82564      5899.5591     -36112.508     -35809.961    
    192100   308.93484      2976.0704     -36124.261     -35802.875    
    192200   302.23843     -8520.8579     -36123.861     -35809.442    
    192300   288.29259     -8606.8824     -36118.155     -35818.244    
    192400   298.72726     -7181.1156     -36120.096     -35809.329    
    192500   301.29981      711.23187     -36099.463     -35786.02     
    192600   321.06544      10129.614     -36108.709     -35774.704    
    192700   279.44364     -1916.2132     -36083.203     -35792.498    
    192800   290.78443     -3413.2259     -36126.062     -35823.558    
    192900   279.4057       4032.2651     -36123.617     -35832.951    
    193000   287.28457     -2140.8818     -36118.24      -35819.377    
    193100   291.25564      3944.2476     -36104.884     -35801.89     
    193200   306.1044      -6567.9466     -36105.399     -35786.958    
    193300   287.00644      4851.5501     -36080.479     -35781.906    
    193400   294.60594      11945.65      -36085.794     -35779.314    
    193500   305.31633     -163.50541     -36127.685     -35810.064    
    193600   285.47443      15770.824     -36119.414     -35822.434    
    193700   303.22126      10534.459     -36131.801     -35816.359    
    193800   316.789       -1675.1127     -36120.068     -35790.511    
    193900   323.07794     -749.92409     -36109.639     -35773.541    
    194000   293.20856      238.63369     -36089.622     -35784.596    
    194100   315.3153      -10.709252     -36123.326     -35795.302    
    194200   288.53317     -1375.6673     -36099.589     -35799.427    
    194300   300.99824      5160.6622     -36111.473     -35798.344    
    194400   291.68176      6742.0415     -36096.83      -35793.393    
    194500   325.32904      6244.4907     -36119.386     -35780.945    
    194600   312.07514      4298.7585     -36092.918     -35768.266    
    194700   307.13667      25932.349     -36106.05      -35786.535    
    194800   299.0428       14335.045     -36122.153     -35811.058    
    194900   278.28222      2806.1251     -36107.698     -35818.2      
    195000   300.39544      12607.415     -36112.729     -35800.226    
    195100   303.36434      13818.103     -36086.436     -35770.845    
    195200   307.91724      5568.766      -36074.287     -35753.96     
    195300   288.29375      10330.325     -36093.656     -35793.743    
    195400   293.9976       14092.78      -36117.488     -35811.642    
    195500   280.57813      3451.9382     -36090.681     -35798.794    
    195600   315.05532      10503.259     -36102.231     -35774.478    
    195700   308.42718      7282.02       -36094.694     -35773.836    
    195800   309.29874      436.58918     -36120.221     -35798.456    
    195900   292.73565     -8704.4422     -36119.776     -35815.242    
    196000   294.15701     -14635.857     -36116.516     -35810.504    
    196100   300.06758      11419.434     -36113.921     -35801.76     
    196200   305.49845      7304.776      -36116.682     -35798.871    
    196300   290.64534      15203.74      -36098.016     -35795.657    
    196400   307.80666      5443.2064     -36105.919     -35785.707    
    196500   304.75302      3423.9722     -36102.47      -35785.434    
    196600   294.80244      6639.3132     -36117.49      -35810.806    
    196700   280.49633      10285.062     -36129.538     -35837.737    
    196800   292.64401      9372.2013     -36129.491     -35825.053    
    196900   298.77824      14911.941     -36106.627     -35795.807    
    197000   314.98022     -5571.9368     -36112.833     -35785.158    
    197100   314.29172      641.69167     -36110.954     -35783.995    
    197200   311.41789      3496.6101     -36124.724     -35800.755    
    197300   285.64434      12455.596     -36128.337     -35831.181    
    197400   291.66665      10051.99      -36130.743     -35827.321    
    197500   275.06141      7431.4173     -36092.83      -35806.683    
    197600   318.35809      11856.277     -36127.571     -35796.382    
    197700   296.34206      9340.6496     -36098.762     -35790.476    
    197800   290.43461      24293.105     -36091.852     -35789.712    
    197900   300.73468      2178.0565     -36098.671     -35785.816    
    198000   326.84198      1691.339      -36121.259     -35781.245    
    198100   298.10144      15767.734     -36105.455     -35795.339    
    198200   289.16414     -11152.374     -36112.875     -35812.057    
    198300   278.61395      7951.1877     -36109.318     -35819.476    
    198400   305.26582      4820.0467     -36125.113     -35807.544    
    198500   311.16076     -5625.7738     -36102.531     -35778.83     
    198600   312.11385     -5546.7763     -36102.575     -35777.882    
    198700   289.35912      6211.5377     -36098.503     -35797.482    
    198800   293.94087      6631.9225     -36132.937     -35827.15     
    198900   295.90577      13092.688     -36151.249     -35843.417    
    199000   294.91535     -516.07647     -36135.507     -35828.706    
    199100   293.88478      7180.1909     -36119.773     -35814.043    
    199200   281.3699       9885.4874     -36083.659     -35790.949    
    199300   320.38298      1090.8774     -36110.584     -35777.288    
    199400   298.94887      23737.272     -36091.237     -35780.24     
    199500   296.18298      2132.644      -36119.965     -35811.845    
    199600   286.57301     -4966.6807     -36124.888     -35826.765    
    199700   297.11357      6164.9022     -36124.235     -35815.147    
    199800   314.48988     -3212.3215     -36124.213     -35797.048    
    199900   304.07641      3506.347      -36110.054     -35793.723    
    200000   298.51673      12843.323     -36100.141     -35789.593    
Loop time of 17314.7 on 8 procs for 200000 steps with 350 atoms

Performance: 0.499 ns/day, 48.096 hours/ns, 11.551 timesteps/s, 4.043 katom-step/s
84.4% CPU use with 4 MPI tasks x 2 OpenMP threads

MPI task timing breakdown:
Section |  min time  |  avg time  |  max time  |%varavg| %total
---------------------------------------------------------------
Pair    | 10444      | 10685      | 10841      | 142.0 | 61.71
Bond    | 0.69047    | 0.72091    | 0.77667    |   3.9 |  0.00
Neigh   | 143.87     | 146.39     | 149.76     |  17.6 |  0.85
Comm    | 3835.2     | 3986.3     | 4226       | 229.8 | 23.02
Output  | 5.3082     | 6.8732     | 9.1909     |  62.7 |  0.04
Modify  | 2454.5     | 2459.6     | 2464.2     |   8.3 | 14.20
Other   |            | 29.4       |            |       |  0.17

Nlocal:           87.5 ave          96 max          78 min
Histogram: 1 1 0 0 0 0 0 0 0 2
Nghost:        3821.25 ave        3868 max        3795 min
Histogram: 1 1 1 0 0 0 0 0 0 1
Neighs:          55341 ave       60267 max       49723 min
Histogram: 1 1 0 0 0 0 0 0 0 2

Total # of neighbors = 221364
Ave neighs/atom = 632.46857
Ave special neighs/atom = 0
Neighbor list builds = 3058
Dangerous builds = 0
System init for write_data ...
WARNING: Compute rdf cutoff less than neighbor cutoff - forcing a needless neighbor list build (src/compute_rdf.cpp:179)
Total wall time: 4:48:42
