ITEM: TIMESTEP
0
ITEM: NUMBER OF ATOMS
310
ITEM: BOX BOUNDS xy xz yz pp pp pp
-9.0288000000000004e+00 1.5411400000000000e+01 -7.2027000000000001e+00
0.0000000000000000e+00 1.3079499999999999e+01 -1.8261000000000001e+00
0.0000000000000000e+00 1.7503399999999999e+01 3.3839999999999998e-01
ITEM: ATOMS id type q x y z
4 4 1.46686 4.81013 4.22831 1.53647
3 4 1.10678 3.51928 1.70571 2.52847
280 2 0.17812 0.805078 0.897903 6.6672
71 4 0.789865 -1.09636 2.04579 3.84759
23 2 0.153463 4.38652 1.19941 4.90235
24 2 0.129341 5.85628 1.04006 3.76899
25 2 0.157725 1.05038 0.756932 2.69364
26 2 0.147601 1.49902 2.7126 3.11682
27 2 0.133697 2.21867 1.32611 4.40007
41 1 -0.666602 4.73366 0.747364 3.93008
42 1 -0.638869 1.75485 1.56281 3.32078
48 3 -0.789714 3.2523 0.798606 1.26298
49 3 -0.807224 3.7937 3.33452 2.40547
51 3 -0.82115 3.98156 5.78204 0.781941
152 4 1.41461 -2.21025 6.27117 6.23071
72 2 -0.00528475 0.468838 2.00961 4.70973
73 2 0.00616653 -1.39973 3.51629 0.722142
74 2 0.124311 -0.570823 4.10445 3.23332
310 3 -0.840372 6.97383 0.971688 0.750178
76 1 -0.628763 -1.29344 3.28356 2.63854
275 2 0.00689504 -0.487634 2.22211 1.42122
110 2 -0.00816454 1.74832 5.24428 7.60082
50 3 -0.825103 5.38137 3.29178 0.381547
150 4 0.830269 -0.677467 4.10411 7.97612
159 2 -0.00876072 0.8211 4.93047 5.70352
163 2 0.149725 1.5034 3.47257 6.24261
164 2 0.0603916 -0.572651 2.54287 7.08332
165 2 0.233699 1.25565 2.93343 8.03735
175 1 -0.657329 0.966532 3.68108 7.2116
179 3 -0.787676 -3.16577 5.46376 5.04835
180 3 -0.825639 -1.42992 5.20459 7.17727
195 2 0.0400891 -2.25792 5.80817 0.317951
196 2 0.176881 -0.893432 5.14451 1.83982
198 1 -0.643672 -0.766791 6.22961 1.32501
77 4 1.04954 2.06383 0.220252 8.66774
197 2 0.161952 0.262125 6.28868 0.796219
94 4 0.644621 0.320079 1.86056 12.0007
95 4 1.28219 2.76754 2.47599 10.479
98 4 1.08724 2.13318 6.63287 16.8489
219 2 0.163708 3.41464 2.20045 15.5242
103 2 0.0562581 0.184037 0.369579 11.1321
104 2 -0.0221591 -0.770736 2.85803 11.0766
105 2 -0.0456706 -0.456154 1.66482 13.4502
108 2 0.104307 0.572481 5.41099 15.8541
111 2 0.0718916 2.56781 3.4709 13.0946
290 1 -0.658284 0.591627 0.727716 15.951
43 1 -0.688167 -1.10239 0.406623 9.60378
132 3 -0.832716 1.74381 1.64435 9.1647
133 3 -0.793822 1.78807 2.31157 12.1248
134 3 -0.828769 4.11174 1.62908 10.9302
168 2 0.153253 -0.508591 5.57333 9.69691
136 3 -0.78244 3.11745 3.85896 9.72713
143 2 -0.0198035 -2.33177 6.44384 16.8889
147 2 0.111807 -1.98898 6.44221 13.3346
144 2 -0.063364 -2.5444 4.55044 15.1319
301 2 0.172977 -0.404045 1.27905 9.39165
156 2 0.049525 -1.75345 3.51854 9.39878
220 1 -0.647456 4.44241 1.75556 15.6899
289 2 0.138576 -0.361135 1.02645 16.656
149 3 -0.770477 -4.61578 6.23091 15.3289
288 2 0.139361 0.832492 1.51683 15.1512
142 4 0.706888 -3.09614 6.12808 15.353
167 2 0.147861 -0.779531 4.72376 11.1545
176 1 -0.680126 -0.473213 4.57713 10.1206
217 2 0.15537 4.61207 0.743432 15.4713
166 2 0.149527 0.590957 4.16643 10.0702
16 2 0.0132835 3.11072 0.647136 16.5534
99 4 0.701286 3.14095 5.22974 8.8473
276 2 0.0525551 3.96131 0.686479 12.9353
162 2 -0.0115415 -3.82946 5.50144 10.1794
100 4 1.15145 3.88079 4.53285 13.0469
109 2 0.0101782 2.69614 6.5353 9.88746
208 4 0.944047 -3.99883 9.40995 0.190469
171 2 0.15334 -4.35021 10.4692 6.94142
230 2 0.155654 -0.0712534 10.7716 3.76173
153 4 0.943019 -3.98382 8.357 7.98575
154 4 0.937584 0.456448 6.5941 5.28607
155 4 0.995949 2.0192 7.76271 2.70729
22 2 0.167307 -2.71047 12.3801 3.96547
160 2 -0.059174 1.33257 7.18599 6.5727
279 2 0.195479 -6.20862 11.8078 6.96392
177 1 -0.664013 -3.50096 10.0895 7.5994
169 2 0.186706 -2.50293 10.0984 7.14505
182 3 -0.804319 -3.12911 7.39749 7.1804
183 3 -0.77587 -0.947914 7.13484 5.39263
184 3 -0.794056 1.28633 7.00483 3.93414
185 3 -0.822954 1.05514 8.55122 1.61579
193 4 1.02779 -2.52158 7.1367 1.41119
194 2 0.170141 -0.658636 7.25774 2.38007
232 1 -0.655506 0.0195866 11.635 4.52042
234 4 1.07055 0.403802 9.57872 0.694654
199 3 -0.771031 -3.41489 6.65552 2.64599
200 3 -0.815409 -2.70724 8.64958 0.705544
202 2 0.159371 -4.71347 11.8315 3.2239
203 2 0.187104 -4.66634 10.0321 3.96161
204 2 0.179198 -5.08044 11.5711 5.13152
161 2 0.0833973 3.05884 6.72681 1.82282
206 1 -0.669899 -5.02908 11.1342 4.08111
211 4 0.963865 -0.253121 12.4112 1.64859
212 2 0.000821692 -1.74469 12.3312 2.48038
205 2 0.152841 -6.12668 12.2116 1.5782
214 3 -0.852704 0.122795 11.0634 1.0832
228 2 0.164006 -0.773742 12.3875 4.28737
229 2 0.0556344 -0.777942 10.5561 5.6516
83 2 0.144452 -5.01888 12.7879 5.77597
87 1 -0.669532 -5.65242 12.8045 6.78415
80 2 0.0121773 -3.79985 12.8141 7.63757
151 4 0.907693 -4.36991 6.93119 10.9135
78 4 1.2239 -5.65442 10.8273 10.8789
79 4 0.758541 -4.1373 12.0798 13.4124
287 2 0.142466 -6.87998 12.4691 15.3448
235 2 0.134706 0.0671496 10.5307 16.6461
82 2 0.084942 -4.90477 9.30464 10.5448
84 2 0.160003 -2.54337 10.3975 13.1922
85 2 0.139106 -3.79735 10.2615 14.7275
86 2 0.134669 -2.21771 11.3019 14.9862
88 1 -0.674545 -2.91645 10.877 14.2161
89 3 -0.854548 -5.43582 11.6535 9.56834
90 3 -0.782562 -4.86843 11.5508 12.1615
119 2 0.160507 -0.06655 8.39694 13.4677
277 2 -0.0150999 -1.1607 11.7509 13.8555
210 2 -0.0164177 -6.4322 9.00922 16.2941
146 2 0.187894 -3.10701 8.01591 13.6014
148 1 -0.647201 -2.41687 7.34172 14.0417
145 2 0.148768 -1.60287 7.79519 14.7428
118 2 0.130516 0.620765 7.83033 11.5894
1 4 0.966997 -5.54204 12.9109 17.3688
236 2 0.164027 -0.320783 8.65572 16.0652
239 1 -0.662321 -0.815133 9.66056 16.4033
129 1 -0.618593 0.672985 7.67927 12.8501
283 2 0.146862 -5.66702 8.72109 14.8454
231 1 -0.663426 -0.45129 12.222 9.79455
181 3 -0.777876 -3.98168 8.08226 9.97419
238 2 0.0496308 -2.51633 9.06018 17.1239
237 2 0.163756 -1.54688 10.0833 15.5512
126 2 0.135158 -0.417996 6.94083 16.535
225 2 0.17101 -0.597827 11.2103 9.33213
125 2 0.0378819 1.29561 8.21916 16.7568
81 2 -0.0151866 -5.31804 12.7433 14.524
124 2 0.169138 0.534101 7.05816 14.775
226 2 0.180396 -1.38359 12.7688 9.85447
157 2 -0.00536892 -3.45085 6.92486 12.3099
309 3 -0.815745 -5.65296 11.2705 17.4405
131 1 -0.689214 0.47328 6.69258 15.9008
120 2 0.160299 0.50501 6.63164 13.1254
170 2 0.159532 -3.51159 10.479 8.77728
2 4 1.5724 11.1836 5.73673 3.92465
9 4 1.32174 6.40427 6.16982 3.46412
5 4 0.906726 10.9316 0.695804 1.72105
61 3 -0.848276 7.51329 6.0199 4.61801
7 4 1.24182 12.0825 1.71663 6.06134
8 4 1.31823 9.68558 3.35511 2.62381
62 3 -0.845717 9.2226 5.01092 6.44248
35 2 0.170381 11.1074 5.40143 8.50432
11 4 1.0893 10.0354 3.84194 7.10241
19 2 -0.00852992 8.8789 2.96194 8.05458
294 2 0.163703 7.34032 2.60886 7.08509
18 2 -0.0216868 11.252 0.276403 5.59755
128 1 -0.644065 4.88267 5.45514 8.2522
29 2 0.148508 8.00827 2.02151 3.6927
30 2 0.270989 7.20336 3.74711 3.20039
31 2 0.205646 8.45889 3.56752 4.66744
216 2 0.1215 8.11454 3.22622 0.199588
116 2 0.101157 4.52799 5.96032 7.19466
44 1 -0.691556 8.13509 3.15224 3.66818
286 2 0.129865 14.8247 0.287151 1.18413
291 2 0.159882 5.87059 2.34104 7.98454
52 3 -0.74098 12.2746 1.20415 0.87775
53 3 -0.797301 13.1489 2.05619 4.84914
54 3 -0.808579 12.8251 1.46172 7.49404
55 3 -0.835603 10.1989 1.91512 2.32369
56 3 -0.855315 10.6264 4.42745 3.27078
57 3 -0.836934 5.98507 4.67233 2.4814
58 3 -0.768931 9.15585 4.13875 0.857895
59 3 -0.800764 11.0595 2.84035 6.31608
75 2 0.230806 12.9664 3.46109 2.74616
293 1 -0.649248 7.01133 2.37885 8.09789
91 4 0.585961 13.5597 1.89702 0.170414
274 2 0.0285598 14.5175 0.447767 2.99048
12 4 1.47045 8.7534 6.34452 5.5711
221 4 0.897621 7.98111 0.511822 8.62498
10 4 1.49044 8.90878 5.62025 0.0577545
45 1 -0.636202 4.82114 6.29106 4.57906
117 2 0.185441 5.51588 4.50419 8.1816
32 2 0.157005 5.25753 6.45534 5.66812
33 2 0.178382 4.35087 5.27893 4.43084
28 2 0.174544 13.5406 0.741638 10.4371
36 2 0.170725 11.4408 3.66963 9.26899
37 2 0.131247 9.56339 4.46797 9.46427
297 2 0.122705 9.27802 0.645127 10.4957
138 3 -0.79517 3.28583 5.90914 12.6388
92 2 -0.0264776 12.75 1.3129 16.5984
93 2 -0.0299872 11.288 3.44309 16.5533
46 1 -0.678027 10.7256 4.35296 8.77843
295 2 0.137772 9.94614 1.70965 8.94277
102 4 1.26971 4.77398 5.93901 15.3167
218 2 0.160703 5.38213 2.55514 15.3058
107 2 -0.00648174 6.40419 2.36941 9.99769
249 2 0.052861 7.90094 5.53193 9.13643
114 2 0.0611405 7.25958 2.73366 14.8484
127 1 -0.604353 7.64983 1.10402 15.0972
137 3 -0.797869 5.22869 3.80897 11.9914
299 2 0.111682 8.7777 0.73891 15.0653
139 3 -0.840069 4.49092 4.54318 14.5493
140 3 -0.856953 5.92339 5.9247 16.3684
186 4 1.2397 9.1482 6.51514 15.4587
187 4 0.645892 8.09022 3.91889 13.6717
188 2 -0.00909154 8.76721 2.36852 14.1324
189 2 -0.0116632 8.62172 3.74065 12.0095
190 2 0.0961547 6.44312 4.03096 13.076
191 3 -0.818058 8.55883 6.51785 16.9808
192 3 -0.753644 8.60177 5.17349 14.5167
135 3 -0.782586 6.41335 1.40736 12.5578
252 2 0.157879 6.55231 5.76359 12.5833
298 1 -0.659944 9.68074 0.648535 9.42997
251 2 0.122943 8.65196 3.60231 10.275
242 2 0.126484 11.469 2.0355 12.3756
243 2 0.177415 11.8195 1.03022 10.8483
292 2 0.15042 7.4032 3.1658 8.91993
245 1 -0.671061 12.2286 1.3936 11.8242
97 4 1.12595 5.47766 2.29585 11.4056
244 2 0.125936 13.0349 1.26179 14.5924
255 1 -0.653633 7.86291 4.48322 10.3996
250 2 0.173459 6.8024 4.10139 10.4891
247 4 0.777487 8.09228 6.33676 10.9869
96 4 0.67689 7.12694 0.330797 13.5474
300 2 0.142725 6.95224 0.496912 15.8337
141 3 -0.835338 3.43872 6.60993 15.9506
215 4 1.04717 4.80012 2.61678 17.4398
115 2 0.116829 5.21897 6.22622 9.12549
241 2 0.12877 13.185 1.87085 11.6792
13 4 1.4373 7.61577 8.11906 1.672
14 4 0.962728 6.90727 8.29745 7.11294
15 4 1.28416 6.52872 10.8001 5.68584
39 2 0.150533 5.39112 12.6064 4.39323
201 4 1.05844 8.67021 10.7587 3.28648
285 2 0.174557 7.69927 11.1372 1.21265
34 2 0.178548 4.23068 7.29047 4.21138
38 2 0.180358 4.83063 10.8884 3.66087
158 2 0.0857909 9.86366 8.14521 7.3537
40 2 0.131099 4.2536 11.2775 5.46334
6 4 1.21151 6.09416 12.7034 8.0402
47 1 -0.659304 4.95561 11.5364 4.58245
63 3 -0.809293 6.45587 7.61406 2.76063
64 3 -0.825532 8.37471 6.80234 1.03636
65 3 -0.771362 8.6984 9.23638 2.38405
66 3 -0.771207 6.82056 9.09165 0.407296
67 3 -0.830696 8.34183 7.71466 6.8661
68 3 -0.78494 7.55058 10.8253 4.43851
69 3 -0.841105 6.13993 9.32288 6.26766
70 3 -0.839791 6.88747 11.9027 6.89256
172 2 0.138676 2.88838 9.97983 3.10424
173 2 0.199302 4.3267 8.68661 3.11379
174 2 0.150336 3.19491 8.75349 4.65228
178 1 -0.677652 3.29464 8.92841 3.5016
20 2 -0.00568436 6.75112 8.71094 8.7284
224 2 -0.0574131 1.91446 9.91414 6.2343
209 2 0.0698556 10.0946 9.18573 1.24234
223 2 0.0285907 1.67811 12.1149 4.48619
222 4 0.678696 0.928956 11.326 6.07035
233 3 -0.746362 0.890088 12.3802 7.37651
267 2 -0.0512954 4.45936 8.92887 8.42587
60 3 -0.800892 9.97623 6.68551 4.62834
21 2 -0.0251194 5.87222 7.01648 7.52783
263 2 0.155896 3.60623 9.35452 0.168359
278 2 -0.0286693 4.23959 12.2819 2.78116
207 1 -0.655823 8.15286 12.1326 1.71388
17 2 -0.0243379 2.72743 12.5642 0.735795
270 3 -0.79635 4.64831 11.6655 8.69476
213 2 -0.00803788 0.702098 12.7075 3.01423
296 2 0.26437 3.31827 12.6067 9.11884
122 2 0.11016 3.05449 8.30681 9.49091
113 2 -0.00780747 5.487 7.00707 14.0906
271 3 -0.859629 8.28225 10.5894 11.2985
123 2 0.0255683 4.06599 8.7549 11.627
130 1 -0.637298 2.74623 8.33309 10.58
265 4 0.904066 4.7201 10.2043 9.44712
246 1 -0.646501 5.46561 12.9471 14.937
308 1 -0.642833 3.23924 11.6512 13.095
248 2 0.0143677 6.86757 7.60108 10.7011
106 2 -0.0142709 1.39829 12.3092 13.03
254 2 0.165143 7.41686 7.35839 13.2946
256 1 -0.659864 6.62722 6.9325 12.4972
258 4 0.7102 4.23262 10.2519 16.7971
259 2 -0.0294569 5.07379 11.1169 15.4955
260 2 0.0966569 2.59105 9.26573 15.8018
261 2 0.123586 1.81977 10.988 16.2233
264 1 -0.652202 2.40114 10.1258 16.7768
303 2 0.149465 6.30915 12.2886 15.3548
112 2 0.00404058 2.10993 8.55846 13.7166
284 1 -0.703171 8.85459 8.14564 14.487
266 4 1.21674 6.81671 10.2759 11.5781
268 2 0.00198591 3.32594 10.2015 10.5236
269 2 -0.00306231 6.90353 8.8349 12.6489
304 2 0.113714 4.50104 12.9158 15.5999
272 3 -0.853821 5.97782 9.82524 10.2812
273 3 -0.795795 6.13382 11.493 12.4743
281 2 0.135476 7.90905 8.65853 14.6944
282 2 0.194503 9.01425 7.9045 13.3682
240 4 0.881904 5.04671 12.4385 13.029
253 2 0.141499 5.62739 7.43333 12.4715
257 3 -0.815693 9.50124 6.87905 11.2978
305 2 0.112619 2.94711 12.2649 14.0874
306 2 0.132691 3.1857 10.5223 13.1579
101 4 0.717915 2.70323 7.56656 12.3286
227 2 0.143292 0.149821 12.2706 10.7313
302 2 0.223152 7.58986 12.1456 9.85354
121 2 0.130218 1.84116 9.02586 10.7376
307 2 0.124169 2.96525 12.2057 12.0662
262 2 0.0075386 3.44893 11.6887 17.4071
ITEM: TIMESTEP
100
ITEM: NUMBER OF ATOMS
310
ITEM: BOX BOUNDS xy xz yz pp pp pp
-9.0288000000000004e+00 1.5411400000000000e+01 -7.2027000000000001e+00
0.0000000000000000e+00 1.3079499999999999e+01 -1.8261000000000001e+00
0.0000000000000000e+00 1.7497565533333333e+01 3.3839999999999998e-01
ITEM: ATOMS id type q x y z
4 4 1.45357 4.93905 4.16211 1.47685
3 4 1.10554 3.41903 1.68139 2.52497
280 2 0.150768 1.50581 1.24543 6.41982
71 4 0.762635 -1.03529 2.12333 3.96018
23 2 0.152064 4.42126 1.40002 4.76263
24 2 0.145252 5.85257 1.13388 3.61077
25 2 0.160655 0.942225 0.91426 2.68665
26 2 0.173066 1.33808 2.76569 2.91912
27 2 0.128939 2.00066 1.48022 4.33046
41 1 -0.667249 4.81043 0.816268 3.88228
42 1 -0.672163 1.63445 1.71599 3.20081
48 3 -0.786793 3.40162 0.776591 1.17839
49 3 -0.779766 3.80827 3.24028 2.2862
51 3 -0.788053 4.00801 5.65947 0.805582
152 4 1.40528 -2.13193 6.31066 6.23948
72 2 -0.0165466 0.555241 2.48342 4.63362
73 2 0.0182621 -1.38129 3.46789 0.787361
74 2 0.135834 -0.32687 4.05678 3.06719
310 3 -0.847849 6.89148 1.11326 0.880715
76 1 -0.640876 -1.01645 3.24577 2.59659
275 2 0.0117073 -0.407567 2.1201 1.21545
110 2 -0.00834201 1.79993 5.2836 7.75581
50 3 -0.817454 5.44884 3.33697 0.210655
150 4 0.783882 -0.730476 3.95354 7.97624
159 2 -0.00197634 0.689761 4.91294 5.76428
163 2 0.132824 1.03234 3.28635 6.16543
164 2 0.0329506 -0.386656 2.48378 6.9962
165 2 0.201609 1.55772 3.01183 7.9535
175 1 -0.649089 1.02325 3.67449 7.22959
179 3 -0.807563 -2.92367 5.54308 5.07887
180 3 -0.801806 -1.53763 5.14593 7.26021
195 2 0.0557347 -2.1975 6.09605 0.240664
196 2 0.18777 -0.850628 5.13692 1.79907
198 1 -0.658519 -0.736687 6.12515 1.2258
197 2 0.164748 0.210299 6.20167 0.674367
33 2 0.182116 4.17998 5.43475 4.29965
75 2 0.194368 -2.15301 3.60949 2.72247
87 1 -0.683641 1.71432 0.16769 6.70842
94 4 0.628198 0.247135 1.94646 12.1378
95 4 1.33532 2.75747 2.36367 10.5929
98 4 1.0829 2.14163 6.55171 16.8
219 2 0.187333 3.26454 2.50545 15.6287
103 2 0.0275724 -0.150932 0.526979 11.3513
104 2 -0.0218602 -0.664693 3.08196 11.2907
105 2 -0.0457553 -0.474314 1.72459 13.6075
108 2 0.0963046 0.504317 5.32427 15.8462
111 2 0.0789493 2.72459 3.4535 12.9966
290 1 -0.66583 0.715317 0.816081 15.8079
226 2 0.166106 5.98831 0.451647 9.71324
132 3 -0.840834 1.97701 1.47911 9.49187
133 3 -0.788576 1.76252 2.30689 12.2637
134 3 -0.819882 4.23887 1.64159 11.0357
168 2 0.150888 -0.545211 5.69544 9.65566
136 3 -0.804057 2.89424 3.85172 9.94331
143 2 -0.0155208 -2.24065 6.32184 16.823
241 2 0.101114 -2.16213 1.87257 11.9632
144 2 -0.059416 -2.72204 4.71649 14.5598
301 2 0.153599 -0.472644 1.20951 9.21841
156 2 0.0336726 -1.48946 3.41974 9.55712
220 1 -0.634517 4.20109 1.88551 15.7053
289 2 0.131253 -0.070662 1.45019 16.524
149 3 -0.786434 -4.62465 6.42706 15.4031
288 2 0.134111 1.5007 1.61042 15.4712
142 4 0.682776 -3.06211 6.24672 15.234
167 2 0.133656 -0.587346 4.77525 11.347
176 1 -0.642414 -0.378155 4.67999 10.2082
217 2 0.103432 3.9709 0.766618 15.3267
166 2 0.17221 0.694938 4.34409 10.1398
16 2 0.0192865 3.25637 0.464085 16.6306
99 4 0.724745 3.07464 5.21051 9.1013
276 2 0.0635381 3.75359 0.81694 12.881
162 2 0.000379517 -3.71821 5.46643 10.2508
109 2 -0.00188831 2.15974 6.55242 9.72576
120 2 0.148661 0.342008 6.60735 13.1366
131 1 -0.678773 0.439462 6.6572 15.8653
208 4 0.997974 -4.10795 9.46883 0.253135
171 2 0.138934 -4.23218 10.5823 7.24217
230 2 0.154347 0.0845017 10.713 3.56588
153 4 0.950784 -4.01513 8.40977 7.92423
154 4 0.900515 0.634247 6.66183 5.3811
155 4 1.03093 2.07091 7.70163 2.78637
22 2 0.159146 -2.46708 12.447 4.04141
160 2 -0.0597142 1.56516 7.42312 6.53909
279 2 0.196486 -6.45989 12.2582 6.90108
177 1 -0.648344 -3.26884 10.0209 7.62716
169 2 0.182907 -2.40323 10.2105 6.87055
182 3 -0.777787 -3.18578 7.38864 7.08098
183 3 -0.746936 -0.807931 7.28748 5.45898
184 3 -0.791927 1.33426 6.96096 3.95519
185 3 -0.778921 1.32877 8.64584 1.76458
193 4 1.04383 -2.58714 7.23914 1.57069
194 2 0.138241 -0.709147 7.14649 2.08155
232 1 -0.630789 -0.080663 11.3619 4.54513
234 4 0.961987 0.552865 9.70502 0.569605
199 3 -0.82167 -3.43653 6.6652 2.69159
200 3 -0.847007 -3.02945 8.70237 0.874584
202 2 0.145403 -4.77416 11.8165 2.8683
203 2 0.201721 -4.65973 9.97426 3.73646
204 2 0.167686 -4.94008 11.5137 4.94443
161 2 0.0804531 3.07914 6.6581 1.85288
206 1 -0.637812 -5.03382 11.0443 3.81044
211 4 0.957307 -0.335578 12.5438 1.64074
212 2 0.0174667 -1.83695 12.4081 2.34456
205 2 0.159952 -6.30937 12.5541 1.44429
214 3 -0.825361 0.0402366 11.1651 0.944724
228 2 0.162179 -0.853933 12.2154 4.4356
229 2 0.100709 -0.645062 10.2539 5.53953
83 2 0.140576 -4.67804 12.3558 6.03292
77 4 1.04305 -5.10452 12.8641 8.63821
80 2 0.0212006 -3.7744 12.6196 7.42115
170 2 0.173369 -2.98347 10.3017 8.7051
151 4 0.913472 -4.39989 6.92534 10.848
78 4 1.27199 -5.5051 10.8253 10.8358
79 4 0.749534 -4.16533 12.085 13.3768
147 2 0.113194 -2.02382 6.64594 13.2908
235 2 0.132881 0.0108919 10.5864 16.3332
82 2 0.091923 -4.77161 9.29781 10.4771
84 2 0.16175 -2.15176 10.2404 13.7331
85 2 0.144274 -3.77521 10.301 14.7452
86 2 0.12102 -2.4993 11.5925 14.9919
88 1 -0.672745 -2.94798 10.8871 14.2374
89 3 -0.866098 -5.29606 11.563 9.45454
90 3 -0.805544 -4.82216 11.3854 12.0905
119 2 0.188701 -0.376875 8.218 13.1345
277 2 -0.00108265 -1.26374 11.611 13.533
271 3 -0.862936 -6.99499 10.5574 11.2146
146 2 0.169054 -3.22174 8.34065 13.4374
148 1 -0.632644 -2.52078 7.51003 13.946
145 2 0.137609 -1.80064 8.0572 14.7084
118 2 0.132001 0.477222 7.59558 11.6445
1 4 0.996242 -5.54358 12.8933 17.3242
236 2 0.164552 -0.237775 8.55458 16.1101
239 1 -0.670374 -0.805231 9.61391 16.3355
129 1 -0.645601 0.457193 7.65126 12.8288
283 2 0.150415 -5.71697 8.71938 14.9756
231 1 -0.648763 -0.318233 12.3623 9.88492
181 3 -0.778274 -3.93636 8.06265 9.89058
238 2 0.0320121 -2.59731 9.46419 17.1343
237 2 0.166685 -1.57203 9.81946 15.5432
126 2 0.127483 -0.544269 6.96685 16.3654
225 2 0.166992 -0.582106 11.2963 9.56212
125 2 0.040259 1.29516 8.07331 16.8735
81 2 -0.0188775 -5.18008 12.9587 14.4368
124 2 0.169728 0.396711 6.94621 14.734
309 3 -0.838906 -5.9174 11.3424 17.4268
157 2 0.00179194 -3.71778 7.00841 12.3893
287 2 0.167838 -7.01715 12.9899 15.0715
2 4 1.49336 11.3465 5.89318 3.96724
9 4 1.27207 6.30067 6.22552 3.57581
5 4 0.906303 11.0755 0.62798 1.71866
61 3 -0.857908 7.49153 6.00633 4.56299
7 4 1.27071 12.0395 1.76004 6.17999
8 4 1.30669 9.73477 3.29818 2.51479
62 3 -0.842879 9.26867 5.04104 6.25075
35 2 0.169643 11.148 5.50185 8.47557
11 4 1.09374 10.042 3.93376 7.18674
19 2 -0.00209984 8.79957 3.09229 8.13187
294 2 0.156759 7.41742 2.40461 7.25735
18 2 -0.00268484 11.257 0.294628 5.69062
128 1 -0.647278 4.74283 5.36179 8.28946
29 2 0.14731 8.14409 2.05269 3.73318
30 2 0.291403 7.40836 3.77457 3.28202
31 2 0.230655 8.69001 3.67195 4.68305
117 2 0.177459 5.3664 4.42439 8.47099
116 2 0.123145 4.3392 5.48413 7.1877
44 1 -0.673318 8.28111 3.1841 3.69569
286 2 0.154885 14.5552 0.298728 1.54382
291 2 0.153513 5.91817 2.10891 8.44932
52 3 -0.777341 12.342 1.1697 0.890789
53 3 -0.796438 13.1352 2.05246 5.02543
54 3 -0.827053 12.6957 1.25089 7.50254
55 3 -0.838312 10.3082 1.84372 2.3011
56 3 -0.780289 10.5983 4.37456 3.24221
57 3 -0.794544 6.07178 4.61426 2.52906
58 3 -0.770924 8.99508 4.23838 0.996009
59 3 -0.826484 10.926 2.864 6.52984
32 2 0.156826 5.17782 6.32825 5.67538
293 1 -0.661527 7.03089 2.28922 8.31276
91 4 0.60571 13.5386 1.81725 0.161581
274 2 0.0268774 14.6825 0.475375 3.27508
12 4 1.48587 8.84812 6.32557 5.37868
221 4 0.848176 7.98773 0.474317 8.62274
10 4 1.56228 8.86975 5.7019 0.056489
45 1 -0.678352 4.72911 6.32529 4.59959
216 2 0.101447 8.16748 3.27898 0.0554527
28 2 0.17877 13.4912 0.72291 10.488
36 2 0.164766 11.4239 3.8851 9.41413
37 2 0.164284 9.57078 4.6084 9.48685
297 2 0.131119 9.38328 0.840294 10.5011
138 3 -0.797733 3.30227 6.03433 12.6023
92 2 -0.0196119 12.7068 1.11146 16.6667
93 2 -0.0508509 11.2533 2.95866 16.2256
46 1 -0.691481 10.6492 4.49178 8.89887
295 2 0.168664 10.0002 1.8053 9.05582
102 4 1.27965 4.81212 6.06764 15.3576
218 2 0.170615 5.09856 2.40432 15.1441
107 2 0.00262058 6.53743 2.49179 10.1905
249 2 0.026478 7.64381 5.66212 9.09928
114 2 0.0398074 6.81651 2.88382 14.8112
127 1 -0.626474 7.26959 1.16636 15.1296
137 3 -0.861933 5.21426 3.90246 12.1268
299 2 0.115428 8.36302 0.86354 15.3923
139 3 -0.825793 4.50884 4.64751 14.5392
140 3 -0.878199 5.93437 5.85599 16.4152
186 4 1.26911 9.15689 6.43078 15.4777
187 4 0.659135 7.98449 3.96599 13.7843
188 2 -0.0185002 8.59375 2.37668 14.3177
189 2 2.63912e-06 8.48439 4.01176 12.1359
190 2 0.0770955 6.31316 4.11088 13.6136
191 3 -0.834615 8.43075 6.55494 16.9776
192 3 -0.8013 8.5508 5.14452 14.6007
135 3 -0.790505 6.29187 1.31622 12.4937
252 2 0.17602 6.36245 5.93427 12.666
298 1 -0.66471 9.73732 0.820991 9.41757
251 2 0.137769 8.40877 3.65904 10.2426
242 2 0.11241 11.4731 1.78511 12.633
243 2 0.17337 11.7769 1.1183 10.8803
292 2 0.154214 7.34434 3.21854 8.91866
245 1 -0.642731 12.2218 1.28017 11.9453
97 4 1.17584 5.50392 2.40662 11.5817
244 2 0.113558 12.9461 1.07885 14.5902
255 1 -0.647816 7.81029 4.57707 10.4321
250 2 0.16117 6.74845 4.24699 10.5513
247 4 0.766903 7.971 6.41692 10.8263
96 4 0.67181 7.0293 0.30271 13.5739
300 2 0.147201 6.45306 0.654881 15.7801
141 3 -0.847999 3.46028 6.61976 15.9882
215 4 1.06919 4.89658 2.72732 17.4221
115 2 0.076139 4.91386 6.42581 9.12109
100 4 1.17741 3.96341 4.6022 13.0177
43 1 -0.678517 14.3015 0.3603 9.62183
13 4 1.52806 7.51103 8.0824 1.51054
14 4 0.919 6.94773 8.12567 7.21995
15 4 1.27255 6.48481 10.7611 5.54341
39 2 0.147048 5.278 12.5716 4.37538
201 4 1.02925 8.63951 10.7602 3.11623
285 2 0.143815 7.71484 11.2058 1.0842
34 2 0.17828 4.18463 7.34773 4.39961
38 2 0.14634 4.9784 10.6754 3.79979
158 2 0.0813597 9.73188 8.35273 7.4305
40 2 0.130665 3.84769 11.5912 5.088
6 4 1.23316 6.02386 12.551 8.0537
47 1 -0.672034 4.90013 11.5117 4.70561
63 3 -0.78719 6.29186 7.62478 2.50308
64 3 -0.835683 8.37152 6.8354 1.04356
65 3 -0.781918 8.54737 9.09134 2.16593
66 3 -0.774569 6.79745 8.94255 0.227545
67 3 -0.769062 8.39369 7.62736 6.73567
68 3 -0.771091 7.66521 10.8324 4.40523
69 3 -0.778559 6.37384 9.17148 6.23242
70 3 -0.822441 6.73515 11.7398 6.84375
172 2 0.14288 2.42454 9.94622 3.60091
173 2 0.159878 4.03968 8.87224 3.11738
174 2 0.147053 3.2822 8.81112 4.90608
178 1 -0.651151 3.09564 8.95843 3.7977
270 3 -0.791597 4.59955 11.5756 8.71554
224 2 -0.0479585 2.46038 10.1663 6.19873
213 2 -0.0208966 0.432865 12.6968 3.1543
223 2 -0.000494224 1.64767 12.0515 4.37562
222 4 0.692372 1.15558 11.2034 5.95859
233 3 -0.714675 0.870089 12.1458 7.20583
267 2 -0.0578341 4.48384 8.91189 8.40016
60 3 -0.782732 10.1439 6.9273 4.65032
21 2 -0.0257787 5.85775 6.83644 7.52818
263 2 0.167502 3.96754 9.4734 0.18866
278 2 -0.0252534 4.23942 12.2296 2.98581
207 1 -0.673409 8.09031 12.2329 1.73393
17 2 -0.0363991 2.93486 12.4636 0.672351
209 2 0.100409 9.90361 9.25173 1.22617
20 2 -0.0107524 7.03555 8.78458 8.73061
296 2 0.262949 3.36021 12.7463 9.14896
122 2 0.114538 3.24994 8.15859 9.4659
113 2 -0.0116866 5.40419 7.28555 14.1853
307 2 0.10709 2.87844 12.5161 12.2012
123 2 0.016002 4.00562 8.71396 11.7113
130 1 -0.646877 2.81051 8.1575 10.4776
265 4 0.923163 4.80046 10.1563 9.49291
246 1 -0.658952 5.51972 12.7307 15.0119
308 1 -0.642713 3.13929 11.6141 13.0956
248 2 0.0101159 6.83922 7.78129 10.8946
106 2 -0.0181421 1.30273 12.2469 12.9932
254 2 0.161581 7.40899 7.36231 13.4215
256 1 -0.658554 6.5455 7.03137 12.629
258 4 0.688169 4.27522 10.2531 16.5706
259 2 -0.0218242 5.46555 10.8024 15.4915
260 2 0.069657 2.79189 9.25797 15.5238
261 2 0.122198 2.05262 11.2575 16.4322
264 1 -0.638078 2.46875 10.2393 16.7036
303 2 0.151937 6.47227 12.2164 15.3932
112 2 0.0270271 1.86147 8.3357 13.746
284 1 -0.677322 8.73017 8.1427 14.6927
266 4 1.21713 6.89981 10.3296 11.5258
268 2 0.00444485 3.47446 9.98311 10.612
269 2 0.0019482 6.99796 8.94029 12.6186
304 2 0.109033 4.5807 12.704 15.6531
272 3 -0.861064 6.10537 9.86675 10.2664
273 3 -0.78641 5.87868 11.3664 12.3674
281 2 0.137521 7.83099 8.69551 15.0644
282 2 0.159859 8.7034 8.01788 13.5525
240 4 0.881016 4.90159 12.3517 13.1024
253 2 0.135949 5.60817 7.68951 12.4232
257 3 -0.81006 9.46079 6.7294 11.0519
305 2 0.119359 2.6874 11.8151 14.1307
306 2 0.14686 2.86982 10.6213 12.6904
101 4 0.729926 2.63671 7.53271 12.2577
227 2 0.170339 0.0416857 12.3705 10.9025
121 2 0.128662 1.86328 8.78349 10.4747
302 2 0.214526 7.63727 12.1221 9.78741
262 2 -0.000850213 3.51547 11.7339 17.2492
210 2 0.00162875 8.7429 8.96106 16.4941
ITEM: TIMESTEP
200
ITEM: NUMBER OF ATOMS
310
ITEM: BOX BOUNDS xy xz yz pp pp pp
-9.0288000000000004e+00 1.5411400000000000e+01 -7.2027000000000001e+00
0.0000000000000000e+00 1.3079499999999999e+01 -1.8261000000000001e+00
0.0000000000000000e+00 1.7491731066666667e+01 3.3839999999999998e-01
ITEM: ATOMS id type q x y z
4 4 1.47865 4.8936 4.17999 1.5079
3 4 1.04841 3.49224 1.6314 2.52889
280 2 0.131704 2.79934 1.20911 6.58958
71 4 0.785779 -1.11191 2.1448 3.98666
23 2 0.149657 4.39455 1.16552 4.82444
24 2 0.125215 5.81995 0.92995 3.48787
25 2 0.162067 0.953133 0.827536 2.70844
26 2 0.153331 1.53949 2.69025 3.27551
27 2 0.147295 2.12515 1.15856 4.30141
41 1 -0.658003 4.71405 0.6632 3.83596
42 1 -0.662994 1.72308 1.54687 3.25351
48 3 -0.760855 3.46283 0.689849 1.05205
49 3 -0.776709 3.87968 3.30524 2.36392
51 3 -0.794734 3.89624 5.64485 0.87673
152 4 1.45955 -2.02016 6.39783 6.15825
72 2 -0.010779 0.48746 2.12843 4.68573
73 2 0.0245508 -1.48878 3.48437 0.792854
74 2 0.13568 -0.447526 4.11465 3.14316
310 3 -0.833555 6.70652 1.01143 0.646226
76 1 -0.626955 -1.22722 3.33493 2.6549
275 2 0.0109472 -0.365915 2.2319 1.39643
110 2 0.00290592 2.07303 4.97382 7.51377
50 3 -0.823262 5.60767 3.30902 0.385535
150 4 0.794823 -0.706267 4.04988 8.15579
159 2 0.00237598 1.08966 5.19179 6.11115
163 2 0.153341 0.921957 3.41605 6.15866
164 2 0.0412963 -0.610843 2.42815 7.37733
165 2 0.196219 1.23461 2.77943 7.84908
175 1 -0.632626 0.880061 3.60163 7.23398
179 3 -0.815039 -2.92554 5.75141 5.02345
180 3 -0.765301 -1.2937 5.15078 7.21228
195 2 0.0797046 -2.06248 6.1353 0.0838702
196 2 0.19795 -1.01734 5.21727 1.81582
198 1 -0.631778 -0.835496 6.18914 1.19308
197 2 0.151389 0.198507 6.14349 0.647673
33 2 0.163879 4.13847 5.41529 4.70856
205 2 0.143955 0.494663 0.291562 1.33624
87 1 -0.662318 2.14547 0.227736 6.76509
279 2 0.168078 1.01294 0.481824 6.80894
80 2 0.0096329 3.80424 0.29824 7.74721
94 4 0.625862 0.247541 1.98963 12.1264
95 4 1.27167 2.70274 2.29521 10.6885
98 4 1.05337 2.19678 6.62158 16.9041
219 2 0.156567 3.17348 2.0964 15.5352
103 2 0.0282013 0.115433 0.686966 11.0748
104 2 -0.0219235 -0.712216 3.14273 11.2488
105 2 -0.0491129 -0.663751 1.65656 13.5331
108 2 0.106795 0.925744 5.26116 15.7923
111 2 0.0895354 2.75543 3.40807 13.2817
290 1 -0.660996 0.709776 0.833018 15.7879
109 2 0.00304846 1.99325 6.53567 9.77774
132 3 -0.826959 1.91543 1.41795 9.48322
133 3 -0.793912 1.6701 2.48939 12.376
134 3 -0.845928 4.13143 1.55084 11.1446
168 2 0.158793 -0.498534 5.84766 9.76036
136 3 -0.761889 2.86782 3.76934 9.84741
143 2 -0.0220097 -2.27043 6.44362 16.7358
131 1 -0.65078 0.525225 6.58772 15.9286
144 2 -0.0647274 -2.34852 5.03172 14.4976
301 2 0.155822 -0.435877 1.06231 9.05189
156 2 0.0388689 -1.87025 3.86297 9.71467
220 1 -0.672497 4.2703 1.93056 15.625
289 2 0.136441 -0.134468 1.32892 16.5225
149 3 -0.781027 -4.61741 6.44482 15.2287
288 2 0.139919 1.41009 1.53798 15.3145
142 4 0.673875 -2.99408 6.41416 15.1143
167 2 0.149886 -0.620927 5.0057 11.3424
176 1 -0.664808 -0.51903 4.83511 10.2516
217 2 0.153155 4.6593 0.942654 15.5424
166 2 0.151838 0.463522 4.31019 10.089
16 2 0.0130867 3.35245 0.400253 16.4564
99 4 0.729181 2.99556 5.19419 9.10998
276 2 0.0606507 3.8196 0.805964 13.0118
120 2 0.151494 0.339132 6.45036 12.887
208 4 0.953579 -4.24732 9.47799 0.25791
171 2 0.168881 -4.11078 10.5205 7.22744
230 2 0.180974 -0.0295718 10.5058 3.82017
153 4 0.964073 -3.88467 8.31909 8.00738
154 4 0.902114 0.776299 6.77658 5.44175
155 4 0.987918 2.0826 7.86722 2.8401
22 2 0.156941 -2.65781 12.2712 3.88966
160 2 -0.0709194 1.83014 7.51986 6.49052
83 2 0.160212 -4.78695 12.0377 6.0938
177 1 -0.652886 -3.20865 9.98421 7.64035
169 2 0.18236 -2.25284 10.0965 7.03135
182 3 -0.786307 -2.98965 7.30833 7.21593
183 3 -0.783288 -0.785982 7.28546 5.69075
184 3 -0.786201 1.26597 6.9099 3.9682
185 3 -0.797153 1.36991 8.81195 1.78737
193 4 1.02664 -2.46554 7.36504 1.61886
194 2 0.09175 -0.715343 7.53146 2.15793
232 1 -0.646315 -0.026522 11.4009 4.44502
234 4 1.00139 0.571655 9.69299 0.619152
199 3 -0.831076 -3.33035 6.62892 2.67784
200 3 -0.806832 -3.03665 8.79676 0.870353
202 2 0.178896 -4.65375 11.7412 2.75278
203 2 0.185979 -4.78832 10.0608 3.66793
204 2 0.167465 -4.84598 11.8125 4.71009
161 2 0.0893489 2.94586 6.70621 1.89664
206 1 -0.658979 -5.06101 11.2036 3.68213
211 4 0.964307 -0.375799 12.4423 1.58261
212 2 0.0212891 -1.88779 12.2322 2.33808
77 4 1.02161 -4.93879 12.7924 8.6795
214 3 -0.847241 0.0858817 11.0995 1.09643
228 2 0.159164 -0.957714 12.0897 4.26622
229 2 0.0479107 -0.430335 10.3171 5.85101
309 3 -0.799134 -3.97144 11.0314 0.0177572
151 4 0.911259 -4.4487 6.79197 10.837
78 4 1.2333 -5.44697 10.7504 10.7912
79 4 0.76617 -4.17089 12.0579 13.3274
147 2 0.121501 -2.12408 7.16692 13.1174
235 2 0.120999 0.0542446 10.503 16.3439
82 2 0.090558 -4.80003 9.19528 10.5392
84 2 0.172527 -2.60719 10.2463 13.4655
85 2 0.144 -4.07409 10.286 14.694
86 2 0.130798 -2.37487 11.0949 15.1592