ITEM: TIMESTEP
0
ITEM: NUMBER OF ATOMS
310
ITEM: BOX BOUNDS xy xz yz pp pp pp
-9.0288000000000004e+00 1.5411400000000000e+01 -7.2027000000000001e+00
0.0000000000000000e+00 1.3079499999999999e+01 -1.8261000000000001e+00
0.0000000000000000e+00 1.7503399999999999e+01 3.3839999999999998e-01
ITEM: ATOMS id type q x y z element
73 2 0.0207141 0.285172 3.5488 3.46886 H
74 2 0.0539598 0.215952 3.94622 5.21166 H
75 2 0.0870477 -1.11282 4.46645 4.13347 H
76 1 -0.0923388 -0.338613 3.7452 4.31877 C
179 3 -0.714277 -3.13507 5.39517 6.05435 O
72 2 0.0232865 -0.346578 0.98058 5.74022 H
25 2 0.00962194 0.278681 1.57965 2.4052 H
159 2 0.332226 -2.75856 4.50294 5.74312 H
196 2 0.059358 -2.65388 6.26427 1.06578 H
42 1 -0.128181 0.943638 2.16261 1.7699 C
24 2 0.000332914 1.17798 1.84637 4.63025 H
278 2 -0.00825879 -1.92384 3.23537 1.85746 H
71 4 0.243159 -1.38598 2.02667 4.77881 Si
27 2 0.0366374 0.925494 3.24326 1.94011 H
197 2 0.0433632 -1.06346 5.78601 1.9521 H
301 2 0.0659828 -1.61757 1.74926 7.74702 H
26 2 0.0539928 0.904075 1.89811 0.724715 H
180 3 -0.640096 -0.48624 6.38011 7.66984 O
3 4 0.670895 2.74968 1.62746 2.58902 Si
48 3 -0.672137 3.09133 0.0593499 2.33905 O
22 2 0.0249917 2.66257 2.89397 4.86963 H
50 3 -0.702095 6.78261 0.761693 2.17418 O
23 2 0.0239976 2.74055 1.08414 5.13582 H
99 4 0.207711 4.11998 3.41159 7.7702 Si
41 1 -0.142828 2.25356 1.90287 4.63335 C
110 2 0.00753504 2.81961 4.17837 6.92723 H
107 2 0.0098744 4.75774 0.656833 6.75462 H
4 4 1.1243 5.54895 2.66949 2.00893 Si
33 2 0.0412409 3.65024 4.34961 4.57644 H
161 2 0.0872807 1.68763 2.48249 7.59586 H
49 3 -0.725882 3.90892 2.65447 2.17236 O
80 2 0.0225485 4.77354 0.457819 7.3281 H
51 3 -0.695083 5.91582 3.05185 0.421299 O
45 1 -0.126032 4.35156 5.07619 4.97255 C
103 2 0.2582 0.36701 3.14886 11.7382 H
111 2 0.256776 -0.520968 3.04811 13.0819 H
91 4 0.231514 -3.52953 5.62765 16.7235 Si
303 2 0.0572596 -2.27038 2.24734 14.5475 H
156 2 0.0447384 -1.68712 5.06989 9.76148 H
276 2 0.00870327 -0.124406 6.44721 14.4787 H
105 2 0.296975 -0.676298 1.94564 11.8844 H
133 3 -0.743573 -0.573275 3.01936 12.0978 O
93 2 0.0198991 -1.91278 5.99452 16.2488 H
142 4 0.0973705 -4.62686 6.06653 14.8453 Si
150 4 0.327769 -0.319794 6.03043 9.23988 Si
162 2 -0.00307783 -2.87291 5.7068 11.6814 H
52 3 -0.595678 -3.68223 3.99414 16.5762 O
125 2 0.0455945 2.09833 2.58732 15.644 H
124 2 0.0344864 1.28056 4.17859 15.9303 H
95 4 0.570372 3.3356 1.56682 9.7836 Si
104 2 0.274898 0.961743 0.907877 10.0958 H
288 2 0.0558944 2.26397 1.55462 17.0414 H
165 2 0.0508549 1.43401 4.80854 10.6681 H
131 1 -0.0960345 2.16736 3.65627 15.6054 C
290 1 -0.111009 2.8217 0.638035 17.0719 C
164 2 0.0855031 1.08233 3.86039 9.19085 H
163 2 0.0587784 2.2209 5.28631 9.11062 H
135 3 -0.620386 5.96541 0.799944 13.259 O
132 3 -0.632654 1.37074 1.35264 9.2386 O
94 4 -0.0760123 2.78137 2.1496 12.1795 Si
134 3 -0.634076 4.61979 0.244998 10.8158 O
287 2 0.0568676 3.83702 0.756047 17.415 H
136 3 -0.604619 3.79964 3.0619 9.36122 O
126 2 0.0807906 2.55726 3.96838 14.6613 H
97 4 0.689126 5.56648 1.29793 11.7165 Si
108 2 0.288852 4.70679 2.05315 14.4642 H
175 1 -0.0799541 1.38141 4.80781 9.59809 C
98 4 0.524317 3.55731 4.46342 16.8542 Si
208 4 0.583286 -4.17946 9.8814 1.67913 Si
153 4 0.664584 -3.1549 8.39551 8.58609 Si
158 2 0.053605 -4.69538 8.98962 8.10149 H
182 3 -0.709475 -2.51598 8.13761 7.12811 O
199 3 -0.733212 -3.51965 7.52323 3.85836 O
200 3 -0.654565 -2.6424 9.3849 2.18601 O
280 2 0.0624119 -6.38682 11.0832 6.4168 H
203 2 0.0226585 -5.39165 10.3322 4.19851 H
1 4 0.633449 -3.43927 12.047 1.05901 Si
228 2 0.0321153 -3.95167 11.4579 5.0998 H
230 2 0.0895707 -3.78998 9.75664 5.71627 H
77 4 0.403144 -5.40134 12.2062 8.47511 Si
193 4 0.6598 -2.32212 7.94377 2.82937 Si
232 1 -0.0922408 -3.48958 10.7877 5.81377 C
87 1 -0.0762899 -6.76201 11.9023 6.98706 C
229 2 0.0395525 -3.46747 11.1388 6.84198 H
309 3 -0.645002 -4.3792 10.9012 0.445995 O
279 2 0.026449 -6.68483 12.8622 6.49062 H
212 2 0.0675936 0.650062 11.1108 2.77137 H
195 2 0.0590907 -1.07468 7.23189 0.841011 H
160 2 0.298466 0.491094 6.69372 5.66805 H
185 3 -0.649165 0.988885 8.37987 1.0287 O
155 4 0.588141 1.45636 8.78557 2.52975 Si
222 4 0.30149 -1.49387 10.6888 5.27454 Si
154 4 0.451513 -0.778923 8.57301 4.54159 Si
194 2 0.0775017 -1.14537 11.3094 1.50943 H
233 3 -0.55823 -0.515223 10.812 6.56082 O
174 2 0.0495683 2.26246 7.05244 4.11279 H
198 1 -0.109546 -1.64466 6.48779 1.36192 C
152 4 0.998176 -1.72856 6.8233 6.68821 Si
173 2 0.0457828 3.17823 6.92312 2.51539 H
184 3 -0.643617 0.319491 9.28981 3.53906 O
183 3 -0.652472 -0.351645 6.69054 5.13775 O
178 1 -0.112697 2.85557 7.52773 3.35287 C
223 2 0.0412368 -1.34768 11.9616 4.06815 H
81 2 0.0719462 -0.761118 11.5388 1.03038 H
78 4 0.951138 -6.07569 10.8648 10.7723 Si
79 4 0.461254 -4.0633 12.4748 12.1832 Si
89 3 -0.68545 -5.19326 10.9 9.40261 O
90 3 -0.681062 -5.60968 12.0342 11.8232 O
151 4 0.56332 -3.82822 6.93608 10.9819 Si
157 2 -0.0366187 -3.47671 8.37385 11.8245 H
181 3 -0.68627 -3.37847 7.04866 9.42812 O
88 1 -0.121198 -3.41533 11.2561 13.6786 C
236 2 0.0300358 -2.93474 10.965 16.3964 H
86 2 0.045441 -2.91903 11.9363 14.3273 H
144 2 0.0665895 -4.79547 8.82972 16.2619 H
281 2 0.0634153 -7.01149 11.0634 14.9337 H
85 2 0.0325874 -4.34513 10.8566 14.0516 H
216 2 0.0932963 -4.92226 8.8178 15.3865 H
143 2 0.00170716 -3.19001 6.71829 14.1132 H
289 2 0.0316078 -4.49944 12.7585 16.2126 H
237 2 0.069009 -3.37005 9.50969 17.4653 H
82 2 0.256534 -5.66521 7.83931 13.4092 H
168 2 0.0252058 1.12214 7.57514 10.651 H
176 1 -0.119359 0.0635862 7.6425 10.4843 C
234 4 0.56781 -0.849137 9.7662 17.2739 Si
166 2 0.00965041 -0.558978 7.47668 11.3542 H
84 2 0.0199913 -2.78064 10.502 13.2242 H
167 2 0.0441412 -0.221435 8.5066 9.90214 H
170 2 0.0946537 -2.75638 10.7691 9.50105 H
169 2 0.0139528 -2.00307 9.54044 10.5953 H
239 1 -0.123663 -2.80348 9.91004 16.6368 C
177 1 -0.105963 -2.1125 9.9055 9.58619 C
235 2 -0.00876296 0.297596 9.02804 16.2327 H
269 2 0.00862861 0.195398 6.66571 13.6849 H
238 2 -0.00143211 -2.73919 9.28821 15.7649 H
277 2 0.00967737 -0.321223 11.3679 14.7575 H
171 2 0.0732051 -1.19574 9.9951 9.02102 H
9 4 1.11114 6.26038 4.96688 3.86948 Si
12 4 1.48293 8.38561 6.05773 5.79447 Si
92 2 0.251556 4.86003 6.14029 1.23796 H
30 2 0.0707137 8.24313 3.59264 1.52292 H
31 2 0.0939127 8.83393 3.32808 3.28747 H
44 1 -0.107331 8.99843 3.14957 2.23618 C
57 3 -0.777989 6.27548 3.47644 3.22737 O
61 3 -0.840749 7.26221 5.12 5.11732 O
62 3 -0.761485 8.89053 5.18305 7.10429 O
115 2 0.0833508 6.61495 4.16824 7.45909 H
293 1 -0.100341 8.08518 0.442781 5.26087 C
215 4 0.593229 8.18755 1.20153 1.38026 Si
294 2 0.0735802 8.79118 1.1327 5.67941 H
292 2 0.034634 7.07625 0.869742 5.25562 H
128 1 -0.0913806 6.18191 3.17479 7.37602 C
63 3 -0.83271 6.33883 6.07684 2.65173 O
19 2 -0.00318553 8.85302 2.75621 8.072 H
32 2 0.0225154 4.66184 4.93091 5.988 H
16 2 0.258035 7.00626 0.842071 3.17273 H
116 2 0.056464 6.24517 2.76745 6.36877 H
227 2 0.0375451 7.37315 0.589441 8.58396 H
117 2 0.039485 6.4018 2.4592 8.15761 H
141 3 -0.640838 5.16656 6.09959 0.0250316 O
34 2 0.047092 3.98588 6.05151 4.86106 H
59 3 -0.678137 10.1358 3.07786 5.80386 O
46 1 -0.100343 11.4615 4.06015 8.41844 C
56 3 -0.781348 11.3519 5.07808 3.25554 O
58 3 -0.762341 9.87623 6.11565 1.30971 O
7 4 0.946972 11.1482 1.81633 5.62965 Si
29 2 0.0454233 9.9126 2.52325 2.0658 H
53 3 -0.660899 12.6819 2.35349 5.65387 O
11 4 0.685177 9.8284 3.85202 7.21489 Si
5 4 0.607157 12.6579 3.25081 0.364054 Si
8 4 1.05032 10.4574 4.72871 1.89815 Si
310 3 -0.637208 9.39383 0.228829 1.85934 O
36 2 0.0704344 12.195 3.45251 7.91759 H
17 2 0.00878756 12.0679 1.62824 0.367717 H
55 3 -0.729166 11.2293 3.93791 0.700233 O
18 2 -0.0013564 10.6595 1.11745 4.04409 H
2 4 1.3073 11.266 6.14601 4.46648 Si
54 3 -0.761076 10.8979 0.687117 6.80329 O
60 3 -0.818433 9.7037 6.448 4.82689 O
274 2 0.00289492 13.6503 1.15682 3.30299 H
248 2 0.0962535 9.92513 6.37807 8.66836 H
35 2 0.116778 11.6486 5.12417 8.34372 H
43 1 -0.099051 13.5042 1.13676 8.60086 C
102 4 0.416997 5.60312 4.90066 15.5519 Si
100 4 0.711464 4.52678 3.81412 12.9655 Si
137 3 -0.650888 5.84898 3.36271 11.4428 O
140 3 -0.735576 6.48243 5.69683 16.6858 O
190 2 0.0729394 7.93882 4.42028 15.7253 H
187 4 0.260945 6.31156 6.2362 13.8625 Si
220 1 -0.0860801 6.404 1.64122 16.8803 C
217 2 0.0623814 5.71711 0.846514 16.5859 H
109 2 0.289589 5.08563 3.63059 10.7572 H
250 2 0.053633 7.83064 3.85891 9.53309 H
299 2 0.0513281 8.15109 2.06755 14.6387 H
189 2 0.0402695 6.14599 5.46165 9.54938 H
219 2 0.0801248 6.05636 2.6308 16.6776 H
139 3 -0.689153 4.79988 3.11667 14.4875 O
138 3 -0.635198 3.65914 5.16929 12.9869 O
218 2 0.0446197 7.4063 1.4261 16.606 H
247 4 0.305155 9.18557 6.0191 10.1711 Si
146 2 0.0422511 11.1866 4.21923 12.9299 H
251 2 0.0677445 8.43918 3.76587 11.2111 H
255 1 -0.0996195 8.65619 3.99919 10.1879 C
28 2 0.0447436 12.9404 1.66577 9.34692 H
114 2 0.0329826 9.04101 0.649669 15.3468 H
300 2 0.0165924 9.38733 1.22635 13.6069 H
257 3 -0.630756 10.1009 6.50881 11.394 O
127 1 -0.113083 8.71938 1.17665 14.4475 C
188 2 0.0876991 8.49586 3.95865 16.1971 H
147 2 0.0662482 9.44397 4.68456 13.2454 H
304 2 0.0934619 13.0319 0.512402 15.032 H
145 2 0.0547257 10.3084 3.51557 14.3609 H
240 4 0.315105 12.11 0.703418 12.7129 Si
243 2 0.0501103 11.8953 2.93033 11.5561 H
244 2 0.0601664 11.5845 1.58804 15.1087 H
245 1 -0.106983 11.2204 2.08606 11.4872 C
242 2 0.0593098 11.2435 1.59725 10.5291 H
148 1 -0.078396 10.3708 4.3267 13.6372 C
246 1 -0.0729758 12.5312 1.36313 14.6406 C
249 2 0.00857383 9.56623 3.55995 9.81218 H
241 2 0.0208565 10.2436 2.22627 11.9446 H
37 2 0.0110095 11.1999 3.74543 9.40749 H
302 2 0.0658089 14.2718 0.467945 8.99946 H
38 2 0.0304213 4.55961 11.8551 3.53504 H
39 2 0.0462272 3.58358 12.1166 5.06365 H
40 2 0.0201265 3.40379 10.5593 4.14902 H
47 1 -0.127845 4.01433 11.4159 4.37268 C
295 2 0.0820671 3.27591 10.959 6.79052 H
231 1 -0.0938278 0.882048 12.5213 8.59659 C
6 4 0.981799 4.7176 12.5641 7.78492 Si
213 2 -0.0271963 3.42871 10.5276 2.05222 H
264 1 -0.0720981 4.94502 8.8525 0.405779 C
291 2 0.0455329 1.19434 12.6798 4.36289 H
298 1 -0.0766746 2.35819 10.4196 6.68334 C
211 4 0.540097 1.96051 11.3398 1.65821 Si
296 2 0.0599306 2.21437 9.95328 5.7352 H
69 3 -0.658125 5.08131 8.57124 5.45656 O
261 2 0.0580907 5.0103 9.11494 1.45722 H
221 4 0.318676 0.767076 11.7384 6.71956 Si
21 2 -0.00744598 5.52242 7.02102 7.95905 H
263 2 0.0627802 4.06327 8.28551 0.130206 H
259 2 0.0623722 4.07984 11.8102 0.279683 H
70 3 -0.734774 5.39565 11.2523 7.06498 O
15 4 0.769408 5.57043 10.5955 5.58242 Si
297 2 0.0453253 2.1528 9.75227 7.52354 H
172 2 0.067867 3.64852 8.14987 3.74712 H
214 3 -0.652526 1.5551 10.9149 0.126935 O
225 2 0.0910451 1.91651 12.8206 8.67647 H
286 2 0.0343349 7.57159 12.2706 2.44003 H
206 1 -0.0851133 9.48053 9.4107 4.1637 C
68 3 -0.677272 7.04603 10.855 4.86852 O
209 2 0.100101 10.28 8.32339 1.56214 H
204 2 0.0611748 9.6845 8.7005 3.40564 H
224 2 0.32917 5.7119 8.34727 4.6754 H
207 1 -0.11455 7.66005 11.3278 1.92126 C
83 2 0.101073 7.7335 11.6734 7.50137 H
205 2 0.0523819 8.6132 11.1448 1.47483 H
201 4 0.610744 7.58561 10.0204 3.58149 Si
13 4 1.13153 7.25191 7.33043 2.37964 Si
14 4 0.50088 6.3965 8.04588 6.86929 Si
20 2 0.0699111 6.85137 9.49438 7.73258 H
285 2 0.0403067 6.83191 11.0833 1.31192 H
64 3 -0.830345 7.75794 7.3263 0.854522 O
65 3 -0.770282 6.77016 8.69108 3.09762 O
67 3 -0.76326 7.72165 7.46498 6.23444 O
202 2 0.117722 9.30759 8.91634 5.11926 H
112 2 0.331393 6.05971 6.45373 0.507981 H
10 4 1.23736 8.883 6.54857 0.0135586 Si
262 2 0.0915771 5.87456 8.48162 0.0553085 H
268 2 -0.0227067 2.45285 10.6121 10.8484 H
130 1 -0.113263 4.10806 7.68392 11.2634 C
265 4 0.657234 3.97338 10.7151 10.0308 Si
260 2 0.0210299 1.86348 10.778 15.4431 H
121 2 0.0379574 4.32974 6.81724 10.636 H
305 2 0.0451482 3.18342 12.2606 14.3201 H
306 2 0.0674655 4.11681 11.0498 13.3737 H
307 2 0.0200675 2.83901 12.0649 12.5465 H
308 1 -0.100643 3.55478 11.9787 13.3527 C
123 2 0.0155942 3.11804 8.12261 11.1325 H
119 2 0.0111052 2.55872 8.55163 14.218 H
270 3 -0.716743 3.96251 12.0577 9.1682 O
258 4 0.0590662 2.90827 10.8896 16.8111 Si
106 2 -0.000288663 0.489754 11.6726 12.3222 H
226 2 0.0416964 0.611241 11.7001 9.23173 H
96 4 0.26658 0.0543222 12.694 13.6785 Si
129 1 -0.0916715 3.0455 7.69115 14.6754 C
101 4 0.28213 4.0964 6.76234 13.1171 Si
267 2 -0.00247948 4.15227 9.35742 8.99068 H
120 2 0.0801676 3.85287 7.94255 15.3375 H
118 2 0.0608656 2.41166 6.89955 15.0553 H
122 2 0.0772636 4.87594 8.44321 11.3012 H
275 2 0.250712 4.87117 10.8195 15.397 H
66 3 -0.665308 4.8451 11.5092 16.1005 O
266 4 1.06831 6.45744 11.4267 11.3663 Si
252 2 0.0580776 7.50345 7.47279 11.207 H
149 3 -0.707309 9.26439 7.83095 14.4386 O
284 1 -0.107844 7.79816 10.4146 14.2894 C
283 2 0.0332184 8.08226 10.3843 13.2397 H
282 2 0.044674 6.73162 10.53 14.4302 H
113 2 0.25454 5.30168 11.1022 16.8951 H
271 3 -0.760273 7.70183 10.835 10.5094 O
186 4 0.855904 7.93264 8.40117 14.9997 Si
272 3 -0.74562 5.08754 10.6061 11.2018 O
254 2 0.0616481 7.94168 8.19674 9.57784 H
256 1 -0.0994294 7.59997 7.31981 10.1306 C
273 3 -0.684007 6.30549 12.8777 12.0599 O
191 3 -0.719428 8.04331 8.75699 16.8688 O
192 3 -0.633083 6.50756 7.71315 14.571 O
253 2 0.0189173 6.77017 6.75227 9.64965 H
210 2 0.31519 7.63049 9.54387 17.0489 H
ITEM: TIMESTEP
100
ITEM: NUMBER OF ATOMS
310
ITEM: BOX BOUNDS xy xz yz pp pp pp
-8.6787320000000001e+00 1.5411400000000000e+01 -6.8526319999999998e+00
0.0000000000000000e+00 1.3079499999999999e+01 -1.8261000000000001e+00
0.0000000000000000e+00 1.7503399999999999e+01 3.3839999999999998e-01
ITEM: ATOMS id type q x y z element
73 2 0.0180204 0.50016 3.76259 3.95481 H
74 2 0.069048 -0.0359015 4.25628 5.59458 H
75 2 0.0985364 -1.07681 4.68863 4.16846 H
76 1 -0.0784008 -0.342878 4.02189 4.58318 C
179 3 -0.698194 -3.19052 5.44697 6.114 O
72 2 0.0153276 -0.430952 0.88325 5.50226 H
25 2 0.0264924 0.483397 1.50096 1.69845 H
159 2 0.324445 -2.8333 4.57252 5.79102 H
32 2 0.00106616 4.32152 4.51093 5.42083 H
42 1 -0.116383 1.19068 2.30671 1.65789 C
24 2 0.00844131 1.52281 1.11712 4.86012 H
45 1 -0.120027 4.25305 5.04078 4.4822 C
71 4 0.241064 -1.34487 2.1985 4.73457 Si
27 2 0.0337008 0.902178 3.23134 2.14121 H
197 2 0.074523 -2.17182 5.52656 1.66753 H
301 2 0.059226 -1.43495 1.41163 7.53525 H
26 2 0.0608453 1.68457 2.44241 0.702432 H
180 3 -0.66849 -0.490537 6.30008 7.68485 O
3 4 0.643722 2.88293 1.66255 2.66885 Si
16 2 0.257959 6.69153 0.699095 3.09704 H
22 2 0.0105554 2.46213 2.67578 5.08031 H
50 3 -0.720567 6.74748 0.769538 2.08152 O
23 2 0.0262749 3.28759 1.06228 5.20179 H
99 4 0.209639 4.20433 3.4524 7.80705 Si
41 1 -0.142971 2.46924 1.64565 4.78258 C
110 2 0.0166499 2.90328 4.43916 7.16414 H
107 2 0.00831245 5.06345 0.665434 6.07276 H
4 4 1.23979 5.57998 2.69813 1.88312 Si
33 2 0.0782815 3.77321 4.47535 3.70292 H
161 2 0.0470913 1.04251 1.85833 7.0618 H
49 3 -0.756345 4.0062 2.70599 2.1173 O
80 2 0.0240893 5.0437 0.633856 7.08235 H
48 3 -0.694745 3.16259 0.0799014 2.43624 O
35 2 0.119367 -3.64609 5.11169 8.49361 H
103 2 0.275086 -0.136138 2.54153 11.0925 H
111 2 0.238263 0.0894313 2.81071 12.8136 H
91 4 0.234306 -3.16822 5.70909 16.8159 Si
303 2 0.0444903 -2.56544 2.5668 14.3684 H
156 2 0.0315192 -1.60685 4.7746 9.70184 H
175 1 -0.0685668 1.39718 4.81054 9.48805 C
105 2 0.303388 -1.18495 2.32265 12.209 H
133 3 -0.752406 -0.557855 2.97327 11.9582 O
93 2 0.0178576 -1.51452 5.98896 16.3716 H
142 4 0.101524 -4.38759 6.30845 14.9508 Si
150 4 0.346247 -0.395925 5.8937 9.22588 Si
162 2 -0.00556186 -2.86708 5.37887 11.4436 H
52 3 -0.575517 -3.53633 4.00539 16.9074 O
125 2 0.0448508 2.10289 2.90513 15.8529 H
124 2 0.0506694 1.15814 4.26382 16.6745 H
95 4 0.566707 3.24688 1.57647 9.81211 Si
104 2 0.305307 0.966477 0.877006 10.2247 H
288 2 0.0264161 1.96286 0.621221 16.3634 H
165 2 0.0799256 1.41679 4.46628 10.5261 H
131 1 -0.110919 1.88046 3.95984 15.9244 C
290 1 -0.125563 2.75881 0.523946 17.0749 C
164 2 0.0825643 1.31165 4.00702 8.76559 H
163 2 0.0540176 2.1525 5.53766 9.22871 H
135 3 -0.631673 5.94601 0.665464 12.9872 O
132 3 -0.629621 1.25779 1.2269 9.30995 O
94 4 -0.0341301 2.91398 2.15512 12.1602 Si
134 3 -0.626734 4.68751 0.236738 10.6499 O
287 2 0.0588585 3.18253 1.44826 17.393 H
136 3 -0.59032 3.71152 3.07963 9.33801 O
126 2 0.0450322 1.81137 4.4501 14.9468 H
97 4 0.721819 5.63927 1.25974 11.5293 Si
269 2 0.0134197 -0.641812 5.94797 13.7845 H
304 2 0.0649482 -1.80124 1.0092 14.9072 H
276 2 0.00240568 -0.173995 6.61675 13.6866 H
208 4 0.6097 -4.14165 9.82667 1.90086 Si
153 4 0.666451 -3.18271 8.254 8.63962 Si
158 2 0.0436805 -4.76858 8.64753 8.12941 H
182 3 -0.685667 -2.38637 8.08967 7.19812 O
199 3 -0.703979 -3.41961 7.4627 4.04249 O
200 3 -0.651333 -2.57794 9.43263 2.31018 O
280 2 0.0500522 -6.32989 10.7818 6.46518 H
203 2 0.00176664 -5.49179 10.3717 3.68554 H
1 4 0.682714 -3.61678 12.0425 1.12389 Si
228 2 0.0197541 -4.11437 11.3505 5.4605 H
230 2 0.0951523 -3.92172 9.60867 5.89969 H
77 4 0.415008 -5.45774 12.2436 8.32348 Si
193 4 0.593974 -2.28567 7.90943 2.87491 Si
232 1 -0.0844825 -3.61172 10.6325 6.09308 C
87 1 -0.079864 -6.85584 11.6283 6.87533 C
229 2 0.0575653 -3.53384 10.8984 7.13588 H
309 3 -0.706285 -4.46314 10.7839 0.712325 O
81 2 0.0907657 -0.710187 11.344 1.40355 H
212 2 0.0538346 0.940951 11.1859 3.07116 H
195 2 0.050926 -1.24651 7.04869 1.067 H
160 2 0.268866 0.472787 6.92338 5.48397 H
185 3 -0.639516 0.844232 8.36583 1.09813 O
155 4 0.554546 1.32469 8.82588 2.61146 Si
222 4 0.302005 -1.68231 10.6497 5.40393 Si
154 4 0.458688 -0.851912 8.66112 4.52685 Si
194 2 0.113081 -0.854497 10.6679 1.60198 H
233 3 -0.550035 -0.703132 10.677 6.70541 O
174 2 0.0406848 2.46131 7.06087 4.03674 H
279 2 0.0368428 -6.97424 12.4342 6.12923 H
152 4 1.02369 -1.64295 6.7619 6.67757 Si
173 2 0.0775014 3.11375 6.97384 2.34296 H
184 3 -0.642912 0.185776 9.47797 3.53768 O
183 3 -0.656259 -0.404326 6.70431 5.02456 O
178 1 -0.104369 2.88852 7.59256 3.19691 C
223 2 0.0339059 -1.53146 11.936 4.21523 H
196 2 0.0870246 -3.14727 6.84651 0.84618 H
198 1 -0.0888674 -2.16642 6.45947 1.15895 C
209 2 0.090092 -4.85571 8.3682 1.52797 H
78 4 0.985026 -6.06873 11.027 10.7061 Si
79 4 0.462056 -3.98817 12.4885 12.1334 Si
89 3 -0.680947 -5.1077 11.0463 9.38689 O
90 3 -0.692333 -5.52793 12.1969 11.6879 O
151 4 0.572767 -3.80579 6.75927 11.075 Si
157 2 -0.0227918 -3.22995 8.03307 12.0408 H
181 3 -0.70171 -3.3498 6.97199 9.55616 O
88 1 -0.117539 -3.26255 11.3506 13.6821 C
236 2 0.026951 -2.63772 10.9295 16.1542 H
86 2 0.0555298 -2.76778 12.0823 14.322 H
144 2 0.0735587 -5.4722 10.5555 16.2138 H
226 2 0.0586421 -0.00554939 11.9852 9.09887 H
85 2 0.0249596 -4.11672 10.8544 14.0958 H
216 2 0.0572519 -5.67406 10.0419 15.633 H
283 2 0.0367992 -6.87579 10.6235 13.5829 H
289 2 0.0230483 -3.72468 12.5068 16.8181 H
237 2 0.0657307 -3.32652 9.66944 17.2944 H
171 2 0.0883696 -1.45468 10.0808 8.98835 H
168 2 0.0208621 0.780684 7.28527 11.0592 H
176 1 -0.113082 -0.107866 7.5468 10.4939 C
234 4 0.565199 -0.770709 9.75292 17.3812 Si
166 2 0.0174649 -1.01447 7.58493 11.0799 H
84 2 0.0298764 -2.61142 10.7189 13.1179 H
167 2 0.0529298 -0.00252889 8.36275 9.80143 H
170 2 0.113244 -3.06578 10.634 9.60782 H
169 2 0.0140747 -2.08001 9.43804 10.5658 H
239 1 -0.119724 -2.64693 9.91553 16.4844 C
177 1 -0.0966219 -2.3136 9.86432 9.60418 C
235 2 -0.0168305 0.538626 9.14415 16.4538 H
277 2 0.0148775 -0.502851 11.5441 14.7956 H
238 2 0.0151105 -2.6248 9.21826 15.6588 H
143 2 0.00265831 -3.012 6.92744 13.9735 H
9 4 1.14063 6.35812 4.86575 3.86067 Si
12 4 1.37521 8.52933 6.11323 5.87141 Si
43 1 -0.096001 13.6422 0.937652 8.44053 C
30 2 0.0846583 8.42112 3.74846 1.67307 H
31 2 0.109651 8.67849 3.22023 3.36124 H
44 1 -0.0850816 8.90997 3.05531 2.33524 C
57 3 -0.795556 6.3861 3.42143 3.12813 O
61 3 -0.813172 7.392 5.17862 5.07271 O
62 3 -0.758459 9.18851 5.26394 7.15068 O
115 2 0.0654005 6.58988 4.38219 7.31755 H
293 1 -0.101326 8.05595 0.385625 5.42874 C
215 4 0.60804 8.24455 1.16854 1.4694 Si
294 2 0.0705495 8.51954 1.16638 6.01374 H
292 2 0.0279828 7.05545 0.619974 5.1771 H
128 1 -0.103736 6.27866 3.3434 7.37623 C
63 3 -0.809107 6.3773 6.07955 2.80285 O
19 2 -0.0176754 8.92982 2.82105 8.1761 H
54 3 -0.755985 11.1123 0.553325 6.53712 O
278 2 -0.0105311 13.3037 2.6273 1.86772 H
116 2 0.0446176 6.32798 2.84617 6.42486 H
227 2 0.0306918 7.5192 0.777783 8.18129 H
117 2 0.0321172 6.70026 2.75742 8.18092 H
274 2 0.00945532 13.652 1.21279 3.31435 H
34 2 0.0547176 4.00044 6.11224 4.55429 H
59 3 -0.701636 10.1384 3.05018 5.84288 O
46 1 -0.0920207 11.6307 4.05538 8.3577 C
56 3 -0.757567 11.4076 4.88676 3.23411 O
58 3 -0.753725 9.96603 6.27948 1.2743 O
7 4 0.975416 11.2205 1.86965 5.56496 Si
29 2 0.0291667 9.9163 2.69761 2.17685 H
53 3 -0.663469 12.7393 2.46439 5.6205 O
11 4 0.704288 9.92263 3.82757 7.23956 Si
5 4 0.624381 12.5455 3.1091 0.418729 Si
8 4 1.01518 10.5094 4.83145 1.8296 Si
310 3 -0.650985 9.52786 0.204669 1.75415 O
36 2 0.0782807 12.431 3.59477 7.79183 H
51 3 -0.735268 5.95233 3.32226 0.496542 O
55 3 -0.711088 11.309 4.12273 0.635411 O
18 2 -0.0019378 10.8816 1.26075 3.93815 H
2 4 1.21992 11.2386 6.07485 4.44964 Si
102 4 0.375732 5.70573 4.83328 15.7908 Si
100 4 0.760461 4.70409 3.7759 12.9585 Si
137 3 -0.699162 5.98469 3.30122 11.3692 O
140 3 -0.725328 6.37936 5.61104 17.0993 O
190 2 0.0517982 8.46653 5.13271 15.3303 H
187 4 0.19426 6.25144 6.21829 14.004 Si
220 1 -0.087936 6.2585 1.60741 16.9405 C
217 2 0.065922 6.02416 0.613614 16.6676 H
109 2 0.307319 5.54102 3.37901 10.5712 H
250 2 0.045878 7.84127 4.05897 9.71041 H
299 2 0.0520935 8.09238 1.94944 14.3926 H
189 2 0.0462593 5.52022 5.70273 10.2 H
219 2 0.0869958 5.48861 2.33117 16.7223 H
139 3 -0.717647 4.8497 3.16441 14.4415 O
138 3 -0.623555 3.77291 5.12566 12.8155 O
218 2 0.0389899 7.28033 1.92702 16.7459 H
247 4 0.278678 9.12012 6.164 10.2575 Si
146 2 0.0545902 10.8714 4.87859 12.8775 H
251 2 0.0783086 7.99191 4.42304 11.4822 H
255 1 -0.0934306 8.50913 4.25447 10.5474 C
28 2 0.0446148 13.1392 1.56396 9.17556 H
114 2 0.0305833 8.89447 0.559083 15.2213 H
300 2 0.0192167 9.49461 1.10968 13.5755 H
257 3 -0.626025 10.0629 6.53171 11.5163 O
127 1 -0.112531 8.66758 1.02977 14.2766 C
188 2 0.0844358 8.36191 5.68719 15.8848 H
147 2 0.0409477 9.69 4.0399 13.9947 H
17 2 0.0072179 9.93324 2.03086 17.3147 H
145 2 0.0541359 11.4947 3.87684 14.2515 H
240 4 0.293345 12.1449 0.632275 12.8266 Si
243 2 0.0418943 11.9067 2.59642 11.2035 H
244 2 0.0706803 11.8458 1.35522 15.2528 H
245 1 -0.111283 11.1373 1.94877 11.5892 C
242 2 0.054198 10.6747 1.3388 10.8253 H
148 1 -0.0854824 10.6959 4.47951 13.8671 C
246 1 -0.0799326 12.7002 1.544 14.6378 C
249 2 0.0244343 9.33825 3.58759 10.6461 H
241 2 0.0191102 10.4437 2.41682 12.2582 H
37 2 0.00265749 11.3598 3.56373 9.28385 H
302 2 0.0765858 14.2751 0.177811 8.85062 H
98 4 0.570267 3.6085 4.53535 16.8135 Si
108 2 0.280801 5.19867 2.14856 14.3673 H
141 3 -0.61621 3.16007 6.43876 17.4125 O
92 2 0.207874 2.48646 6.64673 16.6187 H
248 2 0.108653 9.9022 6.25446 8.75288 H
38 2 0.0437999 4.4937 11.7962 3.37136 H
39 2 0.0520901 3.36203 11.969 4.76253 H
40 2 0.00127033 3.39423 10.4431 3.77906 H
47 1 -0.126295 3.942 11.2968 4.14274 C
295 2 0.0674039 3.06727 10.7569 6.50816 H
231 1 -0.0949126 0.670053 12.5452 8.46667 C
6 4 0.984982 4.76727 12.4329 7.67312 Si
213 2 -0.017855 3.60795 10.5686 1.78123 H
264 1 -0.0660094 4.88714 9.07802 0.593619 C
291 2 0.0391795 1.4543 12.7592 4.60952 H
298 1 -0.0820911 2.20713 10.1239 6.61301 C
211 4 0.571065 2.06858 11.3501 1.75031 Si
296 2 0.0565954 1.95217 9.52402 5.74031 H
69 3 -0.666363 4.93954 8.48912 5.3695 O
261 2 0.08286 5.14599 9.54652 1.51496 H
221 4 0.305101 0.667319 11.5172 6.72203 Si
262 2 0.0921157 5.7231 8.51716 0.168355 H
263 2 0.0475615 3.93858 8.58298 0.53113 H
21 2 -0.00757982 5.62437 6.55539 7.66785 H
70 3 -0.73488 5.3949 11.0816 6.92553 O
15 4 0.858415 5.41158 10.4916 5.41394 Si
297 2 0.0426513 2.19868 9.56769 7.51579 H
172 2 0.0575143 3.64666 8.31737 3.39919 H
214 3 -0.669583 1.55468 10.9093 0.303704 O
10 4 1.23832 8.7788 6.60067 0.119921 Si
286 2 0.0319778 7.74947 12.4284 2.33692 H
206 1 -0.0983452 9.43824 9.47606 4.06052 C
68 3 -0.684132 6.73907 10.8771 4.61334 O
60 3 -0.793469 9.69417 6.51821 4.77357 O
204 2 0.0920435 9.70469 8.53221 3.58641 H
224 2 0.318579 5.42393 8.14035 4.58063 H
207 1 -0.105346 7.6919 11.5034 1.82943 C
83 2 0.106116 7.67887 11.3611 7.43498 H
205 2 0.0632906 8.58378 11.2407 1.29798 H
201 4 0.62041 7.53185 10.0966 3.40471 Si
13 4 1.21191 7.14046 7.38917 2.48247 Si
14 4 0.437574 6.25005 7.92388 6.81818 Si
20 2 0.0685624 6.21061 9.20096 8.016 H
285 2 0.0601211 6.75653 11.3583 1.29823 H
64 3 -0.805249 7.80406 7.51814 1.01685 O
65 3 -0.765125 6.62761 8.81102 2.97809 O
67 3 -0.690154 7.81032 7.56923 6.3847 O
202 2 0.0837543 9.35464 9.42758 5.10275 H
225 2 0.0798566 1.70971 12.5108 8.74812 H
268 2 -0.0200924 2.34688 10.728 10.789 H
130 1 -0.108266 4.01554 7.74661 11.3995 C
265 4 0.613816 3.90894 10.7653 10.0162 Si
260 2 0.00639006 2.21424 10.3404 15.4306 H
121 2 0.0423356 3.5365 7.00867 10.7665 H
305 2 0.0356888 3.4408 12.0218 14.2587 H
306 2 0.0738643 4.12967 10.8921 13.0239 H
307 2 0.0158803 2.73608 11.978 12.6157 H
308 1 -0.108698 3.61075 11.8132 13.2164 C
123 2 0.0320679 3.44674 8.61708 11.6924 H
119 2 0.0113469 2.0257 7.87278 13.9162 H
270 3 -0.707908 3.88794 12.071 9.0114 O
258 4 0.0712016 3.00274 11.0396 16.7928 Si
106 2 0.00108659 0.521636 11.2994 12.3211 H
281 2 0.0407592 7.18518 10.9619 14.7313 H
96 4 0.225382 0.0982342 12.5291 13.4888 Si
129 1 -0.118311 2.90446 7.59089 14.4674 C
101 4 0.301647 4.12325 6.67652 13.124 Si
267 2 0.00370646 4.00775 9.32831 9.054 H
120 2 0.0383201 3.47818 8.43785 14.828 H
118 2 0.0266163 2.7519 6.80472 15.195 H
122 2 0.0559222 5.05977 8.00109 11.2326 H
275 2 0.244799 4.91381 11.2794 15.3663 H
66 3 -0.657614 4.9191 11.6999 16.2474 O
266 4 1.04867 6.42665 11.4205 11.3062 Si
252 2 0.0534655 7.5817 8.10549 10.9269 H
149 3 -0.694761 9.18154 7.67553 14.4272 O
284 1 -0.124726 7.56678 10.3099 13.961 C
82 2 0.295164 9.04571 7.18733 13.5726 H
282 2 0.0283396 6.84531 10.0489 13.201 H
113 2 0.250129 5.54205 11.0401 16.7209 H
271 3 -0.772868 7.73667 11.0663 10.4143 O
186 4 0.8649 7.82918 8.41436 15.035 Si
272 3 -0.7363 5.07402 10.5259 11.1478 O
254 2 0.0574362 7.725 7.88347 9.12004 H
256 1 -0.104584 7.51656 7.42357 10.0799 C
273 3 -0.680285 6.27077 12.8428 12.0207 O
191 3 -0.733534 7.89796 8.7558 16.6821 O
192 3 -0.638053 6.38022 7.67013 14.7878 O
253 2 0.0155793 6.64078 6.70073 10.0375 H
210 2 0.314132 7.68407 9.63813 17.0582 H
112 2 0.261288 4.03784 7.02661 17.0658 H
259 2 0.0768213 1.90061 12.3104 17.2897 H
ITEM: TIMESTEP
200
ITEM: NUMBER OF ATOMS
310
ITEM: BOX BOUNDS xy xz yz pp pp pp
-8.3286639999999998e+00 1.5411400000000000e+01 -6.5025639999999996e+00
0.0000000000000000e+00 1.3079499999999999e+01 -1.8261000000000001e+00
0.0000000000000000e+00 1.7503399999999999e+01 3.3839999999999998e-01
ITEM: ATOMS id type q x y z element
73 2 0.0165533 0.870464 3.85888 4.53089 H
74 2 0.0957801 -0.404631 4.54996 5.60315 H
75 2 0.0681372 -0.622571 4.64156 3.76767 H
76 1 -0.085188 -0.161951 4.14212 4.63159 C
179 3 -0.697167 -3.13422 5.47068 6.08812 O
72 2 0.00430192 -0.175924 1.37632 5.74931 H
25 2 0.0211602 0.509701 1.42969 1.70367 H
159 2 0.322479 -2.76494 4.61361 5.81086 H
32 2 0.0403435 4.16233 3.88015 4.80323 H
42 1 -0.131407 1.21445 2.22944 1.52927 C
24 2 0.0134841 2.20985 1.05503 5.09912 H
45 1 -0.122425 4.37073 4.94246 4.68702 C
71 4 0.244459 -1.30261 2.38473 4.75034 Si
27 2 0.0213426 0.915718 3.16928 1.94605 H
197 2 0.0686827 -2.46349 5.90278 1.72777 H
48 3 -0.647263 3.29242 0.156136 2.51334 O
26 2 0.0464086 1.57024 2.27879 0.514577 H
180 3 -0.65138 -0.421592 6.17339 7.61794 O
3 4 0.62964 2.84742 1.72722 2.74075 Si
16 2 0.248484 6.85651 0.80619 3.08863 H
22 2 0.00897546 2.31566 2.86773 4.99573 H
50 3 -0.683334 6.76315 0.761228 2.02289 O
23 2 0.0413943 3.80359 1.85855 5.12899 H
99 4 0.227289 4.17208 3.58519 7.71412 Si
41 1 -0.129975 2.78242 1.91112 4.81795 C
110 2 0.0138702 3.30872 5.14228 7.4944 H
107 2 0.0476148 5.01505 0.365702 7.5581 H
4 4 1.19194 5.63731 2.68981 2.02095 Si
33 2 0.0478194 3.797 5.40212 3.88576 H
161 2 0.0883006 0.916674 2.48793 7.57621 H
49 3 -0.744457 4.09809 2.69035 2.38277 O
301 2 0.0573176 -1.30687 1.22586 7.57553 H
51 3 -0.690758 5.85177 3.03294 0.414058 O
103 2 0.251514 -0.0396805 2.87068 10.8011 H
111 2 0.263448 0.238371 2.93794 12.2945 H
91 4 0.2589 -3.05102 5.69858 16.8557 Si
303 2 0.0609041 -2.23681 2.39124 14.1621 H
156 2 0.0475965 -1.68577 4.8834 9.74818 H
175 1 -0.0855757 1.40555 4.63058 9.54298 C
105 2 0.299299 -0.84597 1.77058 11.6748 H
133 3 -0.744943 -0.534751 2.84773 11.6902 O
93 2 0.0184565 -1.36578 5.91457 17.3656 H
142 4 0.0879956 -4.27815 6.40442 15.1769 Si
150 4 0.316307 -0.293495 5.78044 9.20611 Si
162 2 -0.0077937 -3.32934 5.29897 11.8544 H
52 3 -0.598798 -3.43486 4.1481 16.754 O
125 2 0.0729635 2.37665 2.94848 15.5454 H
124 2 0.0347285 0.971095 3.71104 16.4642 H
95 4 0.599831 3.05299 1.61939 9.64215 Si
104 2 0.284369 0.703661 1.13955 10.0646 H
276 2 0.0115539 -1.06256 5.68415 13.1552 H
165 2 0.0507133 1.43487 4.5907 10.6263 H
131 1 -0.102454 1.8712 3.86489 15.8638 C
304 2 0.0688786 -1.68836 0.831645 14.856 H
164 2 0.0763163 1.26605 3.6812 9.03644 H
163 2 0.0521848 2.18095 5.23754 9.07669 H
135 3 -0.608597 5.71501 0.510919 12.9921 O
132 3 -0.662833 1.04078 1.36279 9.12791 O
94 4 -0.028152 2.84957 2.19823 11.9583 Si
134 3 -0.612938 4.42535 0.27857 10.3362 O
98 4 0.463173 3.41699 4.6278 17.0225 Si
136 3 -0.622974 3.7936 2.94063 9.17271 O
126 2 0.0373129 1.78949 4.62353 15.1133 H
97 4 0.674087 5.48728 1.10694 11.4692 Si
269 2 0.0132885 -0.708602 5.59811 13.7411 H
287 2 0.0520176 2.30387 1.28012 17.4293 H
145 2 0.046099 -3.47059 4.33507 13.7687 H
219 2 0.100439 5.25024 1.59494 16.7235 H
118 2 0.0461847 2.11937 6.43583 14.3214 H
208 4 0.643132 -4.36031 9.71315 2.08552 Si
153 4 0.68347 -3.1734 8.14905 8.69788 Si
158 2 0.0451943 -4.77791 8.44392 8.19258 H
182 3 -0.714378 -2.38885 8.031 7.30272 O
199 3 -0.728334 -3.33658 7.45818 4.08632 O