ITEM: TIMESTEP
0
ITEM: NUMBER OF ATOMS
310
ITEM: BOX BOUNDS xy xz yz pp pp pp
-9.0288000000000004e+00 1.5411400000000000e+01 -7.2027000000000001e+00
0.0000000000000000e+00 1.3079499999999999e+01 -1.8261000000000001e+00
0.0000000000000000e+00 1.7503399999999999e+01 3.3839999999999998e-01
ITEM: ATOMS id type q x y z
4 4 1.45856 4.87283 4.46226 1.69419
3 4 1.11116 3.47572 1.77983 2.54103
280 2 0.149494 2.13578 0.930474 6.60399
71 4 0.806111 -1.28356 2.04886 3.69598
23 2 0.154763 3.69377 0.864288 4.94496
24 2 0.132415 5.27824 1.39934 3.85044
25 2 0.157841 0.910854 1.01355 2.55489
26 2 0.161009 1.06671 2.93362 3.17507
27 2 0.128062 1.89091 1.5407 4.18537
41 1 -0.655446 4.24213 0.69609 3.95964
42 1 -0.627898 1.58424 1.91067 3.08339
48 3 -0.766106 3.37578 0.730783 1.14162
49 3 -0.794662 3.90822 3.28857 2.45074
51 3 -0.804595 4.07194 5.84369 1.00966
75 2 0.20627 -2.08235 3.80925 2.58367
72 2 0.00218088 0.268662 2.20085 4.57428
73 2 0.00867509 -1.67465 3.68341 0.770465
74 2 0.13812 -0.223458 4.01053 3.25513
152 4 1.40481 -2.07869 6.21181 6.12567
76 1 -0.646752 -0.981325 3.41799 2.56678
275 2 0.0168823 -0.427048 2.42405 1.16089
110 2 -0.0371768 2.02218 4.99208 7.39211
50 3 -0.808169 5.42677 3.47059 0.487757
150 4 0.803037 -0.668153 3.92029 7.82762
159 2 0.0155198 0.890117 5.00512 5.61544
163 2 0.145698 1.46371 3.2968 5.83099
164 2 0.078733 -0.319188 2.35301 6.63774
165 2 0.155399 1.54684 3.32906 7.70993
175 1 -0.634152 0.873848 3.50151 6.77791
179 3 -0.80277 -2.86311 5.55323 4.88479
180 3 -0.808362 -1.35974 5.13981 7.09184
195 2 0.0591915 -1.98275 6.07875 0.262784
196 2 0.17849 -0.712818 5.26076 1.82439
310 3 -0.818676 6.80771 1.17559 1.07131
94 4 0.637971 -0.0143294 2.06987 11.9066
95 4 1.27553 2.5982 2.3333 10.69
147 2 0.0981394 -2.04843 6.34077 13.2724
219 2 0.158784 3.3943 2.46096 15.8582
103 2 0.0287733 -0.331242 0.481852 11.4499
104 2 0.00137912 -0.667556 2.53757 10.3278
105 2 -0.0582736 -1.07772 2.50688 13.0933
108 2 0.0234393 1.39235 5.47128 15.8337
111 2 0.0713534 2.35978 3.43851 13.258
290 1 -0.660541 0.421072 0.450714 15.9932
156 2 0.0507759 -1.81908 3.13286 9.0651
132 3 -0.829222 1.94176 1.36664 9.50884
133 3 -0.797502 1.43102 2.49047 12.1931
134 3 -0.827709 3.87234 1.53301 11.3861
168 2 0.169339 -1.4174 5.45112 9.87787
136 3 -0.76056 2.95672 3.8339 9.6945
100 4 1.1665 3.68069 4.50619 13.165
276 2 0.0448249 3.17092 0.617246 13.169
144 2 -0.0521931 -2.44399 4.75007 15.0723
301 2 0.136491 -0.624739 1.27914 9.15074
99 4 0.693909 3.0634 5.0842 8.77105
220 1 -0.657298 4.52722 2.0964 15.9416
289 2 0.145133 -0.323279 1.05385 16.6522
120 2 0.148192 0.595903 5.99299 12.9982
288 2 0.101991 1.14777 1.18043 15.3648
157 2 -0.00377799 -3.55976 6.46128 12.4178
167 2 0.109237 -0.983555 4.05275 11.1199
176 1 -0.642544 -0.898256 4.43183 9.98165
217 2 0.156389 4.59995 1.03644 15.7034
166 2 0.129994 0.229031 4.58905 9.80798
16 2 0.009929 3.35723 0.701933 16.6637
98 4 0.972951 2.288 6.65728 16.8746
142 4 0.688965 -2.90789 6.35799 15.3219
149 3 -0.789564 -4.49552 6.28649 15.4225
151 4 0.841689 -4.52507 6.51502 11.0007
97 4 1.1175 5.23783 2.12518 11.8817
291 2 0.130567 6.07175 1.10184 9.15809
208 4 0.950006 -3.8677 9.49643 0.107748
171 2 0.146636 -4.07003 10.4287 7.51911
230 2 0.164779 -0.808617 12.785 4.66043
153 4 0.92223 -3.91648 8.24613 8.0833
154 4 0.929563 0.6949 6.77014 5.35494
155 4 1.00689 2.31026 8.10275 2.95243
22 2 0.162537 -2.74305 12.3179 3.82199
160 2 -0.0694812 1.40182 7.13568 6.83879
83 2 0.151884 -4.602 11.8482 6.12799
177 1 -0.645056 -3.10371 9.90077 7.96598
169 2 0.179896 -2.25216 9.55685 7.19367
182 3 -0.777039 -3.07668 7.29391 7.16855
183 3 -0.762394 -0.770042 7.1276 5.27877
184 3 -0.804892 1.59401 7.25321 4.09414
185 3 -0.786253 1.38339 8.81099 1.8102
193 4 1.06919 -2.43797 7.34361 1.60271
194 2 0.150367 -0.619537 7.34926 2.38003
279 2 0.188933 -6.39227 12.3284 6.9678
234 4 1.02486 0.585455 9.83203 0.812009
161 2 0.0869479 3.30095 6.97604 2.04348
200 3 -0.841082 -2.71478 8.7218 0.835594
202 2 0.175918 -4.66081 12.0785 2.93244
203 2 0.198619 -4.29936 10.1641 3.28559
204 2 0.161549 -4.62616 11.3632 4.8229
205 2 0.168485 -6.05851 12.4183 1.23747
206 1 -0.626432 -4.81802 11.1203 3.63184
211 4 0.966066 -0.128632 12.6751 2.01291
199 3 -0.843645 -3.34688 6.57046 2.57487
80 2 0.0360489 -3.55389 12.5595 7.94211
214 3 -0.813845 0.235684 11.2852 1.26553
229 2 0.003093 -0.299054 11.2646 4.96067
212 2 0.00886359 -1.54065 12.5149 3.06256
87 1 -0.664408 -5.1487 12.5692 6.91269
197 2 0.175023 0.385121 6.55268 0.774102
198 1 -0.634032 -0.551919 6.42527 1.34275
77 4 1.0646 -5.13051 12.6823 8.85933
78 4 1.2667 -5.63497 10.5059 10.861
79 4 0.754595 -4.49438 11.7507 13.519
210 2 -0.0156806 -6.09363 9.03954 16.1233
170 2 0.162889 -2.7804 10.1511 9.07528
82 2 0.100559 -4.86941 8.94634 10.4631
84 2 0.164977 -2.20641 10.0966 13.6427
85 2 0.129213 -3.76594 10.0301 14.7977
86 2 0.0984011 -2.61859 11.614 14.8296
88 1 -0.638969 -3.05002 10.7204 14.1378
89 3 -0.867464 -5.46945 11.3635 9.61621
90 3 -0.787228 -4.95206 11.0844 12.2004
119 2 0.174807 -0.505203 7.49746 13.2665
277 2 -0.0114546 -1.20134 11.3579 13.7608
121 2 0.134731 1.45714 8.69504 10.3978
146 2 0.185624 -3.24345 8.02708 13.2635
148 1 -0.638951 -2.49385 7.42169 13.8525
145 2 0.134716 -1.64387 8.02211 14.359
118 2 0.108993 0.310871 7.42888 11.4696
101 4 0.763094 2.41525 7.34909 12.0731
236 2 0.15971 -0.440189 9.00809 16.1947
239 1 -0.663152 -0.957328 10.0438 16.464
129 1 -0.626993 0.457592 7.11965 12.7796
283 2 0.160701 -5.95372 8.90863 14.1786
226 2 0.154453 -0.827642 11.307 9.76685
181 3 -0.743473 -4.0088 7.74508 9.96773
287 2 0.156258 -7.33298 12.4393 15.3341
237 2 0.163603 -1.87686 10.3051 15.7161
309 3 -0.813673 -5.44827 11.3748 17.4814
238 2 0.0568076 -2.61957 9.55923 17.4066
81 2 -0.0223978 -5.84241 12.1624 14.5375
131 1 -0.67694 0.655476 7.21987 16.0293
124 2 0.164481 0.592137 7.18173 14.8516
125 2 0.0999141 1.2297 8.45779 16.4347
1 4 1.00683 -5.43 12.9401 17.3075
112 2 0.0286708 1.64716 8.09834 13.6812
235 2 0.126956 -0.10815 10.987 16.5153
109 2 0.00499672 2.35015 6.62116 9.39368
126 2 0.143001 -0.251021 7.16965 16.6318
231 1 -0.648363 0.295705 11.4562 9.85103
143 2 -0.018708 -2.21895 6.81192 16.8803
2 4 1.56628 11.414 5.74126 3.7128
9 4 1.42158 6.44012 6.33603 3.58
5 4 0.907502 10.9938 0.687172 1.62262
61 3 -0.851588 7.50412 6.05432 4.64187
7 4 1.18973 11.8617 1.56065 6.02668
8 4 1.27379 9.75526 3.34842 2.38966
62 3 -0.856404 9.39273 4.96999 6.28116
215 4 1.11126 6.65003 2.499 0.199999
11 4 1.09158 9.72304 3.585 6.95384
19 2 0.00495043 8.28067 2.97349 7.82384
294 2 0.15938 6.66237 2.08141 7.50284
228 2 0.1574 7.59497 1.25891 5.16271
128 1 -0.636996 4.87861 5.54892 8.32165
29 2 0.175711 7.9027 2.23792 3.88086
30 2 0.249324 7.53338 3.94799 3.14818
31 2 0.2186 8.7946 3.64233 4.53932
221 4 0.858577 8.11383 0.228378 8.74835
116 2 0.109931 4.66458 5.06812 7.15937
44 1 -0.691631 8.36209 3.2719 3.63919
213 2 0.0489802 8.44262 0.388795 2.96436
12 4 1.47919 8.96317 6.2744 5.38402
52 3 -0.793725 12.3123 1.24156 0.985325
53 3 -0.791356 13.0501 1.96824 4.75823
54 3 -0.81678 12.6557 1.30798 7.40487
55 3 -0.823252 9.85655 1.80367 1.93639
56 3 -0.814733 10.937 4.26497 3.06394
57 3 -0.854843 6.06202 5.05093 2.59268
58 3 -0.776415 9.01737 4.40189 0.936324
59 3 -0.824148 10.5257 2.45825 6.2239
232 1 -0.670811 7.38862 0.317706 4.51168
293 1 -0.629045 6.84742 1.85234 8.61299
274 2 0.0227805 14.5411 0.454211 3.02377
35 2 0.1761 10.996 4.97374 8.33511
33 2 0.158247 3.89768 6.27752 4.20767
91 4 0.593729 13.4718 2.00877 0.179691
286 2 0.13331 14.7937 0.399474 1.12016
216 2 0.135811 8.18305 3.34909 0.124877
223 2 0.00129746 9.27973 0.123077 4.50138
46 1 -0.662511 10.5415 3.93393 8.62495
32 2 0.157742 5.03143 6.34022 5.71906
28 2 0.169376 13.3989 0.743968 10.491
36 2 0.175983 11.387 3.1821 8.93728
37 2 0.13066 9.4752 4.12102 9.4103
297 2 0.113396 9.40179 0.796966 10.6018
162 2 -0.0113281 11.0522 5.00143 10.2643
92 2 -0.0275769 12.6318 1.57219 16.4416
93 2 -0.0210549 11.0719 3.44983 16.4512
10 4 1.50856 7.14459 6.05435 17.4196
295 2 0.177357 10.0834 1.96523 9.18445
102 4 1.24544 4.85131 6.0468 15.3435
218 2 0.190732 5.17693 2.84051 15.3965
107 2 -0.00689489 6.22024 2.23433 10.4737
249 2 0.0406375 7.91775 5.50388 9.01767
114 2 0.066875 7.13028 2.53217 15.0116
127 1 -0.603737 7.68158 0.868938 15.0727
137 3 -0.837883 4.91021 3.74717 12.5513
292 2 0.16243 7.12988 2.87226 9.20388
139 3 -0.834444 4.04106 4.83462 14.6901
140 3 -0.854439 6.04014 5.54006 16.3327
191 3 -0.824715 8.669 6.3655 16.8539
187 4 0.66365 7.8315 3.85983 13.8075
188 2 -0.0057125 8.50581 2.24793 13.9754
189 2 -0.00701768 8.36627 3.86853 12.0693
190 2 0.0633956 6.21151 4.26946 13.69
186 4 1.25895 9.33343 6.34093 15.4056
192 3 -0.779035 8.59634 4.92566 14.5861
135 3 -0.797413 6.11804 1.20643 12.8913
252 2 0.192992 5.52924 6.08592 12.0926
298 1 -0.652618 9.79677 0.870886 9.47049
251 2 0.140584 8.339 3.46808 10.3053
242 2 0.131462 11.1716 1.85728 12.3502
243 2 0.167869 11.8301 0.799149 10.8954
244 2 0.115637 12.3452 1.36085 14.551
245 1 -0.662152 12.0613 1.25391 11.9432
43 1 -0.689648 14.1803 0.421739 9.6752
299 2 0.114235 8.81356 0.660229 14.8646
255 1 -0.657695 7.73133 4.39652 10.352
250 2 0.13899 6.65408 4.19947 10.6151
247 4 0.731379 7.87771 6.23001 10.8789
241 2 0.11395 13.0474 1.81561 11.9657
138 3 -0.776555 3.17102 6.01463 12.3706
117 2 0.16835 5.32984 4.81609 9.16285
13 4 1.50065 7.71862 8.28236 1.5316
14 4 0.949999 7.00145 8.12817 6.88755
15 4 1.22507 6.59879 10.7387 5.46165
207 1 -0.668962 8.25276 12.2965 1.53623
201 4 1.07251 8.77357 10.8301 3.05041
158 2 0.0693126 9.95351 8.15731 7.36308
34 2 0.189847 4.78888 7.90622 4.66193
38 2 0.15732 5.36283 11.0312 3.37964
262 2 0.0677534 5.28478 11.519 0.463316
40 2 0.12906 4.33524 11.1224 5.11045
20 2 -0.0338462 6.86057 8.74681 8.45294
47 1 -0.672291 5.19477 11.5851 4.40846
63 3 -0.814551 6.80964 7.64524 2.7795
64 3 -0.819852 8.38393 7.08639 0.678511
65 3 -0.773032 8.9255 9.3296 2.23475
66 3 -0.813105 6.90441 9.17673 0.452546
67 3 -0.793229 8.46586 7.69157 6.56414
68 3 -0.76848 7.82946 10.9895 4.37933
69 3 -0.809871 6.30202 9.17524 5.90032
70 3 -0.795061 6.85944 11.7775 6.95923
172 2 0.131236 2.83014 10.6441 3.67662
173 2 0.149004 4.20592 9.44556 3.13182
174 2 0.142298 3.27762 9.16351 4.80465
178 1 -0.665257 3.24873 9.57038 3.74647
6 4 1.19815 6.02811 12.65 8.04172
224 2 -0.0390021 2.1787 10.4017 5.19675
278 2 -0.0274593 4.18684 12.6507 3.0373
263 2 0.163337 3.5696 10.2998 0.856917
222 4 0.655996 1.27245 11.7708 5.68319
233 3 -0.723498 1.13913 12.3183 7.19832
267 2 -0.0490178 4.56586 9.14044 8.19268
60 3 -0.806063 10.0732 6.59733 4.32765
17 2 -0.0074029 3.1607 12.0586 0.85121
21 2 -0.0085579 6.07348 6.73599 7.28654
285 2 0.150638 7.80479 11.3047 1.04017
39 2 0.158935 5.3504 12.7304 4.38166
45 1 -0.668168 4.83664 6.72451 4.69438
18 2 -0.019297 4.03435 12.8241 5.50444
270 3 -0.807528 4.54209 11.6579 8.65997
115 2 0.100931 4.64785 6.69855 8.63726
209 2 0.0664723 10.0498 9.28414 0.831281
141 3 -0.807297 3.79487 6.97262 16.0187
122 2 0.119355 2.88951 8.52403 9.23652
113 2 -0.0117181 5.49559 6.91792 13.9452
307 2 0.133235 2.6171 12.5307 12.0743
123 2 0.0440413 3.48101 8.84887 11.4285
130 1 -0.633098 2.50829 8.31153 10.2616
265 4 0.939428 4.61883 10.3091 9.39217
246 1 -0.646856 5.1298 12.9539 15.0227
308 1 -0.661415 3.01951 11.6857 12.7564
248 2 0.0202774 6.88318 7.63853 10.4692
106 2 -0.018975 1.09564 12.0239 12.7104
257 3 -0.786579 9.33274 6.70976 11.3395
256 1 -0.66631 6.11079 7.07421 12.1126
258 4 0.703116 4.18168 10.3792 16.9655
259 2 -0.0163524 5.18272 11.0951 15.6773
260 2 0.0201074 2.70922 9.55046 16.2587
96 4 0.687886 -0.234708 12.7901 13.621
264 1 -0.655662 2.37166 10.9309 17.4781
303 2 0.15623 6.07034 12.7115 15.5619
254 2 0.123918 6.89588 7.03497 12.9483
284 1 -0.67953 8.81957 7.99127 14.5044
266 4 1.22955 6.76388 10.1966 11.5999
268 2 0.00737765 3.12867 10.1591 10.2888
269 2 0.00741463 6.82322 8.85604 12.651
271 3 -0.844312 8.26799 10.3481 11.2007
272 3 -0.846398 5.73019 9.89963 10.4343
273 3 -0.77106 6.15056 11.3287 12.5969
281 2 0.134828 7.96617 8.28072 15.1154
282 2 0.166322 8.45976 7.36885 13.5655
240 4 0.843812 4.88938 12.3852 13.0441
253 2 0.157794 5.44839 7.98847 11.9995
302 2 0.216797 7.56059 12.239 9.91364
305 2 0.127573 2.6455 11.6715 13.804
306 2 0.147114 3.14997 10.7436 12.2013
261 2 0.134191 1.79978 11.4852 16.7016
300 2 0.149226 0.109227 12.9919 15.907
296 2 0.269344 3.39636 12.8723 9.20006
227 2 0.141766 0.662298 11.4232 10.9382
225 2 0.15467 0.863481 10.6678 9.14566
304 2 0.118836 4.1604 12.7545 15.5966
ITEM: TIMESTEP
100
ITEM: NUMBER OF ATOMS
310
ITEM: BOX BOUNDS xy xz yz pp pp pp
-9.2093759999999989e+00 1.5719628000000000e+01 -7.3467539999999998e+00
0.0000000000000000e+00 1.3079499999999999e+01 -1.8626220000000000e+00
0.0000000000000000e+00 1.7503399999999999e+01 3.3839999999999998e-01
ITEM: ATOMS id type q x y z
4 4 1.46712 4.84302 4.28824 1.66565
3 4 1.13577 3.57134 1.78492 2.58888
280 2 0.159632 1.93615 1.03877 6.23302
71 4 0.749338 -1.19277 2.14568 3.80008
23 2 0.147169 3.59486 1.11394 4.80885
24 2 0.159151 5.31271 1.18076 4.38874
25 2 0.148808 0.968105 1.04955 2.38931
26 2 0.158364 1.32517 2.90025 3.07443
27 2 0.125748 1.76416 1.39189 4.28195
41 1 -0.686723 4.34459 0.802404 4.01176
42 1 -0.629184 1.66092 1.79654 3.13002
48 3 -0.760651 3.60354 0.807616 1.17601
49 3 -0.822399 3.86173 3.29899 2.5236
51 3 -0.793261 3.88983 5.79952 0.991206
230 2 0.154553 6.25673 0.193995 4.60486
72 2 -0.0097535 0.415894 2.47364 4.53505
73 2 0.00434431 -1.70159 3.74895 0.721018
74 2 0.148465 -0.72416 4.24394 3.09895
152 4 1.44433 -2.16747 6.32362 6.03249
76 1 -0.645517 -1.32298 3.42246 2.5979
275 2 0.00279543 -0.499046 2.56408 1.16156
110 2 -0.0302709 2.1661 5.08346 7.59917
50 3 -0.852857 5.52355 3.50362 0.449087
150 4 0.791247 -0.753422 3.8784 7.86752
159 2 0.0125266 0.85576 5.17408 5.87793
163 2 0.153435 1.78351 3.56191 6.28
164 2 0.0678836 -0.0784096 2.37633 6.78306
165 2 0.181218 1.47834 3.32654 8.05803
175 1 -0.628571 1.01287 3.63188 7.04834
179 3 -0.790992 -3.17936 5.54368 4.99084
180 3 -0.753053 -1.41501 5.1038 7.0332
195 2 0.0325688 -2.18028 5.9279 0.265164
196 2 0.165456 -0.802128 5.23741 1.7673
310 3 -0.844856 6.88299 1.14097 0.997213
198 1 -0.659349 -0.499848 6.28418 1.25505
197 2 0.156228 0.472386 6.12862 0.695095
33 2 0.173463 3.78109 6.24329 3.91474
94 4 0.626806 0.15056 1.99246 12.0536
95 4 1.23142 2.66162 2.23842 10.6132
147 2 0.0937044 -2.20155 6.29786 13.2137
219 2 0.176449 3.27461 2.488 15.7495
103 2 0.0228786 -0.251215 0.457866 11.3005
104 2 0.00638947 -0.524298 2.38979 10.5341
105 2 -0.0583835 -0.785098 2.10309 13.4419
108 2 0.0230742 1.29966 5.31839 16.053
111 2 0.0772843 2.2477 3.65295 12.9716
290 1 -0.661308 0.666315 0.585988 16.0463
156 2 0.0405087 -1.76435 3.08511 9.23117
132 3 -0.815494 1.83621 1.38404 9.35078
133 3 -0.804376 1.61742 2.30957 12.2707
134 3 -0.813972 3.97167 1.3709 11.2138
168 2 0.156641 -1.07348 5.24087 9.83519
136 3 -0.77535 3.15154 3.74295 9.80362
100 4 1.14977 3.67399 4.61002 13.1288
276 2 0.0730657 3.2613 0.756864 12.8493
144 2 -0.0687953 -2.20724 4.89063 15.2482
301 2 0.155527 -0.568001 1.02337 9.02392
99 4 0.712859 3.29589 5.04898 8.92798
220 1 -0.646956 4.32478 2.02492 15.8119
289 2 0.156167 -0.00378693 1.28648 16.5484
120 2 0.150762 0.720878 6.00538 13.0391
288 2 0.0977312 1.48525 1.20508 15.3358
97 4 1.14011 5.23378 2.23229 11.8412
167 2 0.0865247 -0.689785 3.91849 11.2695
176 1 -0.639981 -0.542006 4.26469 9.98642
217 2 0.124111 4.42421 1.0421 15.1841
166 2 0.138876 0.567309 4.37664 9.69206
16 2 0.0265789 3.63451 0.469695 16.7236
98 4 0.99216 2.33158 6.49452 16.9569
142 4 0.681619 -2.88284 6.43244 15.3302
149 3 -0.753755 -4.44204 6.50227 15.3703
151 4 0.887557 -4.60494 6.55925 10.9077
291 2 0.113317 6.18116 0.98153 9.40412
109 2 0.0245621 2.80717 6.51014 9.90243
208 4 0.95348 -3.84775 9.43657 0.14855
171 2 0.147716 -4.08154 10.4499 7.37992
209 2 0.102119 -5.27704 9.45066 1.07613
153 4 0.936554 -3.91615 8.17621 8.00995
154 4 0.905796 0.665796 6.84233 5.50151
155 4 1.00046 2.18051 8.09774 2.81698
22 2 0.160302 -2.86584 12.4078 3.93616
160 2 -0.0571593 1.3391 7.53345 6.86116
83 2 0.144756 -4.82717 11.9714 6.34742
177 1 -0.650752 -3.25286 9.88194 8.02428
169 2 0.177733 -2.21896 9.69336 7.52727
182 3 -0.803055 -2.96772 7.2675 7.07858
183 3 -0.776623 -0.823206 7.19166 5.45685
184 3 -0.761735 1.45152 7.34484 4.08653
185 3 -0.806641 1.32908 8.93671 1.72989
193 4 1.09209 -2.40302 7.12864 1.49633
194 2 0.166713 -0.285398 7.28824 2.11004
279 2 0.20708 -6.537 12.5154 6.91856
234 4 1.05286 0.45804 9.88195 0.83951
161 2 0.0827198 3.14358 7.07412 1.89666
200 3 -0.840556 -2.75778 8.48565 0.808912
202 2 0.164493 -4.31144 11.5064 2.62526
203 2 0.201263 -4.22962 9.73984 3.43872
204 2 0.164352 -4.54003 11.2891 4.55552
205 2 0.154758 -6.27866 12.5304 1.12037
206 1 -0.653116 -4.68938 10.8089 3.51656
211 4 0.996879 -0.0874681 12.7386 1.99565
199 3 -0.845437 -3.23983 6.58008 2.64849
80 2 0.0243879 -3.66712 12.6618 7.67333
214 3 -0.825201 -0.0711346 11.2247 1.40681
229 2 0.0191894 -0.414139 11.3133 4.90332
212 2 0.0438989 -1.61306 12.6305 2.78362
87 1 -0.66994 -5.40559 12.8384 6.83435
157 2 0.00782225 -3.65667 6.84988 12.2947
78 4 1.22683 -5.70479 10.5264 10.8634
79 4 0.734544 -4.37589 11.9522 13.3765
210 2 0.00122531 -6.18751 9.2115 16.1052
170 2 0.198066 -3.23793 10.1354 9.14716
82 2 0.102123 -5.14616 8.94904 10.5335
84 2 0.151587 -2.56494 10.5864 13.2509
85 2 0.153108 -3.58627 9.94943 14.8902
86 2 0.0885908 -2.76591 11.8434 15.0348
88 1 -0.637709 -3.13774 10.8696 14.3117
89 3 -0.836447 -5.19729 11.3157 9.49603
90 3 -0.790575 -4.95431 11.0907 12.1579
119 2 0.175214 -0.58329 7.31486 13.1127
277 2 -0.00491735 -1.31311 11.494 14.0799
121 2 0.147773 1.29682 8.4627 10.4297
146 2 0.177847 -3.47656 8.05317 13.5552
148 1 -0.613706 -2.53223 7.41753 13.7935
145 2 0.123969 -1.60468 8.02867 14.3875
118 2 0.130694 0.390058 7.19842 11.4369
225 2 0.171732 0.0125204 10.4335 9.33985
236 2 0.168351 -0.38984 8.8541 16.24
239 1 -0.660451 -0.952843 9.91098 16.4908
129 1 -0.627434 0.46716 7.04671 12.6861
283 2 0.153326 -5.61533 8.66731 14.339
226 2 0.136208 -0.618766 12.0139 10.2798
181 3 -0.769818 -4.28476 7.70922 9.83932
287 2 0.157254 -7.09557 12.5317 15.523
237 2 0.177737 -1.80946 10.1797 15.8744
235 2 0.108268 -0.149815 10.9677 16.6097
238 2 0.0470042 -2.5731 9.34701 17.384
81 2 -0.0206496 -5.5093 12.3515 14.6501
131 1 -0.649662 0.666425 7.0959 15.9922
124 2 0.155058 0.535844 6.94841 14.8127
125 2 0.109963 1.36117 8.27376 16.2161
1 4 0.989614 -5.19103 12.9104 17.3215
112 2 0.033979 1.32522 8.23668 13.6407
231 1 -0.650716 0.298152 11.3901 9.87729
77 4 1.0519 -5.06866 12.7003 8.75357
126 2 0.129825 -0.300239 7.06252 16.6429
309 3 -0.813998 -5.42314 11.3261 17.4726
143 2 -0.000326228 -2.35494 7.08527 16.9211
2 4 1.51422 11.2546 5.80185 3.74335
223 2 -0.0122455 9.31009 0.214118 4.68799
5 4 0.909074 11.1565 0.758421 1.82854
61 3 -0.869986 7.43581 5.91313 4.59562
7 4 1.27298 11.835 1.66001 6.02104
8 4 1.2721 9.66334 3.3831 2.35648
62 3 -0.830351 9.26379 4.90449 6.26795
215 4 1.09208 6.63864 2.43441 0.0828321
11 4 1.10075 9.70238 3.60082 7.02156
19 2 0.00593841 8.40219 2.84549 7.92878
294 2 0.17154 6.67163 2.01869 7.73563
228 2 0.1491 7.7417 1.21172 4.96442
128 1 -0.673794 4.95385 5.55601 8.3205
29 2 0.17851 7.90463 2.13634 3.81284
30 2 0.252792 7.49604 3.88361 3.07744
31 2 0.226466 8.58502 3.69957 4.49079
32 2 0.152035 4.79701 6.04401 5.48462
116 2 0.120542 4.77012 5.30896 7.16629
44 1 -0.693044 8.2581 3.20675 3.55189
75 2 0.231154 12.9118 3.58265 2.64071
12 4 1.42771 8.85168 6.26882 5.34068
52 3 -0.780039 12.344 1.38035 1.0203
53 3 -0.782007 12.9463 1.9797 4.88362
54 3 -0.814863 12.6111 1.27801 7.36507
55 3 -0.804098 9.95128 1.80135 1.94392
56 3 -0.803586 10.7745 4.11227 3.13099
57 3 -0.800511 5.89952 4.9418 2.57965
58 3 -0.816385 8.97649 4.45578 0.850543
59 3 -0.836077 10.6482 2.60813 6.30984
232 1 -0.674041 7.35925 0.306687 4.38977
18 2 -0.0227125 11.2923 0.14473 5.41774
274 2 0.010429 14.5991 0.628667 2.99051
35 2 0.16654 10.7749 5.07184 8.41229
9 4 1.31701 6.33354 6.41765 3.60977
91 4 0.590822 13.4672 2.10551 0.160903
286 2 0.149573 14.5922 0.257378 1.38067
216 2 0.106002 8.0867 3.32019 0.040066
213 2 0.0304988 8.59898 0.197443 2.95057
28 2 0.169123 13.4525 0.631774 10.4737
36 2 0.164441 11.0977 3.25984 9.17826
37 2 0.15005 9.32872 4.13316 9.52085
297 2 0.140603 9.84167 0.731791 10.7755
162 2 -0.0157547 11.3052 5.04405 10.2852
92 2 -0.0178545 12.3665 1.35389 16.4456
93 2 -0.0408538 11.064 3.34914 16.3216
293 1 -0.626028 7.00133 1.79943 8.75532
295 2 0.162412 10.0785 1.98772 9.34036
102 4 1.21832 4.8255 6.05745 15.3049
218 2 0.17405 5.16529 2.75447 15.2949
107 2 0.0169843 6.27045 2.43329 10.4822
249 2 0.0301255 7.68664 4.98549 9.20229
114 2 0.0438167 7.10912 2.83314 14.8541
127 1 -0.60942 7.48137 1.06729 15.2107
137 3 -0.833936 5.03531 3.75059 12.347
292 2 0.155651 7.39115 2.75139 9.39912
139 3 -0.808681 3.96662 4.68074 14.7181
140 3 -0.85061 6.11881 5.83465 16.1895
191 3 -0.820949 8.562 6.60689 16.8235
187 4 0.665659 8.20694 3.88907 13.7625
188 2 -0.0242461 8.74008 2.35609 14.3108
189 2 -0.00027412 8.90282 3.72582 12.1213
190 2 0.0512025 6.64412 4.11794 13.204
186 4 1.244 9.17549 6.49555 15.3605
192 3 -0.787897 8.71923 5.17541 14.4073
135 3 -0.793345 6.06451 1.2156 12.8562
252 2 0.186112 5.94509 5.82354 12.0366
298 1 -0.650577 9.88947 0.83142 9.65771
251 2 0.126752 8.20227 3.18965 10.6883
242 2 0.129341 11.3721 2.03417 12.1735
243 2 0.18087 11.9166 0.983734 10.8161
244 2 0.11812 12.7044 1.15127 14.566
245 1 -0.679234 12.1593 1.33889 11.8449
43 1 -0.660483 14.2268 0.216891 9.56231
299 2 0.125211 8.58326 0.738462 15.2982
255 1 -0.650702 7.68345 4.24018 10.7057
250 2 0.169566 6.66213 4.1974 11.163
247 4 0.742566 7.83128 6.19036 10.7358
241 2 0.107415 13.157 1.87135 11.9474
138 3 -0.783844 3.29134 6.04053 12.6379
117 2 0.16374 5.58451 4.76079 8.8739
300 2 0.143005 6.7548 0.694972 16.0655
257 3 -0.785813 9.27426 6.56469 11.2291
46 1 -0.674089 10.3264 4.0163 8.78014
10 4 1.56862 7.08089 6.14426 17.4936
13 4 1.47901 7.59953 8.14682 1.51854
14 4 0.944775 7.01044 8.07051 6.82432
15 4 1.26254 6.76199 10.738 5.59964
207 1 -0.66681 8.14287 12.2296 1.57053
201 4 1.14166 8.93836 10.7672 3.01567
158 2 0.109934 9.94736 8.08148 7.18972
34 2 0.187663 4.70888 7.8153 4.71485
38 2 0.155605 5.16528 10.9882 3.49113
262 2 0.0284803 5.69108 11.7466 0.16569
40 2 0.134064 4.46722 11.1877 5.33093
20 2 -0.0368033 6.74849 8.31754 8.49891
47 1 -0.658042 5.2858 11.5317 4.54571
63 3 -0.821878 6.5164 7.79232 2.72761
64 3 -0.890724 8.39256 7.03011 0.791901
65 3 -0.765794 8.89046 9.465 2.13562
66 3 -0.792495 6.8688 9.20397 0.501086
67 3 -0.812238 8.53001 7.73682 6.58479
68 3 -0.746876 8.0772 10.8134 4.33608
69 3 -0.817922 6.31007 9.16112 5.92659
70 3 -0.839156 6.90373 11.7132 6.80568
172 2 0.143577 2.80468 10.4385 3.74548
173 2 0.151895 4.12346 9.05622 3.46813
174 2 0.146103 3.01075 9.08815 5.03884
178 1 -0.641246 3.06873 9.40661 3.90355
6 4 1.20874 5.95653 12.5504 7.98866
224 2 -0.0322423 2.14859 10.415 5.32719
270 3 -0.815664 4.69948 11.544 8.67647
263 2 0.165995 4.27378 10.141 0.874794
222 4 0.616472 1.19979 11.7961 5.66318
233 3 -0.715067 1.07783 12.2966 7.3205
267 2 -0.0555565 4.32872 8.98482 8.16621
60 3 -0.837955 10.0009 6.64945 4.31772
17 2 -0.0123529 3.51197 12.0743 0.989034
21 2 -0.01369 6.01503 6.64785 7.09688
285 2 0.17605 7.77295 11.296 1.0069
39 2 0.165113 5.58891 12.6344 4.4554
45 1 -0.666629 4.68389 6.64682 4.5704
115 2 0.0942419 5.22699 6.69616 8.69185
278 2 -0.0393313 4.3189 12.7608 3.27892
141 3 -0.801149 3.81523 6.96843 16.1162
122 2 0.115715 2.82986 8.42305 9.43964
113 2 -0.00620653 5.37564 7.07077 13.9908
307 2 0.123136 2.54837 12.7427 12.3381
123 2 0.00562954 3.46369 9.07517 11.6403
130 1 -0.64481 2.36789 8.25117 10.4407
265 4 0.94238 4.62836 10.1513 9.3802
246 1 -0.652414 5.31915 12.7996 14.9752
308 1 -0.634664 3.01022 11.7473 12.7062
248 2 0.0209727 6.6955 7.52503 10.4368
106 2 -0.00388479 1.21346 12.1114 13.2234
227 2 0.151477 1.16077 11.2736 10.6159
256 1 -0.6651 6.10304 6.91653 12.1648
258 4 0.709827 4.35394 10.503 16.9808
259 2 -0.0284873 5.06174 10.9038 15.4585
260 2 0.0542088 2.66321 9.78482 16.2637
96 4 0.69553 -0.343395 12.9255 13.79
264 1 -0.635954 2.45343 10.9507 17.3685
303 2 0.14479 6.21522 12.306 15.4628
254 2 0.145535 6.73244 7.12043 13.0538
284 1 -0.661328 8.72571 8.15317 14.5143
266 4 1.21961 6.67066 10.1961 11.5502
268 2 -0.000989651 3.06679 10.0871 10.1963
269 2 -0.00097514 6.6238 8.76041 12.5363
271 3 -0.854246 8.20573 10.3286 11.1232
272 3 -0.824506 5.8736 9.82248 10.2344
273 3 -0.800405 5.87624 11.3727 12.3494
281 2 0.13211 7.93036 8.95677 14.876
282 2 0.173912 8.42463 7.64538 13.5175
240 4 0.86815 4.85659 12.4287 12.9332
253 2 0.171381 5.11912 7.41441 12.2903
304 2 0.114135 4.29769 12.6595 15.4563
305 2 0.0978152 3.07484 11.5516 13.9649
306 2 0.146694 2.95507 10.7883 12.1257
261 2 0.147805 1.52574 11.5068 17.1296
101 4 0.695306 2.43597 7.61206 12.2074
302 2 0.222861 7.57442 11.9681 9.77846
221 4 0.869529 0.94468 12.8417 8.85797
296 2 0.243047 3.48342 12.849 9.20859
ITEM: TIMESTEP
200
ITEM: NUMBER OF ATOMS
310
ITEM: BOX BOUNDS xy xz yz pp pp pp
-9.3899520000000010e+00 1.6027856000000000e+01 -7.4908080000000012e+00
0.0000000000000000e+00 1.3079499999999999e+01 -1.8991439999999997e+00
0.0000000000000000e+00 1.7503399999999999e+01 3.3839999999999998e-01
ITEM: ATOMS id type q x y z
4 4 1.43004 4.8192 4.24382 1.57065
3 4 1.08117 3.43177 1.77935 2.68339
280 2 0.159474 1.63221 1.27239 6.75026
71 4 0.740287 -1.42718 2.09204 3.80217
23 2 0.13896 3.70455 1.37165 5.15363
24 2 0.149171 5.19518 1.77508 4.06157
25 2 0.165931 0.862422 0.912445 2.75293
26 2 0.161958 1.44841 2.79142 3.06533
27 2 0.15167 1.81959 1.41862 4.5168
41 1 -0.651375 4.26154 1.02374 4.16482
42 1 -0.648827 1.55614 1.69882 3.34509
48 3 -0.752736 3.63437 0.621613 1.28142
49 3 -0.818352 3.87507 3.2933 2.42566
51 3 -0.793563 3.81799 5.76454 0.941945
33 2 0.16657 3.859 6.07991 4.11962
72 2 0.0150685 0.0766841 2.39932 4.54878
73 2 -0.00643348 -1.50867 3.6128 0.720821
74 2 0.164241 -0.877795 4.32481 3.09705
152 4 1.43287 -2.26306 6.26712 6.1965
76 1 -0.63115 -1.3704 3.36517 2.63003
275 2 0.0184729 -0.605664 2.35002 1.36597
110 2 -0.037221 2.15125 5.05969 7.84836
50 3 -0.812581 5.48075 3.31776 0.316316
150 4 0.810454 -0.594524 4.01124 7.852
159 2 0.0135509 1.00577 5.33862 6.00992
163 2 0.150057 1.90256 3.61709 6.08356
164 2 0.0761354 0.0975711 2.51571 6.58248
165 2 0.144665 1.63362 3.47362 7.99771
175 1 -0.62612 1.1308 3.67433 6.92632
179 3 -0.752289 -3.23814 5.56526 5.18915
180 3 -0.790483 -1.43847 5.05677 7.05371
195 2 0.0447686 -2.48333 5.77453 0.245116
196 2 0.170635 -1.06788 5.12361 1.68721
310 3 -0.819628 6.93938 1.2105 1.02375
198 1 -0.67588 -0.818639 6.11797 1.09364
197 2 0.141365 -0.007678 5.86427 0.358971
212 2 0.0254712 5.52045 0.095649 2.87507
94 4 0.640074 0.184711 2.01166 11.7036
95 4 1.25564 2.77783 2.23535 10.5522
157 2 0.00690769 -4.16299 6.52817 12.3509
219 2 0.198303 3.39522 2.56609 15.5886
103 2 0.0288506 -0.161338 0.471742 11.2604
104 2 0.00136186 -0.175962 2.57828 10.1834
105 2 -0.0564616 -1.04964 2.37207 12.7795
108 2 -0.00380336 1.20572 5.38429 15.7891
111 2 0.087922 2.55147 3.44771 12.8641
290 1 -0.643578 1.28842 0.872974 16.0032
156 2 0.0408279 -1.62489 3.10094 9.05455
132 3 -0.841333 1.8913 1.34143 9.48262
133 3 -0.782646 1.63979 2.32092 12.1835
134 3 -0.822795 4.21278 1.37579 11.2628
168 2 0.160598 -1.14925 5.47241 9.80478
136 3 -0.815188 3.24706 3.65136 9.90482
100 4 1.13307 3.86749 4.56447 13.1066
276 2 0.0809222 3.36101 0.653158 12.6954
144 2 -0.0696539 -2.5358 4.99568 15.2725
301 2 0.146656 -0.579233 1.03513 8.9554
99 4 0.702477 3.3423 5.02659 9.14686
220 1 -0.656596 4.3463 2.06137 15.8048
289 2 0.157965 0.704714 1.73511 16.5827
120 2 0.138977 0.537196 6.05954 13.3055
288 2 0.129043 2.20469 1.26919 15.3087
97 4 1.11928 5.47823 2.0835 11.7088
167 2 0.0966648 -0.762316 3.99037 11.0514
176 1 -0.641924 -0.606518 4.47882 9.87716
217 2 0.127066 4.35742 1.01282 15.3631
166 2 0.104942 0.564022 4.69237 9.67182
16 2 0.0226652 3.52767 0.535661 16.7156
98 4 1.03177 2.16806 6.37564 16.8961
142 4 0.679248 -3.22894 6.58119 15.2941
149 3 -0.778026 -4.82342 6.55291 15.4318
109 2 0.0313571 2.93477 6.37405 10.2194
291 2 0.151797 5.93127 1.54876 8.77108
208 4 0.948252 -3.95335 9.35752 0.296775
171 2 0.12468 -4.14711 10.3912 7.45039
80 2 0.00316252 -3.77553 12.5703 7.72297
153 4 0.959759 -4.24129 8.20948 7.98905
154 4 0.9387 0.464786 6.90564 5.37102
155 4 1.02754 2.04082 7.9266 3.0036
22 2 0.145033 -2.74063 12.7083 4.48168
160 2 -0.0669984 0.996913 7.81197 6.66529
83 2 0.153496 -4.57108 12.6809 6.12264
177 1 -0.648223 -3.28653 9.74561 8.00489
169 2 0.180394 -2.34761 9.84386 7.4901
182 3 -0.776953 -3.25838 7.29724 7.16678
183 3 -0.770811 -1.10201 7.07223 5.22258
184 3 -0.837413 1.33862 7.15662 4.12419
185 3 -0.794748 1.19715 8.85119 1.91865
193 4 1.10863 -2.58282 7.02104 1.4483
194 2 0.163424 -0.465723 6.96859 2.01063
279 2 0.196134 -6.31651 12.1157 6.69646
234 4 1.01941 0.406705 9.81584 0.914834
161 2 0.0887955 2.86602 6.86535 1.96482
200 3 -0.840995 -2.77269 8.43886 0.82879
202 2 0.221193 -4.18216 11.3423 2.71684
203 2 0.18867 -4.58971 9.76269 3.52139
204 2 0.180732 -4.75454 11.3485 4.40328
205 2 0.128949 -6.52375 12.1147 1.76312
206 1 -0.687342 -4.75145 10.8717 3.43205
211 4 0.997656 -0.387788 12.7161 1.96257
199 3 -0.794217 -3.50589 6.44941 2.48462
230 2 0.145626 -0.996342 12.7187 4.59037
214 3 -0.822121 -0.0897669 11.3229 1.3861
229 2 0.00319355 -0.281707 11.1439 5.01887
209 2 0.0642933 -5.36958 9.18733 1.23261
309 3 -0.829387 -3.67711 10.9106 0.20944
77 4 1.04627 -5.23161 12.7074 8.70499
1 4 1.03301 -3.33705 12.4452 0.0378319
87 1 -0.690737 -5.45312 12.8709 6.79824
238 2 0.0605848 -0.812875 8.90454 0.0670473
143 2 -0.00542358 -2.67807 7.28354 16.8085
78 4 1.2324 -5.82607 10.5509 10.786
79 4 0.780942 -4.45859 11.9076 13.19
210 2 -0.00409197 -6.40442 9.16033 16.299
170 2 0.167801 -3.19297 10.0143 9.14434
82 2 0.0736507 -5.34655 8.98714 10.4818
84 2 0.133772 -2.41718 10.8867 13.3588