ITEM: TIMESTEP
0
ITEM: NUMBER OF ATOMS
295
ITEM: BOX BOUNDS xy xz yz pp pp pp
-8.3339999999999996e+00 1.5144700000000000e+01 -7.6974000000000000e+00
0.0000000000000000e+00 1.4189300000000001e+01 -6.3660000000000005e-01
0.0000000000000000e+00 1.6498000000000001e+01 5.8050000000000002e-01
ITEM: ATOMS id type q x y z element
6 4 1.03442 0.745846 1.23681 6.33603 Si
7 4 1.08148 -0.343725 3.35421 2.39106 Si
8 4 0.804774 -0.435688 3.60237 7.73811 Si
10 4 0.860721 -1.20567 5.53201 5.7016 Si
25 4 1.16443 1.02239 5.8099 3.85053 Si
27 4 0.715293 3.00158 6.35201 6.12375 Si
50 1 -0.124818 3.05746 0.851866 2.92488 C
51 1 -0.0845908 2.12417 2.60458 5.39763 C
52 1 -0.151111 -1.69681 4.21392 1.02995 C
79 3 -0.740298 -0.383602 0.614738 5.24531 O
81 3 -0.774039 -1.09328 2.56005 3.57926 O
3 4 0.980159 0.743076 1.52083 0.0458784 Si
112 3 -0.698995 1.65651 6.63405 0.238898 O
82 3 -0.77142 0.505454 2.30126 1.49497 O
84 3 -0.727058 0.0996026 2.08633 7.65354 O
85 3 -0.683021 -0.346913 4.26541 6.2724 O
96 3 -0.802311 4.17381 0.797563 7.60593 O
102 3 -0.754827 0.668863 4.48505 3.00038 O
103 3 -0.748658 -0.401178 6.36221 4.5306 O
104 3 -0.801497 4.15767 3.6483 7.92154 O
106 3 -0.712317 2.06549 5.57616 5.03674 O
249 2 0.145038 2.52107 4.86888 1.0581 H
111 3 -0.755996 2.70569 6.84442 2.70923 O
171 2 0.0747093 2.51563 1.74323 2.57914 H
176 2 0.0109216 -2.3459 4.762 1.67028 H
173 2 0.101018 1.78301 2.7771 4.38743 H
174 2 0.0274535 3.04316 2.05264 5.38238 H
175 2 0.126003 2.13616 3.46194 6.02592 H
281 2 0.28369 -1.85397 6.54338 7.95828 H
251 2 0.100704 3.45984 3.30241 0.740425 H
90 3 -0.677327 -1.52293 6.98008 7.0817 O
178 2 0.0466353 -1.10193 4.78848 0.300781 H
78 3 -0.710951 1.47353 0.0560849 0.300774 O
161 2 0.0950581 5.48902 1.62823 5.7048 H
247 1 -0.0592978 3.4123 4.24594 1.24476 C
158 2 0.0677271 4.83458 1.38009 5.33523 H
250 2 0.0590056 3.80038 4.22286 2.24147 H
170 2 0.0319358 2.68586 0.335406 3.80527 H
276 2 0.032857 5.55957 1.81588 1.81629 H
172 2 0.0281783 4.10362 0.943568 2.85964 H
189 2 0.0501952 -1.24003 6.79703 1.23055 H
289 2 0.00861536 -2.86292 6.38735 0.388593 H
179 2 0.0517134 1.13971 5.50434 8.12798 H
100 3 -0.8252 6.00822 0.810959 11.8987 O
260 2 0.0184717 1.23418 6.47913 13.0725 H
19 4 0.705545 5.02492 3.17126 15.8133 Si
152 2 0.3437 5.36703 0.86315 14.8205 H
23 4 0.977201 2.33556 2.66733 14.5326 Si
28 4 1.13187 4.41243 4.13063 12.8792 Si
180 2 0.0540268 1.7686 4.00918 8.93943 H
61 1 -0.120881 2.70035 1.75774 9.87811 C
269 2 0.0470058 -1.43102 2.80776 12.4576 H
64 1 -0.0773053 2.47031 0.746269 13.5428 C
53 1 -0.117941 0.948438 4.70006 8.83882 C
97 3 -0.67411 3.44549 2.60308 15.7299 O
98 3 -0.714116 0.841451 2.90214 15.2682 O
99 3 -0.789433 5.61254 2.07064 9.49329 O
108 3 -0.746169 2.89551 3.81913 13.4311 O
109 3 -0.820585 4.65125 3.1234 11.6375 O
24 4 1.3608 5.86702 2.22601 11.1132 Si
20 4 1.07385 4.29954 2.11068 8.55205 Si
148 2 -0.0104582 -1.80349 6.85004 12.9856 H
130 3 -0.645527 5.58528 1.75459 14.3715 O
181 2 0.0186928 0.416935 5.04133 9.71521 H
267 1 -0.122052 -0.997968 3.22765 11.5686 C
86 3 -0.731118 -2.73371 6.76562 10.5196 O
197 2 0.0389665 2.86392 0.81688 10.3938 H
198 2 0.0647923 1.83763 1.78187 9.23688 H
199 2 0.0824452 2.84355 2.58214 10.5867 H
285 2 0.0278073 -0.232806 2.63683 11.1022 H
259 2 0.132884 1.34629 5.07032 14.3007 H
268 2 0.0353861 -0.814191 4.30739 11.5703 H
154 2 0.0183128 3.27291 5.02572 10.1444 H
256 1 -0.0936066 0.911019 6.07669 14.0448 C
208 2 0.0530556 1.49304 0.596454 13.0335 H
185 2 -0.0029814 0.747987 6.91485 11.241 H
83 3 -0.678612 -2.21648 4.18436 8.61031 O
261 2 0.0354604 -0.13824 6.19598 14.257 H
255 4 0.623503 1.89105 7.27338 15.3681 Si
207 2 0.0829896 3.29234 1.15672 12.9111 H
153 2 -0.0111458 2.81342 7.1867 11.718 H
190 2 0.02055 -3.98678 7.28239 13.8556 H
1 4 0.991397 -5.31092 13.0459 1.55795 Si
4 4 1.03398 -4.52699 13.2355 7.06978 Si
12 4 0.736794 -2.98361 8.81096 1.35004 Si
15 4 1.17147 -2.49562 8.81227 7.477 Si
16 4 1.15901 -3.30014 10.9264 5.2621 Si
30 4 0.954068 1.91884 7.63677 1.52523 Si
31 4 1.02554 -1.27017 10.849 2.95939 Si
292 2 0.100381 -1.92172 12.5769 7.19517 H
88 3 -0.800583 -3.30415 9.70203 0.0659924 O
65 1 -0.126931 2.34468 8.20475 7.05897 C
115 3 -0.704415 -1.24705 9.80707 7.80407 O
66 1 -0.0829903 -1.3762 12.74 1.9343 C
280 3 -0.759365 -3.92868 12.2842 0.943142 O
87 3 -0.711199 -6.24791 11.972 2.40016 O
218 2 0.0612862 1.10676 11.009 6.4973 H
215 2 0.0559596 -0.0978633 12.829 7.37624 H
91 3 -0.644276 -4.53608 10.5366 3.92493 O
92 3 -0.712205 -3.24697 9.31427 6.05577 O
93 3 -0.799048 -3.76691 12.3313 5.97321 O
33 4 0.633675 1.35833 10.109 4.18568 Si
149 2 0.0684006 -6.0982 12.2786 5.17359 H
113 3 -0.717892 -1.97536 9.48342 2.43391 O
114 3 -0.725997 -1.77055 11.2595 4.4487 O
67 1 -0.0854118 -1.08426 12.6921 7.84817 C
116 3 -0.693676 0.351999 10.5792 2.95851 O
155 2 0.140706 -1.456 8.14503 4.94005 H
157 2 0.0313553 0.511587 8.80581 4.95699 H
221 2 0.0851949 -0.247287 10.0069 0.436295 H
212 2 0.0598673 -2.2436 13.182 2.46964 H
57 1 -0.121129 -2.02174 7.12143 0.545476 C
151 2 0.294446 2.9494 7.39654 3.48627 H
214 2 0.073213 -0.405634 13.1935 2.12772 H
13 4 0.66914 -5.96966 11.1978 3.79405 Si
213 2 0.121281 -1.59215 12.4296 0.894043 H
168 2 0.134149 -1.86864 8.2462 4.24763 H
211 2 0.077907 1.25833 8.25147 7.09621 H
80 3 -0.761286 -6.1193 13.6101 6.93618 O
11 4 0.633826 -1.63995 7.57059 11.4281 Si
14 4 1.44252 -4.24829 11.795 16.1889 Si
17 4 0.683696 -3.08641 9.63494 12.7128 Si
32 4 0.677698 -0.977726 11.0022 8.87333 Si
34 4 1.14829 -1.726 11.6054 14.5562 Si
184 2 0.0618774 0.130042 7.26032 9.59704 H
55 1 -0.108443 0.253001 7.6081 10.6004 C
89 3 -0.764072 -3.61042 8.59291 8.65444 O
59 1 -0.0753221 -4.45028 10.9489 11.9041 C
69 1 -0.085206 -0.361295 10.9625 16.0686 C
288 2 0.0640346 -2.24712 8.10613 16.0923 H
258 2 0.016443 2.08895 8.92809 14.8914 H
94 3 -0.636973 -1.94763 9.1472 11.6429 O
95 3 -0.75731 -5.45707 11.804 15.0671 O
117 3 -0.726666 -2.29148 10.2274 13.9808 O
118 3 -0.837323 -0.889939 12.4684 13.5256 O
119 3 -0.793588 -2.82875 12.4178 15.4972 O
120 3 -0.681596 0.486219 10.7446 9.57833 O
58 1 -0.0902581 -4.41197 8.29543 13.8607 C
9 4 1.05874 -3.966 7.46677 9.78519 Si
156 2 0.0620795 -2.14386 10.9492 10.1239 H
223 2 0.0235723 1.76581 9.41164 11.8989 H
22 4 1.36644 -0.443102 13.5747 12.4721 Si
220 2 0.0452304 0.0695037 10.2377 15.421 H
192 2 0.116106 -5.16567 10.3511 11.3315 H
193 2 0.0501049 -3.85229 11.559 11.2504 H
194 2 0.0988626 -4.86676 11.5161 12.7216 H
222 2 0.0601797 0.23996 11.8396 16.3231 H
147 2 0.00970885 -4.44953 12.0911 8.40478 H
191 2 0.0958009 -4.46032 8.7971 14.8136 H
186 2 0.0869173 0.546389 8.64489 10.6776 H
216 2 0.080881 -1.23705 13.3971 8.63066 H
224 2 0.0662328 1.01368 10.4432 13.1455 H
206 2 0.136933 -4.93983 13.7177 14.3882 H
2 4 1.0854 13.7279 1.05505 4.09892 Si
21 4 0.65246 7.76202 4.52005 5.49669 Si
234 2 0.0583639 8.87751 4.12636 1.5706 H
36 4 0.987593 8.69848 2.10568 4.3709 Si
283 2 0.0287972 13.48 0.160066 1.57788 H
40 4 1.16801 11.2142 1.4167 5.71312 Si
43 4 0.625251 10.3361 2.18081 1.92312 Si
236 2 0.0429251 10.2066 4.74246 2.58074 H
62 1 -0.0738034 9.24858 5.25078 6.79826 C
63 1 -0.113369 7.20437 6.43332 4.73059 C
127 3 -0.80228 11.8428 1.72583 7.16186 O
105 3 -0.740097 6.46712 3.88533 6.32974 O
122 3 -0.710551 8.47655 3.71367 4.26738 O
125 3 -0.811822 12.1211 1.00419 4.43005 O
126 3 -0.790084 9.64994 1.68159 5.64311 O
277 2 0.036318 6.60496 3.2995 1.63498 H
133 3 -0.694844 9.11534 1.60909 2.8347 O
134 3 -0.656422 10.6576 1.45491 0.515587 O
203 2 0.0305622 7.945 6.59192 3.95866 H
74 1 -0.117618 9.93702 4.27629 1.64445 C
162 2 0.306458 12.3222 3.64461 8.02919 H
164 2 0.0670896 11.717 2.10792 2.93313 H
246 4 0.635051 4.79236 5.3123 0.0842501 Si
205 2 0.0674781 6.19267 6.4542 4.41073 H
200 2 0.105202 9.75781 4.32304 7.14334 H
275 2 0.0999204 7.25182 1.67859 1.14701 H
26 4 1.44998 5.29046 4.61706 7.22323 Si
202 2 0.0245373 9.81003 5.84995 6.14749 H
177 2 0.0241821 13.0054 3.31487 0.604741 H
274 1 -0.10667 6.37312 2.28505 1.30161 C
54 1 -0.113921 12.0984 4.79998 4.96703 C
235 2 0.0191101 10.4465 4.6491 0.758485 H
248 1 -0.114157 6.18744 6.22235 1.3949 C
183 2 0.0493376 11.7933 4.02234 5.67228 H
107 3 -0.770868 4.48441 5.81349 6.41697 O
253 2 0.0475754 6.94395 6.51789 0.698344 H
201 2 0.109737 8.76027 5.79297 7.54873 H
254 2 0.0304531 6.37168 5.33565 2.0147 H
182 2 0.0258224 11.4454 5.64818 4.84974 H
286 2 0.0536093 12.4998 4.46966 4.01643 H
204 2 0.0292725 7.39439 6.97728 5.64266 H
5 4 0.835913 12.5346 2.9299 10.2261 Si
44 4 1.08332 6.16901 6.95074 9.10484 Si
264 1 -0.116678 13.3299 1.62946 15.603 C
39 4 0.702014 8.42333 3.09623 9.87853 Si
41 4 0.623761 7.55712 1.7711 14.8563 Si
42 4 0.643221 10.2554 4.79229 10.6742 Si
71 1 -0.0630286 9.30855 1.39814 9.43873 C
233 2 0.0340607 9.87581 6.21815 12.7712 H
72 1 -0.103309 8.17236 3.70912 15.1643 C
73 1 -0.0897472 9.3583 5.33174 12.4649 C
228 2 0.11637 8.97338 0.634905 10.1869 H
101 3 -0.641558 5.02321 4.78366 15.6222 O
232 2 0.0942407 8.3133 5.50722 12.2407 H
124 3 -0.700309 7.58619 2.98649 11.2813 O
128 3 -0.669252 8.7326 1.16558 13.3402 O
129 3 -0.648761 7.80067 0.937118 16.206 O
29 4 0.722216 4.06751 6.20882 11.0581 Si
131 3 -0.67174 11.2463 3.50834 11.0471 O
132 3 -0.643223 9.28784 4.39002 9.41997 O
244 2 0.0417795 12.2889 0.518708 12.8821 H
123 3 -0.793911 12.4631 1.42148 9.73455 O
135 3 -0.754112 6.12567 5.462 8.33226 O
295 2 0.0544123 9.56126 4.45011 13.0764 H
163 2 0.293519 8.65957 1.95868 12.5757 H
226 2 0.127737 10.3888 1.64865 9.63102 H
266 2 0.0447109 13.2796 2.46482 14.9213 H
229 2 0.0743432 9.18532 3.46319 15.4867 H
230 2 0.0375147 7.6187 4.07291 15.9663 H
231 2 0.0499615 8.02676 4.20936 14.2488 H
110 3 -0.691962 4.87566 5.58761 12.2932 O
150 2 0.0424828 11.0283 4.06755 14.9274 H
257 3 -0.615142 3.48254 6.93414 15.5639 O
227 2 0.0775649 9.02379 1.12775 8.4585 H
265 2 0.0453493 13.5655 0.679632 15.1257 H
284 2 0.0449742 12.6218 1.63069 16.3745 H
38 4 1.10094 12.5921 0.776094 8.25347 Si
136 3 -0.742523 4.89066 7.13649 10.1009 O
138 3 -0.75867 7.59039 7.14589 9.83701 O
252 2 0.0456015 5.62545 6.99423 1.84912 H
219 2 0.0722185 0.595557 12.33 5.24987 H
46 4 0.644674 3.31251 9.89133 2.34657 Si
239 2 0.0506343 5.51157 9.44274 8.08249 H
262 1 -0.11056 6.22406 13.2285 2.35439 C
238 2 0.0432184 6.9933 8.62237 7.31877 H
140 3 -0.696874 2.85749 9.65673 3.88936 O
273 2 0.0446045 7.1681 10.0422 5.08705 H
270 1 -0.119319 7.66909 9.85864 4.16056 C
141 3 -0.735956 4.43909 12.8254 7.91277 O
68 1 -0.0885884 1.31767 11.5567 5.55703 C
166 2 -0.0201826 3.57357 11.6151 2.13767 H
167 2 -0.00424678 4.94981 9.23857 2.35404 H
75 1 -0.11863 5.9392 8.56902 7.59764 C
217 2 0.0653833 2.32751 11.8662 5.55112 H
272 2 0.0336991 7.07393 10.0012 3.30818 H
139 3 -0.707421 2.457 9.17617 1.23743 O
237 2 0.0514917 5.35539 8.1497 6.82596 H
187 2 0.00782226 10.1984 7.26361 1.36605 H
271 2 0.0421279 8.21827 8.92849 4.14438 H
159 2 0.0354795 2.05184 12.7499 1.7451 H
282 2 0.106276 7.3204 13.1242 2.30086 H
263 2 0.0300429 5.63473 12.4289 2.74681 H
209 2 0.0368259 2.75743 8.88702 6.35252 H
291 2 0.0705792 8.55618 10.0916 0.900608 H
60 1 -0.12569 7.75604 9.99772 0.148072 C
196 2 0.0379452 6.92109 10.6739 0.285509 H
56 1 -0.119996 10.4352 7.84888 2.22962 C
287 2 0.0726891 9.85621 8.72966 2.39794 H
188 2 0.0403832 10.7147 7.24608 3.08707 H
210 2 0.0315842 2.8357 8.12077 8.02457 H
37 4 0.621854 2.24128 13.6088 0.239611 Si
18 4 0.735603 8.26835 11.0647 14.9184 Si
195 2 0.0290714 6.7921 9.57044 16.413 H
35 4 1.00681 1.30402 11.6717 10.659 Si
47 4 1.02495 3.91815 11.7636 9.08884 Si
48 4 0.735517 7.10328 10.347 12.3099 Si
49 4 0.667891 5.61883 12.4679 11.2122 Si
243 2 0.108301 3.41451 13.6651 11.6407 H
225 2 0.0218542 2.75561 10.6969 12.7946 H
77 1 -0.0913543 4.14431 13.3249 12.3177 C
294 2 0.0759398 3.03864 13.8986 14.6222 H
241 2 0.0800111 5.71469 8.24782 13.0564 H
165 2 -0.0072524 7.80937 7.99398 12.4277 H
142 3 -0.763952 2.61899 12.3 9.8894 O
143 3 -0.771655 7.9408 9.66964 10.3986 O
144 3 -0.682767 8.10805 10.1199 13.6313 O
145 3 -0.735453 5.06357 11.3724 10.118 O
146 3 -0.681226 6.66293 11.8901 12.2531 O
76 1 -0.101966 5.40128 9.23678 12.7744 C
45 4 1.03937 8.404 8.18495 10.7648 Si
160 2 0.318247 7.14344 9.90334 9.91617 H
169 2 0.0468001 6.65297 13.5708 10.3287 H
137 3 -0.77583 10.0276 7.97446 10.8589 O
278 1 -0.111735 2.81939 13.1653 15.3824 C
240 2 0.0381819 4.89774 9.76773 13.5831 H
121 3 -0.818539 0.302999 12.8099 11.3187 O
245 2 0.0305752 3.8508 12.48 12.939 H
242 2 0.0723353 4.93115 9.19751 11.7975 H
290 2 0.0749142 9.84048 8.35814 13.2792 H
293 2 0.0477126 2.1515 12.3957 15.0107 H
70 1 -0.126731 1.80018 10.3759 12.4021 C
279 2 0.0137191 3.63596 12.8504 15.9913 H
ITEM: TIMESTEP
100
ITEM: NUMBER OF ATOMS
295
ITEM: BOX BOUNDS xy xz yz pp pp pp
-8.0040400000000016e+00 1.5144700000000000e+01 -7.3674400000000020e+00
0.0000000000000000e+00 1.4189300000000001e+01 -6.3660000000000005e-01
0.0000000000000000e+00 1.6498000000000001e+01 5.8050000000000002e-01
ITEM: ATOMS id type q x y z element
6 4 1.08696 0.650694 1.20153 6.50661 Si
7 4 1.09473 -0.201435 3.28438 2.39459 Si
8 4 0.785714 -0.45801 3.66697 7.80083 Si
10 4 0.881159 -1.08556 5.75772 5.69352 Si
25 4 1.1606 1.11384 5.67328 3.72186 Si
27 4 0.721597 3.21317 6.25743 5.88767 Si
50 1 -0.120994 2.98851 1.05082 2.76653 C
51 1 -0.0662899 1.79732 2.6963 5.48353 C
52 1 -0.137679 -1.84518 4.20487 1.41727 C
289 2 0.0130211 -2.61536 6.52536 0.450925 H
81 3 -0.785785 -1.00807 2.58905 3.61745 O
3 4 1.07484 0.691604 1.38571 0.00769181 Si
172 2 0.0298196 3.99274 1.33876 2.43918 H
82 3 -0.810772 0.302405 2.12851 1.36851 O
84 3 -0.737421 0.0126107 2.04354 7.76071 O
85 3 -0.66481 -0.381198 4.41129 6.31817 O
96 3 -0.816646 4.24991 0.659115 7.55464 O
102 3 -0.793412 0.95591 4.36986 2.7432 O
103 3 -0.767021 -0.222767 6.2751 4.35767 O
104 3 -0.780326 4.20958 3.25284 7.62379 O
106 3 -0.710474 2.06364 5.49279 5.04265 O
249 2 0.113457 2.31796 4.74196 0.788868 H
111 3 -0.769162 2.77396 6.81037 2.62353 O
171 2 0.0821757 2.2125 1.74595 2.54207 H
176 2 0.0270728 -2.21662 4.90181 2.20212 H
173 2 0.0972721 1.32787 2.79136 4.52919 H
174 2 0.0604074 2.74131 2.20449 5.42593 H
175 2 0.133512 1.89856 3.55 6.15138 H
281 2 0.302911 -2.07295 6.36605 7.82368 H
251 2 0.084887 3.38889 3.37508 1.02506 H
90 3 -0.711209 -1.51638 6.89312 7.21927 O
178 2 0.0296583 -1.20682 4.65584 0.691957 H
276 2 0.0398851 5.90372 1.33826 1.53687 H
161 2 0.109898 5.29246 0.834763 5.57095 H
247 1 -0.0544984 3.25429 4.43699 1.14699 C
158 2 0.074524 5.81089 0.253395 5.46721 H
250 2 0.10071 3.4818 4.76594 2.15126 H
170 2 0.0436026 2.9618 0.729767 3.78195 H
54 1 -0.116022 -2.91045 5.1189 4.98013 C
182 2 0.0234363 -3.24358 5.98714 4.4229 H
79 3 -0.738096 -0.444939 0.615771 5.49807 O
100 3 -0.820365 6.05536 0.818771 11.8224 O
260 2 0.0454124 1.27067 5.94675 13.2211 H
19 4 0.693862 5.01958 3.16549 15.8678 Si
152 2 0.359799 5.36714 0.888493 14.9042 H
23 4 0.906201 2.38924 2.63955 14.5633 Si
28 4 1.16343 4.4547 4.08485 12.9544 Si
180 2 0.0364214 1.57111 3.77239 9.2348 H
61 1 -0.130353 2.67389 1.81507 9.91697 C
269 2 0.0508597 -1.06374 2.93461 12.4453 H
64 1 -0.0796636 2.40465 0.805906 13.4208 C
53 1 -0.12218 0.954913 4.63126 9.01033 C
97 3 -0.64965 3.53257 2.53555 15.863 O
98 3 -0.727898 0.939881 2.79603 15.4386 O
99 3 -0.765654 5.63542 1.88664 9.50407 O
108 3 -0.726997 2.938 3.8412 13.4741 O
109 3 -0.848829 4.74439 3.04618 11.803 O
24 4 1.42426 5.9998 2.2938 11.1418 Si
20 4 1.07247 4.30696 1.91678 8.54284 Si
148 2 -0.0108845 -1.4192 6.95183 12.9283 H
130 3 -0.653983 5.64103 1.7103 14.4444 O
181 2 0.0199688 0.377468 5.04884 9.82187 H
267 1 -0.118556 -0.790365 3.2007 11.4171 C
86 3 -0.722867 -2.6805 6.73556 10.6025 O
197 2 0.0295712 3.10936 0.945881 10.3832 H
198 2 0.0591326 1.7279 1.64351 9.38197 H
199 2 0.0698602 2.78583 2.72426 10.4637 H
285 2 0.034691 0.0259609 2.60597 11.0246 H
259 2 0.116232 1.29783 4.98287 14.7845 H
268 2 0.0257981 -0.569464 4.23368 11.2655 H
154 2 -0.00219432 2.97872 5.27183 10.3669 H
256 1 -0.0850959 0.948442 5.83286 14.2464 C
208 2 0.032794 1.45066 1.04105 12.9448 H
185 2 -0.00301572 0.701372 7.0704 10.9082 H
83 3 -0.681009 -2.29197 4.133 8.36962 O
261 2 0.0338827 -0.120487 6.04062 14.4264 H
255 4 0.657243 1.84721 7.3398 15.3892 Si
207 2 0.0887177 3.26009 1.01973 12.8147 H
179 2 0.0496751 1.44167 5.3509 8.39728 H
150 2 0.0364792 -2.76101 4.84775 14.1867 H
1 4 1.11092 -5.23631 12.9961 1.49842 Si
4 4 1.12789 -4.48909 13.1056 7.2189 Si
12 4 0.727767 -3.02649 8.84108 1.39094 Si
15 4 1.26503 -2.49259 8.813 7.50676 Si
16 4 1.14302 -3.4274 10.8996 5.35526 Si
30 4 1.00071 1.88514 7.65336 1.51302 Si
31 4 1.08445 -1.27342 10.8125 2.93364 Si
292 2 0.0704073 -1.63279 12.5724 7.14733 H
88 3 -0.794378 -3.80848 9.65504 0.242439 O
65 1 -0.129459 2.59434 7.84832 7.04598 C
115 3 -0.753392 -1.31971 9.84533 7.77492 O
66 1 -0.102247 -1.4715 12.5464 1.63337 C
280 3 -0.823492 -4.07789 12.1677 0.789592 O
87 3 -0.719682 -6.26902 12.1575 2.41058 O
188 2 0.0498393 -3.84165 7.59979 3.29359 H
215 2 0.0587302 -0.243206 13.1259 8.16011 H
91 3 -0.673799 -4.40119 10.8031 4.04396 O
92 3 -0.761989 -3.35232 9.20004 6.2562 O
93 3 -0.818372 -3.91693 12.2718 6.03901 O
33 4 0.678129 1.38663 10.1421 4.15367 Si
149 2 0.0911525 -6.385 12.3487 5.03523 H
113 3 -0.742288 -2.08194 9.5332 2.49918 O
114 3 -0.697288 -1.67356 11.0901 4.42694 O
67 1 -0.0916721 -1.23591 12.7774 8.14188 C
116 3 -0.728156 0.323745 10.4753 3.01695 O
155 2 0.119071 -2.07402 8.42297 4.86162 H
157 2 0.0367924 0.844693 8.60126 4.80416 H
221 2 0.0502687 -0.315286 9.48288 0.119375 H
212 2 0.0770352 -2.44621 12.9788 1.81526 H
57 1 -0.122373 -1.9285 7.3304 0.519486 C
151 2 0.275299 3.03124 7.45619 3.34711 H
214 2 0.0578814 -0.638508 13.2682 1.90127 H
13 4 0.631377 -5.96386 11.2785 3.80243 Si
213 2 0.0785572 -1.33607 12.1097 0.675173 H
168 2 0.121204 -1.53783 8.78341 4.85873 H
211 2 0.0639338 1.52421 7.86747 7.04002 H
80 3 -0.778187 -5.97286 13.5956 6.85074 O
210 2 0.0313233 2.98208 7.57475 8.015 H
189 2 0.0526254 -1.15687 7.22229 1.29997 H
219 2 0.0736515 0.438911 12.1854 5.36731 H
222 2 0.060302 0.456139 11.0279 0.388835 H
112 3 -0.740889 1.51656 6.98519 0.100408 O
78 3 -0.74122 -6.23557 13.5656 0.304908 O
56 1 -0.10566 -4.4515 7.86923 2.46983 C
11 4 0.649015 -1.69375 7.75059 11.4371 Si
14 4 1.49744 -4.27592 11.7159 16.1164 Si
17 4 0.721499 -3.25218 9.82273 12.8232 Si
32 4 0.70135 -1.04004 10.9869 8.86048 Si
34 4 1.15458 -1.666 11.6593 14.6529 Si
184 2 0.0872131 -0.260031 7.42276 9.43707 H
55 1 -0.107177 0.0753637 7.77371 10.388 C
89 3 -0.767065 -3.44198 8.59145 8.7932 O
59 1 -0.0788872 -4.46578 11.154 11.6628 C
69 1 -0.0906555 -0.324404 10.8361 16.1867 C
288 2 0.0567926 -2.23615 8.35463 16.0814 H
258 2 0.0127894 1.82087 8.82596 14.5099 H
94 3 -0.658225 -2.14883 9.24218 11.8495 O
95 3 -0.761358 -5.33245 11.6967 14.8865 O
117 3 -0.730018 -2.29905 10.3547 14.0206 O
118 3 -0.81679 -0.655222 12.4107 13.6593 O
119 3 -0.826719 -2.90038 12.3781 15.378 O
120 3 -0.725822 0.402459 10.8174 9.58435 O
58 1 -0.0942688 -4.36208 8.25968 13.6027 C
9 4 1.03324 -3.95983 7.3806 9.80329 Si
156 2 0.0428997 -2.24219 10.8923 10.0844 H
190 2 0.0301343 -3.70651 7.43649 13.4371 H
22 4 1.29891 -0.47504 13.5043 12.4546 Si
220 2 0.0798619 0.617906 10.463 15.7533 H
192 2 0.0872518 -4.33752 10.7583 10.6586 H
193 2 0.0551553 -4.0741 12.1617 11.8366 H
194 2 0.0938653 -5.43439 10.9937 12.1232 H
153 2 -0.00549823 2.72758 7.4958 11.8398 H
147 2 -0.02648 -4.69184 12.059 8.6298 H
191 2 0.0675285 -4.46535 8.51147 14.657 H
186 2 0.0885715 0.413452 8.80061 10.3232 H
216 2 0.102186 -1.89649 13.3798 8.76417 H
224 2 0.0447486 0.949148 9.59726 12.3134 H
206 2 0.137864 -5.25942 13.6007 14.1242 H
2 4 1.05981 13.7314 1.13119 4.22705 Si
21 4 0.669902 7.73832 4.63814 5.46109 Si
234 2 0.0410416 8.72097 4.41136 1.1765 H
36 4 1.04592 8.59584 2.04531 4.41221 Si
283 2 0.0451101 13.32 0.143657 1.69262 H
40 4 1.15559 11.1879 1.51961 5.69976 Si
43 4 0.600462 10.1306 2.14669 1.96342 Si
236 2 0.03483 10.0802 4.80136 2.30184 H
62 1 -0.0963198 9.16895 5.42372 6.83471 C
63 1 -0.122582 7.3308 6.44795 4.34607 C
127 3 -0.85656 12.0033 1.76013 7.05688 O
105 3 -0.718182 6.48863 3.97465 6.24543 O
122 3 -0.733582 8.44105 3.63287 4.36512 O
125 3 -0.781379 12.1243 0.956508 4.48947 O
126 3 -0.804612 9.60239 1.4797 5.58674 O
277 2 0.0373192 6.63412 2.95907 1.71909 H
133 3 -0.711856 8.99003 1.46975 2.94619 O
134 3 -0.649874 10.5784 1.36901 0.579334 O
203 2 0.0340265 7.90058 6.22378 3.4618 H
74 1 -0.118879 9.77244 4.24918 1.43112 C
162 2 0.33075 12.2453 3.56636 7.8238 H
164 2 0.0470213 11.5747 2.27697 2.82078 H
254 2 0.0300884 6.67102 5.51522 1.73517 H
205 2 0.064956 6.25189 6.3041 4.26738 H
200 2 0.0803912 9.6728 4.60152 7.19428 H
275 2 0.0853027 7.5951 1.67585 0.85251 H
26 4 1.36754 5.27885 4.49085 7.22791 Si
202 2 0.0259569 9.71592 6.17895 6.25549 H
177 2 0.0386799 12.6721 3.39749 1.06688 H
274 1 -0.104075 6.62438 2.05161 1.16485 C
252 2 0.0508533 5.48214 6.84137 1.84324 H
235 2 0.0294773 10.5171 4.28179 0.655122 H
248 1 -0.105659 6.14816 6.2632 1.20332 C
183 2 0.0347864 11.6668 4.9343 5.87355 H
107 3 -0.774143 4.6534 5.69882 6.31263 O
286 2 0.0651282 12.4174 4.23051 4.39594 H
201 2 0.0943667 8.51453 5.93258 7.55617 H
5 4 0.749161 12.6735 3.07665 10.197 Si
44 4 1.05167 6.08683 6.8291 9.20868 Si
264 1 -0.127758 13.403 1.59718 15.4006 C
39 4 0.73265 8.47672 3.1677 9.719 Si
41 4 0.619062 7.61093 1.7979 14.81 Si
42 4 0.665551 10.4372 4.7304 10.7985 Si
71 1 -0.0700449 9.31416 1.36389 9.38241 C
233 2 0.037035 9.51774 6.33057 12.5994 H
72 1 -0.113658 8.11746 3.75115 15.1878 C
73 1 -0.0933302 9.28911 5.29328 12.3985 C
228 2 0.118537 8.53608 0.752205 9.81141 H
101 3 -0.669733 4.99756 4.80982 15.6806 O
232 2 0.111569 8.2676 5.19308 12.0173 H
124 3 -0.760466 7.43566 3.15622 11.0056 O
128 3 -0.648472 8.60921 1.27668 13.1846 O
129 3 -0.651735 7.76448 0.702467 16.0325 O
29 4 0.674358 3.97166 6.414 11.2494 Si
131 3 -0.660653 11.4278 3.47275 11.1647 O
132 3 -0.676286 9.45277 4.39614 9.57728 O
138 3 -0.744878 7.59074 7.08775 9.75975 O
123 3 -0.772335 12.6016 1.41109 9.75284 O
135 3 -0.737331 5.96592 5.31979 8.60365 O
295 2 0.04063 9.61632 4.61411 13.1621 H
163 2 0.28969 8.40121 2.11197 12.5727 H
226 2 0.116953 10.187 1.34963 10.0265 H
266 2 0.0423793 13.3596 2.40039 14.6931 H
229 2 0.0467503 9.05012 3.95192 14.7755 H
230 2 0.0332383 8.13288 3.68736 16.2947 H
231 2 0.0550893 7.29764 4.32367 14.7801 H
110 3 -0.691249 4.56459 5.68317 12.567 O
38 4 1.21573 12.4979 0.846954 8.26184 Si
257 3 -0.617007 3.47374 7.1662 15.6137 O
227 2 0.0630727 9.42731 1.37098 8.26924 H
265 2 0.0345925 13.4847 0.637874 14.953 H
284 2 0.0476607 12.6415 1.7024 16.1866 H
243 2 0.118409 11.6883 0.711273 11.6952 H
246 4 0.658127 4.14102 5.91642 16.4828 Si
287 2 0.0695793 9.91599 8.56109 2.73925 H
204 2 0.0237053 7.67885 7.26501 4.9463 H
46 4 0.592939 3.30168 10.0148 2.3452 Si
239 2 0.040607 5.16042 8.9139 7.91472 H
262 1 -0.0969179 6.10774 13.258 2.55853 C
238 2 0.0457733 6.81544 8.72024 7.4091 H
140 3 -0.680608 2.92959 9.76954 3.96987 O
273 2 0.0335367 7.29167 10.099 4.6813 H
270 1 -0.11673 7.80488 9.7946 3.78624 C
141 3 -0.773583 4.61101 12.8727 8.10765 O
68 1 -0.08453 1.32401 11.5824 5.54643 C
166 2 -0.0199485 3.34946 11.6621 1.84752 H
167 2 -0.00195636 4.96291 9.53666 2.10882 H
75 1 -0.116285 5.88702 8.24244 7.5343 C
217 2 0.0804553 2.25196 12.1721 5.45363 H
272 2 0.0439389 7.31494 9.92565 2.81203 H
139 3 -0.699474 2.39662 9.17406 1.31754 O
237 2 0.0685081 5.55179 7.62685 6.69634 H
187 2 0.0147474 10.3425 7.04652 1.87104 H
271 2 0.0363313 8.32406 8.88816 3.92147 H
159 2 0.0631821 1.60001 13.0082 1.75436 H
282 2 0.11494 7.15146 13.0246 2.40855 H
263 2 0.0451084 5.49106 12.5262 3.08087 H
209 2 0.0387008 3.00933 8.79032 6.71058 H
291 2 0.0627976 8.4781 9.60856 0.62018 H
37 4 0.624524 2.16614 13.5607 0.182169 Si
196 2 0.0922761 8.08416 11.3648 0.20434 H
218 2 0.0510651 1.42536 10.9624 6.41046 H
253 2 0.0559654 6.82131 6.83763 0.575309 H
18 4 0.721333 8.38076 10.9563 14.7265 Si
195 2 0.0232362 6.3212 10.5996 16.159 H
35 4 1.02728 1.23875 11.7 10.6563 Si
47 4 1.029 3.91585 11.865 9.18451 Si
48 4 0.811962 7.06084 10.2992 12.3282 Si
49 4 0.675127 5.71734 12.5754 11.2563 Si
136 3 -0.734223 4.85162 7.29468 10.2225 O
225 2 0.0582297 1.63516 11.0949 13.1914 H
77 1 -0.088116 4.20608 13.4702 12.3035 C
294 2 0.0739585 2.72591 13.5331 14.6334 H
241 2 0.0806636 5.63471 8.24251 12.4597 H
165 2 0.00611941 7.70926 7.77645 12.2586 H
142 3 -0.761323 2.63348 12.358 10.0204 O
143 3 -0.729946 7.90057 9.73365 10.3501 O
144 3 -0.719829 7.97918 9.88981 13.5401 O
145 3 -0.704999 5.10671 11.4667 10.2224 O
146 3 -0.69808 6.77116 11.8588 12.2093 O
76 1 -0.0941796 5.23774 9.23279 12.4952 C
45 4 0.992606 8.36449 8.20563 10.6716 Si
160 2 0.300539 7.18022 9.90766 9.60809 H
169 2 0.0607492 6.61901 13.6836 10.3522 H
137 3 -0.75633 10.0025 7.95666 10.7375 O
278 1 -0.116956 2.90665 13.0698 15.5968 C
240 2 0.0406765 4.91884 9.605 13.4373 H
121 3 -0.795488 0.421238 12.9708 11.2205 O
245 2 0.0682857 3.38115 12.8169 12.3492 H
242 2 0.080184 4.70635 9.58437 11.6389 H
290 2 0.0817864 9.85057 8.17491 13.0467 H
293 2 0.0366551 2.61331 12.0271 15.6668 H
70 1 -0.126149 1.71852 10.3668 12.3719 C
279 2 0.0251794 3.89321 13.2947 16.0083 H
223 2 0.0185732 2.73947 10.0506 12.1886 H
244 2 0.0273214 4.68757 13.7176 13.2163 H
60 1 -0.116631 7.3464 10.8816 16.42 C
ITEM: TIMESTEP
200
ITEM: NUMBER OF ATOMS
295
ITEM: BOX BOUNDS xy xz yz pp pp pp
-7.6740800000000018e+00 1.5144700000000000e+01 -7.0374800000000022e+00
0.0000000000000000e+00 1.4189300000000001e+01 -6.3660000000000005e-01
0.0000000000000000e+00 1.6498000000000001e+01 5.8050000000000002e-01
ITEM: ATOMS id type q x y z element
6 4 1.11718 0.589447 1.18213 6.64611 Si
7 4 1.16261 -0.240469 3.25283 2.32658 Si
8 4 0.811644 -0.517743 3.78954 7.82522 Si
10 4 0.879142 -0.97679 5.70677 5.60973 Si
25 4 1.20135 1.22319 5.60969 3.69126 Si
27 4 0.687704 3.3384 6.24337 5.73907 Si
50 1 -0.0950985 2.99044 1.07928 2.3662 C
51 1 -0.0657827 1.87631 2.50789 5.59455 C
52 1 -0.146855 -1.73629 4.38292 1.37587 C
289 2 0.00475703 -2.72408 6.64441 0.237512 H
81 3 -0.810924 -0.888792 2.51063 3.60109 O
182 2 0.0276036 -2.7782 5.46338 3.76263 H
172 2 0.0839532 3.5203 1.47245 1.5382 H
82 3 -0.822537 0.167852 2.11803 1.25896 O
84 3 -0.748064 -0.175641 2.2141 7.66965 O
85 3 -0.715022 -0.414291 4.41988 6.35026 O
96 3 -0.775442 3.90517 0.633893 7.47212 O
102 3 -0.828377 0.800977 4.36394 2.80671 O
103 3 -0.791696 -0.04772 6.33553 4.42972 O
104 3 -0.765403 4.1873 3.29679 7.55037 O
106 3 -0.701607 2.38638 5.31646 4.79491 O
249 2 0.130167 2.5983 4.95983 1.41314 H
111 3 -0.783357 2.65825 6.85587 2.49096 O
171 2 0.0710901 2.25499 1.72921 2.81846 H
176 2 0.0261386 -1.72606 5.23197 2.00607 H
173 2 0.138944 1.11714 3.09083 5.07422 H
174 2 0.0478044 2.53218 1.8674 5.0414 H
175 2 0.112711 2.34787 2.94967 6.44879 H
281 2 0.281973 -1.67586 6.3338 7.75075 H
251 2 0.0970367 3.09084 3.43512 0.608248 H
90 3 -0.695588 -1.25582 7.01644 7.13262 O
178 2 0.0337304 -1.42296 4.56041 0.329124 H
276 2 0.0287465 5.7221 1.81848 1.891 H
78 3 -0.718669 1.1842 0.0792342 0.136204 O
247 1 -0.0716893 3.39762 4.24107 1.24637 C
158 2 0.0319512 5.89565 0.723329 4.74349 H
250 2 0.0469768 3.9713 4.01354 2.10622 H
170 2 0.0303941 3.61149 0.607926 3.1162 H
54 1 -0.1228 -2.84002 5.21603 4.79501 C
179 2 0.0553375 1.29842 5.53241 8.20531 H
100 3 -0.703138 5.7678 0.930093 12.04 O
260 2 0.0781073 1.78526 5.84192 13.6494 H
19 4 0.74496 5.00833 3.24046 15.912 Si
152 2 0.327357 4.81538 1.43188 14.007 H
23 4 0.962181 2.36542 2.72887 14.6715 Si
28 4 1.03702 4.38977 4.15951 12.9976 Si
180 2 0.0354071 1.64522 4.24196 9.38932 H
61 1 -0.12744 2.56977 1.82304 9.81815 C
269 2 0.0378571 -0.577014 2.43474 12.011 H
64 1 -0.101912 2.31275 0.893474 13.3527 C
53 1 -0.124218 0.90471 4.88132 8.97946 C
97 3 -0.68665 3.51949 2.55052 15.8779 O
98 3 -0.741408 0.825703 2.92346 15.3371 O
99 3 -0.643563 5.60184 1.84223 9.25502 O
108 3 -0.74903 2.87515 3.94191 13.7018 O
109 3 -0.721929 4.6925 3.42202 11.5633 O
24 4 1.05579 5.92929 2.38596 11.0825 Si
20 4 1.01462 4.12379 1.93547 8.44961 Si
148 2 -0.0176548 -1.02414 7.2011 12.8006 H
130 3 -0.62877 5.54502 1.81611 14.5503 O
181 2 0.0203981 0.307842 5.34572 9.72651 H
267 1 -0.130406 -0.542196 3.23172 11.2976 C
86 3 -0.726744 -2.89585 6.8746 10.8806 O
197 2 0.027628 2.59473 0.796941 10.1722 H
198 2 0.0552968 1.75725 2.02259 9.14392 H
199 2 0.0657076 2.61246 2.62543 10.5578 H
285 2 0.0192577 0.137635 3.09702 10.4681 H
259 2 0.119637 1.0026 5.0004 15.0619 H
268 2 0.0314873 -0.433747 4.21931 11.7513 H
154 2 0.00501385 2.86257 5.49846 10.4303 H
256 1 -0.0844701 1.05485 5.8666 14.4289 C
208 2 0.0304979 1.49214 1.28765 12.8254 H
257 3 -0.647819 3.34957 7.12628 15.6602 O
83 3 -0.69012 -2.2755 4.47623 8.64233 O
261 2 0.0163181 0.111166 6.18416 14.1292 H
150 2 0.035505 -1.74648 4.85635 13.6913 H
207 2 0.0578182 3.31262 0.896972 12.906 H
185 2 -0.00332249 0.654275 7.0421 10.4804 H
3 4 1.06473 -0.207662 2.10538 16.3193 Si
1 4 1.07275 -5.2726 12.9404 1.4092 Si
4 4 1.14177 -4.42711 13.0171 7.30887 Si
12 4 0.734773 -2.92569 8.80621 1.37319 Si
15 4 1.28274 -2.51339 8.71752 7.46954 Si
16 4 1.30623 -3.45355 10.846 5.26642 Si
30 4 1.05172 1.84127 7.82909 1.52759 Si
31 4 1.04611 -1.15157 10.734 3.01994 Si
292 2 0.12484 -1.73859 12.8457 7.46289 H
88 3 -0.746848 -3.61061 9.72817 0.204721 O
65 1 -0.130365 2.46029 7.51727 7.07625 C
115 3 -0.727946 -1.36599 9.81314 7.73007 O
66 1 -0.0990878 -1.24266 12.6347 2.05408 C
280 3 -0.803749 -3.98397 12.1557 0.843305 O
87 3 -0.764343 -6.13144 12.125 2.47339 O
188 2 0.0604391 -4.0005 7.976 3.51139 H
112 3 -0.71878 1.34317 7.05113 0.193666 O
91 3 -0.764486 -4.69726 10.696 4.24486 O
92 3 -0.722601 -3.43574 9.19951 6.25724 O
93 3 -0.823203 -3.60698 12.0573 6.38606 O
33 4 0.634526 1.48277 10.0782 4.29165 Si
222 2 0.0636229 0.58698 11.2232 0.267456 H
113 3 -0.757023 -1.80135 9.56625 2.19013 O
114 3 -0.755494 -1.95568 11.067 4.46138 O
209 2 0.0245965 2.7052 8.48813 6.63855 H
116 3 -0.72401 0.463613 10.4203 3.09603 O
155 2 0.100841 -1.25585 8.01788 3.83791 H
157 2 0.033285 1.06652 8.49132 4.79804 H
221 2 0.0908756 -0.362195 9.62397 0.287219 H