ITEM: TIMESTEP
0
ITEM: NUMBER OF ATOMS
365
ITEM: BOX BOUNDS xy xz yz pp pp pp
-7.7317999999999998e+00 1.5563499999999999e+01 -7.7317999999999998e+00
-1.3819999999999999e-01 1.3846299999999999e+01 2.4629999999999999e-01
0.0000000000000000e+00 1.8322199999999999e+01 -1.3819999999999999e-01
ITEM: ATOMS id type q x y z element
16 4 1.09594 -0.505187 3.44938 9.00058 Si
227 3 -0.755807 5.41345 3.76109 1.45832 O
153 2 0.0519643 2.11855 6.07432 3.81353 H
8 2 0.0586356 2.46667 0.540475 0.574236 H
11 4 1.3344 2.85022 0.769134 8.598 Si
13 4 1.20358 1.00351 2.26923 6.61212 Si
161 2 0.0689662 2.00279 5.18328 8.17992 H
29 4 1.13018 6.06062 0.633826 3.36775 Si
30 4 0.435257 2.40846 3.14936 3.79083 Si
31 4 1.07054 5.52966 2.28367 0.820945 Si
37 4 1.02225 4.87407 4.48818 2.82131 Si
351 2 0.0488501 -1.21322 2.71336 3.10416 H
69 1 -0.0942302 -1.6663 5.94842 7.52216 C
74 1 -0.0958137 2.34721 1.07283 3.75729 C
75 1 -0.0460558 5.18953 2.30632 6.51115 C
151 2 0.0648847 2.51315 6.57207 5.50694 H
309 2 0.0913707 -0.340496 5.54035 2.11706 H
102 2 0.0254238 1.67941 3.77479 2.34446 H
107 2 -0.038022 3.6753 5.67467 2.37457 H
109 2 0.2971 2.27406 4.23391 5.84607 H
319 2 0.0527196 -1.32957 3.46115 4.78887 H
347 2 0.0790225 -0.960818 5.12426 2.57083 H
129 2 0.070295 -2.6941 5.64972 7.56237 H
130 2 0.0931797 -1.31115 6.4462 8.43035 H
142 2 0.074696 2.39937 0.90149 4.82098 H
143 2 0.0379257 3.26805 0.834432 3.22489 H
144 2 0.0510247 1.42022 0.843548 3.25681 H
145 2 0.129231 5.25643 1.2307 6.65616 H
146 2 0.136435 5.00747 2.61459 5.49117 H
147 2 0.102727 4.54499 2.80711 7.2165 H
10 3 -0.713892 0.509587 4.67164 0.251422 O
77 1 -0.0917021 2.47101 6.86116 4.47196 C
127 2 0.0241573 -2.2996 5.69893 4.50878 H
131 2 0.0406265 -1.00714 5.20829 7.12467 H
201 3 -0.70011 0.314153 1.0627 5.75871 O
202 3 -0.802633 2.39406 1.74965 7.3842 O
205 3 -0.79365 -0.174223 2.7691 7.57 O
219 3 -0.676232 1.49932 3.97442 5.39191 O
220 3 -0.780567 5.6487 0.97811 1.84284 O
226 3 -0.672572 3.96875 3.5399 3.8558 O
80 1 -0.0908389 1.75961 6.14861 8.59122 C
160 2 0.069491 0.942331 6.63558 8.05773 H
68 1 -0.12249 -2.48831 6.75683 4.40335 C
9 2 -0.0018658 3.06369 5.4416 0.479239 H
162 2 0.061902 2.58659 6.8019 8.82109 H
255 3 -0.740177 6.6475 1.82041 4.24474 O
284 2 0.0694737 2.40976 0.470666 0.0114413 H
14 4 0.567357 0.128372 3.34802 11.9666 Si
15 4 0.62165 -1.31696 6.41166 17.4371 Si
19 4 1.08879 -0.0948617 5.52038 13.9298 Si
33 4 1.17 4.5299 2.68969 10.1891 Si
35 4 0.943567 4.13056 2.68569 16.6343 Si
40 4 0.865612 1.06708 5.69894 10.5358 Si
190 2 0.0333955 0.371426 0.191725 15.187 H
43 4 0.760299 1.42941 6.34207 16.2426 Si
229 3 -0.807664 4.67219 4.07142 9.33608 O
67 1 -0.0675678 1.77129 2.33486 12.7658 C
76 1 -0.110317 3.5941 0.989614 15.4591 C
345 2 0.281269 0.597926 0.553077 10.0514 H
212 3 -0.689025 1.04016 -0.0306506 9.35267 O
103 2 0.327313 3.20894 4.89313 14.1206 H
356 2 0.0977865 5.80692 0.389459 12.4972 H
110 2 0.29439 3.99382 5.39268 16.0633 H
123 2 0.0859207 1.80688 1.48036 12.0916 H
124 2 0.0496203 1.39042 2.12838 13.7709 H
125 2 0.10214 2.55972 3.10113 12.7137 H
148 2 0.0515246 2.53166 0.901093 15.4479 H
149 2 0.0513151 4.08493 0.269792 16.0704 H
150 2 0.04917 4.08602 1.23383 14.5343 H
97 2 0.280019 -2.85101 5.968 11.3894 H
7 4 0.688301 2.11742 4.56914 17.7888 Si
250 3 -0.74485 3.64915 6.3978 16.2312 O
206 3 -0.729607 -0.621299 4.26016 13.0505 O
207 3 -0.680664 -2.19128 5.77688 16.2085 O
346 2 0.0457944 -1.02684 3.26056 16.8442 H
221 3 -0.790924 3.39404 1.67532 9.82566 O
223 3 -0.741172 4.47683 1.93089 18.0839 O
224 3 -0.692422 2.7453 3.65969 16.6385 O
225 3 -0.721448 5.78402 2.00911 10.9708 O
231 3 -0.738939 0.719702 3.69812 9.9845 O
234 3 -0.756801 5.26103 3.61529 15.8722 O
44 4 1.03689 3.42971 6.62119 12.4293 Si
236 3 -0.731001 1.16478 5.37732 14.9621 O
238 3 -0.727722 2.14308 6.12472 11.6411 O
239 3 -0.744475 3.78803 4.83919 13.3727 O
232 3 -0.742485 -0.312571 6.57254 10.5631 O
104 2 0.264692 -0.311278 1.15887 10.7952 H
169 2 0.038164 5.97266 -0.0977095 15.0161 H
283 4 0.58457 -0.777299 4.17949 18.2426 Si
359 2 0.0487127 5.52745 0.00590086 16.7614 H
235 3 -0.685669 6.12351 2.89934 13.4233 O
18 4 0.681313 -1.52707 7.50158 6.11573 Si
23 4 1.28551 -2.40031 9.6479 8.01402 Si
25 4 1.08333 -3.43365 12.4293 6.96206 Si
38 4 0.603739 0.809443 8.06144 4.59794 Si
45 4 0.624092 0.613299 8.40889 1.74459 Si
46 4 1.06352 -0.991941 12.1005 4.93105 Si
70 1 -0.1134 -5.02073 12.3065 5.5042 C
113 2 0.0449328 1.79378 8.90033 7.81809 H
79 1 -0.0962571 -1.91616 10.4941 3.67198 C
181 2 0.087833 -4.21139 8.32238 5.95713 H
108 2 0.0353748 1.35147 9.66833 4.8717 H
348 2 -0.0119154 -4.989 9.40159 2.84367 H
338 2 0.0575432 -0.370666 12.8676 0.380502 H
325 2 0.00377763 -5.15371 11.9618 1.65458 H
132 2 0.0172739 -4.54855 12.3887 4.52837 H
133 2 0.0748683 -5.38605 11.3238 5.70398 H
157 2 0.0693811 -2.23465 9.73451 4.35692 H
158 2 0.106679 -1.1012 10.1808 3.06504 H
159 2 0.0244599 -2.7224 11.0065 3.1713 H
353 2 0.0542218 -5.68792 11.1879 8.51434 H
324 1 -0.111955 -6.2061 11.9022 1.8211 C
211 3 -0.74025 -2.34033 8.78775 6.64936 O
213 3 -0.7888 -3.34418 10.9148 7.64272 O
214 3 -0.806258 -3.79338 13.6302 7.9827 O
228 3 -0.646365 0.0744075 7.68492 5.99564 O
240 3 -0.686035 0.0576138 7.86038 3.15377 O
241 3 -0.793178 -0.791304 13.1975 3.73599 O
242 3 -0.741341 -2.12204 12.6974 5.98005 O
243 3 -0.692106 -0.0505756 9.7619 1.00441 O
245 3 -0.631309 -0.428433 10.0518 8.50302 O
99 2 -0.00959467 -4.22028 11.3783 0.0333756 H
247 3 -0.738539 0.302249 11.4013 5.65152 O
354 2 0.0848728 -5.71688 13.0847 5.76817 H
335 1 -0.121702 0.628933 12.488 0.200775 C
352 2 0.0423078 -2.34377 7.6506 1.30714 H
111 2 0.0776423 0.501222 6.98181 0.721842 H
78 1 -0.129646 2.39749 8.26291 1.43992 C
246 3 -0.669205 -0.401443 13.3438 8.51512 O
126 2 0.0200044 -3.5287 7.00951 4.44785 H
152 2 0.0433974 3.34488 7.39365 4.1354 H
321 1 -0.0905018 -2.75557 7.76631 0.30769 C
156 2 -0.000320923 2.73806 7.49387 2.14588 H
155 2 0.0682166 2.43467 7.97303 0.389888 H
322 2 0.0864863 -3.76938 7.4121 0.161746 H
326 2 0.077913 -6.58717 12.58 2.6055 H
128 2 0.087413 -1.94778 7.3241 3.63622 H
84 1 -0.127922 -1.55125 13.401 15.9961 C
21 4 1.0353 -0.91152 7.42685 11.8421 Si
22 4 0.652277 -4.67272 10.9548 16.7873 Si
24 4 0.839633 -5.90803 12.4533 10.658 Si
26 4 0.848063 -2.14411 9.84857 13.1732 Si
279 3 -0.715587 1.67242 9.66938 16.9986 O
28 4 0.63452 -3.5285 12.2522 12.3576 Si
47 4 1.04409 0.365385 10.2836 17.8676 Si
330 2 0.138523 -4.53464 10.5031 9.72692 H
323 2 0.0992732 -2.25071 8.58614 18.1907 H
52 4 0.986796 -1.86544 11.1599 15.903 Si
72 1 -0.0490204 -3.18479 8.28686 14.1254 C
81 1 -0.107362 0.790239 11.8235 10.9041 C
82 1 -0.0892404 -1.76534 13.2507 12.1033 C
114 2 0.303827 -1.73074 9.56522 10.7784 H
253 3 -0.747409 -1.10536 10.4962 17.1918 O
252 3 -0.700428 -1.38786 10.6192 14.3906 O
100 2 0.0857297 -5.6253 11.6449 13.4516 H
101 2 0.0149537 -4.05583 12.8415 13.89 H
357 2 0.099384 -1.6576 13.3289 11.0239 H
115 2 0.317211 1.84924 7.82337 14.0934 H
137 2 0.106575 -3.15446 8.78391 15.0817 H
138 2 0.0720687 -2.42712 7.56449 14.0356 H
139 2 0.112084 -4.13021 8.05685 13.5693 H
251 3 -0.655547 2.72548 8.17373 13.6593 O
96 2 0.267415 -0.506439 9.3626 9.33943 H
208 3 -0.73137 -2.9186 6.90197 11.6645 O
164 2 0.0966833 0.3425 11.0868 11.5216 H
237 3 -0.66055 0.229979 6.93364 17.1747 O
358 2 0.031539 -1.08423 12.6246 12.6529 H
17 4 1.30701 -3.93249 7.63486 10.0116 Si
210 3 -0.855554 -3.09058 8.75692 9.17094 O
254 3 -0.709406 -3.45256 10.8597 15.7754 O
215 3 -0.701661 -1.07774 9.394 11.5133 O
216 3 -0.673742 -5.62192 12.1241 16.1883 O
217 3 -0.663101 -4.49301 12.9812 11.2747 O
218 3 -0.657572 -3.31706 10.6151 12.3625 O
209 3 -0.76661 -0.188158 6.99709 13.2028 O
49 4 0.529943 -0.492512 11.919 9.29961 Si
191 2 0.0701187 -7.08912 13.6102 13.4526 H
328 1 -0.0515333 -5.5531 10.7784 9.50458 C
360 2 0.0215121 -0.50072 13.3981 16.2158 H
339 1 -0.141325 12.0286 0.501424 1.66746 C
2 1 -0.101341 12.5966 0.722606 6.27907 C
3 2 0.025384 11.9996 1.55205 5.9427 H
365 3 -0.68832 12.9308 4.17739 0.900259 O
266 3 -0.684946 7.59978 6.84195 5.37344 O
32 4 1.13062 8.4584 0.341346 7.68887 Si
34 4 1.0572 7.15883 3.12467 6.85178 Si
39 4 1.13556 5.83159 5.12652 8.96896 Si
313 2 0.0338867 11.2584 3.49037 8.26633 H
53 4 0.878726 8.00829 2.67828 3.90259 Si
55 4 0.880079 8.81501 4.22129 1.47616 Si
56 4 1.20306 6.50864 5.65335 5.08682 Si
140 2 0.0336496 10.7868 0.98442 8.94359 H
85 1 -0.0996468 9.66096 1.56164 4.47965 C
88 1 -0.113496 9.24134 5.87182 2.62674 C
90 1 -0.0875918 10.1272 5.32154 6.40701 C
112 2 0.0813577 8.65916 0.81053 1.63204 H
170 2 0.0293723 10.3609 1.54602 3.65604 H
171 2 0.100942 9.1865 0.592829 4.70933 H
172 2 0.0626249 10.05 2.01754 5.39647 H
178 2 0.027513 10.2842 5.78875 2.94437 H
361 2 0.0191429 12.1692 0.808342 0.644449 H
318 1 -0.119865 13.5999 2.7211 4.05685 C
184 2 0.0680259 9.90675 4.82661 5.47546 H
185 2 0.0671739 9.76507 4.75886 7.24785 H
186 2 0.0297874 11.1211 5.68359 6.52792 H
261 3 -0.791135 5.08443 5.88894 5.8728 O
222 3 -0.788392 8.0642 1.80386 7.1734 O
230 3 -0.763308 6.96798 4.32318 7.99509 O
233 3 -0.76372 5.28346 6.56258 8.39083 O
4 2 0.0840527 13.122 0.911403 7.19741 H
256 3 -0.717317 7.74761 3.90932 5.55301 O
258 3 -0.717078 8.04476 3.17675 2.37364 O
259 3 -0.735373 10.1844 3.4509 1.15227 O
260 3 -0.764201 6.04476 5.41505 3.54931 O
188 2 0.0778302 8.85724 6.65976 8.91343 H
1 4 0.639443 14.2008 0.928146 4.91748 Si
349 2 -0.0118733 15.0302 0.493184 1.36068 H
340 2 0.0415556 11.9399 1.31534 2.33702 H
308 4 0.795941 11.4595 3.78156 0.265445 Si
121 2 0.296194 6.96732 4.7744 0.019877 H
320 2 0.0270237 12.532 2.61965 4.01109 H
296 2 0.04214 5.52924 6.51167 0.391382 H
179 2 0.0879822 8.56012 5.78592 3.45543 H
180 2 0.0711458 9.0565 6.69069 1.95046 H
295 2 0.0886413 6.05925 6.87702 2.073 H
12 4 0.936896 13.1233 2.21147 11.0369 Si
20 4 0.751426 11.6084 5.23132 16.1259 Si
263 3 -0.720667 8.20305 4.56147 18.0744 O
54 4 0.611295 11.6189 1.74835 13.56 Si
57 4 1.12441 8.95405 6.34877 17.1016 Si
60 4 0.578718 10.4782 2.57803 16.1516 Si
204 3 -0.819851 13.4415 2.97004 9.67676 O
176 2 0.0218754 13.1944 0.717429 15.323 H
355 2 0.0288461 9.50887 0.420192 10.0838 H
87 1 -0.102646 13.4296 1.49858 14.6062 C
105 2 0.290204 5.43639 4.82878 11.3877 H
106 2 0.0156322 8.34103 1.69987 12.2856 H
117 2 -0.0109024 9.99932 1.09254 16.8473 H
119 2 0.0603507 9.21392 3.76268 16.4377 H
120 2 0.00374509 9.06486 6.37821 12.5187 H
141 2 0.0389087 9.42484 2.03773 9.41102 H
42 4 1.12466 5.53932 4.16949 14.2937 Si
134 2 0.0619717 11.029 6.15259 13.6255 H
310 4 0.267666 11.0955 4.6716 9.58056 Si
135 2 0.0924051 10.297 4.54565 13.9661 H
334 2 0.0265337 7.54023 0.708941 18.02 H
177 2 0.0743381 14.0781 1.26231 13.7635 H
257 3 -0.67909 11.8519 2.59802 12.1225 O
262 3 -0.744533 10.5597 6.15353 16.9867 O
264 3 -0.80663 6.30994 5.2475 11.2012 O
362 2 0.0934671 13.6026 2.46295 15.1096 H
267 3 -0.642282 10.4283 2.28593 14.566 O
268 3 -0.685817 11.8965 3.13741 16.6338 O
269 3 -0.742061 6.63059 5.38108 14.1842 O
312 2 0.0934322 12.0356 4.23175 10.9392 H
270 3 -0.716525 8.3757 6.68473 15.5897 O
316 2 0.0635191 8.66034 5.17273 10.4303 H
36 4 0.689346 6.87295 2.70943 11.9662 Si
61 4 0.992191 6.82807 6.79087 15.0543 Si
136 2 0.0992289 12.1052 4.73244 13.6345 H
311 1 -0.0928615 9.10429 4.25251 10.1652 C
333 2 0.0741557 7.04557 2.03769 16.8575 H
71 1 -0.0676941 11.1862 5.17462 14.0055 C
314 2 0.036539 9.29692 3.58671 10.9846 H
331 1 -0.0961549 7.44154 1.7649 17.8313 C
203 3 -0.762305 14.4128 1.39602 11.5978 O
73 1 -0.124014 9.75802 1.0459 9.28243 C
315 2 0.0876598 8.63492 3.83439 9.28204 H
332 2 0.089695 8.26286 2.35924 18.2104 H
317 3 -0.726632 11.3239 6.26244 9.17836 O
58 4 1.08218 6.16283 6.8183 11.4608 Si
244 3 -0.792276 4.03886 8.44613 6.56133 O
48 4 1.02691 3.34516 9.64053 7.44394 Si
50 4 1.0765 1.85083 11.9071 5.94469 Si
83 1 -0.1311 2.8237 12.3263 4.06714 C
89 1 -0.0794304 10.0824 8.48883 5.649 C
294 2 0.0416711 4.80894 7.972 1.2296 H
337 2 0.0503174 1.20415 12.2211 1.07113 H
248 3 -0.788392 2.96407 11.0803 6.72919 O
166 2 0.0425149 1.9842 12.4006 3.38747 H
167 2 0.0367304 3.48788 11.458 3.93088 H
273 3 -0.697365 4.2028 9.76991 8.82146 O
183 2 0.0638699 9.87623 8.42608 4.59832 H
168 2 0.0321899 3.34488 13.2381 4.22821 H
6 3 -0.645876 6.5081 13.6063 3.79432 O
187 2 0.057285 8.84034 8.38903 8.40872 H
59 4 0.328373 8.87735 7.00637 6.3267 Si
306 3 -0.654626 6.33655 11.8897 1.69893 O
286 4 0.56893 6.10774 13.4659 2.21432 Si
307 3 -0.628421 8.44986 10.3991 4.25232 O
350 2 0.196502 3.43774 11.7981 0.0708029 H
249 3 -0.779703 1.68148 13.3563 6.69666 O
189 2 0.10593 7.31551 7.37563 8.33075 H
5 2 0.0623202 4.43407 13.6142 6.1334 H
285 4 0.695693 8.75366 10.0632 2.70685 Si
182 2 0.070484 9.6568 9.36966 6.12108 H
287 4 1.08229 7.21329 8.59465 0.566877 Si
288 4 0.83236 5.78174 11.253 0.269225 Si
289 4 0.339632 6.90306 10.4248 4.68798 Si
290 1 -0.120779 5.62494 7.27497 1.15717 C
291 1 -0.0694385 5.53191 9.12965 3.80568 C
292 1 -0.0623928 6.78488 9.9098 6.68367 C
293 2 0.110685 6.13641 11.9352 4.5567 H
327 2 0.0739102 8.53409 11.8895 0.914864 H
278 3 -0.662567 3.79112 10.8358 0.234031 O
154 2 0.0690472 2.81828 9.2269 1.66729 H
297 2 0.0662691 5.43079 9.47063 2.79236 H
298 2 0.0645649 4.65685 9.27575 4.4466 H
299 2 0.10553 6.03267 8.17434 3.95967 H
300 2 0.0851231 6.77515 8.85164 6.57003 H
301 2 0.0912815 5.85052 10.3459 7.04383 H
302 2 0.0546589 7.68184 10.321 7.15922 H
41 4 1.0642 4.53833 6.94075 6.96808 Si
304 3 -0.717911 7.90232 8.90049 1.99391 O
91 1 -0.0590987 8.40331 7.42248 8.34036 C
193 2 0.0847849 3.65264 12.7316 8.41833 H
341 2 0.0245219 3.50441 13.6329 1.88126 H
343 2 0.033001 7.09902 13.0963 17.2351 H
62 4 1.03967 8.85204 7.89781 11.7395 Si
63 4 0.634527 4.68912 10.8717 9.88537 Si
64 4 1.42564 7.39906 9.38573 13.8072 Si
65 4 0.872822 3.2739 9.93699 16.8132 Si
66 4 1.02783 6.83456 11.4689 11.7141 Si
165 2 0.0222274 0.715906 12.8185 11.3323 H
280 3 -0.760463 8.39676 11.959 11.7668 O
192 2 0.00288535 3.37741 12.9258 10.1738 H
94 1 -0.061269 3.78464 10.1441 11.6537 C
95 1 -0.122245 3.25345 11.4642 15.4385 C
173 2 0.0129807 3.97086 12.9372 13.4221 H
344 2 0.00268357 5.39392 12.7434 16.7493 H
122 2 -0.00391293 6.02314 12.8646 12.3691 H
265 3 -0.762385 4.59947 7.26689 11.5243 O
336 2 0.00977418 1.4619 12.8015 17.7366 H
363 2 0.0357994 6.74988 12.9993 14.3242 H
92 1 -0.113027 7.76156 13.3202 14.3747 C
329 2 0.103914 9.01805 10.095 9.86281 H
93 1 -0.124836 4.09874 12.7946 9.38555 C
196 2 0.0269271 3.56212 10.9831 12.2682 H
197 2 0.151469 4.57046 9.55336 12.1226 H
198 2 0.0650117 2.27553 11.2291 15.0239 H
199 2 0.0677166 4.12733 11.2096 14.8636 H
200 2 0.00879988 3.26939 12.4246 15.9297 H
175 2 0.0422819 2.25908 13.6442 13.4437 H
271 3 -0.822223 10.0573 8.15115 10.6697 O
342 1 -0.125587 6.35156 12.3125 16.9635 C
274 3 -0.816077 6.46162 8.10026 14.152 O
275 3 -0.770446 8.76871 8.90187 12.9756 O
276 3 -0.703898 8.04165 10.2184 15.0814 O
277 3 -0.684048 4.23418 8.88602 16.1585 O
116 2 0.239027 6.51341 9.05034 9.89247 H
364 2 0.106028 6.79471 11.6014 16.296 H
272 3 -0.788995 7.35468 7.7582 10.8999 O
281 3 -0.733937 6.27031 10.9917 10.2657 O
282 3 -0.796455 6.48907 10.5623 12.9903 O
305 3 -0.702846 6.81943 9.7878 18.2274 O
51 4 0.812257 3.92712 7.64567 15.2063 Si
303 3 -0.753366 8.57015 7.71509 17.9784 O
195 2 0.0985662 2.92821 9.58125 11.3477 H
27 4 0.690169 8.83403 11.6584 14.9682 Si
163 2 0.0275981 1.77718 11.5526 10.554 H
98 2 0.0997037 9.9634 9.37993 16.8546 H
194 2 0.0415175 5.01397 13.3526 9.43598 H
86 1 -0.138102 3.25362 13.6732 13.0496 C
174 2 0.020689 3.28062 13.6653 11.9637 H
118 2 0.0096889 5.99781 6.84868 16.5536 H
ITEM: TIMESTEP
100
ITEM: NUMBER OF ATOMS
365
ITEM: BOX BOUNDS xy xz yz pp pp pp
-7.8864359999999998e+00 1.5874770000000000e+01 -7.8864359999999998e+00
-1.3819999999999999e-01 1.3846299999999999e+01 2.5122600000000000e-01
0.0000000000000000e+00 1.8322199999999999e+01 -1.3819999999999999e-01
ITEM: ATOMS id type q x y z element
16 4 1.01893 -0.542658 3.45459 9.05639 Si
255 3 -0.735929 6.57892 1.85858 4.19003 O
153 2 0.0295712 2.23284 6.45925 3.54435 H
8 2 0.0859329 2.94872 1.00544 0.0499185 H
11 4 1.25331 2.81644 0.745141 8.51773 Si
13 4 1.23205 0.956716 2.274 6.67772 Si
161 2 0.0576248 2.16697 5.42487 7.96216 H
29 4 1.06146 6.0765 0.601742 3.319 Si
30 4 0.477509 2.44086 3.13553 3.66221 Si
31 4 1.08875 5.58897 2.22401 0.789086 Si
37 4 1.1108 4.96698 4.52301 2.62989 Si
351 2 0.0496215 -1.40645 2.76184 2.94174 H
69 1 -0.1015 -1.58169 5.63558 7.34029 C
74 1 -0.0889829 2.36715 1.01182 3.55357 C
75 1 -0.0598912 5.03162 2.55352 6.46742 C
151 2 0.105576 2.43928 6.30603 5.36282 H
309 2 0.043756 -0.217911 5.46954 2.97197 H
102 2 0.0230718 1.32655 3.65967 2.40075 H
107 2 -0.038316 4.00327 5.69329 1.80851 H
109 2 0.299821 2.49714 3.92449 5.82245 H
319 2 0.0520204 -0.839915 3.52653 4.48851 H
347 2 0.0906764 -0.331451 5.06575 2.23878 H
129 2 0.03461 -2.57856 5.32497 7.07478 H
130 2 0.0787073 -1.48825 5.95054 8.3539 H
142 2 0.0727996 2.6705 0.667041 4.53237 H
143 2 0.0491299 3.06343 0.742765 2.77906 H
144 2 0.0689913 1.34004 0.748077 3.32586 H
145 2 0.115229 5.16855 1.54986 6.08313 H
146 2 0.108201 4.67415 3.22339 5.69071 H
147 2 0.0837981 4.55448 2.62777 7.42661 H
10 3 -0.676406 0.421305 4.68496 0.247525 O
284 2 0.0590708 2.46075 1.4916 1.01426 H
127 2 0.0279174 -1.8266 5.94233 4.19935 H
131 2 0.0569853 -0.756515 5.03308 6.96106 H
201 3 -0.691717 0.384701 1.23112 5.49542 O
202 3 -0.818277 2.32535 1.73791 7.32401 O
205 3 -0.804563 -0.233498 2.7362 7.63469 O
219 3 -0.669689 1.65774 3.83798 5.39814 O
220 3 -0.783305 5.40278 1.00779 1.85275 O
226 3 -0.700679 3.92352 3.73875 3.61015 O
80 1 -0.102909 2.03911 6.28496 8.60259 C
162 2 0.0686762 2.96103 6.65744 9.04165 H
68 1 -0.123765 -2.46156 6.78032 4.47385 C
9 2 0.0201577 3.08492 5.57444 0.263573 H
126 2 0.0134291 -3.42928 6.53356 4.91643 H
318 1 -0.123398 -1.60325 2.9638 3.9945 C
14 4 0.588763 0.126716 3.30451 11.9587 Si
15 4 0.675227 -1.35044 6.36353 17.3538 Si
19 4 1.13844 -0.22343 5.55939 13.8531 Si
33 4 1.09533 4.59602 2.58468 10.1036 Si
35 4 0.967121 4.01271 2.64135 16.5988 Si
40 4 0.861818 1.04562 5.66495 10.384 Si
208 3 -0.728124 -2.90529 6.78223 11.6777 O
43 4 0.795932 1.3756 6.39485 16.1841 Si
229 3 -0.738789 4.51128 4.08985 9.37615 O
67 1 -0.0756236 1.64113 2.33173 12.9242 C
76 1 -0.141135 3.54905 0.966633 15.3156 C
345 2 0.279343 0.690871 0.514026 10.0627 H
235 3 -0.795435 6.06732 2.91206 13.5157 O
103 2 0.301019 3.07853 4.77801 14.3252 H
356 2 0.0547703 5.93824 0.397795 13.0539 H
110 2 0.303071 3.88316 5.4124 16.0536 H
123 2 0.0637628 1.36951 1.27841 13.0102 H
124 2 0.0713117 1.68545 2.8451 13.8801 H
125 2 0.082991 2.45045 2.5439 12.2221 H
148 2 0.0335517 2.59587 1.28806 14.9382 H
149 2 0.0505958 3.42637 0.0423646 15.8876 H
150 2 0.0385745 4.36685 1.00884 14.6168 H
97 2 0.27813 -2.58469 5.81284 11.5309 H
7 4 0.615074 2.10285 4.58598 17.7523 Si
250 3 -0.75059 3.6018 6.42767 16.3598 O
206 3 -0.761523 -0.59472 4.26766 13.0398 O
207 3 -0.677438 -2.17606 5.98211 16.0314 O
346 2 0.0201564 -0.504697 3.14157 16.4406 H
221 3 -0.745654 3.3571 1.6462 9.78875 O
223 3 -0.751174 4.55882 2.3248 18.1392 O
224 3 -0.697327 2.62198 3.48531 16.6315 O
225 3 -0.746011 6.00911 2.12581 10.7916 O
231 3 -0.710988 0.743058 3.586 9.99144 O
234 3 -0.798117 5.15384 3.66447 15.9188 O
44 4 1.11951 3.30892 6.49773 12.506 Si
236 3 -0.760413 0.971877 5.41594 14.9364 O
238 3 -0.748326 2.05264 5.89865 11.6113 O
239 3 -0.741268 3.88292 5.185 13.7137 O
232 3 -0.74222 -0.338208 6.43104 10.5693 O
104 2 0.260335 -0.217596 1.16638 10.7247 H
283 4 0.645517 -0.723753 4.0502 17.9048 Si
18 4 0.713403 -1.43122 7.36578 6.16425 Si
23 4 1.31353 -2.41173 9.61416 8.06315 Si
25 4 1.17716 -3.2733 12.3268 6.9444 Si
38 4 0.583397 0.795672 8.28773 4.71471 Si
45 4 0.671026 0.605057 8.39121 1.79717 Si
46 4 0.854239 -1.05615 12.0367 4.84849 Si
70 1 -0.112124 -5.06334 12.0373 5.78301 C
113 2 0.0128245 2.03044 9.21109 8.42473 H
79 1 -0.0932867 -1.88229 10.4179 3.85058 C
181 2 0.0600815 -4.401 8.23321 6.1795 H
108 2 0.224102 0.733092 9.9869 5.17565 H
348 2 -0.0164458 -5.03741 9.36603 2.93554 H
338 2 0.0492596 -0.257273 12.8183 0.58619 H
325 2 0.00678515 -5.13613 11.8037 1.80397 H
132 2 0.0214852 -4.60692 12.2203 4.81867 H
133 2 0.0533495 -5.32086 11.0123 6.04418 H
157 2 0.0947025 -1.38308 9.66021 4.4038 H
158 2 0.0963769 -1.60503 10.4677 2.78217 H
159 2 0.0162632 -2.91336 10.4517 4.08874 H
353 2 0.0641616 -5.36331 11.1463 8.50028 H
324 1 -0.104196 -6.20238 11.6424 1.5975 C
211 3 -0.752893 -2.21443 8.63928 6.7595 O
213 3 -0.845306 -3.1496 11.0214 7.87329 O
214 3 -0.761436 -3.75202 13.5277 7.90739 O
228 3 -0.644595 0.151189 7.59412 6.03839 O
240 3 -0.67641 -0.0134421 8.28654 3.28308 O
241 3 -0.746253 -0.772059 13.1136 3.61524 O
242 3 -0.775853 -2.13688 12.6149 5.85876 O
243 3 -0.703987 -0.0515712 9.63549 1.07018 O
245 3 -0.642339 -0.371534 9.94381 8.47649 O
77 1 -0.0672517 2.37948 6.95457 4.49305 C
247 3 -0.693479 0.665606 10.9901 5.69111 O
354 2 0.0788545 -5.77281 12.7932 6.10732 H
335 1 -0.133121 0.662214 12.4234 0.197883 C
352 2 0.0279843 -2.80873 7.50001 1.1067 H
111 2 0.056779 0.0485219 6.98088 1.00695 H
78 1 -0.127642 2.48148 8.41052 1.62913 C
246 3 -0.661341 -0.408636 13.2274 8.39034 O
323 2 0.130794 -1.83219 8.84977 0.398754 H
152 2 0.0699732 3.17171 7.68897 4.47852 H
321 1 -0.0754361 -2.48368 8.00643 0.216159 C
156 2 -0.000948446 2.85767 7.52839 2.09323 H
155 2 0.0956068 2.76054 8.56174 0.598343 H
128 2 0.0605993 -2.49095 7.56855 3.75059 H
326 2 0.080652 -6.8303 12.4593 1.88168 H
160 2 0.0681857 1.38071 7.02296 8.18864 H
99 2 -0.0122003 -4.48153 11.2624 0.109608 H
84 1 -0.131151 -1.42684 13.1494 16.0384 C
21 4 0.968069 -1.03601 7.41522 11.7463 Si
22 4 0.595929 -4.73424 10.8631 16.8105 Si
24 4 0.844406 -5.76751 12.4343 10.6992 Si
26 4 0.854969 -2.21455 9.85998 13.1077 Si
279 3 -0.697599 1.62407 9.53122 17.0897 O
28 4 0.68276 -3.44516 12.4535 12.4286 Si
47 4 1.02664 0.395735 10.2122 17.9083 Si
330 2 0.13725 -4.59239 10.293 9.89264 H
359 2 0.0208059 -1.67198 13.2818 17.0602 H
52 4 0.975667 -1.87924 10.9962 15.8822 Si
72 1 -0.0641272 -3.3485 8.36966 14.0261 C
81 1 -0.113054 0.813411 11.8994 10.8588 C
82 1 -0.09522 -1.64198 13.4135 12.3758 C
114 2 0.310746 -1.8743 9.4572 10.6289 H
253 3 -0.735351 -0.994368 10.2778 17.0611 O
252 3 -0.651258 -1.33744 10.7278 14.2384 O
100 2 0.075837 -5.22008 11.137 13.7951 H
101 2 0.00146349 -3.99896 12.8061 14.024 H
357 2 0.108144 -1.58511 13.7538 11.3507 H
115 2 0.286993 1.71139 7.45256 14.0425 H
137 2 0.0952908 -4.00148 8.72304 14.7886 H
138 2 0.108167 -2.68443 7.53146 14.2834 H
139 2 0.0791641 -3.89776 8.26942 13.1124 H
251 3 -0.647987 2.67174 8.00216 13.8047 O
96 2 0.294747 -0.085324 9.49782 9.31016 H
212 3 -0.674045 -6.60554 13.6871 9.35121 O
164 2 0.10316 0.407363 11.17 11.572 H
322 2 0.0765411 -3.01629 8.11612 17.8371 H
358 2 0.0542031 -0.834889 12.785 12.7666 H
17 4 1.15901 -3.93004 7.63257 10.0226 Si
210 3 -0.855689 -2.92619 8.77166 9.31211 O
254 3 -0.726012 -3.45103 10.7394 15.7979 O
215 3 -0.655079 -1.09825 9.42069 11.4494 O
216 3 -0.646619 -5.82829 12.0124 16.3987 O
217 3 -0.655724 -4.44193 13.1152 11.3248 O
218 3 -0.68985 -3.18042 10.8776 12.3629 O
209 3 -0.737726 -0.507734 7.10741 13.3099 O
49 4 0.550557 -0.390179 11.8036 9.17241 Si
169 2 0.0287028 -2.11843 13.6429 15.3615 H
328 1 -0.0546184 -5.49492 10.7431 9.48559 C
360 2 0.0356008 -0.387975 13.2764 15.7594 H
237 3 -0.666289 0.16976 6.83311 17.1561 O
339 1 -0.148509 12.0969 0.30663 1.72972 C
2 1 -0.0969825 12.8498 0.687311 6.49227 C
3 2 0.0415861 11.9001 1.13514 6.29648 H
121 2 0.314376 7.19994 4.9428 0.171037 H
349 2 -0.0129949 14.8996 0.63381 1.48027 H
32 4 1.06693 8.43303 0.415652 7.77232 Si
34 4 1.01199 7.04435 3.16087 6.88758 Si
39 4 1.03236 5.85089 5.05038 8.9479 Si
313 2 0.0504739 11.1467 3.51501 8.48923 H
53 4 0.891515 7.8819 2.74706 3.93642 Si
55 4 0.826211 9.06265 4.18192 1.55746 Si
56 4 1.20166 6.34714 5.7372 5.01029 Si
140 2 0.0358705 10.4753 1.54243 9.06689 H
85 1 -0.103622 9.60125 1.68397 4.4832 C
88 1 -0.112595 9.48738 5.98641 2.41943 C
90 1 -0.0803855 9.82553 5.17409 6.49614 C
112 2 0.0805192 8.60233 0.963921 1.93806 H
170 2 0.0349176 10.2737 1.80342 3.61674 H
171 2 0.0828597 9.2856 0.650796 4.63322 H
172 2 0.0635899 9.90877 2.16254 5.41947 H
178 2 0.0161245 10.5211 5.83647 2.64341 H
361 2 0.0261479 12.1709 0.867612 0.790027 H
332 2 0.0833782 8.2822 2.19083 0.179378 H
184 2 0.0434633 9.98201 4.79599 5.50193 H
185 2 0.111637 9.11668 4.59386 7.0572 H
186 2 0.0533559 10.7074 5.48646 7.04432 H
261 3 -0.79729 4.92483 6.14318 5.72315 O
222 3 -0.75179 8.04682 1.8877 7.2199 O
230 3 -0.755686 7.05292 4.24654 8.12898 O
233 3 -0.764219 5.39354 6.59176 8.37019 O
4 2 0.096999 13.4114 1.1518 7.2831 H
256 3 -0.717035 7.51445 3.98014 5.54272 O
258 3 -0.693289 8.07248 3.17251 2.37974 O
259 3 -0.731427 10.3751 3.32214 1.09551 O
260 3 -0.773076 6.05226 5.39485 3.44256 O
227 3 -0.724658 5.67644 3.76117 1.42276 O
1 4 0.593236 14.16 1.11128 4.87591 Si
179 2 0.0789671 8.8512 6.07033 3.29491 H
340 2 0.0330857 11.7727 0.94031 2.56187 H
308 4 0.845078 11.5498 3.73419 0.0969873 Si
180 2 0.102547 9.28934 6.70675 1.62436 H
320 2 0.0236091 12.6686 3.24651 4.24156 H
365 3 -0.726263 13.0803 3.99327 0.502679 O
12 4 0.946378 13.0355 2.17849 11.0072 Si
20 4 0.724207 11.6075 5.25876 16.0059 Si
263 3 -0.69715 8.39227 4.68672 18.1859 O
54 4 0.661689 11.5113 1.81157 13.549 Si
57 4 1.21352 8.99773 6.4441 17.1554 Si
60 4 0.525811 10.3464 2.54533 16.0732 Si
204 3 -0.765373 13.2585 3.02183 9.59566 O
176 2 0.0518025 13.1194 1.53547 15.5488 H
296 2 0.0316747 6.11361 6.40779 18.3201 H
87 1 -0.0835198 13.2979 2.00618 14.5766 C
105 2 0.279815 5.63516 4.79181 11.5864 H
106 2 0.0103425 8.31047 1.81719 12.1972 H
117 2 -0.0108601 10.2605 1.01485 16.9161 H
119 2 0.073386 9.09338 3.65009 16.5401 H
120 2 -0.0195504 9.21075 6.29505 12.0389 H
141 2 0.0390683 9.17993 1.2187 10.2947 H
42 4 1.27436 5.61713 4.11676 14.4686 Si
134 2 0.0547781 10.9461 6.25067 13.7516 H
310 4 0.292531 10.9502 4.68073 9.79646 Si
135 2 0.0900386 10.1619 4.60311 14.1002 H
334 2 0.00629362 7.43969 0.870737 17.6196 H
177 2 0.0557587 14.0517 1.47217 14.0086 H
257 3 -0.73722 11.9452 2.4779 12.1666 O
262 3 -0.754366 10.5616 5.98316 16.9959 O
264 3 -0.817067 6.3827 5.28185 11.1426 O
362 2 0.107569 13.4422 3.08708 14.5706 H
267 3 -0.639896 10.2269 2.37884 14.4161 O
268 3 -0.676437 11.8261 3.11939 16.4468 O
269 3 -0.794892 6.369 5.53054 14.421 O
312 2 0.0886617 11.5152 4.30058 11.4611 H
270 3 -0.786914 8.20021 6.64323 15.7341 O
316 2 0.0909838 8.55812 5.23827 10.3853 H
36 4 0.739535 6.76012 2.7022 12.0823 Si
317 3 -0.683094 11.0743 6.22967 9.23805 O
136 2 0.0814672 11.9186 4.74926 13.5042 H
311 1 -0.0778531 9.03262 4.25375 10.4263 C
333 2 0.0809615 7.43651 2.64087 17.1699 H
71 1 -0.0807876 11.0647 5.1943 13.9988 C
314 2 0.0364624 9.09058 3.85006 11.4181 H
331 1 -0.104811 7.61502 1.89325 17.9409 C
203 3 -0.739575 14.3923 1.40088 11.514 O
73 1 -0.125172 9.76275 0.858176 9.45178 C
315 2 0.0917673 8.64118 3.59704 9.69567 H
58 4 1.24674 6.0551 6.82374 11.3798 Si
244 3 -0.777707 3.87193 8.45808 6.60402 O
48 4 1.05521 3.49453 9.73156 7.498 Si
50 4 1.02986 1.97375 12.0187 6.03953 Si
83 1 -0.119985 2.68261 12.348 4.10828 C
89 1 -0.0871713 10.0489 8.46429 5.57703 C
294 2 0.0796316 4.7835 7.9697 0.359019 H
337 2 0.0380609 1.44253 12.2905 0.931167 H
248 3 -0.792516 3.09753 11.0651 6.6729 O
166 2 0.0491575 1.89269 12.8502 3.58602 H
167 2 0.0407314 2.88424 11.3661 3.77745 H
273 3 -0.716993 4.67828 9.82141 8.59919 O
183 2 0.043421 10.1651 8.30335 4.51155 H
168 2 0.0442405 3.57165 12.9806 4.25082 H
6 3 -0.65587 6.2587 13.6376 3.8599 O
187 2 0.0429554 8.39355 8.76335 8.19502 H
59 4 0.296779 8.81732 6.99797 6.30153 Si
306 3 -0.712995 6.21011 12.0651 1.64492 O
286 4 0.66027 5.99737 13.5162 2.25624 Si
307 3 -0.620561 8.35063 10.4625 4.3734 O
341 2 0.0245348 3.75333 13.2709 1.70859 H
249 3 -0.768031 1.7503 13.4758 6.76207 O
189 2 0.121087 7.27884 7.30734 8.33406 H
5 2 0.0558733 5.12822 13.4474 6.49455 H
285 4 0.656286 8.72258 10.0423 2.8407 Si
182 2 0.077672 9.57659 9.39587 5.80775 H
287 4 0.983695 7.28517 8.61679 0.608134 Si
288 4 0.894188 5.79563 11.2447 0.334713 Si
289 4 0.33302 6.84592 10.4637 4.87702 Si
290 1 -0.112581 5.57506 7.29853 0.687824 C
291 1 -0.0514063 5.54971 9.14152 3.86843 C
292 1 -0.0564384 6.86539 10.138 6.89713 C
293 2 0.141924 6.38657 12.0861 4.61424 H
327 2 0.0756494 8.87192 11.1964 0.614596 H
278 3 -0.66897 3.81882 10.775 0.274781 O
154 2 0.04419 2.74981 9.29677 2.21321 H
297 2 0.0809771 5.57066 9.56544 2.85059 H
298 2 0.0681124 4.59226 9.18135 4.37933 H
299 2 0.12528 6.05701 8.18182 3.93913 H
300 2 0.0943658 6.57705 9.09557 7.11364 H
301 2 0.0909106 6.11472 10.8537 7.2338 H
302 2 0.0475509 7.86497 10.3878 7.20989 H
41 4 1.05088 4.53623 6.99961 7.03361 Si
304 3 -0.678096 7.75646 8.91496 2.15162 O
91 1 -0.0568126 8.25517 7.69059 8.18361 C
193 2 0.0802342 3.74383 12.4347 8.23376 H
350 2 0.209857 3.42603 11.706 0.330367 H
188 2 0.115494 8.98111 7.17493 8.81865 H
194 2 0.0505719 5.18542 13.3149 8.88938 H
266 3 -0.658791 7.44315 6.90514 5.35249 O
295 2 0.056119 5.68037 7.05448 1.73869 H
93 1 -0.126384 4.30002 12.7411 9.10599 C
343 2 0.0711157 7.27283 12.7303 17.291 H
62 4 1.17063 8.7708 7.88262 11.5312 Si
63 4 0.583197 4.90644 10.8755 9.7803 Si
64 4 1.51887 7.49476 9.32441 13.7204 Si
65 4 0.79992 3.20131 9.93896 16.8086 Si
66 4 1.06392 6.96197 11.4425 11.7685 Si
165 2 0.0268121 0.788039 12.9244 11.1573 H
280 3 -0.753129 8.44506 12.0874 11.8701 O
192 2 0.00379536 3.7086 13.0796 9.912 H
94 1 -0.0899199 3.64364 10.3549 11.4967 C
95 1 -0.117734 3.30092 11.383 15.3709 C
173 2 0.00751215 3.89319 13.2552 14.0446 H
344 2 0.000812483 5.54784 13.1487 17.1585 H
122 2 -0.0128015 5.92177 12.778 12.1998 H
265 3 -0.823913 4.53395 7.1313 11.6917 O
336 2 0.00734574 1.19668 12.6851 17.5643 H
363 2 0.0417671 6.62143 12.5401 14.627 H
92 1 -0.106774 7.56895 13.0816 14.6245 C
329 2 0.0889495 8.89157 10.202 9.63804 H
355 2 0.0228898 2.37753 13.6914 9.59045 H
196 2 0.0168467 3.36639 11.3146 11.9071 H
197 2 0.133761 4.31008 9.80159 12.1055 H
198 2 0.0626666 2.29668 11.3406 14.9502 H