ITEM: TIMESTEP
0
ITEM: NUMBER OF ATOMS
365
ITEM: BOX BOUNDS xy xz yz pp pp pp
-7.7317999999999998e+00 1.5563499999999999e+01 -7.7317999999999998e+00
-1.3819999999999999e-01 1.3846299999999999e+01 2.4629999999999999e-01
0.0000000000000000e+00 1.8322199999999999e+01 -1.3819999999999999e-01
ITEM: ATOMS id type q x y z
80 1 -0.708324 1.92489 6.59164 8.68851
8 2 -0.0250935 0.243123 2.9407 1.69525
226 3 -0.839446 3.79911 3.86466 3.67488
229 3 -0.858577 4.33789 3.66284 8.89648
11 4 1.47494 2.9672 0.34466 8.95193
13 4 1.47066 1.46225 2.10738 7.00657
160 2 0.163707 1.94465 5.45259 8.24815
29 4 1.27918 6.93448 0.435586 2.32961
30 4 1.03553 2.59727 3.05955 4.17537
31 4 1.35501 5.60462 2.79342 0.731275
319 2 0.13984 -0.626198 3.65111 5.30405
220 3 -0.813766 5.89947 1.28872 1.58441
69 1 -0.672737 -0.496972 5.64755 6.80696
74 1 -0.637747 1.49606 1.89319 2.81865
75 1 -0.656746 5.21639 1.83373 6.59759
205 3 -0.901335 0.813621 2.98112 8.17701
96 2 -0.0134808 -0.955357 4.91686 8.59915
102 2 0.0278055 1.07272 3.57543 3.17001
131 2 0.135396 -1.55852 5.70946 7.25882
109 2 0.00849782 2.91726 6.33703 5.37334
126 2 0.126271 -1.98881 5.97691 4.62344
107 2 -0.0131272 4.12074 6.12677 2.36002
129 2 0.161378 0.359104 5.9357 7.55647
130 2 0.149937 -0.276212 4.64787 6.20507
142 2 0.198144 1.72972 1.70988 1.75779
143 2 0.198328 0.611611 1.20499 3.05496
144 2 0.0740296 2.84727 1.20058 3.66881
145 2 0.220979 5.38044 1.05519 7.47961
146 2 0.211683 5.29325 1.33251 5.5958
147 2 0.277679 4.27638 2.4359 6.63139
151 2 0.169697 2.46656 5.6225 3.97155
318 1 -0.656765 -1.24702 2.8221 4.66206
347 2 0.069424 -2.51499 5.89906 1.27764
219 3 -0.797707 2.12862 3.04282 5.79134
201 3 -0.795562 0.458097 1.02055 6.16603
202 3 -0.819096 2.73093 1.19504 7.57212
7 4 0.939719 0.314737 3.17089 0.0462362
153 2 0.16155 2.26929 6.66731 2.3505
77 1 -0.665824 2.55565 6.66522 3.4408
351 2 0.15363 -1.06274 2.76714 3.51567
155 2 0.135231 1.68249 6.90635 0.253307
14 4 1.16477 0.584317 2.55055 12.9676
360 2 0.190573 5.9121 0.736791 15.0552
19 4 1.34665 -0.95772 5.00049 13.9636
33 4 1.36602 3.73583 2.96201 10.1372
35 4 1.29045 3.29899 2.58406 17.1941
40 4 1.19859 1.22718 6.23756 10.3816
42 4 1.40401 4.49613 4.40518 14.7118
204 3 -0.787609 -1.14399 2.6302 9.91165
44 4 1.50786 3.6671 6.34797 12.7026
67 1 -0.688675 0.772341 1.54459 14.6124
76 1 -0.678492 3.57689 1.03489 16.1209
43 4 1.22152 0.837936 6.27358 16.1219
36 4 0.951605 5.59696 2.73873 12.6428
103 2 0.121877 2.29331 3.77475 10.4255
104 2 0.0368518 2.16137 2.57573 13.7282
110 2 0.0696227 2.18023 5.23226 16.2042
123 2 0.17661 0.292536 0.528801 14.2737
124 2 0.179901 0.205863 2.0409 15.4215
125 2 0.167836 1.79154 1.30502 15.027
15 4 0.916954 -1.85691 6.51834 17.9286
149 2 0.162945 4.51745 0.509146 16.548
150 2 0.19372 3.8267 1.53247 15.0437
10 3 -0.875221 -0.703946 2.50723 17.6448
203 3 -0.841382 0.342864 1.47208 11.8665
207 3 -0.788965 -3.09331 6.185 16.8547
206 3 -0.855766 -0.407628 3.71306 13.3141
223 3 -0.837895 4.56092 2.604 18.1983
209 3 -0.841884 -1.2004 6.20249 12.9588
221 3 -0.862592 3.34488 1.44501 9.96358
84 1 -0.681931 6.91745 0.257298 15.0633
224 3 -0.841315 1.91093 2.42071 17.9701
225 3 -0.843133 4.54563 2.90099 11.4709
231 3 -0.803539 0.837351 4.30045 10.4492
234 3 -0.783057 3.27733 3.98405 16.0878
106 2 -0.00927211 6.14079 1.09867 12.4789
236 3 -0.863029 -0.0868017 5.62224 15.0714
238 3 -0.807984 2.44312 6.33247 11.5005
239 3 -0.844805 3.61937 4.92224 13.4256
235 3 -0.805096 5.21469 2.89677 14.2191
356 2 0.177661 4.06589 0.502155 12.4595
148 2 0.146213 2.6187 0.403121 16.1439
237 3 -0.802711 0.00430557 6.11468 17.5806
359 2 0.154324 7.44677 0.146174 14.0204
16 4 1.23175 -0.0419476 3.65521 9.29635
9 2 0.0403121 0.662273 4.78364 18.3013
18 4 1.07895 -0.770038 7.41626 5.84432
23 4 1.48774 -2.24658 9.39058 8.10404
25 4 1.18075 -3.44161 12.1769 6.97799
38 4 0.998447 1.88112 8.39238 3.82101
45 4 1.05234 1.01434 9.05478 0.91399
46 4 1.26363 -1.2917 12.2078 4.54824
70 1 -0.684015 -5.09466 12.3426 6.15364
78 1 -0.669841 2.34081 7.89347 0.266071
79 1 -0.66904 -1.86663 10.697 3.52775
354 2 0.246944 -5.87608 13.0406 6.62854
353 2 0.219359 -5.12532 10.584 8.38879
113 2 0.0394155 1.04465 9.21904 7.6987
245 3 -0.804625 -1.11045 10.3245 8.8177
111 2 0.00721588 -0.567085 8.42542 0.837763
132 2 0.160861 -4.73288 12.6677 5.13809
133 2 0.163729 -5.45601 11.2274 6.17971
157 2 0.210115 -0.956501 9.97257 3.69928
158 2 0.135583 -1.93913 11.1258 2.45641
159 2 0.157868 -2.85753 10.2971 3.87134
348 2 -0.00477429 -4.93797 10.0004 4.55845
161 2 0.224883 3.00405 6.89333 8.99266
211 3 -0.776164 -1.43398 8.47733 6.93677
213 3 -0.783137 -3.26243 10.481 7.31663
214 3 -0.818784 -3.57698 13.1397 8.73957
228 3 -0.740818 0.546653 7.89027 4.93196
240 3 -0.818223 1.45764 8.91987 2.44071
156 2 0.166377 3.10604 7.85484 1.04638
242 3 -0.780239 -2.2355 12.5226 5.88874
241 3 -0.848812 -1.33347 13.4567 3.54927
98 2 -0.0391999 -3.96622 11.3574 0.461253
246 3 -0.77851 -0.0123734 12.9264 8.90208
247 3 -0.794878 0.365893 11.6605 5.03909
321 1 -0.649622 -2.31689 7.64732 1.29049
322 2 0.155218 -1.60858 7.9057 2.15383
323 2 0.172238 -3.27947 8.1942 1.39818
324 1 -0.655898 -6.25005 12.201 2.80453
68 1 -0.626113 -2.06067 7.23611 4.54431
326 2 0.110706 -5.12066 12.4153 3.20355
127 2 0.180648 -1.73959 7.60714 3.50588
182 2 0.207483 -3.8588 8.43053 6.33772
162 2 0.164661 1.4386 7.38462 8.03759
112 2 -0.000984911 -0.127397 13.1871 1.21078
243 3 -0.793045 1.20428 10.3908 0.0704657
128 2 0.174134 -3.10957 7.69086 4.95806
325 2 0.175727 -6.26453 12.0094 1.69639
210 3 -0.827001 -3.16661 8.52098 9.07883
327 2 0.272244 -7.12157 12.8884 3.15313
17 4 1.46049 -3.81352 7.4546 10.2696
21 4 1.5335 -1.2506 7.36699 11.9015
22 4 0.955638 -3.79745 11.9251 17.2485
24 4 1.251 -6.34957 11.7228 10.1494
26 4 1.25652 -1.51456 9.79315 13.9009
27 4 1.0798 -5.52609 10.6313 15.1157
28 4 1.05137 -3.86376 11.8819 12.4123
92 1 -0.69335 -6.37332 12.1508 14.2243
49 4 1.01787 -1.01138 11.693 9.64758
51 4 1.24942 2.41223 8.34865 14.7372
52 4 1.23625 -0.976917 12.3602 15.7926
72 1 -0.68909 -1.66761 8.92748 15.5258
81 1 -0.675579 -0.192149 11.4616 11.3274
99 2 -0.0114897 -4.42409 13.4989 17.5344
254 3 -0.811461 -2.37556 11.9553 16.5502
352 2 0.0383157 -1.87393 8.36327 18.0366
190 2 0.156244 -5.87915 12.945 14.8344
100 2 0.0906489 -4.42989 9.9875 13.9572
101 2 0.0278796 -4.66428 12.9518 13.6339
114 2 0.102912 -2.5827 12.4484 9.74173
154 2 0.257614 2.94116 8.17484 17.5356
137 2 0.215409 -0.878234 8.99175 16.2746
138 2 0.197504 -1.67892 7.82642 15.0915
139 2 0.158307 -2.68594 9.3279 15.8375
232 3 -0.830611 -0.250196 7.05105 10.6856
115 2 0.0526186 1.80255 9.61703 13.7615
136 2 0.139829 -3.81742 8.1363 15.2156
164 2 0.230558 0.0446523 10.3682 11.4001
165 2 0.186779 -1.0136 11.812 12.0307
82 1 -0.674092 -2.92958 13.4548 12.6912
364 2 0.195961 -6.70965 12.3293 17.0027
208 3 -0.841213 -2.81498 7.60433 11.6278
212 3 -0.820961 -6.33104 13.134 9.27701
215 3 -0.784165 -0.801342 8.86992 12.878
216 3 -0.839422 -4.76448 11.1755 16.383
217 3 -0.797662 -4.92739 11.7772 11.248
218 3 -0.781932 -3.21538 10.6051 13.1658
357 2 0.0916009 -2.24081 13.1577 11.6064
191 2 0.193866 -6.44423 12.4139 13.1259
250 3 -0.827176 1.2064 7.76878 15.6008
252 3 -0.716197 -0.732045 11.2042 14.2884
253 3 -0.805454 0.266779 12.2847 16.7878
163 2 0.1621 0.731051 12.1879 11.2158
358 2 0.171587 -2.09392 13.7195 13.531
251 3 -0.903463 3.23845 7.48842 13.7788
196 2 0.187812 1.6548 10.7089 11.8262
195 2 0.1662 2.59382 8.91243 11.7481
1 4 1.00085 14.3864 1.05846 5.33896
350 2 0.00508066 9.93392 1.47382 0.892558
2 1 -0.647343 12.8677 0.231058 6.12706
4 2 0.123022 12.4419 1.27473 6.55765
286 4 1.03758 13.7835 -0.00119038 2.19054
140 2 0.179221 10.8417 0.410609 8.61562
34 4 1.33002 6.89136 2.66386 6.71992
39 4 1.53548 5.2875 4.95439 8.32707
349 2 0.0111312 14.1039 1.44861 1.2943
53 4 1.37249 8.5096 2.55143 3.80722
55 4 1.25541 9.35005 4.97135 1.9208
266 3 -0.77519 7.96558 6.8175 5.49021
340 2 0.173208 12.2661 1.44927 1.0429
85 1 -0.677783 10.2905 2.16643 4.41743
88 1 -0.660589 10.3342 6.44896 2.58622
90 1 -0.640359 10.2531 5.12622 6.1954
37 4 1.29112 5.04825 4.77095 3.01065
170 2 0.152638 10.6827 3.15437 4.89578
171 2 0.162468 10.9758 1.88209 3.52837
172 2 0.190074 10.1151 1.32649 5.19718
361 2 0.140139 11.5748 0.284682 2.46448
179 2 0.195992 11.3894 6.86787 2.17258
180 2 0.164739 10.4364 6.10816 3.66039
184 2 0.178223 10.2579 4.54006 5.18341
185 2 0.165813 9.63425 4.57759 7.03951
186 2 0.134232 11.2699 5.48446 6.4946
189 2 0.185783 9.37443 6.38185 8.49496
222 3 -0.796689 7.84262 1.69469 7.58022
230 3 -0.758269 6.54217 4.14221 7.45516
341 2 0.165523 12.1672 2.09667 2.81587
255 3 -0.85148 8.14242 1.38799 2.72737
256 3 -0.763762 7.6366 2.74609 5.1468
258 3 -0.799271 8.76024 4.00462 3.02287
259 3 -0.767577 10.5733 4.03391 0.862446
260 3 -0.844179 6.09706 5.48834 3.94695
263 3 -0.793125 8.21365 5.51473 0.742681
32 4 1.27766 8.60026 0.221329 8.11916
313 2 -0.0324311 11.2582 4.21914 7.64788
339 1 -0.699069 12.3368 1.20649 2.14714
320 2 0.128207 12.9216 2.7975 4.99192
166 2 0.16414 10.5215 0.181683 4.28819
316 2 0.156187 9.23066 3.40431 9.15423
56 4 1.28403 6.54987 6.80786 4.58586
233 3 -0.83755 4.46975 6.02517 7.36468
227 3 -0.810636 5.62329 4.05779 1.74482
12 4 1.19259 14.5974 1.05687 10.7722
20 4 1.23144 10.8822 6.04809 15.8618
331 1 -0.692132 7.37455 2.88845 17.8252
54 4 1.05085 12.0923 0.896137 12.7922
57 4 1.55678 8.39533 6.484 17.7733
60 4 0.877536 10.5824 3.57554 13.3751
317 3 -0.826055 11.4036 5.95841 9.7771
177 2 0.155373 12.1721 0.130698 15.2617
141 2 0.161169 9.9767 1.69053 9.73728
87 1 -0.662568 12.9409 0.315974 14.4252
105 2 -0.0316748 7.03433 3.51047 12.3048
270 3 -0.844467 6.88302 6.75194 17.1927
117 2 -0.0489831 9.1713 2.92165 13.7801
119 2 -0.024884 10.2016 4.5714 12.0327
120 2 -0.0130053 9.95794 6.32814 13.0643
365 3 -0.867879 11.8796 2.33923 17.4615
346 2 -0.00808149 13.2178 2.99568 15.4175
343 2 0.174619 15.4174 0.109554 17.5679
332 2 0.191829 6.90389 2.98481 16.7923
272 3 -0.836135 7.866 6.08921 11.2887
176 2 0.128981 13.5947 1.26616 14.7605
97 2 0.0973799 12.7179 4.66619 14.4987
257 3 -0.764034 13.194 0.551601 11.3358
262 3 -0.822293 9.48901 6.1239 16.6613
264 3 -0.870035 5.82459 5.82778 9.50943
58 4 1.30959 6.36123 6.57893 10.7793
267 3 -0.799664 11.5884 2.38137 13.0685
268 3 -0.775577 11.1219 4.56481 14.5601
269 3 -0.844414 5.60869 5.44358 15.2465
310 4 0.707605 11.2964 4.42139 9.34955
283 4 0.980106 13.2976 2.2286 16.9183
284 2 0.00268544 13.37 0.628298 16.3191
265 3 -0.805801 5.25505 6.52303 11.9494
309 2 -0.00982627 9.33002 2.84265 17.2737
315 2 0.113198 10.1952 3.1069 10.8769
311 1 -0.662959 9.69264 3.9 10.1806
312 2 0.0513736 12.7274 3.65165 9.8514
314 2 0.243384 8.97015 4.70211 10.6969
308 4 0.997518 10.661 2.6984 18.3056
173 2 0.133259 9.90859 0.336719 12.2073
73 1 -0.661351 9.9743 0.656007 9.33958
338 2 0.130157 9.20076 0.267322 18.2523
345 2 0.0895606 15.3281 -0.00952442 9.6551
333 2 0.135038 7.96349 2.0103 17.9846
169 2 0.169137 7.63905 0.679481 15.848
334 2 0.253616 7.8662 3.90177 18.2106
305 3 -0.786543 7.52631 10.531 0.062281
335 1 -0.67258 1.69364 13.3704 0.492103
50 4 1.30026 1.72521 12.1354 5.66962
83 1 -0.678945 2.80607 12.8298 4.24952
89 1 -0.670066 10.4656 8.3367 5.70224
91 1 -0.634487 8.58058 7.28147 8.1275
121 2 0.0198324 6.94894 7.98295 3.31852
307 3 -0.777137 7.72423 10.5752 4.61485
249 3 -0.773362 1.68125 13.3853 6.86621
167 2 0.165904 2.12144 12.5301 3.42648
168 2 0.161137 3.89715 12.3624 4.14461
303 3 -0.791687 8.6236 7.98582 0.136452
3 2 0.179321 4.25033 13.5708 5.35936
183 2 0.153973 9.60463 9.1292 6.0187
244 3 -0.879021 3.44502 8.38097 6.91466
188 2 0.1915 8.9351 8.366 8.48119
178 2 0.207182 9.48233 7.25094 2.50988
306 3 -0.810125 6.04051 12.6271 1.2221
108 2 0.0285437 3.0554 9.60895 4.35853
248 3 -0.821046 2.64834 10.9059 6.34095
48 4 1.25159 2.61622 9.64836 7.44623
261 3 -0.868014 5.36596 7.37782 5.44375
5 2 0.14393 5.40979 13.4084 7.03597
285 4 1.00431 9.02649 10.5188 3.61672
192 2 0.193552 3.54066 12.3895 9.11753
287 4 1.31439 7.89373 9.1938 0.958119
337 2 0.159763 1.67636 13.5804 1.64217
289 4 0.86274 6.47983 10.728 5.51794
290 1 -0.672969 6.17903 8.85987 1.73888
291 1 -0.662194 4.86067 10.3737 4.32727
292 1 -0.645751 6.58601 9.70373 7.06932
293 2 0.0241813 5.92379 12.3214 5.64995
294 2 0.126916 5.90281 7.75282 1.84434
295 2 0.170792 5.58393 9.2718 0.776526
296 2 0.174256 5.76606 9.47068 2.70111
297 2 0.215447 4.05711 10.6883 5.14707
298 2 0.148207 4.80868 9.28478 3.98631
299 2 0.167785 5.04552 11.1576 3.40895
300 2 0.180291 7.30998 8.74451 7.47585
301 2 0.223447 5.487 9.30054 7.00714
302 2 0.120442 6.64763 10.6829 7.80027
329 2 0.16212 8.27767 10.0975 8.15337
304 3 -0.782225 8.82935 9.4588 2.38587
181 2 0.160959 10.606 8.2065 4.59491
328 1 -0.684845 9.22005 10.3042 8.90943
273 3 -0.827106 3.05663 9.9448 8.90604
41 4 1.33017 4.10004 7.10627 6.34201
152 2 0.0633603 3.77591 7.25403 3.68455
336 2 0.150144 2.87987 13.3379 0.171402
187 2 0.215926 7.49748 7.06454 8.2308
59 4 0.955683 9.24763 6.93886 6.31806
6 3 -0.757327 6.72979 13.7875 3.61268
174 2 0.167317 2.75755 13.5187 13.9383
62 4 1.21367 8.99795 7.17577 11.8937
63 4 1.03486 3.73132 10.2226 10.3124
64 4 1.5056 7.47322 8.98941 13.925
65 4 1.2369 4.09308 10.8182 16.2253
66 4 1.18446 6.32312 10.55 11.6552
71 1 -0.68116 10.8431 7.35485 14.5101
362 2 0.155632 5.86351 13.2911 14.1458
93 1 -0.653608 4.07602 12.1301 10.1146
94 1 -0.684623 2.68176 10.1666 11.9816
95 1 -0.664874 4.47807 11.2018 14.4325
116 2 0.108634 6.48053 8.23047 10.3298
118 2 0.0767923 4.64683 7.82676 16.2602
122 2 0.0178207 5.25812 11.8493 11.773
47 4 1.2955 1.57693 11.7323 17.586
175 2 0.162341 2.76206 12.273 12.4281
363 2 0.17721 7.85947 11.8604 14.5889
342 1 -0.669963 7.61578 12.9016 17.0762
194 2 0.18815 3.57301 12.7037 11.0282
344 2 0.163272 6.96023 12.7546 16.138
193 2 0.168872 5.17509 12.3559 9.91821
197 2 0.154967 3.33279 10.5161 12.8643
198 2 0.184028 3.9348 12.0489 13.8672
199 2 0.19052 4.3697 10.1748 13.912
200 2 0.172281 5.60054 11.5266 14.6402
288 4 1.27923 6.69272 11.6044 18.1321
271 3 -0.804767 9.88768 7.7738 10.6124
134 2 0.194955 9.9523 7.96376 14.1107
274 3 -0.818378 6.74101 7.77411 14.757
275 3 -0.869407 8.35931 8.3723 12.6944
276 3 -0.787669 8.51779 9.69419 15.153
277 3 -0.77599 3.46515 8.95967 16.0142
278 3 -0.817334 5.38705 11.1778 17.1532
279 3 -0.786562 2.75023 11.6636 16.4557
280 3 -0.833089 7.57416 11.3981 10.9911
281 3 -0.7766 5.42416 9.44559 10.6246
282 3 -0.857903 6.50116 9.97723 13.1635
86 1 -0.655387 2.88393 13.3998 12.7822
330 2 0.238712 9.43082 9.41985 9.64792
61 4 1.31386 6.01919 6.89752 15.8664
135 2 0.193851 11.4673 6.86108 13.6736
355 2 0.164152 1.98108 13.7002 10.1573
ITEM: TIMESTEP
100
ITEM: NUMBER OF ATOMS
365
ITEM: BOX BOUNDS xy xz yz pp pp pp
-7.8864359999999998e+00 1.5874770000000000e+01 -7.8864359999999998e+00
-1.3819999999999999e-01 1.3846299999999999e+01 2.5122600000000000e-01
0.0000000000000000e+00 1.8322199999999999e+01 -1.3819999999999999e-01
ITEM: ATOMS id type q x y z
80 1 -0.681301 1.89378 6.5523 8.89336
8 2 -0.0245716 0.0894597 2.9401 1.72009
226 3 -0.782716 3.90035 3.71222 3.62106
229 3 -0.812751 4.4567 3.64591 8.92143
11 4 1.42753 2.9206 0.284537 8.961
13 4 1.50075 1.51471 2.06869 7.0267
160 2 0.1579 1.75493 5.53158 8.37695
29 4 1.28851 7.10463 0.463373 2.4114
30 4 1.01784 2.60053 2.97832 4.20726
31 4 1.36709 5.7094 2.59044 0.734405
319 2 0.176267 -0.42507 3.53274 5.66534
220 3 -0.843251 6.07241 1.27528 1.5638
69 1 -0.663766 -0.503537 5.84766 6.77133
74 1 -0.660083 1.44354 2.01912 2.8953
75 1 -0.646575 5.31554 1.8284 6.50387
205 3 -0.894419 0.732229 2.89414 8.04337
96 2 0.00562516 -0.95151 4.99534 8.44085
102 2 0.0389068 0.964448 3.52079 3.20337
131 2 0.154826 -1.59347 5.95532 7.15255
109 2 0.00907181 2.94577 6.13296 5.21509
126 2 0.146181 -2.06831 6.08865 4.83086
107 2 -0.0239956 3.97849 5.92493 2.13235
129 2 0.144377 0.402581 6.15758 7.56008
130 2 0.155232 -0.236975 4.98797 6.06362
142 2 0.192462 1.81142 1.96509 1.83307
143 2 0.225976 0.592572 1.30948 3.16628
144 2 0.0637018 2.8211 1.18765 3.73675
145 2 0.229784 5.53028 0.921501 7.15268
146 2 0.220453 5.21758 1.47995 5.40963
147 2 0.264839 4.36944 2.36125 6.91858
151 2 0.166441 2.33162 5.48425 3.60387
318 1 -0.670309 -1.22026 2.93036 5.03819
347 2 0.0744676 -2.39709 5.81958 1.01464
219 3 -0.796896 2.22566 3.06477 5.81585
201 3 -0.764879 0.299297 1.12326 6.24382
202 3 -0.855256 2.58558 0.989355 7.54026
161 2 0.251313 2.9936 6.84279 8.79607
153 2 0.140841 2.25008 6.65264 2.22434
77 1 -0.712734 2.49702 6.51913 3.32076
351 2 0.150082 -1.1809 3.12383 3.94618
152 2 0.0861891 3.63904 6.88097 3.53683
16 4 1.21532 -0.11489 3.62938 9.14704
14 4 1.1366 0.565855 2.60969 13.0497
360 2 0.1728 5.81094 0.586369 15.1069
19 4 1.31998 -1.10776 4.99288 13.941
33 4 1.28307 3.78864 2.86627 10.205
35 4 1.23552 3.31552 2.4871 17.1476
40 4 1.27792 1.0824 6.16704 10.5242
42 4 1.51449 4.4735 4.3886 14.8525
343 2 0.201732 0.229883 -0.0374418 17.5369
44 4 1.62139 3.57597 6.33834 12.6365
67 1 -0.681866 0.911784 1.52761 14.6638
76 1 -0.661913 3.53038 0.797902 16.3571
43 4 1.20504 0.813246 6.21497 15.9919
36 4 0.964296 5.6961 2.74755 12.562
103 2 0.105484 2.27498 3.71418 10.513
104 2 0.0255314 2.24228 2.54572 13.7637
110 2 0.0791923 2.14194 5.16537 16.0685
123 2 0.174 0.379756 0.567542 14.2555
124 2 0.19331 0.191067 2.11577 15.3048
125 2 0.178388 1.85282 1.35507 15.2777
15 4 0.910009 -1.75357 6.65903 17.7743
149 2 0.175198 4.54307 0.223738 16.8305
150 2 0.148239 3.76586 1.1834 15.2689
10 3 -0.848635 -0.673951 2.41286 17.5942
203 3 -0.842393 0.307637 1.69401 11.8217
207 3 -0.804196 -3.11936 6.4454 16.8584
206 3 -0.870933 -0.476673 3.61037 13.5935
223 3 -0.809133 4.61596 2.52578 18.1744
209 3 -0.817643 -1.25652 6.00678 12.6987
221 3 -0.867961 3.51177 1.35649 10.0322
84 1 -0.649147 6.92636 0.230755 15.0492
224 3 -0.824932 1.89264 2.2968 17.8401
225 3 -0.838034 4.70215 3.16598 11.5122
231 3 -0.825663 0.757249 4.19143 10.3262
234 3 -0.8153 3.39039 4.07914 16.0524
106 2 -0.00675116 5.93955 1.06981 12.4113
236 3 -0.873757 -0.241253 5.64302 15.0091
238 3 -0.818906 2.3756 6.40555 11.5196
239 3 -0.842645 3.60143 5.07909 13.6164
235 3 -0.797221 5.22396 3.08823 14.1491
356 2 0.163751 3.82367 0.417145 12.5962
148 2 0.153271 2.58148 0.0964514 16.3296
237 3 -0.802417 0.0846649 6.12957 17.5302
359 2 0.148565 7.35714 0.167394 13.9589
9 2 0.0491015 0.497158 4.68147 18.1149
7 4 0.932108 0.567966 2.95269 18.3065
18 4 1.12265 -0.732065 7.65627 5.83591
23 4 1.46582 -2.21508 9.5012 8.16459
25 4 1.2346 -3.43077 12.1196 7.06447
38 4 1.01492 1.87654 8.26354 3.86026
45 4 1.00535 1.10638 9.11524 1.03197
46 4 1.29673 -1.25822 12.245 4.64221
70 1 -0.666576 -5.07139 12.1582 6.16398
78 1 -0.679562 2.41442 8.1031 0.18314
79 1 -0.654623 -2.2 10.8558 3.7685
354 2 0.215316 -5.92696 12.6894 6.73924
353 2 0.233129 -5.02119 10.3736 8.46261
113 2 0.0298074 0.94154 9.08125 7.38115
245 3 -0.832096 -1.18398 10.4045 9.06217
111 2 0.0170002 -0.599325 8.46778 1.08286
132 2 0.168681 -4.79872 12.771 5.23845
133 2 0.169414 -5.32614 11.059 5.92053
157 2 0.191236 -1.75778 9.89629 4.11346
158 2 0.154496 -1.89603 11.1042 2.64528
159 2 0.152778 -3.29378 10.856 3.90159
348 2 -0.00945923 -4.85732 9.9858 4.34095
155 2 0.139758 1.79337 7.09916 0.198169
211 3 -0.793646 -1.47041 8.60461 6.85501
213 3 -0.815671 -3.35026 10.4973 7.41698
214 3 -0.826744 -3.48352 13.234 8.63145
228 3 -0.788007 0.670066 8.01965 5.07477
240 3 -0.804417 1.52784 9.12839 2.63269
327 2 0.283291 -7.11371 12.9486 3.20679
242 3 -0.7846 -2.29161 12.5262 5.98443
241 3 -0.831501 -1.37176 13.3535 3.47951
98 2 -0.0392965 -4.00823 11.3572 0.422958
246 3 -0.773526 -0.143162 12.9784 8.77092
247 3 -0.803331 0.281948 11.7572 5.19029
321 1 -0.628228 -2.304 7.61261 1.20286
322 2 0.153278 -1.99572 7.95545 2.24711
323 2 0.150764 -3.22736 8.24657 0.803407
324 1 -0.643441 -6.19431 12.2774 2.93644
68 1 -0.646225 -2.10901 7.24615 4.66279
326 2 0.117212 -5.10402 12.4136 3.49676
127 2 0.15459 -1.84665 7.55957 3.57461
182 2 0.211479 -4.09445 8.47146 6.15668
162 2 0.168172 1.21374 7.34959 8.45708
112 2 0.0141557 -0.00308799 13.2315 1.20969
243 3 -0.760615 1.15559 10.5325 0.234528
128 2 0.171927 -3.19135 7.73638 4.97425
325 2 0.173589 -6.12397 12.1568 1.78267
210 3 -0.823752 -3.19336 8.5093 9.02959
17 4 1.44593 -3.74026 7.40853 10.1074
21 4 1.51431 -1.293 7.46482 11.8601
22 4 0.926867 -3.75915 11.8705 17.1787
24 4 1.35951 -6.17092 11.6563 10.298
26 4 1.23092 -1.47207 9.88366 13.8174
27 4 1.09184 -5.60033 10.6023 14.9284
28 4 1.05109 -3.89111 11.7688 12.4212
92 1 -0.689901 -6.53802 12.1708 14.3283
49 4 1.05557 -1.14473 11.9101 9.57259
51 4 1.30244 2.49617 8.37511 14.7143
52 4 1.26508 -0.814385 12.3189 15.8128
72 1 -0.683416 -1.76898 9.06114 15.4436
81 1 -0.681797 -0.268734 11.8094 11.3044
99 2 -0.00595818 -4.46142 13.2426 17.7942
254 3 -0.800051 -2.31009 12.1457 16.5883
352 2 0.0248299 -1.5208 8.43987 18.0323
190 2 0.164981 -6.08579 13.0408 14.9041
100 2 0.104229 -4.49288 9.8336 13.8798
101 2 0.0206709 -4.72607 12.8581 13.6509
114 2 0.0921267 -2.73956 12.607 9.8499
154 2 0.255291 2.95325 8.30904 17.4521
137 2 0.194202 -0.907388 9.50809 16.0907
138 2 0.198407 -1.73194 7.94444 15.2125
139 2 0.17059 -2.79347 9.46325 15.7824
232 3 -0.829317 -0.111475 7.1168 10.6045
115 2 0.0390336 1.90219 9.75514 13.7784
136 2 0.165247 -3.84118 8.12253 15.2871
164 2 0.223557 -0.0647808 10.6881 11.2969
165 2 0.183856 -0.897163 12.1316 12.1625
82 1 -0.682476 -3.08216 13.4654 12.7394
195 2 0.186928 2.63239 9.0913 11.7173
208 3 -0.835927 -2.81426 7.56134 11.5107
212 3 -0.834027 -6.31759 13.1433 9.56608
215 3 -0.814346 -0.874443 8.83146 12.7718
216 3 -0.820029 -4.7029 11.11 16.124
217 3 -0.86038 -4.91314 11.5759 11.2659
218 3 -0.789053 -3.23102 10.4684 13.1438
357 2 0.102062 -2.42681 13.2588 11.6745
191 2 0.167423 -6.5594 12.3786 13.225
250 3 -0.818768 1.24353 7.72745 15.4959
252 3 -0.769047 -0.631738 11.2713 14.4038
253 3 -0.843286 0.313411 12.3108 16.8801
163 2 0.161912 0.666144 12.4472 11.1173
358 2 0.163146 -2.30675 13.6629 13.6927
251 3 -0.883255 3.14329 7.45142 13.651
196 2 0.182467 1.58049 10.8721 11.8008
135 2 0.195882 -4.03995 7.5177 13.5875
364 2 0.206318 -6.6464 12.2353 16.8475
1 4 1.02241 14.3266 1.05319 5.31754
350 2 0.0146223 9.8647 1.48794 0.946071
2 1 -0.653911 12.8558 0.236279 6.22354
4 2 0.134038 12.4456 1.33654 6.64238
233 3 -0.828659 4.4869 5.92459 7.40191
140 2 0.174548 10.9072 0.564072 8.75385
34 4 1.32054 6.96416 2.71024 6.73158
39 4 1.52558 5.39261 4.97561 8.29219
349 2 0.0608168 14.2613 1.27873 1.58055
53 4 1.35992 8.61875 2.51743 3.95085
55 4 1.25018 9.31033 5.09896 1.77773
266 3 -0.766136 7.9151 6.78507 5.36458
340 2 0.203719 12.2831 1.89873 1.37925
85 1 -0.662204 10.3873 2.1974 4.674
88 1 -0.663097 10.1969 6.596 2.51192
90 1 -0.659274 10.1872 5.12691 6.20823
308 4 0.987994 10.3928 2.86759 0.0606143
170 2 0.152841 10.7318 3.21102 5.1387
171 2 0.166963 11.1515 1.83968 3.77855
172 2 0.188601 10.0604 1.4553 5.51613
361 2 0.0998696 11.5368 0.452967 2.67244
59 4 0.966878 9.2235 6.84245 6.16975
180 2 0.169991 10.4046 6.23812 3.54713
184 2 0.19271 10.095 4.40553 5.30843
185 2 0.147088 9.47835 4.80199 7.1493
186 2 0.135553 11.2791 5.3666 6.47084
189 2 0.165273 9.22639 6.45838 8.40564
222 3 -0.817554 7.9298 1.75515 7.91855
230 3 -0.746513 6.54171 4.23246 7.21564
341 2 0.156397 12.5408 2.18664 3.19994
255 3 -0.858062 8.36323 1.24829 2.90524
256 3 -0.798443 7.60462 2.67023 5.25363
258 3 -0.755005 8.96851 3.8347 3.12382
259 3 -0.771772 10.4392 4.17427 0.927369
260 3 -0.827235 5.97665 5.41127 3.93114
263 3 -0.786353 8.13834 5.49694 0.73562
32 4 1.28747 8.57621 0.356587 8.09227
313 2 -0.0243666 11.0646 4.06317 7.62578
339 1 -0.683687 12.4787 1.40098 2.35083
320 2 0.138527 13.0323 3.06317 5.4198
166 2 0.182287 10.3991 0.103037 4.43845
227 3 -0.785011 5.71614 3.90439 1.76025
56 4 1.24823 6.50171 6.79011 4.46822
338 2 0.118715 8.72489 0.29344 0.180229
37 4 1.26484 5.0429 4.75571 2.88298
6 3 -0.781538 14.5363 0.0082008 3.61286
12 4 1.19152 14.4952 1.23847 10.7931
20 4 1.21056 10.8587 6.02263 15.9194
331 1 -0.686231 7.47284 2.74192 17.8538
54 4 1.08015 12.0142 0.868013 12.8443
57 4 1.5003 8.39239 6.52705 17.71
60 4 0.886911 10.5394 3.66592 13.4182
317 3 -0.826288 11.6628 5.82971 9.60692
204 3 -0.789321 13.9746 2.53975 9.69503
141 2 0.15858 9.81664 1.922 9.63563
87 1 -0.64326 13.3145 0.414819 14.2671
105 2 -0.0266157 7.28738 3.31886 12.192
270 3 -0.858236 6.86767 6.7057 17.2916
117 2 -0.028815 8.94611 3.28409 13.7443
119 2 -0.0290591 10.3605 4.56871 11.9835
120 2 -0.0111466 10.0578 6.50114 13.0222
365 3 -0.864505 11.9407 2.39768 17.6922
346 2 -0.00314929 13.1491 2.98872 15.4669
345 2 0.0853983 15.2161 0.0279316 9.82062
332 2 0.19011 7.08014 2.831 16.7969
272 3 -0.825394 7.71566 6.18499 11.515
176 2 0.136948 13.6853 1.41082 14.7791
97 2 0.0865784 12.6429 4.73505 14.574
257 3 -0.778605 13.1934 0.62739 11.5966
262 3 -0.823547 9.38856 5.8219 16.5455
264 3 -0.847702 6.15693 5.7729 9.43281
58 4 1.27457 6.27567 6.60774 10.8027
267 3 -0.80316 11.2964 2.26902 13.1126
268 3 -0.775705 11.1065 4.46951 14.6812
269 3 -0.835139 5.58852 5.42932 15.3798
310 4 0.733554 11.1672 4.39376 9.32891
283 4 0.965999 13.2504 2.16396 16.9288
284 2 0.00169672 13.1595 0.561726 16.2217
265 3 -0.839918 4.89895 6.55677 11.7598
309 2 -0.0031217 9.37322 2.74628 17.2756
315 2 0.114163 9.98185 3.22045 10.9056
311 1 -0.686933 9.56177 4.1066 10.2515
312 2 0.062144 12.3884 3.19139 9.59242
314 2 0.233045 8.87398 4.85805 10.7854
355 2 0.158806 9.79671 0.0265579 10.1202
173 2 0.147782 9.90356 0.244817 12.0779
73 1 -0.662006 9.97291 0.795773 9.33297
316 2 0.163973 9.02072 3.70196 9.24794
169 2 0.156603 7.68485 0.699207 15.8861
333 2 0.12572 8.08484 1.83901 18.0312
334 2 0.262458 7.88916 3.79667 18.225
305 3 -0.776605 7.55819 10.5198 0.0561932
335 1 -0.682792 1.86786 13.3812 0.551159
50 4 1.3187 1.74962 12.0535 5.79072
83 1 -0.675222 2.79596 12.7781 4.3404
89 1 -0.667591 10.3355 8.44818 5.50474
91 1 -0.642002 8.57989 7.36189 7.91476
121 2 -0.00931906 6.73477 7.82772 3.15745
307 3 -0.750569 7.7202 10.5416 4.7127
249 3 -0.78238 1.57223 13.4124 6.76084
167 2 0.170123 2.21675 12.3868 3.46575
168 2 0.143094 3.86302 12.3833 4.37174
303 3 -0.828957 8.6819 7.94539 0.20357
3 2 0.17014 4.3102 13.5532 5.54639
183 2 0.172474 9.60363 9.34219 5.68983
244 3 -0.868212 3.27194 8.21939 6.77668
188 2 0.195382 8.90224 8.34461 8.30824
178 2 0.210931 9.41005 7.39989 2.46066
306 3 -0.797799 6.03941 12.7289 1.11704
108 2 0.0367386 3.24361 9.0818 4.56606
248 3 -0.848246 2.69467 10.8469 6.35753
48 4 1.2275 2.54289 9.52096 7.31541
261 3 -0.845306 5.2834 7.34128 5.36853
5 2 0.153853 5.46164 13.3252 7.02118
285 4 1.00119 9.00615 10.5163 3.57185
286 4 1.01774 5.82158 13.6601 2.359
287 4 1.33455 7.89581 9.20195 0.927999
337 2 0.171212 1.86319 13.2426 1.64295
289 4 0.845487 6.34779 10.687 5.50004
290 1 -0.683622 6.13316 8.73258 1.52849
291 1 -0.691174 4.92501 10.0698 4.20198
292 1 -0.624793 6.54301 9.82214 7.16155
293 2 0.00257626 5.87501 12.3335 5.70759
294 2 0.157176 6.12821 7.58197 1.38664
295 2 0.18249 5.55136 9.20234 0.667726
296 2 0.164519 5.77621 9.18877 2.61743
297 2 0.195047 4.12758 10.4076 4.92958
298 2 0.168245 4.89481 9.00259 3.9656
299 2 0.166605 4.90996 10.7382 3.36673
300 2 0.192386 7.26907 8.88739 7.47482
301 2 0.201942 5.35278 9.5397 7.15913
302 2 0.131169 6.78708 10.841 7.7344
329 2 0.165347 8.41319 10.0613 8.3816
304 3 -0.810079 8.66761 9.63867 2.31464
181 2 0.150119 10.6122 8.26891 4.38419
328 1 -0.678617 9.36395 10.2275 9.0842
273 3 -0.763148 3.13301 9.82116 8.84626
41 4 1.29463 4.02952 6.95818 6.22669
156 2 0.154601 3.23861 8.29926 0.98219
336 2 0.167707 2.884 13.7062 0.150764
187 2 0.22198 7.42242 7.11434 8.00749
179 2 0.195566 11.3006 6.93199 1.97814
174 2 0.171943 2.22012 13.4747 13.8321
62 4 1.208 9.0359 7.17259 11.8884
63 4 0.986845 3.83776 10.3423 10.3107
64 4 1.51445 7.41474 8.86042 13.8645
65 4 1.22491 4.05545 10.7504 16.1402
66 4 1.21735 6.43824 10.6845 11.6611
71 1 -0.707658 10.8223 7.3854 14.6379
362 2 0.161003 6.40385 13.5483 13.8215
93 1 -0.659222 4.15107 12.1299 10.1608
94 1 -0.671325 2.61663 10.2824 11.9639
95 1 -0.669676 4.54124 11.2586 14.396
116 2 0.11566 6.37844 8.26304 10.3789
118 2 0.0863115 4.67631 7.77621 16.3119
122 2 0.0122063 5.40349 12.0507 11.7463
47 4 1.2566 1.64838 11.8577 17.61
175 2 0.158652 2.70222 12.3197 12.465
363 2 0.184827 7.73434 12.0699 14.7054
342 1 -0.670587 7.69686 12.8346 17.0062
194 2 0.168741 3.62134 12.7494 11.1183
344 2 0.158062 6.92551 12.9248 16.1477
193 2 0.158423 5.27056 12.3913 9.91272
197 2 0.143632 3.25372 10.6332 12.8589
198 2 0.165134 3.87964 12.0757 13.8052
199 2 0.185622 4.48639 10.2434 13.8934
200 2 0.178992 5.63289 11.6048 14.6739
288 4 1.24226 6.68864 11.6251 18.0286
271 3 -0.816825 9.92525 7.77093 10.6014
134 2 0.206335 9.73654 7.63504 14.7045
274 3 -0.863081 6.67439 7.66032 14.7523
275 3 -0.870522 8.40545 8.29902 12.7945
276 3 -0.776931 8.50193 9.64707 15.115
277 3 -0.849716 3.51541 8.85784 15.7821
278 3 -0.791766 5.37182 11.0796 17.073
279 3 -0.79589 2.95094 11.787 16.4804
280 3 -0.837464 7.82459 11.1731 10.9888
281 3 -0.771242 5.61794 9.6845 10.6257
282 3 -0.860213 6.58474 9.98485 13.1298
86 1 -0.672723 2.77052 13.4288 12.8228
330 2 0.280797 9.5952 9.29107 9.7214
61 4 1.35034 6.0555 6.86087 15.8953
192 2 0.177413 3.40917 12.211 9.23341
177 2 0.149519 4.78031 13.5862 14.7779
ITEM: TIMESTEP
200
ITEM: NUMBER OF ATOMS
365
ITEM: BOX BOUNDS xy xz yz pp pp pp
-8.0410719999999980e+00 1.6186039999999998e+01 -8.0410719999999980e+00
-1.3819999999999999e-01 1.3846299999999999e+01 2.5615199999999999e-01
0.0000000000000000e+00 1.8322199999999999e+01 -1.3819999999999999e-01
ITEM: ATOMS id type q x y z
80 1 -0.677229 1.81145 6.56199 8.86709
8 2 -0.033269 0.377282 3.30508 1.70596
226 3 -0.816016 3.80896 3.77079 3.77336
229 3 -0.840389 4.62524 3.69723 9.05689
11 4 1.5073 3.00954 0.318466 9.03678
13 4 1.56143 1.46302 1.88939 6.96823
160 2 0.157909 1.72173 5.54254 8.17762
29 4 1.28983 7.33536 0.404436 2.44016
30 4 1.03013 2.5822 2.80474 4.22781
31 4 1.32036 5.72535 2.46517 0.739669
319 2 0.134381 -1.24306 3.78781 5.90152
220 3 -0.85326 6.30072 1.10709 1.48917