ITEM: TIMESTEP
0
ITEM: NUMBER OF ATOMS
365
ITEM: BOX BOUNDS xy xz yz pp pp pp
-7.7317999999999998e+00 1.5563499999999999e+01 -7.7317999999999998e+00
-1.3819999999999999e-01 1.3846299999999999e+01 2.4629999999999999e-01
0.0000000000000000e+00 1.8322199999999999e+01 -1.3819999999999999e-01
ITEM: ATOMS id type q x y z
80 1 -0.708324 1.92489 6.59164 8.68851
8 2 -0.0250935 0.243123 2.9407 1.69525
226 3 -0.839446 3.79911 3.86466 3.67488
229 3 -0.858577 4.33789 3.66284 8.89648
11 4 1.47494 2.9672 0.34466 8.95193
13 4 1.47066 1.46225 2.10738 7.00657
160 2 0.163707 1.94465 5.45259 8.24815
29 4 1.27918 6.93448 0.435586 2.32961
30 4 1.03553 2.59727 3.05955 4.17537
31 4 1.35501 5.60462 2.79342 0.731275
319 2 0.13984 -0.626198 3.65111 5.30405
220 3 -0.813766 5.89947 1.28872 1.58441
69 1 -0.672737 -0.496972 5.64755 6.80696
74 1 -0.637747 1.49606 1.89319 2.81865
75 1 -0.656746 5.21639 1.83373 6.59759
205 3 -0.901335 0.813621 2.98112 8.17701
96 2 -0.0134808 -0.955357 4.91686 8.59915
102 2 0.0278055 1.07272 3.57543 3.17001
131 2 0.135396 -1.55852 5.70946 7.25882
109 2 0.00849782 2.91726 6.33703 5.37334
126 2 0.126271 -1.98881 5.97691 4.62344
107 2 -0.0131272 4.12074 6.12677 2.36002
129 2 0.161378 0.359104 5.9357 7.55647
130 2 0.149937 -0.276212 4.64787 6.20507
142 2 0.198144 1.72972 1.70988 1.75779
143 2 0.198328 0.611611 1.20499 3.05496
144 2 0.0740296 2.84727 1.20058 3.66881
145 2 0.220979 5.38044 1.05519 7.47961
146 2 0.211683 5.29325 1.33251 5.5958
147 2 0.277679 4.27638 2.4359 6.63139
151 2 0.169697 2.46656 5.6225 3.97155
318 1 -0.656765 -1.24702 2.8221 4.66206
347 2 0.069424 -2.51499 5.89906 1.27764
219 3 -0.797707 2.12862 3.04282 5.79134
201 3 -0.795562 0.458097 1.02055 6.16603
202 3 -0.819096 2.73093 1.19504 7.57212
7 4 0.939719 0.314737 3.17089 0.0462362
153 2 0.16155 2.26929 6.66731 2.3505
77 1 -0.665824 2.55565 6.66522 3.4408
351 2 0.15363 -1.06274 2.76714 3.51567
155 2 0.135231 1.68249 6.90635 0.253307
14 4 1.16477 0.584317 2.55055 12.9676
360 2 0.190573 5.9121 0.736791 15.0552
19 4 1.34665 -0.95772 5.00049 13.9636
33 4 1.36602 3.73583 2.96201 10.1372
35 4 1.29045 3.29899 2.58406 17.1941
40 4 1.19859 1.22718 6.23756 10.3816
42 4 1.40401 4.49613 4.40518 14.7118
204 3 -0.787609 -1.14399 2.6302 9.91165
44 4 1.50786 3.6671 6.34797 12.7026
67 1 -0.688675 0.772341 1.54459 14.6124
76 1 -0.678492 3.57689 1.03489 16.1209
43 4 1.22152 0.837936 6.27358 16.1219
36 4 0.951605 5.59696 2.73873 12.6428
103 2 0.121877 2.29331 3.77475 10.4255
104 2 0.0368518 2.16137 2.57573 13.7282
110 2 0.0696227 2.18023 5.23226 16.2042
123 2 0.17661 0.292536 0.528801 14.2737
124 2 0.179901 0.205863 2.0409 15.4215
125 2 0.167836 1.79154 1.30502 15.027
15 4 0.916954 -1.85691 6.51834 17.9286
149 2 0.162945 4.51745 0.509146 16.548
150 2 0.19372 3.8267 1.53247 15.0437
10 3 -0.875221 -0.703946 2.50723 17.6448
203 3 -0.841382 0.342864 1.47208 11.8665
207 3 -0.788965 -3.09331 6.185 16.8547
206 3 -0.855766 -0.407628 3.71306 13.3141
223 3 -0.837895 4.56092 2.604 18.1983
209 3 -0.841884 -1.2004 6.20249 12.9588
221 3 -0.862592 3.34488 1.44501 9.96358
84 1 -0.681931 6.91745 0.257298 15.0633
224 3 -0.841315 1.91093 2.42071 17.9701
225 3 -0.843133 4.54563 2.90099 11.4709
231 3 -0.803539 0.837351 4.30045 10.4492
234 3 -0.783057 3.27733 3.98405 16.0878
106 2 -0.00927211 6.14079 1.09867 12.4789
236 3 -0.863029 -0.0868017 5.62224 15.0714
238 3 -0.807984 2.44312 6.33247 11.5005
239 3 -0.844805 3.61937 4.92224 13.4256
235 3 -0.805096 5.21469 2.89677 14.2191
356 2 0.177661 4.06589 0.502155 12.4595
148 2 0.146213 2.6187 0.403121 16.1439
237 3 -0.802711 0.00430557 6.11468 17.5806
359 2 0.154324 7.44677 0.146174 14.0204
16 4 1.23175 -0.0419476 3.65521 9.29635
9 2 0.0403121 0.662273 4.78364 18.3013
18 4 1.07895 -0.770038 7.41626 5.84432
23 4 1.48774 -2.24658 9.39058 8.10404
25 4 1.18075 -3.44161 12.1769 6.97799
38 4 0.998447 1.88112 8.39238 3.82101
45 4 1.05234 1.01434 9.05478 0.91399
46 4 1.26363 -1.2917 12.2078 4.54824
70 1 -0.684015 -5.09466 12.3426 6.15364
78 1 -0.669841 2.34081 7.89347 0.266071
79 1 -0.66904 -1.86663 10.697 3.52775
354 2 0.246944 -5.87608 13.0406 6.62854
353 2 0.219359 -5.12532 10.584 8.38879
113 2 0.0394155 1.04465 9.21904 7.6987
245 3 -0.804625 -1.11045 10.3245 8.8177
111 2 0.00721588 -0.567085 8.42542 0.837763
132 2 0.160861 -4.73288 12.6677 5.13809
133 2 0.163729 -5.45601 11.2274 6.17971
157 2 0.210115 -0.956501 9.97257 3.69928
158 2 0.135583 -1.93913 11.1258 2.45641
159 2 0.157868 -2.85753 10.2971 3.87134
348 2 -0.00477429 -4.93797 10.0004 4.55845
161 2 0.224883 3.00405 6.89333 8.99266
211 3 -0.776164 -1.43398 8.47733 6.93677
213 3 -0.783137 -3.26243 10.481 7.31663
214 3 -0.818784 -3.57698 13.1397 8.73957
228 3 -0.740818 0.546653 7.89027 4.93196
240 3 -0.818223 1.45764 8.91987 2.44071
156 2 0.166377 3.10604 7.85484 1.04638
242 3 -0.780239 -2.2355 12.5226 5.88874
241 3 -0.848812 -1.33347 13.4567 3.54927
98 2 -0.0391999 -3.96622 11.3574 0.461253
246 3 -0.77851 -0.0123734 12.9264 8.90208
247 3 -0.794878 0.365893 11.6605 5.03909
321 1 -0.649622 -2.31689 7.64732 1.29049
322 2 0.155218 -1.60858 7.9057 2.15383
323 2 0.172238 -3.27947 8.1942 1.39818
324 1 -0.655898 -6.25005 12.201 2.80453
68 1 -0.626113 -2.06067 7.23611 4.54431
326 2 0.110706 -5.12066 12.4153 3.20355
127 2 0.180648 -1.73959 7.60714 3.50588
182 2 0.207483 -3.8588 8.43053 6.33772
162 2 0.164661 1.4386 7.38462 8.03759
112 2 -0.000984911 -0.127397 13.1871 1.21078
243 3 -0.793045 1.20428 10.3908 0.0704657
128 2 0.174134 -3.10957 7.69086 4.95806
325 2 0.175727 -6.26453 12.0094 1.69639
210 3 -0.827001 -3.16661 8.52098 9.07883
327 2 0.272244 -7.12157 12.8884 3.15313
17 4 1.46049 -3.81352 7.4546 10.2696
21 4 1.5335 -1.2506 7.36699 11.9015
22 4 0.955638 -3.79745 11.9251 17.2485
24 4 1.251 -6.34957 11.7228 10.1494
26 4 1.25652 -1.51456 9.79315 13.9009
27 4 1.0798 -5.52609 10.6313 15.1157
28 4 1.05137 -3.86376 11.8819 12.4123
92 1 -0.69335 -6.37332 12.1508 14.2243
49 4 1.01787 -1.01138 11.693 9.64758
51 4 1.24942 2.41223 8.34865 14.7372
52 4 1.23625 -0.976917 12.3602 15.7926
72 1 -0.68909 -1.66761 8.92748 15.5258
81 1 -0.675579 -0.192149 11.4616 11.3274
99 2 -0.0114897 -4.42409 13.4989 17.5344
254 3 -0.811461 -2.37556 11.9553 16.5502
352 2 0.0383157 -1.87393 8.36327 18.0366
190 2 0.156244 -5.87915 12.945 14.8344
100 2 0.0906489 -4.42989 9.9875 13.9572
101 2 0.0278796 -4.66428 12.9518 13.6339
114 2 0.102912 -2.5827 12.4484 9.74173
154 2 0.257614 2.94116 8.17484 17.5356
137 2 0.215409 -0.878234 8.99175 16.2746
138 2 0.197504 -1.67892 7.82642 15.0915
139 2 0.158307 -2.68594 9.3279 15.8375
232 3 -0.830611 -0.250196 7.05105 10.6856
115 2 0.0526186 1.80255 9.61703 13.7615
136 2 0.139829 -3.81742 8.1363 15.2156
164 2 0.230558 0.0446523 10.3682 11.4001
165 2 0.186779 -1.0136 11.812 12.0307
82 1 -0.674092 -2.92958 13.4548 12.6912
364 2 0.195961 -6.70965 12.3293 17.0027
208 3 -0.841213 -2.81498 7.60433 11.6278
212 3 -0.820961 -6.33104 13.134 9.27701
215 3 -0.784165 -0.801342 8.86992 12.878
216 3 -0.839422 -4.76448 11.1755 16.383
217 3 -0.797662 -4.92739 11.7772 11.248
218 3 -0.781932 -3.21538 10.6051 13.1658
357 2 0.0916009 -2.24081 13.1577 11.6064
191 2 0.193866 -6.44423 12.4139 13.1259
250 3 -0.827176 1.2064 7.76878 15.6008
252 3 -0.716197 -0.732045 11.2042 14.2884
253 3 -0.805454 0.266779 12.2847 16.7878
163 2 0.1621 0.731051 12.1879 11.2158
358 2 0.171587 -2.09392 13.7195 13.531
251 3 -0.903463 3.23845 7.48842 13.7788
196 2 0.187812 1.6548 10.7089 11.8262
195 2 0.1662 2.59382 8.91243 11.7481
1 4 1.00085 14.3864 1.05846 5.33896
350 2 0.00508066 9.93392 1.47382 0.892558
2 1 -0.647343 12.8677 0.231058 6.12706
4 2 0.123022 12.4419 1.27473 6.55765
286 4 1.03758 13.7835 -0.00119038 2.19054
140 2 0.179221 10.8417 0.410609 8.61562
34 4 1.33002 6.89136 2.66386 6.71992
39 4 1.53548 5.2875 4.95439 8.32707
349 2 0.0111312 14.1039 1.44861 1.2943
53 4 1.37249 8.5096 2.55143 3.80722
55 4 1.25541 9.35005 4.97135 1.9208
266 3 -0.77519 7.96558 6.8175 5.49021
340 2 0.173208 12.2661 1.44927 1.0429
85 1 -0.677783 10.2905 2.16643 4.41743
88 1 -0.660589 10.3342 6.44896 2.58622
90 1 -0.640359 10.2531 5.12622 6.1954
37 4 1.29112 5.04825 4.77095 3.01065
170 2 0.152638 10.6827 3.15437 4.89578
171 2 0.162468 10.9758 1.88209 3.52837
172 2 0.190074 10.1151 1.32649 5.19718
361 2 0.140139 11.5748 0.284682 2.46448
179 2 0.195992 11.3894 6.86787 2.17258
180 2 0.164739 10.4364 6.10816 3.66039
184 2 0.178223 10.2579 4.54006 5.18341
185 2 0.165813 9.63425 4.57759 7.03951
186 2 0.134232 11.2699 5.48446 6.4946
189 2 0.185783 9.37443 6.38185 8.49496
222 3 -0.796689 7.84262 1.69469 7.58022
230 3 -0.758269 6.54217 4.14221 7.45516
341 2 0.165523 12.1672 2.09667 2.81587
255 3 -0.85148 8.14242 1.38799 2.72737
256 3 -0.763762 7.6366 2.74609 5.1468
258 3 -0.799271 8.76024 4.00462 3.02287
259 3 -0.767577 10.5733 4.03391 0.862446
260 3 -0.844179 6.09706 5.48834 3.94695
263 3 -0.793125 8.21365 5.51473 0.742681
32 4 1.27766 8.60026 0.221329 8.11916
313 2 -0.0324311 11.2582 4.21914 7.64788
339 1 -0.699069 12.3368 1.20649 2.14714
320 2 0.128207 12.9216 2.7975 4.99192
166 2 0.16414 10.5215 0.181683 4.28819
316 2 0.156187 9.23066 3.40431 9.15423
56 4 1.28403 6.54987 6.80786 4.58586
233 3 -0.83755 4.46975 6.02517 7.36468
227 3 -0.810636 5.62329 4.05779 1.74482
12 4 1.19259 14.5974 1.05687 10.7722
20 4 1.23144 10.8822 6.04809 15.8618
331 1 -0.692132 7.37455 2.88845 17.8252
54 4 1.05085 12.0923 0.896137 12.7922
57 4 1.55678 8.39533 6.484 17.7733
60 4 0.877536 10.5824 3.57554 13.3751
317 3 -0.826055 11.4036 5.95841 9.7771
177 2 0.155373 12.1721 0.130698 15.2617
141 2 0.161169 9.9767 1.69053 9.73728
87 1 -0.662568 12.9409 0.315974 14.4252
105 2 -0.0316748 7.03433 3.51047 12.3048
270 3 -0.844467 6.88302 6.75194 17.1927
117 2 -0.0489831 9.1713 2.92165 13.7801
119 2 -0.024884 10.2016 4.5714 12.0327
120 2 -0.0130053 9.95794 6.32814 13.0643
365 3 -0.867879 11.8796 2.33923 17.4615
346 2 -0.00808149 13.2178 2.99568 15.4175
343 2 0.174619 15.4174 0.109554 17.5679
332 2 0.191829 6.90389 2.98481 16.7923
272 3 -0.836135 7.866 6.08921 11.2887
176 2 0.128981 13.5947 1.26616 14.7605
97 2 0.0973799 12.7179 4.66619 14.4987
257 3 -0.764034 13.194 0.551601 11.3358
262 3 -0.822293 9.48901 6.1239 16.6613
264 3 -0.870035 5.82459 5.82778 9.50943
58 4 1.30959 6.36123 6.57893 10.7793
267 3 -0.799664 11.5884 2.38137 13.0685
268 3 -0.775577 11.1219 4.56481 14.5601
269 3 -0.844414 5.60869 5.44358 15.2465
310 4 0.707605 11.2964 4.42139 9.34955
283 4 0.980106 13.2976 2.2286 16.9183
284 2 0.00268544 13.37 0.628298 16.3191
265 3 -0.805801 5.25505 6.52303 11.9494
309 2 -0.00982627 9.33002 2.84265 17.2737
315 2 0.113198 10.1952 3.1069 10.8769
311 1 -0.662959 9.69264 3.9 10.1806
312 2 0.0513736 12.7274 3.65165 9.8514
314 2 0.243384 8.97015 4.70211 10.6969
308 4 0.997518 10.661 2.6984 18.3056
173 2 0.133259 9.90859 0.336719 12.2073
73 1 -0.661351 9.9743 0.656007 9.33958
338 2 0.130157 9.20076 0.267322 18.2523
345 2 0.0895606 15.3281 -0.00952442 9.6551
333 2 0.135038 7.96349 2.0103 17.9846
169 2 0.169137 7.63905 0.679481 15.848
334 2 0.253616 7.8662 3.90177 18.2106
305 3 -0.786543 7.52631 10.531 0.062281
335 1 -0.67258 1.69364 13.3704 0.492103
50 4 1.30026 1.72521 12.1354 5.66962
83 1 -0.678945 2.80607 12.8298 4.24952
89 1 -0.670066 10.4656 8.3367 5.70224
91 1 -0.634487 8.58058 7.28147 8.1275
121 2 0.0198324 6.94894 7.98295 3.31852
307 3 -0.777137 7.72423 10.5752 4.61485
249 3 -0.773362 1.68125 13.3853 6.86621
167 2 0.165904 2.12144 12.5301 3.42648
168 2 0.161137 3.89715 12.3624 4.14461
303 3 -0.791687 8.6236 7.98582 0.136452
3 2 0.179321 4.25033 13.5708 5.35936
183 2 0.153973 9.60463 9.1292 6.0187
244 3 -0.879021 3.44502 8.38097 6.91466
188 2 0.1915 8.9351 8.366 8.48119
178 2 0.207182 9.48233 7.25094 2.50988
306 3 -0.810125 6.04051 12.6271 1.2221
108 2 0.0285437 3.0554 9.60895 4.35853
248 3 -0.821046 2.64834 10.9059 6.34095
48 4 1.25159 2.61622 9.64836 7.44623
261 3 -0.868014 5.36596 7.37782 5.44375
5 2 0.14393 5.40979 13.4084 7.03597
285 4 1.00431 9.02649 10.5188 3.61672
192 2 0.193552 3.54066 12.3895 9.11753
287 4 1.31439 7.89373 9.1938 0.958119
337 2 0.159763 1.67636 13.5804 1.64217
289 4 0.86274 6.47983 10.728 5.51794
290 1 -0.672969 6.17903 8.85987 1.73888
291 1 -0.662194 4.86067 10.3737 4.32727
292 1 -0.645751 6.58601 9.70373 7.06932
293 2 0.0241813 5.92379 12.3214 5.64995
294 2 0.126916 5.90281 7.75282 1.84434
295 2 0.170792 5.58393 9.2718 0.776526
296 2 0.174256 5.76606 9.47068 2.70111
297 2 0.215447 4.05711 10.6883 5.14707
298 2 0.148207 4.80868 9.28478 3.98631
299 2 0.167785 5.04552 11.1576 3.40895
300 2 0.180291 7.30998 8.74451 7.47585
301 2 0.223447 5.487 9.30054 7.00714
302 2 0.120442 6.64763 10.6829 7.80027
329 2 0.16212 8.27767 10.0975 8.15337
304 3 -0.782225 8.82935 9.4588 2.38587
181 2 0.160959 10.606 8.2065 4.59491
328 1 -0.684845 9.22005 10.3042 8.90943
273 3 -0.827106 3.05663 9.9448 8.90604
41 4 1.33017 4.10004 7.10627 6.34201
152 2 0.0633603 3.77591 7.25403 3.68455
336 2 0.150144 2.87987 13.3379 0.171402
187 2 0.215926 7.49748 7.06454 8.2308
59 4 0.955683 9.24763 6.93886 6.31806
6 3 -0.757327 6.72979 13.7875 3.61268
174 2 0.167317 2.75755 13.5187 13.9383
62 4 1.21367 8.99795 7.17577 11.8937
63 4 1.03486 3.73132 10.2226 10.3124
64 4 1.5056 7.47322 8.98941 13.925
65 4 1.2369 4.09308 10.8182 16.2253
66 4 1.18446 6.32312 10.55 11.6552
71 1 -0.68116 10.8431 7.35485 14.5101
362 2 0.155632 5.86351 13.2911 14.1458
93 1 -0.653608 4.07602 12.1301 10.1146
94 1 -0.684623 2.68176 10.1666 11.9816
95 1 -0.664874 4.47807 11.2018 14.4325
116 2 0.108634 6.48053 8.23047 10.3298
118 2 0.0767923 4.64683 7.82676 16.2602
122 2 0.0178207 5.25812 11.8493 11.773
47 4 1.2955 1.57693 11.7323 17.586
175 2 0.162341 2.76206 12.273 12.4281
363 2 0.17721 7.85947 11.8604 14.5889
342 1 -0.669963 7.61578 12.9016 17.0762
194 2 0.18815 3.57301 12.7037 11.0282
344 2 0.163272 6.96023 12.7546 16.138
193 2 0.168872 5.17509 12.3559 9.91821
197 2 0.154967 3.33279 10.5161 12.8643
198 2 0.184028 3.9348 12.0489 13.8672
199 2 0.19052 4.3697 10.1748 13.912
200 2 0.172281 5.60054 11.5266 14.6402
288 4 1.27923 6.69272 11.6044 18.1321
271 3 -0.804767 9.88768 7.7738 10.6124
134 2 0.194955 9.9523 7.96376 14.1107
274 3 -0.818378 6.74101 7.77411 14.757
275 3 -0.869407 8.35931 8.3723 12.6944
276 3 -0.787669 8.51779 9.69419 15.153
277 3 -0.77599 3.46515 8.95967 16.0142
278 3 -0.817334 5.38705 11.1778 17.1532
279 3 -0.786562 2.75023 11.6636 16.4557
280 3 -0.833089 7.57416 11.3981 10.9911
281 3 -0.7766 5.42416 9.44559 10.6246
282 3 -0.857903 6.50116 9.97723 13.1635
86 1 -0.655387 2.88393 13.3998 12.7822
330 2 0.238712 9.43082 9.41985 9.64792
61 4 1.31386 6.01919 6.89752 15.8664
135 2 0.193851 11.4673 6.86108 13.6736
355 2 0.164152 1.98108 13.7002 10.1573
ITEM: TIMESTEP
100
ITEM: NUMBER OF ATOMS
365
ITEM: BOX BOUNDS xy xz yz pp pp pp
-7.3653559999999985e+00 1.5563499999999999e+01 -7.3653559999999985e+00
-1.3819999999999999e-01 1.3846299999999999e+01 2.4629999999999999e-01
0.0000000000000000e+00 1.8322199999999999e+01 -1.3819999999999999e-01
ITEM: ATOMS id type q x y z
80 1 -0.681205 1.89406 6.55239 8.89318
8 2 -0.0267562 0.0969735 2.96862 1.71469
226 3 -0.784613 3.90388 3.71642 3.6225
229 3 -0.812566 4.45683 3.64597 8.92145
11 4 1.42682 2.91962 0.28342 8.96112
13 4 1.5037 1.51521 2.06906 7.02825
160 2 0.158156 1.75556 5.53171 8.37629
29 4 1.29017 7.10499 0.463926 2.41176
30 4 1.01976 2.6116 2.98225 4.21323
31 4 1.36737 5.70893 2.59029 0.735026
319 2 0.177584 -0.428625 3.52903 5.66033
220 3 -0.843503 6.07235 1.2748 1.56403
69 1 -0.663413 -0.50318 5.84732 6.77061
74 1 -0.656598 1.46181 2.03898 2.87883
75 1 -0.646977 5.31552 1.8283 6.50354
205 3 -0.895204 0.731919 2.89411 8.04454
96 2 0.00577111 -0.944378 4.99695 8.44215
102 2 0.039075 0.98116 3.54905 3.18317
131 2 0.15474 -1.59332 5.95859 7.15451
109 2 0.00881649 2.94592 6.13286 5.2147
126 2 0.146462 -2.0689 6.08847 4.83117
107 2 -0.0239139 3.97843 5.92538 2.13199
129 2 0.144507 0.403902 6.15678 7.55908
130 2 0.156077 -0.236512 4.98642 6.06677
142 2 0.193724 1.83106 1.97051 1.82008
143 2 0.213774 0.607382 1.29051 3.18047
144 2 0.0633317 2.83519 1.20872 3.72856
145 2 0.230461 5.52971 0.922295 7.1516
146 2 0.219956 5.2175 1.48005 5.40988
147 2 0.26472 4.36969 2.36115 6.91798
151 2 0.166457 2.32905 5.48581 3.60514
318 1 -0.674738 -1.22369 2.94142 5.03436
347 2 0.07425 -2.39694 5.81922 1.01403
219 3 -0.798711 2.22349 3.06423 5.81909
201 3 -0.767629 0.301957 1.12785 6.2538
202 3 -0.855372 2.58592 0.989282 7.54035
351 2 0.148285 -1.17042 3.11944 3.94977
153 2 0.140917 2.25049 6.65273 2.22402
77 1 -0.712877 2.49697 6.51961 3.32035
152 2 0.0863173 3.63895 6.88048 3.5371
161 2 0.251229 2.99361 6.843 8.79612
16 4 1.20864 -0.115084 3.62936 9.14679
14 4 1.13707 0.566079 2.60972 13.05
360 2 0.173037 5.81103 0.586187 15.1072
19 4 1.32025 -1.10783 4.9929 13.941
33 4 1.28279 3.78852 2.866 10.2048
35 4 1.23583 3.31643 2.48715 17.1473
40 4 1.27778 1.08232 6.16689 10.5243
42 4 1.51478 4.4734 4.38852 14.8526
343 2 0.200595 0.257488 -0.0363127 17.5354
44 4 1.62133 3.57598 6.3384 12.6365
67 1 -0.68192 0.911667 1.52695 14.664
76 1 -0.662063 3.53047 0.797263 16.3568
43 4 1.20577 0.813386 6.21513 15.9914
36 4 0.964533 5.69621 2.74762 12.562
103 2 0.105282 2.27473 3.7138 10.5124
104 2 0.0255495 2.24183 2.54721 13.7632
110 2 0.0791264 2.14203 5.16552 16.0681
123 2 0.173601 0.37894 0.566989 14.2536
124 2 0.192769 0.191176 2.11507 15.3044
125 2 0.178243 1.85294 1.35419 15.2771
15 4 0.910358 -1.75413 6.65921 17.7743
149 2 0.175408 4.54255 0.223859 16.8315
150 2 0.148434 3.7669 1.18195 15.2692
10 3 -0.847952 -0.671282 2.41351 17.595
203 3 -0.842399 0.308242 1.69535 11.8221
207 3 -0.804291 -3.11936 6.44535 16.8584
206 3 -0.870711 -0.476651 3.61046 13.5936
223 3 -0.809109 4.61573 2.52556 18.1748
209 3 -0.817782 -1.25652 6.00674 12.6988
221 3 -0.867522 3.51171 1.3563 10.0322
84 1 -0.649493 6.92652 0.230802 15.0492
224 3 -0.826325 1.89406 2.29614 17.8385
225 3 -0.837886 4.70208 3.16596 11.5122
231 3 -0.825751 0.75646 4.19071 10.326
234 3 -0.815226 3.39038 4.07935 16.0522
106 2 -0.0065676 5.94035 1.07042 12.4111
236 3 -0.873858 -0.241278 5.64302 15.0091
238 3 -0.818853 2.37564 6.40552 11.5198
239 3 -0.84288 3.60153 5.07914 13.6164
235 3 -0.797328 5.22404 3.08844 14.149
356 2 0.163885 3.82461 0.416842 12.5967
148 2 0.153102 2.58228 0.0960262 16.3283
237 3 -0.80251 0.0849588 6.13162 17.5296
359 2 0.148612 7.35714 0.167781 13.9587
7 4 0.931671 0.572377 2.95806 18.3025
9 2 0.0489603 0.508584 4.68696 18.1061
18 4 1.12278 -0.732213 7.65632 5.83597
23 4 1.46573 -2.21532 9.50135 8.16444
25 4 1.23512 -3.43103 12.1197 7.06429
38 4 1.01528 1.87668 8.26366 3.86025
45 4 1.00557 1.10641 9.11524 1.03199
46 4 1.29668 -1.25775 12.245 4.64216
70 1 -0.666562 -5.0709 12.1585 6.16313
78 1 -0.679327 2.41446 8.1032 0.182964
79 1 -0.654698 -2.19964 10.8559 3.76886
354 2 0.215171 -5.92585 12.6902 6.73936
353 2 0.232899 -5.02076 10.3718 8.46203
113 2 0.029581 0.941656 9.08125 7.38102
245 3 -0.831909 -1.18409 10.4043 9.06214
111 2 0.0168492 -0.599159 8.46759 1.08273
132 2 0.170108 -4.80203 12.7683 5.23554
133 2 0.169472 -5.32573 11.058 5.92337
157 2 0.191056 -1.75813 9.89565 4.11288
158 2 0.15447 -1.89751 11.1029 2.64492
159 2 0.152885 -3.29405 10.8558 3.90254
348 2 -0.00990362 -4.8587 9.98695 4.34201
155 2 0.139781 1.79393 7.09921 0.197901
211 3 -0.793737 -1.47042 8.60497 6.85493
213 3 -0.815836 -3.35074 10.4978 7.41738
214 3 -0.826534 -3.48424 13.2343 8.63162
228 3 -0.788146 0.669989 8.0198 5.07488
240 3 -0.80421 1.52751 9.12824 2.63276
327 2 0.276748 -7.09869 12.9532 3.23352
242 3 -0.784398 -2.29162 12.5262 5.98446
241 3 -0.831294 -1.37188 13.3537 3.47947
98 2 -0.0390922 -4.00915 11.3569 0.422582
246 3 -0.770426 -0.147362 12.9774 8.76739
247 3 -0.803434 0.282206 11.7575 5.19065
321 1 -0.627943 -2.30401 7.61265 1.20287
322 2 0.153327 -1.99608 7.95536 2.24726
323 2 0.150824 -3.22736 8.24717 0.803291
324 1 -0.638571 -6.13796 12.2678 2.9287
68 1 -0.646054 -2.10926 7.24635 4.66314
326 2 0.117745 -5.04049 12.3621 3.4872
127 2 0.154677 -1.847 7.5592 3.57495
182 2 0.211365 -4.09509 8.47044 6.15666
162 2 0.168243 1.21405 7.34962 8.45722
112 2 0.0141725 -0.0046014 13.2331 1.21152
243 3 -0.760416 1.15521 10.5321 0.234155
128 2 0.171885 -3.1922 7.736 4.97427
325 2 0.173185 -6.09618 12.1496 1.77478
210 3 -0.823877 -3.19342 8.50925 9.0296
17 4 1.44559 -3.74023 7.40798 10.1071
21 4 1.51417 -1.29302 7.46492 11.8601
22 4 0.926856 -3.75917 11.87 17.1783
24 4 1.35887 -6.1712 11.6568 10.2969
26 4 1.2308 -1.47204 9.88372 13.8174
27 4 1.09175 -5.5991 10.6005 14.9253
28 4 1.05114 -3.89101 11.7686 12.421
92 1 -0.68956 -6.53731 12.1701 14.3279
49 4 1.05584 -1.14549 11.9099 9.57289
51 4 1.3019 2.49644 8.37522 14.7144
52 4 1.26466 -0.814588 12.319 15.813
72 1 -0.683467 -1.76897 9.06116 15.4436
81 1 -0.681556 -0.268816 11.8092 11.3047
99 2 -0.0064949 -4.46363 13.2411 17.7932
254 3 -0.799812 -2.30995 12.1462 16.5889
352 2 0.0248717 -1.52143 8.44024 18.0323
190 2 0.165047 -6.08118 13.0399 14.8981
100 2 0.104341 -4.49265 9.83145 13.8767
101 2 0.0208355 -4.72378 12.8585 13.6505
114 2 0.0922333 -2.74157 12.6051 9.84941
154 2 0.255271 2.95326 8.30932 17.4519
137 2 0.19397 -0.907537 9.50776 16.0911
138 2 0.198356 -1.73199 7.94448 15.2121
139 2 0.1708 -2.79365 9.46328 15.7824
232 3 -0.829087 -0.11152 7.11681 10.6045
115 2 0.0389273 1.90227 9.75514 13.7794
136 2 0.165322 -3.84122 8.12222 15.2868
164 2 0.223628 -0.064044 10.6879 11.2975
165 2 0.183959 -0.897106 12.1316 12.163
82 1 -0.682597 -3.08196 13.4657 12.7392
195 2 0.187084 2.6327 9.09108 11.7183
208 3 -0.835842 -2.81422 7.56131 11.5108
212 3 -0.835063 -6.32142 13.1474 9.56916
215 3 -0.81433 -0.874509 8.8314 12.7718
216 3 -0.819079 -4.7017 11.109 16.1224
217 3 -0.86016 -4.91307 11.5758 11.2657
218 3 -0.789294 -3.23094 10.4685 13.1434
357 2 0.102217 -2.42692 13.2596 11.6737
191 2 0.167885 -6.56655 12.3746 13.2252
250 3 -0.81896 1.24361 7.72761 15.4959
252 3 -0.769105 -0.631531 11.2714 14.404
253 3 -0.843394 0.313503 12.3109 16.8799
163 2 0.163126 0.664848 12.4481 11.115
358 2 0.163172 -2.30591 13.6628 13.6923
251 3 -0.883258 3.14327 7.45145 13.6511
196 2 0.182621 1.58052 10.8725 11.8014
135 2 0.195774 -4.03976 7.51731 13.5874
364 2 0.207236 -6.67398 12.2398 16.8735
1 4 1.02132 14.329 1.05571 5.33497
350 2 0.014695 9.88159 1.47323 0.970681
2 1 -0.654475 12.8477 0.230637 6.231
4 2 0.133543 12.4396 1.32456 6.65267
233 3 -0.828849 4.48708 5.92473 7.402
140 2 0.170785 10.8479 0.561741 8.71958
34 4 1.32081 6.96395 2.71108 6.73039
39 4 1.52578 5.39261 4.97568 8.29223
349 2 0.0398267 14.3463 1.40946 1.70122
53 4 1.35905 8.62812 2.51262 3.94675
55 4 1.24705 9.30901 5.10125 1.78022
266 3 -0.766046 7.91546 6.78499 5.36467
340 2 0.201133 12.2349 1.87708 1.4532
85 1 -0.664336 10.4132 2.20734 4.62835
88 1 -0.662795 10.1963 6.59706 2.51251
90 1 -0.65848 10.187 5.12405 6.20606
308 4 0.991234 10.4081 2.86028 0.0793502
170 2 0.152723 10.7803 3.21492 5.0723
171 2 0.173259 11.1479 1.82576 3.76419
172 2 0.182159 10.1039 1.47704 5.5063
361 2 0.116761 11.606 0.440297 2.74144
59 4 0.966958 9.22402 6.84119 6.1694
180 2 0.169998 10.4039 6.24189 3.55124
184 2 0.193302 10.1105 4.38728 5.32348
185 2 0.146553 9.47924 4.80084 7.15041
186 2 0.134958 11.276 5.37435 6.47258
189 2 0.1651 9.22612 6.45746 8.40486
222 3 -0.817963 7.92637 1.75703 7.91666
230 3 -0.746364 6.54175 4.2328 7.21521
341 2 0.152262 12.7403 2.05811 3.22451
255 3 -0.860114 8.36138 1.24872 2.90499
256 3 -0.796749 7.61001 2.66937 5.25487
258 3 -0.753601 8.96894 3.8349 3.12382
259 3 -0.772862 10.4442 4.16471 0.924758
260 3 -0.827375 5.97702 5.41148 3.93107
263 3 -0.786007 8.13825 5.49686 0.735928
32 4 1.28656 8.57698 0.358674 8.08743
313 2 -0.0248973 11.0677 4.06391 7.62298
339 1 -0.694415 12.5144 1.32237 2.36209
320 2 0.138926 13.026 3.09004 5.40811
166 2 0.179963 10.4134 0.102202 4.41829
227 3 -0.785018 5.7164 3.90441 1.76042
56 4 1.24789 6.50181 6.79024 4.46834
338 2 0.11779 8.73054 0.299309 0.182184
37 4 1.26671 5.04338 4.75625 2.88275
6 3 -0.788559 14.5733 -0.0173772 3.65323
12 4 1.18677 14.4971 1.23618 10.7913
20 4 1.21071 10.8587 6.02261 15.9195
331 1 -0.685554 7.46848 2.74296 17.8492
54 4 1.08058 12.0145 0.867642 12.8439
57 4 1.49974 8.39241 6.52714 17.71
60 4 0.887305 10.5394 3.66595 13.4178
317 3 -0.826869 11.6621 5.82963 9.60721
316 2 0.163255 9.02461 3.69298 9.24574
141 2 0.160258 9.77204 1.94582 9.60479
87 1 -0.64299 13.3142 0.414039 14.2653
105 2 -0.0261533 7.28748 3.31902 12.1918
270 3 -0.858273 6.86749 6.70576 17.2918
117 2 -0.028505 8.94662 3.28397 13.745
119 2 -0.0294199 10.3576 4.56614 11.9863
120 2 -0.0111165 10.0578 6.50104 13.0222
365 3 -0.863579 11.9499 2.39332 17.6955
346 2 -0.00344471 13.1482 2.98807 15.4675
204 3 -0.786395 13.9468 2.53854 9.69467
332 2 0.190518 7.08149 2.83609 16.7906
272 3 -0.825092 7.71653 6.18429 11.5139
176 2 0.136951 13.6843 1.40961 14.7758
97 2 0.0866448 12.6428 4.73496 14.5738
257 3 -0.777057 13.1948 0.626523 11.5964
262 3 -0.823035 9.38856 5.82177 16.5454
264 3 -0.847408 6.15691 5.77294 9.43277
58 4 1.27468 6.27594 6.60758 10.8028
267 3 -0.802602 11.2965 2.26874 13.113
268 3 -0.775304 11.1065 4.46954 14.6813
269 3 -0.835198 5.58836 5.42939 15.3797
310 4 0.732488 11.1689 4.39382 9.32794
283 4 0.967879 13.2545 2.1627 16.9282
284 2 0.00210231 13.1633 0.561565 16.2193
265 3 -0.839903 4.89898 6.55673 11.7599
309 2 -0.00273792 9.37083 2.72343 17.2971
315 2 0.114713 9.99579 3.20685 10.9046
311 1 -0.686637 9.56252 4.09488 10.2525
312 2 0.0681519 12.4004 3.19235 9.58988
314 2 0.232454 8.87871 4.84544 10.7878
355 2 0.16078 9.8467 0.0869641 10.2
173 2 0.146702 9.9015 0.243808 12.075
73 1 -0.661324 9.94191 0.804437 9.3551
345 2 0.0873608 15.2322 0.0376461 9.81886
169 2 0.156588 7.68522 0.698777 15.8862
333 2 0.126604 8.07007 1.83467 18.0293
334 2 0.262631 7.88911 3.79658 18.2236
305 3 -0.779448 7.55257 10.5209 0.0528877
335 1 -0.681445 1.86948 13.3786 0.552064
50 4 1.31896 1.75109 12.0547 5.78937
83 1 -0.67206 2.79943 12.7678 4.33526
89 1 -0.667911 10.3347 8.44619 5.50501
91 1 -0.641959 8.58005 7.36182 7.91391
121 2 -0.00944405 6.73513 7.82794 3.15798
307 3 -0.751039 7.72169 10.5424 4.71306
249 3 -0.783906 1.5755 13.4122 6.76182
167 2 0.170573 2.21148 12.3743 3.45864
168 2 0.148546 3.86111 12.3595 4.35858
303 3 -0.829229 8.68192 7.94569 0.203583
3 2 0.172088 4.30546 13.5492 5.55026
183 2 0.172035 9.60384 9.34141 5.68908
244 3 -0.868314 3.27184 8.21925 6.77664
188 2 0.195224 8.902 8.34391 8.30768
178 2 0.210695 9.40883 7.40264 2.45921
306 3 -0.801663 6.09233 12.7301 1.13309
108 2 0.0368559 3.24386 9.08287 4.56522
248 3 -0.847819 2.69422 10.847 6.35757
48 4 1.22739 2.54292 9.52093 7.31533
261 3 -0.845264 5.28331 7.34152 5.36846
5 2 0.154225 5.45461 13.3194 7.02091
285 4 1.00297 9.00695 10.5044 3.57451
179 2 0.195419 11.3014 6.93247 1.97824
287 4 1.33457 7.89525 9.20199 0.928155
337 2 0.172462 1.86365 13.2399 1.64449
289 4 0.847576 6.34799 10.6888 5.49963
290 1 -0.683568 6.13267 8.73177 1.52866
291 1 -0.690338 4.92619 10.0696 4.20223
292 1 -0.624688 6.54309 9.82264 7.16066
293 2 0.00578296 5.87148 12.3346 5.70789
294 2 0.156977 6.12611 7.58193 1.38736
295 2 0.182717 5.54987 9.20089 0.66927
296 2 0.164952 5.77615 9.18809 2.61701
297 2 0.194987 4.1278 10.4069 4.92952
298 2 0.16793 4.89342 9.0032 3.96171
299 2 0.17062 4.91384 10.7418 3.3689
300 2 0.192289 7.2695 8.88726 7.47405
301 2 0.201928 5.35327 9.54051 7.15791
302 2 0.130958 6.78673 10.8422 7.73337
329 2 0.165184 8.41423 10.0621 8.3832
304 3 -0.811688 8.66657 9.63755 2.31436
181 2 0.149872 10.613 8.26591 4.38528
328 1 -0.679469 9.36465 10.2291 9.08596
273 3 -0.763068 3.13297 9.82077 8.84627
41 4 1.29405 4.02938 6.95805 6.22651
156 2 0.15471 3.23877 8.29959 0.982029
336 2 0.169244 2.88898 13.6987 0.153624
187 2 0.221888 7.42276 7.11432 8.00712
286 4 1.04379 5.9815 13.7202 2.31034
174 2 0.171896 2.21717 13.4763 13.8295
62 4 1.20803 9.03558 7.17205 11.8882
63 4 0.986729 3.83788 10.3419 10.3109
64 4 1.51415 7.41454 8.86017 13.8644
65 4 1.22456 4.05631 10.7507 16.1406
66 4 1.2173 6.43871 10.6845 11.6613
71 1 -0.707824 10.8224 7.38534 14.6378
362 2 0.160893 6.40404 13.5472 13.8195
93 1 -0.659498 4.15169 12.1293 10.1601
94 1 -0.670903 2.6167 10.2822 11.9645
95 1 -0.669417 4.5409 11.2588 14.3968
116 2 0.115634 6.37853 8.26303 10.3791
118 2 0.0859364 4.67661 7.776 16.3123
122 2 0.0122455 5.40415 12.0508 11.7468
47 4 1.25711 1.64837 11.8574 17.6099
175 2 0.158585 2.70374 12.3198 12.4646
363 2 0.184168 7.73674 12.074 14.715
342 1 -0.673766 7.69498 12.8376 17.0082
194 2 0.168059 3.62309 12.748 11.1178
344 2 0.157233 6.94148 12.9448 16.1256
193 2 0.158708 5.2699 12.3934 9.90987
197 2 0.143491 3.25501 10.6336 12.8594
198 2 0.16515 3.87926 12.0772 13.8051
199 2 0.185506 4.48496 10.2439 13.8962
200 2 0.178741 5.63467 11.6051 14.674
288 4 1.24633 6.6941 11.618 18.0251
271 3 -0.816261 9.92498 7.77109 10.6012
134 2 0.206416 9.73684 7.63501 14.7043
274 3 -0.863326 6.67446 7.66033 14.7524
275 3 -0.870512 8.40555 8.29887 12.7945
276 3 -0.777014 8.50267 9.64707 15.1147
277 3 -0.849889 3.51554 8.8579 15.7823
278 3 -0.79248 5.37225 11.0854 17.0767
279 3 -0.795324 2.95148 11.7866 16.4802
280 3 -0.837181 7.82527 11.173 10.9884
281 3 -0.771201 5.6182 9.68452 10.6258
282 3 -0.860208 6.58472 9.98479 13.1299
86 1 -0.672639 2.77163 13.4294 12.8212
330 2 0.280853 9.59558 9.2947 9.71939
61 4 1.34999 6.05555 6.8608 15.8953
192 2 0.177967 3.40895 12.2132 9.23666
177 2 0.149406 4.77774 13.5836 14.7783
ITEM: TIMESTEP
200
ITEM: NUMBER OF ATOMS
365
ITEM: BOX BOUNDS xy xz yz pp pp pp
-6.9989120000000007e+00 1.5563499999999999e+01 -6.9989120000000007e+00
-1.3819999999999999e-01 1.3846299999999999e+01 2.4629999999999999e-01
0.0000000000000000e+00 1.8322199999999999e+01 -1.3819999999999999e-01
ITEM: ATOMS id type q x y z
80 1 -0.682742 1.86045 6.60309 8.86579
8 2 -0.0313524 0.326145 3.22691 1.69518
226 3 -0.803412 3.8737 3.79505 3.68277
229 3 -0.832041 4.62457 3.68777 9.03898
227 3 -0.793154 5.58176 3.83493 1.65374
13 4 1.39253 1.42206 2.00098 6.90767
160 2 0.164111 1.82208 5.56545 8.19874
29 4 1.23963 7.16672 0.455752 2.49421
30 4 0.979173 2.62306 2.82733 4.18739
31 4 1.37303 5.72231 2.5039 0.734806
319 2 0.149434 -0.889198 3.64006 5.78325