LAMMPS (2 Aug 2023 - Update 2)
  using 8 OpenMP thread(s) per MPI task
Reading data file ...
  triclinic box = (0.69833985 0.69833985 0.74854241) to (16.99296 16.99296 18.214558) with tilt (-8.1473102 0 0)
WARNING: Triclinic box skew is large. LAMMPS will run inefficiently. (src/domain.cpp:220)
  2 by 2 by 2 MPI processor grid
  reading atoms ...
  243 atoms
  reading velocities ...
  243 velocities
Finding 1-2 1-3 1-4 neighbors ...
  special bond factors lj:    0        0        0       
  special bond factors coul:  0        0        0       
     0 = max # of 1-2 neighbors
     0 = max # of 1-3 neighbors
     0 = max # of 1-4 neighbors
     1 = max # of special neighbors
  special bonds CPU = 0.001 seconds
  read_data CPU = 0.007 seconds
WARNING: Van der Waals parameters for element SI indicate inner wall+shielding, but earlier atoms indicate a different van der Waals method. This may cause division-by-zero errors. Keeping van der Waals setting for earlier atoms. (src/REAXFF/reaxff_ffield.cpp:251)

CITE-CITE-CITE-CITE-CITE-CITE-CITE-CITE-CITE-CITE-CITE-CITE-CITE

Your simulation uses code contributions which should be cited:
- pair reaxff command: doi:10.1016/j.parco.2011.08.005
- fix qeq/reaxff command: doi:10.1016/j.parco.2011.08.005
The log file lists these citations in BibTeX format.

CITE-CITE-CITE-CITE-CITE-CITE-CITE-CITE-CITE-CITE-CITE-CITE-CITE

Neighbor list info ...
  update: every = 10 steps, delay = 0 steps, check = no
  max neighbors/atom: 2000, page size: 100000
  master list distance cutoff = 12
  ghost atom cutoff = 12
  binsize = 6, bins = 5 3 3
  2 neighbor lists, perpetual/occasional/extra = 2 0 0
  (1) pair reaxff, perpetual
      attributes: half, newton off, ghost
      pair build: half/bin/newtoff/ghost
      stencil: full/ghost/bin/3d
      bin: standard
  (2) fix qeq/reaxff, perpetual, copy from (1)
      attributes: half, newton off
      pair build: copy
      stencil: none
      bin: none
Setting up Verlet run ...
  Unit style    : real
  Current step  : 0
  Time step     : 0.5
Per MPI rank memory allocation (min/avg/max) = 83.12 | 84.3 | 85.89 Mbytes
   Step          Temp          PotEng         Press         Density    
         0   290.02589     -34129.204      9027.044       1.8580569    
      3000   304.86284     -34140.831     -1575.4799      1.8580569    
Loop time of 60.4577 on 64 procs for 3000 steps with 243 atoms

Performance: 2.144 ns/day, 11.196 hours/ns, 49.621 timesteps/s, 12.058 katom-step/s
130.4% CPU use with 8 MPI tasks x 8 OpenMP threads

MPI task timing breakdown:
Section |  min time  |  avg time  |  max time  |%varavg| %total
---------------------------------------------------------------
Pair    | 31.473     | 32.946     | 34.697     |  17.2 | 54.49
Bond    | 0.00065798 | 0.00075129 | 0.00088134 |   0.0 |  0.00
Neigh   | 2.8051     | 2.9887     | 3.1676     |   7.3 |  4.94
Comm    | 10.993     | 12.526     | 14.278     |  28.6 | 20.72
Output  | 4.1548e-05 | 4.527e-05  | 5.6991e-05 |   0.0 |  0.00
Modify  | 10.198     | 10.506     | 10.795     |   5.6 | 17.38
Other   |            | 1.491      |            |       |  2.47

Nlocal:         30.375 ave          48 max          16 min
Histogram: 3 1 0 0 0 0 2 0 0 2
Nghost:        1891.25 ave        1964 max        1828 min
Histogram: 1 1 1 0 1 1 2 0 0 1
Neighs:        10975.9 ave       16843 max        6003 min
Histogram: 2 2 0 0 0 0 0 2 0 2

Total # of neighbors = 87807
Ave neighs/atom = 361.34568
Ave special neighs/atom = 0
Neighbor list builds = 300
Dangerous builds not checked
WARNING: Van der Waals parameters for element SI indicate inner wall+shielding, but earlier atoms indicate a different van der Waals method. This may cause division-by-zero errors. Keeping van der Waals setting for earlier atoms. (src/REAXFF/reaxff_ffield.cpp:251)
Neighbor list info ...
  update: every = 10 steps, delay = 0 steps, check = no
  max neighbors/atom: 2000, page size: 100000
  master list distance cutoff = 12
  ghost atom cutoff = 12
  binsize = 6, bins = 5 3 3
  2 neighbor lists, perpetual/occasional/extra = 2 0 0
  (1) pair reaxff, perpetual
      attributes: half, newton off, ghost
      pair build: half/bin/newtoff/ghost
      stencil: full/ghost/bin/3d
      bin: standard
  (2) fix qeq/reaxff, perpetual, copy from (1)
      attributes: half, newton off
      pair build: copy
      stencil: none
      bin: none
Setting up Verlet run ...
  Unit style    : real
  Current step  : 0
  Time step     : 0.5
Per MPI rank memory allocation (min/avg/max) = 83.85 | 85.05 | 86.63 Mbytes
   Step          Temp          PotEng         Press         Density         f_avt          f_avp          f_avpe         v_F11          v_F22          v_F33          v_F44          v_F55          v_F66          v_F12          v_F13          v_F23          v_B[1]         v_B[2]         v_B[3]         v_B[4]         v_B[5]         v_B[6]         v_B[7]         v_B[8]        v_B[12]    
         0   304.86284     -34140.831     -1576.0456      1.8580569      0              0              0             -0             -0             -0             -0             -0             -0             -0             -0             -0              0              0              0              0              0              0              0              0              0            
       100   311.25532     -34112.988      2674.4653      1.8580569      308.33888     -189.70911     -140.41238     -1.3738635e+18 -5.2882764e+17 -1.4755293e+18 -5.4485446e+17 -1.8152457e+18 -6.817061e+17  -4.6094609e+16  1.0814677e+17 -5.9461873e+17  9.3692922e-07  6.5778762e-07  8.7819499e-07  6.6875036e-07  6.9773284e-07  3.972672e-07   7.9351326e-08  2.4950184e-07  2.2197999e-07
       200   300.77144     -34115.96      -3108.8915      1.8580569      313.20469     -1059.0917     -140.40499     -1.1926226e+18 -8.5356573e+17 -2.178652e+18  -5.4742682e+17 -1.4364356e+18 -6.9350762e+17 -5.8567973e+16 -9.0268237e+16 -9.9596396e+17  9.5058097e-07  6.6901386e-07  9.0953314e-07  6.3299247e-07  7.0879433e-07  4.0762321e-07  1.1275496e-07  2.9173539e-07  2.4004886e-07
       300   342.21792     -34131.03      -4819.6596      1.8580569      313.19688     -422.20292     -140.40619     -1.0950636e+18 -7.6494563e+17 -1.6905437e+18 -5.7090883e+17 -1.7347668e+18 -6.6222229e+17 -1.8941082e+17 -1.7868269e+17 -7.3685272e+17  9.7491771e-07  6.7654359e-07  9.1943891e-07  6.205036e-07   7.8071031e-07  4.1618806e-07  1.3428075e-07  3.2461181e-07  2.4434396e-07
       400   324.38345     -34116.798      6213.5053      1.8580569      312.86458      159.95765     -140.40729     -1.019389e+18  -8.6724592e+17 -1.3917667e+18 -8.435315e+17  -1.5410905e+18 -5.3134848e+17 -7.7185578e+16 -2.0162652e+17 -5.625335e+17   9.9469359e-07  6.7656077e-07  9.244044e-07   6.552006e-07   8.3362423e-07  4.4331234e-07  1.3226056e-07  3.1466667e-07  2.5219171e-07
       500   289.4967      -34099.352     -1640.469       1.8580569      312.2325       32.285703     -140.39464     -9.661449e+17  -1.000827e+18  -1.2900779e+18 -8.7665493e+17 -1.6540486e+18 -5.6269468e+17  8.5846916e+16 -9.816815e+16  -5.8193996e+17  9.8437758e-07  6.6999614e-07  9.2793626e-07  6.6748729e-07  8.3483977e-07  4.4537413e-07  1.3210673e-07  3.0533135e-07  2.6033629e-07
       600   306.49022     -34122.821     -1847.749       1.8580569      311.76225     -25.001501     -140.39019     -9.2456457e+17 -9.3774125e+17 -1.2041777e+18 -9.6334884e+17 -1.5166769e+18 -5.7751252e+17  9.7193637e+16 -6.0891371e+16 -4.6521852e+17  9.6755765e-07  6.5852553e-07  8.9175909e-07  6.8341316e-07  8.3392124e-07  4.5234834e-07  1.2435619e-07  2.8551717e-07  2.5566513e-07
       700   332.88314     -34124.439     -84.855607      1.8580569      310.95423      155.90972     -140.38843     -1.0707522e+18 -9.7855566e+17 -1.2666331e+18 -8.858691e+17  -1.4572715e+18 -5.8245885e+17  7.0305236e+16 -1.5375298e+16 -4.1905492e+17  9.7199531e-07  6.5092728e-07  8.9570775e-07  6.8484328e-07  8.3511373e-07  4.4815022e-07  1.2098829e-07  2.8568691e-07  2.6232173e-07
       800   296.57576     -34122.102      1973.9714      1.8580569      311.2526       16.830662     -140.38831     -1.1227777e+18 -8.9332694e+17 -1.2055518e+18 -8.7595836e+17 -1.42201e+18   -6.035726e+17   1.2489049e+17 -9.8348744e+15 -3.768424e+17   9.7479915e-07  6.5016508e-07  9.0522516e-07  6.8378994e-07  8.3605962e-07  4.4585906e-07  1.2203836e-07  2.9458069e-07  2.68145e-07  
       900   306.77202     -34110.404     -6624.9862      1.8580569      310.9744      -455.11445     -140.38868     -1.1282732e+18 -8.9875956e+17 -1.1826894e+18 -8.7974558e+17 -1.4027095e+18 -6.0418692e+17  1.0476927e+17 -2.0602365e+16 -3.4794534e+17  9.7716505e-07  6.5124073e-07  8.9830881e-07  6.7798561e-07  8.4175601e-07  4.429729e-07   1.1706842e-07  2.9090427e-07  2.7053014e-07
      1000   282.79811     -34112.546     -4973.4489      1.8580569      309.45745     -883.51264     -140.3901      -1.120418e+18  -9.0671874e+17 -1.1122962e+18 -8.355878e+17  -1.3259748e+18 -6.094448e+17   8.3470668e+16 -4.6674683e+16 -3.596342e+17   1.0003108e-06  6.5682159e-07  9.070036e-07   6.6829549e-07  8.4449584e-07  4.3890488e-07  1.1800143e-07  2.9728891e-07  2.7303926e-07
Loop time of 31.7005 on 64 procs for 1000 steps with 243 atoms

Performance: 1.363 ns/day, 17.611 hours/ns, 31.545 timesteps/s, 7.665 katom-step/s
117.9% CPU use with 8 MPI tasks x 8 OpenMP threads

MPI task timing breakdown:
Section |  min time  |  avg time  |  max time  |%varavg| %total
---------------------------------------------------------------
Pair    | 8.2907     | 8.7107     | 9.0676     |  10.0 | 27.48
Bond    | 0.00010858 | 0.000158   | 0.00017722 |   0.0 |  0.00
Neigh   | 0.90327    | 0.94675    | 0.99972    |   3.8 |  2.99
Comm    | 1.9483     | 2.3032     | 2.7534     |  20.0 |  7.27
Output  | 0.0024169  | 0.0036971  | 0.0050537  |   1.6 |  0.01
Modify  | 19.401     | 19.488     | 19.568     |   1.4 | 61.47
Other   |            | 0.2482     |            |       |  0.78

Nlocal:         30.375 ave          48 max          18 min
Histogram: 4 0 0 0 0 0 2 0 0 2
Nghost:        1901.62 ave        1962 max        1848 min
Histogram: 1 2 0 0 1 1 0 2 0 1
Neighs:        10975.5 ave       16832 max        6724 min
Histogram: 4 0 0 0 0 0 2 0 0 2

Total # of neighbors = 87804
Ave neighs/atom = 361.33333
Ave special neighs/atom = 0
Neighbor list builds = 100
Dangerous builds not checked
Stress sampling interval = 10
Stress sample count = 100
Born sampling interval = 10
Born sample count = 100
Output the tensor to C.log

done!
Total wall time: 0:01:32
n command (src/input.cpp:453)
Last command: print "done!"${C12} ${C13} ${C14} ${C15} ${C16}"     file C.log screen no
