LAMMPS (2 Aug 2023 - Update 2)
OMP_NUM_THREADS environment is not set. Defaulting to 1 thread. (src/comm.cpp:98)
  using 1 OpenMP thread(s) per MPI task
Reading data file ...
  triclinic box = (0 0 0) to (15.1447 13.6088 16.498) with tilt (-7.6974 -0.6366 0.5805)
WARNING: Triclinic box skew is large. LAMMPS will run inefficiently. (src/domain.cpp:220)
  2 by 2 by 2 MPI processor grid
  reading atoms ...
  295 atoms
Finding 1-2 1-3 1-4 neighbors ...
  special bond factors lj:    0        0        0       
  special bond factors coul:  0        0        0       
     0 = max # of 1-2 neighbors
     0 = max # of 1-3 neighbors
     0 = max # of 1-4 neighbors
     1 = max # of special neighbors
  special bonds CPU = 0.001 seconds
  read_data CPU = 0.008 seconds
*****Minimization starts.*****
Setting up cg style minimization ...
  Unit style    : real
  Current step  : 0
WARNING: No pairwise cutoff or binsize set. Atom sorting therefore disabled. (src/atom.cpp:2366)
WARNING: Communication cutoff is 0.0. No ghost atoms will be generated. Atoms may get lost. (src/comm_brick.cpp:210)
Per MPI rank memory allocation (min/avg/max) = 6.364 | 6.364 | 6.365 Mbytes
   Step          Temp          E_pair         E_mol          TotEng         Press     
         0   0              0              0              0              0            
         1   0              0              0              0              0            
Loop time of 8.9711e-05 on 8 procs for 1 steps with 295 atoms

57.5% CPU use with 8 MPI tasks x 1 OpenMP threads

Minimization stats:
  Stopping criterion = search direction is not downhill
  Energy initial, next-to-last, final = 
                     0                  0                  0
  Force two-norm initial, final = 0 0
  Force max component initial, final = 0 0
  Final line search alpha, max atom move = 0 0
  Iterations, force evaluations = 1 0

MPI task timing breakdown:
Section |  min time  |  avg time  |  max time  |%varavg| %total
---------------------------------------------------------------
Pair    | 0          | 0          | 0          |   0.0 |  0.00
Bond    | 1.467e-06  | 1.9817e-06 | 2.933e-06  |   0.0 |  2.21
Neigh   | 0          | 0          | 0          |   0.0 |  0.00
Comm    | 3.144e-06  | 4.4878e-06 | 6.984e-06  |   0.0 |  5.00
Output  | 0          | 0          | 0          |   0.0 |  0.00
Modify  | 0          | 0          | 0          |   0.0 |  0.00
Other   |            | 8.324e-05  |            |       | 92.79

Nlocal:         36.875 ave          42 max          32 min
Histogram: 1 0 1 1 1 0 1 2 0 1
Nghost:              0 ave           0 max           0 min
Histogram: 8 0 0 0 0 0 0 0 0 0
Neighs:              0 ave           0 max           0 min
Histogram: 8 0 0 0 0 0 0 0 0 0

Total # of neighbors = 0
Ave neighs/atom = 0
Ave special neighs/atom = 0
Neighbor list builds = 0
Dangerous builds = 0
System init for write_data ...
WARNING: Communication cutoff is 0.0. No ghost atoms will be generated. Atoms may get lost. (src/comm_brick.cpp:210)

CITE-CITE-CITE-CITE-CITE-CITE-CITE-CITE-CITE-CITE-CITE-CITE-CITE

Your simulation uses code contributions which should be cited:
- pair reaxff command: doi:10.1016/j.parco.2011.08.005
- fix qeq/reaxff command: doi:10.1016/j.parco.2011.08.005
The log file lists these citations in BibTeX format.

CITE-CITE-CITE-CITE-CITE-CITE-CITE-CITE-CITE-CITE-CITE-CITE-CITE

WARNING: Fix qeq/reaxff group is not charge neutral, net charge = -2.46 (src/REAXFF/fix_qeq_reaxff.cpp:392)
Neighbor list info ...
  update: every = 10 steps, delay = 0 steps, check = no
  max neighbors/atom: 2000, page size: 100000
  master list distance cutoff = 12
  ghost atom cutoff = 12
  binsize = 6, bins = 4 3 3
  2 neighbor lists, perpetual/occasional/extra = 2 0 0
  (1) pair reaxff, perpetual
      attributes: half, newton off, ghost
      pair build: half/bin/newtoff/ghost
      stencil: full/ghost/bin/3d
      bin: standard
  (2) fix qeq/reaxff, perpetual, copy from (1)
      attributes: half, newton off
      pair build: copy
      stencil: none
      bin: none
Setting up Verlet run ...
  Unit style    : real
  Current step  : 0
  Time step     : 0.5
Per MPI rank memory allocation (min/avg/max) = 114.8 | 116.5 | 117.9 Mbytes
   Step          Temp          PotEng         Press         Density         Volume    
         0   300           -32892.733      87025.291      1.5382232      3400.2575    
       100   740.37259     -33626.14      -33823.597      1.5382232      3400.2575    
       200   567.4383      -33852.115     -4529.3251      1.5382232      3400.2575    
       300   461.83635     -34028.12       2448.9684      1.5382232      3400.2575    
       400   359.18079     -34111.529     -2691.0087      1.5382232      3400.2575    
       500   301.22629     -34171.196      2387.8803      1.5382232      3400.2575    
       600   269.87512     -34203.754     -13009.585      1.5382232      3400.2575    
       700   284.65305     -34234.731     -14909.832      1.5382232      3400.2575    
       800   306.83036     -34241.553     -11257.411      1.5382232      3400.2575    
       900   324.80647     -34239.528      14487.038      1.5382232      3400.2575    
      1000   332.07424     -34247.255     -5121.1092      1.5382232      3400.2575    
      1100   312.07098     -34256.548     -7146.8617      1.5382232      3400.2575    
      1200   286.25386     -34266.588      2175.4494      1.5382232      3400.2575    
      1300   275.92084     -34276.465     -5326.8192      1.5382232      3400.2575    
      1400   298.64252     -34292.716     -1397.3398      1.5382232      3400.2575    
      1500   291.08003     -34268.313      10184.844      1.5382232      3400.2575    
      1600   307.36752     -34264.847     -10812.629      1.5382232      3400.2575    
      1700   307.63437     -34271.128     -11137.764      1.5382232      3400.2575    
      1800   300.878       -34278.554      6296.0049      1.5382232      3400.2575    
      1900   302.94731     -34281.255      13160.71       1.5382232      3400.2575    
      2000   293.94698     -34262.791     -7039.5938      1.5382232      3400.2575    
      2100   321.97003     -34280.971     -1798.9658      1.5382232      3400.2575    
      2200   299.08076     -34275.367     -5090.1711      1.5382232      3400.2575    
      2300   297.90916     -34292.235     -1375.9419      1.5382232      3400.2575    
      2400   280.83805     -34279.709     -9113.3922      1.5382232      3400.2575    
      2500   298.71556     -34284.987     -9392.4837      1.5382232      3400.2575    
      2600   300.43395     -34270.544     -316.85708      1.5382232      3400.2575    
      2700   317.32389     -34282.751      2014.5986      1.5382232      3400.2575    
      2800   310.27302     -34289.853     -3050.4583      1.5382232      3400.2575    
      2900   278.59382     -34280.059     -14501.257      1.5382232      3400.2575    
      3000   285.25672     -34288.826     -18269.07       1.5382232      3400.2575    
Loop time of 126.235 on 8 procs for 3000 steps with 295 atoms

Performance: 1.027 ns/day, 23.377 hours/ns, 23.765 timesteps/s, 7.011 katom-step/s
98.8% CPU use with 8 MPI tasks x 1 OpenMP threads

MPI task timing breakdown:
Section |  min time  |  avg time  |  max time  |%varavg| %total
---------------------------------------------------------------
Pair    | 71.974     | 91.135     | 105.41     | 144.8 | 72.19
Bond    | 0.0084446  | 0.0087108  | 0.009666   |   0.4 |  0.01
Neigh   | 6.0499     | 7.519      | 8.5893     |  40.7 |  5.96
Comm    | 1.9436     | 16.221     | 35.401     | 343.2 | 12.85
Output  | 0.0015287  | 0.0016801  | 0.0025007  |   0.8 |  0.00
Modify  | 10.207     | 11.284     | 12.739     |  33.3 |  8.94
Other   |            | 0.06599    |            |       |  0.05

Nlocal:         36.875 ave          44 max          31 min
Histogram: 1 0 0 4 1 0 0 0 0 2
Nghost:         2984.5 ave        3023 max        2940 min
Histogram: 1 0 0 2 0 1 1 1 1 1
Neighs:          22477 ave       26502 max       19111 min
Histogram: 1 0 1 3 1 0 0 0 0 2

Total # of neighbors = 179816
Ave neighs/atom = 609.54576
Ave special neighs/atom = 0
Neighbor list builds = 300
Dangerous builds not checked
System init for write_data ...
System init for write_restart ...
OMP_NUM_THREADS environment is not set. Defaulting to 1 thread. (src/comm.cpp:98)
  using 1 OpenMP thread(s) per MPI task
Reading restart file ...
  restart file = 2 Aug 2023, LAMMPS = 2 Aug 2023
  restoring atom style full from restart
  triclinic box = (0 0 0) to (15.1447 13.6088 16.498) with tilt (-7.6974 -0.6366 0.5805)
WARNING: Triclinic box skew is large. LAMMPS will run inefficiently. (src/domain.cpp:220)
  2 by 2 by 2 MPI processor grid
  pair style reaxff stores no restart info
  295 atoms
Finding 1-2 1-3 1-4 neighbors ...
  special bond factors lj:    0        0        0       
  special bond factors coul:  0        0        0       
     0 = max # of 1-2 neighbors
     0 = max # of 1-3 neighbors
     0 = max # of 1-4 neighbors
     1 = max # of special neighbors
  special bonds CPU = 0.000 seconds
  read_restart CPU = 0.003 seconds
*****debug*****
xy = -7.6974000000000000199, deltaxy = 0.076974
xz = -0.63660000000000005471, deltaxz = 0.006366
yz = 0.58050000000000001599, deltayz = -0.005805
*****
*****Negative-deform 1 starts.*****
Resetting global fix info from restart file:
  fix style: nvt, fix ID: fnvt
All restart file global fix info was re-assigned
Neighbor list info ...
  update: every = 10 steps, delay = 0 steps, check = no
  max neighbors/atom: 2000, page size: 100000
  master list distance cutoff = 12
  ghost atom cutoff = 12
  binsize = 6, bins = 4 3 3
  2 neighbor lists, perpetual/occasional/extra = 2 0 0
  (1) pair reaxff, perpetual
      attributes: half, newton off, ghost
      pair build: half/bin/newtoff/ghost
      stencil: full/ghost/bin/3d
      bin: standard
  (2) fix qeq/reaxff, perpetual, copy from (1)
      attributes: half, newton off
      pair build: copy
      stencil: none
      bin: none
Setting up Verlet run ...
  Unit style    : real
  Current step  : 0
  Time step     : 0.5
Per MPI rank memory allocation (min/avg/max) = 114.2 | 116.3 | 117.9 Mbytes
   Step          Temp          PotEng         Press         Density         Volume    
         0   285.25672     -34288.826     -18269.057      1.5382232      3400.2575    
       100   298.75843     -34284.43      -15618.746      1.5387361      3399.1241    
       200   305.93199     -34278.556      6775.6356      1.5392494      3397.9906    
       300   291.71875     -34268.642     -4089.5756      1.539763       3396.8572    
       400   314.67967     -34303.253      1608.1442      1.5402769      3395.7238    
       500   297.63075     -34305.818      718.15887      1.5407912      3394.5904    
       600   275.53533     -34297.596     -549.11424      1.5413058      3393.457     
       700   287.21644     -34295.431      5674.0382      1.5418208      3392.3236    
       800   319.96511     -34298.213     -2473.4544      1.5423361      3391.1901    
       900   317.80692     -34286.254     -8038.4919      1.5428517      3390.0567    
      1000   310.14163     -34287.426     -4052.1779      1.5433678      3388.9233    
      1100   298.90753     -34297.454     -7913.4679      1.5438841      3387.7899    
      1200   289.87309     -34303.924     -6937.991       1.5444008      3386.6565    
      1300   280.58984     -34293.092     -11156.958      1.5449178      3385.523     
      1400   292.97398     -34285.206     -5608.8956      1.5454352      3384.3896    
      1500   309.69214     -34277.987     -13988.507      1.545953       3383.2562    
      1600   291.9329      -34261.854     -6649.825       1.546471       3382.1228    
      1700   310.66633     -34278.154     -1384.4264      1.5469895      3380.9894    
      1800   290.38501     -34290.408      11811.668      1.5475082      3379.8559    
      1900   295.2083      -34315.391      3599.7555      1.5480274      3378.7225    
      2000   303.86521     -34326.712     -1893.3922      1.5485468      3377.5891    
      2100   297.81272     -34306.761     -8251.0006      1.5490667      3376.4557    
      2200   327.51279     -34306.677     -1925.5281      1.5495868      3375.3223    
      2300   311.58224     -34300.556     -1772.5582      1.5501073      3374.1888    
      2400   302.60752     -34307.18      -4688.8944      1.5506282      3373.0554    
      2500   312.54735     -34320.717      9448.2911      1.5511494      3371.922     
      2600   288.51484     -34305.594     -395.81923      1.551671       3370.7886    
      2700   299.69841     -34322.718     -3949.9084      1.5521929      3369.6552    
      2800   287.87104     -34317.901     -8355.3122      1.5527152      3368.5218    
      2900   290.44326     -34305.637     -255.86937      1.5532378      3367.3883    
      3000   301.72829     -34290.495     -10078.04       1.5537608      3366.2549    
Loop time of 129.121 on 8 procs for 3000 steps with 295 atoms

Performance: 1.004 ns/day, 23.911 hours/ns, 23.234 timesteps/s, 6.854 katom-step/s
98.9% CPU use with 8 MPI tasks x 1 OpenMP threads

MPI task timing breakdown:
Section |  min time  |  avg time  |  max time  |%varavg| %total
---------------------------------------------------------------
Pair    | 72.901     | 97.75      | 107.48     | 131.7 | 75.70
Bond    | 0.0087937  | 0.0091257  | 0.009545   |   0.2 |  0.01
Neigh   | 6.0979     | 7.9326     | 8.7671     |  36.7 |  6.14
Comm    | 2.3244     | 12.047     | 36.914     | 375.3 |  9.33
Output  | 0.0073841  | 0.0085781  | 0.0095412  |   0.8 |  0.01
Modify  | 10.481     | 11.3       | 13.124     |  30.7 |  8.75
Other   |            | 0.07413    |            |       |  0.06

Nlocal:         36.875 ave          45 max          28 min
Histogram: 1 0 1 0 0 4 1 0 0 1
Nghost:        2977.88 ave        3008 max        2943 min
Histogram: 1 1 1 0 0 1 1 0 2 1
Neighs:        22681.4 ave       27333 max       17422 min
Histogram: 1 0 1 0 0 3 2 0 0 1

Total # of neighbors = 181451
Ave neighs/atom = 615.08814
Ave special neighs/atom = 0
Neighbor list builds = 300
Dangerous builds not checked
OMP_NUM_THREADS environment is not set. Defaulting to 1 thread. (src/comm.cpp:98)
  using 1 OpenMP thread(s) per MPI task
Reading restart file ...
  restart file = 2 Aug 2023, LAMMPS = 2 Aug 2023
  restoring atom style full from restart
  triclinic box = (0 0 0) to (15.1447 13.6088 16.498) with tilt (-7.6974 -0.6366 0.5805)
WARNING: Triclinic box skew is large. LAMMPS will run inefficiently. (src/domain.cpp:220)
  2 by 2 by 2 MPI processor grid
  pair style reaxff stores no restart info
  295 atoms
Finding 1-2 1-3 1-4 neighbors ...
  special bond factors lj:    0        0        0       
  special bond factors coul:  0        0        0       
     0 = max # of 1-2 neighbors
     0 = max # of 1-3 neighbors
     0 = max # of 1-4 neighbors
     1 = max # of special neighbors
  special bonds CPU = 0.000 seconds
  read_restart CPU = 0.003 seconds
*****Positive-deform 1 starts.*****
Resetting global fix info from restart file:
  fix style: nvt, fix ID: fnvt
All restart file global fix info was re-assigned
Neighbor list info ...
  update: every = 10 steps, delay = 0 steps, check = no
  max neighbors/atom: 2000, page size: 100000
  master list distance cutoff = 12
  ghost atom cutoff = 12
  binsize = 6, bins = 4 3 3
  2 neighbor lists, perpetual/occasional/extra = 2 0 0
  (1) pair reaxff, perpetual
      attributes: half, newton off, ghost
      pair build: half/bin/newtoff/ghost
      stencil: full/ghost/bin/3d
      bin: standard
  (2) fix qeq/reaxff, perpetual, copy from (1)
      attributes: half, newton off
      pair build: copy
      stencil: none
      bin: none
Setting up Verlet run ...
  Unit style    : real
  Current step  : 0
  Time step     : 0.5
Per MPI rank memory allocation (min/avg/max) = 114.2 | 116.3 | 117.9 Mbytes
   Step          Temp          PotEng         Press         Density         Volume    
         0   285.25672     -34288.826     -18269.057      1.5382232      3400.2575    
       100   298.72703     -34284.398     -15600.328      1.5377106      3401.3909    
       200   305.98122     -34278.165      6469.4175      1.5371984      3402.5243    
       300   295.97096     -34272.101     -1578.8926      1.5366865      3403.6577    
       400   308.96425     -34295.952      3824.4072      1.536175       3404.7912    
       500   297.48988     -34307.319     -2651.3815      1.5356638      3405.9246    
       600   280.30613     -34307.189     -8168.7068      1.5351529      3407.058     
       700   273.10153     -34284.992     -9546.7819      1.5346424      3408.1914    
       800   330.70974     -34303.189     -21875.656      1.5341322      3409.3248    
       900   316.40079     -34282.441     -7609.1249      1.5336223      3410.4583    
      1000   307.13633     -34284.992     -7960.3155      1.5331128      3411.5917    
      1100   300.13866     -34300.492      1920.6905      1.5326036      3412.7251    
      1200   294.54617     -34307.27       4714.2327      1.5320948      3413.8585    
      1300   276.06521     -34285.513      348.84638      1.5315863      3414.9919    
      1400   303.98403     -34286.194     -1936.7017      1.5310782      3416.1254    
      1500   300.45892     -34270.541     -15370.148      1.5305703      3417.2588    
      1600   313.85455     -34288.125     -6842.1201      1.5300629      3418.3922    
      1700   289.71142     -34298.69       9743.1877      1.5295557      3419.5256    
      1800   274.15194     -34297.018     -1838.6221      1.5290489      3420.659     
      1900   277.92777     -34287.496     -11703.573      1.5285424      3421.7925    
      2000   289.00181     -34281.626      3507.5169      1.5280363      3422.9259    
      2100   300.62372     -34281.804     -2711.852       1.5275305      3424.0593    
      2200   296.9684      -34282.066      4158.4641      1.527025       3425.1927    
      2300   274.22706     -34289.682     -7101.282       1.5265199      3426.3261    
      2400   283.6406      -34322.378     -9456.6355      1.5260151      3427.4595    
      2500   304.38664     -34324.389     -2087.9262      1.5255106      3428.593     
      2600   306.03274     -34304.449     -8966.1789      1.5250065      3429.7264    
      2700   298.04348     -34291.237     -6594.2015      1.5245027      3430.8598    
      2800   308.21752     -34308.241     -12843.489      1.5239992      3431.9932    
      2900   299.39691     -34332.126      3543.3547      1.5234961      3433.1266    
      3000   288.45717     -34332.571      3593.9538      1.5229933      3434.2601    
Loop time of 128.526 on 8 procs for 3000 steps with 295 atoms

Performance: 1.008 ns/day, 23.801 hours/ns, 23.342 timesteps/s, 6.886 katom-step/s
98.8% CPU use with 8 MPI tasks x 1 OpenMP threads

MPI task timing breakdown:
Section |  min time  |  avg time  |  max time  |%varavg| %total
---------------------------------------------------------------
Pair    | 73.687     | 98.562     | 107.54     | 115.5 | 76.69
Bond    | 0.0084961  | 0.0091336  | 0.0099847  |   0.5 |  0.01
Neigh   | 6.0433     | 8.0348     | 8.6577     |  31.9 |  6.25
Comm    | 1.8235     | 10.827     | 35.709     | 348.6 |  8.42
Output  | 0.0081527  | 0.0093079  | 0.010228   |   0.8 |  0.01
Modify  | 10.372     | 11.009     | 12.999     |  27.1 |  8.57
Other   |            | 0.07421    |            |       |  0.06

Nlocal:         36.875 ave          43 max          25 min
Histogram: 1 0 0 0 0 2 0 3 0 2
Nghost:        2965.88 ave        3008 max        2932 min
Histogram: 1 1 0 2 2 0 0 0 1 1
Neighs:        22243.6 ave       25760 max       15333 min
Histogram: 1 0 0 0 1 1 0 3 0 2

Total # of neighbors = 177949
Ave neighs/atom = 603.21695
Ave special neighs/atom = 0
Neighbor list builds = 300
Dangerous builds not checked
OMP_NUM_THREADS environment is not set. Defaulting to 1 thread. (src/comm.cpp:98)
  using 1 OpenMP thread(s) per MPI task
Reading restart file ...
  restart file = 2 Aug 2023, LAMMPS = 2 Aug 2023
  restoring atom style full from restart
  triclinic box = (0 0 0) to (15.1447 13.6088 16.498) with tilt (-7.6974 -0.6366 0.5805)
WARNING: Triclinic box skew is large. LAMMPS will run inefficiently. (src/domain.cpp:220)
  2 by 2 by 2 MPI processor grid
  pair style reaxff stores no restart info
  295 atoms
Finding 1-2 1-3 1-4 neighbors ...
  special bond factors lj:    0        0        0       
  special bond factors coul:  0        0        0       
     0 = max # of 1-2 neighbors
     0 = max # of 1-3 neighbors
     0 = max # of 1-4 neighbors
     1 = max # of special neighbors
  special bonds CPU = 0.000 seconds
  read_restart CPU = 0.003 seconds
*****debug*****
xy = -7.6974000000000000199, deltaxy = 0.076974
xz = -0.63660000000000005471, deltaxz = 0.006366
yz = 0.58050000000000001599, deltayz = -0.005805
*****
*****Negative-deform 2 starts.*****
Resetting global fix info from restart file:
  fix style: nvt, fix ID: fnvt
All restart file global fix info was re-assigned
Neighbor list info ...
  update: every = 10 steps, delay = 0 steps, check = no
  max neighbors/atom: 2000, page size: 100000
  master list distance cutoff = 12
  ghost atom cutoff = 12
  binsize = 6, bins = 4 3 3
  2 neighbor lists, perpetual/occasional/extra = 2 0 0
  (1) pair reaxff, perpetual
      attributes: half, newton off, ghost
      pair build: half/bin/newtoff/ghost
      stencil: full/ghost/bin/3d
      bin: standard
  (2) fix qeq/reaxff, perpetual, copy from (1)
      attributes: half, newton off
      pair build: copy
      stencil: none
      bin: none
Setting up Verlet run ...
  Unit style    : real
  Current step  : 0
  Time step     : 0.5
Per MPI rank memory allocation (min/avg/max) = 114.2 | 116.3 | 117.9 Mbytes
   Step          Temp          PotEng         Press         Density         Volume    
         0   285.25672     -34288.826     -18269.057      1.5382232      3400.2575    
       100   298.75276     -34284.386     -15605.305      1.5387361      3399.1241    
       200   306.28687     -34278.852      7170.6259      1.5392494      3397.9906    
       300   289.63986     -34266.197     -2226.4433      1.539763       3396.8572    
       400   315.27254     -34303.302      7523.8043      1.5402769      3395.7238    
       500   293.789       -34302.243     -572.07504      1.5407912      3394.5904    
       600   280.08756     -34305.945      3423.686       1.5413058      3393.457     
       700   290.90407     -34299.772     -6248.1957      1.5418208      3392.3236    
       800   328.58919     -34305.206      1173.0587      1.5423361      3391.1901    
       900   332.68505     -34300.669     -4495.2191      1.5428517      3390.0567    
      1000   286.35015     -34267.096      147.31281      1.5433678      3388.9233    
      1100   291.18285     -34281.071     -2755.7703      1.5438841      3387.7899    
      1200   295.11181     -34296.701     -7139.2545      1.5444008      3386.6565    
      1300   291.00783     -34304.208     -4317.2302      1.5449178      3385.523     
      1400   296.26719     -34299.515      1727.0529      1.5454352      3384.3896    
      1500   290.76893     -34272.069     -3319.4527      1.545953       3383.2562    
      1600   303.25729     -34270.916     -1964.5449      1.546471       3382.1228    
      1700   297.40869     -34272.613     -15220.22       1.5469895      3380.9894    
      1800   274.64013     -34282.315      1522.7927      1.5475082      3379.8559    
      1900   288.34568     -34303.656      518.42017      1.5480274      3378.7225    
      2000   314.67327     -34317.728     -5944.7095      1.5485468      3377.5891    
      2100   309.89706     -34302.464     -2484.3689      1.5490667      3376.4557    
      2200   320.73726     -34302.425     -17673.692      1.5495868      3375.3223    
      2300   300.15854     -34302.502     -1220.9044      1.5501073      3374.1888    
      2400   289.05628     -34320.132      19.436034      1.5506282      3373.0554    
      2500   282.42616     -34313.299     -5501.4545      1.5511494      3371.922     
      2600   292.9452      -34301.799     -5648.8679      1.551671       3370.7886    
      2700   300.74742     -34296.213     -3439.9835      1.5521929      3369.6552    
      2800   305.61775     -34300.282      1574.143       1.5527152      3368.5218    
      2900   305.01516     -34306.48      -1180.0536      1.5532378      3367.3883    
      3000   299.19808     -34311.351      5153.8849      1.5537608      3366.2549    
Loop time of 128.824 on 8 procs for 3000 steps with 295 atoms

Performance: 1.006 ns/day, 23.856 hours/ns, 23.288 timesteps/s, 6.870 katom-step/s
98.8% CPU use with 8 MPI tasks x 1 OpenMP threads

MPI task timing breakdown:
Section |  min time  |  avg time  |  max time  |%varavg| %total
---------------------------------------------------------------
Pair    | 76.695     | 102.13     | 107.69     |  96.8 | 79.28
Bond    | 0.0087032  | 0.0092146  | 0.0095803  |   0.3 |  0.01
Neigh   | 6.1955     | 8.331      | 8.825      |  28.2 |  6.47
Comm    | 1.8141     | 7.3626     | 32.801     | 360.7 |  5.72
Output  | 0.0080395  | 0.0092438  | 0.010223   |   0.8 |  0.01
Modify  | 10.44      | 10.911     | 13.046     |  24.6 |  8.47
Other   |            | 0.07564    |            |       |  0.06

Nlocal:         36.875 ave          43 max          30 min
Histogram: 2 0 0 0 1 0 3 1 0 1
Nghost:        3013.88 ave        3049 max        2977 min
Histogram: 1 1 0 1 1 0 2 0 1 1
Neighs:        22688.9 ave       26265 max       18615 min
Histogram: 2 0 0 0 1 0 2 2 0 1

Total # of neighbors = 181511
Ave neighs/atom = 615.29153
Ave special neighs/atom = 0
Neighbor list builds = 300
Dangerous builds not checked
OMP_NUM_THREADS environment is not set. Defaulting to 1 thread. (src/comm.cpp:98)
  using 1 OpenMP thread(s) per MPI task
Reading restart file ...
  restart file = 2 Aug 2023, LAMMPS = 2 Aug 2023
  restoring atom style full from restart
  triclinic box = (0 0 0) to (15.1447 13.6088 16.498) with tilt (-7.6974 -0.6366 0.5805)
WARNING: Triclinic box skew is large. LAMMPS will run inefficiently. (src/domain.cpp:220)
  2 by 2 by 2 MPI processor grid
  pair style reaxff stores no restart info
  295 atoms
Finding 1-2 1-3 1-4 neighbors ...
  special bond factors lj:    0        0        0       
  special bond factors coul:  0        0        0       
     0 = max # of 1-2 neighbors
     0 = max # of 1-3 neighbors
     0 = max # of 1-4 neighbors
     1 = max # of special neighbors
  special bonds CPU = 0.000 seconds
  read_restart CPU = 0.003 seconds
*****Positive-deform 2 starts.*****
Resetting global fix info from restart file:
  fix style: nvt, fix ID: fnvt
All restart file global fix info was re-assigned
Neighbor list info ...
  update: every = 10 steps, delay = 0 steps, check = no
  max neighbors/atom: 2000, page size: 100000
  master list distance cutoff = 12
  ghost atom cutoff = 12
  binsize = 6, bins = 4 3 3
  2 neighbor lists, perpetual/occasional/extra = 2 0 0
  (1) pair reaxff, perpetual
      attributes: half, newton off, ghost
      pair build: half/bin/newtoff/ghost
      stencil: full/ghost/bin/3d
      bin: standard
  (2) fix qeq/reaxff, perpetual, copy from (1)
      attributes: half, newton off
      pair build: copy
      stencil: none
      bin: none
Setting up Verlet run ...
  Unit style    : real
  Current step  : 0
  Time step     : 0.5
Per MPI rank memory allocation (min/avg/max) = 114.2 | 116.3 | 117.9 Mbytes
   Step          Temp          PotEng         Press         Density         Volume    
         0   285.25672     -34288.826     -18269.057      1.5382232      3400.2575    
       100   298.72974     -34284.439     -15614.002      1.5377106      3401.3909    
       200   305.92059     -34277.742      6115.1098      1.5371984      3402.5243    
       300   292.15166     -34268.604     -3235.585       1.5366865      3403.6577    
       400   315.20649     -34301.829      11476.398      1.536175       3404.7912    
       500   298.23016     -34307.612      195.66956      1.5356638      3405.9246    
       600   287.80455     -34317.225     -2495.9146      1.5351529      3407.058     
       700   269.42362     -34291.449     -14445.153      1.5346424      3408.1914    
       800   308.90123     -34296.216     -11784.117      1.5341322      3409.3248    
       900   315.0584      -34286.923     -15841.078      1.5336223      3410.4583    
      1000   307.33727     -34276.422     -9507.2305      1.5331128      3411.5917    
      1100   299.59436     -34281.971     -17901.734      1.5326036      3412.7251    
      1200   304.73013     -34300.059     -17503.938      1.5320948      3413.8585    
      1300   304.92095     -34312.872      5160.376       1.5315863      3414.9919    
      1400   307.20779     -34306.929     -1800.4265      1.5310782      3416.1254    
      1500   301.56704     -34281.134     -5726.077       1.5305703      3417.2588    
      1600   318.08018     -34282.15      -9765.1335      1.5300629      3418.3922    
      1700   312.59202     -34296.457     -12343.128      1.5295557      3419.5256    
      1800   296.49398     -34308.17      -6104.7897      1.5290489      3420.659     
      1900   276.94343     -34286.447     -2682.7006      1.5285424      3421.7925    
      2000   299.97462     -34296.324     -4882.1345      1.5280363      3422.9259    
      2100   303.34348     -34279.953      8399.4827      1.5275305      3424.0593    
      2200   321.47483     -34277.708     -1000.9758      1.527025       3425.1927    
      2300   292.50265     -34276.47      -4472.7215      1.5265199      3426.3261    
      2400   286.70345     -34291.326      10018.446      1.5260151      3427.4595    
      2500   302.76022     -34308.537     -15794.649      1.5255106      3428.593     
      2600   294.82856     -34303.663     -12695.786      1.5250065      3429.7264    
      2700   294.89987     -34293.633      4613.5531      1.5245027      3430.8598    
      2800   306.57672     -34279.088     -12807.477      1.5239992      3431.9932    
      2900   322.54361     -34275.532      4267.2002      1.5234961      3433.1266    
      3000   308.52561     -34276.473     -11994.105      1.5229933      3434.2601    
Loop time of 128.077 on 8 procs for 3000 steps with 295 atoms

Performance: 1.012 ns/day, 23.718 hours/ns, 23.423 timesteps/s, 6.910 katom-step/s
98.9% CPU use with 8 MPI tasks x 1 OpenMP threads

MPI task timing breakdown:
Section |  min time  |  avg time  |  max time  |%varavg| %total
---------------------------------------------------------------
Pair    | 73.22      | 99.005     | 107.45     | 110.6 | 77.30
Bond    | 0.0085952  | 0.0092502  | 0.0098051  |   0.5 |  0.01
Neigh   | 6.0639     | 8.0923     | 8.6712     |  29.4 |  6.32
Comm    | 1.5425     | 10.015     | 35.807     | 347.8 |  7.82
Output  | 0.0094578  | 0.010914   | 0.012171   |   0.9 |  0.01
Modify  | 10.288     | 10.871     | 12.898     |  25.5 |  8.49
Other   |            | 0.07383    |            |       |  0.06

Nlocal:         36.875 ave          42 max          27 min
Histogram: 1 0 0 0 2 0 1 0 1 3
Nghost:        2970.88 ave        3003 max        2940 min
Histogram: 2 0 1 1 0 0 1 1 0 2
Neighs:        22247.8 ave       25321 max       16469 min
Histogram: 1 0 0 1 1 0 1 1 0 3

Total # of neighbors = 177982
Ave neighs/atom = 603.32881
Ave special neighs/atom = 0
Neighbor list builds = 300
Dangerous builds not checked
OMP_NUM_THREADS environment is not set. Defaulting to 1 thread. (src/comm.cpp:98)
  using 1 OpenMP thread(s) per MPI task
Reading restart file ...
  restart file = 2 Aug 2023, LAMMPS = 2 Aug 2023
  restoring atom style full from restart
  triclinic box = (0 0 0) to (15.1447 13.6088 16.498) with tilt (-7.6974 -0.6366 0.5805)
WARNING: Triclinic box skew is large. LAMMPS will run inefficiently. (src/domain.cpp:220)
  2 by 2 by 2 MPI processor grid
  pair style reaxff stores no restart info
  295 atoms
Finding 1-2 1-3 1-4 neighbors ...
  special bond factors lj:    0        0        0       
  special bond factors coul:  0        0        0       
     0 = max # of 1-2 neighbors
     0 = max # of 1-3 neighbors
     0 = max # of 1-4 neighbors
     1 = max # of special neighbors
  special bonds CPU = 0.000 seconds
  read_restart CPU = 0.003 seconds
*****debug*****
xy = -7.6974000000000000199, deltaxy = 0.076974
xz = -0.63660000000000005471, deltaxz = 0.006366
yz = 0.58050000000000001599, deltayz = -0.005805
*****
*****Negative-deform 3 starts.*****
Resetting global fix info from restart file:
  fix style: nvt, fix ID: fnvt
All restart file global fix info was re-assigned
Neighbor list info ...
  update: every = 10 steps, delay = 0 steps, check = no
  max neighbors/atom: 2000, page size: 100000
  master list distance cutoff = 12
  ghost atom cutoff = 12
  binsize = 6, bins = 4 3 3
  2 neighbor lists, perpetual/occasional/extra = 2 0 0
  (1) pair reaxff, perpetual
      attributes: half, newton off, ghost
      pair build: half/bin/newtoff/ghost
      stencil: full/ghost/bin/3d
      bin: standard
  (2) fix qeq/reaxff, perpetual, copy from (1)
      attributes: half, newton off
      pair build: copy
      stencil: none
      bin: none
Setting up Verlet run ...
  Unit style    : real
  Current step  : 0
  Time step     : 0.5
Per MPI rank memory allocation (min/avg/max) = 114.2 | 116.3 | 117.9 Mbytes
   Step          Temp          PotEng         Press         Density         Volume    
         0   285.25672     -34288.826     -18269.057      1.5382232      3400.2575    
       100   298.76307     -34284.41      -15609.334      1.5387361      3399.1241    
       200   305.42639     -34278.085      7865.931       1.5392494      3397.9906    
       300   295.2573      -34271.307     -4963.0359      1.539763       3396.8572    
       400   309.08658     -34296.986      11215.497      1.5402769      3395.7238    
       500   295.19796     -34301.066      82.034848      1.5407912      3394.5904    
       600   280.67037     -34299.121      3032.5086      1.5413058      3393.457     
       700   282.76716     -34287.879     -5752.0835      1.5418208      3392.3236    
       800   315.55704     -34291.984     -11757.429      1.5423361      3391.1901    
       900   307.07606     -34275.005     -3387.677       1.5428517      3390.0567    
      1000   292.28207     -34269.208     -6219.1916      1.5433678      3388.9233    
      1100   305.97944     -34299.921      11224.716      1.5438841      3387.7899    
      1200   271.67738     -34284.443      4637.1779      1.5444008      3386.6565    
      1300   275.59118     -34286.047     -11021.288      1.5449178      3385.523     
      1400   288.69758     -34279.767     -6351.3034      1.5454352      3384.3896    
      1500   310.81722     -34278.086     -14017.935      1.545953       3383.2562    
      1600   324.88197     -34284.231      9695.0036      1.546471       3382.1228    
      1700   316.61779     -34304.707     -6665.4669      1.5469895      3380.9894    
      1800   269.14004     -34287.266      4507.9158      1.5475082      3379.8559    
      1900   293.28181     -34295.174      4568.905       1.5480274      3378.7225    
      2000   335.27933     -34313.949      3664.627       1.5485468      3377.5891    
      2100   313.28639     -34299.276      5847.5138      1.5490667      3376.4557    
      2200   293.80004     -34311.987      12697.707      1.5495868      3375.3223    
      2300   293.04052     -34326.993     -2982.1691      1.5501073      3374.1888    
      2400   290.33866     -34317.337     -11859.031      1.5506282      3373.0554    
      2500   297.33108     -34306.494     -5997.9763      1.5511494      3371.922     
      2600   324.33923     -34320.553     -4706.8633      1.551671       3370.7886    
      2700   290.51948     -34319.847     -4768.7625      1.5521929      3369.6552    
      2800   282.41514     -34332.326     -2717.9788      1.5527152      3368.5218    
      2900   290.63424     -34337.369      1867.4702      1.5532378      3367.3883    
      3000   293.8234      -34317.779      6784.5713      1.5537608      3366.2549    
Loop time of 129.302 on 8 procs for 3000 steps with 295 atoms

Performance: 1.002 ns/day, 23.945 hours/ns, 23.202 timesteps/s, 6.844 katom-step/s
98.8% CPU use with 8 MPI tasks x 1 OpenMP threads

MPI task timing breakdown:
Section |  min time  |  avg time  |  max time  |%varavg| %total
---------------------------------------------------------------
Pair    | 76.794     | 101.76     | 108.38     |  95.8 | 78.70
Bond    | 0.008798   | 0.0092418  | 0.010547   |   0.6 |  0.01
Neigh   | 6.1764     | 8.2563     | 8.792      |  27.8 |  6.39
Comm    | 1.5995     | 8.2403     | 33.207     | 336.6 |  6.37
Output  | 0.0093453  | 0.010878   | 0.012116   |   0.9 |  0.01
Modify  | 10.435     | 10.951     | 13.035     |  24.2 |  8.47
Other   |            | 0.07405    |            |       |  0.06

Nlocal:         36.875 ave          43 max          28 min
Histogram: 1 0 0 0 2 1 1 1 0 2
Nghost:        2999.25 ave        3045 max        2941 min
Histogram: 1 1 0 0 0 3 1 0 0 2
Neighs:        22702.5 ave       26176 max       17483 min
Histogram: 1 0 0 0 2 1 1 1 0 2

Total # of neighbors = 181620
Ave neighs/atom = 615.66102
Ave special neighs/atom = 0
Neighbor list builds = 300
Dangerous builds not checked
OMP_NUM_THREADS environment is not set. Defaulting to 1 thread. (src/comm.cpp:98)
  using 1 OpenMP thread(s) per MPI task
Reading restart file ...
  restart file = 2 Aug 2023, LAMMPS = 2 Aug 2023
  restoring atom style full from restart
  triclinic box = (0 0 0) to (15.1447 13.6088 16.498) with tilt (-7.6974 -0.6366 0.5805)
WARNING: Triclinic box skew is large. LAMMPS will run inefficiently. (src/domain.cpp:220)
  2 by 2 by 2 MPI processor grid
  pair style reaxff stores no restart info
  295 atoms
Finding 1-2 1-3 1-4 neighbors ...
  special bond factors lj:    0        0        0       
  special bond factors coul:  0        0        0       
     0 = max # of 1-2 neighbors
     0 = max # of 1-3 neighbors
     0 = max # of 1-4 neighbors
     1 = max # of special neighbors
  special bonds CPU = 0.000 seconds
  read_restart CPU = 0.003 seconds
*****Positive-deform 3 starts.*****
Resetting global fix info from restart file:
  fix style: nvt, fix ID: fnvt
All restart file global fix info was re-assigned
Neighbor list info ...
  update: every = 10 steps, delay = 0 steps, check = no
  max neighbors/atom: 2000, page size: 100000
  master list distance cutoff = 12
  ghost atom cutoff = 12
  binsize = 6, bins = 4 3 3
  2 neighbor lists, perpetual/occasional/extra = 2 0 0
  (1) pair reaxff, perpetual
      attributes: half, newton off, ghost
      pair build: half/bin/newtoff/ghost
      stencil: full/ghost/bin/3d
      bin: standard
  (2) fix qeq/reaxff, perpetual, copy from (1)
      attributes: half, newton off
      pair build: copy
      stencil: none
      bin: none
Setting up Verlet run ...
  Unit style    : real
  Current step  : 0
  Time step     : 0.5
Per MPI rank memory allocation (min/avg/max) = 114.2 | 116.3 | 117.9 Mbytes
   Step          Temp          PotEng         Press         Density         Volume    
         0   285.25672     -34288.826     -18269.057      1.5382232      3400.2575    
       100   298.72619     -34284.411     -15610.209      1.5377106      3401.3909    
       200   306.40493     -34278.049      5040.9083      1.5371984      3402.5243    
       300   299.16386     -34274.92      -3199.0245      1.5366865      3403.6577    
       400   309.73458     -34297.006      6277.7892      1.536175       3404.7912    
       500   298.45426     -34307.736     -409.96545      1.5356638      3405.9246    
       600   269.61697     -34300.407     -7955.5223      1.5351529      3407.058     
       700   284.47527     -34301.262     -5819.5802      1.5346424      3408.1914    
       800   286.07199     -34275.181     -3310.8677      1.5341322      3409.3248    
       900   318.27177     -34284.681     -7812.9483      1.5336223      3410.4583    
      1000   315.60833     -34284.904     -5641.1769      1.5331128      3411.5917    
      1100   286.04061     -34282.491     -7158.4718      1.5326036      3412.7251    
      1200   296.25931     -34306.977     -6550.9819      1.5320948      3413.8585    
      1300   304.45999     -34312.486      539.06966      1.5315863      3414.9919    
      1400   292.02377     -34289.214     -701.532        1.5310782      3416.1254    
      1500   288.82253     -34265.962     -8874.83        1.5305703      3417.2588    
      1600   301.67876     -34273.225     -5269.563       1.5300629      3418.3922    
      1700   288.5175      -34291.725     -2203.2468      1.5295557      3419.5256    
      1800   269.55223     -34294.98       1537.4152      1.5290489      3420.659     
      1900   299.30338     -34307.813     -6213.707       1.5285424      3421.7925    
      2000   278.47668     -34272.139     -518.02393      1.5280363      3422.9259    
      2100   294.41269     -34281.742      4111.6182      1.5275305      3424.0593    
      2200   304.25225     -34297.079      7495.3548      1.527025       3425.1927    
      2300   267.76736     -34297.938     -7690.8678      1.5265199      3426.3261    
      2400   280.67916     -34309.122     -2208.5289      1.5260151      3427.4595    
      2500   294.96709     -34296.567     -221.38412      1.5255106      3428.593     
      2600   312.94683     -34299.44      -2132.4794      1.5250065      3429.7264    
      2700   292.65184     -34289.646     -2229.1307      1.5245027      3430.8598    
      2800   298.7121      -34304.031     -9804.8098      1.5239992      3431.9932    
      2900   284.18191     -34302.943     -19464.582      1.5234961      3433.1266    
      3000   290.4261      -34328.596      973.69796      1.5229933      3434.2601    
Loop time of 127.177 on 8 procs for 3000 steps with 295 atoms

Performance: 1.019 ns/day, 23.551 hours/ns, 23.589 timesteps/s, 6.959 katom-step/s
98.8% CPU use with 8 MPI tasks x 1 OpenMP threads

MPI task timing breakdown:
Section |  min time  |  avg time  |  max time  |%varavg| %total
---------------------------------------------------------------
Pair    | 74.773     | 100.3      | 105.98     |  97.6 | 78.87
Bond    | 0.0087227  | 0.0093117  | 0.010712   |   0.6 |  0.01
Neigh   | 6.0922     | 8.1898     | 8.7485     |  28.1 |  6.44
Comm    | 2.14       | 7.8518     | 33.387     | 348.9 |  6.17
Output  | 0.0088625  | 0.01025    | 0.011402   |   0.9 |  0.01
Modify  | 10.206     | 10.742     | 12.836     |  24.4 |  8.45
Other   |            | 0.07488    |            |       |  0.06

Nlocal:         36.875 ave          44 max          30 min
Histogram: 1 0 2 0 0 2 2 0 0 1
Nghost:         2977.5 ave        2995 max        2963 min
Histogram: 2 0 0 1 1 2 1 0 0 1
Neighs:          22257 ave       26332 max       18239 min
Histogram: 1 0 2 0 0 2 2 0 0 1

Total # of neighbors = 178056
Ave neighs/atom = 603.57966
Ave special neighs/atom = 0
Neighbor list builds = 300
Dangerous builds not checked
OMP_NUM_THREADS environment is not set. Defaulting to 1 thread. (src/comm.cpp:98)
  using 1 OpenMP thread(s) per MPI task
Reading restart file ...
  restart file = 2 Aug 2023, LAMMPS = 2 Aug 2023
  restoring atom style full from restart
  triclinic box = (0 0 0) to (15.1447 13.6088 16.498) with tilt (-7.6974 -0.6366 0.5805)
WARNING: Triclinic box skew is large. LAMMPS will run inefficiently. (src/domain.cpp:220)
  2 by 2 by 2 MPI processor grid
  pair style reaxff stores no restart info
  295 atoms
Finding 1-2 1-3 1-4 neighbors ...
  special bond factors lj:    0        0        0       
  special bond factors coul:  0        0        0       
     0 = max # of 1-2 neighbors
     0 = max # of 1-3 neighbors
     0 = max # of 1-4 neighbors
     1 = max # of special neighbors
  special bonds CPU = 0.000 seconds
  read_restart CPU = 0.003 seconds
*****debug*****
xy = -7.6974000000000000199, deltaxy = 0.076974
xz = -0.63660000000000005471, deltaxz = 0.006366
yz = 0.58050000000000001599, deltayz = -0.005805
*****
*****Negative-deform 4 starts.*****
Resetting global fix info from restart file:
  fix style: nvt, fix ID: fnvt
All restart file global fix info was re-assigned
Neighbor list info ...
  update: every = 10 steps, delay = 0 steps, check = no
  max neighbors/atom: 2000, page size: 100000
  master list distance cutoff = 12
  ghost atom cutoff = 12
  binsize = 6, bins = 4 3 3
  2 neighbor lists, perpetual/occasional/extra = 2 0 0
  (1) pair reaxff, perpetual
      attributes: half, newton off, ghost
      pair build: half/bin/newtoff/ghost
      stencil: full/ghost/bin/3d
      bin: standard
  (2) fix qeq/reaxff, perpetual, copy from (1)
      attributes: half, newton off
      pair build: copy
      stencil: none
      bin: none
Setting up Verlet run ...
  Unit style    : real
  Current step  : 0
  Time step     : 0.5
Per MPI rank memory allocation (min/avg/max) = 114.2 | 116.3 | 117.9 Mbytes
   Step          Temp          PotEng         Press         Density         Volume    
         0   285.25672     -34288.826     -18269.057      1.5382232      3400.2575    
       100   298.73639     -34284.408     -15606.122      1.5382232      3400.2575    
       200   306.17155     -34278.729      6415.2728      1.5382232      3400.2575    
       300   292.11314     -34268.638     -2149.9277      1.5382232      3400.2575    
       400   304.41689     -34293.079      8862.3279      1.5382232      3400.2575    
       500   291.09987     -34297.653     -2086.6328      1.5382232      3400.2575    
       600   270.21352     -34292.305     -5595.6999      1.5382232      3400.2575    
       700   277.02364     -34287.069     -14739.28       1.5382232      3400.2575    
       800   309.34659     -34292.665     -1227.5892      1.5382232      3400.2575    
       900   315.65959     -34291.708     -10593.326      1.5382232      3400.2575    
      1000   298.98792     -34276.946     -12562.668      1.5382232      3400.2575    
      1100   300.30056     -34286.401     -1084.3816      1.5382232      3400.2575    
      1200   311.52115     -34310.384      1470.0937      1.5382232      3400.2575    
      1300   273.68115     -34286.405     -8139.7292      1.5382232      3400.2575    
      1400   312.70065     -34312.599     -1572.1171      1.5382232      3400.2575    
      1500   289.69605     -34275.831      3678.5212      1.5382232      3400.2575    
      1600   318.46262     -34280.67      -4877.9046      1.5382232      3400.2575    
      1700   319.12206     -34290.064     -4831.2529      1.5382232      3400.2575    
      1800   296.33265     -34305.716     -10320.988      1.5382232      3400.2575    
      1900   306.82378     -34315.093     -4143.2821      1.5382232      3400.2575    
      2000   301.23321     -34296.093      5806.1867      1.5382232      3400.2575    
      2100   319.01453     -34290.11      -285.79671      1.5382232      3400.2575    
      2200   313.3863      -34281.501     -2128.4478      1.5382232      3400.2575    
      2300   284.7784      -34279.874      2877.8195      1.5382232      3400.2575    
      2400   293.56        -34289.911     -7317.4068      1.5382232      3400.2575    
      2500   300.43089     -34298.595     -5341.4039      1.5382232      3400.2575    
      2600   292.89507     -34307.21      -5729.4204      1.5382232      3400.2575    
      2700   290.31574     -34318.549     -4306.0766      1.5382232      3400.2575    
      2800   296.21446     -34315.12      -226.13371      1.5382232      3400.2575    
      2900   307.17783     -34292.826     -425.41757      1.5382232      3400.2575    
      3000   300.63956     -34285.258     -5344.14        1.5382232      3400.2575    
Loop time of 128.907 on 8 procs for 3000 steps with 295 atoms

Performance: 1.005 ns/day, 23.872 hours/ns, 23.273 timesteps/s, 6.865 katom-step/s
98.8% CPU use with 8 MPI tasks x 1 OpenMP threads

MPI task timing breakdown:
Section |  min time  |  avg time  |  max time  |%varavg| %total
---------------------------------------------------------------
Pair    | 75.904     | 99.105     | 107.57     | 122.4 | 76.88
Bond    | 0.0088933  | 0.0092198  | 0.010732   |   0.6 |  0.01
Neigh   | 6.3896     | 8.0438     | 8.7901     |  33.0 |  6.24
Comm    | 2.1126     | 10.565     | 33.756     | 375.0 |  8.20
Output  | 0.0082971  | 0.0093571  | 0.010439   |   0.8 |  0.01
Modify  | 10.378     | 11.103     | 12.773     |  28.2 |  8.61
Other   |            | 0.07299    |            |       |  0.06

Nlocal:         36.875 ave          43 max          27 min
Histogram: 1 0 0 0 0 2 3 0 1 1
Nghost:        2986.12 ave        3023 max        2932 min
Histogram: 1 0 1 0 1 1 0 1 1 2
Neighs:        22483.1 ave       25897 max       16701 min
Histogram: 1 0 0 0 0 2 2 1 1 1

Total # of neighbors = 179865
Ave neighs/atom = 609.71186
Ave special neighs/atom = 0
Neighbor list builds = 300
Dangerous builds not checked
OMP_NUM_THREADS environment is not set. Defaulting to 1 thread. (src/comm.cpp:98)
  using 1 OpenMP thread(s) per MPI task
Reading restart file ...
  restart file = 2 Aug 2023, LAMMPS = 2 Aug 2023
  restoring atom style full from restart
  triclinic box = (0 0 0) to (15.1447 13.6088 16.498) with tilt (-7.6974 -0.6366 0.5805)
WARNING: Triclinic box skew is large. LAMMPS will run inefficiently. (src/domain.cpp:220)
  2 by 2 by 2 MPI processor grid
  pair style reaxff stores no restart info
  295 atoms
Finding 1-2 1-3 1-4 neighbors ...
  special bond factors lj:    0        0        0       
  special bond factors coul:  0        0        0       
     0 = max # of 1-2 neighbors
     0 = max # of 1-3 neighbors
     0 = max # of 1-4 neighbors
     1 = max # of special neighbors
  special bonds CPU = 0.000 seconds
  read_restart CPU = 0.003 seconds
*****Positive-deform 4 starts.*****
Resetting global fix info from restart file:
  fix style: nvt, fix ID: fnvt
All restart file global fix info was re-assigned
Neighbor list info ...
  update: every = 10 steps, delay = 0 steps, check = no
  max neighbors/atom: 2000, page size: 100000
  master list distance cutoff = 12
  ghost atom cutoff = 12
  binsize = 6, bins = 4 3 3
  2 neighbor lists, perpetual/occasional/extra = 2 0 0
  (1) pair reaxff, perpetual
      attributes: half, newton off, ghost
      pair build: half/bin/newtoff/ghost
      stencil: full/ghost/bin/3d
      bin: standard
  (2) fix qeq/reaxff, perpetual, copy from (1)
      attributes: half, newton off
      pair build: copy
      stencil: none
      bin: none
Setting up Verlet run ...
  Unit style    : real
  Current step  : 0
  Time step     : 0.5
Per MPI rank memory allocation (min/avg/max) = 114.2 | 116.3 | 117.9 Mbytes
   Step          Temp          PotEng         Press         Density         Volume    
         0   285.25672     -34288.826     -18269.057      1.5382232      3400.2575    
       100   298.74913     -34284.416     -15612.679      1.5382232      3400.2575    
       200   305.93229     -34278.156      6761.9168      1.5382232      3400.2575    
       300   290.73732     -34267.28      -1311.1485      1.5382232      3400.2575    
       400   310.557       -34297.197      8713.6747      1.5382232      3400.2575    
       500   296.5818      -34304.814     -655.7207       1.5382232      3400.2575    
       600   283.3011      -34309.846     -2300.7592      1.5382232      3400.2575    
       700   279.36438     -34295.754     -7194.9209      1.5382232      3400.2575    
       800   317.88849     -34300.881     -7922.016       1.5382232      3400.2575    
       900   306.37849     -34280.753     -7935.4563      1.5382232      3400.2575    
      1000   315.94095     -34293.882     -2319.7859      1.5382232      3400.2575    
      1100   279.19273     -34275.746      6740.5923      1.5382232      3400.2575    
      1200   295.26334     -34303.627     -12783.579      1.5382232      3400.2575    
      1300   279.0196      -34299.26      -9012.7671      1.5382232      3400.2575    
      1400   300.94246     -34310.16       4323.8938      1.5382232      3400.2575    
      1500   305.24561     -34293.969     -3367.0391      1.5382232      3400.2575    
      1600   314.10469     -34285.42      -17210.839      1.5382232      3400.2575    
      1700   314.64484     -34299.418      3377.0144      1.5382232      3400.2575    
      1800   288.20232     -34309.452      11782.926      1.5382232      3400.2575    
      1900   280.25035     -34310.128     -3362.3938      1.5382232      3400.2575    
      2000   293.00283     -34314.439     -6210.9267      1.5382232      3400.2575    
      2100   281.28331     -34289.762      6256.5043      1.5382232      3400.2575    
      2200   310.72223     -34304.618     -4067.1218      1.5382232      3400.2575    
      2300   302.31513     -34300.358     -12404.015      1.5382232      3400.2575    
      2400   309.54591     -34312.816     -4838.7993      1.5382232      3400.2575    
      2500   276.06251     -34297.833      3080.9608      1.5382232      3400.2575    
      2600   267.31802     -34308.547     -24152.334      1.5382232      3400.2575    
      2700   294.33081     -34325.187     -3893.1962      1.5382232      3400.2575    
      2800   316.24834     -34312.006     -8011.5048      1.5382232      3400.2575    
      2900   300.94277     -34292.881     -13396.798      1.5382232      3400.2575    
      3000   290.41515     -34275.438     -6951.8094      1.5382232      3400.2575    
Loop time of 129.643 on 8 procs for 3000 steps with 295 atoms

Performance: 1.000 ns/day, 24.008 hours/ns, 23.140 timesteps/s, 6.826 katom-step/s
98.9% CPU use with 8 MPI tasks x 1 OpenMP threads

MPI task timing breakdown:
Section |  min time  |  avg time  |  max time  |%varavg| %total
---------------------------------------------------------------
Pair    | 73.699     | 101.99     | 108.76     | 107.4 | 78.67
Bond    | 0.0086075  | 0.0092588  | 0.0097365  |   0.4 |  0.01
Neigh   | 6.0901     | 8.2905     | 8.7021     |  29.0 |  6.39
Comm    | 1.6182     | 8.4147     | 36.711     | 374.1 |  6.49
Output  | 0.0083607  | 0.0095489  | 0.010434   |   0.7 |  0.01
Modify  | 10.429     | 10.855     | 13.057     |  25.4 |  8.37
Other   |            | 0.07451    |            |       |  0.06

Nlocal:         36.875 ave          42 max          28 min
Histogram: 1 0 0 0 2 0 0 2 1 2
Nghost:         2995.5 ave        3043 max        2939 min
Histogram: 1 0 1 1 1 0 1 1 1 1
Neighs:        22449.8 ave       25476 max       17237 min
Histogram: 1 0 0 0 2 0 0 2 1 2

Total # of neighbors = 179598
Ave neighs/atom = 608.80678
Ave special neighs/atom = 0
Neighbor list builds = 300
Dangerous builds not checked
OMP_NUM_THREADS environment is not set. Defaulting to 1 thread. (src/comm.cpp:98)
  using 1 OpenMP thread(s) per MPI task
Reading restart file ...
  restart file = 2 Aug 2023, LAMMPS = 2 Aug 2023
  restoring atom style full from restart
  triclinic box = (0 0 0) to (15.1447 13.6088 16.498) with tilt (-7.6974 -0.6366 0.5805)
WARNING: Triclinic box skew is large. LAMMPS will run inefficiently. (src/domain.cpp:220)
  2 by 2 by 2 MPI processor grid
  pair style reaxff stores no restart info
  295 atoms
Finding 1-2 1-3 1-4 neighbors ...
  special bond factors lj:    0        0        0       
  special bond factors coul:  0        0        0       
     0 = max # of 1-2 neighbors
     0 = max # of 1-3 neighbors
     0 = max # of 1-4 neighbors
     1 = max # of special neighbors
  special bonds CPU = 0.000 seconds
  read_restart CPU = 0.003 seconds
*****debug*****
xy = -7.6974000000000000199, deltaxy = 0.076974
xz = -0.63660000000000005471, deltaxz = 0.006366
yz = 0.58050000000000001599, deltayz = -0.005805
*****
*****Negative-deform 5 starts.*****
Resetting global fix info from restart file:
  fix style: nvt, fix ID: fnvt
All restart file global fix info was re-assigned
Neighbor list info ...
  update: every = 10 steps, delay = 0 steps, check = no
  max neighbors/atom: 2000, page size: 100000
  master list distance cutoff = 12
  ghost atom cutoff = 12
  binsize = 6, bins = 4 3 3
  2 neighbor lists, perpetual/occasional/extra = 2 0 0
  (1) pair reaxff, perpetual
      attributes: half, newton off, ghost
      pair build: half/bin/newtoff/ghost
      stencil: full/ghost/bin/3d
      bin: standard
  (2) fix qeq/reaxff, perpetual, copy from (1)
      attributes: half, newton off
      pair build: copy
      stencil: none
      bin: none
Setting up Verlet run ...
  Unit style    : real
  Current step  : 0
  Time step     : 0.5
Per MPI rank memory allocation (min/avg/max) = 114.2 | 116.3 | 117.9 Mbytes
   Step          Temp          PotEng         Press         Density         Volume    
         0   285.25672     -34288.826     -18269.057      1.5382232      3400.2575    
       100   298.74528     -34284.413     -15610.603      1.5382232      3400.2575    
       200   305.70783     -34277.988      7011.4749      1.5382232      3400.2575    
       300   291.66501     -34267.838     -2588.2102      1.5382232      3400.2575    
       400   313.31082     -34300.383      7405.8071      1.5382232      3400.2575    
       500   300.3556      -34309.795      889.53958      1.5382232      3400.2575    
       600   276.53104     -34307.93       2214.2183      1.5382232      3400.2575    
       700   273.98068     -34293.94      -8585.8147      1.5382232      3400.2575    
       800   299.79454     -34285.723     -8552.1682      1.5382232      3400.2575    
       900   316.11701     -34281.251     -11248.739      1.5382232      3400.2575    
      1000   284.80239     -34251.02      -13347.146      1.5382232      3400.2575    
      1100   303.43013     -34285.31       1036.5792      1.5382232      3400.2575    
      1200   301.78836     -34305.813     -9298.0419      1.5382232      3400.2575    
      1300   299.17605     -34314.905      1018.9788      1.5382232      3400.2575    
      1400   286.04206     -34296.247     -14179.244      1.5382232      3400.2575    
      1500   305.55238     -34289.639     -1277.7064      1.5382232      3400.2575    
      1600   321.37024     -34297.347      640.82638      1.5382232      3400.2575    
      1700   290.91476     -34291.701     -205.2109       1.5382232      3400.2575    
      1800   288.56276     -34317.314     -10393.176      1.5382232      3400.2575    
      1900   311.62041     -34335.608     -7772.818       1.5382232      3400.2575    
      2000   299.37609     -34314.159     -6921.7907      1.5382232      3400.2575    
      2100   322.01293     -34322.41       10465.743      1.5382232      3400.2575    
      2200   303.19722     -34306.65      -12470.874      1.5382232      3400.2575    
      2300   301.30636     -34315.74      -1060.9395      1.5382232      3400.2575    
      2400   277.80083     -34317.109     -18823.185      1.5382232      3400.2575    
      2500   286.21115     -34331.656     -17462.15       1.5382232      3400.2575    
      2600   316.63012     -34342.413     -7237.3399      1.5382232      3400.2575    
      2700   320.12446     -34315.579     -6986.2128      1.5382232      3400.2575    
      2800   315.73189     -34304.108     -17113.606      1.5382232      3400.2575    
      2900   305.46935     -34304.224     -5432.0721      1.5382232      3400.2575    
      3000   302.29989     -34314.485     -17466.587      1.5382232      3400.2575    
Loop time of 128.618 on 8 procs for 3000 steps with 295 atoms

Performance: 1.008 ns/day, 23.818 hours/ns, 23.325 timesteps/s, 6.881 katom-step/s
98.8% CPU use with 8 MPI tasks x 1 OpenMP threads

MPI task timing breakdown:
Section |  min time  |  avg time  |  max time  |%varavg| %total
---------------------------------------------------------------
Pair    | 77.217     | 101.6      | 107.26     |  93.2 | 78.99
Bond    | 0.0086504  | 0.0093679  | 0.010483   |   0.6 |  0.01
Neigh   | 6.2495     | 8.2755     | 8.7567     |  26.9 |  6.43
Comm    | 2.172      | 7.8472     | 32.234     | 335.4 |  6.10
Output  | 0.0087871  | 0.0099356  | 0.01098    |   0.9 |  0.01
Modify  | 10.344     | 10.802     | 12.83      |  23.5 |  8.40
Other   |            | 0.07429    |            |       |  0.06

Nlocal:         36.875 ave          41 max          29 min
Histogram: 1 0 1 0 0 1 1 0 0 4
Nghost:           2983 ave        3032 max        2935 min
Histogram: 1 0 2 0 1 1 1 1 0 1
Neighs:        22475.5 ave       24961 max       17915 min
Histogram: 1 0 1 0 0 1 1 0 0 4

Total # of neighbors = 179804
Ave neighs/atom = 609.50508
Ave special neighs/atom = 0
Neighbor list builds = 300
Dangerous builds not checked
OMP_NUM_THREADS environment is not set. Defaulting to 1 thread. (src/comm.cpp:98)
  using 1 OpenMP thread(s) per MPI task
Reading restart file ...
  restart file = 2 Aug 2023, LAMMPS = 2 Aug 2023
  restoring atom style full from restart
  triclinic box = (0 0 0) to (15.1447 13.6088 16.498) with tilt (-7.6974 -0.6366 0.5805)
WARNING: Triclinic box skew is large. LAMMPS will run inefficiently. (src/domain.cpp:220)
  2 by 2 by 2 MPI processor grid
  pair style reaxff stores no restart info
  295 atoms
Finding 1-2 1-3 1-4 neighbors ...
  special bond factors lj:    0        0        0       
  special bond factors coul:  0        0        0       
     0 = max # of 1-2 neighbors
     0 = max # of 1-3 neighbors
     0 = max # of 1-4 neighbors
     1 = max # of special neighbors
  special bonds CPU = 0.000 seconds
  read_restart CPU = 0.003 seconds
*****Positive-deform 5 starts.*****
Resetting global fix info from restart file:
  fix style: nvt, fix ID: fnvt
All restart file global fix info was re-assigned
Neighbor list info ...
  update: every = 10 steps, delay = 0 steps, check = no
  max neighbors/atom: 2000, page size: 100000
  master list distance cutoff = 12
  ghost atom cutoff = 12
  binsize = 6, bins = 4 3 3
  2 neighbor lists, perpetual/occasional/extra = 2 0 0
  (1) pair reaxff, perpetual
      attributes: half, newton off, ghost
      pair build: half/bin/newtoff/ghost
      stencil: full/ghost/bin/3d
      bin: standard
  (2) fix qeq/reaxff, perpetual, copy from (1)
      attributes: half, newton off
      pair build: copy
      stencil: none
      bin: none
Setting up Verlet run ...
  Unit style    : real
  Current step  : 0
  Time step     : 0.5
Per MPI rank memory allocation (min/avg/max) = 114.2 | 116.3 | 117.9 Mbytes
   Step          Temp          PotEng         Press         Density         Volume    
         0   285.25672     -34288.826     -18269.057      1.5382232      3400.2575    
       100   298.74056     -34284.412     -15608.109      1.5382232      3400.2575    
       200   306.51987     -34278.888      6301.6975      1.5382232      3400.2575    
       300   292.74814     -34269.458     -2616.484       1.5382232      3400.2575    
       400   313.81697     -34301.018      6350.2529      1.5382232      3400.2575    
       500   285.31663     -34291.794      7524.7136      1.5382232      3400.2575    
       600   271.72597     -34290.408     -440.41999      1.5382232      3400.2575    
       700   278.19901     -34286.603     -9648.9609      1.5382232      3400.2575    
       800   301.40605     -34285.523     -7130.8115      1.5382232      3400.2575    
       900   320.21287     -34294.752     -7805.275       1.5382232      3400.2575    
      1000   302.60317     -34286.007     -11357.212      1.5382232      3400.2575    
      1100   293.59066     -34291.999      1590.3902      1.5382232      3400.2575    
      1200   303.88703     -34311.114     -2196.3787      1.5382232      3400.2575    
      1300   292.0926      -34302.424     -14737.082      1.5382232      3400.2575    
      1400   306.81023     -34295.963     -2120.4085      1.5382232      3400.2575    
      1500   304.78224     -34285.454      10060.776      1.5382232      3400.2575    
      1600   303.65451     -34295.413      3135.6947      1.5382232      3400.2575    
      1700   279.96968     -34308.693     -12432.676      1.5382232      3400.2575    
      1800   302.59961     -34327.469      1040.226       1.5382232      3400.2575    
      1900   295.37775     -34302.091      2604.7133      1.5382232      3400.2575    
      2000   319.60593     -34307.158     -10712.758      1.5382232      3400.2575    
      2100   306.89942     -34305.841     -7993.1021      1.5382232      3400.2575    
      2200   297.15643     -34305.439      14042.99       1.5382232      3400.2575    
      2300   296.46106     -34314.451     -1581.7019      1.5382232      3400.2575    
      2400   280.215       -34318.246      1749.0146      1.5382232      3400.2575    
      2500   267.84123     -34330.951     -9482.9392      1.5382232      3400.2575    
      2600   283.03252     -34328.418     -9249.7855      1.5382232      3400.2575    
      2700   294.88871     -34313.353      3013.8451      1.5382232      3400.2575    
      2800   299.81099     -34308.903      1081.71        1.5382232      3400.2575    
      2900   282.91639     -34291.91      -11711.298      1.5382232      3400.2575    
      3000   300.85643     -34302.137     -4457.9312      1.5382232      3400.2575    
Loop time of 127.763 on 8 procs for 3000 steps with 295 atoms

Performance: 1.014 ns/day, 23.660 hours/ns, 23.481 timesteps/s, 6.927 katom-step/s
98.9% CPU use with 8 MPI tasks x 1 OpenMP threads

MPI task timing breakdown:
Section |  min time  |  avg time  |  max time  |%varavg| %total
---------------------------------------------------------------
Pair    | 73.429     | 96.717     | 106.68     | 122.0 | 75.70
Bond    | 0.0083893  | 0.0090458  | 0.0096829  |   0.5 |  0.01
Neigh   | 6.1038     | 8.0199     | 9.0092     |  34.7 |  6.28
Comm    | 1.7598     | 11.746     | 35.034     | 350.2 |  9.19
Output  | 0.0091322  | 0.010223   | 0.011181   |   0.7 |  0.01
Modify  | 10.18      | 11.189     | 13.111     |  29.4 |  8.76
Other   |            | 0.07168    |            |       |  0.06

Nlocal:         36.875 ave          41 max          32 min
Histogram: 1 1 0 0 2 0 1 1 1 1
Nghost:        3005.38 ave        3058 max        2966 min
Histogram: 1 2 0 0 3 0 0 1 0 1
Neighs:        22491.9 ave       24907 max       19724 min
Histogram: 1 1 0 0 2 0 1 1 1 1

Total # of neighbors = 179935
Ave neighs/atom = 609.94915
Ave special neighs/atom = 0
Neighbor list builds = 300
Dangerous builds not checked
OMP_NUM_THREADS environment is not set. Defaulting to 1 thread. (src/comm.cpp:98)
  using 1 OpenMP thread(s) per MPI task
Reading restart file ...
  restart file = 2 Aug 2023, LAMMPS = 2 Aug 2023
  restoring atom style full from restart
  triclinic box = (0 0 0) to (15.1447 13.6088 16.498) with tilt (-7.6974 -0.6366 0.5805)
WARNING: Triclinic box skew is large. LAMMPS will run inefficiently. (src/domain.cpp:220)
  2 by 2 by 2 MPI processor grid
  pair style reaxff stores no restart info
  295 atoms
Finding 1-2 1-3 1-4 neighbors ...
  special bond factors lj:    0        0        0       
  special bond factors coul:  0        0        0       
     0 = max # of 1-2 neighbors
     0 = max # of 1-3 neighbors
     0 = max # of 1-4 neighbors
     1 = max # of special neighbors
  special bonds CPU = 0.000 seconds
  read_restart CPU = 0.002 seconds
*****debug*****
xy = -7.6974000000000000199, deltaxy = 0.076974
xz = -0.63660000000000005471, deltaxz = 0.006366
yz = 0.58050000000000001599, deltayz = -0.005805
*****
*****Negative-deform 6 starts.*****
Resetting global fix info from restart file:
  fix style: nvt, fix ID: fnvt
All restart file global fix info was re-assigned
Neighbor list info ...
  update: every = 10 steps, delay = 0 steps, check = no
  max neighbors/atom: 2000, page size: 100000
  master list distance cutoff = 12
  ghost atom cutoff = 12
  binsize = 6, bins = 4 3 3
  2 neighbor lists, perpetual/occasional/extra = 2 0 0
  (1) pair reaxff, perpetual
      attributes: half, newton off, ghost
      pair build: half/bin/newtoff/ghost
      stencil: full/ghost/bin/3d
      bin: standard
  (2) fix qeq/reaxff, perpetual, copy from (1)
      attributes: half, newton off
      pair build: copy
      stencil: none
      bin: none
Setting up Verlet run ...
  Unit style    : real
  Current step  : 0
  Time step     : 0.5
Per MPI rank memory allocation (min/avg/max) = 114.2 | 116.3 | 117.9 Mbytes
   Step          Temp          PotEng         Press         Density         Volume    
         0   285.25672     -34288.826     -18269.057      1.5382232      3400.2575    
       100   298.71281     -34284.379     -15607.767      1.5382232      3400.2575    
       200   305.80004     -34278.077      6517.8317      1.5382232      3400.2575    
       300   291.991       -34268.504     -2133.1033      1.5382232      3400.2575    
       400   308.59206     -34296.344      4479.7664      1.5382232      3400.2575    
       500   289.88028     -34296.939      829.05205      1.5382232      3400.2575    
       600   281.5172      -34305.792     -2895.419       1.5382232      3400.2575    
       700   279.48594     -34292.523     -6629.7665      1.5382232      3400.2575    
       800   312.31111     -34296.085     -16311.769      1.5382232      3400.2575    
       900   320.49858     -34292.498     -4447.7928      1.5382232      3400.2575    
      1000   303.97011     -34273.349     -11228.088      1.5382232      3400.2575    
      1100   295.39508     -34270.57      -8903.5513      1.5382232      3400.2575    
      1200   307.66257     -34294.125     -4355.6294      1.5382232      3400.2575    
      1300   287.17356     -34291.042      72.951919      1.5382232      3400.2575    
      1400   291.49807     -34303.379     -765.53401      1.5382232      3400.2575    
      1500   292.44419     -34297.779      4965.9707      1.5382232      3400.2575    
      1600   312.82938     -34286.585     -1979.9706      1.5382232      3400.2575    
      1700   314.46073     -34281.714     -9632.5572      1.5382232      3400.2575    
      1800   294.813       -34283.084     -4069.5482      1.5382232      3400.2575    
      1900   298.15892     -34295.695     -5487.5773      1.5382232      3400.2575    
      2000   306.86399     -34302.015     -6645.751       1.5382232      3400.2575    
      2100   288.03159     -34296.159     -5762.0626      1.5382232      3400.2575    
      2200   287.59857     -34307.556     -7368.2135      1.5382232      3400.2575    
      2300   282.20472     -34318.979     -2256.7841      1.5382232      3400.2575    
      2400   279.50409     -34312.397     -18192.355      1.5382232      3400.2575    
      2500   290.90611     -34291.243     -4223.1215      1.5382232      3400.2575    
      2600   311.08101     -34296.56      -2042.0668      1.5382232      3400.2575    
      2700   301.08884     -34290.326     -1343.344       1.5382232      3400.2575    
      2800   308.22073     -34310.882     -11498.934      1.5382232      3400.2575    
      2900   284.85918     -34312.072     -10898.089      1.5382232      3400.2575    
      3000   288.96229     -34322.819     -2008.8912      1.5382232      3400.2575    
Loop time of 117.522 on 8 procs for 3000 steps with 295 atoms

Performance: 1.103 ns/day, 21.763 hours/ns, 25.527 timesteps/s, 7.531 katom-step/s
98.9% CPU use with 8 MPI tasks x 1 OpenMP threads

MPI task timing breakdown:
Section |  min time  |  avg time  |  max time  |%varavg| %total
---------------------------------------------------------------
Pair    | 63.887     | 84.03      | 97.548     | 124.0 | 71.50
Bond    | 0.0075147  | 0.0081892  | 0.0093751  |   0.6 |  0.01
Neigh   | 6.0645     | 7.6019     | 8.6403     |  33.7 |  6.47
Comm    | 1.1392     | 14.638     | 34.766     | 297.0 | 12.46
Output  | 0.0068481  | 0.0077831  | 0.0086626  |   0.7 |  0.01
Modify  | 10.114     | 11.169     | 12.727     |  28.0 |  9.50
Other   |            | 0.06682    |            |       |  0.06

Nlocal:         36.875 ave          42 max          27 min
Histogram: 1 0 0 0 1 0 3 0 0 3
Nghost:        2998.62 ave        3047 max        2956 min
Histogram: 2 0 0 1 2 0 1 1 0 1
Neighs:          22462 ave       25332 max       16655 min
Histogram: 1 0 0 1 0 0 3 0 0 3

Total # of neighbors = 179696
Ave neighs/atom = 609.13898
Ave special neighs/atom = 0
Neighbor list builds = 300
Dangerous builds not checked
OMP_NUM_THREADS environment is not set. Defaulting to 1 thread. (src/comm.cpp:98)
  using 1 OpenMP thread(s) per MPI task
Reading restart file ...
  restart file = 2 Aug 2023, LAMMPS = 2 Aug 2023
  restoring atom style full from restart
  triclinic box = (0 0 0) to (15.1447 13.6088 16.498) with tilt (-7.6974 -0.6366 0.5805)
WARNING: Triclinic box skew is large. LAMMPS will run inefficiently. (src/domain.cpp:220)
  2 by 2 by 2 MPI processor grid
  pair style reaxff stores no restart info
  295 atoms
Finding 1-2 1-3 1-4 neighbors ...
  special bond factors lj:    0        0        0       
  special bond factors coul:  0        0        0       
     0 = max # of 1-2 neighbors
     0 = max # of 1-3 neighbors
     0 = max # of 1-4 neighbors
     1 = max # of special neighbors
  special bonds CPU = 0.000 seconds
  read_restart CPU = 0.002 seconds
*****Positive-deform 6 starts.*****
Resetting global fix info from restart file:
  fix style: nvt, fix ID: fnvt
All restart file global fix info was re-assigned
Neighbor list info ...
  update: every = 10 steps, delay = 0 steps, check = no
  max neighbors/atom: 2000, page size: 100000
  master list distance cutoff = 12
  ghost atom cutoff = 12
  binsize = 6, bins = 4 3 3
  2 neighbor lists, perpetual/occasional/extra = 2 0 0
  (1) pair reaxff, perpetual
      attributes: half, newton off, ghost
      pair build: half/bin/newtoff/ghost
      stencil: full/ghost/bin/3d
      bin: standard
  (2) fix qeq/reaxff, perpetual, copy from (1)
      attributes: half, newton off
      pair build: copy
      stencil: none
      bin: none
Setting up Verlet run ...
  Unit style    : real
  Current step  : 0
  Time step     : 0.5
Per MPI rank memory allocation (min/avg/max) = 114.2 | 116.3 | 117.9 Mbytes
   Step          Temp          PotEng         Press         Density         Volume    
         0   285.25672     -34288.826     -18269.057      1.5382232      3400.2575    
       100   298.77928     -34284.439     -15606.019      1.5382232      3400.2575    
       200   306.10416     -34278.113      7266.9007      1.5382232      3400.2575    
       300   291.8685      -34268.337     -4340.4176      1.5382232      3400.2575    
       400   310.36397     -34298.093      4476.2255      1.5382232      3400.2575    
       500   294.10014     -34300.418      371.95591      1.5382232      3400.2575    
       600   289.45482     -34309.553     -8878.0923      1.5382232      3400.2575    
       700   277.18325     -34291.098     -12039.782      1.5382232      3400.2575    
       800   322.12742     -34307.679     -18801.228      1.5382232      3400.2575    
       900   322.70048     -34296.817     -11883.444      1.5382232      3400.2575    
      1000   297.86514     -34273.231     -9132.17        1.5382232      3400.2575    
      1100   291.88602     -34271.763     -433.86133      1.5382232      3400.2575    
      1200   311.63495     -34305.44       5339.0194      1.5382232      3400.2575    
      1300   287.41422     -34299.655     -4895.9933      1.5382232      3400.2575    
      1400   292.99516     -34301.709     -1068.577       1.5382232      3400.2575    
      1500   300.40808     -34284.681     -11857.624      1.5382232      3400.2575    
      1600   306.46352     -34271.461     -14215.68       1.5382232      3400.2575    
      1700   319.49561     -34290.586     -16117.442      1.5382232      3400.2575    
      1800   270.40082     -34260.203     -4496.31        1.5382232      3400.2575    
      1900   280.29491     -34271.662      1246.2281      1.5382232      3400.2575    
      2000   293.9832      -34286.023     -5234.3486      1.5382232      3400.2575    
      2100   285.71997     -34290.759     -2861.1122      1.5382232      3400.2575    
      2200   287.16258     -34316.431     -4886.3254      1.5382232      3400.2575    
      2300   277.50651     -34314.915     -8003.5812      1.5382232      3400.2575    
      2400   296.31544     -34303.517     -7664.309       1.5382232      3400.2575    
      2500   311.84148     -34302.133     -3672.5658      1.5382232      3400.2575    
      2600   314.06045     -34303.721      6285.9821      1.5382232      3400.2575    
      2700   306.23096     -34302.14      -5211.1814      1.5382232      3400.2575    
      2800   302.45731     -34306.998     -1152.0794      1.5382232      3400.2575    
      2900   274.46461     -34296.969      6208.0271      1.5382232      3400.2575    
      3000   306.07549     -34316.362      3124.9367      1.5382232      3400.2575    
Loop time of 80.4819 on 8 procs for 3000 steps with 295 atoms

Performance: 1.610 ns/day, 14.904 hours/ns, 37.275 timesteps/s, 10.996 katom-step/s
98.6% CPU use with 8 MPI tasks x 1 OpenMP threads

MPI task timing breakdown:
Section |  min time  |  avg time  |  max time  |%varavg| %total
---------------------------------------------------------------
Pair    | 61.99      | 63.417     | 65.134     |  11.6 | 78.80
Bond    | 0.0070218  | 0.0075997  | 0.0081874  |   0.5 |  0.01
Neigh   | 6.0319     | 6.0952     | 6.1932     |   2.3 |  7.57
Comm    | 1.4466     | 3.1587     | 4.5749     |  51.8 |  3.92
Output  | 0.0058123  | 0.0067477  | 0.0074897  |   0.7 |  0.01
Modify  | 7.626      | 7.73       | 7.8012     |   2.0 |  9.60
Other   |            | 0.06672    |            |       |  0.08

Nlocal:         36.875 ave          45 max          26 min
Histogram: 1 0 0 0 2 3 0 0 0 2
Nghost:        2973.62 ave        3013 max        2927 min
Histogram: 1 0 0 1 2 0 1 2 0 1
Neighs:        22467.9 ave       27224 max       16151 min
Histogram: 1 0 0 0 2 3 0 0 0 2

Total # of neighbors = 179743
Ave neighs/atom = 609.29831
Ave special neighs/atom = 0
Neighbor list builds = 300
Dangerous builds not checked
Total wall time: 0:26:51
