ITEM: TIMESTEP
0
ITEM: NUMBER OF ATOMS
350
ITEM: BOX BOUNDS xy xz yz pp pp pp
-9.3513155604862011e+00 1.5608457727936326e+01 -7.8832367203359333e+00
4.0119664078240458e-01 1.3960526826327030e+01 -1.5378211122139989e+00
-1.4695996115413124e-01 1.7785259961154189e+01 1.4232346710932497e-01
ITEM: ATOMS id type x y z
207 3 -0.439634 1.37028 4.84477
304 3 -0.441509 1.84687 2.23779
74 1 0.672022 5.30318 3.7089
150 2 1.12156 4.37668 4.19584
151 2 1.11171 5.51457 2.6416
152 2 -0.507846 5.32817 3.75285
224 3 1.9716 2.91392 4.95949
299 4 -0.346478 2.65115 0.884549
300 1 1.32223 3.28383 1.39456
301 2 1.74828 3.50965 0.346063
237 3 2.18564 6.24728 5.65498
12 4 -2.04804 5.37598 0.646705
340 2 -1.58081 3.54842 3.93448
70 1 2.86519 1.00339 3.06342
4 2 -2.0062 4.82632 5.11362
31 4 0.921089 6.80863 4.79856
314 3 -2.83044 5.89034 2.32916
210 3 -1.34711 3.8666 0.779656
97 2 -3.12784 6.38312 5.53623
32 4 2.43007 6.99621 0.572415
302 2 1.90235 2.44605 2.02263
232 3 3.06032 5.72218 1.66625
303 2 1.14881 4.32282 2.03182
141 2 1.77321 1.0197 3.12029
140 2 3.27657 1.02922 1.99742
9 4 0.717521 2.37284 5.91253
213 3 -1.50908 5.83244 7.54494
13 4 -0.783336 4.31493 7.86017
208 3 1.39086 1.40617 7.01586
212 3 -0.0502056 3.60013 6.53352
233 3 4.23918 2.7381 8.53139
227 3 6.44461 0.935936 6.98863
243 3 -1.23376 6.54634 -0.0459508
23 4 3.36043 2.41911 4.31045
230 3 3.84436 3.59733 3.33251
30 4 4.32281 4.66477 2.07891
108 2 4.52015 2.54692 1.15778
226 3 4.50374 1.71747 5.2384
348 2 5.90918 1.28464 1.72459
71 1 4.7521 3.65705 0.590903
211 3 -1.99661 3.35609 8.19616
33 4 4.92248 4.01518 7.80004
26 4 6.05299 2.02572 5.82895
238 3 4.06099 5.28296 7.4213
15 4 -1.91808 6.99455 6.57609
154 2 6.87952 1.41606 0.202631
35 4 3.62485 6.39611 6.20093
36 4 3.94177 5.00516 14.3087
292 1 3.98746 0.791191 14.5089
34 4 0.516802 6.02072 9.98956
236 3 -1.04782 6.38429 10.687
244 3 1.66684 5.90857 11.0659
145 2 1.65702 1.73953 9.06481
66 1 -0.459259 2.33416 11.362
128 2 -0.251914 3.18293 10.621
72 1 2.60291 1.88163 10.7479
17 4 -2.38533 7.03765 11.248
107 2 1.50505 2.01034 10.9841
129 2 -0.286888 1.31548 10.8751
310 2 4.98375 1.64606 16.0406
242 3 -0.185279 6.46724 17.469
305 3 -1.60108 1.87466 17.2943
235 3 0.185856 4.43272 9.26767
130 2 0.89533 2.46105 12.5883
214 3 -0.808103 4.46942 13.5704
16 4 -1.44547 5.90512 13.9203
6 4 -0.469242 1.63909 16.122
228 3 0.893259 2.51923 16.3146
28 4 2.27977 3.29523 16.4507
216 3 -2.82226 6.37123 12.9181
10 4 -0.647263 2.92112 13.3509
209 3 -0.971738 1.88257 14.4104
241 3 -2.04475 5.88574 15.3929
37 4 -1.61808 6.76831 16.7243
98 2 -0.120863 7.0241 13.7816
239 3 2.96779 4.08853 15.3083
38 4 2.55482 6.87636 12.1615
297 2 3.78429 1.87822 14.7892
143 2 3.50958 2.19669 17.0306
146 2 3.07404 2.86135 10.9485
25 4 3.44131 1.50682 9.08164
206 2 -1.73085 2.29171 11.7025
144 2 3.15923 1.05207 11.3808
245 3 3.07567 5.91096 13.3517
149 2 6.2326 1.26547 11.6409
104 2 4.69333 2.4751 12.0468
295 2 5.46484 0.73718 13.7302
106 2 1.90279 4.6602 17.5763
328 2 2.3516 7.06905 16.6628
139 2 -4.55176 13.5071 3.60326
219 3 -4.9634 11.4138 4.3612
186 2 -5.15982 11.6457 0.423838
99 2 -4.58429 13.1688 1.27491
86 1 -4.31158 12.1377 0.900986
18 4 -5.10549 11.019 2.76695
349 2 -6.0151 12.2027 1.8982
133 2 -3.85757 8.20304 0.429951
185 2 -3.31083 11.4063 2.17168
122 2 -3.36613 7.50939 2.28726
218 3 -2.53608 8.25439 7.34734
231 3 -0.717476 7.32553 5.67635
20 4 -4.67208 11.5755 5.93462
7 4 -6.93894 13.2163 7.43366
19 4 -3.58514 9.50748 7.84101
220 3 -4.12019 10.1305 6.38756
221 3 -5.93654 12.193 6.6275
100 2 -3.47159 12.7026 6.21814
252 3 0.640986 9.42275 7.09016
313 2 -2.93555 9.89879 4.0188
162 2 -0.578287 13.2873 0.960941
309 2 -0.869862 8.00565 2.80715
115 2 -1.44736 12.9157 2.65028
306 4 -2.3509 8.91351 2.35952
308 1 -1.31495 9.57251 3.79667
315 3 -2.23745 9.7029 0.992533
312 2 -1.00828 8.6107 4.53312
39 4 1.53458 9.05334 2.56367
153 2 0.0103531 9.89622 2.42019
246 3 1.24444 7.94587 3.68876
311 2 -0.635816 10.4457 4.11169
247 3 1.73905 8.32991 1.20909
158 2 2.41848 8.34749 7.09415
345 2 -0.416276 11.8038 0.0209236
110 2 -0.506127 9.534 7.17114
249 3 -2.84064 10.7086 8.60761
78 1 -1.03056 13.7715 1.92934
24 4 -0.590775 13.4012 7.88767
181 2 -4.87996 8.56399 4.74557
253 3 0.115322 12.3506 6.86701
217 3 -4.83365 8.82264 8.65514
112 2 -1.53865 8.42863 16.2433
75 1 -1.30943 12.5783 17.2186
318 3 -7.07388 13.05 8.9417
294 2 -4.69293 13.869 13.8252
317 2 -6.34369 11.5431 11.0227
113 2 -3.48679 9.16012 12.266
103 2 -5.78005 9.99802 12.156
222 3 -5.55843 11.0643 12.3255
135 2 -5.48422 8.36472 14.0113
283 3 1.43403 9.92128 9.74542
102 2 -4.3295 8.38628 16.7168
344 2 -3.93771 13.5154 16.1127
320 1 -7.97389 13.2054 16.3821
321 2 -6.82518 13.2923 16.5138
335 2 -4.51753 10.3071 16.0357
22 4 -3.929 10.8163 12.4607
68 1 -5.90578 9.44655 17.0225
43 4 1.10906 9.43387 13.7493
223 3 -3.45933 11.4685 13.9966
77 1 0.0350401 8.47864 15.1019
251 3 -3.0447 11.7522 11.0866
41 4 -2.77971 12.1535 9.34232
111 2 -0.925869 9.03029 9.76793
250 3 -1.33617 12.8124 9.2179
40 4 0.546288 8.82799 8.94922
69 1 -1.66785 8.80382 11.5906
136 2 -0.499551 8.65263 11.4038
248 3 0.918094 7.31231 9.08718
138 2 -2.19302 9.64185 11.0182
114 2 -1.6099 12.0524 11.6475
254 3 1.69351 8.18687 12.8932
255 3 -0.0302815 10.5379 13.1397
291 4 -2.83867 12.6504 14.7589
307 4 -4.71855 10.8199 17.7682
296 2 -1.40557 12.0389 15.8095
159 2 -0.996238 8.37265 14.5167
137 2 -1.82568 8.87513 12.7084
160 2 -0.0684685 9.25002 16.0413
225 3 -3.94457 13.3958 9.09712
161 2 0.625454 7.56021 15.3626
334 2 -1.79893 13.6929 17.1956
322 2 -8.28871 12.7732 15.3493
44 4 -0.106385 11.9243 12.4317
215 3 -3.68476 7.28711 10.4756
134 2 -4.40008 12.6403 17.7497
341 2 -8.45232 12.6971 17.2507
257 3 7.04597 2.04288 4.6274
262 3 5.61022 5.51808 2.41718
46 4 7.61975 1.63644 3.11833
260 3 8.78014 2.38856 2.25072
263 3 4.744 6.71079 5.00473
264 3 8.96254 4.72521 0.940667
51 4 8.27321 6.07016 0.574144
330 2 6.82609 6.22949 1.46628
50 4 5.79537 6.84353 3.76322
54 4 9.05679 6.81236 4.76787
79 1 10.405 2.407 -0.0858107
336 2 8.62128 0.954822 8.58114
234 3 5.96124 3.58114 6.66358
1 4 14.3503 1.9133 3.58815
119 2 7.628 5.00794 8.1323
95 2 11.6752 4.92934 8.23352
52 4 9.18654 5.45042 7.64454
269 3 9.00923 6.13467 6.22066
2 1 12.4771 4.52798 4.81975
268 3 7.44726 6.95514 4.09848
3 2 12.3814 3.36693 4.51603
49 4 9.72608 3.43036 1.46705
267 3 10.4014 5.96814 3.88892
11 4 11.6313 5.09518 3.11748
261 3 11.1979 3.73814 2.43061
131 2 11.3585 2.38527 7.00706
5 3 12.8091 1.16507 3.5563
337 2 9.97949 1.39354 0.117456
117 2 11.4088 1.37027 1.21673
8 4 12.0027 3.16024 8.41525
132 2 10.4688 4.00012 5.97545
342 2 11.7587 4.8182 5.63298
120 2 9.51309 3.23544 7.58611
67 1 10.4187 4.09585 7.13248
142 2 5.86269 3.79167 0.289136
343 2 11.3653 6.10286 -0.105471
82 1 6.08942 4.50819 9.35902
173 2 7.05651 3.74426 9.39367
174 2 6.43675 5.57984 9.15003
121 2 4.92658 6.09899 9.42954
175 2 5.31069 4.35629 10.177
80 1 8.56787 2.39129 9.73264
168 2 7.61255 2.43388 10.4235
169 2 8.72423 3.35331 9.07522
298 2 6.62155 2.44096 16.902
73 1 5.85952 2.3353 11.5564
346 2 4.93041 3.2112 17.2084
165 2 8.26282 3.09711 17.0371
331 2 6.01373 5.99038 16.9349
148 2 7.11098 3.85579 11.5533
274 3 8.79513 6.11612 12.3055
109 2 4.2996 5.56191 16.586
29 4 6.51125 3.26119 13.0983
229 3 7.32408 2.17685 13.8786
240 3 5.40226 4.21759 13.6844
329 1 4.48365 6.27865 15.6973
332 2 5.57284 6.35275 15.374
258 3 9.41687 1.16579 15.2697
170 2 8.69597 4.10479 14.4508
325 2 9.35023 6.48597 16.2919
270 3 9.61926 4.5578 14.6178
27 4 8.00066 0.925121 14.6042
81 1 11.7251 2.8962 15.6318
338 2 11.3481 5.54021 13.0012
167 2 9.18729 1.05153 11.0552
48 4 10.0277 2.55888 10.7705
259 3 11.3857 2.56751 9.90691
324 2 9.8648 4.24024 17.5411
147 2 5.89611 2.74488 10.5285
271 3 9.87256 3.69936 11.8655
101 2 10.8215 5.44638 16.3536
166 2 12.3366 2.19154 14.8088
55 4 9.77557 4.90054 12.8695
47 4 10.8443 1.33244 16.1099
172 2 10.9672 3.60134 15.1208
323 1 10.4485 5.32571 17.4534
293 1 5.46574 2.23043 17.0822
171 2 12.4146 3.43925 16.3107
164 2 10.4586 2.5387 17.5442
105 2 7.05217 0.569449 15.9441
265 3 9.8099 6.30194 8.85412
163 2 0.181075 13.3995 3.38869
57 4 9.8873 8.73712 0.726189
279 3 1.80928 11.5008 4.99384
58 4 3.01652 11.3507 3.92454
277 3 2.69701 10.1797 2.93337
278 3 2.98973 12.8151 3.07122
42 4 1.2826 11.3741 6.42769
92 1 2.63783 11.8106 7.55812
126 2 2.05609 12.4992 8.38444
203 2 2.98574 10.7986 7.9634
276 3 9.95642 9.47672 2.19366
275 3 9.03729 7.36233 0.662708
45 4 4.18822 13.7161 2.45408
189 2 7.32223 12.3273 4.5826
59 4 6.30979 11.5905 1.62345
83 1 5.31775 8.2452 2.67829
125 2 4.81559 7.94237 1.5152
176 2 5.23873 10.4133 0.847662
177 2 6.34636 8.7505 2.58761
178 2 6.90986 10.6404 3.1786
280 3 5.23023 12.6782 1.84564
285 3 4.38604 10.7803 4.71458
187 2 7.86535 10.4895 5.09446
87 1 7.14751 11.147 4.49858
188 2 4.63873 8.82593 3.4471
289 3 7.57506 11.6657 0.551793
200 2 3.56126 10.7739 0.860963
123 2 7.80065 12.5844 0.938572
62 4 5.65576 11.2185 5.57554
350 2 4.23721 13.262 5.51861
88 1 5.15857 13.2237 6.09173
201 2 3.58555 12.3611 6.97921
156 2 3.99737 8.80892 6.13618
94 2 7.00579 13.0211 6.81809
157 2 4.1108 8.38566 7.95663
191 2 5.06624 13.2895 7.15385
76 1 3.54489 8.16771 6.98145
182 2 7.37806 7.37155 8.37678
286 3 6.06586 10.423 6.95881
85 1 7.60623 8.25731 7.67578
183 2 8.69552 8.71526 7.74695
60 4 6.53759 9.60735 8.33997
184 2 7.23845 8.01334 6.61664
180 2 8.96323 9.17079 4.24438
84 1 9.60495 8.56728 5.07575
179 2 9.51352 9.00083 6.06791
347 2 5.0688 7.16343 0.165721
190 2 6.01979 13.8422 5.63676
124 2 7.94618 10.0282 17.2759
61 4 2.10306 11.1002 10.7058
290 3 5.73844 10.6759 12.8176
284 3 1.10391 12.2083 11.3406
326 1 2.55987 7.59515 17.6579
316 4 7.84671 11.994 10.0031
91 1 2.12679 10.8094 17.6796
199 2 1.70841 12.1745 16.9757
256 3 0.0733453 13.0055 13.5828
288 3 2.20259 10.1874 14.6894
273 3 6.71889 7.25259 11.0002
195 2 3.22656 12.9561 14.5982
202 2 3.30771 10.3906 12.0986
14 4 10.388 7.64072 9.70109
56 4 8.14963 7.46666 11.7154
197 2 4.84907 13.6758 14.9817
266 3 3.9159 7.51146 11.3591
53 4 5.22854 7.46646 10.3732
127 2 3.41884 12.2869 9.8518
319 3 6.66171 12.46 10.9744
281 3 5.19614 8.61042 9.33065
282 3 7.49827 10.6401 9.2692
205 2 4.55939 10.1971 10.1648
93 1 4.12226 11.0878 10.7497
65 4 5.45754 11.84 11.7731
64 4 2.9953 11.0911 15.7852
272 3 9.3024 8.19171 10.8095
204 2 3.97923 12.7136 11.8979
116 2 3.74625 10.0923 17.1036
333 2 3.57315 13.2077 17.0312
96 2 8.31108 9.0032 15.8479
287 3 7.81483 8.67579 12.9507
90 1 4.08678 12.978 15.3989
196 2 4.90884 11.5145 15.3227
339 2 5.14085 8.09312 13.6683
89 1 5.99059 8.9035 15.2224
192 2 6.50493 9.92286 15.6021
193 2 6.42593 7.9533 15.6741
194 2 4.81192 9.00592 15.1753
63 4 6.41262 9.31941 13.4027
198 2 1.326 10.1046 17.4446
155 2 -0.226138 12.556 17.566
327 2 2.41222 8.83412 17.6205
21 4 9.82785 8.03494 15.6916
118 2 3.9561 7.32246 15.7858
ITEM: TIMESTEP
100
ITEM: NUMBER OF ATOMS
350
ITEM: BOX BOUNDS xy xz yz pp pp pp
-9.3513155604862011e+00 1.5608457727936326e+01 -7.8832367203359333e+00
4.0119664078240458e-01 1.3960526826327030e+01 -1.5378211122139989e+00
-1.4695996115413124e-01 1.7785259961154189e+01 1.4232346710932497e-01
ITEM: ATOMS id type x y z
207 3 -0.452676 1.57508 4.93493
304 3 -0.585033 1.70745 2.14791
74 1 0.387508 5.42571 3.59064
150 2 1.13055 4.55348 4.00244
151 2 0.656832 5.72167 2.55828
152 2 -0.742942 5.22361 3.7752
224 3 2.04267 2.84601 5.08845
299 4 -0.177605 2.59987 0.896613
300 1 1.62874 3.2052 1.2409
301 2 2.19028 3.31959 0.273363
237 3 2.14184 6.34802 5.80717
12 4 -2.16092 5.36603 0.623979
340 2 -1.71657 3.55936 3.87733
70 1 2.7631 0.979339 3.17831
4 2 -1.89674 4.78839 5.13849
31 4 0.954384 6.7711 4.74685
314 3 -2.77253 6.0344 2.37263
210 3 -1.25808 4.00967 0.740453
97 2 -3.2058 6.4546 5.58538
32 4 2.39443 6.89764 0.534393
302 2 2.06514 2.46742 1.93334
232 3 2.8799 5.82017 1.68632
303 2 1.35928 4.16857 1.78087
141 2 1.62738 0.966528 3.12006
140 2 3.18071 0.871924 2.08855
9 4 0.67445 2.42428 5.9905
213 3 -1.53514 5.69428 7.5
13 4 -0.760028 4.32919 7.83641
208 3 1.15357 1.3515 7.08323
212 3 0.0459826 3.79553 6.49506
233 3 4.23706 2.59601 8.51428
227 3 6.6445 1.0722 6.83068
243 3 -1.28404 6.50769 0.0159084
23 4 3.39106 2.4126 4.36073
230 3 3.79295 3.53358 3.14796
30 4 4.20486 4.80086 2.18032
108 2 4.33595 2.75193 1.13993
226 3 4.47552 1.66487 5.26726
348 2 5.81852 1.32839 1.68393
71 1 4.69349 3.81705 0.670112
211 3 -2.08845 3.11281 8.14395
33 4 5.02536 3.96594 7.91603
26 4 6.01265 2.04154 5.79652
238 3 4.19517 5.21552 7.46507
15 4 -1.85687 6.94165 6.59709
154 2 6.94084 1.53939 0.292331
35 4 3.7537 6.38497 6.35148
147 2 5.34279 2.89785 10.6686
292 1 4.12902 0.863448 14.6374
34 4 0.521491 5.97975 10.0075
236 3 -0.978164 6.48633 10.4747
244 3 1.5806 6.05552 11.2002
145 2 1.68717 1.58385 9.38664
66 1 -0.236048 2.31135 11.384
128 2 -0.0101205 3.12512 10.6049
72 1 2.9094 1.82627 10.8173
17 4 -2.20851 7.03495 11.231
107 2 1.72694 2.02745 11.1104
129 2 -0.0558779 1.31644 11.0321
310 2 4.94806 1.69904 16.2267
242 3 -0.0765179 6.3523 17.2551
305 3 -1.52189 2.00864 17.4466
235 3 0.280942 4.391 9.21318
130 2 1.02464 2.54828 12.5435
214 3 -0.830543 4.42152 13.4606
16 4 -1.50487 5.77986 13.9921
6 4 -0.528653 1.53274 16.128
228 3 1.07833 2.52442 16.3408
28 4 2.35845 3.39935 16.4601
216 3 -2.70345 6.22841 12.8796
10 4 -0.749778 2.89459 13.1745
209 3 -1.10305 1.71063 14.6733
241 3 -1.91554 5.89124 15.5116
37 4 -1.5801 6.67527 16.7978
98 2 -0.176814 6.91782 13.9265
239 3 2.99103 4.10903 15.2258
38 4 2.67275 7.01453 12.0398
297 2 4.21304 1.89802 14.962
143 2 3.54106 2.30227 17.1613
146 2 3.5008 2.74843 10.9765
25 4 3.44966 1.33331 9.08769
206 2 -1.91185 2.31403 11.8128
144 2 3.32628 0.854822 11.3776
245 3 3.26804 6.03886 13.2543
106 2 2.00911 4.81215 17.5846
104 2 4.82867 1.77416 12.2887
294 2 3.28032 0.701824 13.9222
328 2 2.44788 7.17971 16.8171
248 3 1.15471 7.16888 8.87354
149 2 6.35031 1.34485 11.128
73 1 5.7556 2.22561 11.5456
215 3 -3.56313 7.17432 10.4158
139 2 -4.73468 13.564 3.84523
219 3 -5.03639 11.2781 4.35559
186 2 -5.26067 11.6942 0.37981
99 2 -4.61039 13.3296 1.14309
86 1 -4.34387 12.1515 0.915006
18 4 -5.15398 11.0532 2.71548
349 2 -6.04998 12.3014 1.9789
133 2 -3.88895 8.11755 0.377882
185 2 -3.43544 11.5112 2.29679
122 2 -3.34951 7.45596 2.00568
218 3 -2.38929 8.24993 7.36923
231 3 -0.788181 7.17018 5.50702
20 4 -4.71229 11.5152 5.8835
7 4 -6.90764 13.111 7.44682
19 4 -3.56315 9.48989 7.87475
220 3 -4.12695 10.2076 6.54506
221 3 -5.93033 12.1792 6.64737
100 2 -3.49782 12.6823 5.86282
252 3 0.648169 9.29959 7.18342
313 2 -2.95421 9.91964 3.92696
162 2 -0.809056 13.2961 1.00791
309 2 -0.811096 8.04603 2.72844
115 2 -1.81989 13.1089 2.65337
306 4 -2.35597 8.9231 2.31509
308 1 -1.36228 9.47035 3.82682
315 3 -2.37343 9.93808 1.03699
312 2 -1.10044 8.53197 4.59866
39 4 1.63356 8.97841 2.52419
153 2 0.0554764 9.68268 2.47991
246 3 1.53493 7.92683 3.73528
311 2 -0.727838 10.3679 3.93155
247 3 1.90537 8.30006 1.11446
217 3 -4.83246 8.79538 8.63803
345 2 -0.525567 11.9683 0.0601198
110 2 -0.436245 9.44699 7.29631
249 3 -2.92895 10.6637 8.73318
78 1 -1.29767 13.8145 1.98941
24 4 -0.59412 13.5001 7.86633
181 2 -4.72071 8.55143 4.26378
253 3 0.11812 12.2712 7.05249
307 4 -3.26982 10.7705 -0.0848478
112 2 -1.44532 8.34972 16.4073
75 1 -1.4523 12.6619 17.2839
318 3 -7.05518 12.936 8.98296
134 2 -4.38751 12.6407 17.7271
317 2 -6.566 11.6359 11.2037
113 2 -3.46897 9.13822 12.2038
103 2 -5.66633 10.0413 12.1634
222 3 -5.60839 11.1298 12.3927
135 2 -5.11478 8.29819 14.1504
283 3 1.46545 9.82579 9.73907
102 2 -4.43629 8.3451 16.78
344 2 -4.30885 13.2471 15.9509
320 1 -8.00943 13.1557 16.2545
321 2 -6.87121 13.1879 16.3693
335 2 -4.80747 10.3052 16.1377
22 4 -3.92944 10.8308 12.4047
68 1 -6.04717 9.37066 16.9985
43 4 1.10974 9.44849 13.7042
223 3 -3.55724 11.269 13.9349
77 1 0.0720776 8.52909 15.0786
251 3 -2.90871 11.9831 11.1002
41 4 -2.8091 12.108 9.42301
111 2 -0.90895 8.80386 9.75625
250 3 -1.45602 12.8725 9.06325
40 4 0.629178 8.72264 9.01525
69 1 -1.60863 8.87529 11.6205
136 2 -0.479269 8.61936 11.4199
334 2 -1.7979 13.8128 17.324
138 2 -1.79722 9.95223 11.1404
114 2 -1.58189 11.9852 11.7513
254 3 1.7146 8.38046 12.7255
255 3 -0.0548317 10.449 13.0016
291 4 -3.01022 12.5098 14.7671
44 4 -0.0291706 11.9986 12.5221
296 2 -1.52691 12.0289 15.8013
159 2 -0.873479 8.4526 14.4914
137 2 -1.88464 8.79061 12.772
160 2 0.104342 9.40155 15.8986
225 3 -3.90089 13.2785 8.9185
161 2 0.692281 7.56713 15.3671
295 2 -2.32712 13.8281 13.6381
322 2 -8.34126 12.7961 15.174
257 3 6.99026 1.99718 4.32564
262 3 5.63604 5.47437 2.56861
46 4 7.66112 1.51801 3.02797
260 3 8.68542 2.52232 2.20455
263 3 4.96437 6.60824 5.14402
264 3 9.14205 4.71479 0.83213
51 4 8.26799 5.94869 0.596494
330 2 6.88018 5.9371 1.58436
50 4 5.91043 6.86173 3.87536
54 4 9.09626 6.78367 4.6302
79 1 10.4079 2.3629 0.0276934
336 2 8.59913 0.92274 8.68728
234 3 6.07909 3.5187 6.67774
1 4 14.2786 1.94711 3.61649
119 2 7.61529 4.8666 7.98751
95 2 11.5292 4.99804 8.29369
52 4 9.15175 5.49691 7.58395
269 3 9.14075 6.1603 6.20668
2 1 12.5331 4.60617 4.94674
268 3 7.44993 6.94777 4.25614
3 2 12.3194 3.45192 4.71205
49 4 9.78216 3.48236 1.51623
267 3 10.2715 6.05134 3.71628
11 4 11.6634 5.19545 3.26205
261 3 11.2318 3.86862 2.51727
131 2 11.3066 2.39803 7.08546
5 3 12.7689 1.21935 3.67986
337 2 9.88954 1.4042 0.156472
117 2 11.3119 1.30165 1.40047
8 4 11.9396 3.17364 8.46844
132 2 10.7654 4.09894 6.14449
342 2 11.8424 4.90921 5.85868
120 2 9.4791 3.25061 7.44636
67 1 10.3746 4.12371 7.22698
142 2 5.78894 3.94707 0.38061
164 2 12.0062 2.16264 -0.109913
82 1 6.15961 4.6197 9.31394
173 2 7.06014 3.73621 9.34886
174 2 6.48798 5.64842 9.0127
121 2 4.9092 6.17591 9.37938
175 2 5.52874 4.59436 10.2743
80 1 8.35337 2.274 9.62024
168 2 7.41339 2.23334 10.3655
169 2 8.40764 3.222 9.00687
298 2 6.58837 2.48652 16.993
343 2 9.64366 6.06284 17.7092
346 2 5.0416 3.36051 17.3782
165 2 8.36821 3.13489 17.1407
331 2 5.96857 6.04051 17.0044
148 2 7.00778 3.69186 11.7011
274 3 8.55887 6.23718 12.4247
109 2 4.26113 6.02308 16.6257
29 4 6.28385 3.15846 13.1951
229 3 7.38549 2.36534 13.9812
240 3 5.24285 4.14942 13.8288
329 1 4.65071 6.4887 15.5783
332 2 5.81498 6.20704 15.2863
258 3 9.39427 1.16538 15.3013
170 2 8.91027 3.8809 14.2749
325 2 9.35202 6.30933 16.0341
270 3 9.45626 4.71239 14.5207
27 4 7.92349 0.979464 14.5787
81 1 11.5156 2.89509 15.5849
338 2 11.3489 5.73455 12.8092
167 2 9.0901 1.07731 10.995
48 4 9.85052 2.61956 10.6369
259 3 11.2413 2.4193 9.85035
324 2 9.94762 4.15059 17.4223
36 4 3.9848 5.1456 14.3606
271 3 9.75503 3.76859 11.726
101 2 10.9268 5.58685 16.3594
166 2 12.1461 2.36137 14.7052
55 4 9.73364 5.06122 12.8288
47 4 10.8038 1.34406 16.1086
172 2 10.6941 3.6639 15.1383
323 1 10.3892 5.30699 17.3749
293 1 5.51199 2.32924 17.2129
171 2 12.2321 3.33438 16.4054
265 3 9.69716 6.35972 8.84987
105 2 6.93288 0.59366 15.9137
163 2 0.305681 13.2283 2.96503
57 4 9.88359 8.60121 0.717282
279 3 1.79427 11.3507 5.09904
58 4 2.87334 11.3007 3.89931
277 3 2.66908 10.1112 2.76114
278 3 2.94344 12.6997 3.15585
42 4 1.22945 11.3103 6.55707
92 1 2.68066 11.7056 7.55946
126 2 2.12302 12.4709 8.32282
203 2 3.0489 10.6878 8.06961
276 3 9.93486 9.59835 1.98466
275 3 9.02159 7.32722 0.67015
45 4 4.18465 13.7156 2.54482
189 2 7.31485 12.5757 4.72772
59 4 6.30201 11.566 1.42879
83 1 5.37199 8.24896 2.81628
125 2 4.92713 7.98219 1.70375
176 2 5.428 10.2028 0.595995
177 2 6.36672 8.8171 2.73734
178 2 6.69813 10.8106 3.08944
280 3 5.09882 12.6223 1.67831
285 3 4.48727 10.8594 4.56247
187 2 8.04193 10.7843 5.12405
87 1 7.2056 11.4149 4.60435
188 2 4.59882 8.69466 3.57807
289 3 7.63273 11.8149 0.55423
200 2 3.78275 10.7409 0.707968
123 2 7.80342 12.6809 1.16109
62 4 5.70763 11.1244 5.51555
350 2 4.19535 13.2846 5.87938
88 1 5.26691 13.0561 6.24132
201 2 3.60612 12.182 7.04887
156 2 4.47962 8.67946 6.3451
94 2 7.12904 12.7505 6.78382
157 2 4.26609 8.06902 8.17017
191 2 5.34858 13.1061 7.39626
76 1 3.8114 8.07516 7.13731
182 2 7.24939 7.41053 8.30918
286 3 5.97893 10.29 6.9374
85 1 7.66389 8.25275 7.65046
183 2 8.72242 8.47915 7.93778
60 4 6.56843 9.63651 8.30883
184 2 7.55824 8.15368 6.49651
180 2 8.93183 9.16502 4.38514
84 1 9.81393 8.51566 4.83823
179 2 9.90984 8.68736 5.94241
190 2 6.04821 13.7956 5.80565
158 2 2.66709 8.29763 7.09332
347 2 5.06355 7.15835 0.404205
326 1 4.15613 7.51467 -0.0911042
327 2 4.14249 8.67119 -0.128959
124 2 7.87103 9.93917 17.1844
61 4 2.03106 11.0157 10.7108
290 3 5.84148 10.7437 12.9194
284 3 1.09183 12.1059 11.4525
341 2 6.97351 12.634 17.199
316 4 7.77262 11.9309 9.98405
91 1 2.29507 10.7848 17.5446
199 2 2.1017 12.2612 17.0468
256 3 0.0167113 13.2465 13.5488
288 3 2.253 10.4904 14.5357
273 3 6.63122 7.339 10.954
195 2 3.31355 13.0377 14.471
202 2 3.17586 10.3313 12.0164
14 4 10.5099 7.66904 9.73104
56 4 8.03329 7.55696 11.7137
197 2 4.86738 13.8388 14.9932
266 3 4.05272 7.53427 11.4463
53 4 5.21103 7.54445 10.3863
127 2 3.39707 12.3428 9.8257
319 3 6.33952 12.5948 10.8079
281 3 5.32871 8.85261 9.49777
282 3 7.44105 10.5537 9.26225
205 2 4.51481 10.3773 10.2246
93 1 4.01728 11.314 10.7625
65 4 5.44111 11.8517 11.8453
64 4 3.15292 11.1249 15.6499
272 3 9.3018 8.11745 10.7534
204 2 3.93518 12.6928 12.1517
116 2 3.73132 9.8713 16.8507
333 2 3.6632 13.2039 16.9517
96 2 8.33757 9.12707 15.5066
287 3 7.70501 8.66636 12.9405
90 1 4.12952 13.0264 15.3231
196 2 4.99817 11.5761 15.1438
339 2 5.00507 8.19394 13.7831
89 1 5.91501 8.95218 15.2945
192 2 6.39532 10.1387 15.5614
193 2 6.56429 8.12881 15.7582
194 2 4.86316 8.8385 15.7899
63 4 6.30356 9.34688 13.4582
198 2 1.3946 10.0963 17.2932
155 2 -0.409026 12.5612 17.6313
118 2 4.3212 7.553 15.5182
21 4 9.71787 8.00593 15.6352
ITEM: TIMESTEP
200
ITEM: NUMBER OF ATOMS
350
ITEM: BOX BOUNDS xy xz yz pp pp pp
-9.3513155604862011e+00 1.5608457727936326e+01 -7.8832367203359333e+00
4.0119664078240458e-01 1.3960526826327030e+01 -1.5378211122139989e+00
-1.4695996115413124e-01 1.7785259961154189e+01 1.4232346710932497e-01
ITEM: ATOMS id type x y z
207 3 -0.42155 1.60308 4.91836
304 3 -0.554684 1.79717 2.30449
74 1 0.431234 5.42521 3.55604
150 2 0.937441 4.54316 4.14501
151 2 0.782762 5.57937 2.47497
152 2 -0.699328 5.39951 3.61179
224 3 2.03632 2.68631 5.13818
299 4 -0.391614 2.56027 0.858537
300 1 1.36534 3.07741 1.21576
301 2 1.76104 3.15557 0.126493
237 3 2.34922 6.07027 5.48801
12 4 -2.01208 5.51987 0.720406
340 2 -1.84765 3.56648 3.88832
70 1 2.85178 0.891055 3.19695
4 2 -2.17852 4.95962 5.00569
31 4 0.986433 6.79874 4.64846
314 3 -2.83901 6.12768 2.35798
210 3 -1.42151 3.98784 0.841201
97 2 -3.03022 6.44033 5.50378
32 4 2.55517 6.79271 0.691085
302 2 1.92738 2.2518 1.94967
232 3 3.15511 5.66138 1.76623
303 2 1.30554 4.05705 1.70014
141 2 1.74809 0.664938 3.40516
140 2 3.14846 1.03995 2.03956
9 4 0.720844 2.47056 6.05612
213 3 -1.57086 5.68085 7.55634
13 4 -0.804606 4.32214 7.92567
208 3 1.15393 1.46925 7.20812
212 3 -0.033553 3.74402 6.56068
233 3 4.34921 2.62659 8.43408
227 3 6.62077 0.848893 6.86225
243 3 -1.00368 6.55648 -0.0147118
23 4 3.37224 2.37305 4.38312
230 3 3.89136 3.53357 3.37722
30 4 4.29405 4.54327 2.18014
108 2 4.49408 2.59882 0.870345
226 3 4.59504 1.80501 5.27962
348 2 5.75907 1.59562 1.80216
71 1 4.64634 3.63539 0.561217
211 3 -1.97824 3.14872 8.31902
33 4 5.03535 4.0347 7.82382
26 4 6.07454 1.96188 5.88113
238 3 4.12375 5.2615 7.42125
15 4 -1.82717 6.91801 6.57735
154 2 6.77303 1.47237 0.248981
142 2 5.7417 3.91293 0.128839
35 4 3.78148 6.4219 6.21383
106 2 3.29104 4.34507 -0.125322
147 2 5.55182 2.30528 10.6634
292 1 4.10493 0.761407 14.791
34 4 0.623981 6.0299 10.0308
236 3 -0.918004 6.35923 10.8464
244 3 1.80422 5.98455 11.185
145 2 1.77735 1.70483 9.17814
66 1 -0.319634 2.39819 11.3353
128 2 0.0751896 3.19789 10.5732
72 1 2.85251 1.70511 10.8064
17 4 -2.29243 6.92861 11.2454
107 2 1.58846 1.98913 11.0235
129 2 -0.112927 1.39985 10.9133
310 2 5.07869 1.62527 16.2539
242 3 0.0303088 6.16469 17.3465
305 3 -1.68925 1.87673 17.3739
235 3 0.390504 4.52184 9.35136
130 2 0.916886 2.60459 12.6082
214 3 -1.02579 4.38716 13.5558
16 4 -1.5822 5.79974 13.9314
6 4 -0.417332 1.55212 15.9732
228 3 1.01086 2.37936 16.1341
28 4 2.27404 3.37734 16.417
216 3 -2.79257 6.26106 12.8659
10 4 -0.838279 2.79808 13.2455
209 3 -1.17148 1.61614 14.3382
241 3 -1.91931 5.96354 15.5024
37 4 -1.41751 6.64246 16.7943
98 2 -0.316579 6.93068 13.7313
239 3 3.01992 4.22969 15.3173
38 4 2.644 7.09546 12.0968
297 2 4.13897 1.86344 15.0562
143 2 3.58851 2.40129 17.0091
146 2 3.48598 2.577 11.147
25 4 3.54242 1.38292 9.03567
206 2 -1.82465 2.52457 11.5769
144 2 3.13437 0.708216 11.2534
245 3 3.34002 6.13071 13.2694
215 3 -3.68744 7.10264 10.4961
104 2 4.75319 1.67631 12.4407
73 1 5.81251 1.92587 11.6777
294 2 3.41314 0.619799 13.8942
139 2 -4.323 13.5757 3.69739
219 3 -5.0285 11.299 4.34487
186 2 -5.34346 11.693 0.250606
99 2 -4.76588 13.1423 1.30698
86 1 -4.4517 12.1501 0.980687
18 4 -5.2625 11.0216 2.72817
349 2 -6.08766 12.3373 2.08615
133 2 -4.10989 8.12156 0.485582
185 2 -3.47704 11.3963 2.27617
122 2 -3.66183 7.57915 2.29304
218 3 -2.49347 8.2837 7.30393
231 3 -0.560708 7.22792 5.73186
20 4 -4.69951 11.6127 5.85598
7 4 -6.9148 13.2102 7.4394
19 4 -3.51691 9.56877 7.8531
220 3 -4.13383 10.3358 6.58389
221 3 -6.00391 12.2873 6.56813
100 2 -3.4359 12.7347 5.88561
252 3 0.75832 9.30119 7.11237
313 2 -2.71391 9.76907 4.02155
162 2 -0.850957 13.329 1.09688
309 2 -0.821761 8.01218 2.37556
115 2 -2.10602 12.9908 2.55635
306 4 -2.42648 8.86068 2.25153
308 1 -1.28378 9.31699 3.67723
315 3 -2.55706 9.84086 0.939733
312 2 -1.02642 8.48521 4.4527
39 4 1.59443 9.02717 2.50506
153 2 0.00127018 9.84156 2.31127
246 3 1.34318 8.03541 3.73175
311 2 -0.600222 10.2182 3.88838
247 3 1.67122 8.20907 1.20387
217 3 -4.80666 8.84244 8.62139
345 2 -0.68023 11.7351 0.00855221
110 2 -0.404573 9.34662 7.14133
134 2 -2.91379 12.5608 -0.0129385
158 2 2.40898 8.1186 7.24011
24 4 -0.598145 13.3144 7.89572
181 2 -4.79218 8.53431 4.22834
253 3 0.0930714 12.1695 7.06892
307 4 -3.32587 10.7578 -0.135939
78 1 -1.46353 13.8285 2.00634
163 2 -0.0236345 13.2094 3.14429
112 2 -1.22841 8.34737 16.291
75 1 -1.428 12.5917 17.5157
318 3 -6.99613 12.9858 9.03407
248 3 0.999225 7.26587 9.01106
317 2 -6.58923 11.4697 11.1924
113 2 -3.54564 9.39177 11.9565
103 2 -5.82943 10.0503 12.1586
222 3 -5.68759 11.14 12.3515
135 2 -4.77506 8.13429 14.3417
283 3 1.35152 9.83534 9.90483
102 2 -4.36017 8.64917 16.8324
344 2 -4.31102 13.1071 16.0964
320 1 -7.82185 13.2087 16.1459
321 2 -6.71245 13.282 16.3248
335 2 -4.99804 10.6084 16.0173
22 4 -3.95713 10.9978 12.3838
68 1 -6.06731 9.43963 17.0613
43 4 1.14115 9.54143 13.7425
223 3 -3.47726 11.4184 13.9252
77 1 0.225379 8.34372 14.9649
251 3 -3.16552 11.9163 11.2948
41 4 -2.90167 12.1956 9.32836
111 2 -1.07135 8.90466 9.52909
250 3 -1.48424 12.842 9.16206
40 4 0.566749 8.84583 8.97161
69 1 -1.69548 8.80063 11.3834
136 2 -0.569298 8.79752 11.3869
334 2 -1.75886 13.6622 17.4779
138 2 -2.19742 9.60382 10.6454
114 2 -1.65573 11.9485 11.7861
254 3 1.79312 8.27808 12.7929
255 3 -0.0143128 10.6091 13.17
291 4 -2.94459 12.4603 14.926
295 2 -2.28843 13.8454 13.9862
296 2 -1.37527 11.9506 15.8838
159 2 -0.883608 8.34966 14.561
137 2 -2.04984 8.86513 12.5109
160 2 0.423131 9.21896 15.8641
225 3 -3.98911 13.2533 8.83097
161 2 0.692181 7.31937 15.1658
322 2 -8.11561 12.719 15.196
341 2 -8.49137 12.7786 17.0943
21 4 -5.69488 8.06254 15.7996
249 3 -2.7663 10.649 8.82955
257 3 7.03626 2.1076 4.51771
262 3 5.60057 5.44011 2.42506
46 4 7.52025 1.52342 3.10062
260 3 8.61414 2.43454 2.39847
263 3 4.89807 6.67628 5.11177
264 3 9.07707 4.61076 0.716481
51 4 8.30125 5.89107 0.557973
330 2 6.95285 5.80714 1.53468
50 4 5.86432 6.84079 3.74768
54 4 9.14161 6.86929 4.62479
79 1 10.5172 2.40975 -0.0732164
347 2 5.01534 7.01 0.525294
234 3 6.17566 3.59771 6.66877
1 4 14.1927 1.94141 3.62822
119 2 7.6666 4.89901 8.1697
95 2 11.5102 4.73241 8.54124
52 4 9.22427 5.46287 7.62811
269 3 9.21969 6.27689 6.26658
2 1 12.3172 4.57826 4.8645
268 3 7.54169 7.00864 3.95464
3 2 12.2065 3.45204 4.6809
49 4 9.75864 3.31591 1.4899
267 3 10.3979 6.0933 3.67717
11 4 11.5499 5.13917 3.15568
261 3 11.0125 3.74005 2.35297
131 2 11.287 2.3801 7.04649
5 3 12.8423 1.09511 3.53644
337 2 10.011 1.42855 -0.008644
117 2 11.2848 1.19731 1.26609
8 4 12.0332 3.00355 8.55637
132 2 10.7629 3.96948 6.20962
342 2 11.5798 4.93304 5.69177
120 2 9.43487 3.26044 7.5364
67 1 10.382 4.05976 7.2864
343 2 11.3454 6.11435 0.179625
336 2 8.64304 0.789722 8.66661
190 2 13.9238 0.539203 5.66978
82 1 6.09708 4.53273 9.39881
173 2 6.97495 3.70298 9.53082
174 2 6.59464 5.5545 9.3594
121 2 4.86332 6.08305 9.55852
175 2 5.12272 4.41295 10.1813
80 1 8.38191 2.27932 9.71304
168 2 7.39477 2.19424 10.4039
169 2 8.39599 3.23038 8.97934
298 2 6.68362 2.22785 17.2236
149 2 6.58838 1.08029 11.6817
346 2 5.11031 3.30878 17.3063
165 2 8.68444 3.23087 16.9663
331 2 5.85597 5.97727 17.1066
148 2 7.11379 3.39679 11.6804
274 3 8.64057 6.25273 12.4288
109 2 4.23163 5.737 16.4703
29 4 6.30595 3.0735 13.2074
229 3 7.258 2.23536 14.1981
240 3 5.20498 4.11467 13.6357
329 1 4.6647 6.32051 15.5172
332 2 5.81226 6.05289 15.1777
258 3 9.50813 1.27678 15.281
170 2 8.92105 4.07475 14.5293
325 2 9.3848 6.46471 16.2529
270 3 9.5861 4.88053 14.649
27 4 7.9441 0.906319 14.6902
81 1 11.6912 3.11729 15.5223
338 2 11.2267 5.56895 12.7396
167 2 9.03664 1.21761 11.1773
48 4 9.82666 2.6863 10.633
259 3 11.1738 2.40475 9.71622
324 2 9.9806 4.30585 17.712
36 4 3.93227 5.12206 14.3042
271 3 9.60368 3.86671 11.7658
101 2 10.8465 5.6086 16.4624
166 2 12.2332 2.61142 14.641
55 4 9.64498 5.08763 12.7603
47 4 10.8792 1.54354 16.0206
172 2 10.775 3.85986 15.1358
323 1 10.4853 5.41697 17.5438
293 1 5.57829 2.21828 17.2428
171 2 12.3679 3.52572 16.3328
265 3 9.89348 6.30485 8.83481
328 2 2.50287 7.18305 16.8248
164 2 10.722 2.34247 17.7233
155 2 1.07475 12.3583 0.168034
57 4 9.77797 8.67459 0.825271
279 3 1.67644 11.2363 4.99017
58 4 2.90008 11.1689 3.93766
277 3 2.76136 10.1398 2.66741
278 3 2.86637 12.959 3.322
42 4 1.37215 11.2651 6.53497
92 1 2.7743 11.6803 7.59169
126 2 2.30778 12.3586 8.44172
203 2 3.01916 10.6124 7.99202