ITEM: TIMESTEP
0
ITEM: NUMBER OF ATOMS
350
ITEM: BOX BOUNDS xy xz yz pp pp pp
-9.2171454933018477e+00 1.5608457727936326e+01 -7.7490666531515799e+00
4.0119664078240458e-01 1.4139849025550113e+01 -1.5378211122139989e+00
-1.4695996115413124e-01 1.7785259961154189e+01 3.2164566633240799e-01
ITEM: ATOMS id type x y z
207 3 -0.430339 1.4202 4.84477
304 3 -0.427242 1.87072 2.23779
74 1 0.720736 5.34174 3.7089
150 2 1.16097 4.4201 4.19584
151 2 1.16262 5.54245 2.6416
152 2 -0.458886 5.36716 3.75285
224 3 1.99632 2.96498 4.95949
299 4 -0.324061 2.66146 0.884549
300 1 1.35093 3.29925 1.39456
301 2 1.77932 3.51458 0.346063
237 3 2.24364 6.3053 5.65498
12 4 -1.99835 5.38392 0.646705
340 2 -1.54966 3.58923 3.93448
70 1 2.87096 1.03549 3.06342
4 2 -1.96236 4.87893 5.11362
31 4 0.984771 6.85808 4.79856
314 3 -2.77575 5.9151 2.32916
210 3 -1.31253 3.87587 0.779656
97 2 -3.06847 6.43995 5.53623
32 4 2.49596 7.00341 0.572415
302 2 1.92263 2.46775 2.02263
232 3 3.11338 5.74031 1.66625
303 2 1.18785 4.34461 2.03182
141 2 1.77913 1.05237 3.12029
140 2 3.28268 1.05066 1.99742
9 4 0.736756 2.43344 5.91253
213 3 -1.45537 5.90936 7.54494
13 4 -0.744834 4.395 7.86017
208 3 1.40034 1.4778 7.01586
212 3 -0.0187466 3.66693 6.53352
233 3 4.26186 2.82489 8.53139
227 3 6.44939 1.00729 6.98863
243 3 -1.17232 6.54735 -0.0459508
23 4 3.38025 2.46368 4.31045
230 3 3.87605 3.63213 3.33251
30 4 4.36526 4.68703 2.07891
108 2 4.5415 2.55996 1.15778
226 3 4.51647 1.77132 5.2384
348 2 5.91787 1.30336 1.72459
71 1 4.7846 3.66443 0.590903
211 3 -1.96772 3.43952 8.19616
33 4 4.95799 4.09465 7.80004
26 4 6.06876 2.08548 5.82895
238 3 4.10921 5.35864 7.4213
15 4 -1.85268 7.06178 6.57609
154 2 6.88964 1.41955 0.202631
35 4 3.68429 6.45959 6.20093
36 4 3.98666 5.14971 14.3087
292 1 3.9902 0.93775 14.5089
34 4 0.572193 6.12208 9.98956
236 3 -0.988852 6.49263 10.687
244 3 1.72102 6.0207 11.0659
145 2 1.66967 1.83165 9.06481
66 1 -0.440842 2.44925 11.362
128 2 -0.224951 3.29061 10.621
72 1 2.61685 1.99058 10.7479
17 4 -2.31987 7.1516 11.248
107 2 1.52026 2.12166 10.9841
129 2 -0.27862 1.4257 10.8751
310 2 4.99491 1.80794 16.0406
242 3 -0.126017 6.64339 17.469
305 3 -1.58773 2.04907 17.2943
235 3 0.225424 4.52686 9.26767
130 2 0.914918 2.5884 12.5883
214 3 -0.76851 4.6066 13.5704
16 4 -1.39155 6.04579 13.9203
6 4 -0.458154 1.80178 16.122
228 3 0.913133 2.68385 16.3146
28 4 2.3074 3.46121 16.4507
216 3 -2.76359 6.50188 12.9181
10 4 -0.623135 3.05609 13.3509
209 3 -0.95808 2.02814 14.4104
241 3 -1.99113 6.04114 15.3929
37 4 -1.55575 6.93702 16.7243
98 2 -0.0557395 7.16338 13.7816
239 3 3.00344 4.24308 15.3083
38 4 2.61859 6.99945 12.1615
297 2 3.79788 2.02758 14.7892
143 2 3.52617 2.36847 17.0306
146 2 3.09776 2.97231 10.9485
25 4 3.45164 1.59911 9.08164
206 2 -1.71289 2.4102 11.7025
144 2 3.16482 1.16735 11.3808
245 3 3.1297 6.04594 13.3517
149 2 6.2403 1.38335 11.6409
104 2 4.7131 2.59703 12.0468
295 2 5.4671 0.875952 13.7302
106 2 1.94398 4.83743 17.5763
328 2 2.41694 7.23715 16.6628
139 2 -4.42099 13.5446 3.60326
219 3 -4.85364 11.4589 4.3612
186 2 -5.04742 11.6514 0.423838
99 2 -4.45672 13.183 1.27491
86 1 -4.1943 12.1481 0.900986
18 4 -4.99954 11.0482 2.76695
349 2 -5.89725 12.2232 1.8982
133 2 -3.7796 8.20881 0.429951
185 2 -3.20096 11.4295 2.17168
122 2 -3.29524 7.53373 2.28726
218 3 -2.45814 8.32934 7.34734
231 3 -0.648695 7.38376 5.67635
20 4 -4.56082 11.6363 5.93462
7 4 -6.81139 13.2921 7.43366
19 4 -3.49471 9.58736 7.84101
220 3 -4.02341 10.1958 6.38756
221 3 -5.81916 12.2608 6.6275
100 2 -3.34908 12.7662 6.21814
252 3 0.730627 9.49513 7.09016
313 2 -2.8409 9.94045 4.0188
162 2 -0.449514 13.2984 0.960941
309 2 -0.794052 8.03519 2.80715
115 2 -1.32243 12.9437 2.65028
306 4 -2.26597 8.93857 2.35952
308 1 -1.22355 9.61195 3.79667
315 3 -2.14452 9.71429 0.992533
312 2 -0.926552 8.6575 4.53312
39 4 1.62089 9.08045 2.56367
153 2 0.1051 9.92189 2.42019
246 3 1.31958 7.98423 3.68876
311 2 -0.535709 10.4883 4.11169
247 3 1.81823 8.34347 1.20909
158 2 2.49737 8.4199 7.09415
345 2 -0.302264 11.8054 0.0209236
110 2 -0.41538 9.60718 7.17114
249 3 -2.73826 10.7962 8.60761
78 1 -0.897022 13.7923 1.92934
24 4 -0.461413 13.4815 7.88767
181 2 -4.79872 8.61292 4.74557
253 3 0.23426 12.4208 6.86701
217 3 -4.75014 8.91066 8.65514
112 2 -1.45967 8.59254 16.2433
75 1 -1.18904 12.752 17.2186
318 3 -6.94811 13.1409 8.9417
294 2 -4.55936 14.0087 13.8252
317 2 -6.23316 11.6548 11.0227
113 2 -3.40018 9.28425 12.266
103 2 -5.68506 10.1211 12.156
222 3 -5.45279 11.189 12.3255
135 2 -5.4057 8.5063 14.0113
283 3 1.52845 10.0202 9.74542
102 2 -4.25099 8.55492 16.7168
344 2 -3.80786 13.678 16.1127
320 1 -7.84716 13.3707 16.3821
321 2 -6.6976 13.4589 16.5138
335 2 -4.41976 10.4689 16.0357
22 4 -3.82585 10.9424 12.4607
68 1 -5.81669 9.61824 17.0225
43 4 1.19828 9.57283 13.7493
223 3 -3.34978 11.61 13.9966
77 1 0.114604 8.63113 15.1019
251 3 -2.93208 11.8645 11.0866
41 4 -2.66294 12.2484 9.34232
111 2 -0.840365 9.12944 9.76793
250 3 -1.2128 12.9061 9.2179
40 4 0.629834 8.91895 8.94922
69 1 -1.58475 8.92119 11.5906
136 2 -0.417953 8.76813 11.4038
248 3 0.986472 7.40465 9.08718
138 2 -2.1015 9.7535 11.0182
114 2 -1.49433 12.1703 11.6475
254 3 1.77033 8.31727 12.8932
255 3 0.0700313 10.6708 13.1397
291 4 -2.71736 12.7995 14.7589
307 4 -4.61578 10.9991 17.7682
296 2 -1.29046 12.1985 15.8095
159 2 -0.917687 8.51929 14.5167
137 2 -1.74196 9.00368 12.7084
160 2 0.0187349 9.4119 16.0413
225 3 -3.81535 13.4883 9.09712
161 2 0.695813 7.71531 15.3626
334 2 -1.66739 13.8663 17.1956
322 2 -8.16622 12.9282 15.3493
44 4 0.00784721 12.05 12.4317
215 3 -3.61674 7.39333 10.4756
134 2 -4.27911 12.8193 17.7497
341 2 -8.33074 12.8711 17.2507
257 3 7.062 2.09063 4.6274
262 3 5.66118 5.54372 2.41718
46 4 7.63184 1.66909 3.11833
260 3 8.79982 2.41253 2.25072
263 3 4.80669 6.7623 5.00473
264 3 9.0057 4.73608 0.940667
51 4 8.32984 6.07737 0.574144
330 2 6.88424 6.24562 1.46628
50 4 5.85949 6.88263 3.76322
54 4 9.12051 6.8615 4.76787
79 1 10.425 2.40761 -0.0858107
336 2 8.62612 1.0421 8.58114
234 3 5.9925 3.64925 6.66358
1 4 14.3651 1.95065 3.58815
119 2 7.67341 5.09074 8.1323
95 2 11.7198 5.01314 8.23352
52 4 9.23641 5.52834 7.64454
269 3 9.06606 6.19835 6.22066
2 1 12.518 4.57765 4.81975
268 3 7.51246 6.9976 4.09848
3 2 12.4107 3.41356 4.51603
49 4 9.75624 3.4465 1.46705
267 3 10.4567 6.0085 3.88892
11 4 11.6779 5.12782 3.11748
261 3 11.2311 3.76392 2.43061
131 2 11.3777 2.45681 7.00706
5 3 12.8165 1.2021 3.5563
337 2 9.98939 1.39618 0.117456
117 2 11.4183 1.38391 1.21673
8 4 12.0296 3.24586 8.41525
132 2 10.5043 4.06134 5.97545
342 2 11.8024 4.876 5.63298
120 2 9.54082 3.31277 7.58611
67 1 10.4551 4.16864 7.13248
142 2 5.89656 3.79603 0.289136
343 2 11.4223 6.10328 -0.105471
82 1 6.12974 4.60325 9.35902
173 2 7.08918 3.83966 9.39367
174 2 6.48779 5.67281 9.15003
121 2 4.9828 6.19475 9.42954
175 2 5.34942 4.45953 10.177
80 1 8.58699 2.49009 9.73264
168 2 7.63204 2.53959 10.4235
169 2 8.75302 3.44554 9.07522
298 2 6.64059 2.61145 16.902
73 1 5.87793 2.45233 11.5564
346 2 4.95713 3.38475 17.2084
165 2 8.28841 3.26895 17.0371
331 2 6.06827 6.1612 16.9349
148 2 7.1446 3.97279 11.5533
274 3 8.85129 6.24065 12.3055
109 2 4.34988 5.72924 16.586
29 4 6.5388 3.39365 13.0983
229 3 7.34073 2.3171 13.8786
240 3 5.43933 4.35591 13.6844
329 1 4.54116 6.43709 15.6973
332 2 5.63112 6.50796 15.374
258 3 9.42329 1.31995 15.2697
170 2 8.73185 4.25076 14.4508
325 2 9.40977 6.65035 16.2919
270 3 9.65965 4.70545 14.6178
27 4 8.00472 1.07263 14.6042
81 1 11.7488 3.05399 15.6318
338 2 11.3985 5.67169 13.0012
167 2 9.19291 1.16356 11.0552
48 4 10.0484 2.66805 10.7705
259 3 11.4065 2.66805 9.90691
324 2 9.90179 4.41712 17.5411
147 2 5.9187 2.85163 10.5285
271 3 9.90459 3.81948 11.8655
101 2 10.8707 5.61139 16.3536
166 2 12.3534 2.3411 14.8088
55 4 9.81953 5.03071 12.8695
47 4 10.8523 1.49501 16.1099
172 2 10.9979 3.75401 15.1208
323 1 10.4963 5.50171 17.4534
293 1 5.48266 2.40272 17.0822
171 2 12.4437 3.60382 16.3107
164 2 10.4786 2.71561 17.5442
105 2 7.05258 0.73036 15.9441
265 3 9.8682 6.39196 8.85412
163 2 0.310778 13.4349 3.38869
57 4 9.97059 8.74585 0.726189
279 3 1.91987 11.5522 4.99384
58 4 3.12569 11.3915 3.92454
277 3 2.79455 10.2105 2.93337
278 3 3.11362 12.8473 3.07122
42 4 1.39181 11.4399 6.42769
92 1 2.75132 11.8876 7.55812
126 2 2.17639 12.5845 8.38444
203 2 3.08907 10.8797 7.9634
276 3 10.047 9.50012 2.19366
275 3 9.10684 7.37042 0.662708
45 4 4.32117 13.7421 2.45408
189 2 7.44111 12.3746 4.5826
59 4 6.42154 11.6082 1.62345
83 1 5.39596 8.27346 2.67829
125 2 4.89087 7.95899 1.5152
176 2 5.33877 10.4232 0.847662
177 2 6.42963 8.77785 2.58761
178 2 7.01199 10.6736 3.1786
280 3 5.35284 12.6981 1.84564
285 3 4.48944 10.8289 4.71458
187 2 7.96582 10.5419 5.09446
87 1 7.2546 11.1934 4.49858
188 2 4.72269 8.86187 3.4471
289 3 7.68765 11.6727 0.551793
200 2 3.66491 10.784 0.860963
123 2 7.9224 12.5952 0.938572
62 4 5.76348 11.2757 5.57554
350 2 4.36537 13.3186 5.51861
88 1 5.2863 13.2861 6.09173
201 2 3.70458 12.4324 6.97921
156 2 4.08095 8.87175 6.13618
94 2 7.13143 13.0907 6.81809
157 2 4.19001 8.4667 7.95663
191 2 5.19454 13.3625 7.15385
76 1 3.62199 8.23899 6.98145
182 2 7.44709 7.45678 8.37678
286 3 6.16551 10.4941 6.95881
85 1 7.68417 8.33553 7.67578
183 2 8.77803 8.7942 7.74695
60 4 6.62898 9.69222 8.33997
184 2 7.31403 8.08098 6.61664
180 2 9.05057 9.2147 4.24438
84 1 9.6862 8.61951 5.07575
179 2 9.59902 9.06298 6.06791
347 2 5.1364 7.16656 0.165721
190 2 6.15374 13.9001 5.63676
124 2 8.04107 10.2024 17.2759
61 4 2.20919 11.2088 10.7058
290 3 5.84016 10.8055 12.8176
284 3 1.22107 12.3232 11.3406
326 1 2.6304 7.7732 17.6579
316 4 7.96184 12.0955 10.0031
91 1 2.22945 10.9877 17.6796
199 2 1.82479 12.3457 16.9757
256 3 0.198298 13.1428 13.5828
288 3 2.29927 10.3357 14.6894
273 3 6.78652 7.36407 11.0002
195 2 3.35094 13.1036 14.5982
202 2 3.40664 10.513 12.0986
14 4 10.4596 7.7392 9.70109
56 4 8.21934 7.58529 11.7154
197 2 4.98062 13.8271 14.9817
266 3 3.98609 7.62652 11.3591
53 4 5.29836 7.57167 10.3732
127 2 3.5369 12.3869 9.8518
319 3 6.78142 12.5712 10.9744
281 3 5.27748 8.7052 9.33065
282 3 7.59992 10.7342 9.2692
205 2 4.65653 10.3002 10.1648
93 1 4.22826 11.1967 10.7497
65 4 5.57098 11.9592 11.7731
64 4 3.10094 11.2504 15.7852
272 3 9.37944 8.30127 10.8095
204 2 4.1014 12.834 11.8979
116 2 3.8418 10.2648 17.1036
333 2 3.69985 13.3794 17.0312
96 2 8.39583 9.16315 15.8479
287 3 7.89654 8.80677 12.9507
90 1 4.21132 13.1335 15.3989
196 2 5.01875 11.6692 15.3227
339 2 5.21668 8.23127 13.6683
89 1 6.07439 9.05719 15.2224
192 2 6.5989 10.0804 15.6021
193 2 6.5002 8.11151 15.6741
194 2 4.89675 9.15914 15.1753
63 4 6.50073 9.45491 13.4027
198 2 1.42163 10.2805 17.4446
155 2 -0.105996 12.7332 17.566
327 2 2.49514 9.0118 17.6205
21 4 9.90293 8.19333 15.6916
118 2 4.02405 7.48178 15.7858
ITEM: TIMESTEP
100
ITEM: NUMBER OF ATOMS
350
ITEM: BOX BOUNDS xy xz yz pp pp pp
-9.2171454933018477e+00 1.5608457727936326e+01 -7.7490666531515799e+00
4.0119664078240458e-01 1.4139849025550113e+01 -1.5378211122139989e+00
-1.4695996115413124e-01 1.7785259961154189e+01 3.2164566633240799e-01
ITEM: ATOMS id type x y z
207 3 -0.454601 1.63909 4.9476
304 3 -0.557029 1.72168 2.15888
74 1 0.433646 5.48303 3.56966
150 2 1.19566 4.61216 3.96376
151 2 0.677798 5.79074 2.53615
152 2 -0.703769 5.27351 3.78263
224 3 2.06216 2.88337 5.06764
299 4 -0.144653 2.61575 0.898934
300 1 1.63039 3.21858 1.24016
301 2 2.27559 3.34374 0.287072
237 3 2.20224 6.39179 5.79779
12 4 -2.11751 5.37689 0.613242
340 2 -1.69487 3.59862 3.86822
70 1 2.79405 1.0069 3.17187
4 2 -1.85614 4.85222 5.09435
31 4 1.02194 6.81397 4.73644
314 3 -2.73615 6.04339 2.35968
210 3 -1.21387 4.00092 0.737636
97 2 -3.123 6.51988 5.5691
32 4 2.44714 6.92122 0.538232
302 2 2.09116 2.48998 1.98476
232 3 2.93393 5.83631 1.69515
303 2 1.39668 4.2139 1.74466
141 2 1.6572 0.989906 3.12455
140 2 3.18395 0.914816 2.0855
9 4 0.68588 2.48737 5.98445
213 3 -1.49316 5.77044 7.51964
13 4 -0.706055 4.406 7.84569
208 3 1.15163 1.42238 7.0871
212 3 0.0713935 3.87193 6.48647
233 3 4.26333 2.6825 8.52127
227 3 6.66014 1.15313 6.84167
243 3 -1.23498 6.51443 0.00842541
23 4 3.40712 2.45098 4.36546
230 3 3.83921 3.56197 3.14227
30 4 4.25935 4.82918 2.17683
108 2 4.39776 2.76816 1.15926
226 3 4.49018 1.72174 5.26805
348 2 5.85463 1.35833 1.68442
71 1 4.73143 3.82468 0.669781
211 3 -2.03745 3.19091 8.17077
33 4 5.06116 4.04044 7.92813
26 4 6.0296 2.11288 5.79728
238 3 4.24706 5.29202 7.48762
15 4 -1.78828 7.01152 6.59423
154 2 6.95052 1.55109 0.286744
35 4 3.80877 6.45942 6.34453
147 2 5.40357 3.03245 10.6733
292 1 4.1245 1.02442 14.6257
34 4 0.582399 6.0801 10.0059
236 3 -0.926428 6.58456 10.4722
244 3 1.63393 6.17798 11.2077
145 2 1.67226 1.68865 9.38077
66 1 -0.229591 2.42746 11.3703
128 2 -0.0039975 3.24305 10.5971
72 1 2.91487 1.92073 10.8036
17 4 -2.13677 7.14854 11.2272
107 2 1.70584 2.12984 11.0922
129 2 -0.0600403 1.42813 11.0228
310 2 4.96626 1.84466 16.2256
242 3 -0.0232891 6.54404 17.2671
305 3 -1.49283 2.18679 17.4623
235 3 0.347591 4.48023 9.22705
130 2 1.00739 2.65374 12.549
214 3 -0.768397 4.56553 13.4597
16 4 -1.45429 5.91798 13.9936
6 4 -0.510552 1.69614 16.1415
228 3 1.09353 2.69314 16.3574
28 4 2.38132 3.5654 16.4861
216 3 -2.64976 6.35697 12.8877
10 4 -0.71243 3.03704 13.1853
209 3 -1.08925 1.87033 14.678
241 3 -1.84751 6.03633 15.5209
37 4 -1.52263 6.84738 16.7972
98 2 -0.106282 7.06338 13.9236
239 3 3.02808 4.25555 15.249
38 4 2.72195 7.14439 12.0217
297 2 4.22712 2.06836 14.9622
143 2 3.54661 2.42058 17.1511
146 2 3.50553 2.84865 10.9622
25 4 3.45718 1.42323 9.08162
206 2 -1.90219 2.45115 11.7632
144 2 3.3164 0.951322 11.3779
245 3 3.31358 6.16998 13.2504
106 2 2.02097 4.99308 17.5768
104 2 4.82988 1.91084 12.2754
294 2 3.28134 0.879177 13.9045
328 2 2.48918 7.36587 16.8089
248 3 1.21445 7.25836 8.87922
149 2 6.37044 1.45532 11.1591
73 1 5.76756 2.3435 11.5614
215 3 -3.48787 7.27928 10.4203
139 2 -4.58687 13.5674 3.77939
219 3 -4.94388 11.3116 4.34332
186 2 -5.1726 11.7253 0.382416
99 2 -4.52076 13.337 1.13017
86 1 -4.2442 12.1837 0.909448
18 4 -5.06482 11.0839 2.70918
349 2 -5.95554 12.3152 1.96303
133 2 -3.8157 8.11124 0.384259
185 2 -3.3304 11.5372 2.28535
122 2 -3.27212 7.49147 2.04225
218 3 -2.31846 8.31925 7.37447
231 3 -0.71021 7.22781 5.50611
20 4 -4.61073 11.567 5.86435
7 4 -6.78513 13.1843 7.44857
19 4 -3.46545 9.5596 7.86529
220 3 -4.01962 10.2736 6.53659
221 3 -5.80961 12.2509 6.63559
100 2 -3.3884 12.7309 5.81052
252 3 0.722384 9.38037 7.19242
313 2 -2.84382 9.97019 3.91906
162 2 -0.669543 13.3051 1.01991
309 2 -0.722604 8.05712 2.73455
115 2 -1.68353 13.1572 2.66411
306 4 -2.26012 8.94849 2.31606
308 1 -1.27283 9.52442 3.8134
315 3 -2.29177 9.93523 1.01075
312 2 -1.01544 8.57929 4.58827
39 4 1.71489 9.02559 2.51982
153 2 0.141323 9.74679 2.46627
246 3 1.61367 7.97105 3.73499
311 2 -0.635721 10.4106 3.93033
247 3 1.98622 8.33501 1.10817
217 3 -4.7436 8.8855 8.63721
345 2 -0.435727 11.9306 0.019309
110 2 -0.358984 9.57198 7.30908
249 3 -2.82243 10.7419 8.74127
78 1 -1.15352 13.847 2.00247
24 4 -0.459058 13.5691 7.87986
181 2 -4.64559 8.62137 4.23989
253 3 0.252273 12.3518 7.06084
307 4 -3.17568 10.7544 -0.0843885
112 2 -1.41132 8.50665 16.3523
75 1 -1.32241 12.8259 17.3016
318 3 -6.93209 13.0115 8.98208
134 2 -4.29078 12.7992 17.7162
317 2 -6.46019 11.7284 11.2069
113 2 -3.34699 9.27832 12.2495
103 2 -5.58883 10.1332 12.1901
222 3 -5.49836 11.2493 12.4084
135 2 -5.00422 8.46974 14.165
44 4 0.0812692 12.1334 12.526
102 2 -4.36343 8.50664 16.7948
344 2 -4.15488 13.4312 15.9626
320 1 -7.86445 13.3211 16.2719
321 2 -6.72713 13.353 16.3947
335 2 -4.71989 10.4855 16.1573
22 4 -3.81628 10.9622 12.425
68 1 -5.95365 9.55627 17.0002
43 4 1.19428 9.58258 13.7006
223 3 -3.44279 11.4264 13.936
77 1 0.166359 8.67036 15.0829
251 3 -2.79837 12.0832 11.1045
41 4 -2.69349 12.1906 9.41677
111 2 -0.838165 8.89781 9.75558
250 3 -1.32897 12.9391 9.0647
40 4 0.714845 8.82607 9.01707
69 1 -1.51037 8.97826 11.6267
136 2 -0.421059 8.76542 11.3774
334 2 -1.68203 13.9607 17.3254
138 2 -1.78496 10.0471 11.1879
114 2 -1.46897 12.1544 11.7793
254 3 1.785 8.51538 12.7158
255 3 0.0426283 10.5893 13.0103
291 4 -2.88951 12.6535 14.7635
161 2 0.723504 7.67264 15.3658
296 2 -1.3378 12.1529 15.7393
159 2 -0.783294 8.65439 14.4792
137 2 -1.76226 8.83263 12.7897
160 2 0.198669 9.48977 15.9223
225 3 -3.77438 13.367 8.90198
295 2 -2.22644 13.9777 13.6931
322 2 -8.19744 12.9876 15.1703
283 3 1.57131 9.93173 9.74233
257 3 7.00233 2.04347 4.31973
262 3 5.69676 5.50607 2.55075
46 4 7.68394 1.55468 3.02976
260 3 8.72361 2.55419 2.20752
263 3 5.02729 6.65477 5.13865
264 3 9.18925 4.74821 0.829143
51 4 8.32026 5.99174 0.604563
330 2 6.96263 5.97711 1.57732
50 4 5.9733 6.88279 3.8655
54 4 9.16015 6.83946 4.62604
79 1 10.4407 2.39574 0.0279449
336 2 8.60253 0.993516 8.71723
234 3 6.10159 3.58717 6.6589
1 4 14.2902 1.97702 3.62262
119 2 7.67097 4.94299 7.98944
95 2 11.5937 5.09105 8.27689
52 4 9.20734 5.58269 7.58964
269 3 9.19233 6.2446 6.2105
2 1 12.5743 4.64995 4.94091
268 3 7.51375 6.9848 4.2441
3 2 12.3637 3.49941 4.69879
49 4 9.8096 3.51322 1.52123
267 3 10.301 6.09839 3.70655
11 4 11.6989 5.23002 3.25823
261 3 11.2635 3.88166 2.52655
131 2 11.3502 2.47554 7.10141
5 3 12.7898 1.24418 3.6929
337 2 9.90111 1.44454 0.174945
117 2 11.3237 1.33342 1.42642
8 4 11.9823 3.25255 8.47834
132 2 10.8207 4.15966 6.15275
342 2 11.8929 4.98308 5.85511
120 2 9.52385 3.33886 7.45699
67 1 10.4269 4.20731 7.23549
142 2 5.83094 3.94114 0.364059
164 2 12.0034 2.1986 -0.127585
82 1 6.20456 4.70248 9.3169
173 2 7.09044 3.80878 9.34421
174 2 6.54809 5.73235 9.03321
121 2 4.96876 6.27548 9.38964
175 2 5.55747 4.66481 10.2613
80 1 8.37246 2.35151 9.64426
168 2 7.42873 2.32183 10.3837
169 2 8.42304 3.29281 9.01413
298 2 6.59735 2.64456 16.9694
343 2 9.69405 6.27096 17.6963
346 2 5.03698 3.52404 17.3459
165 2 8.41919 3.34752 17.1405
331 2 6.0675 6.29765 17.0054
148 2 7.01818 3.82267 11.6976
274 3 8.62998 6.36493 12.4079
109 2 4.37417 6.35937 16.6992
29 4 6.31172 3.29623 13.1894
229 3 7.40991 2.50361 13.9807
240 3 5.27536 4.29117 13.8244
329 1 4.69612 6.60761 15.5892
332 2 5.83997 6.38257 15.3201
258 3 9.39979 1.30321 15.2995
170 2 8.90027 4.05272 14.2782
325 2 9.38914 6.48266 16.0089
270 3 9.48285 4.84725 14.5181
27 4 7.93298 1.11745 14.5703
81 1 11.5272 3.04061 15.5807
338 2 11.4089 5.85803 12.784
167 2 9.12518 1.19626 11.0142
48 4 9.88249 2.72972 10.6402
259 3 11.2713 2.51675 9.86144
324 2 9.98155 4.34879 17.4176
36 4 4.03182 5.27847 14.3617
271 3 9.79874 3.88775 11.7266
101 2 10.9745 5.77925 16.3474
166 2 12.1747 2.51081 14.7056
55 4 9.77944 5.18904 12.8257
47 4 10.8123 1.48814 16.1086
172 2 10.7002 3.81976 15.1124
323 1 10.435 5.50095 17.3652
293 1 5.52109 2.49622 17.194
171 2 12.244 3.48714 16.3866
265 3 9.76409 6.44874 8.85457
105 2 6.94139 0.722473 15.9072
163 2 0.45335 13.2585 2.96945
57 4 9.96058 8.6158 0.740658
279 3 1.90249 11.4072 5.09267
58 4 2.98353 11.3431 3.89946
277 3 2.75289 10.1521 2.75428
278 3 3.07579 12.739 3.15794
42 4 1.34534 11.3767 6.55193
92 1 2.80382 11.7655 7.54997
126 2 2.23174 12.544 8.31449
203 2 3.1689 10.7565 8.07063
276 3 10.0236 9.6161 1.9861
275 3 9.08717 7.34871 0.699117
45 4 4.33021 13.7309 2.55389
189 2 7.47411 12.6458 4.6584
59 4 6.41829 11.5756 1.43635
83 1 5.44712 8.28968 2.79322
125 2 5.00073 8.00029 1.69701
176 2 5.53701 10.2213 0.596269
177 2 6.40598 8.85054 2.69938
178 2 6.81976 10.8162 3.09102
280 3 5.23318 12.6382 1.70196
285 3 4.59267 10.8901 4.55729
187 2 8.14242 10.8394 5.11561
87 1 7.32573 11.4621 4.59545
188 2 4.67894 8.74356 3.51528
289 3 7.74908 11.8096 0.55029
200 2 3.89532 10.7665 0.696075
123 2 7.90691 12.7019 1.11302
62 4 5.80738 11.1868 5.50741
350 2 4.31067 13.3404 5.859
88 1 5.38486 13.1188 6.22688
201 2 3.72891 12.242 7.04235
156 2 4.59076 8.77462 6.31052
94 2 7.22888 12.8227 6.80468
157 2 4.3278 8.12835 8.14212
191 2 5.4696 13.1784 7.38048
76 1 3.89188 8.17923 7.11966
182 2 7.35426 7.506 8.36127
286 3 6.07917 10.3718 6.9381
85 1 7.74635 8.32689 7.66216
183 2 8.80475 8.57334 7.93424
60 4 6.66064 9.72432 8.3078
184 2 7.64209 8.18634 6.51
180 2 8.97272 9.23685 4.38116
84 1 9.88405 8.58146 4.83015
179 2 9.97955 8.6796 5.91565
158 2 2.73891 8.46184 7.05528
347 2 5.11885 7.13577 0.39339
190 2 6.17029 13.8556 5.77939
326 1 4.21754 7.5152 -0.101604
327 2 4.21594 8.65605 -0.118359
124 2 7.9785 10.1338 17.2022
61 4 2.1224 11.1165 10.7051
290 3 5.92505 10.8799 12.927
284 3 1.19755 12.219 11.4418
341 2 7.10734 12.7991 17.2043
316 4 7.88175 12.0153 9.98905
91 1 2.39321 10.9589 17.5376
199 2 2.20306 12.4507 16.9816
256 3 0.156192 13.3899 13.5419
288 3 2.35748 10.6278 14.5384
273 3 6.69638 7.45131 10.9528
195 2 3.47597 13.1601 14.4493
202 2 3.2435 10.4418 11.9849
14 4 10.5831 7.76928 9.73072
56 4 8.10351 7.66699 11.7113
197 2 5.00945 13.9694 15.0272
266 3 4.10998 7.64956 11.4338
53 4 5.27016 7.651 10.3783
127 2 3.5413 12.4604 9.81477
319 3 6.44212 12.7081 10.7891
281 3 5.40273 8.95468 9.48616
282 3 7.52674 10.6489 9.26343
205 2 4.61437 10.4841 10.2139
93 1 4.10944 11.431 10.7537
65 4 5.53773 11.9815 11.8353
64 4 3.25301 11.2718 15.6508
272 3 9.37474 8.22574 10.7467
204 2 4.03708 12.8312 12.1195
116 2 3.86435 10.0142 16.8785
333 2 3.79174 13.3545 16.9443
96 2 8.43702 9.35229 15.4885
287 3 7.77733 8.78533 12.9409
90 1 4.26071 13.159 15.3135
196 2 5.12848 11.7117 15.1243
339 2 5.09409 8.32695 13.7724
89 1 5.99874 9.08339 15.3048
192 2 6.59834 10.2539 15.5488
193 2 6.59379 8.23639 15.8073
194 2 5.00862 9.07779 15.8225
63 4 6.39155 9.47688 13.4706
198 2 1.50166 10.2703 17.3116
155 2 -0.295838 12.7305 17.6928
118 2 4.35988 7.62933 15.3398
21 4 9.79067 8.18296 15.6381
ITEM: TIMESTEP
200
ITEM: NUMBER OF ATOMS
350
ITEM: BOX BOUNDS xy xz yz pp pp pp
-9.2171454933018477e+00 1.5608457727936326e+01 -7.7490666531515799e+00
4.0119664078240458e-01 1.4139849025550113e+01 -1.5378211122139989e+00
-1.4695996115413124e-01 1.7785259961154189e+01 3.2164566633240799e-01
ITEM: ATOMS id type x y z
207 3 -0.431693 1.66599 4.93963
304 3 -0.508521 1.82837 2.31674
74 1 0.509861 5.4855 3.54038
150 2 1.00865 4.57825 4.05685
151 2 0.832248 5.66832 2.45583
152 2 -0.591382 5.44947 3.62907
224 3 2.05603 2.7133 5.10484
299 4 -0.376019 2.57814 0.88821
300 1 1.38043 3.12253 1.27882
301 2 1.83616 3.24038 0.287677
237 3 2.41722 6.13474 5.48409
12 4 -1.96352 5.52759 0.698673
340 2 -1.8228 3.62668 3.89002
70 1 2.90176 0.907632 3.18164
4 2 -2.1253 4.97751 5.05777
31 4 1.05585 6.86748 4.64203
314 3 -2.81484 6.12851 2.34128
210 3 -1.38464 3.99172 0.825068
97 2 -2.94274 6.52148 5.51227
32 4 2.61462 6.80867 0.695777
302 2 1.92575 2.29365 1.98166
232 3 3.21107 5.69723 1.77838
303 2 1.48401 4.13194 1.85605
141 2 1.76824 0.764458 3.47458
140 2 3.1086 0.960814 2.07332
9 4 0.744657 2.53074 6.0497
213 3 -1.51439 5.74987 7.56902
13 4 -0.728964 4.40013 7.94432
208 3 1.15984 1.52442 7.20988
212 3 0.00862919 3.81511 6.56331
233 3 4.37461 2.71451 8.43383
227 3 6.65875 0.946709 6.89452
243 3 -0.965054 6.57189 -0.0306066
23 4 3.39455 2.39008 4.38357
230 3 3.93141 3.54847 3.36279
30 4 4.32387 4.57022 2.18409
108 2 4.53298 2.62854 0.916539
226 3 4.60731 1.85989 5.29804
348 2 5.78083 1.63749 1.80336
71 1 4.67854 3.65219 0.564728
211 3 -1.91128 3.22098 8.37626
33 4 5.06951 4.1277 7.82577
26 4 6.09237 2.03052 5.89573
238 3 4.18123 5.36979 7.43191
15 4 -1.74986 6.99454 6.56517
154 2 6.79024 1.47243 0.283491
142 2 5.76 3.89158 0.129178
106 2 3.30075 4.34065 -0.142776
294 2 3.42819 0.790131 13.8797
292 1 4.13329 0.923675 14.7698
34 4 0.68917 6.13566 10.0304
236 3 -0.874261 6.44605 10.8397
244 3 1.85454 6.10452 11.1728
145 2 1.78984 1.78675 9.17577
66 1 -0.27935 2.49142 11.3419
128 2 0.0968081 3.2656 10.55
72 1 2.87878 1.76535 10.7671
17 4 -2.22933 7.03977 11.2407
107 2 1.65148 2.0501 10.983
129 2 -0.127634 1.4937 10.9129
310 2 5.07309 1.77636 16.2589
242 3 0.0677613 6.3515 17.3813
305 3 -1.65756 2.04708 17.3874
235 3 0.464507 4.60846 9.33776
130 2 0.973393 2.70445 12.5556
214 3 -0.92892 4.52943 13.5718
16 4 -1.5039 5.93021 13.9412
6 4 -0.381918 1.72843 16.0103
228 3 1.04022 2.53042 16.1581
28 4 2.30207 3.52488 16.4443
216 3 -2.72007 6.35725 12.8749
10 4 -0.814448 2.94228 13.2675
209 3 -1.12107 1.81616 14.3439
241 3 -1.85673 6.10052 15.5166
37 4 -1.36216 6.81821 16.7841
98 2 -0.260726 7.03766 13.7636
239 3 3.04969 4.35892 15.3359
38 4 2.70485 7.21907 12.0763
297 2 4.23679 2.05216 15.0123
143 2 3.60654 2.55504 17.121
146 2 3.56791 2.64681 11.1175
25 4 3.55247 1.45735 9.01897
206 2 -1.84262 2.63027 11.6166
144 2 3.18348 0.748447 11.2227
245 3 3.37091 6.27639 13.2481
328 2 2.49135 7.35104 16.7932
104 2 4.76165 1.84172 12.4851
147 2 5.53973 2.39749 10.66
73 1 5.8357 2.05452 11.675
215 3 -3.61469 7.23506 10.5216
139 2 -4.1706 13.5341 3.65278
219 3 -4.98761 11.3664 4.33975
186 2 -5.2446 11.6871 0.28241
99 2 -4.65864 13.238 1.2619
86 1 -4.30992 12.2019 0.95503
18 4 -5.16989 11.0768 2.73257
349 2 -5.98604 12.3937 2.01992
133 2 -4.02422 8.1291 0.510036
185 2 -3.36794 11.4171 2.25544
122 2 -3.57848 7.59666 2.34482
218 3 -2.40414 8.34793 7.28459
231 3 -0.475242 7.27025 5.72129
20 4 -4.60751 11.6758 5.84002
7 4 -6.81033 13.2723 7.43552
19 4 -3.44061 9.64238 7.83791
220 3 -4.05164 10.3933 6.56712
221 3 -5.89467 12.3572 6.56632
100 2 -3.33194 12.7834 5.84591
252 3 0.822752 9.37728 7.09991
313 2 -2.67686 9.83771 4.05407
162 2 -0.734291 13.3375 1.11302
309 2 -0.712828 8.0825 2.38904
115 2 -1.96074 13.0433 2.59149
306 4 -2.33176 8.87896 2.26263
308 1 -1.21137 9.36629 3.67287
315 3 -2.47303 9.85951 0.919695
312 2 -0.940633 8.54552 4.46326
39 4 1.67327 9.09336 2.49448
153 2 0.0825032 9.90141 2.32397
246 3 1.42184 8.09013 3.71316
311 2 -0.531156 10.2841 3.85975
247 3 1.73232 8.26813 1.19137
217 3 -4.72818 8.9224 8.61038
345 2 -0.591324 11.7777 0.13299
110 2 -0.362373 9.44349 7.1536
307 4 -3.24292 10.7832 -0.144586
134 2 -2.81203 12.584 -0.0404615
24 4 -0.459906 13.389 7.91894
181 2 -4.70675 8.72643 4.26844
253 3 0.23581 12.2534 7.07272
158 2 2.50194 8.20035 7.20992
163 2 0.101087 13.2383 3.18791
78 1 -1.29544 13.8532 2.02507
225 3 -3.8463 13.3314 8.8028
249 3 -2.65465 10.7198 8.80384
112 2 -1.14404 8.48864 16.2814
75 1 -1.34955 12.7579 17.5217
318 3 -6.86995 13.0389 9.02032
248 3 1.07181 7.3657 9.00538
317 2 -6.50643 11.5459 11.184
113 2 -3.41255 9.52109 12.0251
103 2 -5.72339 10.1708 12.1491
222 3 -5.60011 11.2574 12.3717
135 2 -4.72085 8.42565 14.3393
44 4 0.0508052 12.1931 12.4788
102 2 -4.27152 8.83814 16.8347
344 2 -4.11302 13.2929 16.1369
320 1 -7.66093 13.3908 16.1619
321 2 -6.56097 13.394 16.3476
335 2 -4.9574 10.7724 16.0483
22 4 -3.83997 11.1379 12.3802
68 1 -6.00922 9.64439 17.0762
43 4 1.23604 9.67887 13.7502
223 3 -3.32383 11.5789 13.9272
77 1 0.308524 8.48296 14.9645
251 3 -3.06876 11.974 11.2817
41 4 -2.78582 12.251 9.31688
111 2 -0.968934 9.0377 9.56429
250 3 -1.36903 12.8861 9.15677
40 4 0.641254 8.94574 8.96916
69 1 -1.58215 8.8998 11.4325
136 2 -0.468657 8.91032 11.3484
334 2 -1.6334 13.8379 17.4544
138 2 -2.1533 9.68594 10.7206
114 2 -1.54745 12.0418 11.7653
254 3 1.86341 8.41584 12.7748
255 3 0.0896283 10.7459 13.1809
291 4 -2.81808 12.6202 14.951
161 2 0.75649 7.45873 15.1486
296 2 -1.25311 12.0491 15.9503
159 2 -0.777494 8.49879 14.5317
137 2 -1.95266 8.91804 12.555
160 2 0.495118 9.34505 15.8403
21 4 -5.62891 8.26091 15.8069
283 3 1.44722 9.93769 9.89485
322 2 -7.98325 12.9152 15.1878
295 2 -2.15949 14.0379 14.0774
341 2 -8.33173 12.9645 17.1033
257 3 7.06056 2.16416 4.53125
262 3 5.64703 5.4587 2.45144
46 4 7.54067 1.57363 3.12351
260 3 8.62887 2.47335 2.40836
263 3 4.95662 6.71847 5.09727
264 3 9.12005 4.65111 0.694978
51 4 8.36104 5.9567 0.566948
330 2 7.00497 5.78446 1.56672
50 4 5.90668 6.87727 3.74656
54 4 9.18575 6.93164 4.6253
79 1 10.5745 2.44139 -0.051057
347 2 5.08267 6.9937 0.479972
234 3 6.19767 3.68639 6.66945
1 4 14.2132 1.98167 3.63747
119 2 7.74941 4.96293 8.16283
95 2 11.5979 4.81487 8.57274
52 4 9.30072 5.54538 7.63682
269 3 9.27372 6.35718 6.27981
2 1 12.3605 4.65987 4.85755
268 3 7.60687 7.0626 3.98057
3 2 12.2126 3.50494 4.62684
49 4 9.81231 3.35311 1.48756
267 3 10.4402 6.15535 3.69845
11 4 11.5883 5.18131 3.16881
261 3 11.03 3.75878 2.38287
131 2 11.3575 2.46593 7.09589
5 3 12.8849 1.11222 3.52518
337 2 10.0709 1.45662 -0.00940262
117 2 11.2919 1.19891 1.28567
8 4 12.0967 3.09094 8.59974
132 2 10.8202 4.05583 6.23472
342 2 11.6048 5.02944 5.682
120 2 9.49579 3.34346 7.5668
67 1 10.473 4.14306 7.30847
336 2 8.67407 0.815627 8.74754
343 2 11.3923 6.11849 0.120595
190 2 13.9264 0.592427 5.69477
35 4 3.84281 6.49029 6.21739
82 1 6.15356 4.64101 9.36902
173 2 7.00325 3.72425 9.47272
174 2 6.66429 5.63825 9.35296
121 2 4.93895 6.21381 9.52085
175 2 5.21416 4.57772 10.1933
80 1 8.41119 2.34737 9.75161
168 2 7.44108 2.25489 10.4244
169 2 8.42922 3.23707 8.97929
298 2 6.65806 2.43626 17.1244
149 2 6.59206 1.19813 11.6776
346 2 5.10339 3.49002 17.2735
165 2 8.6965 3.43813 16.9889
331 2 5.93792 6.16978 17.0662
148 2 7.13687 3.50234 11.6604
274 3 8.7132 6.35956 12.4178
109 2 4.21896 5.93447 16.4932
29 4 6.32569 3.2092 13.2044
229 3 7.27886 2.37653 14.1834
240 3 5.21913 4.25281 13.6335
329 1 4.67985 6.44997 15.5192
332 2 5.86078 6.15438 15.3002
258 3 9.49686 1.37874 15.259
170 2 8.98403 4.20255 14.5434
325 2 9.45528 6.6519 16.2265
270 3 9.61896 5.02338 14.6548
27 4 7.94865 1.03649 14.6779
81 1 11.7022 3.23895 15.51
338 2 11.2833 5.71507 12.7927
167 2 9.08975 1.31103 11.2367
48 4 9.86391 2.77737 10.6439
259 3 11.2186 2.48713 9.73274
324 2 10.0342 4.48443 17.713
36 4 3.98098 5.26905 14.2854
271 3 9.65399 3.96435 11.7694
101 2 10.9193 5.73814 16.4363
166 2 12.2664 2.65635 14.5233
55 4 9.68577 5.20028 12.7654
47 4 10.8913 1.67788 16.0045
172 2 10.7857 3.98193 15.1284
323 1 10.5426 5.59819 17.5223
293 1 5.572 2.39852 17.22
171 2 12.3845 3.62333 16.3178
265 3 9.95583 6.40457 8.84612
164 2 10.7277 2.55855 17.7167
155 2 1.20302 12.3077 0.0744217
57 4 9.83107 8.70742 0.837689
279 3 1.78904 11.2799 4.98937
58 4 3.00996 11.21 3.93325
277 3 2.85746 10.192 2.65819
278 3 3.01384 13.0075 3.33892
42 4 1.48588 11.3284 6.53525
92 1 2.90042 11.7129 7.5974
126 2 2.44561 12.3955 8.43813