ITEM: TIMESTEP
0
ITEM: NUMBER OF ATOMS
274
ITEM: BOX BOUNDS xy xz yz pp pp pp
-7.9362695311557943e+00 1.6107556389490025e+01 -8.3299630614883124e+00
1.1575009082220096e-01 1.2717076734416871e+01 -3.1765008017753682e-01
1.5947396079707854e-01 1.5916026039202713e+01 -9.1731747610414409e-03
ITEM: ATOMS id type x y z
225 2 5.54698 3.16979 2.86372
111 2 2.23319 0.283784 4.5774
9 4 -0.0726716 3.8649 1.69959
62 3 -0.0680586 4.95201 6.39148
112 2 -1.43683 4.55679 0.976265
12 4 -1.11137 5.77701 5.6174
58 3 -0.442828 2.99015 2.92515
246 2 3.15781 2.79645 0.211739
80 3 4.45736 3.15608 8.00734
7 4 0.991663 1.03073 5.70661
10 4 0.693521 3.96593 7.34234
59 3 0.412371 2.92972 0.520698
61 3 1.5472 2.50454 6.18581
78 3 0.803277 5.03685 2.18984
28 4 3.6248 5.51845 4.57377
82 3 2.04399 4.64176 8.01864
143 2 2.86959 3.97616 1.90076
26 4 3.47999 3.46216 6.72342
44 1 3.9964 3.78224 1.71572
221 1 6.44161 2.77712 3.49629
243 2 3.27002 1.20899 3.41976
222 3 5.05035 0.336287 0.580775
113 2 -2.26611 4.71291 5.04905
85 3 3.80465 5.0553 6.09223
81 3 4.22713 2.3066 5.43809
25 4 0.920395 6.3101 3.40037
84 3 2.16396 5.83214 4.2705
244 2 6.89076 1.4526 2.14102
141 2 4.34832 4.25685 3.57312
24 4 4.53051 4.9896 0.539991
142 2 4.2194 2.68923 1.37166
118 2 6.03065 1.08597 3.6376
21 4 5.74136 2.02765 5.2155
242 1 3.29058 0.125647 2.98484
74 3 6.66404 1.24081 6.51601
249 1 -2.2503 6.28165 0.415666
223 2 3.98322 0.260936 1.99572
55 3 1.12346 0.374559 1.18558
228 2 0.559287 6.23791 0.25713
256 2 7.99398 0.472801 3.32455
41 1 0.743367 0.122676 7.21729
178 4 -3.08177 6.12335 14.2799
65 3 -2.47897 5.44002 9.43911
250 2 -1.38711 5.66173 14.9469
60 3 -0.351559 3.27527 8.34134
13 4 0.30346 4.26529 12.1783
63 3 -0.571766 3.07241 12.7325
66 3 -0.488977 5.27898 11.2569
14 4 -1.13349 6.25786 10.1991
57 3 0.191002 1.49735 9.94067
76 3 6.17791 0.882919 11.581
136 2 3.08836 0.161378 11.731
75 3 5.42114 3.14885 10.5015
8 4 1.72058 2.03478 10.7497
64 3 1.52458 3.60193 11.5564
73 3 3.06614 1.98553 9.91673
114 2 0.935031 5.22517 13.5487
245 1 2.359 2.09875 15.07
247 2 2.21472 2.70723 14.1151
227 3 2.89062 5.59402 15.5578
138 2 2.20727 1.25028 13.2198
226 4 1.60983 6.20925 14.8993
42 1 2.11097 0.717939 12.0587
248 2 2.82793 1.08808 14.8629
20 4 4.46504 2.3392 9.32171
124 2 3.67798 4.8251 11.6111
117 2 5.14359 0.807907 8.85906
135 2 0.323796 0.710692 8.07387
5 4 0.692412 1.49179 15.8318
220 4 -1.86659 12.5504 1.20828
265 2 -4.40911 11.9601 3.64496
47 1 1.58712 10.1113 1.47521
266 2 -1.53906 6.5949 1.17898
91 3 -1.94147 9.26501 7.9789
133 2 -6.57031 12.2741 7.51951
16 4 -2.81085 8.16128 7.17028
17 4 -4.18341 10.4236 5.79796
70 3 -3.78709 8.93964 5.93944
90 3 -3.25785 10.9652 4.61035
115 2 -3.74903 11.3424 7.14095
31 4 -1.97653 10.455 3.55787
152 2 -3.02863 8.98636 1.76018
48 1 -2.66688 8.81674 2.82871
153 2 -3.58522 8.61353 3.48955
69 3 -5.82745 10.6679 5.58528
1 4 -6.4668 11.8044 2.06835
3 3 -5.6043 10.7473 1.05609
68 3 -1.85838 6.90554 6.45316
89 3 -1.84461 11.3431 2.19317
125 2 1.44335 10.5297 0.416011
151 2 -1.94402 8.01743 2.97446
93 3 -0.696756 10.0693 4.43315
94 3 -0.182432 11.4884 6.64076
271 2 -1.11668 8.93761 1.58787
19 4 -0.966261 12.6595 7.39186
30 4 0.542607 8.54888 1.35721
33 4 0.314662 10.2506 5.79651
87 3 1.20212 7.73674 2.61234
149 2 0.435008 8.79397 6.97874
272 2 0.993683 10.7237 2.28034
147 2 1.8436 6.9865 6.18683
46 1 1.76249 7.71311 7.04918
148 2 2.70262 8.3355 7.37351
79 3 -0.469539 6.42661 4.25615
160 2 -0.61377 10.2397 14.4935
95 3 2.13396 7.52546 12.2533
71 3 -3.06437 7.09373 13.0694
92 3 -2.67919 11.9336 8.28042
128 2 0.240756 10.1387 12.84
34 4 1.74376 9.53395 12.1087
67 3 -3.97905 7.45208 8.31353
98 3 -4.02477 9.91713 14.6695
35 4 -2.80126 10.1838 13.7025
96 3 -3.09694 9.57019 11.8148
127 2 -2.65263 10.2215 10.4589
15 4 -5.56992 9.89328 15.4022
139 2 -5.96771 10.6871 13.1007
18 4 -3.07326 7.99286 11.7256
162 2 -1.57682 8.8337 15.2548
97 3 -2.29548 11.6471 13.5308
50 1 0.549362 9.9595 10.9007
32 4 -1.97487 10.5656 8.85586
83 3 0.0893776 6.56726 9.02868
22 4 -1.35322 12.4984 12.5403
88 3 0.507853 7.72921 15.6751
126 2 -0.32812 10.8812 9.48508
161 2 -0.611019 8.60757 13.6447
51 1 -1.22634 9.3319 14.3401
120 2 -0.248726 11.449 11.5654
72 3 -1.63579 7.58424 10.8181
159 2 -0.139042 9.09872 10.7387
29 4 3.02441 6.83286 11.1507
86 3 2.66134 7.10175 9.66982
27 4 1.51683 6.6193 8.48181
229 2 1.99999 7.49461 13.8015
198 2 -0.76246 12.199 15.8119
158 2 1.3618 10.1466 9.97679
195 2 -3.40459 12.3335 15.445
137 2 -7.13517 12.6248 11.9854
193 2 -3.55554 7.49647 15.7777
270 2 6.45448 3.76956 4.93175
224 2 7.47387 2.9463 3.00523
171 2 7.4793 4.12002 7.11031
231 1 12.5553 2.33353 0.232241
119 2 9.24647 1.63955 4.07185
254 1 9.07483 0.656134 3.55228
255 2 9.60936 0.660367 2.48294
169 2 8.43159 4.63693 5.48469
54 1 8.32006 4.78848 6.56368
39 4 10.007 3.85931 7.06043
273 2 9.35092 1.21539 1.24961
184 1 9.41087 0.612108 0.234125
129 2 10.9261 1.11249 4.15822
170 2 8.34827 6.00536 6.89579
4 4 14.1246 2.00951 3.82654
37 4 11.6159 2.06273 5.40939
101 3 12.938 3.09481 4.78017
102 3 11.9743 1.15054 6.58034
106 3 10.3573 3.0251 5.7029
232 3 13.1875 1.06274 2.81802
56 3 15.0306 1.13232 4.87719
230 4 12.6212 0.805654 1.38294
207 4 12.462 0.475328 7.93133
234 2 12.298 3.22152 0.9833
233 2 10.9384 1.29547 1.23016
107 3 11.1438 4.97968 7.42017
103 3 5.51479 6.28124 1.56138
267 2 12.4838 5.48222 0.80283
260 2 7.01732 5.48825 7.90255
99 3 8.0364 0.627452 8.6475
258 1 6.25606 5.87875 8.75172
261 2 5.9991 4.98953 9.41661
11 4 11.5478 5.83775 8.77985
100 3 8.18286 2.53674 10.5433
121 2 6.76407 3.36318 12.7897
179 4 6.91459 3.97178 14.4877
188 3 7.76981 2.96636 15.2893
183 1 7.86023 5.62206 14.4533
194 2 7.60269 5.29998 10.1714
196 2 7.6872 5.99643 13.3912
145 2 5.26442 6.16988 10.7855
77 3 5.38627 4.27314 15.1025
191 3 10.2323 5.581 9.87115
6 4 14.3278 2.37509 9.35489
36 4 8.92747 1.78647 9.33016
180 4 8.77809 1.61377 14.5293
192 3 9.41436 4.66299 12.3048
187 3 7.90123 0.682847 13.582
182 4 9.10187 5.58056 10.9557
144 2 8.93708 5.45224 14.7093
164 2 10.0629 1.21567 11.3526
45 1 4.44903 6.02435 11.6226
105 3 9.59736 2.78939 8.25722
52 1 10.4146 0.849033 10.3132
259 2 11.516 2.33223 15.136
189 3 10.3777 2.43723 13.7285
200 2 12.2698 2.34144 11.757
197 2 7.19848 6.12275 15.2524
235 2 13.3471 2.19858 15.5896
181 4 10.633 3.86022 13.0018
190 3 11.5234 4.78378 14.1483
172 4 14.3686 1.54252 13.1566
174 2 12.512 1.65136 13.6304
175 2 12.0966 0.676404 11.4307
177 2 14.5188 0.349626 11.5579
185 1 11.8121 3.49783 11.5581
201 2 12.6124 4.32971 11.8569
202 2 11.4162 3.63821 10.5236
263 3 13.1091 1.50508 8.92287
173 1 12.9683 0.525114 12.2667
165 2 11.3595 1.3757 10.0482
262 3 15.2053 0.833695 14.2801
23 4 6.68191 2.52891 11.2657
122 2 5.29595 6.28319 8.27799
110 2 13.6309 3.2394 10.6739
146 2 4.80917 6.36233 12.656
210 1 8.57693 7.83622 7.6923
257 2 1.12662 12.3469 4.177
213 2 9.40445 8.28663 4.84944
49 1 2.03554 10.7282 5.18437
150 2 2.79691 9.85806 1.73765
154 2 2.12037 11.6907 5.91834
155 2 2.26323 10.8963 4.09688
253 2 10.2527 8.00912 0.935837
166 2 3.44004 8.06009 1.93164
156 2 2.59361 9.76693 5.63108
104 3 4.63546 6.68064 4.17871
240 2 3.94289 9.11103 0.542562
238 3 4.54569 11.9158 0.747334
239 2 6.42701 10.0623 1.96482
38 4 5.01469 7.3569 2.60373
167 2 6.22802 8.73191 2.98206
168 2 7.64562 7.63305 5.07506
208 4 6.46111 11.2224 7.0612
211 3 6.71453 10.5212 5.67217
212 3 5.05125 11.7432 7.51549
241 2 4.15835 10.0382 2.93506
237 1 4.68655 9.36656 2.22783
236 4 5.20871 10.4461 0.668832
216 2 8.50802 7.93687 6.47919
130 2 8.25316 8.21354 3.39303
53 1 8.32079 8.31842 4.47279
2 3 8.23661 11.048 3.30747
206 4 8.14568 10.2254 4.68559
274 2 9.63085 7.67077 8.01793
134 2 5.91196 8.96767 7.81245
268 2 8.50637 8.00651 0.162457
199 2 1.75775 12.6697 15.6865
203 2 9.29905 8.20735 10.5514
186 1 8.96505 7.45442 11.3737
123 2 5.53142 10.1353 9.17403
108 3 3.00272 10.3402 12.3798
176 2 4.05252 12.3592 13.8867
218 2 7.77988 7.07517 8.09813
252 2 9.59748 7.42262 14.8707
204 2 9.398 7.58293 12.4235
43 1 8.68514 10.6389 13.9973
40 4 4.3552 11.0109 12.7166
140 2 8.09222 11.597 14.1913
217 2 7.62936 10.499 8.46693
209 1 6.41072 9.54597 8.70084
157 2 6.83178 8.75877 9.43809
131 2 5.01453 11.6066 11.1603
251 1 9.28417 8.08132 15.7227
269 2 8.03052 9.75552 13.8495
264 2 5.67424 10.1627 14.7954
205 2 7.81748 7.50071 11.468
109 3 5.91225 9.85836 13.4102
132 2 5.38443 9.04208 13.1662
116 2 10.8954 7.64247 10.856
214 2 2.67925 12.5619 8.64591
215 2 6.70878 6.73467 9.43516
163 2 2.18455 12.344 10.3122
219 2 8.38593 8.82743 8.13802
ITEM: TIMESTEP
100
ITEM: NUMBER OF ATOMS
274
ITEM: BOX BOUNDS xy xz yz pp pp pp
-7.9362695311557943e+00 1.6107556389490025e+01 -8.3299630614883124e+00
1.1575009082220096e-01 1.2717076734416871e+01 -3.1765008017753682e-01
1.5947396079707854e-01 1.5916026039202713e+01 -9.1731747610414409e-03
ITEM: ATOMS id type x y z
225 2 5.55116 2.96636 2.83204
111 2 2.22741 0.389917 4.43093
9 4 -0.108849 3.9029 1.72789
62 3 0.0327035 5.07602 6.35994
112 2 -1.60773 4.68545 1.22352
12 4 -1.07044 5.85026 5.54696
58 3 -0.411822 3.00788 2.99333
242 1 3.16 0.4395 2.72074
246 2 3.27377 2.56378 0.247323
7 4 1.07184 1.06828 5.65646
10 4 0.587386 3.96702 7.27303
59 3 0.47989 3.09947 0.500359
61 3 1.72633 2.54911 6.1252
78 3 0.894967 5.09711 2.13155
28 4 3.66262 5.64659 4.5317
82 3 1.87805 4.50564 8.02936
143 2 2.82372 3.7823 1.36381
26 4 3.49456 3.61331 6.73307
44 1 3.95225 3.70921 1.77463
221 1 6.41228 2.48445 3.39229
243 2 2.5556 1.39854 2.94183
222 3 5.31391 0.585654 0.619141
113 2 -2.12662 4.57307 5.28071
85 3 3.8895 4.99489 5.94565
81 3 4.53417 2.37844 5.62345
25 4 0.907044 6.31362 3.29313
84 3 2.17556 6.17357 4.26636
244 2 7.18268 1.48397 1.89066
141 2 3.9358 4.24981 3.32247
24 4 4.65526 5.00788 0.610953
142 2 4.32821 2.64754 1.57217
118 2 6.0954 0.885747 3.62667
21 4 5.97593 2.041 5.25969
256 2 8.10252 0.397354 3.5002
74 3 6.90627 1.30005 6.26878
249 1 -2.47889 6.30763 0.611297
223 2 4.00123 0.613638 1.9153
55 3 1.0585 0.428252 1.33362
228 2 0.625415 6.33235 0.346664
80 3 4.29554 3.27476 8.02476
79 3 -0.658037 6.3755 4.09154
178 4 -3.20505 6.07426 14.3676
65 3 -2.49688 5.29333 9.45408
250 2 -1.61968 5.59557 15.2778
60 3 -0.334652 3.19159 8.28902
13 4 0.266763 4.19688 12.2218
63 3 -0.672595 3.0327 12.76
66 3 -0.508839 5.15395 11.2463
14 4 -1.27933 6.12965 10.1572
57 3 0.235585 1.35269 10.125
76 3 6.311 0.961219 11.4885
5 4 0.654217 1.61248 15.8057
75 3 5.40851 3.16401 10.2982
8 4 1.70973 1.95754 10.8166
64 3 1.54062 3.57657 11.6092
73 3 3.00627 1.86064 9.94176
114 2 0.922423 5.1975 13.5763
245 1 2.45994 1.79074 15.1871
247 2 2.32338 2.25064 14.0806
227 3 2.94701 5.5754 15.5305
138 2 2.08544 1.01253 13.3202
226 4 1.65466 6.12438 14.9366
42 1 1.98636 0.635062 12.2306
248 2 2.94758 0.702872 15.2019
20 4 4.35115 2.25287 9.24782
124 2 3.67467 4.92054 11.9917
117 2 5.04174 0.7644 8.66721
262 3 -0.155109 1.04173 14.5331
135 2 0.77414 0.340305 8.1535
23 4 6.56425 2.54892 11.208
220 4 -1.70245 12.5233 1.24429
265 2 -4.8436 12.4295 3.63389
148 2 2.64407 8.05067 7.31293
266 2 -2.06699 6.96263 1.45472
91 3 -1.96536 9.36696 7.87613
133 2 -6.29645 11.9798 6.89988
16 4 -2.74403 8.07974 7.0469
17 4 -4.13148 10.3396 5.74335
70 3 -3.81169 8.74882 5.99418
90 3 -3.27046 11.0201 4.60049
115 2 -3.7286 11.2485 7.16985
31 4 -1.99098 10.48 3.63307
152 2 -2.70377 8.93313 1.64165
48 1 -2.50319 8.82115 2.77031
153 2 -3.47162 8.65107 3.39459
69 3 -5.72728 10.4653 5.39631
1 4 -6.50505 11.813 2.04686
3 3 -5.85852 10.8384 0.875522
68 3 -1.79279 6.98546 6.34731
89 3 -1.86123 11.4822 2.40474
41 1 -7.38225 12.5477 7.09102
151 2 -1.64347 8.00669 3.01749
93 3 -0.681407 10.2681 4.45032
94 3 -0.0677621 11.57 6.69279
271 2 -1.05029 8.9545 1.46696
19 4 -0.899732 12.6709 7.42742
30 4 0.697334 8.70307 1.36662
33 4 0.354237 10.3612 5.79344
87 3 1.10459 7.7412 2.55311
149 2 0.407584 8.78234 6.94104
272 2 1.18625 10.8771 2.10738
147 2 1.66036 6.93173 6.17333
46 1 1.63426 7.58988 7.0485
160 2 -0.918738 9.63611 15.1949
95 3 1.91948 7.49985 12.3571
71 3 -2.96509 6.99928 13.1109
92 3 -2.68128 11.9323 8.2414
128 2 0.307244 10.2187 12.9704
34 4 1.71132 9.43503 12.2892
67 3 -3.69143 7.42345 8.31861
98 3 -4.13152 10.062 14.9815
35 4 -2.87288 10.1025 13.7904
96 3 -3.21476 9.48375 11.9011
127 2 -2.76688 10.1044 10.4225
15 4 -5.63786 9.86986 15.444
139 2 -5.75795 9.79312 13.087
18 4 -3.00415 7.87818 11.7436
162 2 -2.22387 8.38256 15.3138
97 3 -2.22662 11.6204 13.5351
50 1 0.521119 9.91777 11.0429
32 4 -2.0325 10.5568 8.90756
83 3 0.0832639 6.72066 9.07641
22 4 -1.30842 12.6102 12.6224
88 3 0.60743 7.74217 15.6151
126 2 -0.422071 10.7354 9.57329
161 2 -1.09041 8.35177 13.8249
51 1 -1.62492 9.03234 14.5846
120 2 -0.295418 11.4395 11.7706
72 3 -1.65049 7.58776 10.7777
159 2 -0.213516 8.99622 10.8165
29 4 2.79135 6.71597 11.3243
86 3 2.64613 6.97013 9.67807
27 4 1.48616 6.48759 8.54393
229 2 1.84838 7.5804 14.0149
198 2 -0.77189 12.0203 15.7146
158 2 1.31103 10.0793 10.1219
195 2 -3.37533 12.32 15.7295
137 2 -7.30769 12.6137 12.0715
193 2 -4.04016 7.06748 15.7303
140 2 -6.24936 11.5271 13.4665
136 2 -5.43949 12.5954 11.8852
270 2 6.91529 3.54908 4.8174
224 2 7.44579 2.74049 2.98383
171 2 7.46837 4.35644 6.47418
231 1 12.5132 2.25636 0.256529
119 2 9.31679 1.49176 4.37941
254 1 9.20506 0.598468 3.59971
255 2 9.70767 0.91551 2.62858
169 2 8.59147 5.04763 5.1756
54 1 8.38037 4.98048 6.32944
39 4 9.86346 3.983 6.94218
273 2 9.25719 0.996293 1.30654
184 1 9.26404 0.467578 0.293135
129 2 11.1354 1.01503 3.97401
170 2 8.41687 6.04663 6.81933
4 4 14.201 1.95874 3.87755
37 4 11.6498 2.11342 5.20498
101 3 12.7987 3.06071 4.63912
102 3 12.077 1.29881 6.50178
106 3 10.231 3.07543 5.52887
232 3 13.1487 1.07846 2.85172
56 3 15.0579 1.16795 4.91291
230 4 12.496 0.807397 1.37671
207 4 12.5114 0.58904 7.81477
234 2 12.4302 3.12275 0.946433
233 2 10.8315 1.29719 1.17989
107 3 11.1073 4.96912 7.3794
103 3 5.38526 6.25675 1.49512
260 2 7.04558 5.32966 7.86705
267 2 12.3398 5.43394 1.05519
99 3 8.24232 0.611913 8.64526
258 1 6.28763 5.71624 8.70492
261 2 6.00483 4.78431 9.31478
11 4 11.4878 5.77169 8.73041
100 3 7.96373 2.69402 10.3537
121 2 6.70318 3.30616 12.8576
179 4 6.82834 4.01359 14.5658
188 3 7.78381 3.01256 15.3293
183 1 7.78773 5.55689 14.7902
194 2 7.55361 5.14836 10.1276
196 2 7.55747 5.86812 13.5359
145 2 5.18915 6.35851 11.2312
77 3 5.37402 4.36489 15.2779
191 3 10.1868 5.76913 9.81856
6 4 14.4704 2.24779 9.40132
36 4 8.92096 1.91227 9.28914
180 4 8.73908 1.67491 14.7079
192 3 9.42635 4.59046 12.1395
187 3 7.9534 0.922424 13.5075
182 4 9.029 5.54161 10.8759
144 2 8.85264 5.23166 15.0145
164 2 10.0731 1.49342 11.2678
45 1 4.34187 6.29208 11.9692
105 3 9.50989 2.97742 8.21129
52 1 10.4144 1.00462 10.2399
259 2 11.4493 2.25999 15.0666
189 3 10.3146 2.35848 13.8186
200 2 12.2268 2.24262 11.8245
197 2 7.29784 6.21711 15.5551
235 2 13.3096 2.1857 15.74
181 4 10.5787 3.77192 12.9705
190 3 11.4539 4.74678 13.9903
172 4 14.4086 1.55905 13.2242
174 2 12.5908 1.49762 13.7339
175 2 11.944 0.601002 11.6083
177 2 14.4283 0.450706 11.719
185 1 11.903 3.35078 11.6363
201 2 12.6807 4.03694 12.0158
202 2 11.5937 3.5861 10.595
263 3 13.3123 1.3962 8.85699
173 1 12.8327 0.40576 12.3736
165 2 11.3622 1.4774 9.81455
122 2 5.36477 6.04989 8.20591
110 2 13.6788 3.15661 10.6662
210 1 8.44668 7.93306 7.6615
257 2 1.29388 12.2477 4.05754
213 2 9.12549 7.81969 5.01945
49 1 1.99633 10.5255 4.98771
150 2 2.91173 9.94249 1.6761
154 2 2.43162 11.5742 5.23398
155 2 1.99641 10.1745 3.92499
253 2 10.0478 7.74432 0.941772
166 2 3.55647 8.17066 1.92949
156 2 2.52096 9.68007 5.7856
104 3 4.75523 6.84721 4.25303
240 2 4.01581 9.03423 0.49197
238 3 4.34284 11.9607 0.69233
239 2 6.43223 10.2506 1.73297
38 4 5.08088 7.33915 2.62284
167 2 6.32785 8.73854 2.63941
168 2 7.19237 7.93343 4.69423
208 4 6.50813 11.0878 7.14942
211 3 6.92728 10.3509 5.88456
212 3 5.07115 11.938 7.44417
241 2 4.42164 10.2217 2.9405
237 1 4.78361 9.4258 2.19178
236 4 5.08268 10.5077 0.548256
216 2 8.40278 8.12203 6.4722
130 2 8.51265 8.36524 3.23522
53 1 8.26738 8.26698 4.44264
2 3 8.14422 10.9076 3.27917
206 4 8.2818 10.1916 4.67789
274 2 9.56732 7.58675 7.85094
134 2 6.35614 8.75543 7.85542
125 2 1.72107 10.6212 0.282603
47 1 1.79001 10.2139 1.35092
218 2 7.66243 7.13347 8.0039
163 2 2.13135 12.4483 10.2807
203 2 9.37464 7.98656 10.5255
186 1 8.92171 7.38674 11.3378
123 2 5.16812 10.0008 8.7033
108 3 3.07537 10.3017 12.4599
176 2 3.97193 12.3164 13.9435
215 2 6.66007 6.56379 9.33642
252 2 9.57365 7.37313 14.9177
204 2 9.3377 7.69276 12.3247
43 1 8.96091 10.4729 13.7625
40 4 4.47006 10.9953 12.6712
219 2 8.25704 8.90918 8.20812
217 2 7.50326 10.6173 8.67222
209 1 6.20427 9.49555 8.70447
157 2 6.29582 8.86868 9.58569
131 2 5.05547 11.6623 11.1008
251 1 9.22385 8.02243 15.7532
269 2 7.76751 10.2136 13.7315
264 2 5.64443 10.1735 14.795
205 2 7.71305 7.4194 11.2751
109 3 6.13663 9.99658 13.4211
132 2 5.68945 9.15317 13.0594
268 2 8.1239 7.99478 15.8917
214 2 2.78453 12.6402 8.67764
146 2 4.43947 6.8832 12.9659
116 2 10.9337 7.48691 11.0204
199 2 1.69677 12.6261 15.7332
ITEM: TIMESTEP
200
ITEM: NUMBER OF ATOMS
274
ITEM: BOX BOUNDS xy xz yz pp pp pp
-7.9362695311557943e+00 1.6107556389490025e+01 -8.3299630614883124e+00
1.1575009082220096e-01 1.2717076734416871e+01 -3.1765008017753682e-01
1.5947396079707854e-01 1.5916026039202713e+01 -9.1731747610414409e-03
ITEM: ATOMS id type x y z
225 2 5.6443 2.93964 2.8735
111 2 2.30784 0.433064 4.43731
9 4 0.0468517 3.9213 1.77151
62 3 -0.174802 4.84768 6.22855
112 2 -1.43527 4.68411 1.20817
12 4 -1.16066 5.73398 5.45883
58 3 -0.273837 3.01193 3.01161
242 1 3.26217 0.2112 2.73796
246 2 3.36442 2.37726 0.355048
7 4 1.09038 0.953152 5.57038
10 4 0.680886 4.01169 7.20022
59 3 0.514019 3.03437 0.569575
61 3 1.70842 2.55596 6.12902
78 3 1.02469 5.19288 2.13929
28 4 3.81662 5.65371 4.61701
82 3 1.92516 4.7932 7.89554
143 2 3.0117 3.62489 1.78072
26 4 3.53348 3.51783 6.64064
44 1 4.16601 3.70696 1.74248
221 1 6.47828 2.28302 3.55975
243 2 2.72198 1.20989 2.94924
222 3 5.20345 0.606945 0.479561
256 2 7.91229 0.327409 3.92323
85 3 3.9412 5.20201 6.10989
81 3 4.51145 2.53607 5.59718
25 4 0.973766 6.26646 3.39023
84 3 2.28324 6.00975 4.30148
244 2 7.19143 1.53004 1.83865
141 2 4.30687 4.35504 3.50548
24 4 4.54428 5.05995 0.610849
142 2 4.868 2.83778 1.30606
118 2 6.15751 1.04355 3.4969
21 4 6.01089 2.16071 5.43415
79 3 -0.496149 6.15011 4.07645
74 3 6.78021 1.15389 6.29368
249 1 -2.58935 6.18702 0.70089
223 2 4.00769 0.371822 1.87996
55 3 0.708872 0.46958 1.31705
135 2 0.788662 0.876397 7.86938
178 4 -3.25342 6.03586 14.3729
65 3 -2.46995 5.38853 9.46092
250 2 -1.79958 5.39307 15.2117
60 3 -0.232417 3.30146 8.22658
13 4 0.20539 4.13225 12.2411
63 3 -0.840702 3.10731 12.8639
66 3 -0.440912 5.15287 11.275
14 4 -1.20128 6.13387 10.1655
57 3 0.192342 1.62399 9.97239
76 3 6.11052 0.788259 11.6416
23 4 6.50589 2.42271 11.3646
75 3 5.36057 3.13717 10.4775
8 4 1.7366 1.89887 10.9425
64 3 1.52798 3.35374 11.7409
73 3 3.0984 1.69219 9.86157
114 2 0.87909 5.07164 13.5723
245 1 2.40495 1.85374 15.2994
247 2 2.34543 2.46231 14.3829
227 3 2.87499 5.49227 15.5827
138 2 2.29028 1.14433 13.4211
226 4 1.63855 6.03629 14.8599
42 1 2.13642 0.689602 12.3009
248 2 2.85446 0.809443 15.1297
20 4 4.43113 2.25877 9.29083
124 2 3.91699 5.07829 12.2663
117 2 5.19925 0.840224 8.74072
136 2 3.08273 0.12473 12.0349
6 4 -0.944322 2.41398 9.26546
5 4 0.560724 1.57274 15.7987
80 3 4.11379 3.15393 8.04758
220 4 -1.75595 12.6761 1.11864
265 2 -4.64583 12.3258 3.68142
147 2 2.25298 7.07985 6.40445
266 2 -2.14641 6.8281 1.46216
272 2 1.02494 10.9639 1.96842
133 2 -6.48962 12.0287 7.17639
16 4 -2.75234 8.13314 7.19433
17 4 -4.11296 10.324 5.75178
70 3 -3.73597 8.86347 6.19791
90 3 -3.26033 10.8183 4.53183
115 2 -3.78493 11.3924 7.01783
31 4 -1.97615 10.3933 3.60795
152 2 -2.70055 8.83088 1.67987
48 1 -2.42776 8.74718 2.77352
153 2 -3.24125 8.2362 3.38223
69 3 -5.74788 10.4835 5.43898
1 4 -6.59212 11.9455 1.98095
3 3 -6.0907 11.0157 0.635117
68 3 -1.76686 7.02201 6.20886
89 3 -1.80241 11.576 2.34089
41 1 -7.45105 12.6104 7.1367
151 2 -1.36571 8.20491 2.98755
93 3 -0.593934 10.0418 4.58347
94 3 0.181287 11.4728 6.70398
271 2 -0.948188 9.2015 1.50352
19 4 -0.878578 12.619 7.42715
30 4 0.704265 8.77511 1.34602
33 4 0.490407 10.1137 5.89398
87 3 1.08564 7.92101 2.63635
149 2 0.366245 8.56091 6.86751
46 1 1.90196 7.80387 7.26924
148 2 2.7821 8.37778 7.63571
228 2 0.682991 6.4711 0.316399
193 2 -3.74082 6.95726 0.229619
160 2 -0.4532 10.0863 14.7991
95 3 1.75631 7.40315 12.4323
71 3 -2.96173 7.1773 13.2527
92 3 -2.59718 11.9681 8.25779
128 2 0.362415 9.90798 13.1932
34 4 1.64941 9.29809 12.1237
67 3 -3.80402 7.38753 8.19843
98 3 -4.1638 9.98792 15.0114
35 4 -2.79819 10.1799 13.7612
96 3 -3.07838 9.4949 11.9361
127 2 -2.70248 10.2611 10.5779
15 4 -5.69385 9.97616 15.3164
140 2 -6.00952 11.2187 13.0205
18 4 -3.0582 7.90159 11.8412
162 2 -1.83065 8.82174 15.4317
97 3 -2.26636 11.6582 13.5123
50 1 0.215598 9.90624 11.2214
32 4 -1.97834 10.6351 8.94541
83 3 -0.0659869 6.53971 9.01443
22 4 -1.27516 12.5425 12.7012
88 3 0.755849 7.76618 15.5328
126 2 -0.46985 11.0742 9.777
161 2 -0.973326 8.5442 13.7797
51 1 -1.34505 9.35409 14.5577
120 2 -0.0702413 11.4799 11.7384
72 3 -1.85717 7.32776 10.9678
159 2 -0.644295 9.20478 11.3087
29 4 2.60545 6.53021 11.4541
86 3 2.52929 6.79075 9.86251
27 4 1.45344 6.56546 8.57227
229 2 2.06223 7.50373 14.0846
198 2 -0.730776 12.2517 15.6988
158 2 0.787973 9.81644 10.1032
195 2 -3.51989 12.3667 15.6413
137 2 -7.11409 12.6216 12.2016
91 3 -1.92951 9.27087 8.12472
270 2 6.93481 3.52679 5.05657
224 2 7.49708 2.4891 3.24506
171 2 7.289 4.54953 6.48794
231 1 12.5484 2.39573 0.301327
119 2 9.28485 1.52225 4.43488
254 1 9.00396 0.555047 3.85048
255 2 9.28481 0.779378 2.71373
169 2 8.4739 4.9061 5.03226
54 1 8.32593 4.95298 6.21544
39 4 9.75954 3.92753 6.91256
273 2 9.33521 1.19486 1.42588
184 1 9.39925 0.65148 0.331602
129 2 10.9266 1.05425 4.08123
170 2 8.47367 6.04392 6.58659
4 4 14.1444 1.9688 3.73483
37 4 11.572 2.21739 5.14378
101 3 12.7535 3.11289 4.56837
102 3 12.0355 1.41251 6.41529
106 3 10.1746 3.0671 5.45284
232 3 13.244 1.1309 2.78981
56 3 15.0597 1.16725 4.89023
230 4 12.6699 0.85228 1.35232
207 4 12.4916 0.620713 7.70976
234 2 12.3376 3.27839 0.96294
233 2 10.9528 1.30343 1.31708
107 3 11.0374 4.90897 7.26096
113 2 12.9151 4.75148 4.97383
260 2 7.23338 5.31725 7.89716
267 2 12.4091 5.24018 1.12436
99 3 8.18918 0.649657 8.70896
258 1 6.42416 5.63388 8.77694
261 2 6.06912 4.64471 9.29264
11 4 11.5515 5.71737 8.72647
100 3 7.90363 2.4891 10.5148
121 2 6.69555 3.24629 12.9643
179 4 6.95238 4.05437 14.5615
188 3 7.83131 3.04372 15.3279
183 1 7.63056 5.77005 14.7685
194 2 7.68121 4.88925 10.0951
196 2 7.79933 5.92825 13.5582
110 2 13.57 3.30411 10.4644
77 3 5.46376 4.20586 15.1419
191 3 10.3037 5.64276 9.76059
215 2 6.87442 6.39604 9.50816
36 4 8.83382 1.96293 9.25179
180 4 8.81607 1.66074 14.6107
192 3 9.49067 4.51337 12.1403
187 3 7.9689 0.788124 13.6692
182 4 9.10068 5.43982 10.7906
144 2 8.5648 5.52903 15.3969
164 2 10.2656 1.75118 11.1407
262 3 15.1903 0.984789 14.4098
105 3 9.21995 3.01786 8.07281
52 1 10.4419 1.25392 10.1382
259 2 11.513 2.34159 15.1246
189 3 10.304 2.32291 13.7601
200 2 12.2602 2.36586 11.8262
163 2 10.2273 0.124659 10.2265
235 2 13.2923 2.37688 15.6262
181 4 10.639 3.77499 13.0272
190 3 11.2487 4.86476 13.9739
172 4 14.2951 1.62494 13.2564
174 2 12.4229 1.4673 13.7643
175 2 11.9056 0.699562 11.4865
177 2 14.3928 0.456135 11.7173
185 1 11.9492 3.45023 11.5731
201 2 12.7392 4.19154 11.7965
202 2 11.4188 3.54026 10.5507
263 3 13.3832 1.43722 8.7016
173 1 12.7565 0.475434 12.3057
165 2 11.4958 1.50844 9.72503
122 2 5.49413 6.13617 8.25916
197 2 6.78497 6.40379 15.3002
210 1 8.51114 7.8501 7.65818
257 2 1.25954 12.1451 4.27651
213 2 9.42065 7.96239 4.62705
49 1 2.09652 10.5054 5.08598
150 2 2.87683 10.0823 1.78418
154 2 2.59904 11.3793 5.59647
155 2 1.94204 10.7292 3.92145
253 2 9.99309 8.07645 0.956689
166 2 3.40823 8.48205 2.14997
156 2 2.56035 9.39657 5.29918
104 3 4.77716 6.86638 4.11286
240 2 4.03461 9.20588 0.649204
238 3 4.50729 11.9411 0.603135
239 2 6.47176 10.3821 1.82286
38 4 5.02265 7.56615 2.62984
167 2 6.35055 8.87142 2.77634
168 2 7.57929 7.50396 4.95795
208 4 6.43247 11.1476 7.13353
211 3 7.09868 10.2766 5.84943
212 3 4.97528 11.8484 7.30452
241 2 4.49462 10.4158 3.08864
237 1 4.76997 9.64698 2.362
236 4 5.21671 10.5211 0.605993
216 2 8.46724 7.9499 6.47863
130 2 8.01531 8.34013 3.22744
53 1 8.32007 8.12689 4.39407
2 3 8.22753 11.0618 3.15076
206 4 8.31966 10.0141 4.79675
274 2 9.51466 7.57132 7.97343
134 2 6.42899 8.89205 7.81743
103 3 5.30813 6.61247 1.38121
47 1 1.76203 10.2627 1.32199
125 2 1.81577 10.6285 0.277061
268 2 8.21464 8.37122 0.246359
199 2 1.73891 12.6532 15.8522
203 2 9.17536 8.13526 10.848
186 1 8.94308 7.2056 11.5046
123 2 5.06458 9.94001 8.76895
108 3 3.07429 10.1585 12.3543
176 2 4.20898 12.2491 13.9005
116 2 10.8472 7.44518 11.0705
252 2 9.28551 7.60252 14.904
204 2 9.50905 7.07924 12.5305
43 1 9.08571 10.2369 13.4266
40 4 4.44602 10.9828 12.5407
219 2 8.21837 8.79671 8.1711
217 2 7.23583 10.9976 8.88822
209 1 6.19603 9.60153 8.76019
157 2 6.35916 9.02787 9.75386
131 2 4.70336 11.766 10.9744
251 1 9.05724 8.29685 15.8048
269 2 7.89311 10.1893 13.4104
264 2 5.71905 10.1987 14.767
205 2 7.77243 7.08103 11.6465
109 3 6.13487 10.134 13.3316
132 2 5.88037 9.29166 12.9565
145 2 4.93482 6.69644 11.1467
45 1 4.23207 6.47388 12.0662
146 2 4.31252 7.21692 12.961
139 2 9.5433 9.28313 13.0162
214 2 2.77798 12.7095 8.57056
218 2 7.72165 7.09122 8.09656
ITEM: TIMESTEP
300
ITEM: NUMBER OF ATOMS
274
ITEM: BOX BOUNDS xy xz yz pp pp pp
-7.9362695311557943e+00 1.6107556389490025e+01 -8.3299630614883124e+00
1.1575009082220096e-01 1.2717076734416871e+01 -3.1765008017753682e-01
1.5947396079707854e-01 1.5916026039202713e+01 -9.1731747610414409e-03
ITEM: ATOMS id type x y z
225 2 5.53568 2.8217 2.89792
135 2 0.456159 0.63571 8.01349
9 4 0.0475464 3.91102 1.74236
62 3 -0.324259 4.80988 6.2547
112 2 -1.40076 4.67147 1.20446
12 4 -1.19446 5.78597 5.4001
58 3 -0.271455 3.11313 3.08068
242 1 3.0956 0.173365 2.71605
246 2 3.36761 2.55068 0.34362
7 4 1.02768 0.961453 5.5418
10 4 0.667491 3.93241 7.06425
59 3 0.437965 3.10039 0.44319
61 3 1.59835 2.84497 6.14714
78 3 1.1091 5.04013 2.15057
28 4 3.86056 5.62498 4.60631
82 3 1.97754 4.93448 7.57001
143 2 3.0276 3.70648 1.64144
26 4 3.59974 3.63989 6.71413
44 1 4.15079 3.77119 1.70855
221 1 6.32901 2.24959 3.50302
243 2 2.65163 1.14548 3.10264
222 3 5.09258 0.377445 0.604604
256 2 7.95031 0.305558 3.73982
85 3 4.32806 5.21841 6.07138
81 3 4.51148 2.64538 5.62555
25 4 1.10252 6.32069 3.35304
84 3 2.30233 5.90077 4.39384
244 2 7.00295 1.59534 1.80472
141 2 4.47164 4.3904 3.36929
24 4 4.65279 5.12707 0.55172
142 2 4.56915 2.77886 1.43576
118 2 5.86568 0.812483 3.79667
21 4 5.97559 2.09427 5.47766
79 3 -0.436185 6.34032 4.16964
74 3 6.76628 1.07741 6.43585
249 1 -2.428 6.33942 0.786299
223 2 3.96887 0.345682 1.79511
55 3 0.877208 0.496766 1.36767
228 2 0.631667 6.18573 0.409523
113 2 -2.35807 4.71116 4.80313
111 2 2.19629 0.257353 4.47582
178 4 -3.28331 6.25652 14.5551
65 3 -2.34984 5.24217 9.31205
250 2 -1.52652 6.01954 15.3326
60 3 -0.062352 3.24104 8.34155
13 4 0.131081 4.1993 12.2459
63 3 -0.880274 3.08301 12.7719
66 3 -0.447754 5.12225 11.1614
14 4 -1.1793 6.042 10.0674
57 3 0.151757 1.45652 10.0586
76 3 6.16294 0.960632 11.806
23 4 6.51522 2.49484 11.3479
75 3 5.3581 3.0481 10.4465
8 4 1.56605 1.93468 10.9315
64 3 1.45022 3.44949 11.8046
73 3 2.97875 1.88073 10.1019
114 2 0.883694 5.11242 13.5968
245 1 2.40621 1.93898 15.2214
247 2 2.28919 2.65797 14.3039
227 3 2.95241 5.58959 15.5236
138 2 2.20691 1.16974 13.2996
226 4 1.6001 6.04533 14.9729
42 1 1.99438 0.626745 12.2545
248 2 2.85923 0.992683 14.9393
20 4 4.42782 2.15311 9.35472
124 2 3.68173 4.91197 12.2123
117 2 5.05354 0.604362 8.92466
80 3 4.24071 3.01759 8.08672
6 4 -0.89868 2.35281 9.31145
5 4 0.649918 1.60191 15.8604
136 2 2.93632 0.16052 11.8487
220 4 -1.7939 12.574 1.22656
265 2 -4.91965 11.9805 3.47716
147 2 2.93246 7.59855 7.03459
266 2 -1.92685 6.85384 1.67025
272 2 1.13326 10.9609 2.10702
133 2 -6.68732 11.9598 7.05478
16 4 -2.74849 8.12853 7.22882
17 4 -4.02932 10.4209 5.79684
70 3 -3.59876 8.9638 6.25518
90 3 -3.2103 10.7265 4.47518
115 2 -3.42145 11.4961 6.97142
31 4 -1.94457 10.3461 3.65691
152 2 -2.69732 8.66433 1.59587
48 1 -2.3993 8.70686 2.6886
153 2 -3.26422 8.34066 3.31617
69 3 -5.6666 10.6232 5.60853
1 4 -6.61249 11.781 1.87321
3 3 -5.9615 11.0566 0.50784
68 3 -1.96691 6.87835 6.30518
89 3 -1.75614 11.461 2.41808
41 1 -7.63234 12.6704 7.05416
151 2 -1.46556 8.06898 2.89471
93 3 -0.588397 10.1543 4.52362
94 3 -0.0301439 11.3513 6.66358
271 2 -0.921373 9.01131 1.44282
19 4 -0.951076 12.4671 7.38823
30 4 0.770425 8.68345 1.46763
33 4 0.387696 10.1763 5.76893
87 3 1.32598 7.74961 2.69529
149 2 0.677873 8.40831 6.67318
46 1 1.97416 8.00632 7.6053
193 2 -3.65111 7.15879 0.268343
160 2 -0.606255 10.1123 15.0213
95 3 1.75626 7.43608 12.5529
71 3 -2.98144 7.32126 13.3897
92 3 -2.65161 11.7772 8.38412
128 2 0.346152 10.2595 12.87
34 4 1.64467 9.30492 12.0451
67 3 -3.97685 7.30215 8.36815
98 3 -4.08247 9.89216 14.7819
35 4 -2.75299 10.1305 13.8438
96 3 -3.06991 9.46035 12.0598
127 2 -2.85301 10.0298 10.5105
15 4 -5.70559 10.0232 15.1313
140 2 -6.2215 11.27 13.122
18 4 -3.02938 7.88152 11.9465
162 2 -1.48738 8.495 15.2824
97 3 -2.22889 11.7088 13.7491
50 1 0.280114 9.69023 11.0441
32 4 -2.03212 10.4837 9.01363
83 3 -0.0659818 6.79022 9.12474
22 4 -1.36478 12.4981 12.7544
88 3 0.738628 7.65439 15.8025
126 2 -0.539986 10.9482 9.75736
161 2 -0.622615 8.82206 13.5685
51 1 -1.179 9.29694 14.5036
120 2 -0.534059 11.2425 11.7141
72 3 -1.8519 7.34302 11.0043
159 2 -0.445224 8.77252 10.9967
29 4 2.62481 6.49227 11.5599
86 3 2.43228 6.52828 9.94945
27 4 1.41876 6.62367 8.64686
229 2 1.90294 7.55238 14.1951
198 2 -0.702549 12.2544 15.8166
158 2 0.978705 9.78207 9.98044
195 2 -3.50352 12.0402 15.7375
137 2 -7.17328 12.5245 12.3219
91 3 -1.83305 9.17245 8.10086
148 2 2.12933 8.87216 8.41462
270 2 7.06349 3.35992 4.87367