ITEM: TIMESTEP
0
ITEM: NUMBER OF ATOMS
274
ITEM: BOX BOUNDS xy xz yz pp pp pp
-7.7251310803976816e+00 1.5953594261700225e+01 -8.1220011115319757e+00
1.1575009082220096e-01 1.2717076734416871e+01 -3.1447357937576143e-01
1.5947396079707854e-01 1.5916026039202713e+01 -9.1731747610414409e-03
ITEM: ATOMS id type x y z
225 2 5.52878 3.16979 2.86372
111 2 2.21957 0.283784 4.5774
9 4 -0.0277968 3.8649 1.69959
62 3 -0.0124405 4.95201 6.39148
112 2 -1.37147 4.55679 0.976265
12 4 -1.03715 5.77701 5.6174
58 3 -0.402904 2.99015 2.92515
246 2 3.1598 2.79645 0.211739
80 3 4.44996 3.15608 8.00734
7 4 0.99786 1.03073 5.70661
10 4 0.731767 3.96593 7.34234
59 3 0.44313 2.92972 0.520698
61 3 1.56243 2.50454 6.18581
78 3 0.850998 5.03685 2.18984
28 4 3.64909 5.51845 4.57377
82 3 2.07543 4.64176 8.01864
143 2 2.88615 3.97616 1.90076
26 4 3.48538 3.46216 6.72342
44 1 3.99977 3.78224 1.71572
221 1 6.41058 2.77712 3.49629
243 2 3.25518 1.20899 3.41976
222 3 5.00906 0.336287 0.580775
113 2 -2.19088 4.71291 5.04905
85 3 3.82256 5.0553 6.09223
81 3 4.2136 2.3066 5.43809
25 4 0.979556 6.3101 3.40037
84 3 2.20596 5.83214 4.2705
244 2 6.84212 1.4526 2.14102
141 2 4.35288 4.25685 3.57312
24 4 4.54049 4.9896 0.539991
142 2 4.20971 2.68923 1.37166
118 2 5.987 1.08597 3.6376
21 4 5.70993 2.02765 5.2155
242 1 3.26481 0.125647 2.98484
74 3 6.61559 1.24081 6.51601
249 1 -2.15973 6.28165 0.415666
223 2 3.95186 0.260936 1.99572
55 3 1.12182 0.374559 1.18558
228 2 0.621327 6.23791 0.25713
256 2 7.92462 0.472801 3.32455
41 1 0.743065 0.122676 7.21729
178 4 -2.98437 6.12335 14.2799
65 3 -2.3944 5.44002 9.43911
250 2 -1.31123 5.66173 14.9469
60 3 -0.309694 3.27527 8.34134
13 4 0.348598 4.26529 12.1783
63 3 -0.529683 3.07241 12.7325
66 3 -0.425884 5.27898 11.2569
14 4 -1.05427 6.25786 10.1991
57 3 0.209849 1.49735 9.94067
76 3 6.13081 0.882919 11.581
136 2 3.06502 0.161378 11.731
75 3 5.40404 3.14885 10.5015
8 4 1.72946 2.03478 10.7497
64 3 1.55093 3.60193 11.5564
73 3 3.06107 1.98553 9.91673
114 2 0.983363 5.22517 13.5487
245 1 2.36215 2.09875 15.07
247 2 2.22533 2.70723 14.1151
227 3 2.92306 5.59402 15.5578
138 2 2.20353 1.25028 13.2198
226 4 1.66117 6.20925 14.8993
42 1 2.10291 0.717939 12.0587
248 2 2.81638 1.08808 14.8629
20 4 4.44948 2.3392 9.32171
124 2 3.69492 4.8251 11.6111
117 2 5.10608 0.807907 8.85906
135 2 0.333516 0.710692 8.07387
5 4 0.706224 1.49179 15.8318
220 4 -1.71779 12.5504 1.20828
265 2 -4.24072 11.9601 3.64496
47 1 1.67723 10.1113 1.47521
266 2 -1.4525 6.5949 1.17898
91 3 -1.82441 9.26501 7.9789
133 2 -6.37718 12.2741 7.51951
16 4 -2.69603 8.16128 7.17028
17 4 -4.03247 10.4236 5.79796
70 3 -3.6548 8.93964 5.93944
90 3 -3.11081 10.9652 4.61035
115 2 -3.59334 11.3424 7.14095
31 4 -1.84737 10.455 3.55787
152 2 -2.9035 8.98636 1.76018
48 1 -2.54703 8.81674 2.82871
153 2 -3.4582 8.61353 3.48955
69 3 -5.65765 10.6679 5.58528
1 4 -6.27938 11.8044 2.06835
3 3 -5.43597 10.7473 1.05609
68 3 -1.76552 6.90554 6.45316
89 3 -1.70798 11.3431 2.19317
125 2 1.53904 10.5297 0.416011
151 2 -1.83932 8.01743 2.97446
93 3 -0.584201 10.0693 4.43315
94 3 -0.0609582 11.4884 6.64076
271 2 -1.01114 8.93761 1.58787
19 4 -0.825351 12.6595 7.39186
30 4 0.627698 8.54888 1.35721
33 4 0.418906 10.2506 5.79651
87 3 1.27258 7.73674 2.61234
149 2 0.523634 8.79397 6.97874
272 2 1.0958 10.7237 2.28034
147 2 1.90024 6.9865 6.18683
46 1 1.82714 7.71311 7.04918
148 2 2.76403 8.3355 7.37351
79 3 -0.39532 6.42661 4.25615
160 2 -0.5003 10.2397 14.4935
95 3 2.19307 7.52546 12.2533
71 3 -2.95755 7.09373 13.0694
92 3 -2.52834 11.9336 8.28042
128 2 0.344671 10.1387 12.84
34 4 1.82665 9.53395 12.1087
67 3 -3.85956 7.45208 8.31353
98 3 -3.88038 9.91713 14.6695
35 4 -2.66647 10.1838 13.7025
96 3 -2.96528 9.57019 11.8148
127 2 -2.51898 10.2215 10.4589
15 4 -5.41031 9.89328 15.4022
139 2 -5.79628 10.6871 13.1007
18 4 -2.95745 7.99286 11.7256
162 2 -1.46763 8.8337 15.2548
97 3 -2.15127 11.6471 13.5308
50 1 0.648406 9.9595 10.9007
32 4 -1.8446 10.5656 8.85586
83 3 0.159427 6.56726 9.02868
22 4 -1.21001 12.4984 12.5403
88 3 0.58526 7.72921 15.6751
126 2 -0.211185 10.8812 9.48508
161 2 -0.51374 8.60757 13.6447
51 1 -1.11573 9.3319 14.3401
120 2 -0.126952 11.449 11.5654
72 3 -1.53841 7.58424 10.8181
159 2 -0.0416368 9.09872 10.7387
29 4 3.06775 6.83286 11.1507
86 3 2.71096 7.10175 9.66982
27 4 1.57312 6.6193 8.48181
229 2 2.06015 7.49461 13.8015
198 2 -0.628098 12.199 15.8119
158 2 1.45456 10.1466 9.97679
195 2 -3.24248 12.3335 15.445
137 2 -6.93289 12.6248 11.9854
193 2 -3.43981 7.49647 15.7777
270 2 6.43316 3.76956 4.93175
224 2 7.4342 2.9463 3.00523
171 2 7.45122 4.12002 7.11031
231 1 12.4587 2.33353 0.232241
119 2 9.17614 1.63955 4.07185
254 1 8.99647 0.656134 3.55228
255 2 9.52569 0.660367 2.48294
169 2 8.39908 4.63693 5.48469
54 1 8.29018 4.78848 6.56368
39 4 9.95104 3.85931 7.06043
273 2 9.27533 1.21539 1.24961
184 1 9.3287 0.612108 0.234125
129 2 10.8337 1.11249 4.15822
170 2 8.33015 6.00536 6.89579
4 4 14.0092 2.00951 3.82654
37 4 11.5261 2.06273 5.40939
101 3 12.8452 3.09481 4.78017
102 3 11.8719 1.15054 6.58034
106 3 10.2896 3.0251 5.7029
232 3 13.0721 1.06274 2.81802
56 3 14.8974 1.13232 4.87719
230 4 12.5088 0.805654 1.38294
207 4 12.348 0.475328 7.93133
234 2 12.2128 3.22152 0.9833
233 2 10.8478 1.29547 1.23016
107 3 11.0876 4.97968 7.42017
103 3 5.52771 6.28124 1.56138
267 2 12.4191 5.48222 0.80283
260 2 7.0074 5.48825 7.90255
99 3 7.96817 0.627452 8.6475
258 1 6.25763 5.87875 8.75172
261 2 5.99443 4.98953 9.41661
11 4 11.496 5.83775 8.77985
100 3 8.13209 2.53674 10.5433
121 2 6.73567 3.36318 12.7897
179 4 6.89073 3.97178 14.4877
188 3 7.72745 2.96636 15.2893
183 1 7.84325 5.62206 14.4533
194 2 7.58507 5.29998 10.1714
196 2 7.67564 5.99643 13.3912
145 2 5.2788 6.16988 10.7855
77 3 5.38067 4.27314 15.1025
191 3 10.1912 5.581 9.87115
6 4 14.214 2.37509 9.35489
36 4 8.86181 1.78647 9.33016
180 4 8.71224 1.61377 14.5293
192 3 9.37232 4.66299 12.3048
187 3 7.83494 0.682847 13.582
182 4 9.07204 5.58056 10.9557
144 2 8.90764 5.45224 14.7093
164 2 9.98024 1.21567 11.3526
45 1 4.47012 6.02435 11.6226
105 3 9.53492 2.78939 8.25722
52 1 10.3248 0.849033 10.3132
259 2 11.4299 2.33223 15.136
189 3 10.304 2.43723 13.7285
200 2 12.1762 2.34144 11.757
197 2 7.19307 6.12275 15.2524
235 2 13.2414 2.19858 15.5896
181 4 10.5709 3.86022 13.0018
190 3 11.4615 4.78378 14.1483
172 4 14.2462 1.54252 13.1566
174 2 12.4091 1.65136 13.6304
175 2 11.9882 0.676404 11.4307
177 2 14.383 0.349626 11.5579
185 1 11.7346 3.49783 11.5581
201 2 12.5351 4.32971 11.8569
202 2 11.3439 3.63821 10.5236
263 3 12.9988 1.50508 8.92287
173 1 12.8498 0.525114 12.2667
165 2 11.2655 1.3757 10.0482
262 3 15.0674 0.833695 14.2801
23 4 6.64607 2.52891 11.2657
122 2 5.31112 6.28319 8.27799
110 2 13.5326 3.2394 10.6739
146 2 4.83001 6.36233 12.656
210 1 8.57466 7.83622 7.6923
257 2 1.24349 12.3469 4.177
213 2 9.39835 8.28663 4.84944
49 1 2.1273 10.7282 5.18437
150 2 2.87242 9.85806 1.73765
154 2 2.22082 11.6907 5.91834
155 2 2.35437 10.8963 4.09688
253 2 10.2353 8.00912 0.935837
166 2 3.49132 8.06009 1.93164
156 2 2.67027 9.76693 5.63108
104 3 4.66115 6.68064 4.17871
240 2 3.99954 9.11103 0.542562
238 3 4.62408 11.9158 0.747334
239 2 6.46825 10.0623 1.96482
38 4 5.04327 7.3569 2.60373
167 2 6.25808 8.73191 2.98206
168 2 7.65063 7.63305 5.07506
208 4 6.51352 11.2224 7.0612
211 3 6.75745 10.5212 5.67217
212 3 5.12292 11.7432 7.51549
241 2 4.22204 10.0382 2.93506
237 1 4.7383 9.36656 2.22783
236 4 5.26592 10.4461 0.668832
216 2 8.50743 7.93687 6.47919
130 2 8.25783 8.21354 3.39303
53 1 8.32584 8.31842 4.47279
2 3 8.26952 11.048 3.30747
206 4 8.17135 10.2254 4.68559
274 2 9.61641 7.67077 8.01793
134 2 5.94754 8.96767 7.81245
268 2 8.50645 8.00651 0.162457
199 2 1.87157 12.6697 15.6865
203 2 9.29324 8.20735 10.5514
186 1 8.95514 7.45442 11.3737
123 2 5.58238 10.1353 9.17403
108 3 3.08101 10.3402 12.3798
176 2 4.14031 12.3592 13.8867
218 2 7.77805 7.07517 8.09813
252 2 9.58095 7.42262 14.8707
204 2 9.38504 7.58293 12.4235
43 1 8.70957 10.6389 13.9973
40 4 4.42661 11.0109 12.7166
140 2 8.13206 11.597 14.1913
217 2 7.66293 10.499 8.46693
209 1 6.44704 9.54597 8.70084
157 2 6.85611 8.75877 9.43809
131 2 5.08523 11.6066 11.1603
251 1 9.2773 8.08132 15.7227
269 2 8.05275 9.75552 13.8495
264 2 5.72407 10.1627 14.7954
205 2 7.81951 7.50071 11.468
109 3 5.95668 9.85836 13.4102
132 2 5.42605 9.04208 13.1662
116 2 10.8681 7.64247 10.856
214 2 2.78275 12.5619 8.64591
215 2 6.71429 6.73467 9.43516
163 2 2.29085 12.344 10.3122
219 2 8.39539 8.82743 8.13802
ITEM: TIMESTEP
100
ITEM: NUMBER OF ATOMS
274
ITEM: BOX BOUNDS xy xz yz pp pp pp
-7.7251310803976816e+00 1.5953594261700225e+01 -8.1220011115319757e+00
1.1575009082220096e-01 1.2717076734416871e+01 -3.1447357937576143e-01
1.5947396079707854e-01 1.5916026039202713e+01 -9.1731747610414409e-03
ITEM: ATOMS id type x y z
225 2 5.59276 2.92702 2.80426
111 2 2.31822 0.386264 4.48708
9 4 -0.0625649 3.9248 1.72242
62 3 0.0766466 5.06064 6.35084
112 2 -1.5887 4.68622 1.24746
12 4 -1.01824 5.83976 5.52206
58 3 -0.344449 3.00421 2.98923
228 2 0.663915 6.31042 0.326276
80 3 4.32748 3.24865 8.00576
7 4 1.09523 1.04995 5.67423
10 4 0.61467 3.97264 7.28027
59 3 0.506891 3.10983 0.489696
61 3 1.73755 2.5462 6.14626
78 3 0.936896 5.12161 2.12707
28 4 3.71373 5.65139 4.53306
242 1 3.14023 0.450562 2.70212
143 2 2.87107 3.73904 1.38471
26 4 3.52638 3.60785 6.71797
44 1 4.00239 3.68441 1.7778
221 1 6.45938 2.44881 3.36909
243 2 2.53617 1.39251 2.96345
222 3 5.29264 0.609915 0.593123
113 2 -2.09594 4.57962 5.27679
85 3 3.94961 5.00607 5.9501
81 3 4.54314 2.36901 5.58396
25 4 0.944144 6.32185 3.28238
84 3 2.21583 6.17636 4.25911
244 2 7.16982 1.5059 1.85125
141 2 3.9961 4.28658 3.32025
24 4 4.66407 4.98658 0.631166
142 2 4.39485 2.61764 1.58842
118 2 6.12263 0.851015 3.56793
21 4 5.95935 2.01744 5.23944
256 2 8.02517 0.369208 3.43738
74 3 6.88155 1.29859 6.23712
249 1 -2.4543 6.32606 0.638636
223 2 3.97823 0.626644 1.90668
55 3 1.04289 0.436787 1.33194
246 2 3.30751 2.5469 0.255118
79 3 -0.624018 6.3775 4.05506
178 4 -3.08068 6.06241 14.3497
65 3 -2.39855 5.28111 9.46343
250 2 -1.52042 5.65105 15.2784
60 3 -0.312475 3.18138 8.27987
13 4 0.317338 4.19868 12.2293
63 3 -0.629872 3.04451 12.7761
66 3 -0.426143 5.15647 11.2517
14 4 -1.20422 6.13544 10.1551
57 3 0.242054 1.35805 10.1218
76 3 6.23607 0.979022 11.4957
5 4 0.699316 1.60488 15.8202
75 3 5.3768 3.21002 10.3383
8 4 1.74143 1.92844 10.829
64 3 1.58689 3.5595 11.6466
73 3 2.99488 1.83436 9.91771
114 2 0.949407 5.20616 13.5707
245 1 2.48873 1.78423 15.1818
247 2 2.35145 2.27992 14.0886
227 3 2.95167 5.59666 15.5403
138 2 2.12127 1.02856 13.3177
226 4 1.68791 6.15145 14.9551
42 1 2.02669 0.597649 12.2219
248 2 2.97525 0.708907 15.1674
20 4 4.34492 2.2619 9.25415
124 2 3.66554 4.87469 11.9414
117 2 5.0107 0.767936 8.69108
262 3 -0.11308 1.0263 14.5317
135 2 0.79754 0.309291 8.16788
82 3 1.90708 4.50114 8.05537
220 4 -1.55517 12.5267 1.21925
265 2 -4.672 12.3538 3.5771
41 1 -7.17841 12.51 7.10588
266 2 -1.97785 7.09952 1.34782
91 3 -1.84007 9.35985 7.87159
133 2 -6.09959 11.9275 6.91445
16 4 -2.64446 8.09079 7.08346
17 4 -3.99185 10.353 5.75404
70 3 -3.69833 8.77064 6.00333
90 3 -3.12752 11.0422 4.63116
115 2 -3.57426 11.2439 7.17936
31 4 -1.84868 10.479 3.62845
152 2 -2.59265 8.94948 1.64378
48 1 -2.41136 8.83915 2.77716
153 2 -3.40417 8.72472 3.3571
69 3 -5.58073 10.4843 5.39765
1 4 -6.32286 11.8192 2.05388
3 3 -5.69233 10.8336 0.887935
68 3 -1.70031 6.99158 6.3576
89 3 -1.72476 11.4845 2.38478
148 2 2.76297 8.03453 7.29912
151 2 -1.61695 7.96157 3.06479
93 3 -0.544528 10.2518 4.43902
94 3 0.0683923 11.5655 6.68494
271 2 -1.00292 8.92618 1.43702
19 4 -0.755549 12.6722 7.40284
30 4 0.76482 8.68738 1.33604
33 4 0.478781 10.3554 5.79367
87 3 1.16844 7.74894 2.54548
149 2 0.511927 8.78099 6.90981
272 2 1.22402 10.8249 2.08607
147 2 1.72768 6.92217 6.154
46 1 1.73896 7.56231 7.04324
160 2 -0.698139 9.61695 15.1646
95 3 1.98214 7.49266 12.3752
71 3 -2.88811 7.01363 13.0992
92 3 -2.5343 11.9265 8.2268
128 2 0.364285 10.1948 12.9841
34 4 1.78932 9.42468 12.2986
67 3 -3.59928 7.42654 8.32368
98 3 -3.98739 10.06 14.9946
35 4 -2.7445 10.1067 13.7774
96 3 -3.11472 9.5031 11.8884
127 2 -2.65431 10.1062 10.41
15 4 -5.47851 9.84282 15.4659
139 2 -5.4857 9.92109 13.1
18 4 -2.91792 7.88914 11.7356
162 2 -2.07642 8.38958 15.2241
97 3 -2.08885 11.6334 13.5372
50 1 0.580716 9.87534 11.0677
32 4 -1.89845 10.5522 8.9061
83 3 0.1574 6.73224 9.05693
22 4 -1.17164 12.6182 12.6141
88 3 0.694462 7.77797 15.6957
126 2 -0.290917 10.7161 9.54431
161 2 -1.0021 8.40265 13.7011
51 1 -1.48804 9.03021 14.5329
120 2 -0.22544 11.4237 11.7622
72 3 -1.55362 7.61187 10.7743
159 2 -0.159332 8.97977 10.8829
29 4 2.85827 6.70355 11.332
86 3 2.71784 6.97866 9.67446
27 4 1.56694 6.4984 8.53173
229 2 1.93554 7.58571 14.049
198 2 -0.625348 11.9599 15.7102
158 2 1.38169 9.98514 10.1497
195 2 -3.21983 12.3429 15.6865
137 2 -7.07498 12.5994 12.0445
193 2 -3.80012 7.14898 15.7795
140 2 -6.01856 11.6185 13.7154
43 1 -6.22849 10.4826 13.7651
136 2 -5.1864 12.5422 11.8996
270 2 6.93918 3.55496 4.74846
224 2 7.45117 2.69156 2.94486
171 2 7.42061 4.43711 6.49678
231 1 12.4242 2.27319 0.258794
119 2 9.17684 1.43764 4.42523
254 1 9.11418 0.57315 3.60758
255 2 9.63946 0.926242 2.65745
169 2 8.44351 5.03575 5.1783
54 1 8.34593 4.98294 6.30482
39 4 9.78762 3.9909 6.91859
273 2 9.19289 0.904553 1.3237
184 1 9.19994 0.43028 0.290966
129 2 11.0215 1.05294 3.95173
170 2 8.32056 6.0853 6.77994
4 4 14.0983 1.95489 3.8749
37 4 11.5379 2.14207 5.1955
101 3 12.6994 3.06361 4.62781
102 3 11.9498 1.29965 6.49721
106 3 10.1449 3.08442 5.50915
232 3 13.0472 1.08782 2.85504
56 3 14.9479 1.1378 4.91565
230 4 12.3881 0.809214 1.38299
207 4 12.3824 0.583575 7.81532
234 2 12.3111 3.11745 0.971006
233 2 10.7014 1.33552 1.20018
107 3 11.0617 4.97223 7.35479
103 3 5.41742 6.24095 1.4987
260 2 7.0187 5.35716 7.80106
267 2 12.3074 5.48312 1.22941
99 3 8.16223 0.622221 8.62455
258 1 6.2304 5.75039 8.69157
261 2 5.98733 4.81609 9.31114
11 4 11.4381 5.75687 8.73813
100 3 7.91443 2.70177 10.3579
121 2 6.69369 3.32522 12.8746
179 4 6.82213 4.03112 14.5725
188 3 7.75765 3.00884 15.3385
183 1 7.77514 5.57442 14.8062
194 2 7.45134 5.17565 10.1429
196 2 7.5043 5.90644 13.5713
145 2 5.2659 6.36153 11.2408
77 3 5.34427 4.36936 15.2686
191 3 10.1084 5.76325 9.82334
6 4 14.3424 2.23244 9.39907
36 4 8.83649 1.92011 9.28691
180 4 8.6721 1.65628 14.7142
192 3 9.3468 4.60769 12.1569
187 3 7.88924 0.916707 13.5117
182 4 8.94873 5.55754 10.8838
144 2 8.86766 5.25444 14.9998
164 2 9.97445 1.49723 11.2508
45 1 4.38781 6.28243 11.9945
105 3 9.45209 2.98774 8.21878
52 1 10.291 0.971379 10.2653
259 2 11.3532 2.26094 15.0539
189 3 10.248 2.36019 13.8153
200 2 12.1642 2.24925 11.7941
197 2 7.27777 6.20248 15.6014
235 2 13.2258 2.18476 15.7479
181 4 10.4933 3.78763 12.988
190 3 11.3832 4.75505 14.0027
172 4 14.3023 1.55677 13.2259
174 2 12.4962 1.50593 13.7562
175 2 11.8405 0.570744 11.6314
177 2 14.375 0.408407 11.6989
185 1 11.7945 3.35012 11.6228
201 2 12.5771 4.09621 12.0008
202 2 11.4398 3.57361 10.5901
263 3 13.1663 1.39392 8.86157
173 1 12.725 0.400167 12.3791
165 2 11.2429 1.39342 9.81038
122 2 5.27868 6.07687 8.23181
23 4 6.53448 2.5675 11.2228
110 2 13.5675 3.12881 10.6756
210 1 8.43687 7.95722 7.64595
257 2 1.42055 12.1974 4.09077
213 2 9.1603 7.87771 5.04664
49 1 2.14017 10.5137 4.9845
150 2 2.96553 9.98447 1.67537
154 2 2.54555 11.5618 5.24141
155 2 2.14634 10.1841 3.9209
253 2 10.1216 7.90573 0.886258
166 2 3.60653 8.15949 1.94674
156 2 2.63774 9.67982 5.76833
104 3 4.82479 6.85166 4.25947
240 2 4.05372 9.04881 0.509166
238 3 4.42186 11.9584 0.693062
239 2 6.51776 10.2548 1.74389
38 4 5.14002 7.34562 2.6301
167 2 6.39698 8.71752 2.65336
168 2 7.23486 7.85729 4.6394
208 4 6.57309 11.0802 7.16575
211 3 6.93625 10.3341 5.87919
212 3 5.1401 11.9328 7.45286
241 2 4.48171 10.2348 2.92674
237 1 4.84343 9.43527 2.18576
236 4 5.14688 10.5032 0.549499
216 2 8.39827 8.13705 6.45531
130 2 8.58349 8.35188 3.22612
53 1 8.29219 8.26389 4.42685
2 3 8.16076 10.9151 3.27988
206 4 8.27397 10.1832 4.65768
274 2 9.56365 7.57294 7.84526
134 2 6.35186 8.74117 7.88077
125 2 1.82174 10.6643 0.279992
47 1 1.87024 10.2379 1.34652
218 2 7.6351 7.18269 7.9869
163 2 2.17214 12.4172 10.3379
203 2 9.31517 7.97578 10.5049
186 1 8.86818 7.3955 11.3443
123 2 5.21413 10.0312 8.70437
108 3 3.13608 10.2986 12.4819
176 2 4.0354 12.3092 13.9368
215 2 6.60582 6.58755 9.31699
252 2 9.61342 7.36554 14.8963
204 2 9.2792 7.75612 12.3292
116 2 10.86 7.52522 11.0035
40 4 4.5554 10.9716 12.6735
146 2 4.49146 6.80166 12.9959
217 2 7.5756 10.6123 8.70467
209 1 6.23264 9.49271 8.72349
157 2 6.28126 8.86931 9.61905
131 2 5.13546 11.669 11.1247
251 1 9.22378 8.0376 15.7217
269 2 7.83236 10.1929 13.6665
264 2 5.71319 10.1826 14.7882
205 2 7.65042 7.39658 11.2657
109 3 6.18997 9.94055 13.4172
132 2 5.72056 9.10116 13.0623
268 2 8.11074 7.9293 15.9128
214 2 2.84186 12.6629 8.68665
219 2 8.2483 8.93063 8.20163
199 2 1.82048 12.6087 15.7662
ITEM: TIMESTEP
200
ITEM: NUMBER OF ATOMS
274
ITEM: BOX BOUNDS xy xz yz pp pp pp
-7.7251310803976816e+00 1.5953594261700225e+01 -8.1220011115319757e+00
1.1575009082220096e-01 1.2717076734416871e+01 -3.1447357937576143e-01
1.5947396079707854e-01 1.5916026039202713e+01 -9.1731747610414409e-03
ITEM: ATOMS id type x y z
225 2 5.68932 2.94759 2.86247
111 2 2.31822 0.255652 4.46372
9 4 0.0881545 3.93405 1.76771
62 3 -0.116146 4.84175 6.20145
112 2 -1.40761 4.66975 1.19206
12 4 -1.11811 5.72778 5.44794
58 3 -0.226301 3.0235 3.01534
228 2 0.649202 6.34248 0.352146
80 3 4.17237 3.13047 8.01826
7 4 1.10195 0.849116 5.56936
10 4 0.711466 4.01195 7.19394
59 3 0.543411 3.0742 0.545603
61 3 1.77024 2.59582 6.15696
78 3 1.08384 5.20095 2.13873
28 4 3.86165 5.64911 4.60652
242 1 3.26346 0.163222 2.74209
143 2 3.05462 3.573 1.74063
26 4 3.60396 3.50707 6.61063
44 1 4.21769 3.69444 1.75112
221 1 6.60377 2.32862 3.50659
243 2 2.73799 1.13419 3.02353
222 3 5.18615 0.620541 0.481884
82 3 1.9719 4.78032 7.89273
85 3 3.98321 5.19632 6.09768
81 3 4.53388 2.57288 5.52589
25 4 1.02894 6.27473 3.38856
84 3 2.31741 6.01873 4.32427
244 2 7.21299 1.51452 1.7887
141 2 4.40036 4.33463 3.53795
24 4 4.51512 5.03649 0.6285
142 2 4.92368 2.85085 1.29198
118 2 6.14424 0.952042 3.48954
21 4 6.0092 2.14451 5.34497
256 2 7.8761 0.25935 3.83337
74 3 6.76541 1.09049 6.29115
249 1 -2.56016 6.16936 0.64274
223 2 3.99512 0.350096 1.87784
55 3 0.753712 0.509722 1.31564
246 2 3.3607 2.36131 0.381933
79 3 -0.475271 6.15313 4.05572
135 2 0.764966 0.80687 7.87939
178 4 -3.14832 6.03779 14.3496
65 3 -2.40465 5.4166 9.4581
250 2 -1.58544 5.5638 15.1472
60 3 -0.203819 3.30301 8.2206
13 4 0.260756 4.13186 12.2803
63 3 -0.800079 3.10629 12.8672
66 3 -0.350344 5.1487 11.288
14 4 -1.13256 6.14448 10.1701
57 3 0.187696 1.60554 9.98033
76 3 6.0479 0.832903 11.6604
23 4 6.4534 2.47207 11.361
75 3 5.32225 3.22844 10.4803
8 4 1.74677 1.89828 10.9306
64 3 1.56522 3.33411 11.8005
73 3 3.10306 1.6979 9.85259
114 2 0.890011 5.09262 13.6086
245 1 2.43963 1.82564 15.2856
247 2 2.46561 2.41336 14.3607
227 3 2.89843 5.5513 15.6114
138 2 2.33793 1.13329 13.3549
226 4 1.62277 6.10793 14.9269
42 1 2.15393 0.667379 12.2693
248 2 2.84642 0.737656 15.1552
20 4 4.42664 2.24993 9.27207
124 2 3.77757 4.95323 12.2157
117 2 5.24466 0.827611 8.78748
5 4 0.58823 1.5827 15.7817
136 2 3.10915 0.128069 11.9264
6 4 -0.929051 2.42627 9.27399
220 4 -1.5839 12.6501 1.08756
265 2 -4.38324 12.2703 3.65011
41 1 -7.27432 12.5617 7.1341
266 2 -1.92248 6.68819 1.35712
46 1 2.01091 7.77431 7.27044
133 2 -6.29578 11.9751 7.20817
16 4 -2.67315 8.14082 7.20865
17 4 -3.97968 10.3724 5.75756
70 3 -3.63887 8.91229 6.24384
90 3 -3.10131 10.8466 4.5672
115 2 -3.67496 11.4683 7.03061
31 4 -1.85762 10.4116 3.59364
152 2 -2.54839 8.98918 1.68777
48 1 -2.33775 8.77525 2.79041
153 2 -3.19147 8.22663 3.34672
69 3 -5.58733 10.5041 5.41132
1 4 -6.42144 11.9558 1.99699
3 3 -5.86949 10.981 0.697235
68 3 -1.7261 7.00509 6.19499
89 3 -1.65148 11.5688 2.33778
147 2 2.35919 7.03702 6.4344
151 2 -1.30876 8.17591 2.95281
93 3 -0.439186 10.0352 4.56163
94 3 0.350873 11.4457 6.7118
271 2 -0.879071 9.20189 1.45666
19 4 -0.705895 12.5878 7.42102
30 4 0.800827 8.69106 1.28322
33 4 0.651671 10.0717 5.86781
87 3 1.18517 7.89473 2.67375
149 2 0.574221 8.53548 6.81256
272 2 1.14635 10.9611 1.94957
148 2 2.85749 8.37563 7.60614
160 2 -0.267284 9.97435 14.728
95 3 1.82088 7.39553 12.4908
71 3 -2.88696 7.1661 13.2132
92 3 -2.42974 11.9735 8.233
128 2 0.547426 9.9317 13.2036
34 4 1.73357 9.27156 12.146
67 3 -3.75347 7.38271 8.22939
98 3 -3.98155 9.96106 15.0009
35 4 -2.66181 10.1813 13.7147
96 3 -3.0317 9.50257 11.9207
127 2 -2.648 10.2573 10.5247
15 4 -5.49966 9.96664 15.3966
91 3 -1.82572 9.26375 8.14114
18 4 -3.00072 7.90482 11.8201
162 2 -1.64353 8.79121 15.3189
97 3 -2.17178 11.6846 13.4826
50 1 0.303048 9.90944 11.2546
32 4 -1.85507 10.6402 8.94717
83 3 0.017925 6.53499 9.03435
22 4 -1.15502 12.5696 12.6956
88 3 0.768723 7.79895 15.6792
126 2 -0.349723 11.1202 9.80131
161 2 -0.936978 8.59165 13.5828
51 1 -1.16967 9.34159 14.4792
120 2 0.0681013 11.5601 11.7583
72 3 -1.75955 7.32031 10.9633
159 2 -0.590011 9.2305 11.4428
29 4 2.708 6.51144 11.4857
86 3 2.63987 6.75575 9.88664
27 4 1.54205 6.53376 8.58006
229 2 2.0231 7.59815 14.1716
198 2 -0.571611 12.1959 15.6929
158 2 0.8123 9.68961 10.1304
195 2 -3.35687 12.3686 15.6145
137 2 -6.88838 12.5936 12.2322
193 2 -4.03465 7.06182 15.8837
140 2 -5.69347 11.3266 13.4122
43 1 -6.08347 10.3267 13.5932
270 2 7.0153 3.54402 4.98105
224 2 7.61968 2.50216 3.08097
171 2 7.15124 4.54255 6.44487
231 1 12.4224 2.40127 0.294157
119 2 9.13105 1.37756 4.43455
254 1 8.96755 0.493815 3.83357
255 2 9.32281 0.768326 2.73494
169 2 8.38589 5.00634 5.11286
54 1 8.21648 4.98111 6.2127
39 4 9.69646 3.94851 6.90049
273 2 9.21116 1.16173 1.38311
184 1 9.36455 0.598842 0.307711
129 2 10.8691 1.03525 4.02101
170 2 8.33741 6.03909 6.71675
4 4 14.0371 1.97756 3.73722
37 4 11.4713 2.19514 5.10312
101 3 12.6751 3.13981 4.59413
102 3 11.8919 1.41218 6.39934
106 3 10.1254 3.10919 5.43731
232 3 13.1297 1.13625 2.78804
56 3 14.9508 1.17185 4.88576
230 4 12.5786 0.858929 1.34069
207 4 12.3557 0.644318 7.70182
234 2 12.2157 3.29924 0.957704
233 2 10.8765 1.30069 1.27888
107 3 10.9575 4.95516 7.28327
113 2 12.7986 4.77411 4.95501
260 2 7.17077 5.35815 7.95648
267 2 12.2238 5.1949 1.01786
99 3 8.13199 0.665963 8.6834
258 1 6.36624 5.67252 8.76821
261 2 5.96212 4.66347 9.26779
11 4 11.4686 5.76704 8.74328
100 3 7.83244 2.52206 10.5018
121 2 6.6704 3.28358 12.9655
179 4 6.94699 4.05854 14.5713
188 3 7.81762 3.03007 15.3675
183 1 7.6456 5.78342 14.8456
194 2 7.57931 4.85482 10.1333
196 2 7.8859 5.90057 13.626
110 2 13.4061 3.34297 10.3933
77 3 5.43562 4.22193 15.1667
191 3 10.2056 5.64461 9.7433
262 3 15.1027 0.992274 14.4091
36 4 8.74429 1.97624 9.25668
180 4 8.75421 1.63307 14.6156
192 3 9.33129 4.57682 12.1468
187 3 7.89214 0.771099 13.6807
182 4 8.99133 5.45818 10.8274
144 2 8.53623 5.51815 15.528
164 2 10.1727 1.72006 11.1324
214 2 10.9478 0.133886 8.52069
105 3 9.14804 3.02482 8.0518
52 1 10.3522 1.21875 10.1476
259 2 11.4378 2.39223 15.1396
189 3 10.2333 2.33703 13.7671
200 2 12.1526 2.30803 11.7874
215 2 6.77041 6.41281 9.48973
235 2 13.1783 2.39723 15.6354
181 4 10.537 3.77717 13.0306
190 3 11.1825 4.87105 13.9725
172 4 14.1883 1.6112 13.2555
174 2 12.349 1.40375 13.7444
175 2 11.803 0.653523 11.4946
177 2 14.2279 0.431246 11.7841
185 1 11.825 3.41966 11.562
201 2 12.5816 4.18492 11.8446
202 2 11.3253 3.56463 10.5434
263 3 13.2395 1.47125 8.69561
173 1 12.6192 0.430867 12.3198
165 2 11.4294 1.47997 9.75906
122 2 5.51822 6.11888 8.17964
210 1 8.47708 7.8644 7.65252
257 2 1.40754 12.0973 4.29697
213 2 9.45306 8.01635 4.67712
49 1 2.25052 10.4389 5.08985
150 2 2.94381 10.0873 1.73065
154 2 2.85483 11.297 5.5409
155 2 2.09041 10.6217 3.97072
253 2 9.93385 7.96045 0.916738
166 2 3.4999 8.47154 2.15755
156 2 2.7078 9.29301 5.29393
104 3 4.83891 6.88747 4.14369
240 2 4.13582 9.19741 0.627747
238 3 4.60909 11.9472 0.593126
239 2 6.56016 10.3561 1.78908
38 4 5.09806 7.57156 2.64184
167 2 6.41954 8.89187 2.84552
168 2 7.62926 7.47424 4.91346
208 4 6.47276 11.1184 7.15504
211 3 7.09696 10.2557 5.88953
212 3 5.02184 11.8669 7.30456
241 2 4.53726 10.4958 2.9937
237 1 4.83559 9.66634 2.33596
236 4 5.2892 10.5072 0.594091
216 2 8.46867 7.95924 6.48416
130 2 8.09204 8.33105 3.24799
53 1 8.34341 8.13437 4.37206
2 3 8.18575 11.1032 3.17217
206 4 8.3228 10.02 4.78277
274 2 9.48847 7.61695 7.97311
134 2 6.30372 8.89608 7.86465
103 3 5.3795 6.57588 1.39669
47 1 1.82194 10.2575 1.31014
125 2 1.83156 10.5147 0.181905
139 2 9.44812 9.54316 12.839
203 2 9.10286 8.13507 10.7527
186 1 8.8683 7.24323 11.4594
123 2 5.15538 10.0467 8.89304
108 3 3.15359 10.1221 12.3423
176 2 4.31819 12.2104 13.9402
199 2 1.92999 12.6349 15.7887
252 2 9.3091 7.51279 14.8755
204 2 9.45408 7.16516 12.4685
116 2 10.8118 7.41378 11.0554
40 4 4.51628 10.9624 12.5403
146 2 4.39003 7.19941 12.9816
217 2 7.37413 11.009 8.81248
209 1 6.22682 9.60807 8.76484
157 2 6.49614 9.10582 9.75873
131 2 4.81532 11.7564 10.9467
251 1 9.06211 8.20328 15.7422
269 2 7.98742 10.4401 13.55
264 2 5.74455 10.1579 14.7113
205 2 7.65987 7.12219 11.6496
109 3 6.16924 10.0939 13.3088
132 2 5.92892 9.24642 12.931
145 2 4.95169 6.78891 11.0846
45 1 4.34 6.4535 12.096
219 2 8.19217 8.82252 8.16002
197 2 6.83237 6.46434 15.3026
163 2 2.04532 12.6831 10.2505
218 2 7.66644 7.10549 8.08972
268 2 7.93241 8.21407 15.8836
ITEM: TIMESTEP
300
ITEM: NUMBER OF ATOMS
274
ITEM: BOX BOUNDS xy xz yz pp pp pp
-7.7251310803976816e+00 1.5953594261700225e+01 -8.1220011115319757e+00
1.1575009082220096e-01 1.2717076734416871e+01 -3.1447357937576143e-01
1.5947396079707854e-01 1.5916026039202713e+01 -9.1731747610414409e-03
ITEM: ATOMS id type x y z
225 2 5.61288 3.0309 2.79564
135 2 0.372414 0.842823 7.88599
9 4 0.0961204 3.89681 1.71872
62 3 -0.271328 4.79687 6.24989
112 2 -1.34926 4.74331 1.23475
12 4 -1.14877 5.79874 5.43331
58 3 -0.193114 3.05854 3.04698
228 2 0.68021 6.0745 0.47136
113 2 -2.32557 4.74564 4.86317
7 4 1.0725 0.966221 5.5612
10 4 0.714362 3.97654 7.07489
59 3 0.517258 3.10291 0.43572
61 3 1.61492 2.68199 6.06728
78 3 1.1684 5.03753 2.20024
28 4 3.91308 5.63104 4.6157
79 3 -0.397762 6.36732 4.19789
143 2 3.08487 3.73436 1.65899
26 4 3.63436 3.61686 6.68047
44 1 4.15717 3.81798 1.73073
221 1 6.50737 2.38246 3.4903
243 2 2.62471 1.10238 2.92374
222 3 5.04312 0.333166 0.602126
82 3 2.03239 4.84881 7.49381
85 3 4.37156 5.19348 6.08071
81 3 4.60278 2.58915 5.55823
25 4 1.15725 6.29336 3.38993
84 3 2.33382 5.86926 4.42329
244 2 6.86211 1.59323 1.76913
141 2 4.47306 4.38615 3.45534
24 4 4.64278 5.16308 0.58154
142 2 4.70001 2.86408 1.44569
118 2 6.046 0.963552 3.66205
21 4 6.05101 2.08788 5.43785
246 2 3.33898 2.63671 0.319243
74 3 6.79292 1.04173 6.36739
249 1 -2.3351 6.3764 0.755067
223 2 4.03263 0.139008 1.97794
55 3 0.957862 0.501922 1.33212
111 2 2.27758 0.31646 4.5125
41 1 0.680662 0.121994 7.11011
80 3 4.23515 2.97846 8.02717
178 4 -3.17955 6.25467 14.502
65 3 -2.31374 5.25625 9.31506
250 2 -1.49698 5.92153 15.178
60 3 -0.010031 3.2627 8.31233
13 4 0.143806 4.19316 12.2689
63 3 -0.873757 3.07348 12.7668
66 3 -0.442703 5.14708 11.2129
14 4 -1.13553 6.06401 10.0787
57 3 0.194261 1.51416 10.0636
76 3 6.06124 1.00405 11.7899
23 4 6.47697 2.54496 11.3629
75 3 5.31994 3.16438 10.4326
8 4 1.58331 1.9564 10.9029
64 3 1.47052 3.50336 11.7679
73 3 2.97562 1.95077 10.0632
114 2 0.89309 5.08316 13.6288
245 1 2.4128 1.98419 15.1827
247 2 2.32724 2.71811 14.2279
227 3 2.98416 5.57296 15.5536
138 2 2.17636 1.13507 13.3069
226 4 1.6051 6.03004 15.0427
42 1 1.95519 0.61189 12.2522
248 2 2.88778 1.03297 14.9442
20 4 4.41438 2.18931 9.33105
124 2 3.83317 4.85687 12.3261
117 2 5.03049 0.611979 8.97933
5 4 0.68825 1.59284 15.8316
6 4 -0.869435 2.39058 9.26064
86 3 2.50551 6.41251 10.0323
220 4 -1.62207 12.5125 1.20916
265 2 -4.61123 12.0894 3.69032
242 1 -4.91071 12.6815 2.77438
266 2 -1.74842 6.86032 1.61891
46 1 2.07682 7.96746 7.68212
133 2 -6.45453 12.1388 7.24545
16 4 -2.67561 8.1239 7.23565
17 4 -3.86923 10.4597 5.78602
70 3 -3.47973 9.00441 6.26952
90 3 -3.04287 10.7732 4.48477
115 2 -3.26999 11.5186 6.97322
31 4 -1.80989 10.3132 3.67452
152 2 -2.63188 8.73448 1.57887
48 1 -2.29615 8.70867 2.68056
153 2 -3.17268 8.37876 3.32937
69 3 -5.53125 10.6415 5.54073
1 4 -6.37439 11.7909 1.92963
3 3 -5.76438 10.9628 0.705604
68 3 -1.92107 6.89634 6.3297
89 3 -1.57328 11.4057 2.37515
147 2 2.96552 7.61292 7.13859
151 2 -1.44837 8.03844 2.79848
93 3 -0.451533 10.1323 4.48712
94 3 0.14427 11.3022 6.68486
271 2 -0.860047 8.97766 1.3532
19 4 -0.771987 12.4166 7.36234
30 4 0.834902 8.66589 1.40876
33 4 0.543868 10.0982 5.78996
87 3 1.35611 7.74746 2.7243
149 2 0.747239 8.37775 6.64062
272 2 1.18044 11.0347 1.98541
193 2 -3.60667 7.28417 0.277478
256 2 -0.203165 12.659 3.60049
160 2 -0.370046 9.96101 14.9869
95 3 1.88596 7.49755 12.5798
71 3 -2.98027 7.33751 13.3673
92 3 -2.50704 11.7941 8.37985
128 2 0.443572 10.2592 12.9068
34 4 1.72675 9.30601 12.0742
67 3 -3.94167 7.33285 8.43341
98 3 -3.93243 9.85724 14.9188
35 4 -2.61857 10.1579 13.816
96 3 -2.98032 9.47997 12.0159
127 2 -2.72461 9.99279 10.5434
15 4 -5.48267 10.019 15.1881
91 3 -1.71883 9.14693 8.10081
18 4 -2.98291 7.87968 11.9182
162 2 -1.43894 8.52913 15.2292
97 3 -2.11829 11.6797 13.6772
50 1 0.371765 9.66227 11.081
32 4 -1.89221 10.4643 9.02612
83 3 0.0193027 6.74716 9.13403
22 4 -1.27255 12.53 12.7231
88 3 0.732351 7.63798 15.8488
126 2 -0.360581 10.9386 9.77481
161 2 -0.6002 8.83902 13.5282
51 1 -1.04802 9.29317 14.4694
120 2 -0.461241 11.3142 11.6998
72 3 -1.75412 7.34429 10.9449
159 2 -0.372229 8.72543 11.0574
29 4 2.75325 6.46314 11.6231
148 2 2.31193 8.76426 8.59075
27 4 1.51626 6.58435 8.6791
229 2 1.73041 7.57698 14.2496
198 2 -0.551601 12.2169 15.7653
158 2 0.980766 9.66709 10.0026
195 2 -3.31208 11.9979 15.7498
140 2 -5.93252 11.296 13.1163
137 2 -7.09273 12.5764 12.2181
136 2 -5.24779 12.6676 11.8312
270 2 7.19499 3.40817 4.9329