ITEM: TIMESTEP
0
ITEM: NUMBER OF ATOMS
274
ITEM: BOX BOUNDS xy xz yz pp pp pp
-7.8955649125372336e+00 1.6261518517279825e+01 -8.2860819420679768e+00
1.1575009082220096e-01 1.2717076734416871e+01 -3.2082658097931221e-01
1.5947396079707854e-01 1.5916026039202713e+01 -9.1731747610414409e-03
ITEM: ATOMS id type x y z
225 2 5.6261 3.16979 2.86372
111 2 2.25004 0.283784 4.5774
9 4 -0.042729 3.8649 1.69959
62 3 -0.0270624 4.95201 6.39148
112 2 -1.41355 4.55679 0.976265
12 4 -1.07248 5.77701 5.6174
58 3 -0.425414 2.99015 2.92515
246 2 3.20926 2.79645 0.211739
80 3 4.52548 3.15608 8.00734
7 4 1.00365 1.03073 5.70661
10 4 0.73218 3.96593 7.34234
59 3 0.437712 2.92972 0.520698
61 3 1.57963 2.50454 6.18581
78 3 0.853819 5.03685 2.18984
28 4 3.70844 5.51845 4.57377
82 3 2.10299 4.64176 8.01864
143 2 2.93008 3.97616 1.90076
26 4 3.54142 3.46216 6.72342
44 1 4.0662 3.78224 1.71572
221 1 6.52572 2.77712 3.49629
243 2 3.30657 1.20899 3.41976
222 3 5.09588 0.336287 0.580775
113 2 -2.24951 4.71291 5.04905
85 3 3.88541 5.0553 6.09223
81 3 4.28435 2.3066 5.43809
25 4 0.984974 6.3101 3.40037
84 3 2.23615 5.83214 4.2705
244 2 6.96598 1.4526 2.14102
141 2 4.42644 4.25685 3.57312
24 4 4.61784 4.9896 0.539991
142 2 4.28038 2.68923 1.37166
118 2 6.09357 1.08597 3.6376
21 4 5.81091 2.02765 5.2155
242 1 3.3164 0.125647 2.98484
74 3 6.73487 1.24081 6.51601
249 1 -2.21773 6.28165 0.415666
223 2 4.01732 0.260936 1.99572
55 3 1.13011 0.374559 1.18558
228 2 0.619508 6.23791 0.25713
256 2 8.07034 0.472801 3.32455
41 1 0.743706 0.122676 7.21729
178 4 -3.05903 6.12335 14.2799
65 3 -2.45714 5.44002 9.43911
250 2 -1.35209 5.66173 14.9469
60 3 -0.330321 3.27527 8.34134
13 4 0.34127 4.26529 12.1783
63 3 -0.554754 3.07241 12.7325
66 3 -0.448859 5.27898 11.2569
14 4 -1.08994 6.25786 10.1991
57 3 0.199717 1.49735 9.94067
76 3 6.24029 0.882919 11.581
136 2 3.11257 0.161378 11.731
75 3 5.49884 3.14885 10.5015
8 4 1.75002 2.03478 10.7497
64 3 1.56789 3.60193 11.5564
73 3 3.10854 1.98553 9.91673
114 2 0.988859 5.22517 13.5487
245 1 2.3955 2.09875 15.07
247 2 2.25591 2.70723 14.1151
227 3 2.96774 5.59402 15.5578
138 2 2.23368 1.25028 13.2198
226 4 1.68036 6.20925 14.8993
42 1 2.13103 0.717939 12.0587
248 2 2.85891 1.08808 14.8629
20 4 4.525 2.3392 9.32171
124 2 3.75519 4.8251 11.6111
117 2 5.19486 0.807907 8.85906
135 2 0.325883 0.710692 8.07387
5 4 0.70612 1.49179 15.8318
220 4 -1.76686 12.5504 1.20828
265 2 -4.34076 11.9601 3.64496
47 1 1.69675 10.1113 1.47521
266 2 -1.49621 6.5949 1.17898
91 3 -1.87564 9.26501 7.9789
133 2 -6.52038 12.2741 7.51951
16 4 -2.76487 8.16128 7.17028
17 4 -4.12831 10.4236 5.79796
70 3 -3.74301 8.93964 5.93944
90 3 -3.18803 10.9652 4.61035
115 2 -3.6803 11.3424 7.14095
31 4 -1.89906 10.455 3.55787
152 2 -2.97652 8.98636 1.76018
48 1 -2.61285 8.81674 2.82871
153 2 -3.54243 8.61353 3.48955
69 3 -5.78632 10.6679 5.58528
1 4 -6.42061 11.8044 2.06835
3 3 -5.56016 10.7473 1.05609
68 3 -1.81556 6.90554 6.45316
89 3 -1.75685 11.3431 2.19317
125 2 1.55576 10.5297 0.416011
151 2 -1.89085 8.01743 2.97446
93 3 -0.610374 10.0693 4.43315
94 3 -0.0765602 11.4884 6.64076
271 2 -1.04594 8.93761 1.58787
19 4 -0.856396 12.6595 7.39186
30 4 0.626008 8.54888 1.35721
33 4 0.412998 10.2506 5.79651
87 3 1.28392 7.73674 2.61234
149 2 0.519842 8.79397 6.97874
272 2 1.10357 10.7237 2.28034
147 2 1.92426 6.9865 6.18683
46 1 1.84968 7.71311 7.04918
148 2 2.8055 8.3355 7.37351
79 3 -0.417676 6.42661 4.25615
160 2 -0.524778 10.2397 14.4935
95 3 2.223 7.52546 12.2533
71 3 -3.03167 7.09373 13.0694
92 3 -2.59378 11.9336 8.28042
128 2 0.337264 10.1387 12.84
34 4 1.84918 9.53395 12.1087
67 3 -3.9519 7.45208 8.31353
98 3 -3.97314 9.91713 14.6695
35 4 -2.73471 10.1838 13.7025
96 3 -3.03956 9.57019 11.8148
127 2 -2.58424 10.2215 10.4589
15 4 -5.53398 9.89328 15.4022
139 2 -5.92775 10.6871 13.1007
18 4 -3.03157 7.99286 11.7256
162 2 -1.51165 8.8337 15.2548
97 3 -2.2091 11.6471 13.5308
50 1 0.647134 9.9595 10.9007
32 4 -1.89623 10.5656 8.85586
83 3 0.148278 6.56726 9.02868
22 4 -1.24882 12.4984 12.5403
88 3 0.582712 7.72921 15.6751
126 2 -0.229822 10.8812 9.48508
161 2 -0.538489 8.60757 13.6447
51 1 -1.15264 9.3319 14.3401
120 2 -0.143887 11.449 11.5654
72 3 -1.58386 7.58424 10.8181
159 2 -0.0568485 9.09872 10.7387
29 4 3.11535 6.83286 11.1507
86 3 2.75136 7.10175 9.66982
27 4 1.59053 6.6193 8.48181
229 2 2.08739 7.49461 13.8015
198 2 -0.655157 12.199 15.8119
158 2 1.46958 10.1466 9.97679
195 2 -3.32235 12.3335 15.445
137 2 -7.08732 12.6248 11.9854
193 2 -3.52367 7.49647 15.7777
270 2 6.54875 3.76956 4.93175
224 2 7.57001 2.9463 3.00523
171 2 7.58738 4.12002 7.11031
231 1 12.6961 2.33353 0.232241
119 2 9.34714 1.63955 4.07185
254 1 9.16385 0.656134 3.55228
255 2 9.70376 0.660367 2.48294
169 2 8.55439 4.63693 5.48469
54 1 8.44329 4.78848 6.56368
39 4 10.1377 3.85931 7.06043
273 2 9.44834 1.21539 1.24961
184 1 9.50278 0.612108 0.234125
129 2 11.0382 1.11249 4.15822
170 2 8.48407 6.00536 6.89579
4 4 14.2778 2.00951 3.82654
37 4 11.7446 2.06273 5.40939
101 3 13.0903 3.09481 4.78017
102 3 12.0973 1.15054 6.58034
106 3 10.4831 3.0251 5.7029
232 3 13.3218 1.06274 2.81802
56 3 15.184 1.13232 4.87719
230 4 12.7472 0.805654 1.38294
207 4 12.5831 0.475328 7.93133
234 2 12.4452 3.22152 0.9833
233 2 11.0525 1.29547 1.23016
107 3 11.2972 4.97968 7.42017
103 3 5.62502 6.28124 1.56138
267 2 12.6556 5.48222 0.80283
260 2 7.13459 5.48825 7.90255
99 3 8.11477 0.627452 8.6475
258 1 6.36967 5.87875 8.75172
261 2 6.10116 4.98953 9.41661
11 4 11.7139 5.83775 8.77985
100 3 8.282 2.53674 10.5433
121 2 6.85738 3.36318 12.7897
179 4 7.01556 3.97178 14.4877
188 3 7.86919 2.96636 15.2893
183 1 7.98733 5.62206 14.4533
194 2 7.72393 5.29998 10.1714
196 2 7.81633 5.99643 13.3912
145 2 5.37107 6.16988 10.7855
77 3 5.475 4.27314 15.1025
191 3 10.3827 5.581 9.87115
6 4 14.4868 2.37509 9.35489
36 4 9.02646 1.78647 9.33016
180 4 8.87388 1.61377 14.5293
192 3 9.54729 4.66299 12.3048
187 3 7.97885 0.682847 13.582
182 4 9.24094 5.58056 10.9557
144 2 9.07322 5.45224 14.7093
164 2 10.1675 1.21567 11.3526
45 1 4.54606 6.02435 11.6226
105 3 9.71318 2.78939 8.25722
52 1 10.5191 0.849033 10.3132
259 2 11.6464 2.33223 15.136
189 3 10.4978 2.43723 13.7285
200 2 12.4078 2.34144 11.757
197 2 7.32402 6.12275 15.2524
235 2 13.4945 2.19858 15.5896
181 4 10.7701 3.86022 13.0018
190 3 11.6787 4.78378 14.1483
172 4 14.5196 1.54252 13.1566
174 2 12.6455 1.65136 13.6304
175 2 12.216 0.676404 11.4307
177 2 14.6592 0.349626 11.5579
185 1 11.9573 3.49783 11.5581
201 2 12.774 4.32971 11.8569
202 2 11.5587 3.63821 10.5236
263 3 13.2471 1.50508 8.92287
173 1 13.095 0.525114 12.2667
165 2 11.4787 1.3757 10.0482
262 3 15.3575 0.833695 14.2801
23 4 6.76596 2.52891 11.2657
122 2 5.40404 6.28319 8.27799
110 2 13.7916 3.2394 10.6739
146 2 4.91322 6.36233 12.656
210 1 8.73351 7.83622 7.6923
257 2 1.25424 12.3469 4.177
213 2 9.57384 8.28663 4.84944
49 1 2.1559 10.7282 5.18437
150 2 2.91608 9.85806 1.73765
154 2 2.25131 11.6907 5.91834
155 2 2.38756 10.8963 4.09688
253 2 10.4277 8.00912 0.935837
166 2 3.54748 8.06009 1.93164
156 2 2.70984 9.76693 5.63108
104 3 4.74094 6.68064 4.17871
240 2 4.06597 9.11103 0.542562
238 3 4.70313 11.9158 0.747334
239 2 6.58455 10.0623 1.96482
38 4 5.13078 7.3569 2.60373
167 2 6.37014 8.73191 2.98206
168 2 7.79082 7.63305 5.07506
208 4 6.63074 11.2224 7.0612
211 3 6.8796 10.5212 5.67217
212 3 5.21204 11.7432 7.51549
241 2 4.29296 10.0382 2.93506
237 1 4.81965 9.36656 2.22783
236 4 5.35794 10.4461 0.668832
216 2 8.66492 7.93687 6.47919
130 2 8.41029 8.21354 3.39303
53 1 8.47966 8.31842 4.47279
2 3 8.42221 11.048 3.30747
206 4 8.32206 10.2254 4.68559
274 2 9.79631 7.67077 8.01793
134 2 6.05333 8.96767 7.81245
268 2 8.66392 8.00651 0.162457
199 2 1.89501 12.6697 15.6865
203 2 9.46662 8.20735 10.5514
186 1 9.12168 7.45442 11.3737
123 2 5.68078 10.1353 9.17403
108 3 3.12888 10.3402 12.3798
176 2 4.20958 12.3592 13.8867
218 2 7.92081 7.07517 8.09813
252 2 9.76013 7.42262 14.8707
204 2 9.56027 7.58293 12.4235
43 1 8.87115 10.6389 13.9973
40 4 4.50167 11.0109 12.7166
140 2 8.28198 11.597 14.1913
217 2 7.80337 10.499 8.46693
209 1 6.56291 9.54597 8.70084
157 2 6.98024 8.75877 9.43809
131 2 5.17359 11.6066 11.1603
251 1 9.45035 8.08132 15.7227
269 2 8.20106 9.75552 13.8495
264 2 5.82534 10.1627 14.7954
205 2 7.96311 7.50071 11.468
109 3 6.06265 9.85836 13.4102
132 2 5.5213 9.04208 13.1662
116 2 11.0732 7.64247 10.856
214 2 2.82459 12.5619 8.64591
215 2 6.83556 6.73467 9.43516
163 2 2.32276 12.344 10.3122
219 2 8.55062 8.82743 8.13802
ITEM: TIMESTEP
100
ITEM: NUMBER OF ATOMS
274
ITEM: BOX BOUNDS xy xz yz pp pp pp
-7.8955649125372336e+00 1.6261518517279825e+01 -8.2860819420679768e+00
1.1575009082220096e-01 1.2717076734416871e+01 -3.2082658097931221e-01
1.5947396079707854e-01 1.5916026039202713e+01 -9.1731747610414409e-03
ITEM: ATOMS id type x y z
225 2 5.59346 2.94477 2.80997
111 2 2.15201 0.377263 4.41076
9 4 -0.0931896 3.89463 1.73374
62 3 0.0944176 5.07114 6.36248
112 2 -1.59253 4.67242 1.23266
12 4 -1.01008 5.84073 5.55109
58 3 -0.418298 3.01186 2.99944
228 2 0.736357 6.30476 0.349172
55 3 1.08137 0.430845 1.33309
7 4 1.08697 1.06361 5.64653
10 4 0.626252 3.95072 7.27902
59 3 0.496282 3.10076 0.499546
61 3 1.77972 2.53866 6.1309
78 3 0.947628 5.06444 2.15577
28 4 3.72634 5.62548 4.52588
246 2 3.28893 2.5737 0.239168
143 2 2.88585 3.79514 1.35116
26 4 3.53746 3.60797 6.73641
44 1 4.00436 3.69523 1.74313
221 1 6.44475 2.46829 3.40434
243 2 2.58153 1.37193 2.94649
222 3 5.34125 0.564893 0.65351
113 2 -2.08215 4.56486 5.24859
85 3 3.91965 4.97891 5.94682
81 3 4.58113 2.38618 5.63739
25 4 0.983669 6.29796 3.30128
84 3 2.24746 6.16071 4.26216
244 2 7.26326 1.47982 1.87794
141 2 4.00618 4.20902 3.33132
24 4 4.7426 5.00899 0.592142
142 2 4.37144 2.65509 1.52128
118 2 6.19017 0.886299 3.60927
21 4 6.03347 2.04961 5.27521
242 1 3.171 0.42105 2.73487
74 3 6.97003 1.29354 6.30704
249 1 -2.45007 6.30932 0.611305
223 2 3.98722 0.588715 1.96835
80 3 4.31786 3.27748 8.03563
256 2 8.1736 0.481072 3.49942
79 3 -0.575011 6.38872 4.11749
178 4 -3.19026 6.06389 14.3613
65 3 -2.4684 5.29211 9.43004
250 2 -1.58538 5.55115 15.2532
60 3 -0.30068 3.19057 8.29574
13 4 0.279305 4.17931 12.218
63 3 -0.654755 3.01882 12.7384
66 3 -0.48545 5.14576 11.2454
14 4 -1.24893 6.12169 10.1453
57 3 0.260343 1.34513 10.1321
76 3 6.40216 0.95603 11.4959
5 4 0.645463 1.62625 15.7891
75 3 5.46417 3.13201 10.2742
8 4 1.72342 1.9749 10.8019
64 3 1.55667 3.56383 11.5927
73 3 3.05549 1.87992 9.96102
114 2 0.951647 5.16852 13.5591
245 1 2.46293 1.80398 15.1878
247 2 2.34046 2.26199 14.0909
227 3 3.02625 5.55604 15.5172
138 2 2.10227 1.01377 13.3018
226 4 1.71402 6.09732 14.9221
42 1 2.00381 0.647771 12.2319
248 2 2.90465 0.692604 15.2289
20 4 4.40112 2.25154 9.24761
124 2 3.74582 4.92903 12.0198
117 2 5.09629 0.752585 8.66616
262 3 -0.160979 1.0515 14.5297
135 2 0.765282 0.370441 8.16141
23 4 6.63722 2.5433 11.1947
82 3 1.92225 4.49425 8.04376
220 4 -1.60631 12.5395 1.27483
265 2 -4.78378 12.433 3.63001
46 1 1.67298 7.59151 7.05955
266 2 -2.02579 6.99756 1.41573
91 3 -1.91873 9.35149 7.88745
133 2 -6.27181 11.9866 6.9319
16 4 -2.69521 8.06438 7.04261
17 4 -4.07817 10.3403 5.73826
70 3 -3.7495 8.76276 5.99234
90 3 -3.20511 11.0156 4.5862
115 2 -3.71198 11.2697 7.15165
31 4 -1.9176 10.4893 3.64247
152 2 -2.63268 8.93818 1.63666
48 1 -2.41077 8.81387 2.75508
153 2 -3.37397 8.60702 3.42367
69 3 -5.67611 10.456 5.38475
1 4 -6.45819 11.8034 2.03619
3 3 -5.80563 10.8307 0.86504
68 3 -1.75962 6.96582 6.34042
89 3 -1.76754 11.4893 2.42697
41 1 -7.3432 12.5688 7.09953
151 2 -1.50643 8.02635 2.97165
93 3 -0.604837 10.2826 4.46565
94 3 0.0233623 11.5613 6.71062
271 2 -0.945663 9.04106 1.48188
19 4 -0.792886 12.6703 7.44431
30 4 0.794554 8.72714 1.39139
33 4 0.438964 10.3612 5.79507
87 3 1.1616 7.72878 2.54972
149 2 0.489743 8.78065 6.98963
148 2 2.69239 8.03672 7.34489
147 2 1.72117 6.89418 6.19012
160 2 -0.885037 9.62891 15.2012
95 3 2.02678 7.51623 12.3568
71 3 -2.91705 6.99573 13.1233
92 3 -2.56385 11.9452 8.24594
128 2 0.45624 10.2525 12.9581
34 4 1.85015 9.45102 12.2897
67 3 -3.64536 7.43377 8.30146
98 3 -4.03609 10.0806 14.925
35 4 -2.81263 10.1091 13.786
96 3 -3.15378 9.48672 11.8968
127 2 -2.69309 10.1376 10.4389
15 4 -5.614 9.87104 15.4234
139 2 -5.77459 9.77275 13.1034
18 4 -2.96082 7.87965 11.7433
162 2 -2.17759 8.36297 15.3151
97 3 -2.15027 11.6407 13.5473
50 1 0.676016 9.95344 11.0457
32 4 -1.94949 10.552 8.89631
83 3 0.123691 6.71674 9.08958
22 4 -1.19678 12.6123 12.6405
88 3 0.680288 7.72486 15.5684
126 2 -0.348219 10.6987 9.56859
161 2 -1.04706 8.33924 13.8148
51 1 -1.57592 9.02268 14.5859
120 2 -0.185098 11.4456 11.7914
72 3 -1.63243 7.56293 10.7779
159 2 0.00324031 8.99892 10.7878
29 4 2.87023 6.71787 11.3223
86 3 2.70521 6.95289 9.68978
27 4 1.5226 6.46672 8.55507
229 2 1.87585 7.60094 14.0768
198 2 -0.583756 12.0567 15.7272
158 2 1.47031 10.201 10.153
195 2 -3.31399 12.3301 15.7242
137 2 -7.24623 12.6135 12.0707
193 2 -3.99921 7.06062 15.721
140 2 -6.2679 11.5311 13.4029
136 2 -5.38276 12.624 11.8731
270 2 6.94867 3.55078 4.82433
224 2 7.49086 2.78322 3.09383
171 2 7.61246 4.40034 6.50546
231 1 12.6512 2.24899 0.236091
119 2 9.4868 1.4973 4.36987
254 1 9.31092 0.617258 3.60355
255 2 9.79177 0.893548 2.61493
169 2 8.70381 5.06823 5.24522
54 1 8.5254 4.98165 6.35786
39 4 10.0125 3.95914 6.95932
273 2 9.35286 1.00583 1.3263
184 1 9.3519 0.480116 0.308575
129 2 11.2544 1.01786 3.95492
170 2 8.59317 6.02297 6.85062
4 4 14.3507 1.9699 3.88433
37 4 11.7905 2.11745 5.21639
101 3 12.9262 3.07238 4.64274
102 3 12.2278 1.3034 6.49918
106 3 10.3885 3.0887 5.55598
232 3 13.2721 1.09478 2.83235
56 3 15.1996 1.21047 4.92018
230 4 12.611 0.811488 1.37291
207 4 12.6683 0.609801 7.80686
234 2 12.5814 3.12408 0.926818
233 2 10.9258 1.26728 1.15801
107 3 11.2672 4.97958 7.41816
103 3 5.45966 6.24134 1.50749
260 2 7.19033 5.33769 7.89813
267 2 12.5122 5.47582 1.1023
99 3 8.33018 0.591797 8.65175
258 1 6.42564 5.71607 8.71808
261 2 6.12629 4.79042 9.31495
11 4 11.6719 5.77156 8.73196
100 3 8.04205 2.68398 10.3396
121 2 6.77834 3.30516 12.8481
179 4 6.91762 4.00716 14.5529
188 3 7.87515 3.01741 15.3131
183 1 7.89393 5.54755 14.7818
194 2 7.73763 5.14437 10.0956
196 2 7.66829 5.83 13.5001
145 2 5.25293 6.31185 11.22
77 3 5.49281 4.37012 15.2774
191 3 10.3854 5.77642 9.81086
6 4 14.6503 2.26393 9.41298
36 4 9.02607 1.9067 9.28708
180 4 8.84608 1.67788 14.6986
192 3 9.58601 4.59261 12.1199
187 3 8.03686 0.906331 13.5152
182 4 9.20036 5.55724 10.8657
144 2 8.93015 5.19854 15.0141
164 2 10.1771 1.49131 11.2788
45 1 4.42295 6.27464 11.9633
105 3 9.62769 2.97477 8.21459
52 1 10.5418 1.03854 10.2388
259 2 11.5761 2.26012 15.0513
189 3 10.4247 2.36433 13.8062
200 2 12.3929 2.25083 11.8224
197 2 7.41781 6.23444 15.52
235 2 13.438 2.17856 15.6953
181 4 10.7242 3.77861 12.9659
190 3 11.5989 4.74453 13.9695
172 4 14.5567 1.55476 13.2118
174 2 12.715 1.50498 13.7362
175 2 12.0605 0.627821 11.6088
177 2 14.534 0.440055 11.7227
185 1 12.0624 3.3581 11.6388
201 2 12.8799 4.06698 12.0093
202 2 11.7535 3.59376 10.6081
263 3 13.4914 1.42685 8.84776
173 1 12.9597 0.405191 12.3692
165 2 11.4868 1.51385 9.84233
122 2 5.51688 6.05193 8.20217
110 2 13.8295 3.18041 10.6731
210 1 8.60817 7.94565 7.66506
257 2 1.3943 12.231 4.06048
213 2 9.2937 7.81663 5.01236
49 1 2.06982 10.5137 4.98046
150 2 3.02916 9.92298 1.66505
154 2 2.48418 11.5736 5.22678
155 2 2.05547 10.1575 3.92296
253 2 10.1714 7.6613 0.918276
166 2 3.66799 8.21176 1.89032
156 2 2.62018 9.66147 5.79772
104 3 4.81907 6.83643 4.25289
240 2 4.13716 9.03807 0.499125
238 3 4.50535 11.9604 0.698334
239 2 6.58601 10.2189 1.73163
38 4 5.15962 7.3205 2.62733
167 2 6.43919 8.70505 2.63527
168 2 7.33593 7.94217 4.73091
208 4 6.68999 11.1102 7.13499
211 3 7.13296 10.3815 5.87414
212 3 5.25761 11.9486 7.43932
241 2 4.54713 10.1982 2.96749
237 1 4.89394 9.41022 2.19559
236 4 5.23188 10.5005 0.55619
216 2 8.57222 8.12105 6.45742
130 2 8.64047 8.35909 3.25472
53 1 8.43867 8.27498 4.4432
2 3 8.33331 10.9066 3.27515
206 4 8.49458 10.2078 4.6866
274 2 9.71537 7.58339 7.88104
134 2 6.46089 8.76813 7.83952
125 2 1.8026 10.5661 0.283636
47 1 1.90408 10.1968 1.35523
218 2 7.83388 7.15263 7.97817
272 2 1.36548 10.9252 2.09914
163 2 2.2952 12.4951 10.2313
203 2 9.57135 7.96955 10.4966
186 1 9.1232 7.39706 11.3344
123 2 5.33812 9.9912 8.78607
108 3 3.22313 10.3029 12.4465
176 2 4.14521 12.3705 13.9352
215 2 6.79228 6.56104 9.35579
252 2 9.73869 7.39026 14.8804
204 2 9.5685 7.70714 12.3069
43 1 9.11284 10.4736 13.7835
40 4 4.62324 11.0094 12.6652
219 2 8.40882 8.9305 8.20789
217 2 7.71688 10.6122 8.70957
209 1 6.36863 9.50762 8.68251
157 2 6.47709 8.85683 9.54139
131 2 5.21507 11.6534 11.0858
251 1 9.43525 8.02908 15.7552
269 2 7.92584 10.2177 13.7555
264 2 5.78713 10.148 14.7987
205 2 7.89934 7.4492 11.2991
109 3 6.29402 10.013 13.4338
132 2 5.84985 9.15691 13.044
268 2 8.33102 8.14242 15.8461
214 2 2.96848 12.6839 8.70424
146 2 4.5534 6.86916 12.9567
116 2 11.1431 7.47252 11.0313
199 2 1.79477 12.615 15.7913
ITEM: TIMESTEP
200
ITEM: NUMBER OF ATOMS
274
ITEM: BOX BOUNDS xy xz yz pp pp pp
-7.8955649125372336e+00 1.6261518517279825e+01 -8.2860819420679768e+00
1.1575009082220096e-01 1.2717076734416871e+01 -3.2082658097931221e-01
1.5947396079707854e-01 1.5916026039202713e+01 -9.1731747610414409e-03
ITEM: ATOMS id type x y z
225 2 5.64586 2.86798 2.92023
111 2 2.26776 0.355483 4.42865
9 4 0.0442346 3.92962 1.77606
62 3 -0.138675 4.85924 6.26002
112 2 -1.42508 4.70464 1.22403
12 4 -1.09631 5.74622 5.46319
58 3 -0.305137 3.02604 3.01459
135 2 0.817806 0.851951 7.92188
55 3 0.698205 0.476735 1.30195
7 4 1.08189 0.966136 5.57753
10 4 0.713529 4.0081 7.22455
59 3 0.473387 3.02483 0.569993
61 3 1.72142 2.57557 6.13769
78 3 1.0568 5.18707 2.12752
28 4 3.85761 5.64179 4.60888
79 3 -0.411713 6.17959 4.09847
143 2 3.07851 3.68414 1.81072
26 4 3.56602 3.50082 6.66598
44 1 4.21887 3.71214 1.75261
221 1 6.52506 2.24053 3.62321
243 2 2.73466 1.18329 3.01264
222 3 5.23018 0.62772 0.466853
82 3 1.98585 4.78014 7.92287
85 3 3.97775 5.186 6.11462
81 3 4.52952 2.53798 5.68144
25 4 1.02699 6.27038 3.37864
84 3 2.34205 6.00462 4.26589
244 2 7.26117 1.57389 1.86056
141 2 4.35402 4.31142 3.55649
24 4 4.62063 5.04335 0.593238
142 2 4.85962 2.80722 1.22084
118 2 6.24207 1.07581 3.51571
21 4 6.04505 2.18148 5.50245
242 1 3.25415 0.225457 2.72377
74 3 6.86087 1.18662 6.36061
249 1 -2.5699 6.2106 0.680764
223 2 4.07576 0.380002 1.85308
246 2 3.38593 2.43982 0.406988
113 2 -2.40659 4.7563 4.93617
256 2 8.0593 0.42758 3.98658
178 4 -3.23679 6.02914 14.3669
65 3 -2.4425 5.35226 9.46041
250 2 -1.7262 5.40181 15.2127
60 3 -0.195658 3.29812 8.25819
13 4 0.224912 4.10842 12.2267
63 3 -0.834176 3.11847 12.8608
66 3 -0.413694 5.15928 11.2735
14 4 -1.1813 6.11875 10.1561
57 3 0.23298 1.61368 9.9809
76 3 6.20098 0.813215 11.6564
5 4 0.553781 1.58133 15.8116
75 3 5.37933 3.05614 10.4926
8 4 1.7724 1.87185 10.951
64 3 1.54448 3.3047 11.7361
73 3 3.1192 1.67436 9.87688
114 2 0.918918 5.04117 13.5567
245 1 2.41827 1.85902 15.3106
247 2 2.31954 2.45298 14.3536
227 3 2.92595 5.43065 15.54
138 2 2.34231 1.1099 13.4723
226 4 1.68796 6.00122 14.8527
42 1 2.23531 0.657974 12.2905
248 2 2.83815 0.807154 15.2281
20 4 4.4628 2.2499 9.31664
124 2 3.91467 4.98305 12.3541
117 2 5.23452 0.828712 8.74662
23 4 6.59954 2.41694 11.3622
80 3 4.15026 3.14924 8.07676
6 4 -0.906348 2.38904 9.27697
220 4 -1.6448 12.7103 1.14184
265 2 -4.60064 12.2951 3.65904
46 1 1.94824 7.77403 7.23022
266 2 -2.14467 6.87892 1.42926
272 2 1.19888 10.9699 2.00197
133 2 -6.49097 11.9779 7.12439
16 4 -2.69613 8.10507 7.17468
17 4 -4.03873 10.3252 5.76547
70 3 -3.67823 8.84114 6.17399
90 3 -3.18613 10.8139 4.51268
115 2 -3.63532 11.3932 7.00048
31 4 -1.86916 10.4082 3.64299
152 2 -2.58741 8.91897 1.69408
48 1 -2.2861 8.75412 2.74627
153 2 -3.09304 8.3026 3.36788
69 3 -5.67074 10.5211 5.44342
1 4 -6.53746 11.9379 1.94746
3 3 -6.03294 11.0428 0.574292
68 3 -1.72834 7.0276 6.22952
89 3 -1.6801 11.609 2.3356
41 1 -7.43403 12.6209 7.11789
151 2 -1.26906 8.24941 2.94356
93 3 -0.574726 10.0565 4.58801
94 3 0.272025 11.4777 6.71438
271 2 -0.85157 9.22027 1.42302
19 4 -0.77645 12.6203 7.45987
30 4 0.791832 8.78195 1.31012
33 4 0.530576 10.1038 5.91141
87 3 1.14019 7.92377 2.5783
149 2 0.385825 8.60847 6.90802
148 2 2.80406 8.34047 7.59859
147 2 2.242 7.02127 6.38432
228 2 0.780856 6.44083 0.320999
160 2 -0.414928 10.009 14.813
95 3 1.85882 7.41709 12.4327
71 3 -2.95509 7.17687 13.2494
92 3 -2.52338 11.9719 8.26278
128 2 0.506119 10.056 13.08
34 4 1.84749 9.35763 12.1492
67 3 -3.75329 7.34323 8.18575
98 3 -4.12104 10.0343 14.8994
35 4 -2.74355 10.2215 13.7648
96 3 -2.98151 9.48966 11.936
127 2 -2.59378 10.2996 10.6094
15 4 -5.68267 10.0242 15.2545
137 2 -6.98284 12.5429 12.1963
18 4 -3.02336 7.90647 11.8405
162 2 -1.80339 8.86756 15.4731
97 3 -2.15943 11.6813 13.5346
50 1 0.549869 9.9663 11.1082
32 4 -1.87267 10.6277 8.95745
83 3 -0.0416055 6.53358 9.0185
22 4 -1.1625 12.537 12.7221
88 3 0.847522 7.72812 15.542
126 2 -0.365187 11.0162 9.73052
161 2 -0.991136 8.46497 13.8766
51 1 -1.33201 9.33802 14.5993
120 2 -0.0008933 11.5165 11.7728
72 3 -1.88267 7.30278 10.9656
159 2 -0.270533 9.11871 11.0888
29 4 2.67106 6.5062 11.4627
86 3 2.56458 6.75448 9.87217
27 4 1.46631 6.5309 8.56871
229 2 2.07059 7.5215 14.0508
198 2 -0.646473 12.3005 15.7362
158 2 1.25448 9.93637 10.06
195 2 -3.45528 12.4093 15.656
140 2 -6.09201 11.274 13.0459
193 2 -4.09084 7.0648 15.8757
91 3 -1.8519 9.27027 8.12469
136 2 -5.07579 12.6929 12.0251
270 2 6.92216 3.58795 5.05659
224 2 7.53081 2.40789 3.32451
171 2 7.43147 4.61307 6.4682
231 1 12.6719 2.36758 0.286662
119 2 9.41524 1.63117 4.49977
254 1 9.12592 0.640896 3.91668
255 2 9.42818 0.838683 2.78636
169 2 8.62113 4.9952 5.04763
54 1 8.48903 4.96905 6.21896
39 4 9.8986 3.89203 6.90137
273 2 9.40403 1.15891 1.44898
184 1 9.48231 0.691074 0.363389
129 2 11.1099 0.992755 4.10362
170 2 8.68846 6.10897 6.65849
4 4 14.2666 1.98037 3.72355
37 4 11.7589 2.21785 5.17192
101 3 12.8801 3.12006 4.53606
102 3 12.2264 1.44165 6.42263
106 3 10.1891 3.08078 5.47573
232 3 13.3854 1.14571 2.76407
56 3 15.216 1.16187 4.87723
230 4 12.7739 0.857741 1.35448
207 4 12.6651 0.649597 7.70439
234 2 12.4842 3.25311 0.942561
233 2 11.0559 1.30913 1.29268
107 3 11.2126 4.86203 7.25063
267 2 12.5932 5.26829 1.10838
260 2 7.37799 5.36946 7.90841
99 3 8.27876 0.624445 8.72807
258 1 6.59042 5.67919 8.77439
261 2 6.27968 4.70041 9.28707
11 4 11.7538 5.71926 8.71574
100 3 7.99716 2.51308 10.503
121 2 6.784 3.23036 12.9596
179 4 7.04317 4.06516 14.5551
188 3 7.92227 3.04515 15.2971
183 1 7.73084 5.79165 14.6846
194 2 7.87849 4.882 10.0223
196 2 7.92529 5.94049 13.5295
122 2 5.65412 6.16309 8.25721
77 3 5.57865 4.22143 15.1252
191 3 10.5144 5.68639 9.75941
110 2 13.7738 3.32251 10.4707
36 4 8.94617 1.96048 9.25618
180 4 8.92838 1.65581 14.6184
192 3 9.67315 4.50411 12.1254
187 3 8.06376 0.807611 13.6513
182 4 9.28933 5.4743 10.7587
144 2 8.64271 5.66193 15.3611
164 2 10.4351 1.73698 11.1121
262 3 15.3263 0.976489 14.396
105 3 9.34604 3.01148 8.09183
52 1 10.5832 1.26792 10.1179
259 2 11.624 2.32699 15.098
189 3 10.413 2.31776 13.7572
200 2 12.4355 2.36812 11.8408
163 2 10.3103 0.141431 10.1674
235 2 13.414 2.35127 15.5988
181 4 10.7907 3.7737 13.0294
190 3 11.3962 4.87013 13.9823
172 4 14.4499 1.6222 13.2447
174 2 12.6263 1.44704 13.7203
175 2 12.1524 0.736608 11.4388
177 2 14.4946 0.452506 11.6839
185 1 12.1021 3.46089 11.5832
201 2 13.0117 4.21533 11.6616
202 2 11.4865 3.54954 10.6443
263 3 13.5702 1.42534 8.71437
173 1 12.9282 0.498916 12.2867
165 2 11.6538 1.47947 9.75816
214 2 11.2747 0.152743 8.56164
45 1 4.29359 6.40639 12.0449
210 1 8.70046 7.86596 7.66066
257 2 1.41153 12.2328 4.37463
213 2 9.59686 8.0125 4.6629
49 1 2.15798 10.4788 5.07349
150 2 3.01481 10.0392 1.80983
154 2 2.58957 11.3805 5.61206
155 2 1.98724 10.742 3.94926
253 2 10.2269 8.0961 0.9252
166 2 3.46422 8.47767 2.31572
156 2 2.60984 9.36852 5.25751
104 3 4.83744 6.81011 4.10739
240 2 4.1263 9.20354 0.697139
238 3 4.68404 11.9562 0.649404
239 2 6.60439 10.3225 1.85954
38 4 5.083 7.51894 2.63475
167 2 6.42916 8.84928 2.73757
168 2 7.72711 7.5576 4.9591
208 4 6.66322 11.1458 7.14438
211 3 7.3247 10.3127 5.83556
212 3 5.19529 11.8971 7.29996
241 2 4.63704 10.3719 3.1318
237 1 4.87873 9.61462 2.38657
236 4 5.3435 10.5023 0.656436
216 2 8.6555 7.98821 6.43945
130 2 8.25143 8.30065 3.26601
53 1 8.48564 8.15443 4.3914
2 3 8.45212 11.0395 3.1117
206 4 8.52624 10.0395 4.78003
274 2 9.69385 7.57142 7.98337
134 2 6.65157 8.96503 7.78325
125 2 1.9323 10.6752 0.295502
47 1 1.86067 10.2784 1.35112
103 3 5.30446 6.56359 1.35859
268 2 8.47764 8.42349 0.208841
145 2 4.97523 6.57763 11.0689
203 2 9.35923 8.17674 10.9051
186 1 9.09071 7.20893 11.5024
123 2 5.29809 10.0403 8.66763
108 3 3.24244 10.187 12.3921
176 2 4.4816 12.2281 13.868
139 2 9.78427 9.33006 12.8112
252 2 9.43699 7.58132 14.8814
204 2 9.58721 7.05039 12.5657
43 1 9.2235 10.1941 13.3362
40 4 4.63034 10.9818 12.5503
219 2 8.45385 8.80472 8.19281
217 2 7.49843 10.9324 8.80247
209 1 6.37389 9.66007 8.72499
157 2 6.45575 9.11897 9.75071
131 2 4.97988 11.7179 10.976
251 1 9.26857 8.29593 15.7542
269 2 8.04481 10.0099 13.3167
264 2 5.82995 10.1292 14.8367
205 2 7.87566 7.08629 11.5514
109 3 6.26085 10.0438 13.3721
132 2 5.95302 9.17994 12.9899
116 2 11.0055 7.49281 11.1197
197 2 6.91697 6.4568 15.1835
146 2 4.34892 7.22897 12.8977
215 2 6.96435 6.43627 9.48147
199 2 1.85255 12.673 15.8411
218 2 7.89519 7.10345 8.08147
ITEM: TIMESTEP
300
ITEM: NUMBER OF ATOMS
274
ITEM: BOX BOUNDS xy xz yz pp pp pp
-7.8955649125372336e+00 1.6261518517279825e+01 -8.2860819420679768e+00
1.1575009082220096e-01 1.2717076734416871e+01 -3.2082658097931221e-01
1.5947396079707854e-01 1.5916026039202713e+01 -9.1731747610414409e-03
ITEM: ATOMS id type x y z
225 2 5.5579 2.81662 2.91607
111 2 2.19285 0.234471 4.42979
9 4 0.0202381 3.92624 1.7426
62 3 -0.29738 4.81965 6.25495
112 2 -1.44191 4.79079 1.20977
12 4 -1.14047 5.82235 5.41306
58 3 -0.286002 3.15678 3.07498
135 2 0.54304 0.677584 7.94621
55 3 0.840526 0.506677 1.37748
7 4 1.02873 1.00782 5.49761
10 4 0.654465 3.92001 7.10328
59 3 0.393236 3.11353 0.435697
61 3 1.63772 2.80688 6.12947
78 3 1.10901 5.04669 2.14095
28 4 3.90169 5.57598 4.60508
79 3 -0.378186 6.33264 4.18366
143 2 3.04879 3.69034 1.61586
26 4 3.58468 3.63822 6.76987
44 1 4.17984 3.70191 1.73397
221 1 6.40732 2.24664 3.57604
243 2 2.71397 1.23612 3.09643
222 3 5.10197 0.471657 0.601253
82 3 1.98705 4.90203 7.59957
85 3 4.29273 5.17102 6.10113
81 3 4.56333 2.59444 5.66693
25 4 1.13358 6.32059 3.36116
84 3 2.34911 5.90311 4.36729
244 2 7.08439 1.63649 1.85293
141 2 4.4796 4.44711 3.36851
24 4 4.69767 5.06576 0.550025
142 2 4.688 2.70997 1.43211
118 2 6.15043 0.769268 3.84312
21 4 6.00972 2.09172 5.5103
242 1 3.10084 0.194594 2.66893
74 3 6.83587 1.07126 6.47405
249 1 -2.45177 6.38156 0.730537
223 2 3.97139 0.272043 1.7798
246 2 3.36318 2.53078 0.346142
113 2 -2.26535 4.73457 4.78561
256 2 8.01506 0.497798 3.72721
228 2 0.73651 6.20791 0.454118
178 4 -3.25592 6.22832 14.5218
65 3 -2.33788 5.22829 9.31947
250 2 -1.5764 5.97121 15.226
60 3 -0.0787887 3.19809 8.33745
13 4 0.170283 4.19489 12.2629
63 3 -0.824539 3.06144 12.7888
66 3 -0.401424 5.10204 11.1403
14 4 -1.17342 6.03966 10.0644
57 3 0.151456 1.39085 10.0652
76 3 6.35485 0.93889 11.8183
5 4 0.623099 1.58538 15.8465
75 3 5.38854 2.98087 10.5155
8 4 1.63375 1.91951 10.9531
64 3 1.50143 3.4205 11.8087
73 3 3.00604 1.80914 10.1111
114 2 0.902844 5.11149 13.6039
245 1 2.40328 1.90835 15.2435
247 2 2.29672 2.54392 14.2862
227 3 3.00511 5.49952 15.4872
138 2 2.28866 1.11007 13.32
226 4 1.66015 6.03154 14.9764
42 1 2.06187 0.621586 12.2685
248 2 2.87301 0.954552 15.0585
20 4 4.47183 2.1388 9.37427
124 2 3.79445 4.82693 12.172
117 2 5.0832 0.636912 8.91545
23 4 6.59909 2.45456 11.3479
80 3 4.24828 3.05208 8.13269
6 4 -0.87717 2.30882 9.33661
193 2 -3.71169 7.3635 0.248839
265 2 -4.83765 12.017 3.45935
46 1 2.01657 7.97559 7.55944
266 2 -1.97331 6.81642 1.65958
272 2 1.21612 10.9736 2.06607
133 2 -6.51732 12.0742 7.0118
16 4 -2.67366 8.09419 7.19459
17 4 -3.93184 10.4034 5.77858
70 3 -3.54731 8.93895 6.20919
90 3 -3.13217 10.7248 4.44275
115 2 -3.4168 11.5023 6.94598
31 4 -1.8778 10.3659 3.61063
152 2 -2.65781 8.6862 1.55918
48 1 -2.29292 8.70206 2.65028
153 2 -3.14414 8.3745 3.36863
69 3 -5.57895 10.6292 5.56392
1 4 -6.58207 11.7725 1.85019
3 3 -5.93986 11.1122 0.392227
68 3 -1.90847 6.90721 6.27932
89 3 -1.69994 11.4961 2.44686
41 1 -7.57167 12.676 6.96316
151 2 -1.39407 8.07351 2.83271
93 3 -0.508843 10.1722 4.52246
94 3 0.0331556 11.3685 6.69396
271 2 -0.846 9.10712 1.37069
19 4 -0.860708 12.5118 7.44379
30 4 0.856566 8.68618 1.46756
33 4 0.483089 10.2089 5.78596
87 3 1.41281 7.75549 2.68709
149 2 0.644064 8.4506 6.69719
147 2 2.88291 7.58942 6.99371
220 4 -1.66685 12.6291 1.26445
160 2 -0.539247 10.0726 15.1638
95 3 1.87955 7.43103 12.5848
71 3 -3.01294 7.35097 13.381
92 3 -2.54279 11.7802 8.40139
128 2 0.485313 10.2733 12.9149
34 4 1.83379 9.3269 12.0373
67 3 -3.87474 7.24344 8.27739
98 3 -4.15561 9.96313 14.723
35 4 -2.67568 10.1598 13.799
96 3 -3.03647 9.45372 12.0356
127 2 -2.74288 10.1325 10.4798
15 4 -5.73288 10.1089 15.0309
137 2 -7.23432 12.6276 12.2344
18 4 -2.98291 7.88117 11.9179
162 2 -1.5904 8.49592 15.09
97 3 -2.09722 11.7109 13.7349
50 1 0.434489 9.76307 11.1218
32 4 -1.91131 10.4528 8.97335
83 3 -0.0370344 6.78481 9.12103
22 4 -1.16976 12.4885 12.7724
88 3 0.892554 7.65104 15.7602
126 2 -0.298752 10.8124 9.62495
161 2 -0.552849 8.97892 13.5391
51 1 -1.11258 9.34137 14.4784
120 2 -0.311927 11.3346 11.6519
72 3 -1.83105 7.31826 11.0239
159 2 -0.213896 8.82619 11.0579
29 4 2.66473 6.4948 11.5385
86 3 2.44013 6.53775 9.95011
27 4 1.43383 6.63344 8.66939
229 2 2.06261 7.56672 14.2159
91 3 -1.78417 9.15652 8.04135
158 2 1.25962 9.84599 9.98461
195 2 -3.29925 12.2054 15.6678
140 2 -6.51185 11.3422 13.004
198 2 -0.540498 12.3696 15.8878
148 2 2.25591 8.81934 8.41501
136 2 -5.3641 12.562 11.948
270 2 7.02986 3.42089 4.97535