ITEM: TIMESTEP
0
ITEM: NUMBER OF ATOMS
274
ITEM: BOX BOUNDS xy xz yz pp pp pp
-7.8103479964674580e+00 1.6107556389490025e+01 -8.2040415267999762e+00
1.1565835907459054e-01 1.2842998269105207e+01 -3.1765008017753682e-01
1.5947396079707854e-01 1.5916026039202713e+01 -9.2649065086518548e-03
ITEM: ATOMS id type x y z
225 2 5.57744 3.20024 2.86372
111 2 2.2348 0.285373 4.5774
9 4 -0.0352629 3.9023 1.69959
62 3 -0.0197514 5.00028 6.39148
112 2 -1.39251 4.6011 0.976265
12 4 -1.05481 5.83353 5.6174
58 3 -0.414159 3.0188 2.92515
246 2 3.18453 2.82316 0.211739
80 3 4.48772 3.18639 8.00734
7 4 1.00075 1.03979 5.70661
10 4 0.731973 4.00434 7.34234
59 3 0.440421 2.95777 0.520698
61 3 1.57103 2.52833 6.18581
78 3 0.852408 5.08597 2.18984
28 4 3.67877 5.57239 4.57377
82 3 2.08921 4.68693 8.01864
143 2 2.90811 4.01467 1.90076
26 4 3.5134 3.49553 6.72342
44 1 4.03298 3.81881 1.71572
221 1 6.46815 2.80365 3.49629
243 2 3.28088 1.21984 3.41976
222 3 5.05247 0.338401 0.580775
113 2 -2.2202 4.75879 5.04905
85 3 3.85398 5.10461 6.09223
81 3 4.24897 2.32842 5.43809
25 4 0.982265 6.37195 3.40037
84 3 2.22106 5.88921 4.2705
244 2 6.90405 1.46588 2.14102
141 2 4.38966 4.29817 3.57312
24 4 4.57916 5.03825 0.539991
142 2 4.24505 2.71487 1.37166
118 2 6.04028 1.09558 3.6376
21 4 5.76042 2.04668 5.2155
242 1 3.2906 0.125655 2.98484
74 3 6.67523 1.25197 6.51601
249 1 -2.18873 6.34322 0.415666
223 2 3.98459 0.262296 1.99572
55 3 1.12596 0.377055 1.18558
228 2 0.620418 6.29904 0.25713
256 2 7.99748 0.476279 3.32455
41 1 0.743385 0.122653 7.21729
178 4 -3.0217 6.18334 14.2799
65 3 -2.42577 5.49317 9.43911
250 2 -1.33166 5.7171 14.9469
60 3 -0.320008 3.30677 8.34134
13 4 0.344934 4.30669 12.1783
63 3 -0.542218 3.10188 12.7325
66 3 -0.437372 5.33052 11.2569
14 4 -1.07211 6.31919 10.1991
57 3 0.204783 1.51107 9.94067
76 3 6.18555 0.890499 11.581
136 2 3.0888 0.161743 11.731
75 3 5.45144 3.17909 10.5015
8 4 1.73974 2.05388 10.7497
64 3 1.55941 3.6367 11.5564
73 3 3.0848 2.00413 9.91673
114 2 0.986111 5.27617 13.5487
245 1 2.37883 2.11848 15.07
247 2 2.24062 2.73305 14.1151
227 3 2.9454 5.64871 15.5578
138 2 2.2186 1.26154 13.2198
226 4 1.67076 6.2701 14.8993
42 1 2.11697 0.723869 12.0587
248 2 2.83765 1.09771 14.8629
20 4 4.48724 2.36134 9.32171
124 2 3.72505 4.8721 11.6111
117 2 5.15047 0.814737 8.85906
135 2 0.329699 0.71655 8.07387
5 4 0.706172 1.50546 15.8318
220 4 -1.74233 12.6747 1.20828
265 2 -4.29074 12.0785 3.64496
47 1 1.68699 10.2112 1.47521
266 2 -1.47436 6.6596 1.17898
91 3 -1.85002 9.35641 7.9789
133 2 -6.44878 12.3956 7.51951
16 4 -2.73045 8.24164 7.17028
17 4 -4.08039 10.5265 5.79796
70 3 -3.6989 9.02779 5.93944
90 3 -3.14942 11.0736 4.61035
115 2 -3.63682 11.4546 7.14095
31 4 -1.87321 10.5583 3.55787
152 2 -2.94001 9.07497 1.76018
48 1 -2.57994 8.90366 2.82871
153 2 -3.50032 8.69841 3.48955
69 3 -5.72199 10.7733 5.58528
1 4 -6.35 11.9212 2.06835
3 3 -5.49807 10.8535 1.05609
68 3 -1.79054 6.97335 6.45316
89 3 -1.73241 11.4553 2.19317
125 2 1.5474 10.6337 0.416011
151 2 -1.86508 8.09636 2.97446
93 3 -0.597288 10.1688 4.43315
94 3 -0.0687592 11.6021 6.64076
271 2 -1.02854 9.02573 1.58787
19 4 -0.840874 12.7848 7.39186
30 4 0.626853 8.63312 1.35721
33 4 0.415952 10.3519 5.79651
87 3 1.27825 7.81285 2.61234
149 2 0.521738 8.88066 6.97874
272 2 1.09968 10.8297 2.28034
147 2 1.91225 7.05512 6.18683
46 1 1.83841 7.78899 7.04918
148 2 2.78477 8.41761 7.37351
79 3 -0.406498 6.48963 4.25615
160 2 -0.512539 10.3408 14.4935
95 3 2.20804 7.59946 12.2533
71 3 -2.99461 7.16342 13.0694
92 3 -2.56106 12.0517 8.28042
128 2 0.340967 10.2388 12.84
34 4 1.83792 9.62804 12.1087
67 3 -3.90573 7.52535 8.31353
98 3 -3.92676 10.015 14.6695
35 4 -2.70059 10.2844 13.7025
96 3 -3.00242 9.66464 11.8148
127 2 -2.55161 10.3225 10.4589
15 4 -5.47214 9.99096 15.4022
139 2 -5.86202 10.7927 13.1007
18 4 -2.99451 8.07154 11.7256
162 2 -1.48964 8.92078 15.2548
97 3 -2.18019 11.7623 13.5308
50 1 0.64777 10.0578 10.9007
32 4 -1.87041 10.67 8.85586
83 3 0.153853 6.63168 9.02868
22 4 -1.22942 12.6222 12.5403
88 3 0.583986 7.80525 15.6751
126 2 -0.220503 10.9887 9.48508
161 2 -0.526114 8.6924 13.6447
51 1 -1.13419 9.42397 14.3401
120 2 -0.135419 11.5622 11.5654
72 3 -1.56114 7.65884 10.8181
159 2 -0.0492427 9.18846 10.7387
29 4 3.09155 6.89994 11.1507
86 3 2.73116 7.17152 9.66982
27 4 1.58183 6.68425 8.48181
229 2 2.07377 7.56831 13.8015
198 2 -0.641628 12.3197 15.8119
158 2 1.46207 10.2468 9.97679
195 2 -3.28242 12.4556 15.445
137 2 -7.0101 12.7498 11.9854
193 2 -3.48174 7.57018 15.7777
270 2 6.49096 3.806 4.93175
224 2 7.5021 2.97451 3.00523
171 2 7.5193 4.15997 7.11031
231 1 12.5774 2.35561 0.232241
119 2 9.26164 1.65469 4.07185
254 1 9.08016 0.661447 3.55228
255 2 9.61472 0.665721 2.48294
169 2 8.47674 4.68205 5.48469
54 1 8.36673 4.83511 6.56368
39 4 10.0444 3.89665 7.06043
273 2 9.36183 1.22629 1.24961
184 1 9.41574 0.61698 0.234125
129 2 10.936 1.12237 4.15822
170 2 8.40711 6.06416 6.89579
4 4 14.1435 2.02836 3.82654
37 4 11.6353 2.08211 5.40939
101 3 12.9677 3.1245 4.78017
102 3 11.9846 1.1608 6.58034
106 3 10.3863 3.05411 5.7029
232 3 13.1969 1.07212 2.81802
56 3 15.0407 1.14239 4.87719
230 4 12.628 0.812461 1.38294
207 4 12.4656 0.478832 7.93133
234 2 12.329 3.25249 0.9833
233 2 10.9502 1.30718 1.23016
107 3 11.1924 5.02823 7.42017
103 3 5.57636 6.3428 1.56138
267 2 12.5374 5.53579 0.80283
260 2 7.071 5.54189 7.90255
99 3 8.04147 0.632477 8.6475
258 1 6.31365 5.93629 8.75172
261 2 6.0478 5.03817 9.41661
11 4 11.605 5.89488 8.77985
100 3 8.20704 2.56086 10.5433
121 2 6.79652 3.39557 12.7897
179 4 6.95315 4.01025 14.4877
188 3 7.79832 2.99477 15.2893
183 1 7.91529 5.67703 14.4533
194 2 7.6545 5.35173 10.1714
196 2 7.74599 6.05514 13.3912
145 2 5.32494 6.23032 10.7855
77 3 5.42784 4.31463 15.1025
191 3 10.287 5.63556 9.87115
6 4 14.3504 2.39759 9.35489
36 4 8.94414 1.80308 9.33016
180 4 8.79306 1.62865 14.5293
192 3 9.45981 4.70837 12.3048
187 3 7.90689 0.688427 13.582
182 4 9.15649 5.63511 10.9557
144 2 8.99043 5.50552 14.7093
164 2 10.0739 1.22658 11.3526
45 1 4.50809 6.08335 11.6226
105 3 9.62405 2.81603 8.25722
52 1 10.4219 0.856274 10.3132
259 2 11.5382 2.3543 15.136
189 3 10.4009 2.46036 13.7285
200 2 12.292 2.36361 11.757
197 2 7.25855 6.18272 15.2524
235 2 13.368 2.21932 15.5896
181 4 10.6705 3.89757 13.0018
190 3 11.5701 4.83037 14.1483
172 4 14.3829 1.5567 13.1566
174 2 12.5273 1.66662 13.6304
175 2 12.1021 0.681919 11.4307
177 2 14.5211 0.351873 11.5579
185 1 11.8459 3.53156 11.5581
201 2 12.6545 4.37176 11.8569
202 2 11.4513 3.67334 10.5236
263 3 13.123 1.51888 8.92287
173 1 12.9724 0.529116 12.2667
165 2 11.3721 1.38821 10.0482
262 3 15.2124 0.840783 14.2801
23 4 6.70602 2.55295 11.2657
122 2 5.35758 6.34477 8.27799
110 2 13.6621 3.27054 10.6739
146 2 4.87161 6.4247 12.656
210 1 8.65408 7.91333 7.6923
257 2 1.24886 12.4691 4.177
213 2 9.4861 8.36825 4.84944
49 1 2.1416 10.8342 5.18437
150 2 2.89425 9.95539 1.73765
154 2 2.23607 11.8064 5.91834
155 2 2.37097 11.004 4.09688
253 2 10.3315 8.08797 0.935837
166 2 3.5194 8.13944 1.93164
156 2 2.69006 9.86335 5.63108
104 3 4.70104 6.7462 4.17871
240 2 4.03275 9.20089 0.542562
238 3 4.66361 12.0337 0.747334
239 2 6.5264 10.1617 1.96482
38 4 5.08702 7.42921 2.60373
167 2 6.31411 8.81798 2.98206
168 2 7.72073 7.70813 5.07506
208 4 6.57213 11.3334 7.0612
211 3 6.81852 10.6251 5.67217
212 3 5.16748 11.8594 7.51549
241 2 4.2575 10.1373 2.93506
237 1 4.77897 9.45898 2.22783
236 4 5.31193 10.5493 0.668832
216 2 8.58617 8.01499 6.47919
130 2 8.33406 8.29443 3.39303
53 1 8.40275 8.40035 4.47279
2 3 8.34586 11.1573 3.30747
206 4 8.24671 10.3264 4.68559
274 2 9.70636 7.74623 8.01793
134 2 6.00043 9.05609 7.81245
268 2 8.58519 8.08532 0.162457
199 2 1.88329 12.7951 15.6865
203 2 9.37993 8.28818 10.5514
186 1 9.03841 7.52771 11.3737
123 2 5.63158 10.2354 9.17403
108 3 3.10495 10.4424 12.3798
176 2 4.17494 12.4815 13.8867
218 2 7.84943 7.14467 8.09813
252 2 9.67054 7.4956 14.8707
204 2 9.47266 7.65751 12.4235
43 1 8.79036 10.7441 13.9973
40 4 4.46414 11.1198 12.7166
140 2 8.20702 11.7117 14.1913
217 2 7.73315 10.6027 8.46693
209 1 6.50498 9.64018 8.70084
157 2 6.91818 8.84511 9.43809
131 2 5.12941 11.7214 11.1603
251 1 9.36382 8.16089 15.7227
269 2 8.12691 9.85182 13.8495
264 2 5.7747 10.2631 14.7954
205 2 7.89131 7.57447 11.468
109 3 6.00966 9.95569 13.4102
132 2 5.47367 9.13125 13.1662
116 2 10.9706 7.71765 10.856
214 2 2.80367 12.6863 8.64591
215 2 6.77493 6.80076 9.43516
163 2 2.3068 12.4662 10.3122
219 2 8.47301 8.91445 8.13802
ITEM: TIMESTEP
100
ITEM: NUMBER OF ATOMS
274
ITEM: BOX BOUNDS xy xz yz pp pp pp
-7.8103479964674580e+00 1.6107556389490025e+01 -8.2040415267999762e+00
1.1565835907459054e-01 1.2842998269105207e+01 -3.1765008017753682e-01
1.5947396079707854e-01 1.5916026039202713e+01 -9.2649065086518548e-03
ITEM: ATOMS id type x y z
225 2 5.57451 2.97615 2.83916
111 2 2.19785 0.370315 4.4405
9 4 -0.0767372 3.93305 1.7288
62 3 0.0881104 5.1148 6.35581
112 2 -1.54582 4.68764 1.20529
12 4 -1.01435 5.89803 5.54951
58 3 -0.381354 3.04652 3.00229
242 1 3.15766 0.422452 2.71933
80 3 4.29543 3.29397 8.02511
7 4 1.09223 1.07087 5.65227
10 4 0.627477 4.01062 7.28595
59 3 0.514092 3.1204 0.511559
61 3 1.76547 2.57485 6.15521
78 3 0.941937 5.12972 2.13679
28 4 3.72061 5.69362 4.51798
228 2 0.703494 6.43519 0.349165
143 2 2.87609 3.82836 1.35711
26 4 3.52564 3.64975 6.7288
44 1 3.99556 3.7392 1.75973
221 1 6.42868 2.4826 3.39693
243 2 2.59955 1.37503 2.9344
222 3 5.29644 0.561621 0.654054
113 2 -2.09517 4.6298 5.27149
85 3 3.92107 5.01557 5.92151
81 3 4.55508 2.42435 5.6176
25 4 0.962191 6.35411 3.29489
84 3 2.23084 6.22075 4.25722
244 2 7.17603 1.52284 1.8603
141 2 4.0017 4.31518 3.29302
24 4 4.69534 5.05951 0.60006
142 2 4.34611 2.68441 1.56781
118 2 6.0742 0.891847 3.57878
21 4 5.98812 2.04609 5.2588
256 2 8.07989 0.415808 3.49959
74 3 6.9051 1.26632 6.30082
249 1 -2.44124 6.33604 0.583855
223 2 3.9922 0.594961 1.96592
55 3 1.07056 0.433708 1.34314
246 2 3.29165 2.6128 0.25811
79 3 -0.588 6.42136 4.09866
82 3 1.91869 4.5547 8.03247
178 4 -3.14893 6.12937 14.3674
65 3 -2.44335 5.35708 9.4434
250 2 -1.55234 5.62053 15.2324
60 3 -0.296408 3.2232 8.28689
13 4 0.281231 4.21079 12.2264
63 3 -0.641978 3.05355 12.7455
66 3 -0.468193 5.1818 11.2501
14 4 -1.22122 6.17268 10.1633
57 3 0.256653 1.37368 10.1234
76 3 6.32213 0.962691 11.5073
5 4 0.660137 1.64809 15.8113
75 3 5.40225 3.12462 10.2899
8 4 1.73169 1.98893 10.8229
64 3 1.57292 3.61557 11.6192
73 3 3.0256 1.90051 9.9509
114 2 0.939479 5.20641 13.5572
245 1 2.47986 1.83746 15.2074
247 2 2.3514 2.28151 14.1185
227 3 2.99502 5.61211 15.5175
138 2 2.112 1.0234 13.2957
226 4 1.70517 6.15474 14.912
42 1 2.00319 0.662692 12.249
248 2 2.93862 0.739603 15.2457
20 4 4.36974 2.26819 9.23565
124 2 3.67312 5.00239 12.0265
117 2 5.04291 0.75538 8.66491
262 3 -0.146779 1.08694 14.5362
135 2 0.800755 0.38677 8.16891
23 4 6.57978 2.55064 11.2097
220 4 -1.58605 12.6543 1.25935
265 2 -4.75581 12.4644 3.60363
148 2 2.71484 8.07881 7.30548
266 2 -1.98395 7.01797 1.38027
91 3 -1.89226 9.44831 7.88899
133 2 -6.17538 12.1128 6.93231
16 4 -2.65907 8.13946 7.04361
17 4 -4.02742 10.4429 5.75162
70 3 -3.71313 8.8453 6.00865
90 3 -3.17532 11.1071 4.59403
115 2 -3.68718 11.4064 7.15872
31 4 -1.88575 10.5958 3.62773
152 2 -2.63944 9.07163 1.64482
48 1 -2.42522 8.91958 2.76117
153 2 -3.3756 8.69061 3.4059
69 3 -5.62301 10.5554 5.4115
1 4 -6.39331 11.9301 2.03922
3 3 -5.74597 10.947 0.858778
68 3 -1.73635 7.04036 6.34102
89 3 -1.74522 11.606 2.41055
41 1 -7.23409 12.6957 7.09937
151 2 -1.5131 8.15783 2.96089
93 3 -0.578824 10.3756 4.46642
94 3 0.033806 11.6653 6.71925
271 2 -0.948973 9.08972 1.46858
19 4 -0.783723 12.7791 7.43974
30 4 0.778934 8.7886 1.38966
33 4 0.457987 10.4651 5.80129
87 3 1.15008 7.78544 2.54219
149 2 0.515844 8.93378 6.96464
272 2 1.31838 10.9611 2.14448
147 2 1.70847 6.96475 6.16482
46 1 1.68637 7.65148 7.04322
160 2 -0.815874 9.75459 15.1494
95 3 2.01509 7.60138 12.3447
71 3 -2.89403 7.07671 13.1324
92 3 -2.55175 12.0619 8.25216
128 2 0.420706 10.3305 12.9758
34 4 1.82486 9.54747 12.2982
67 3 -3.60746 7.50022 8.29763
98 3 -4.01436 10.1836 14.9057
35 4 -2.77584 10.2092 13.7733
96 3 -3.10732 9.56774 11.8833
127 2 -2.6374 10.2236 10.4287
15 4 -5.52177 9.96615 15.4515
139 2 -5.64527 9.90544 13.1077
18 4 -2.92841 7.94922 11.7421
162 2 -2.16013 8.54876 15.333
97 3 -2.11999 11.7496 13.5273
50 1 0.647812 10.0507 11.0527
32 4 -1.91608 10.6569 8.89088
83 3 0.1309 6.77308 9.083
22 4 -1.17354 12.7366 12.6331
88 3 0.687618 7.79748 15.5521
126 2 -0.306823 10.8359 9.55098
161 2 -0.999133 8.39449 13.8441
51 1 -1.52695 9.13917 14.5656
120 2 -0.142459 11.6057 11.7824
72 3 -1.59571 7.62523 10.8057
159 2 -0.0690435 9.1245 10.8147
29 4 2.85372 6.79468 11.3207
86 3 2.70711 7.01563 9.68095
27 4 1.53708 6.52747 8.54251
229 2 1.89897 7.61524 14.025
198 2 -0.574965 12.1936 15.7253
158 2 1.43671 10.2493 10.1464
195 2 -3.26661 12.4688 15.7407
140 2 -6.15308 11.6817 13.425
193 2 -4.03296 7.08065 15.7742
137 2 -7.17166 12.7561 12.094
136 2 -5.31365 12.784 11.8862
270 2 6.96152 3.56898 4.79575
224 2 7.44255 2.72468 2.99603
171 2 7.52968 4.46054 6.53766
231 1 12.5345 2.24217 0.241651
119 2 9.35557 1.46105 4.37372
254 1 9.21704 0.588204 3.59376
255 2 9.70916 0.893704 2.61056
169 2 8.58696 5.10341 5.25749
54 1 8.43229 5.04014 6.35762
39 4 9.91059 4.003 6.95485
273 2 9.23419 0.994432 1.32317
184 1 9.25623 0.487297 0.301355
129 2 11.1212 1.08447 3.95371
170 2 8.50012 6.08396 6.84042
4 4 14.2221 1.99748 3.87696
37 4 11.6797 2.16204 5.21756
101 3 12.8187 3.10286 4.64683
102 3 12.1112 1.31807 6.48956
106 3 10.281 3.1173 5.56426
232 3 13.1667 1.12133 2.84007
56 3 15.0656 1.21686 4.91038
230 4 12.5111 0.805755 1.38839
207 4 12.5394 0.611624 7.79802
234 2 12.48 3.09097 0.946575
233 2 10.8464 1.27734 1.19297
107 3 11.1709 5.02259 7.4083
103 3 5.42016 6.2994 1.49783
260 2 7.09025 5.39091 7.8749
267 2 12.3785 5.47146 1.06341
99 3 8.24908 0.603367 8.63923
258 1 6.34417 5.79341 8.69532
261 2 6.08065 4.89391 9.32662
11 4 11.5574 5.8305 8.72954
100 3 7.97842 2.68394 10.3516
121 2 6.72291 3.32906 12.8698
179 4 6.86265 4.04304 14.5573
188 3 7.80999 3.03131 15.3231
183 1 7.85217 5.57526 14.793
194 2 7.63539 5.2259 10.0907
196 2 7.61817 5.86169 13.5127
145 2 5.24028 6.3739 11.2516
77 3 5.43414 4.41181 15.2725
191 3 10.2695 5.84529 9.80528
6 4 14.5016 2.28499 9.39931
36 4 8.93536 1.92771 9.27545
180 4 8.75125 1.69837 14.7006
192 3 9.4848 4.62853 12.1285
187 3 7.95022 0.920996 13.5235
182 4 9.09391 5.60531 10.866
144 2 8.89385 5.22951 15.0033
164 2 10.0717 1.51554 11.2781
45 1 4.3728 6.34467 11.977
105 3 9.53617 3.01676 8.21147
52 1 10.4286 1.0425 10.2328
259 2 11.4602 2.28826 15.0449
189 3 10.3322 2.4127 13.8093
200 2 12.2335 2.24735 11.8046
197 2 7.39335 6.27573 15.5311
235 2 13.3194 2.14848 15.723
181 4 10.6218 3.81667 12.9788
190 3 11.5075 4.79295 13.957
172 4 14.4283 1.59016 13.223
174 2 12.5919 1.51729 13.7384
175 2 11.943 0.626132 11.6336
177 2 14.4522 0.489938 11.7479
185 1 11.9353 3.37111 11.6469
201 2 12.7519 4.03258 11.9661
202 2 11.5715 3.61264 10.6252
263 3 13.3512 1.43257 8.83563
173 1 12.8315 0.415316 12.3737
165 2 11.3758 1.51736 9.81812
122 2 5.40581 6.10164 8.1976
110 2 13.6967 3.19226 10.6554
210 1 8.51047 8.01522 7.64371
257 2 1.41924 12.3343 4.05362
213 2 9.21028 7.93338 5.01326
49 1 2.09625 10.6281 4.98891
150 2 3.00146 9.99782 1.6631
154 2 2.52997 11.6757 5.2208
155 2 2.11565 10.2572 3.94348
253 2 10.2325 7.95685 0.833852
166 2 3.63339 8.25111 1.91901
156 2 2.63503 9.78601 5.82212
104 3 4.79516 6.90586 4.26865
240 2 4.06958 9.17506 0.489909
238 3 4.46781 12.0703 0.734251
239 2 6.55427 10.3009 1.74022
38 4 5.12168 7.393 2.61482
167 2 6.39668 8.78324 2.63842
168 2 7.25725 8.01992 4.68337
208 4 6.62664 11.2308 7.13975
211 3 7.03721 10.4897 5.87156
212 3 5.2094 12.0819 7.44165
241 2 4.51094 10.2686 2.94192
237 1 4.87124 9.49218 2.19033
236 4 5.18583 10.602 0.56863
216 2 8.47475 8.20188 6.43578
130 2 8.5895 8.48343 3.24422
53 1 8.35338 8.37786 4.43323
2 3 8.25416 11.0373 3.26955
206 4 8.39517 10.3135 4.68734
274 2 9.63313 7.63315 7.85118
134 2 6.40025 8.8929 7.86322
125 2 1.75257 10.6607 0.30725
47 1 1.86719 10.2605 1.3695
218 2 7.71549 7.21582 7.96649
268 2 8.52221 8.11902 0.210244
163 2 2.25139 12.6253 10.2425
203 2 9.44752 8.07276 10.5699
186 1 9.00161 7.44966 11.3501
123 2 5.27342 10.0691 8.78314
108 3 3.18913 10.4119 12.4534
176 2 4.08127 12.4959 13.9291
215 2 6.72234 6.66214 9.30408
252 2 9.61029 7.53762 14.8415
204 2 9.40259 7.69832 12.349
43 1 9.06169 10.5754 13.7728
40 4 4.5886 11.1301 12.6685
219 2 8.32364 8.99422 8.19148
217 2 7.66012 10.7313 8.69707
209 1 6.29865 9.62785 8.67604
157 2 6.44035 9.00123 9.54675
131 2 5.19073 11.8006 11.1018
251 1 9.29419 8.14435 15.7301
269 2 7.87358 10.3081 13.7383
264 2 5.72837 10.2928 14.7909
205 2 7.81511 7.50004 11.2822
109 3 6.23722 10.1216 13.4383
132 2 5.78287 9.27351 13.0586
199 2 1.78879 12.7496 15.779
214 2 2.9088 12.8139 8.69442
116 2 11.0119 7.55049 11.036
146 2 4.50483 6.97532 12.9842
ITEM: TIMESTEP
200
ITEM: NUMBER OF ATOMS
274
ITEM: BOX BOUNDS xy xz yz pp pp pp
-7.8103479964674580e+00 1.6107556389490025e+01 -8.2040415267999762e+00
1.1565835907459054e-01 1.2842998269105207e+01 -3.1765008017753682e-01
1.5947396079707854e-01 1.5916026039202713e+01 -9.2649065086518548e-03
ITEM: ATOMS id type x y z
225 2 5.71155 2.93908 2.96543
111 2 2.29546 0.332121 4.43379
9 4 0.0594401 3.97075 1.77299
62 3 -0.18022 4.91463 6.27678
112 2 -1.43981 4.74633 1.22726
12 4 -1.13172 5.79051 5.45799
58 3 -0.267639 3.08194 3.03134
242 1 3.26301 0.220578 2.71374
79 3 -0.436295 6.19194 4.08074
7 4 1.10422 0.905834 5.5466
10 4 0.714997 4.06586 7.21581
59 3 0.518752 3.05283 0.588911
61 3 1.77494 2.77119 6.14725
78 3 1.06724 5.23178 2.12527
28 4 3.85891 5.69816 4.59673
135 2 0.921812 0.97326 7.79427
143 2 3.08499 3.6715 1.94579
26 4 3.58047 3.5554 6.64429
44 1 4.25038 3.7661 1.75013
221 1 6.53764 2.40098 3.57664
243 2 2.74913 1.17614 3.00649
222 3 5.22349 0.5997 0.457307
256 2 7.97207 0.423522 3.9609
85 3 3.9893 5.2303 6.08964
81 3 4.55022 2.5311 5.59397
25 4 1.00367 6.32062 3.3658
84 3 2.32227 6.06746 4.25785
244 2 7.14798 1.46588 1.95409
141 2 4.39166 4.41482 3.50897
24 4 4.57838 5.07808 0.617608
142 2 4.9175 2.87258 1.36472
118 2 6.12468 0.954208 3.56886
21 4 6.02827 2.12525 5.41089
82 3 1.99239 4.87571 7.89744
74 3 6.75551 1.11254 6.30223
249 1 -2.62463 6.21443 0.691215
223 2 4.04222 0.351584 1.80246
55 3 0.711683 0.498151 1.31986
246 2 3.41998 2.43595 0.443114
178 4 -3.19324 6.08347 14.3753
65 3 -2.41911 5.41438 9.48038
250 2 -1.6955 5.47961 15.2527
60 3 -0.16607 3.35179 8.26935
13 4 0.22481 4.13862 12.24
63 3 -0.826916 3.14074 12.8658
66 3 -0.386573 5.18323 11.2606
14 4 -1.15247 6.16144 10.163
57 3 0.204159 1.64793 10.0151
76 3 6.1672 0.788458 11.6717
6 4 -0.905147 2.43869 9.26941
75 3 5.28043 3.00341 10.5217
8 4 1.77536 1.90106 10.966
64 3 1.54614 3.31621 11.7556
73 3 3.06632 1.67211 9.83999
114 2 0.921972 5.08174 13.556
245 1 2.44165 1.89745 15.3418
247 2 2.4625 2.51823 14.4296
227 3 2.90979 5.50961 15.5561
138 2 2.37619 1.14594 13.4933
226 4 1.68431 6.07249 14.8356
42 1 2.25883 0.692444 12.3229
248 2 2.84144 0.824059 15.2754
20 4 4.41668 2.24734 9.30121
124 2 3.78604 5.0298 12.3149
117 2 5.16807 0.80682 8.73894
136 2 3.22601 0.142725 12.0403
23 4 6.53011 2.39913 11.3828
5 4 0.578733 1.6099 15.8175
80 3 4.16524 3.18261 8.0641
220 4 -1.62143 12.7901 1.1439
265 2 -4.45145 12.4852 3.6478
148 2 2.82206 8.36991 7.62361
266 2 -2.19567 6.84113 1.47991
272 2 1.15616 10.9911 2.10444
133 2 -6.41715 12.0828 7.13645
16 4 -2.66552 8.17519 7.16121
17 4 -4.00256 10.4067 5.77185
70 3 -3.6546 8.89875 6.16672
90 3 -3.14469 10.9059 4.54056
115 2 -3.58688 11.4733 7.01056
31 4 -1.84741 10.5211 3.63212
152 2 -2.61 9.03668 1.68214
48 1 -2.31707 8.87071 2.7368
153 2 -3.14419 8.38899 3.36939
69 3 -5.63185 10.6194 5.47367
1 4 -6.47743 12.0799 1.97213
3 3 -5.97082 11.1819 0.60617
68 3 -1.71836 7.09101 6.20163
89 3 -1.68092 11.7071 2.3669
41 1 -7.33906 12.7638 7.09648
151 2 -1.2577 8.33847 2.9551
93 3 -0.492805 10.1443 4.58359
94 3 0.292889 11.5601 6.72658
271 2 -0.879393 9.31949 1.42618
19 4 -0.749542 12.6891 7.4531
30 4 0.76298 8.84454 1.31947
33 4 0.566329 10.2035 5.9065
87 3 1.07548 7.96342 2.56923
149 2 0.441605 8.66014 6.91971
46 1 1.95172 7.81961 7.23754
147 2 2.29753 7.04877 6.37842
228 2 0.72672 6.52629 0.327568
160 2 -0.399277 10.1136 14.8698
95 3 1.84452 7.53327 12.4072
71 3 -2.90087 7.25963 13.283
92 3 -2.50361 12.0623 8.27655
128 2 0.495287 10.1244 13.1277
34 4 1.80884 9.46659 12.1471
67 3 -3.72933 7.41355 8.17885
98 3 -4.08174 10.1275 14.9207
35 4 -2.69391 10.3081 13.7629
96 3 -2.96 9.56132 11.9289
127 2 -2.56576 10.3569 10.6228
15 4 -5.60633 10.1415 15.2635
137 2 -6.89545 12.7131 12.2334
18 4 -2.99615 7.95959 11.8387
162 2 -1.77593 8.84136 15.3691
97 3 -2.10328 11.7425 13.494
50 1 0.465146 10.1075 11.1662
32 4 -1.84146 10.7236 8.9691
83 3 -0.0160079 6.58109 9.02754
22 4 -1.12439 12.6483 12.7347
88 3 0.810358 7.77651 15.5265
126 2 -0.307571 11.1534 9.70106
161 2 -0.839786 8.60595 13.7997
51 1 -1.28614 9.40522 14.5386
120 2 0.0724909 11.6714 11.7515
72 3 -1.85124 7.35534 10.9826
159 2 -0.39789 9.31697 11.2673
29 4 2.66677 6.60637 11.4505
86 3 2.59493 6.82763 9.8603
27 4 1.49891 6.60651 8.56665
229 2 2.04941 7.57068 14.0601
198 2 -0.613398 12.3506 15.7092
158 2 1.05075 9.99321 10.0873
195 2 -3.43163 12.4409 15.6283
140 2 -6.00469 11.4042 13.0193
91 3 -1.82322 9.35497 8.11743
270 2 7.04906 3.55976 5.06062
224 2 7.54126 2.54912 3.16963
171 2 7.3734 4.68751 6.40537
231 1 12.5602 2.35784 0.300406
119 2 9.32265 1.49273 4.51755
254 1 9.06396 0.579243 3.90297
255 2 9.38658 0.837945 2.7862
169 2 8.59948 5.0952 5.04311
54 1 8.42562 5.0604 6.1919
39 4 9.79155 3.966 6.90874
273 2 9.29653 1.13531 1.43092
184 1 9.41258 0.667215 0.359006
129 2 11.0118 1.05614 4.03527
170 2 8.59645 6.1895 6.62399
4 4 14.1699 2.02389 3.75708
37 4 11.5929 2.26425 5.14568
101 3 12.7846 3.17069 4.56668
102 3 12.0793 1.47011 6.38372
106 3 10.1708 3.14026 5.47443
232 3 13.2751 1.20229 2.79457
56 3 15.0941 1.16846 4.88182
230 4 12.6863 0.859356 1.39294
207 4 12.5566 0.656601 7.68287
234 2 12.3702 3.25063 0.949656
233 2 10.9643 1.31098 1.33546
107 3 11.101 4.92861 7.26074
113 2 12.9638 4.77522 4.98083
260 2 7.32902 5.43608 7.87958
267 2 12.3405 5.28607 1.12559
99 3 8.21066 0.659232 8.6936
258 1 6.49932 5.78347 8.71134
261 2 6.06994 4.80914 9.14425
11 4 11.6194 5.78803 8.7263
100 3 7.90818 2.53197 10.4946
121 2 6.72753 3.22935 12.9695
179 4 6.99552 4.07469 14.5577
188 3 7.82367 3.03531 15.3436
183 1 7.7285 5.76264 14.6897
194 2 7.73367 4.97625 10.0284
196 2 7.93058 5.93314 13.5633
110 2 13.5847 3.32802 10.4385
77 3 5.50868 4.28247 15.1492
191 3 10.3662 5.72961 9.74816
122 2 5.63112 6.37815 8.15154
36 4 8.85773 1.98235 9.24759
180 4 8.83217 1.65784 14.6477
192 3 9.53294 4.55695 12.0983
187 3 7.99278 0.798584 13.6786
182 4 9.14918 5.51508 10.7853
144 2 8.67436 5.66025 15.3608
164 2 10.3006 1.73153 11.1494
214 2 11.1707 0.163755 8.54379
105 3 9.23157 3.05424 8.08769
52 1 10.4867 1.27996 10.1214
259 2 11.5325 2.3412 15.138
189 3 10.3057 2.36198 13.7815
200 2 12.3183 2.40427 11.8166
262 3 15.2151 1.01993 14.4133
235 2 13.3098 2.31119 15.6169
181 4 10.6691 3.81167 13.0187
190 3 11.3236 4.91721 13.925
172 4 14.3159 1.63166 13.2497
174 2 12.4343 1.40009 13.7277
175 2 12.0013 0.771764 11.4785
177 2 14.4421 0.530457 11.7388
185 1 11.9751 3.47984 11.5509
201 2 12.7901 4.24582 11.725
202 2 11.4151 3.56258 10.5885
263 3 13.4533 1.46301 8.67413
173 1 12.7972 0.512303 12.2874
165 2 11.4935 1.5941 9.72345
163 2 10.3022 0.170781 10.1654
215 2 6.85393 6.44554 9.52088
199 2 10.1274 0.115868 15.8393
210 1 8.59659 7.964 7.61363
257 2 1.37731 12.3612 4.2814
213 2 9.48175 8.11786 4.62037
49 1 2.20766 10.5538 5.13018
150 2 2.98569 10.1021 1.79452
154 2 2.68345 11.4076 5.68596
155 2 2.06967 10.8281 3.98113
253 2 10.0679 8.2627 0.90733
166 2 3.4844 8.51609 2.17872
156 2 2.63391 9.44281 5.31397
104 3 4.81758 6.87636 4.14078
240 2 4.06151 9.31679 0.682271
238 3 4.63081 12.0533 0.704469
239 2 6.56678 10.4108 1.88138
38 4 5.06243 7.60863 2.60784
167 2 6.40747 8.86335 2.70736
168 2 7.63361 7.67221 4.91122
208 4 6.55508 11.2837 7.13511
211 3 7.18642 10.4293 5.80918
212 3 5.09778 12.0362 7.29315
241 2 4.58622 10.3868 3.17402
237 1 4.84356 9.66107 2.3774
236 4 5.29887 10.6086 0.671242
216 2 8.53826 8.08072 6.45128
130 2 8.13178 8.47474 3.21788
53 1 8.37794 8.2749 4.3586
2 3 8.36477 11.1909 3.13252
206 4 8.4174 10.1627 4.77963
274 2 9.58458 7.68626 7.91738
134 2 6.49098 9.05405 7.83297
125 2 1.8017 10.7745 0.353432
47 1 1.81041 10.3325 1.38056
268 2 8.31198 8.50196 0.207465
103 3 5.29569 6.64111 1.34753
218 2 7.80535 7.23601 8.03114
43 1 9.15613 10.3371 13.3238
203 2 9.17887 8.19697 10.8667
186 1 8.97008 7.26327 11.5304
123 2 5.17715 10.1211 8.73415
108 3 3.21163 10.3083 12.3918
176 2 4.40111 12.3541 13.8688
145 2 4.96913 6.64118 11.0944
252 2 9.37579 7.83418 14.801
204 2 9.56182 7.17029 12.5307
45 1 4.261 6.48346 12.0614
40 4 4.58958 11.1361 12.5698
219 2 8.31843 8.90167 8.15374
217 2 7.38263 11.101 8.89372
209 1 6.29447 9.7718 8.76612
157 2 6.38423 9.24546 9.7802
131 2 4.9123 11.8739 10.9618
251 1 9.14112 8.4765 15.7643
269 2 7.951 10.201 13.3371
264 2 5.7614 10.2764 14.8234
205 2 7.79952 7.12134 11.7079
109 3 6.18611 10.217 13.3782
132 2 5.90217 9.35586 12.9524
197 2 6.96497 6.48513 15.1838
139 2 9.67468 9.46357 12.8383
116 2 10.8921 7.51156 11.1471
146 2 4.3392 7.33738 12.905
193 2 11.232 7.00582 15.9049
ITEM: TIMESTEP
300
ITEM: NUMBER OF ATOMS
274
ITEM: BOX BOUNDS xy xz yz pp pp pp
-7.8103479964674580e+00 1.6107556389490025e+01 -8.2040415267999762e+00
1.1565835907459054e-01 1.2842998269105207e+01 -3.1765008017753682e-01
1.5947396079707854e-01 1.5916026039202713e+01 -9.2649065086518548e-03
ITEM: ATOMS id type x y z
225 2 5.58483 3.05525 2.91517
111 2 2.27232 0.335397 4.42198
9 4 0.0539386 3.96134 1.75481
62 3 -0.246258 4.90754 6.27418
112 2 -1.40334 4.78778 1.28468
12 4 -1.14635 5.85645 5.44445
58 3 -0.223529 3.16591 3.08909
242 1 3.12731 0.183745 2.69152
79 3 -0.399098 6.36473 4.19457
7 4 1.07689 1.03938 5.52836
10 4 0.684018 4.00078 7.09058
59 3 0.409203 3.1424 0.429278
61 3 1.63006 2.84046 6.07055
78 3 1.10444 5.12188 2.13849
28 4 3.90469 5.63806 4.61002
246 2 3.29461 2.67232 0.277715
143 2 3.11225 3.72136 1.54789
26 4 3.6361 3.6598 6.74848
44 1 4.18645 3.81979 1.71833
221 1 6.3932 2.44104 3.48537
243 2 2.74332 1.28526 3.04742
222 3 5.11408 0.375744 0.552941
256 2 7.97012 0.363779 3.78634
85 3 4.31984 5.1995 6.08887
81 3 4.52822 2.58912 5.61252
25 4 1.11895 6.35408 3.37496
84 3 2.3163 5.97114 4.38856
244 2 6.96323 1.52048 1.91444
141 2 4.37538 4.40671 3.32458
24 4 4.69827 5.14713 0.533604
142 2 4.76891 2.84599 1.48637
118 2 6.00425 0.975295 3.71447
21 4 5.98403 2.09493 5.48073
82 3 2.05712 4.97099 7.55333
74 3 6.77863 1.03316 6.44873
249 1 -2.51535 6.34763 0.848431
223 2 4.04464 0.225132 1.81027
55 3 0.887815 0.558399 1.36768
228 2 0.694948 6.2773 0.437158
113 2 -2.34318 4.78892 4.81674
178 4 -3.27268 6.29302 14.5224
65 3 -2.30562 5.28907 9.30291
250 2 -1.64482 6.10881 15.3874
60 3 -0.0128102 3.27067 8.32294
13 4 0.173197 4.23327 12.2593
63 3 -0.813252 3.10348 12.7631
66 3 -0.404593 5.14515 11.1423
14 4 -1.15002 6.09437 10.0753
57 3 0.175709 1.4433 10.1282
76 3 6.30359 0.907082 11.8317
6 4 -0.835398 2.36578 9.3109
75 3 5.2613 2.93022 10.5471
8 4 1.60187 1.94973 10.9098
64 3 1.52592 3.47365 11.7884
73 3 2.93341 1.80356 9.97192
114 2 0.876734 5.12682 13.5898
245 1 2.40312 1.96721 15.2245
247 2 2.33545 2.53939 14.2457
227 3 2.98757 5.59804 15.4963
138 2 2.29798 1.15399 13.3737
226 4 1.62566 6.09546 14.9896
42 1 2.07287 0.630546 12.2463
248 2 2.8806 1.04759 15.082
20 4 4.40554 2.13291 9.34113
124 2 3.62552 4.88422 12.1718
117 2 5.04332 0.596423 8.88809
80 3 4.26447 3.05587 8.08205
23 4 6.51273 2.42582 11.3758
5 4 0.645745 1.61675 15.8538
136 2 2.99002 0.124701 11.8483
135 2 0.505932 0.490193 8.03866
220 4 -1.6075 12.6877 1.24646
265 2 -4.75331 12.1405 3.45809
193 2 -3.63952 7.21972 0.341601
266 2 -2.02101 6.89415 1.69742
272 2 1.12293 10.9876 2.1292
133 2 -6.44248 12.1388 6.96081
16 4 -2.65128 8.18257 7.17731
17 4 -3.93232 10.4815 5.79319
70 3 -3.55083 9.0082 6.20373
90 3 -3.08807 10.8274 4.4913
115 2 -3.39991 11.5606 6.98724
31 4 -1.84669 10.4364 3.63702
152 2 -2.67944 8.82388 1.59432
48 1 -2.31842 8.79504 2.69577
153 2 -3.17923 8.39907 3.39738
69 3 -5.56942 10.7296 5.56211
1 4 -6.48351 11.9428 1.84457
3 3 -5.90509 11.2703 0.381632
68 3 -1.9039 6.96372 6.30521
89 3 -1.62602 11.5528 2.42196
41 1 -7.48355 12.8248 6.98524
151 2 -1.41483 8.21065 2.87088
93 3 -0.475561 10.2622 4.54998
94 3 0.06038 11.4235 6.72026
271 2 -0.922666 9.02503 1.38737
19 4 -0.837091 12.5919 7.40215
30 4 0.827455 8.74057 1.48452
33 4 0.497317 10.2701 5.79491
87 3 1.36584 7.80103 2.68622
149 2 0.7041 8.44929 6.66314
46 1 2.00904 8.04824 7.57534
147 2 2.89893 7.60075 6.98553
47 1 1.73454 10.3382 1.41628
91 3 -1.76809 9.22441 8.02386
160 2 -0.499046 10.1091 14.9797
95 3 1.9334 7.55032 12.5923
71 3 -2.92698 7.40412 13.4246
92 3 -2.50164 11.8641 8.39686
128 2 0.39488 10.2491 12.9348
34 4 1.80278 9.44086 12.0943
67 3 -3.87722 7.33662 8.32261
98 3 -4.05359 10.0714 14.7548
35 4 -2.61378 10.2311 13.7823
96 3 -3.03329 9.50182 12.0384
127 2 -2.69569 10.1483 10.4706
15 4 -5.64437 10.2313 15.0404
137 2 -7.03746 12.697 12.2153
18 4 -2.95184 7.91744 11.9363
162 2 -1.35703 8.46713 15.1542
97 3 -1.9967 11.7559 13.697
50 1 0.37199 9.77836 11.0979
32 4 -1.88577 10.5234 8.96827
83 3 -0.00304295 6.82539 9.11482
22 4 -1.13106 12.6171 12.7982
88 3 0.855355 7.71276 15.7588
126 2 -0.32898 10.9281 9.72866
161 2 -0.612777 8.91073 13.5136
51 1 -1.09391 9.28285 14.4463
120 2 -0.284188 11.3988 11.7422
72 3 -1.79873 7.3831 11.0512
159 2 -0.32452 8.90891 11.0396
29 4 2.69322 6.57147 11.544
86 3 2.45301 6.61007 9.96213
27 4 1.45938 6.67306 8.63885
229 2 1.99297 7.6048 14.2254
148 2 2.22905 8.89033 8.42846
158 2 1.14439 9.82068 10.0167
195 2 -3.27578 12.1876 15.7091
140 2 -6.38468 11.519 12.9989
198 2 -0.474185 12.4329 15.8244