ITEM: TIMESTEP
0
ITEM: NUMBER OF ATOMS
274
ITEM: BOX BOUNDS xy xz yz pp pp pp
-7.6527824756834022e+00 1.6107556389490025e+01 -8.2040415267999762e+00
1.1575009082220096e-01 1.2717076734416871e+01 -1.6008455939348082e-01
1.5947396079707854e-01 1.5916026039202713e+01 -9.1731747610414409e-03
ITEM: ATOMS id type x y z
225 2 5.60449 3.16979 2.86372
111 2 2.27898 0.283784 4.5774
9 4 -0.0198617 3.8649 1.69959
62 3 0.0425687 4.95201 6.39148
112 2 -1.38434 4.55679 0.976265
12 4 -1.00024 5.77701 5.6174
58 3 -0.386502 2.99015 2.92515
246 2 3.18505 2.79645 0.211739
80 3 4.5662 3.15608 8.00734
7 4 1.05623 1.03073 5.70661
10 4 0.803802 3.96593 7.34234
59 3 0.444033 2.92972 0.520698
61 3 1.63129 2.50454 6.18581
78 3 0.872712 5.03685 2.18984
28 4 3.72291 5.51845 4.57377
82 3 2.1678 4.64176 8.01864
143 2 2.92553 3.97616 1.90076
26 4 3.57904 3.46216 6.72342
44 1 4.04855 3.78224 1.71572
221 1 6.50152 2.77712 3.49629
243 2 3.31348 1.20899 3.41976
222 3 5.05668 0.336287 0.580775
113 2 -2.1713 4.71291 5.04905
85 3 3.91331 5.0553 6.09223
81 3 4.30176 2.3066 5.43809
25 4 1.01467 6.3101 3.40037
84 3 2.26217 5.83214 4.2705
244 2 6.92386 1.4526 2.14102
141 2 4.4238 4.25685 3.57312
24 4 4.58297 4.9896 0.539991
142 2 4.25717 2.68923 1.37166
118 2 6.07507 1.08597 3.6376
21 4 5.81098 2.02765 5.2155
242 1 3.31886 0.125647 2.98484
74 3 6.7388 1.24081 6.51601
249 1 -2.18617 6.28165 0.415666
223 2 4.00295 0.260936 1.99572
55 3 1.13623 0.374559 1.18558
228 2 0.621394 6.23791 0.25713
256 2 8.02913 0.472801 3.32455
41 1 0.813964 0.122676 7.21729
178 4 -2.8805 6.12335 14.2799
65 3 -2.33297 5.44002 9.43911
250 2 -1.18378 5.66173 14.9469
60 3 -0.238189 3.27527 8.34134
13 4 0.465122 4.26529 12.1783
63 3 -0.416488 3.07241 12.7325
66 3 -0.326397 5.27898 11.2569
14 4 -0.971711 6.25786 10.1991
57 3 0.302595 1.49735 9.94067
76 3 6.29977 0.882919 11.581
136 2 3.20451 0.161378 11.731
75 3 5.55486 3.14885 10.5015
8 4 1.84564 2.03478 10.7497
64 3 1.67338 3.60193 11.5564
73 3 3.18237 1.98553 9.91673
114 2 1.12 5.22517 13.5487
245 1 2.52793 2.09875 15.07
247 2 2.38018 2.70723 14.1151
227 3 3.09939 5.59402 15.5578
138 2 2.34921 1.25028 13.2198
226 4 1.81816 6.20925 14.8993
42 1 2.23596 0.717939 12.0587
248 2 2.98468 1.08808 14.8629
20 4 4.57886 2.3392 9.32171
124 2 3.83957 4.8251 11.6111
117 2 5.23747 0.807907 8.85906
135 2 0.408843 0.710692 8.07387
5 4 0.862895 1.49179 15.8318
220 4 -1.73184 12.5504 1.20828
265 2 -4.25588 11.9601 3.64496
47 1 1.70015 10.1113 1.47521
266 2 -1.46416 6.5949 1.17898
91 3 -1.77183 9.26501 7.9789
133 2 -6.37518 12.2741 7.51951
16 4 -2.66034 8.16128 7.17028
17 4 -4.02401 10.4236 5.79796
70 3 -3.64111 8.93964 5.93944
90 3 -3.10491 10.9652 4.61035
115 2 -3.567 11.3424 7.14095
31 4 -1.83923 10.455 3.55787
152 2 -2.924 8.98636 1.76018
48 1 -2.55325 8.81674 2.82871
153 2 -3.46702 8.61353 3.48955
69 3 -5.66773 10.6679 5.58528
1 4 -6.33091 11.8044 2.06835
3 3 -5.4891 10.7473 1.05609
68 3 -1.72761 6.90554 6.45316
89 3 -1.71208 11.3431 2.19317
125 2 1.54996 10.5297 0.416011
151 2 -1.83693 8.01743 2.97446
93 3 -0.554551 10.0693 4.43315
94 3 -0.00394632 11.4884 6.64076
271 2 -1.01426 8.93761 1.58787
19 4 -0.76855 12.6595 7.39186
30 4 0.638831 8.54888 1.35721
33 4 0.472322 10.2506 5.79651
87 3 1.30278 7.73674 2.61234
149 2 0.589931 8.79397 6.97874
272 2 1.12089 10.7237 2.28034
147 2 1.97253 6.9865 6.18683
46 1 1.90731 7.71311 7.04918
148 2 2.85691 8.3355 7.37351
79 3 -0.365531 6.42661 4.25615
160 2 -0.369199 10.2397 14.4935
95 3 2.32897 7.52546 12.2533
71 3 -2.86551 7.09373 13.0694
92 3 -2.47985 11.9336 8.28042
128 2 0.467773 10.1387 12.84
34 4 1.95741 9.53395 12.1087
67 3 -3.82419 7.45208 8.31353
98 3 -3.78166 9.91713 14.6695
35 4 -2.56516 10.1838 13.7025
96 3 -2.88587 9.57019 11.8148
127 2 -2.44861 10.2215 10.4589
15 4 -5.31972 9.89328 15.4022
139 2 -5.73261 10.6871 13.1007
18 4 -2.87885 7.99286 11.7256
162 2 -1.33869 8.8337 15.2548
97 3 -2.04647 11.6471 13.5308
50 1 0.755183 9.9595 10.9007
32 4 -1.78345 10.5656 8.85586
83 3 0.242545 6.56726 9.02868
22 4 -1.10561 12.4984 12.5403
88 3 0.739142 7.72921 15.6751
126 2 -0.127247 10.8812 9.48508
161 2 -0.391262 8.60757 13.6447
51 1 -0.992379 9.3319 14.3401
120 2 -0.0213598 11.449 11.5654
72 3 -1.45455 7.58424 10.8181
159 2 0.0565492 9.09872 10.7387
29 4 3.20146 6.83286 11.1507
86 3 2.82626 7.10175 9.66982
27 4 1.66505 6.6193 8.48181
229 2 2.21019 7.49461 13.8015
198 2 -0.485104 12.199 15.8119
158 2 1.56024 10.1466 9.97679
195 2 -3.12956 12.3335 15.445
137 2 -6.89184 12.6248 11.9854
193 2 -3.32556 7.49647 15.7777
270 2 6.53868 3.76956 4.93175
224 2 7.53056 2.9463 3.00523
171 2 7.5888 4.12002 7.11031
231 1 12.5781 2.33353 0.232241
119 2 9.30076 1.63955 4.07185
254 1 9.11409 0.656134 3.55228
255 2 9.63796 0.660367 2.48294
169 2 8.52999 4.63693 5.48469
54 1 8.43077 4.78848 6.56368
39 4 10.1134 3.85931 7.06043
273 2 9.37274 1.21539 1.24961
184 1 9.41649 0.612108 0.234125
129 2 10.976 1.11249 4.15822
170 2 8.47447 6.00536 6.89579
4 4 14.1802 2.00951 3.82654
37 4 11.6878 2.06273 5.40939
101 3 13.0139 3.09481 4.78017
102 3 12.0488 1.15054 6.58034
106 3 10.4418 3.0251 5.7029
232 3 13.2235 1.06274 2.81802
56 3 15.0879 1.13232 4.87719
230 4 12.6402 0.805654 1.38294
207 4 12.5433 0.475328 7.93133
234 2 12.3373 3.22152 0.9833
233 2 10.9609 1.29547 1.23016
107 3 11.265 4.97968 7.42017
103 3 5.59038 6.28124 1.56138
267 2 12.5438 5.48222 0.80283
260 2 7.14843 5.48825 7.90255
99 3 8.12635 0.627452 8.6475
258 1 6.39957 5.87875 8.75172
261 2 6.14037 4.98953 9.41661
11 4 11.6912 5.83775 8.77985
100 3 8.31088 2.53674 10.5433
121 2 6.92283 3.36318 12.7897
179 4 7.09643 3.97178 14.4877
188 3 7.94961 2.96636 15.2893
183 1 8.05822 5.62206 14.4533
194 2 7.75462 5.29998 10.1714
196 2 7.8783 5.99643 13.3912
145 2 5.4312 6.16988 10.7855
77 3 5.57727 4.27314 15.1025
191 3 10.3841 5.581 9.87115
6 4 14.4423 2.37509 9.35489
36 4 9.03584 1.78647 9.33016
180 4 8.93676 1.61377 14.5293
192 3 9.58126 4.66299 12.3048
187 3 8.04112 0.682847 13.582
182 4 9.26445 5.58056 10.9557
144 2 9.13593 5.45224 14.7093
164 2 10.1858 1.21567 11.3526
45 1 4.62272 6.02435 11.6226
105 3 9.70503 2.78939 8.25722
52 1 10.5235 0.849033 10.3132
259 2 11.6879 2.33223 15.136
189 3 10.5366 2.43723 13.7285
200 2 12.408 2.34144 11.757
197 2 7.40948 6.12275 15.2524
235 2 13.5223 2.19858 15.5896
181 4 10.7989 3.86022 13.0018
190 3 11.71 4.78378 14.1483
172 4 14.5129 1.54252 13.1566
174 2 12.662 1.65136 13.6304
175 2 12.2148 0.676404 11.4307
177 2 14.6351 0.349626 11.5579
185 1 11.9599 3.49783 11.5581
201 2 12.7715 4.32971 11.8569
202 2 11.555 3.63821 10.5236
263 3 13.2106 1.50508 8.92287
173 1 13.0935 0.525114 12.2667
165 2 11.471 1.3757 10.0482
262 3 15.3536 0.833695 14.2801
23 4 6.81708 2.52891 11.2657
122 2 5.43877 6.28319 8.27799
110 2 13.7672 3.2394 10.6739
146 2 4.99658 6.36233 12.656
210 1 8.72941 7.83622 7.6923
257 2 1.28904 12.3469 4.177
213 2 9.53299 8.28663 4.84944
49 1 2.19185 10.7282 5.18437
150 2 2.91003 9.85806 1.73765
154 2 2.29365 11.6907 5.91834
155 2 2.41034 10.8963 4.09688
253 2 10.3393 8.00912 0.935837
166 2 3.53712 8.06009 1.93164
156 2 2.74477 9.76693 5.63108
104 3 4.74124 6.68064 4.17871
240 2 4.03658 9.11103 0.542562
238 3 4.66948 11.9158 0.747334
239 2 6.54445 10.0623 1.96482
38 4 5.11147 7.3569 2.60373
167 2 6.34234 8.73191 2.98206
168 2 7.76988 7.63305 5.07506
208 4 6.64114 11.2224 7.0612
211 3 6.87365 10.5212 5.67217
212 3 5.24104 11.7432 7.51549
241 2 4.28525 10.0382 2.93506
237 1 4.79966 9.36656 2.22783
236 4 5.31702 10.4461 0.668832
216 2 8.64937 7.93687 6.47919
130 2 8.3664 8.21354 3.39303
53 1 8.44588 8.31842 4.47279
2 3 8.37734 11.048 3.30747
206 4 8.29197 10.2254 4.68559
274 2 9.78494 7.67077 8.01793
134 2 6.07696 8.96767 7.81245
268 2 8.58522 8.00651 0.162457
199 2 2.03856 12.6697 15.6865
203 2 9.48385 8.20735 10.5514
186 1 9.15055 7.45442 11.3737
123 2 5.72172 10.1353 9.17403
108 3 3.22715 10.3402 12.3798
176 2 4.31221 12.3592 13.8867
218 2 7.92881 7.07517 8.09813
252 2 9.81765 7.42262 14.8707
204 2 9.5953 7.58293 12.4235
43 1 8.92874 10.6389 13.9973
40 4 4.58971 11.0109 12.7166
140 2 8.34734 11.597 14.1913
217 2 7.81622 10.499 8.46693
209 1 6.59039 9.54597 8.70084
157 2 7.01096 8.75877 9.43809
131 2 5.23942 11.6066 11.1603
251 1 9.51946 8.08132 15.7227
269 2 8.26381 9.75552 13.8495
264 2 5.92106 10.1627 14.7954
205 2 8.00439 7.50071 11.468
109 3 6.14217 9.85836 13.4102
132 2 5.60374 9.04208 13.1662
116 2 11.0776 7.64247 10.856
214 2 2.88853 12.5619 8.64591
215 2 6.86768 6.73467 9.43516
163 2 2.40833 12.344 10.3122
219 2 8.55279 8.82743 8.13802
ITEM: TIMESTEP
100
ITEM: NUMBER OF ATOMS
274
ITEM: BOX BOUNDS xy xz yz pp pp pp
-7.6527824756834022e+00 1.6107556389490025e+01 -8.2040415267999762e+00
1.1575009082220096e-01 1.2717076734416871e+01 -1.6008455939348082e-01
1.5947396079707854e-01 1.5916026039202713e+01 -9.1731747610414409e-03
ITEM: ATOMS id type x y z
225 2 5.60783 2.93458 2.80994
111 2 2.29511 0.329954 4.44604
9 4 -0.0511442 3.90967 1.72881
62 3 0.14982 5.06851 6.35963
112 2 -1.55697 4.70059 1.23803
12 4 -0.954673 5.83888 5.54088
58 3 -0.340628 3.0039 2.99078
242 1 3.19159 0.432082 2.69827
80 3 4.40859 3.27387 8.02205
7 4 1.14286 1.06585 5.65922
10 4 0.689189 3.9613 7.27969
59 3 0.501735 3.11091 0.484196
61 3 1.82432 2.54979 6.13628
78 3 0.978071 5.09447 2.12976
28 4 3.75519 5.63455 4.52394
246 2 3.30289 2.57392 0.243179
143 2 2.87589 3.76349 1.3889
26 4 3.60059 3.60458 6.73056
44 1 4.01279 3.68724 1.76893
221 1 6.48954 2.46286 3.3659
243 2 2.61831 1.37609 2.94322
222 3 5.33424 0.581962 0.618972
113 2 -2.02434 4.56269 5.25973
85 3 3.97444 4.98199 5.9375
81 3 4.62328 2.3624 5.61626
25 4 1.00291 6.30899 3.27986
84 3 2.27661 6.16803 4.24837
244 2 7.21834 1.47339 1.83571
141 2 4.04031 4.24865 3.32019
24 4 4.69095 4.99707 0.607825
142 2 4.37844 2.62757 1.55912
118 2 6.16147 0.850175 3.60902
21 4 6.05473 2.02934 5.24836
256 2 8.10126 0.434906 3.51115
74 3 6.99684 1.3035 6.272
249 1 -2.43482 6.31728 0.611927
223 2 4.02021 0.617889 1.93059
55 3 1.07514 0.433058 1.33075
228 2 0.71742 6.28372 0.315425
79 3 -0.555816 6.3747 4.0949
178 4 -3.00546 6.06072 14.3658
65 3 -2.33712 5.28492 9.45506
250 2 -1.41301 5.5575 15.2614
60 3 -0.225126 3.18116 8.2829
13 4 0.407909 4.18638 12.2283
63 3 -0.52924 3.0301 12.7618
66 3 -0.355214 5.14975 11.253
14 4 -1.13232 6.12463 10.1528
57 3 0.362216 1.33933 10.1148
76 3 6.43367 0.978919 11.5102
5 4 0.820961 1.62359 15.7853
75 3 5.51791 3.17313 10.3075
8 4 1.83301 1.95082 10.8099
64 3 1.67743 3.5665 11.6115
73 3 3.12464 1.85691 9.94168
114 2 1.08366 5.19287 13.5706
245 1 2.63455 1.79422 15.1791
247 2 2.501 2.2422 14.0792
227 3 3.1364 5.56404 15.5223
138 2 2.24645 1.01175 13.3066
226 4 1.84379 6.11587 14.9387
42 1 2.13203 0.626238 12.2245
248 2 3.10228 0.714192 15.2138
20 4 4.46776 2.26357 9.24672
124 2 3.8561 4.95297 12.0011
117 2 5.14513 0.766463 8.67013
262 3 -0.00163087 1.03431 14.5282
82 3 1.97956 4.49708 8.05162
23 4 6.68886 2.55419 11.2095
135 2 0.866312 0.36707 8.15069
220 4 -1.55628 12.5293 1.23958
265 2 -4.70027 12.3551 3.56396
148 2 2.79707 8.05112 7.30836
266 2 -2.00263 7.01616 1.4109
91 3 -1.80062 9.35938 7.87559
133 2 -6.1119 11.9805 6.91624
16 4 -2.60153 8.08236 7.07153
17 4 -3.98675 10.3486 5.75705
70 3 -3.66611 8.77676 6.00045
90 3 -3.13038 11.0419 4.62312
115 2 -3.60778 11.2574 7.17351
31 4 -1.84712 10.4876 3.63075
152 2 -2.57893 8.93904 1.65783
48 1 -2.3763 8.82991 2.7781
153 2 -3.35186 8.67471 3.41209
69 3 -5.58734 10.4659 5.39848
1 4 -6.37516 11.8131 2.04084
3 3 -5.74637 10.8321 0.875859
68 3 -1.66662 6.98068 6.35915
89 3 -1.72226 11.4846 2.40209
41 1 -7.18963 12.5371 7.09888
151 2 -1.51805 8.00893 3.03388
93 3 -0.528218 10.2713 4.45176
94 3 0.117742 11.5635 6.69385
271 2 -0.936961 8.9459 1.45796
19 4 -0.691153 12.6704 7.4318
30 4 0.799557 8.69344 1.3339
33 4 0.519674 10.3567 5.78956
87 3 1.19802 7.73197 2.53387
149 2 0.564734 8.7937 6.92857
272 2 1.3024 10.842 2.10222
147 2 1.80906 6.91649 6.16505
46 1 1.78612 7.58364 7.04183
160 2 -0.660965 9.61529 15.1607
95 3 2.11006 7.50646 12.3625
71 3 -2.77263 7.00182 13.1191
92 3 -2.46376 11.9362 8.24351
128 2 0.535288 10.2266 12.9462
34 4 1.93547 9.44489 12.2736
67 3 -3.53373 7.43062 8.32786
98 3 -3.88407 10.0625 14.9853
35 4 -2.63339 10.1074 13.7902
96 3 -3.01598 9.49202 11.905
127 2 -2.59351 10.1081 10.4367
15 4 -5.3947 9.86551 15.4304
139 2 -5.5119 9.83188 13.0719
18 4 -2.82095 7.88272 11.7485
162 2 -1.96974 8.36805 15.2887
97 3 -1.96504 11.6263 13.5396
50 1 0.761434 9.9436 11.0418
32 4 -1.84213 10.551 8.90418
83 3 0.226623 6.72833 9.07473
22 4 -1.04988 12.6248 12.6331
88 3 0.855785 7.77689 15.6632
126 2 -0.237416 10.6967 9.55659
161 2 -0.896698 8.35368 13.7475
51 1 -1.38992 9.01795 14.5638
120 2 -0.0673441 11.4647 11.7649
72 3 -1.49515 7.578 10.7746
159 2 0.0585121 8.991 10.8196
29 4 2.96243 6.72117 11.3227
86 3 2.81095 6.96705 9.67642
27 4 1.63762 6.48679 8.5381
229 2 2.02046 7.61608 14.1487
198 2 -0.39712 12.0462 15.7518
158 2 1.55141 10.1307 10.1474
195 2 -3.08063 12.3351 15.7108
137 2 -7.05245 12.6111 12.0705
193 2 -3.78034 7.11529 15.7593
140 2 -6.01374 11.564 13.5463
136 2 -5.17864 12.5829 11.8694
270 2 6.96566 3.55783 4.74464
224 2 7.4957 2.7007 2.9681
171 2 7.56713 4.4102 6.48246
231 1 12.5201 2.26043 0.246495
119 2 9.39807 1.48553 4.37331
254 1 9.23894 0.601195 3.59824
255 2 9.73175 0.894272 2.61897
169 2 8.72341 4.99706 5.19259
54 1 8.49735 4.97588 6.34426
39 4 9.96992 3.99291 6.9476
273 2 9.2623 0.959763 1.31673
184 1 9.28187 0.445771 0.295066
129 2 11.1823 1.02379 3.96994
170 2 8.52407 6.05753 6.8014
4 4 14.267 1.9612 3.87208
37 4 11.7221 2.11206 5.20088
101 3 12.8541 3.05702 4.63439
102 3 12.1534 1.29596 6.50629
106 3 10.3239 3.08122 5.53802
232 3 13.1821 1.09647 2.83846
56 3 15.1235 1.18415 4.91684
230 4 12.5083 0.814676 1.37995
207 4 12.5997 0.606796 7.8197
234 2 12.4325 3.09989 0.977693
233 2 10.8209 1.24424 1.22693
107 3 11.2376 4.97445 7.38389
103 3 5.44012 6.24964 1.49341
260 2 7.17219 5.33756 7.88827
267 2 12.3951 5.46832 1.10839
99 3 8.3492 0.591558 8.64523
258 1 6.42873 5.72056 8.73137
261 2 6.12817 4.77779 9.32002
11 4 11.6389 5.76437 8.73931
100 3 8.06893 2.68745 10.3495
121 2 6.8601 3.31983 12.8654
179 4 7.01345 4.02085 14.5535
188 3 7.95873 3.00983 15.3196
183 1 7.9798 5.56201 14.793
194 2 7.71841 5.13931 10.1293
196 2 7.73362 5.88128 13.5407
145 2 5.36194 6.34384 11.2328
77 3 5.5614 4.37167 15.2771
191 3 10.3441 5.77024 9.82061
6 4 14.5915 2.24403 9.40547
36 4 9.02963 1.9114 9.29703
180 4 8.9106 1.66973 14.7066
192 3 9.58184 4.60164 12.1428
187 3 8.10381 0.911431 13.5139
182 4 9.18842 5.55329 10.8808
144 2 9.03445 5.21671 14.9948
164 2 10.1592 1.51908 11.2783
45 1 4.50802 6.27875 11.974
105 3 9.6329 2.98045 8.22067
52 1 10.5137 1.01163 10.2795
259 2 11.6045 2.27307 15.0644
189 3 10.4788 2.35906 13.8103
200 2 12.3936 2.25017 11.8265
197 2 7.49904 6.21144 15.5679
235 2 13.4662 2.19068 15.7262
181 4 10.7323 3.78516 12.9848
190 3 11.6127 4.755 13.9877
172 4 14.5486 1.55758 13.2264
174 2 12.7292 1.47593 13.7575
175 2 12.0538 0.618687 11.6324
177 2 14.5428 0.448649 11.7233
185 1 12.051 3.35195 11.6397
201 2 12.8245 4.05986 12.0071
202 2 11.712 3.57189 10.6072
263 3 13.4228 1.41264 8.85458
173 1 12.9549 0.407114 12.3841
165 2 11.4612 1.46571 9.85349
122 2 5.51721 6.08591 8.24341
110 2 13.817 3.14856 10.6789
210 1 8.60696 7.95073 7.65237
257 2 1.43822 12.2302 4.05121
213 2 9.27857 7.83025 5.01471
49 1 2.15083 10.5075 4.95827
150 2 3.01384 9.94698 1.67001
154 2 2.58496 11.5513 5.21671
155 2 2.14596 10.1759 3.88878
253 2 10.1009 7.68903 0.930963
166 2 3.64946 8.19283 1.93511
156 2 2.6733 9.65407 5.73612
104 3 4.85257 6.84119 4.25318
240 2 4.11334 9.0384 0.499776
238 3 4.46402 11.9589 0.69912
239 2 6.54594 10.2423 1.72578
38 4 5.17001 7.33562 2.6198
167 2 6.42537 8.71343 2.62408
168 2 7.3301 7.89725 4.69653
208 4 6.69682 11.0855 7.15702
211 3 7.09106 10.3463 5.88524
212 3 5.26319 11.9408 7.45864
241 2 4.53842 10.2155 2.95693
237 1 4.89223 9.4286 2.18536
236 4 5.20108 10.5076 0.552057
216 2 8.55647 8.1312 6.45272
130 2 8.65194 8.34297 3.2495
53 1 8.41576 8.26755 4.43682
2 3 8.27517 10.9076 3.28586
206 4 8.44047 10.1907 4.67385
274 2 9.7281 7.58116 7.85183
134 2 6.48493 8.77762 7.85607
125 2 1.83106 10.6394 0.304409
47 1 1.90227 10.2123 1.34312
218 2 7.82397 7.16701 7.98809
163 2 2.35362 12.4635 10.3448
203 2 9.55249 7.97837 10.513
186 1 9.09962 7.39119 11.3432
123 2 5.3529 10.0404 8.7453
108 3 3.3072 10.3035 12.4557
176 2 4.204 12.3366 13.9597
215 2 6.81949 6.54595 9.38511
252 2 9.81687 7.39341 14.9007
204 2 9.51287 7.72984 12.3219
43 1 9.19462 10.4759 13.7665
40 4 4.71197 10.9987 12.6661
219 2 8.41514 8.93055 8.20908
217 2 7.68905 10.5908 8.67054
209 1 6.37242 9.49556 8.71431
157 2 6.46579 8.868 9.5977
131 2 5.30395 11.6823 11.0981
251 1 9.46743 8.02361 15.7571
269 2 8.01148 10.2058 13.7195
264 2 5.89348 10.1613 14.7857
205 2 7.87472 7.41006 11.2844
109 3 6.37722 9.98922 13.4117
132 2 5.92425 9.16694 13.0287
268 2 8.36235 8.01996 15.8842
214 2 2.98222 12.6655 8.71134
146 2 4.62655 6.88734 12.9844
116 2 11.1053 7.49394 11.0384
199 2 1.99105 12.6225 15.7587
ITEM: TIMESTEP
200
ITEM: NUMBER OF ATOMS
274
ITEM: BOX BOUNDS xy xz yz pp pp pp
-7.6527824756834022e+00 1.6107556389490025e+01 -8.2040415267999762e+00
1.1575009082220096e-01 1.2717076734416871e+01 -1.6008455939348082e-01
1.5947396079707854e-01 1.5916026039202713e+01 -9.1731747610414409e-03
ITEM: ATOMS id type x y z
225 2 5.73476 2.93199 2.9356
111 2 2.32977 0.307296 4.39514
9 4 0.0870922 3.92181 1.75919
62 3 -0.0535701 4.84867 6.22865
112 2 -1.42896 4.64495 1.23158
12 4 -1.04851 5.7253 5.45069
58 3 -0.195317 3.01454 3.01511
242 1 3.27851 0.196805 2.6972
256 2 7.98765 0.363193 3.93561
7 4 1.13306 0.884716 5.54651
10 4 0.786632 4.0062 7.20645
59 3 0.508466 3.04543 0.536065
61 3 1.83659 2.61367 6.13877
78 3 1.08507 5.18603 2.10149
28 4 3.9126 5.63018 4.58373
246 2 3.40452 2.33347 0.377913
143 2 3.08901 3.52904 1.90204
26 4 3.65737 3.49915 6.6432
44 1 4.22672 3.68962 1.69866
221 1 6.56492 2.34058 3.55135
243 2 2.82354 1.1541 2.97511
222 3 5.2353 0.610202 0.456542
82 3 2.04217 4.79096 7.91264
85 3 4.02266 5.17638 6.07545
81 3 4.62027 2.49966 5.6045
25 4 1.06142 6.25659 3.37211
84 3 2.37785 5.99104 4.266
244 2 7.19441 1.4822 1.89524
141 2 4.38997 4.35856 3.44898
24 4 4.5492 5.02745 0.587411
142 2 4.93797 2.83986 1.25571
118 2 6.23612 1.04539 3.45082
21 4 6.10644 2.14245 5.43686
79 3 -0.397189 6.14142 4.07258
74 3 6.90585 1.16407 6.31444
249 1 -2.48799 6.19494 0.656751
223 2 4.0783 0.351372 1.81533
55 3 0.724855 0.49993 1.30445
228 2 0.683322 6.30393 0.345242
135 2 0.904232 0.864719 7.85634
178 4 -3.09217 6.04525 14.3868
65 3 -2.31979 5.37767 9.42524
250 2 -1.52526 5.45058 15.2132
60 3 -0.123275 3.2856 8.22828
13 4 0.345427 4.14069 12.2735
63 3 -0.713647 3.12857 12.8944
66 3 -0.277678 5.15331 11.2975
14 4 -1.05799 6.12011 10.1534
57 3 0.295067 1.59582 9.95184
76 3 6.21938 0.829915 11.6869
136 2 3.19264 0.143678 11.9684
75 3 5.46374 3.15926 10.4945
8 4 1.8454 1.90898 10.9142
64 3 1.64165 3.33868 11.7619
73 3 3.22493 1.69134 9.84786
114 2 1.01425 5.10376 13.6091
245 1 2.59071 1.84897 15.2935
247 2 2.59376 2.49128 14.4083
227 3 3.0114 5.46254 15.5577
138 2 2.44752 1.20415 13.3936
226 4 1.77781 6.06841 14.8875
42 1 2.27133 0.696927 12.2816
248 2 3.04295 0.815469 15.1022
20 4 4.55579 2.26556 9.29231
124 2 3.96297 4.98141 12.2909
117 2 5.36997 0.862493 8.73806
5 4 0.736457 1.57723 15.7778
23 4 6.62122 2.43633 11.3746
6 4 -0.834783 2.40267 9.27313
80 3 4.25436 3.16458 8.0474
220 4 -1.60186 12.6605 1.12235
265 2 -4.48745 12.2774 3.61986
148 2 2.91112 8.34621 7.59349
266 2 -1.99203 6.85156 1.37163
272 2 1.1753 10.9598 1.90619
133 2 -6.34891 11.9555 7.17976
16 4 -2.62527 8.13218 7.21003
17 4 -3.94205 10.3563 5.78038
70 3 -3.59697 8.90048 6.24385
90 3 -3.09677 10.8402 4.5568
115 2 -3.60898 11.4606 7.03823
31 4 -1.81864 10.4126 3.62295
152 2 -2.51792 8.98247 1.67513
48 1 -2.24967 8.76228 2.75063
153 2 -3.07875 8.19942 3.30513
69 3 -5.57733 10.5059 5.42771
1 4 -6.48036 11.9491 1.96726
3 3 -5.97608 10.9965 0.627271
68 3 -1.66862 7.01051 6.2037
89 3 -1.63636 11.5717 2.34966
41 1 -7.28007 12.6046 7.11586
151 2 -1.18269 8.22444 2.94967
93 3 -0.466966 10.0529 4.58377
94 3 0.400972 11.4491 6.69198
271 2 -0.818346 9.20388 1.48259
19 4 -0.643502 12.6063 7.432
30 4 0.848355 8.70122 1.2364
33 4 0.656001 10.0967 5.86428
87 3 1.21061 7.88862 2.63307
149 2 0.506296 8.53647 6.82485
46 1 2.04692 7.76309 7.24499
147 2 2.42742 7.03301 6.40077
160 2 -0.131507 9.98361 14.7105
95 3 1.92259 7.41488 12.4524
71 3 -2.80797 7.17854 13.2606
92 3 -2.38922 11.9815 8.24221
128 2 0.635689 10.0282 13.097
34 4 1.90014 9.34795 12.1408
67 3 -3.68714 7.36801 8.22922
98 3 -3.91453 9.96183 15.0024
35 4 -2.54551 10.1891 13.7506
96 3 -2.87945 9.48565 11.9395
127 2 -2.47304 10.3104 10.6052
15 4 -5.43555 9.95557 15.3424
91 3 -1.77268 9.26799 8.14286
18 4 -2.90469 7.90437 11.84
162 2 -1.57584 8.83585 15.4035
97 3 -2.00877 11.6705 13.5315
50 1 0.573423 9.96478 11.1418
32 4 -1.77153 10.648 8.94668
83 3 0.083109 6.53886 9.01648
22 4 -1.02246 12.5461 12.7064
88 3 0.958173 7.795 15.678
126 2 -0.252068 11.0545 9.72262
161 2 -0.817306 8.49147 13.7152
51 1 -1.08384 9.33003 14.5125
120 2 0.192734 11.569 11.6875
72 3 -1.7599 7.29479 10.9561
159 2 -0.272324 9.18293 11.208
29 4 2.77863 6.51988 11.4646
86 3 2.69435 6.76561 9.87775
27 4 1.59803 6.55486 8.57449
229 2 2.20844 7.59846 14.1546
198 2 -0.438507 12.249 15.7031
158 2 1.24064 9.8185 10.0804
195 2 -3.25378 12.3511 15.6276
137 2 -6.8703 12.6481 12.2441
193 2 -3.87064 7.09922 15.854
140 2 -5.70343 11.2251 13.1509
270 2 7.03478 3.57402 5.03274
224 2 7.59541 2.56338 3.18607
171 2 7.37226 4.53932 6.52058
231 1 12.548 2.39908 0.301376
119 2 9.33223 1.49762 4.499
254 1 9.05536 0.585836 3.891
255 2 9.35566 0.848678 2.75514
169 2 8.55899 4.98292 5.12118
54 1 8.41339 4.96354 6.23696
39 4 9.88152 3.90734 6.91571
273 2 9.29488 1.18227 1.42589
184 1 9.43625 0.678494 0.337338
129 2 11.0155 1.01769 4.06456
170 2 8.58299 6.00283 6.68544
4 4 14.2205 1.96436 3.73185
37 4 11.6637 2.20617 5.14536
101 3 12.8345 3.12922 4.56129
102 3 12.1188 1.43005 6.41606
106 3 10.2652 3.07647 5.48973
232 3 13.2951 1.14363 2.76487
56 3 15.122 1.15979 4.86809
230 4 12.6949 0.856439 1.34976
207 4 12.5816 0.638926 7.73933
234 2 12.3329 3.29012 0.935467
233 2 10.9518 1.28757 1.38574
107 3 11.1498 4.9154 7.27252
113 2 13.0401 4.71881 4.96515
260 2 7.38575 5.39942 7.96232
267 2 12.5263 5.26346 1.12708
99 3 8.30064 0.640097 8.70556
258 1 6.5635 5.66756 8.79372
261 2 6.19879 4.68039 9.23218
11 4 11.7112 5.76076 8.752
100 3 7.99697 2.50227 10.505
121 2 6.84674 3.25194 12.956
179 4 7.14369 4.06389 14.5469
188 3 8.02343 3.03827 15.3167
183 1 7.83153 5.78493 14.7713
194 2 7.85427 4.87284 10.0946
196 2 8.0067 5.90144 13.5473
110 2 13.6859 3.31196 10.4295
77 3 5.63993 4.23238 15.1483
191 3 10.4613 5.66833 9.77493
262 3 15.3697 0.98419 14.3914
36 4 8.94452 1.96818 9.27006
180 4 8.97508 1.65251 14.6148
192 3 9.62815 4.5154 12.1596
187 3 8.12229 0.784206 13.6614
182 4 9.25285 5.45662 10.8054
144 2 8.74981 5.56869 15.4406
164 2 10.4166 1.77167 11.1519
214 2 11.185 0.139922 8.58464
105 3 9.3318 3.01262 8.08916
52 1 10.5583 1.27209 10.1753
259 2 11.7133 2.35234 15.1344
189 3 10.4755 2.31885 13.7741
200 2 12.4114 2.39134 11.8093
163 2 10.3766 0.139224 10.2805
235 2 13.4889 2.35315 15.6531
181 4 10.7828 3.79253 13.0442
190 3 11.4 4.87796 13.993
172 4 14.4401 1.61763 13.2605
174 2 12.5789 1.45824 13.805
175 2 12.0978 0.707573 11.5131
177 2 14.5038 0.442816 11.707
185 1 12.0741 3.44091 11.5802
201 2 12.8435 4.22498 11.9061
202 2 11.5866 3.57608 10.5323
263 3 13.4673 1.44516 8.73917
173 1 12.9 0.485871 12.3209
165 2 11.5868 1.55559 9.71968
122 2 5.70081 6.15 8.24317
215 2 6.94801 6.35993 9.52973
197 2 6.95159 6.38362 15.2886
210 1 8.66781 7.89238 7.67214
257 2 1.43058 12.1637 4.28968
213 2 9.60378 7.98741 4.61473
49 1 2.25071 10.4619 5.01974
150 2 3.0039 10.0777 1.7446
154 2 2.80082 11.306 5.54587
155 2 2.07631 10.7384 3.86924
253 2 10.121 8.15303 0.993535
166 2 3.48948 8.50393 2.22752
156 2 2.68132 9.32103 5.18987
104 3 4.8688 6.84545 4.12414
240 2 4.11478 9.20619 0.628367
238 3 4.65643 11.9655 0.61082
239 2 6.59443 10.3704 1.83235
38 4 5.09745 7.56112 2.61677
167 2 6.45082 8.85052 2.73643
168 2 7.77275 7.47851 4.94816
208 4 6.6078 11.1343 7.15335
211 3 7.2598 10.2474 5.867
212 3 5.15615 11.8744 7.33135
241 2 4.61321 10.4428 3.04805
237 1 4.87227 9.65871 2.33688
236 4 5.33987 10.5203 0.605535
216 2 8.64015 7.98156 6.44091
130 2 8.18102 8.3498 3.27006
53 1 8.47924 8.13278 4.38647
2 3 8.35466 11.0724 3.15376
206 4 8.47506 10.0206 4.79557
274 2 9.67668 7.6277 7.99426
134 2 6.63189 8.85114 7.90937
103 3 5.32016 6.58976 1.35711
47 1 1.86215 10.2692 1.28683
125 2 1.8893 10.5063 0.194031
268 2 8.30083 8.27055 0.193444
145 2 5.02429 6.67516 11.0711
203 2 9.28667 8.13259 10.8409
186 1 9.04637 7.20353 11.5015
123 2 5.26217 9.95792 8.77799
108 3 3.32243 10.1749 12.3712
176 2 4.53027 12.2233 13.9305
116 2 10.958 7.46966 11.1391
252 2 9.53684 7.49104 14.9333
204 2 9.59644 7.09053 12.5464
146 2 4.42938 7.19012 12.9437
40 4 4.71203 10.982 12.5325
219 2 8.40753 8.85255 8.15743
217 2 7.46561 10.9236 8.89952
209 1 6.35623 9.60816 8.79286
157 2 6.46613 9.12211 9.83878
131 2 4.99423 11.7701 10.9697
251 1 9.27843 8.26849 15.7401
269 2 8.15153 10.2786 13.4678
264 2 5.99616 10.1746 14.7466
205 2 7.86518 7.05982 11.6167
109 3 6.38926 10.1215 13.3276
132 2 6.12517 9.24814 12.9375
43 1 9.33527 10.2383 13.4659
45 1 4.38855 6.42767 12.05
139 2 9.71829 9.29345 12.9425
218 2 7.86256 7.14592 8.09711
199 2 2.08347 12.7036 15.8395
ITEM: TIMESTEP
300
ITEM: NUMBER OF ATOMS
274
ITEM: BOX BOUNDS xy xz yz pp pp pp
-7.6527824756834022e+00 1.6107556389490025e+01 -8.2040415267999762e+00
1.1575009082220096e-01 1.2717076734416871e+01 -1.6008455939348082e-01
1.5947396079707854e-01 1.5916026039202713e+01 -9.1731747610414409e-03
ITEM: ATOMS id type x y z
225 2 5.5849 2.90512 2.89921
111 2 2.34463 0.3539 4.52817
9 4 0.0653764 3.90023 1.73219
62 3 -0.190672 4.83002 6.2515
112 2 -1.48846 4.65769 1.35303
12 4 -1.09005 5.79082 5.40995
58 3 -0.141883 3.07673 3.06908
228 2 0.64722 6.19559 0.418636
256 2 8.02977 0.353286 3.70496
7 4 1.10328 0.981962 5.5621
10 4 0.75627 3.96541 7.08732
59 3 0.445424 3.11708 0.41763
61 3 1.68168 2.71033 6.05788
78 3 1.16208 5.04027 2.13798
28 4 3.9666 5.5925 4.58562
246 2 3.35821 2.56165 0.338731
143 2 3.08937 3.73195 1.61287
26 4 3.68056 3.62167 6.70657
44 1 4.20152 3.75365 1.73468
221 1 6.41378 2.35394 3.50215
243 2 2.69532 1.1668 3.02308
222 3 5.0851 0.366269 0.597185
82 3 2.08669 4.85404 7.52035
85 3 4.40742 5.17531 6.04726
81 3 4.62409 2.59625 5.64362
25 4 1.19063 6.2813 3.35163
84 3 2.40783 5.80426 4.34528
244 2 6.99977 1.60134 1.80956
141 2 4.49191 4.355 3.34956
24 4 4.66514 5.10092 0.560029
142 2 4.65833 2.76371 1.47986
118 2 6.10401 0.855026 3.75232
21 4 6.10608 2.10829 5.43818
79 3 -0.33341 6.34334 4.18485
74 3 6.90158 1.06807 6.41627
249 1 -2.25254 6.35303 0.747422
223 2 4.006 0.193946 1.86227
55 3 0.906006 0.497077 1.33391
113 2 -2.23822 4.69366 4.80225
178 4 -3.11796 6.2777 14.5324
65 3 -2.21959 5.25416 9.29878
250 2 -1.41498 5.98579 15.3637
60 3 0.0331874 3.2256 8.30724
13 4 0.256341 4.2075 12.241
63 3 -0.748428 3.0855 12.7787
66 3 -0.353926 5.15134 11.1782
14 4 -1.07082 6.06381 10.0682
57 3 0.270052 1.50431 10.1074
76 3 6.29303 0.956568 11.83
80 3 4.33859 3.05811 8.08651
75 3 5.45321 3.03815 10.4862
8 4 1.67187 1.91404 10.9629
64 3 1.56763 3.48134 11.778
73 3 3.08544 1.91993 10.067
114 2 1.02162 5.08677 13.5788
245 1 2.56703 1.93268 15.1823
247 2 2.51387 2.60164 14.2351
227 3 3.15986 5.51886 15.4919
138 2 2.34477 1.08755 13.27
226 4 1.76751 6.01226 14.9903
42 1 2.13984 0.584318 12.2386
248 2 3.05107 0.971626 14.9257
20 4 4.52429 2.18675 9.34895
124 2 3.80738 4.82672 12.2601
117 2 5.15291 0.636471 8.90409
5 4 0.832665 1.58271 15.8397
23 4 6.62174 2.49293 11.3663
6 4 -0.783448 2.36089 9.29767
135 2 0.534771 0.68325 8.04033
220 4 -1.63588 12.5812 1.23398
265 2 -4.6212 12.065 3.56635
193 2 -3.7302 7.15712 0.249595
266 2 -1.68702 6.78297 1.61977
272 2 1.19696 10.9615 1.95862
133 2 -6.42994 12.0605 7.11877
16 4 -2.61097 8.14643 7.23248
17 4 -3.83756 10.4408 5.78959
70 3 -3.4572 8.99312 6.2598
90 3 -3.05202 10.7116 4.46064
115 2 -3.24501 11.5467 6.92792
31 4 -1.80347 10.3393 3.64882
152 2 -2.52257 8.55945 1.58172
48 1 -2.26748 8.69963 2.69677
153 2 -3.15661 8.35271 3.32811
69 3 -5.49398 10.6691 5.60412
1 4 -6.46641 11.7723 1.86642
3 3 -5.86197 11.0158 0.536346
68 3 -1.85725 6.88727 6.30499
89 3 -1.58494 11.4619 2.40106
41 1 -7.45421 12.6872 7.06656
151 2 -1.35374 8.1276 2.95825
93 3 -0.408323 10.1623 4.51968
94 3 0.209673 11.3284 6.67444
271 2 -0.847423 9.13767 1.4001
19 4 -0.699003 12.4638 7.37223
30 4 0.862773 8.73045 1.44635
33 4 0.576005 10.158 5.75618
87 3 1.4126 7.75344 2.74326
149 2 0.846199 8.36289 6.63162
46 1 2.12576 7.96968 7.59879
147 2 3.09173 7.59072 7.02952
242 1 -5.0749 12.7122 2.72567
160 2 -0.269988 9.98629 15.0652
95 3 1.98433 7.51195 12.5904
71 3 -2.87964 7.35504 13.3682
92 3 -2.41548 11.8074 8.36956
128 2 0.578018 10.2874 12.8749
34 4 1.90987 9.33129 12.051
67 3 -3.82512 7.32083 8.37183
98 3 -3.86336 9.88919 14.86
35 4 -2.47639 10.1156 13.8248
96 3 -2.88741 9.46123 12.0458
127 2 -2.65852 10.0711 10.4987
15 4 -5.43313 9.99723 15.1396
91 3 -1.65394 9.1657 8.08141
18 4 -2.89063 7.90164 11.8978
162 2 -1.35664 8.53661 15.0843
97 3 -1.97113 11.6698 13.7317
50 1 0.480355 9.72287 11.0951
32 4 -1.81321 10.4844 8.99406
83 3 0.09327 6.7932 9.12131
22 4 -1.10102 12.4991 12.75
88 3 0.927004 7.6214 15.7255
126 2 -0.283936 10.9291 9.776
161 2 -0.330571 8.87277 13.4815
51 1 -0.869515 9.31561 14.4357
120 2 -0.220251 11.3297 11.5979
72 3 -1.72585 7.35338 10.9874
159 2 -0.189392 8.80589 11.0932
29 4 2.7953 6.48061 11.5723
86 3 2.55712 6.49078 9.97659
27 4 1.55867 6.60835 8.66655
229 2 2.05161 7.626 14.3587
198 2 -0.359264 12.3262 15.7783
158 2 1.22162 9.72694 10.0101
195 2 -3.13538 12.1101 15.706
140 2 -6.0511 11.2807 12.9843
137 2 -7.00315 12.5432 12.2517
148 2 2.28296 8.86228 8.38456
136 2 -5.14009 12.6426 11.8195
270 2 7.12063 3.46263 4.93866