LAMMPS (2 Aug 2023 - Update 2)
  using 1 OpenMP thread(s) per MPI task
Reading data file ...
  triclinic box = (0 0 0) to (15.4861 14.0699 16.771) with tilt (-7.3915 0.9919 1.0308)
WARNING: Triclinic box skew is large. LAMMPS will run inefficiently. (src/domain.cpp:220)
  1 by 2 by 2 MPI processor grid
  reading atoms ...
  274 atoms
Finding 1-2 1-3 1-4 neighbors ...
  special bond factors lj:    0        0        0       
  special bond factors coul:  0        0        0       
     0 = max # of 1-2 neighbors
     0 = max # of 1-3 neighbors
     0 = max # of 1-4 neighbors
     1 = max # of special neighbors
  special bonds CPU = 0.000 seconds
  read_data CPU = 0.007 seconds
WARNING: Van der Waals parameters for element SI indicate inner wall+shielding, but earlier atoms indicate a different van der Waals method. This may cause division-by-zero errors. Keeping van der Waals setting for earlier atoms. (src/REAXFF/reaxff_ffield.cpp:251)
*****Minimization starts.*****

CITE-CITE-CITE-CITE-CITE-CITE-CITE-CITE-CITE-CITE-CITE-CITE-CITE

Your simulation uses code contributions which should be cited:
- pair reaxff command: doi:10.1016/j.parco.2011.08.005
- fix qeq/reaxff command: doi:10.1016/j.parco.2011.08.005
The log file lists these citations in BibTeX format.

CITE-CITE-CITE-CITE-CITE-CITE-CITE-CITE-CITE-CITE-CITE-CITE-CITE

Switching to 'neigh_modify every 1 delay 0 check yes' setting during minimization
WARNING: Fix qeq/reaxff group is not charge neutral, net charge = -8.2 (src/REAXFF/fix_qeq_reaxff.cpp:392)
Neighbor list info ...
  update: every = 1 steps, delay = 0 steps, check = yes
  max neighbors/atom: 2000, page size: 100000
  master list distance cutoff = 12
  ghost atom cutoff = 12
  binsize = 6, bins = 4 3 3
  2 neighbor lists, perpetual/occasional/extra = 2 0 0
  (1) pair reaxff, perpetual
      attributes: half, newton off, ghost
      pair build: half/bin/newtoff/ghost
      stencil: full/ghost/bin/3d
      bin: standard
  (2) fix qeq/reaxff, perpetual, copy from (1)
      attributes: half, newton off
      pair build: copy
      stencil: none
      bin: none
Setting up cg style minimization ...
  Unit style    : real
  Current step  : 0
Per MPI rank memory allocation (min/avg/max) = 129 | 129.5 | 129.8 Mbytes
   Step          Temp          Press         Density         Volume         PotEng         TotEng    
         0   0              120366.14      1.3867102      3654.1976     -22642.034     -22642.034    
        95   0             -8087.5372      1.3867102      3654.1976     -26889.011     -26889.011    
Loop time of 8.66138 on 4 procs for 95 steps with 274 atoms

94.7% CPU use with 4 MPI tasks x 1 OpenMP threads

Minimization stats:
  Stopping criterion = energy tolerance
  Energy initial, next-to-last, final = 
      -22642.033973857  -26889.0105394013  -26889.0106518096
  Force two-norm initial, final = 3974.6545 66.987432
  Force max component initial, final = 534.07164 35.125234
  Final line search alpha, max atom move = 0.0043055204 0.15123241
  Iterations, force evaluations = 95 200

MPI task timing breakdown:
Section |  min time  |  avg time  |  max time  |%varavg| %total
---------------------------------------------------------------
Pair    | 5.3525     | 5.6879     | 6.059      |  12.7 | 65.67
Bond    | 0.0005264  | 0.00054137 | 0.00055957 |   0.0 |  0.01
Neigh   | 0.02107    | 0.02306    | 0.025333   |   1.3 |  0.27
Comm    | 0.8141     | 1.1769     | 1.5043     |  27.2 | 13.59
Output  | 0.023933   | 0.029517   | 0.032453   |   2.0 |  0.34
Modify  | 1.7077     | 1.7097     | 1.712      |   0.2 | 19.74
Other   |            | 0.03375    |            |       |  0.39

Nlocal:           68.5 ave          73 max          64 min
Histogram: 1 0 1 0 0 0 0 1 0 1
Nghost:           3231 ave        3246 max        3217 min
Histogram: 1 0 0 1 0 1 0 0 0 1
Neighs:        35023.2 ave       37110 max       32908 min
Histogram: 1 1 0 0 0 0 0 0 1 1

Total # of neighbors = 140093
Ave neighs/atom = 511.28832
Ave special neighs/atom = 0
Neighbor list builds = 1
Dangerous builds = 0
System init for write_data ...
##### Equilibration starts.##### 
WARNING: Compute rdf cutoff less than neighbor cutoff - forcing a needless neighbor list build (src/compute_rdf.cpp:179)
Neighbor list info ...
  update: every = 10 steps, delay = 0 steps, check = yes
  max neighbors/atom: 2000, page size: 100000
  master list distance cutoff = 12
  ghost atom cutoff = 12
  binsize = 6, bins = 4 3 3
  3 neighbor lists, perpetual/occasional/extra = 2 1 0
  (1) pair reaxff, perpetual
      attributes: half, newton off, ghost
      pair build: half/bin/newtoff/ghost
      stencil: full/ghost/bin/3d
      bin: standard
  (2) compute rdf, occasional
      attributes: half, newton on, cut 7
      pair build: half/bin/newton/tri
      stencil: half/bin/3d/tri
      bin: standard
  (3) fix qeq/reaxff, perpetual, copy from (1)
      attributes: half, newton off
      pair build: copy
      stencil: none
      bin: none
Setting up Verlet run ...
  Unit style    : real
  Current step  : 0
  Time step     : 0.5
Per MPI rank memory allocation (min/avg/max) = 133.6 | 133.8 | 133.9 Mbytes
   Step          Temp          Press          PotEng         TotEng    
         0   300           -5033.7461     -26889.011     -26644.882    
       100   198.22404      1012.6841     -26776.369     -26615.062    
Loop time of 4.93479 on 4 procs for 100 steps with 274 atoms

Performance: 0.875 ns/day, 27.416 hours/ns, 20.264 timesteps/s, 5.552 katom-step/s
92.4% CPU use with 4 MPI tasks x 1 OpenMP threads

MPI task timing breakdown:
Section |  min time  |  avg time  |  max time  |%varavg| %total
---------------------------------------------------------------
Pair    | 3.5253     | 3.7278     | 4.1009     |  11.5 | 75.54
Bond    | 0.00028468 | 0.00031102 | 0.00034781 |   0.0 |  0.01
Neigh   | 0.029903   | 0.030276   | 0.030496   |   0.1 |  0.61
Comm    | 0.30625    | 0.67954    | 0.88231    |  26.9 | 13.77
Output  | 0.0011261  | 0.0013443  | 0.0017807  |   0.7 |  0.03
Modify  | 0.4918     | 0.4923     | 0.49314    |   0.1 |  9.98
Other   |            | 0.003236   |            |       |  0.07

Nlocal:           68.5 ave          72 max          64 min
Histogram: 1 0 0 0 0 1 0 1 0 1
Nghost:           3206 ave        3219 max        3195 min
Histogram: 1 0 1 0 0 0 1 0 0 1
Neighs:        35052.8 ave       36825 max       33033 min
Histogram: 1 0 0 0 1 0 1 0 0 1

Total # of neighbors = 140211
Ave neighs/atom = 511.71898
Ave special neighs/atom = 0
Neighbor list builds = 1
Dangerous builds = 0
System init for write_data ...
WARNING: Compute rdf cutoff less than neighbor cutoff - forcing a needless neighbor list build (src/compute_rdf.cpp:179)
Total wall time: 0:00:13
