LAMMPS (2 Aug 2023 - Update 2)
OMP_NUM_THREADS environment is not set. Defaulting to 1 thread. (src/comm.cpp:98)
  using 1 OpenMP thread(s) per MPI task
Reading data file ...
  triclinic box = (0 0 0) to (17.6913 17.6913 18.9631) with tilt (-8.84565 0 0)
  2 by 2 by 2 MPI processor grid
  reading atoms ...
  378 atoms
Finding 1-2 1-3 1-4 neighbors ...
  special bond factors lj:    0        0        0       
  special bond factors coul:  0        0        0       
     0 = max # of 1-2 neighbors
     0 = max # of 1-3 neighbors
     0 = max # of 1-4 neighbors
     1 = max # of special neighbors
  special bonds CPU = 0.001 seconds
  read_data CPU = 0.009 seconds
WARNING: Van der Waals parameters for element SI indicate inner wall+shielding, but earlier atoms indicate a different van der Waals method. This may cause division-by-zero errors. Keeping van der Waals setting for earlier atoms. (src/REAXFF/reaxff_ffield.cpp:251)
*****Minimization starts.*****

CITE-CITE-CITE-CITE-CITE-CITE-CITE-CITE-CITE-CITE-CITE-CITE-CITE

Your simulation uses code contributions which should be cited:
- pair reaxff command: doi:10.1016/j.parco.2011.08.005
- fix qeq/reaxff command: doi:10.1016/j.parco.2011.08.005
The log file lists these citations in BibTeX format.

CITE-CITE-CITE-CITE-CITE-CITE-CITE-CITE-CITE-CITE-CITE-CITE-CITE

Switching to 'neigh_modify every 1 delay 0 check yes' setting during minimization
Neighbor list info ...
  update: every = 1 steps, delay = 0 steps, check = yes
  max neighbors/atom: 2000, page size: 100000
  master list distance cutoff = 12
  ghost atom cutoff = 12
  binsize = 6, bins = 5 3 4
  2 neighbor lists, perpetual/occasional/extra = 2 0 0
  (1) pair reaxff, perpetual
      attributes: half, newton off, ghost
      pair build: half/bin/newtoff/ghost
      stencil: full/ghost/bin/3d
      bin: standard
  (2) fix qeq/reaxff, perpetual, copy from (1)
      attributes: half, newton off
      pair build: copy
      stencil: none
      bin: none
Setting up cg style minimization ...
  Unit style    : real
  Current step  : 0
Per MPI rank memory allocation (min/avg/max) = 98.96 | 99.76 | 100.9 Mbytes
   Step          Temp          Press         Density         PotEng         TotEng    
         0   0              218212.91      2.0572594     -44770.326     -44770.326    
        19   0              88092.778      2.0572594     -49203.652     -49203.652    
Loop time of 1.06244 on 8 procs for 19 steps with 378 atoms

96.3% CPU use with 8 MPI tasks x 1 OpenMP threads

Minimization stats:
  Stopping criterion = energy tolerance
  Energy initial, next-to-last, final = 
     -44770.3256590886   -49203.623727969   -49203.652098278
  Force two-norm initial, final = 4904.934 2773.7329
  Force max component initial, final = 720.49826 891.00424
  Final line search alpha, max atom move = 0.00057107898 0.50883379
  Iterations, force evaluations = 19 43

MPI task timing breakdown:
Section |  min time  |  avg time  |  max time  |%varavg| %total
---------------------------------------------------------------
Pair    | 0.60038    | 0.63763    | 0.67611    |   3.2 | 60.02
Bond    | 6.524e-06  | 8.7022e-06 | 1.2914e-05 |   0.0 |  0.00
Neigh   | 0          | 0          | 0          |   0.0 |  0.00
Comm    | 0.06221    | 0.10065    | 0.13775    |   8.0 |  9.47
Output  | 0          | 0          | 0          |   0.0 |  0.00
Modify  | 0.32229    | 0.32241    | 0.32248    |   0.0 | 30.35
Other   |            | 0.001743   |            |       |  0.16

Nlocal:          47.25 ave          63 max          29 min
Histogram: 1 0 2 0 1 0 1 1 0 2
Nghost:        2492.75 ave        2524 max        2459 min
Histogram: 1 1 1 1 0 0 1 0 2 1
Neighs:          20693 ave       27285 max       13031 min
Histogram: 1 0 2 0 1 0 1 1 0 2

Total # of neighbors = 165544
Ave neighs/atom = 437.94709
Ave special neighs/atom = 0
Neighbor list builds = 0
Dangerous builds not checked
System init for write_data ...
*****Equilibration starts.*****
Setting up Verlet run ...
  Unit style    : real
  Current step  : 19
  Time step     : 0.5
Per MPI rank memory allocation (min/avg/max) = 98.57 | 99.39 | 100.5 Mbytes
   Step          Temp          Press         Density         PotEng         TotEng    
        19   300            90690.514      2.0572594     -49203.651     -48866.522    
       100   418.36782      37933.76       2.0572594     -49355.34      -48885.193    
       200   420.01035      2694.4791      2.0572594     -49469.905     -48997.912    
       300   414.18234      23257.777      2.0572594     -49613.187     -49147.743    
       400   412.15685      20066.511      2.0572594     -49751.811     -49288.643    
       500   334.94627      18804.976      2.0572594     -49801.324     -49424.923    
       600   329.79303      23678.14       2.0572594     -49895.371     -49524.761    
       700   300.90293      27411.298      2.0572594     -49937.151     -49599.007    
       800   298.65044      15629.616      2.0572594     -49987.719     -49652.106    
       900   291.50952      14682.954      2.0572594     -50001.668     -49674.079    
      1000   298.06177      19204.732      2.0572594     -50015.839     -49680.887    
      1100   335.97318      26141.284      2.0572594     -50070.365     -49692.81     
      1200   317.72759      14730.151      2.0572594     -50098.806     -49741.755    
      1300   286.26692      12267.285      2.0572594     -50105.185     -49783.488    
      1400   309.14481      32798.293      2.0572594     -50138.01      -49790.603    
      1500   301.78657      6276.7667      2.0572594     -50139.826     -49800.688    
      1600   293.49322      21510.647      2.0572594     -50136.718     -49806.901    
      1700   312.68855      15220.626      2.0572594     -50135.689     -49784.301    
      1800   312.52437      13337.343      2.0572594     -50121.29      -49770.086    
      1900   311.91673      24213.839      2.0572594     -50130.823     -49780.302    
      2000   304.38672      15299.616      2.0572594     -50128.994     -49786.934    
      2100   316.48361      24240.545      2.0572594     -50161.815     -49806.162    
      2200   310.51524      25891.12       2.0572594     -50181.183     -49832.237    
      2300   308.20221      18153.438      2.0572594     -50216.348     -49870.001    
      2400   295.20161      11197.319      2.0572594     -50230.505     -49898.767    
      2500   294.47741      15064.008      2.0572594     -50241.246     -49910.323    
      2600   301.86147      12194.43       2.0572594     -50244.692     -49905.471    
      2700   291.2934       24283.592      2.0572594     -50205.677     -49878.332    
      2800   323.26146      12025.916      2.0572594     -50214.557     -49851.287    
      2900   309.43926      18392.008      2.0572594     -50209.891     -49862.154    
      3000   309.54478      21940.646      2.0572594     -50225.023     -49877.167    
      3100   308.81167      22129.414      2.0572594     -50242.419     -49895.387    
      3200   304.01835      14255.207      2.0572594     -50252.13      -49910.485    
      3300   292.05779      10997.259      2.0572594     -50240.112     -49911.908    
      3400   309.56987      16688.249      2.0572594     -50255.202     -49907.318    
      3500   301.71776      21045.402      2.0572594     -50238.999     -49899.939    
      3600   330.82068      18029.838      2.0572594     -50277.746     -49905.981    
      3700   297.65502      21254.156      2.0572594     -50284.462     -49949.968    
      3800   304.79401      15251.161      2.0572594     -50309.236     -49966.719    
      3900   296.83942      16253.715      2.0572594     -50321.964     -49988.386    
      4000   289.2339       23403.819      2.0572594     -50328.069     -50003.038    
      4100   293.04375      20585.312      2.0572594     -50322.787     -49993.475    
      4200   324.42485      25530.056      2.0572594     -50320.181     -49955.604    
      4300   321.51414      16095.706      2.0572594     -50319.868     -49958.561    
      4400   303.26714      9196.6575      2.0572594     -50329.731     -49988.93     
      4500   310.57226      16572.15       2.0572594     -50355.983     -50006.972    
      4600   301.26446      21408.104      2.0572594     -50355.475     -50016.924    
      4700   308.59913      17667.494      2.0572594     -50357.109     -50010.316    
      4800   319.5628       12947.829      2.0572594     -50345.528     -49986.414    
      4900   301.23103      16046.857      2.0572594     -50306.983     -49968.47     
      5000   322.84394      23847.859      2.0572594     -50341.381     -49978.58     
      5019   315.18889      16375.569      2.0572594     -50343.878     -49989.68     
Loop time of 93.5252 on 8 procs for 5000 steps with 378 atoms

Performance: 2.310 ns/day, 10.392 hours/ns, 53.462 timesteps/s, 20.208 katom-step/s
98.2% CPU use with 8 MPI tasks x 1 OpenMP threads

MPI task timing breakdown:
Section |  min time  |  avg time  |  max time  |%varavg| %total
---------------------------------------------------------------
Pair    | 66.349     | 68.856     | 72.809     |  23.4 | 73.62
Bond    | 0.00056975 | 0.0010855  | 0.0013363  |   0.7 |  0.00
Neigh   | 5.9224     | 6.2165     | 6.4472     |   6.8 |  6.65
Comm    | 0.9713     | 4.9208     | 7.4253     |  87.6 |  5.26
Output  | 0.0048844  | 0.0079918  | 0.0093331  |   1.4 |  0.01
Modify  | 13.236     | 13.463     | 13.756     |   4.6 | 14.39
Other   |            | 0.05985    |            |       |  0.06

Nlocal:          47.25 ave          61 max          30 min
Histogram: 1 1 0 1 0 1 0 1 2 1
Nghost:        2468.88 ave        2512 max        2430 min
Histogram: 1 2 1 0 0 0 1 1 1 1
Neighs:        20681.9 ave       26482 max       13376 min
Histogram: 1 1 0 1 0 1 0 1 2 1

Total # of neighbors = 165455
Ave neighs/atom = 437.71164
Ave special neighs/atom = 0
Neighbor list builds = 500
Dangerous builds not checked
*****Heat starts.*****
Setting up Verlet run ...
  Unit style    : real
  Current step  : 5019
  Time step     : 0.5
Per MPI rank memory allocation (min/avg/max) = 98.6 | 99.5 | 100.5 Mbytes
   Step          Temp          Press         Density         PotEng         TotEng    
      5019   315.18889      16374.792      2.0572594     -50343.879     -49989.68     
      5100   323.36982      4320.9342      1.9741112     -50353.462     -49990.07     
      5200   356.78475      1592.7151      1.8897561     -50404.713     -50003.771    
      5300   346.62224      6264.7249      1.8597777     -50427.417     -50037.895    
      5400   340.02324      6657.3289      1.8195115     -50434.241     -50052.134    
      5500   323.85242      2782.131       1.8001655     -50421.792     -50057.858    
      5600   325.73642      10195.588      1.7767775     -50414.781     -50048.73     
      5700   318.92675      4266.9255      1.7859163     -50384.085     -50025.686    
      5800   328.41841     -495.97335      1.7802356     -50365.288     -49996.222    
      5900   343.43992     -4632.7455      1.7815375     -50354.954     -49969.008    
      6000   396.71111      6417.4574      1.7918503     -50384.462     -49938.651    
      6100   397.93781      4573.2715      1.8165631     -50358.921     -49911.732    
      6200   427.43673      1439.3802      1.8315536     -50369.737     -49889.398    
      6300   421.4295       6312.4811      1.8565913     -50342.069     -49868.481    
      6400   428.45894      16714.246      1.8574879     -50329.891     -49848.404    
      6500   448.76628      1942.8773      1.8670255     -50330.454     -49826.145    
      6600   432.81545     -3063.2281      1.8538092     -50292.991     -49806.608    
      6700   462.63895     -287.99159      1.8514421     -50306.735     -49786.837    
      6800   488.35627      5064.5283      1.8395369     -50311.944     -49763.147    
      6900   476.04383     -11096.402      1.8176652     -50289.781     -49754.819    
      7000   494.46083     -5947.2459      1.8055503     -50305.72      -49750.062    
      7100   553.83361     -3606.9702      1.7826276     -50376.677     -49754.297    
      7200   572.11012     -8279.9712      1.7697165     -50417.561     -49774.644    
      7300   530.91712     -6196.7923      1.7939766     -50408.753     -49812.127    
      7400   519.10268      5909.4129      1.7785015     -50410.545     -49827.195    
      7500   522.06323      2984.0694      1.7977617     -50417.981     -49831.304    
      7600   559.48306     -5383.9108      1.7885378     -50446.529     -49817.801    
      7700   533.2059      -3443.4536      1.775091      -50399.139     -49799.941    
      7800   568.24167     -2457.2688      1.7858481     -50417.89      -49779.32     
      7900   620.50198     -14955.814      1.7885618     -50460.923     -49763.625    
      8000   612.14096     -7337.5609      1.8031801     -50441.262     -49753.359    
      8019   589.14645      3953.574       1.8137201     -50417.72      -49755.658    
Loop time of 51.9528 on 8 procs for 3000 steps with 378 atoms

Performance: 2.495 ns/day, 9.621 hours/ns, 57.745 timesteps/s, 21.828 katom-step/s
98.4% CPU use with 8 MPI tasks x 1 OpenMP threads

MPI task timing breakdown:
Section |  min time  |  avg time  |  max time  |%varavg| %total
---------------------------------------------------------------
Pair    | 36.93      | 39.128     | 40.521     |  19.1 | 75.31
Bond    | 0.00044327 | 0.0007902  | 0.0010047  |   0.0 |  0.00
Neigh   | 2.8421     | 3.0151     | 3.1602     |   7.0 |  5.80
Comm    | 0.71036    | 2.1091     | 4.3091     |  82.7 |  4.06
Output  | 0.0026805  | 0.0035659  | 0.0042275  |   0.7 |  0.01
Modify  | 7.5174     | 7.6645     | 7.8324     |   4.4 | 14.75
Other   |            | 0.03215    |            |       |  0.06

Nlocal:          47.25 ave          65 max          29 min
Histogram: 1 1 1 1 0 0 1 1 1 1
Nghost:        2274.62 ave        2367 max        2181 min
Histogram: 2 1 1 0 0 0 0 1 1 2
Neighs:        18236.5 ave       24899 max       11336 min
Histogram: 1 1 1 1 0 0 1 1 1 1

Total # of neighbors = 145892
Ave neighs/atom = 385.95767
Ave special neighs/atom = 0
Neighbor list builds = 300
Dangerous builds not checked
*****Cool starts.*****
Setting up Verlet run ...
  Unit style    : real
  Current step  : 8019
  Time step     : 0.5
Per MPI rank memory allocation (min/avg/max) = 98.52 | 99.41 | 100.4 Mbytes
   Step          Temp          Press         Density         PotEng         TotEng    
      8019   589.14645      3954.5717      1.8137201     -50417.719     -49755.657    
      8100   589.60483      2449.6085      1.7743381     -50417.19      -49754.613    
      8200   608.59759     -4520.9303      1.7787127     -50445.061     -49761.141    
      8300   609.8537       11495.448      1.7907424     -50476.886     -49791.553    
      8400   566.87668     -12998.952      1.794148      -50484.045     -49847.009    
      8500   581.50206      10105.015      1.7959839     -50529.671     -49876.199    
      8600   567.70148      14187.27       1.776126      -50529.804     -49891.841    
      8700   550.54415      8755.6891      1.784146      -50541.505     -49922.823    
      8800   535.3498       3236.0519      1.7910782     -50561.59      -49959.983    
      8900   544.5301       4692.6487      1.798136      -50606.684     -49994.76     
      9000   540.68646      2344.565       1.827273      -50637.454     -50029.849    
      9100   515.65629     -6715.0155      1.7918899     -50638.367     -50058.89     
      9200   494.7806      -5860.7353      1.807858      -50649.967     -50093.95     
      9300   474.13744     -1369.1465      1.7774284     -50657.963     -50125.144    
      9400   477.77188     -1622.8124      1.7893828     -50687.505     -50150.602    
      9500   453.856       -9225.6311      1.7881231     -50690.112     -50180.085    
      9600   462.96124     -1434.0973      1.7863277     -50722.12      -50201.86     
      9700   433.90347     -1926.1286      1.7738235     -50712.585     -50224.979    
      9800   442.95759     -13626.229      1.7748094     -50742.963     -50245.183    
      9900   420.52688      2393.3241      1.7757434     -50740.518     -50267.944    
     10000   437.88593      1489.9349      1.8061899     -50783.69      -50291.609    
     10100   409.70106     -3019.3611      1.8096116     -50774.062     -50313.654    
     10200   396.43821     -11350.058      1.8067518     -50779.584     -50334.08     
     10300   395.11628     -1896.9524      1.828276      -50800.446     -50356.428    
     10400   396.57499      4621.1806      1.8234021     -50826.49      -50380.833    
     10500   389.35023      4569.1708      1.8225041     -50839.744     -50402.206    
     10600   347.59391     -3818.0291      1.8146399     -50815.631     -50425.017    
     10700   344.26989      1151.2531      1.8256857     -50836.848     -50449.97     
     10800   337.74822     -2352.0818      1.8100144     -50848.952     -50469.402    
     10900   332.4466       1253.8093      1.8128593     -50864.86      -50491.268    
     11000   332.0734      -8469.2629      1.7807877     -50887.254     -50514.081    
     11019   342.62875     -2369.6371      1.7904333     -50906.198     -50521.164    
Loop time of 51.1766 on 8 procs for 3000 steps with 378 atoms

Performance: 2.532 ns/day, 9.477 hours/ns, 58.621 timesteps/s, 22.159 katom-step/s
98.2% CPU use with 8 MPI tasks x 1 OpenMP threads

MPI task timing breakdown:
Section |  min time  |  avg time  |  max time  |%varavg| %total
---------------------------------------------------------------
Pair    | 36.443     | 38.671     | 39.921     |  18.2 | 75.56
Bond    | 0.00045113 | 0.00079951 | 0.00098698 |   0.0 |  0.00
Neigh   | 2.8072     | 2.9692     | 3.1155     |   7.4 |  5.80
Comm    | 0.67157    | 1.9254     | 4.1542     |  81.5 |  3.76
Output  | 0.0028184  | 0.0036671  | 0.0043152  |   0.7 |  0.01
Modify  | 7.4269     | 7.5745     | 7.7327     |   4.7 | 14.80
Other   |            | 0.0321     |            |       |  0.06

Nlocal:          47.25 ave          65 max          31 min
Histogram: 1 2 1 0 0 0 1 1 1 1
Nghost:        2258.88 ave        2361 max        2155 min
Histogram: 3 1 0 0 0 0 0 0 1 3
Neighs:        17979.9 ave       24544 max       11941 min
Histogram: 1 2 1 0 0 0 1 1 1 1

Total # of neighbors = 143839
Ave neighs/atom = 380.52646
Ave special neighs/atom = 0
Neighbor list builds = 300
Dangerous builds not checked
*****Equilibration starts.*****
Setting up Verlet run ...
  Unit style    : real
  Current step  : 11019
  Time step     : 0.5
Per MPI rank memory allocation (min/avg/max) = 98.5 | 99.39 | 100.4 Mbytes
   Step          Temp          Press         Density         PotEng         TotEng    
     11019   300           -2690.602       1.7904333     -50906.198     -50569.068    
     11100   293.41339     -12118.026      1.7904333     -50901.355     -50571.627    
     11200   285.77777      3685.6392      1.7904333     -50912.494     -50591.347    
     11300   270.91723     -632.15073      1.7904333     -50916.046     -50611.598    
     11400   291.14425     -7693.4904      1.7904333     -50927.384     -50600.206    
     11500   303.19634      344.19145      1.7904333     -50910.68      -50569.958    
     11600   303.56375     -1806.0535      1.7904333     -50907.228     -50566.093    
     11700   310.19729     -5675.928       1.7904333     -50934.177     -50585.588    
     11800   311.17771     -910.33501      1.7904333     -50940.778     -50591.088    
     11900   294.16342      512.85971      1.7904333     -50916.896     -50586.325    
     12000   294.42759      1824.2747      1.7904333     -50918.854     -50587.986    
     12100   302.10611     -2544.0939      1.7904333     -50921.611     -50582.114    
     12200   293.57742      4397.4878      1.7904333     -50902.15      -50572.238    
     12300   309.18192      4885.8241      1.7904333     -50915.265     -50567.817    
     12400   299.52379     -5914.593       1.7904333     -50921.995     -50585.401    
     12500   281.99925      9032.0477      1.7904333     -50920.28      -50603.379    
     12600   296.33617     -8818.7549      1.7904333     -50930.353     -50597.341    
     12700   290.33584     -1785.1057      1.7904333     -50914.531     -50588.261    
     12800   304.847        3464.3056      1.7904333     -50919.333     -50576.757    
     12900   292.78875     -7008.5758      1.7904333     -50891.811     -50562.785    
     13000   339.64528     -4020.5139      1.7904333     -50930.485     -50548.803    
     13100   327.78523     -4010.9914      1.7904333     -50963.071     -50594.717    
     13200   311.80084     -11033.367      1.7904333     -50967.454     -50617.063    
     13300   289.9883      -3449.412       1.7904333     -50960.815     -50634.936    
     13400   283.43945      683.66439      1.7904333     -50950.028     -50631.508    
     13500   299.50752      5009.8682      1.7904333     -50942.077     -50605.501    
     13600   295.15314     -3652.5138      1.7904333     -50928.277     -50596.594    
     13700   286.03127     -5208.6172      1.7904333     -50938.707     -50617.275    
     13800   275.49785      1435.9623      1.7904333     -50962.417     -50652.822    
     13900   305.14913     -5511.6875      1.7904333     -50990.977     -50648.061    
     14000   294.87771     -4252.0145      1.7904333     -50958.867     -50627.493    
     14100   299.57134     -6112.0947      1.7904333     -50944.115     -50607.467    
     14200   314.89531     -4128.8961      1.7904333     -50962.294     -50608.426    
     14300   304.78391     -6995.6804      1.7904333     -50959.807     -50617.302    
     14400   303.00475     -5193.4016      1.7904333     -50967.439     -50626.933    
     14500   303.89534      4875.9513      1.7904333     -50961.793     -50620.285    
     14600   305.28778      895.42106      1.7904333     -50929.105     -50586.033    
     14700   301.12149     -9667.8385      1.7904333     -50916.666     -50578.276    
     14800   326.52746     -5603.9898      1.7904333     -50973.119     -50606.179    
     14900   284.94013     -8164.3617      1.7904333     -50947.344     -50627.138    
     15000   297.39306     -8009.928       1.7904333     -50953.191     -50618.991    
     15100   318.09454      181.93453      1.7904333     -50973.767     -50616.304    
     15200   302.14883      6203.7829      1.7904333     -50986.05      -50646.506    
     15300   294.85587     -5967.0806      1.7904333     -51002.299     -50670.95     
     15400   284.28551      5685.4372      1.7904333     -50972.869     -50653.399    
     15500   303.91721     -2169.0974      1.7904333     -50971.158     -50629.626    
     15600   304.21769      1743.8004      1.7904333     -50963.749     -50621.88     
     15700   305.55834     -303.96023      1.7904333     -50957.103     -50613.727    
     15800   303.30605     -4843.6164      1.7904333     -50968.808     -50627.964    
     15900   279.93606     -8299.3701      1.7904333     -50973.365     -50658.782    
     16000   291.512       -7108.4015      1.7904333     -50979.923     -50652.332    
     16019   287.30088      4557.6597      1.7904333     -50972.084     -50649.225    
Loop time of 78.4511 on 8 procs for 5000 steps with 378 atoms

Performance: 2.753 ns/day, 8.717 hours/ns, 63.734 timesteps/s, 24.091 katom-step/s
98.3% CPU use with 8 MPI tasks x 1 OpenMP threads

MPI task timing breakdown:
Section |  min time  |  avg time  |  max time  |%varavg| %total
---------------------------------------------------------------
Pair    | 54.741     | 58.349     | 60.326     |  22.1 | 74.38
Bond    | 0.00054786 | 0.00104    | 0.0012157  |   0.6 |  0.00
Neigh   | 4.6161     | 4.9044     | 5.2019     |  10.3 |  6.25
Comm    | 1.2178     | 3.1968     | 6.8035     |  94.4 |  4.07
Output  | 0.0047304  | 0.010405   | 0.012097   |   2.1 |  0.01
Modify  | 11.637     | 11.939     | 12.224     |   6.6 | 15.22
Other   |            | 0.05123    |            |       |  0.07

Nlocal:          47.25 ave          65 max          27 min
Histogram: 1 0 2 1 0 0 0 2 1 1
Nghost:        2248.88 ave        2359 max        2147 min
Histogram: 4 0 0 0 0 0 0 0 1 3
Neighs:        17994.2 ave       24573 max       10451 min
Histogram: 1 0 2 1 0 0 0 1 2 1

Total # of neighbors = 143954
Ave neighs/atom = 380.83069
Ave special neighs/atom = 0
Neighbor list builds = 500
Dangerous builds not checked
*****Done.*****
Total wall time: 0:04:36
