LAMMPS (2 Aug 2023 - Update 2)
  using 2 OpenMP thread(s) per MPI task
Reading data file ...
  triclinic box = (0 0 0) to (16.6078 13.4502 17.3502) with tilt (-9.4505 -1.0717 0.0034)
WARNING: Triclinic box skew is large. LAMMPS will run inefficiently. (src/domain.cpp:220)
  2 by 1 by 2 MPI processor grid
  reading atoms ...
  386 atoms
Finding 1-2 1-3 1-4 neighbors ...
  special bond factors lj:    0        0        0       
  special bond factors coul:  0        0        0       
     0 = max # of 1-2 neighbors
     0 = max # of 1-3 neighbors
     0 = max # of 1-4 neighbors
     1 = max # of special neighbors
  special bonds CPU = 0.000 seconds
  read_data CPU = 0.006 seconds
WARNING: Van der Waals parameters for element SI indicate inner wall+shielding, but earlier atoms indicate a different van der Waals method. This may cause division-by-zero errors. Keeping van der Waals setting for earlier atoms. (src/REAXFF/reaxff_ffield.cpp:251)
*****Minimization starts.*****

CITE-CITE-CITE-CITE-CITE-CITE-CITE-CITE-CITE-CITE-CITE-CITE-CITE

Your simulation uses code contributions which should be cited:
- pair reaxff command: doi:10.1016/j.parco.2011.08.005
- fix qeq/reaxff command: doi:10.1016/j.parco.2011.08.005
The log file lists these citations in BibTeX format.

CITE-CITE-CITE-CITE-CITE-CITE-CITE-CITE-CITE-CITE-CITE-CITE-CITE

Switching to 'neigh_modify every 1 delay 0 check yes' setting during minimization
WARNING: Fix qeq/reaxff group is not charge neutral, net charge = -0.82 (src/REAXFF/fix_qeq_reaxff.cpp:392)
Neighbor list info ...
  update: every = 1 steps, delay = 0 steps, check = yes
  max neighbors/atom: 2000, page size: 100000
  master list distance cutoff = 12
  ghost atom cutoff = 12
  binsize = 6, bins = 5 3 3
  2 neighbor lists, perpetual/occasional/extra = 2 0 0
  (1) pair reaxff, perpetual
      attributes: half, newton off, ghost
      pair build: half/bin/newtoff/ghost
      stencil: full/ghost/bin/3d
      bin: standard
  (2) fix qeq/reaxff, perpetual, copy from (1)
      attributes: half, newton off
      pair build: copy
      stencil: none
      bin: none
Setting up cg style minimization ...
  Unit style    : real
  Current step  : 0
Per MPI rank memory allocation (min/avg/max) = 178.4 | 179.9 | 181.1 Mbytes
   Step          Temp          Press         Density         Volume         PotEng         TotEng    
         0   0              173639.88      1.7478941      3875.657      -35586.149     -35586.149    
        47   0              4030.0107      1.7478941      3875.657      -38156.43      -38156.43     
Loop time of 22.5676 on 8 procs for 47 steps with 386 atoms

76.0% CPU use with 4 MPI tasks x 2 OpenMP threads

Minimization stats:
  Stopping criterion = energy tolerance
  Energy initial, next-to-last, final = 
     -35586.1485446012  -38156.3954491963  -38156.4298363688
  Force two-norm initial, final = 4205.6054 299.17949
  Force max component initial, final = 603.10212 114.00496
  Final line search alpha, max atom move = 0.0022622169 0.25790394
  Iterations, force evaluations = 47 152

MPI task timing breakdown:
Section |  min time  |  avg time  |  max time  |%varavg| %total
---------------------------------------------------------------
Pair    | 10.111     | 10.601     | 11.375     |  15.4 | 46.98
Bond    | 0.00040571 | 0.00041758 | 0.00043554 |   0.0 |  0.00
Neigh   | 0          | 0          | 0          |   0.0 |  0.00
Comm    | 3.9281     | 4.7966     | 5.3459     |  24.8 | 21.25
Output  | 0.11397    | 0.2066     | 0.26874    |  13.7 |  0.92
Modify  | 6.2563     | 6.2803     | 6.3044     |   1.0 | 27.83
Other   |            | 0.6824     |            |       |  3.02

Nlocal:           96.5 ave         100 max          95 min
Histogram: 2 0 1 0 0 0 0 0 0 1
Nghost:         4544.5 ave        4577 max        4514 min
Histogram: 1 0 1 0 0 0 1 0 0 1
Neighs:        65501.5 ave       67863 max       64427 min
Histogram: 2 0 1 0 0 0 0 0 0 1

Total # of neighbors = 262006
Ave neighs/atom = 678.77202
Ave special neighs/atom = 0
Neighbor list builds = 0
Dangerous builds = 0
System init for write_data ...
##### Equilibration starts.##### 
WARNING: Compute rdf cutoff less than neighbor cutoff - forcing a needless neighbor list build (src/compute_rdf.cpp:179)
Neighbor list info ...
  update: every = 10 steps, delay = 0 steps, check = yes
  max neighbors/atom: 2000, page size: 100000
  master list distance cutoff = 12
  ghost atom cutoff = 12
  binsize = 6, bins = 5 3 3
  3 neighbor lists, perpetual/occasional/extra = 2 1 0
  (1) pair reaxff, perpetual
      attributes: half, newton off, ghost
      pair build: half/bin/newtoff/ghost
      stencil: full/ghost/bin/3d
      bin: standard
  (2) compute rdf, occasional
      attributes: half, newton on, cut 7
      pair build: half/bin/newton/tri
      stencil: half/bin/3d/tri
      bin: standard
  (3) fix qeq/reaxff, perpetual, copy from (1)
      attributes: half, newton off
      pair build: copy
      stencil: none
      bin: none
Setting up Verlet run ...
  Unit style    : real
  Current step  : 0
  Time step     : 0.5
Per MPI rank memory allocation (min/avg/max) = 183.6 | 184.9 | 186.3 Mbytes
   Step          Temp          Press          PotEng         TotEng    
         0   300            8091.1814     -38156.43      -37812.146    
       100   190.98439      10036.201     -37989.399     -37770.223    
       200   240.64146     -4100.6399     -37981.4       -37705.237    
       300   293.25635      1677.7064     -37973.221     -37636.677    
       400   307.70029      3706.9331     -37952.498     -37599.378    
       500   345.46545      3113.7897     -38016.084     -37619.624    
       600   312.75486      13506.623     -38045.838     -37686.917    
       700   305.92509      1230.9235     -38091.809     -37740.725    
       800   310.57661     -12525.422     -38145.368     -37788.947    
       900   292.22756      5391.563      -38154.285     -37818.921    
      1000   294.38788     -286.39898     -38171.907     -37834.064    
      1100   367.20812      6430.2362     -38272.97      -37851.558    
      1200   318.8523       11898.452     -38283.271     -37917.352    
      1300   336.01147      9326.522      -38356.805     -37971.195    
      1400   309.19646      6708.4151     -38371.692     -38016.854    
      1500   290.53873      14530.916     -38388.142     -38054.716    
      1600   301.50193      8987.9535     -38425.82      -38079.813    
      1700   285.29187      1374.0213     -38417.965     -38090.561    
      1800   305.35866      5063.9896     -38433.93      -38083.497    
      1900   316.33536      6189.1172     -38452.179     -38089.149    
      2000   298.1486       10897.329     -38450.041     -38107.882    
      2100   303.98837      8302.2096     -38479.021     -38130.161    
      2200   310.36753      20894.233     -38519.491     -38163.31     
      2300   311.86906      10840.339     -38542.891     -38184.986    
      2400   297.30317      25238.753     -38551.298     -38210.11     
      2500   313.59665      17542.722     -38592.912     -38233.024    
      2600   368.08905      8608.6514     -38714.42      -38291.996    
      2700   320.63623      5273.992      -38722.669     -38354.703    
      2800   333.02071      9231.861      -38788.657     -38406.479    
      2900   321.54947      11800.856     -38811.161     -38442.147    
      3000   273.86464      7895.4443     -38756.239     -38441.949    
      3100   294.28023      14229.594     -38750.168     -38412.448    
      3200   323.02722      10185.115     -38760.53      -38389.82     
      3300   302.63832      15102.086     -38741.35      -38394.039    
      3400   304.52701      12915.271     -38772.266     -38422.788    
      3500   318.62338      11450.496     -38806.618     -38440.962    
      3600   327.34595      4660.5014     -38829.601     -38453.935    
      3700   289.13205      19662.355     -38818.944     -38487.133    
      3800   289.71205      19232.145     -38839.002     -38506.525    
      3900   310.09262      15241.633     -38892.12      -38536.254    
      4000   277.54621      13811.702     -38877.276     -38558.761    
      4100   285.04455      13223.777     -38893.34      -38566.22     
      4200   315.13091      12488.735     -38936.067     -38574.419    
      4300   282.25519      17358.617     -38942.417     -38618.498    
      4400   287.08593      17955.247     -38954.658     -38625.195    
      4500   317.97935      16976.109     -38991.223     -38626.306    
      4600   324.04125      8576.5337     -38995.214     -38623.34     
      4700   298.74032      113.28234     -38968.929     -38626.091    
      4800   313.30183      13810.688     -38995.26      -38635.711    
      4900   290.90283      21873.046     -38992.936     -38659.093    
      5000   298.5869       14923.074     -38996.901     -38654.239    
      5100   281.16009      7486.6818     -38956.475     -38633.812    
      5200   308.51637      10893.068     -38959.349     -38605.292    
      5300   326.98251      17944.596     -38978.49      -38603.24     
      5400   311.07909      2429.4111     -38996.203     -38639.204    
      5500   266.19684     -5279.7028     -38961.872     -38656.382    
      5600   306.17303      15506.854     -38996.803     -38645.435    
      5700   319.17996      4859.858      -38992.632     -38626.337    
      5800   320.52344      14258.512     -38989.206     -38621.369    
      5900   277.99162      12241.43      -38976.797     -38657.77     
      6000   287.16033      9112.4043     -39000.1       -38670.551    
      6100   379.8679       9421.0211     -39136.567     -38700.626    
      6200   308.72081      11514.098     -39093.216     -38738.924    
      6300   349.43996      11718.47      -39181.487     -38780.466    
      6400   289.81349      10582.454     -39145.21      -38812.617    
      6500   269.88863      5002.9832     -39129.031     -38819.303    
      6600   331.84062      10480.094     -39182.467     -38801.642    
      6700   298.3184       4575.9153     -39117.92      -38775.567    
      6800   290.68923      11802.21      -39122.564     -38788.966    
      6900   276.00951      2475.766      -39120.921     -38804.17     
      7000   263.60179      3079.23       -39106.66      -38804.147    
      7100   304.61791      6684.0368     -39154.45      -38804.866    
      7200   327.30895      21549.845     -39182.12      -38806.497    
      7300   298.91271      5157.4283     -39152.244     -38809.209    
      7400   275.83624      6368.4189     -39136.564     -38820.011    
      7500   279.08291      5890.5457     -39149.391     -38829.112    
      7600   302.55126      11797.888     -39170.049     -38822.838    
      7700   323.28669     -36.560656     -39172.735     -38801.727    
      7800   321.87062      4740.9966     -39151.568     -38782.185    
      7900   315.84616     -1076.5817     -39137.374     -38774.905    
      8000   299.49973      10531.297     -39156.996     -38813.286    
      8100   312.83625      6617.8257     -39186.579     -38827.564    
      8200   313.42669      11520.032     -39169.186     -38809.494    
      8300   313.07414      10463.546     -39145.601     -38786.313    
      8400   330.67243      10871.618     -39178.659     -38799.176    
      8500   280.64712      9274.8065     -39132.722     -38810.648    
      8600   276.49247      11235.349     -39129.846     -38812.54     
      8700   304.94007      20868.703     -39163.373     -38813.42     
      8800   313.11408      12892.829     -39166.368     -38807.034    
      8900   301.98085      10409.726     -39141.769     -38795.212    
      9000   363.50756      26409.382     -39165.633     -38748.467    
      9100   326.25233      13326.21      -39131.318     -38756.907    
      9200   331.74314      5642.2437     -39173.029     -38792.316    
      9300   289.48931      4199.8516     -39142.425     -38810.204    
      9400   285.03189      13391.84      -39148.54      -38821.434    
      9500   293.64094      3383.3313     -39163.336     -38826.351    
      9600   279.46434      21504.842     -39129.692     -38808.975    
      9700   281.10264      10432.954     -39101.857     -38779.261    
      9800   292.15161     -3912.3117     -39117.012     -38781.735    
      9900   289.99485     -11758.722     -39136.025     -38803.223    
     10000   242.28632     -1117.6365     -39109.231     -38831.18     
     10100   290.08123      610.45909     -39159.949     -38827.048    
     10200   312.37863      10205.707     -39175.301     -38816.811    
     10300   302.63951      6026.1324     -39152.874     -38805.561    
     10400   305.47528      14728.987     -39137.795     -38787.228    
     10500   328.09049      7784.5921     -39163.277     -38786.756    
     10600   296.84398      12431.219     -39160.652     -38819.99     
     10700   273.97523      2750.2852     -39152.829     -38838.412    
     10800   300.41966      5482.3167     -39171.049     -38826.284    
     10900   304.79688      3245.0271     -39150.277     -38800.488    
     11000   314.14656      9205.302      -39154.236     -38793.718    
     11100   336.02152      12777.163     -39192.439     -38806.817    
     11200   299.08069     -2702.3662     -39168.579     -38825.35     
     11300   268.69691      4605.5337     -39144.659     -38836.299    
     11400   318.97827      14102.52      -39197.089     -38831.026    
     11500   321.61078      14194.307     -39172.029     -38802.945    
     11600   304.94283      8818.6502     -39138.648     -38788.692    
     11700   313.52407      4559.465      -39151.194     -38791.39     
     11800   288.80732      17798.81      -39150.164     -38818.725    
     11900   281.12348      12385.123     -39161.307     -38838.686    
     12000   292.41769      1845.2692     -39167.252     -38831.67     
     12100   284.85308     -5329.2456     -39140.623     -38813.722    
     12200   285.90844      9807.5821     -39137.377     -38809.265    
     12300   290.76628      5877.3999     -39137.839     -38804.152    
     12400   317.4381       14135.752     -39163.767     -38799.471    
     12500   304.42539      12362.793     -39168.415     -38819.053    
     12600   274.41317      14022.71      -39157.643     -38842.723    
     12700   278.38049      16978.774     -39151.815     -38832.342    
     12800   335.79726      5553.7806     -39186.826     -38801.461    
     12900   317.54106      5292.7354     -39158.087     -38793.673    
     13000   281.08815      4691.9428     -39122.774     -38800.194    
     13100   302.01232      6048.516      -39154.588     -38807.995    
     13200   297.75921      1651.8238     -39176.159     -38834.447    
     13300   265.63133      6192.7284     -39156.88      -38852.039    
     13400   306.90138      15096.714     -39178.69      -38826.487    
     13500   314.46241      12736.382     -39167.336     -38806.456    
     13600   311.03822      10440.573     -39167.965     -38811.013    
     13700   281.34039      3615.616      -39143.977     -38821.108    
     13800   292.49666      24198.583     -39170.015     -38834.343    
     13900   298.41674      13134.285     -39180.486     -38838.02     
     14000   323.38803      14668.39      -39185.228     -38814.104    
     14100   292.41264      9089.0809     -39129.687     -38794.111    
     14200   312.24128      15652.457     -39157.271     -38798.939    
     14300   315.27422      14239.372     -39199.169     -38837.356    
     14400   305.21086      51.704555     -39193.209     -38842.945    
     14500   269.23879      587.5567      -39138.611     -38829.629    
     14600   293.86         4749.6412     -39149.788     -38812.551    
     14700   312.12891      29503.168     -39172.801     -38814.598    
     14800   305.56272      15061.685     -39193.535     -38842.868    
     14900   270.79161      2042.502      -39181.396     -38870.632    
     15000   273.53993      4736.6008     -39168.21      -38854.293    
     15100   269.04795      7255.6822     -39137.272     -38828.509    
     15200   328.28563      17479.702     -39187.615     -38810.87     
     15300   311.874        1180.8344     -39169.505     -38811.595    
     15400   273.89126      10035.622     -39138.366     -38824.046    
     15500   278.87166      14067.971     -39162.132     -38842.096    
     15600   264.41265     -1658.3152     -39160.965     -38857.522    
     15700   301.46435      5028.1507     -39179.343     -38833.379    
     15800   318.12144      9622.4507     -39170.268     -38805.188    
     15900   302.70727      6175.1123     -39151.834     -38804.444    
     16000   279.40734      12986.588     -39141.926     -38821.275    
     16100   279.66878      17151.557     -39158.724     -38837.773    
     16200   292.1904       12788.769     -39170.325     -38835.004    
     16300   282.93251     -1573.3616     -39126.287     -38801.591    
     16400   307.14758      9780.8584     -39139.556     -38787.07     
     16500   299.02342      5762.5685     -39153.536     -38810.373    
     16600   287.58702      13836.433     -39157.443     -38827.404    
     16700   276.32269      4489.6628     -39143.482     -38826.37     
     16800   306.13123      14560.042     -39155.464     -38804.144    
     16900   311.27351      21295.676     -39124.798     -38767.577    
     17000   303.16022      8396.7221     -39119.579     -38771.669    
     17100   313.40794      14507.767     -39151.034     -38791.363    
     17200   293.40653      15416.73      -39142.274     -38805.557    
     17300   302.79362      2921.4892     -39169.841     -38822.352    
     17400   300.1241       12466.101     -39166.647     -38822.221    
     17500   318.34599      9144.4026     -39147.896     -38782.558    
     17600   291.38965      2350.1927     -39107.104     -38772.702    
     17700   306.41765      3028.4747     -39144.121     -38792.472    
     17800   316.74891      23543.115     -39172.928     -38809.424    
     17900   308.09235      6034.7981     -39173.952     -38820.382    
     18000   300.27928      6504.5952     -39169.95      -38825.346    
     18100   288.06109      4846.6504     -39144.676     -38814.094    
     18200   302.83922     -2298.3141     -39129.149     -38781.607    
     18300   303.98272      5415.7251     -39125.502     -38776.648    
     18400   311.71522      1404.7342     -39160.8       -38803.072    
     18500   288.78683      12379.618     -39154.519     -38823.104    
     18600   292.08272      8982.2059     -39160.695     -38825.497    
     18700   304.95672      21322.667     -39175.807     -38825.835    
     18800   312.65296     -88.661578     -39182.14      -38823.335    
     18900   335.64147      11357.473     -39175.189     -38790.003    
     19000   314.58912      16034.009     -39156.459     -38795.433    
     19100   298.42229      11100.382     -39174.239     -38831.766    
     19200   320.34273      14363.059     -39235.526     -38867.897    
     19300   287.26574      21728.749     -39227.759     -38898.089    
     19400   270.77538      13276.286     -39221.709     -38910.964    
     19500   307.00611      16252.179     -39260.313     -38907.989    
     19600   293.77625      9371.2526     -39228.404     -38891.263    
     19700   330.12457      22835.146     -39246.413     -38867.558    
     19800   292.85517      14076.896     -39234.711     -38898.627    
     19900   304.92087      1686.4029     -39268.458     -38918.527    
     20000   321.6662       3868.7377     -39294.682     -38925.534    
     20100   310.46471      9866.7411     -39292.053     -38935.76     
     20200   289.62052      11132.834     -39266.852     -38934.48     
     20300   297.38243      15544.593     -39255.914     -38914.634    
     20400   317.60257      15780.304     -39259.405     -38894.92     
     20500   342.97534      20769.701     -39282.984     -38889.381    
     20600   318.32139      19751.941     -39290.315     -38925.006    
     20700   294.95781      13922.676     -39284.24      -38945.743    
     20800   302.45589      11755.466     -39284.959     -38937.857    
     20900   303.39885      7692.4154     -39265.718     -38917.534    
     21000   293.80895      12589.58      -39231.949     -38894.77     
     21100   305.63429      12435.797     -39247.203     -38896.454    
     21200   275.08253      8557.7058     -39261.472     -38945.784    
     21300   295.90175      12931.987     -39290.284     -38950.704    
     21400   308.51719      8856.5429     -39303.426     -38949.368    
     21500   291.5033       13544.78      -39287.116     -38952.584    
     21600   307.49114      25418.293     -39306.329     -38953.449    
     21700   318.83717      14179.315     -39311.089     -38945.187    
     21800   305.14847      10180.371     -39295.66      -38945.468    
     21900   306.19637      14942.162     -39297.404     -38946.009    
     22000   292.28368      5111.0821     -39285.928     -38950.5      
     22100   302.11789      14771.799     -39295.372     -38948.658    
     22200   293.27283      14397.252     -39291.904     -38955.341    
     22300   288.73549      7389.8548     -39288.889     -38957.532    
     22400   296.17074     -1145.9727     -39284.448     -38944.559    
     22500   310.22075      17664.263     -39275.053     -38919.04     
     22600   325.18781      13716.163     -39293.655     -38920.466    
     22700   288.47479      18793.046     -39294.15      -38963.093    
     22800   303.15325      27777.789     -39318.559     -38970.656    
     22900   293.29335      10402.934     -39311.312     -38974.725    
     23000   337.27974      2921.1774     -39378.902     -38991.836    
     23100   314.60341     -3096.841      -39394.285     -39033.243    
     23200   286.34116      10734.719     -39384.75      -39056.142    
     23300   280.36         8145.3906     -39387.735     -39065.991    
     23400   284.09879      7400.6017     -39388.481     -39062.446    
     23500   319.7379       10155.347     -39398.92      -39031.985    
     23600   316.86881      21820.213     -39389.52      -39025.877    
     23700   286.21296      11235.089     -39362.908     -39034.447    
     23800   277.31405      4299.946      -39379.418     -39061.17     
     23900   270.64428      14965.555     -39389.744     -39079.15     
     24000   264.9234       3786.3012     -39369.081     -39065.052    
     24100   300.33213      1655.1906     -39383.679     -39039.014    
     24200   315.91592      8217.2982     -39393.024     -39030.475    
     24300   289.62349      3510.759      -39373.191     -39040.816    
     24400   294.3329       9103.7664     -39390.046     -39052.266    
     24500   287.89755      1711.8252     -39407.091     -39076.696    
     24600   289.48101      6092.1579     -39423.576     -39091.364    
     24700   294.01482      13245.609     -39403.399     -39065.984    
     24800   304.8143       11372.689     -39391.287     -39041.478    
     24900   312.79724      17442.242     -39392.057     -39033.087    
     25000   303.94814      5049.5234     -39395.588     -39046.774    
     25100   298.77914      3016.7696     -39413.487     -39070.604    
     25200   297.92734     -9564.5956     -39415.775     -39073.87     
     25300   286.37324     -153.56646     -39396.893     -39068.247    
     25400   287.49932      12993.952     -39391.157     -39061.219    
     25500   283.49351      4312.1956     -39377.835     -39052.495    
     25600   326.13204      10463.354     -39398.821     -39024.548    
     25700   322.80427      24173.424     -39399.248     -39028.794    
     25800   295.39152      10125.027     -39405.534     -39066.539    
     25900   277.02232      6004.4167     -39388.606     -39070.692    
     26000   312.47232      24045.761     -39420.921     -39062.324    
     26100   314.76449      11993.491     -39429.501     -39068.274    
     26200   299.22599      6162.9743     -39428.326     -39084.931    
     26300   285.5799      -9332.3256     -39425.066     -39097.331    
     26400   285.23232     -1473.6005     -39404.297     -39076.961    
     26500   317.33873     -78.131223     -39412.762     -39048.581    
     26600   314.6317       10435.447     -39419.602     -39058.527    
     26700   289.16555      11543.5       -39404.142     -39072.292    
     26800   297.32334     -214.12613     -39415.797     -39074.585    
     26900   332.61288     -537.88835     -39423.56      -39041.85     
     27000   317.45432      19338.036     -39411.576     -39047.261    
     27100   318.80759      7251.6474     -39450.065     -39084.198    
     27200   310.47297     -839.56111     -39449.769     -39093.466    
     27300   292.50856      11711.634     -39439.506     -39103.82     
     27400   291.05556      20705.197     -39459.737     -39125.719    
     27500   308.71156      6182.5168     -39505.063     -39150.782    
     27600   306.50076      1391.5677     -39508.928     -39157.184    
     27700   307.55846      8786.3981     -39472.411     -39119.454    
     27800   318.5156       5897.2262     -39463.051     -39097.518    
     27900   309.50465      18714.544     -39477.931     -39122.74     
     28000   278.56932      10176.372     -39461.303     -39141.613    
     28100   284.93361      18587.303     -39466.757     -39139.764    
     28200   334.14058      14062.708     -39505.922     -39122.458    
     28300   308.59666      8251.4418     -39465.722     -39111.573    
     28400   289.17651      16634.8       -39447.68      -39115.817    
     28500   276.55924      6962.6096     -39446.37      -39128.988    
     28600   296.32449      18568.797     -39472.729     -39132.664    
     28700   320.606        3526.4314     -39475.143     -39107.212    
     28800   313.68721      2936.5008     -39458.015     -39098.024    
     28900   310.00927      6572.5028     -39491.544     -39135.774    
     29000   287.6654       9264.2095     -39482.776     -39152.648    
     29100   290.66896      12041.782     -39487.441     -39153.866    
     29200   308.44497      5822.234      -39501.682     -39147.707    
     29300   293.54701      2313.2006     -39467.517     -39130.639    
     29400   310.57678      173.06663     -39459.304     -39102.882    
     29500   312.82256      1747.5113     -39470.748     -39111.749    
     29600   285.00406     -511.14934     -39476.088     -39149.014    
     29700   306.8497       3640.6805     -39506.833     -39154.689    
     29800   303.10617      9404.8714     -39506.911     -39159.062    
     29900   292.84426      10987.639     -39487.187     -39151.115    
     30000   309.00613     -10203.19      -39480.329     -39125.71     
     30100   322.50111      15794.493     -39484.486     -39114.38     
     30200   296.37237      10986.928     -39473.793     -39133.673    
     30300   284.96315      6724.6006     -39495.623     -39168.596    
     30400   304.1023       11797.023     -39518.31      -39169.318    
     30500   290.99052      10577.753     -39481.924     -39147.98     
     30600   302.88195      14743.322     -39478.793     -39131.202    
     30700   309.68647      6625.0778     -39492.889     -39137.489    
     30800   268.14361      1203.118      -39485.859     -39178.134    
     30900   299.95285      8085.9485     -39525.789     -39181.56     
     31000   299.79685      1324.2325     -39506.366     -39162.316    
     31100   306.8493       5742.4381     -39488.613     -39136.469    
     31200   305.44568     -6159.2299     -39479.505     -39128.972    
     31300   299.83804      9260.4755     -39485.803     -39141.705    
     31400   304.10758      26393.472     -39502.523     -39153.526    
     31500   302.9191       4330.6492     -39505.816     -39158.182    
     31600   304.47866      13994.612     -39498.266     -39148.843    
     31700   321.16145     -1520.374      -39493.202     -39124.634    
     31800   311.15324      4348.1269     -39471.169     -39114.086    
     31900   300.07296      10957.625     -39484.2       -39139.833    
     32000   301.65414      1585.2772     -39506.874     -39160.692    
     32100   312.29982      11366.784     -39515.496     -39157.097    
     32200   303.78819      10909.332     -39495.657     -39147.026    
     32300   291.83935      14437.533     -39450.058     -39115.14     
     32400   339.4145       17091.053     -39486.654     -39097.138    
     32500   310.90523      20025.539     -39476.789     -39119.99     
     32600   290.59076      2979.0428     -39468.614     -39135.129    
     32700   300.47337     -607.54825     -39494.185     -39149.358    
     32800   309.52695      18606.476     -39518.493     -39163.276    
     32900   279.54613      13016.672     -39507.647     -39186.836    
     33000   278.85348      15151.343     -39536.146     -39216.131    
     33100   302.25972      4731.0698     -39542.787     -39195.91     
     33200   289.65483      8426.6204     -39506.306     -39173.894    
     33300   305.35593     -2343.1555     -39501.414     -39150.984    
     33400   293.7348      -1397.5696     -39468.891     -39131.797    
     33500   307.52657      2890.7948     -39486.797     -39133.876    
     33600   300.36132      14073.138     -39502.99      -39158.292    
     33700   283.30386      1524.3233     -39505.888     -39180.765    
     33800   280.6144       8099.1072     -39489.999     -39167.963    
     33900   302.01045      3405.9732     -39497.697     -39151.106    
     34000   301.36732      15661.161     -39492.881     -39147.028    
     34100   301.23963      417.23545     -39505.009     -39159.303    
     34200   292.27543      17016.764     -39513.388     -39177.97     
     34300   287.59523      2935.7476     -39510.564     -39180.517    
     34400   283.08031      9691.9531     -39468.75      -39143.884    
     34500   337.53249      4314.8194     -39511.869     -39124.512    
     34600   316.051       -2161.0036     -39502.395     -39139.692    
     34700   293.63168      9770.9823     -39501.418     -39164.443    
     34800   296.82901      88.575885     -39516.143     -39175.498    
     34900   289.20354      7091.9803     -39492.074     -39160.181    
     35000   286.45438      2777.2477     -39475.284     -39146.545    
     35100   319.50886      10593.64      -39509.713     -39143.041    
     35200   292.24976      9794.7999     -39485.721     -39150.332    
     35300   292.00019      16240.817     -39497.323     -39162.22     
     35400   298.16364      14319.078     -39513.797     -39171.621    
     35500   294.92933      7675.8424     -39511.844     -39173.379    
     35600   301.79868      15614.651     -39502.615     -39156.267    
     35700   291.56831     -2012.5239     -39471.022     -39136.415    
     35800   297.23961      6475.487      -39461.166     -39120.051    
     35900   318.0811       12319.387     -39488.395     -39123.362    
     36000   314.26768      20433.493     -39521.725     -39161.068    
     36100   302.54431      3872.293      -39523.582     -39176.379    
     36200   273.71294     -980.01905     -39493.166     -39179.05     
     36300   307.94141      19534.639     -39499.673     -39146.276    
     36400   291.59192      895.73099     -39471.228     -39136.593    
     36500   309.28783      2072.416      -39491.904     -39136.962    
     36600   312.34688     -10989         -39510.684     -39152.231    
     36700   284.06966      4884.6119     -39505.482     -39179.48     
     36800   305.63764      12128.457     -39532.009     -39181.255    
     36900   290.16881      15828.042     -39506.081     -39173.08     
     37000   306.70094      14871.366     -39521.204     -39169.23     
     37100   286.31657      13449.266     -39488.286     -39159.706    
     37200   304.67502      12372.095     -39498.016     -39148.367    
     37300   306.01711      3831.798      -39492.763     -39141.574    
     37400   312.00497     -857.84868     -39494.541     -39136.48     
     37500   305.79412      7433.6344     -39502.394     -39151.461    
     37600   298.78758      17008.758     -39516.397     -39173.505    
     37700   314.26624      3439.2327     -39545.745     -39185.089    
     37800   278.86339      6787.4335     -39505.545     -39185.518    
     37900   315.22488      9003.7301     -39510.495     -39148.739    
     38000   304.28424     -1376.6594     -39486.873     -39137.672    
     38100   305.522        3134.4247     -39504.161     -39153.541    
     38200   277.86682      5207.7796     -39495.308     -39176.425    
     38300   291.2986       2408.2072     -39518.235     -39183.938    
     38400   303.32013      5217.7092     -39512.543     -39164.449    
     38500   319.13182      8118.6339     -39493.242     -39127.003    
     38600   306.46306      4979.5249     -39493.955     -39142.254    
     38700   295.56509      3646.4544     -39506.716     -39167.522    
     38800   304.70976      7054.5044     -39521.41      -39171.722    
     38900   304.56275      4194.0703     -39517.21      -39167.69     
     39000   301.37993     -3401.116      -39509.062     -39163.195    
     39100   316.48724      14144.785     -39527.363     -39164.159    
     39200   294.8745       4619.1751     -39523.861     -39185.46     
     39300   283.17599      12504.749     -39531.271     -39206.295    
     39400   297.89801      15073.221     -39544.793     -39202.922    
     39500   310.53885     -7151.8365     -39528.851     -39172.472    
     39600   318.12161      2217.3972     -39516.48      -39151.4      
     39700   303.52012     -857.94196     -39515.772     -39167.449    
     39800   301.29637      3381.1525     -39531.084     -39185.313    
     39900   285.43153      1706.7956     -39526.133     -39198.568    
     40000   307.17196      1844.756      -39551.871     -39199.357    
     40100   294.23558      11527.968     -39552.001     -39214.333    
     40200   283.1412      -2511.6763     -39555.298     -39230.361    
     40300   281.24311     -6583.4842     -39537.663     -39214.905    
     40400   312.98093      9370.5031     -39540.827     -39181.647    
     40500   303.83473      9224.8375     -39526.934     -39178.25     
     40600   297.42808      18902.256     -39534.721     -39193.389    
     40700   291.89966      9879.634      -39539.725     -39204.738    
     40800   295.05676     -3072.1369     -39549.375     -39210.765    
     40900   293.41826      949.20594     -39536.915     -39200.184    
     41000   299.40011      4402.7146     -39513.329     -39169.733    
     41100   315.53383      7149.8878     -39527.473     -39165.362    
     41200   293.03857      13475.389     -39517.348     -39181.053    
     41300   281.54588      3773.0082     -39535.404     -39212.299    
     41400   288.98417      15387.76      -39552.83      -39221.188    
     41500   307.78355      17255.889     -39552.119     -39198.903    
     41600   301.32279      7154.1712     -39514.778     -39168.976    
     41700   303.36023      6256.302      -39520.164     -39172.024    
     41800   287.53716      8573.949      -39521.72      -39191.739    
     41900   273.98521      8013.5201     -39524.263     -39209.834    
     42000   295.47307      10639.66      -39539.832     -39200.744    
     42100   311.73632      8596.6727     -39523.804     -39166.052    
     42200   322.18317      9290.1081     -39525.985     -39156.243    
     42300   317.75382      6365.4823     -39532.89      -39168.232    
     42400   314.70396      9036.9429     -39546.716     -39185.558    
     42500   293.65197      12314.848     -39542.565     -39205.566    
     42600   291.50715      9171.2908     -39548.121     -39213.583    
     42700   288.27637      2039.1009     -39542.036     -39211.207    
     42800   303.40981      3572.9733     -39544.858     -39196.661    
     42900   334.76338      18332.235     -39544.719     -39160.541    
     43000   311.05181     -865.24353     -39524.317     -39167.35     
     43100   320.28094      7368.0565     -39558.688     -39191.129    
     43200   306.26264      14463.338     -39559.732     -39208.262    
     43300   278.07805      9900.8628     -39527.301     -39208.176    
     43400   306.7384       1536.7352     -39567.567     -39215.55     
     43500   288.45083      10487.007     -39559.031     -39228.001    
     43600   283.68843      5287.0995     -39554.896     -39229.332    
     43700   316.831        11133.475     -39565.77      -39202.171    
     43800   318.97197      18252.621     -39543.299     -39177.243    
     43900   312.49276      11985.961     -39534.197     -39175.577    
     44000   297.13616      6181.7073     -39539.07      -39198.073    
     44100   295.47594     -234.30622     -39565.715     -39226.623    
     44200   290.43692      13936.402     -39559.165     -39225.856    
     44300   304.03319      6749.6241     -39562.424     -39213.511    
     44400   305.97772      12529.014     -39549.773     -39198.629    
     44500   318.04129      6778.1686     -39545.687     -39180.7      
     44600   299.65297     -339.23414     -39521.509     -39177.623    
     44700   293.30215      817.1915      -39543.872     -39207.275    
     44800   283.15045      11516.432     -39550.076     -39225.129    
     44900   305.54636      5031.6261     -39575.509     -39224.861    
     45000   313.35637      8248.9896     -39558.06      -39198.449    
     45100   306.78546      12124.788     -39529.839     -39177.769    
     45200   314.97904     -3885.2024     -39548.922     -39187.449    
     45300   289.70888      14472.949     -39535.108     -39202.635    
     45400   303.60829      8641.1999     -39548.734     -39200.31     
     45500   293.39488      12330.949     -39541.204     -39204.501    
     45600   297.2956       6512.0268     -39548.555     -39207.375    
     45700   310.56039      17249.116     -39563.143     -39206.74     
     45800   326.75915      2597.5583     -39561.565     -39186.572    
     45900   307.61622      17222.678     -39525.763     -39172.739    
     46000   297.37952      5976.323      -39531.767     -39190.491    
     46100   295.68209      8043.3658     -39550.588     -39211.26     
     46200   308.45968      9754.139      -39564.738     -39210.746    
     46300   301.6119       10175.573     -39540.139     -39194.005    
     46400   317.65892      16855.598     -39523.925     -39159.376    
     46500   302.56596      6791.1086     -39517.967     -39170.739    
     46600   311.50524      20241.185     -39556.88      -39199.392    
     46700   291.94808      23445.394     -39545.238     -39210.195    
     46800   309.11826      13171.412     -39562.561     -39207.813    
     46900   296.12622      285.08748     -39544.243     -39204.405    
     47000   300.25756      11675.539     -39539.921     -39195.342    
     47100   313.99896      5099.4379     -39543.97      -39183.621    
     47200   298.42165     -6946.864      -39534.747     -39192.275    
     47300   292.70245      4596.9921     -39553.57      -39217.661    
     47400   306.38819      12890.107     -39573.252     -39221.637    
     47500   297.2014       8845.3124     -39532.098     -39191.026    
     47600   317.59533      11346.503     -39532.761     -39168.285    
     47700   310.22404     -194.01294     -39536.362     -39180.345    
     47800   302.82343      993.27713     -39539.849     -39192.325    
     47900   310.86401      7605.1119     -39560.985     -39204.234    
     48000   296.90477     -3994.8999     -39556.939     -39216.208    
     48100   254.21534      5611.4341     -39512.697     -39220.957    
     48200   303.10764      10292.994     -39538.09      -39190.24     
     48300   319.67248      30746.022     -39536.527     -39169.667    
     48400   309.04736      16062.15      -39549.802     -39195.135    
     48500   305.53         8077.785      -39556.534     -39205.905    
     48600   300.89106     -355.21956     -39552.845     -39207.539    
     48700   305.17325     -1389.9918     -39565.371     -39215.151    
     48800   285.93107     -1310.456      -39534.881     -39206.743    
     48900   320.88848      6293.1855     -39537.28      -39169.025    
     49000   324.41917      2211.2289     -39543.038     -39170.73     
     49100   292.48942      7184.9647     -39535.956     -39200.292    
     49200   289.25599      3630.883      -39544.885     -39212.932    
     49300   303.95418      3202.068      -39554.463     -39205.641    
     49400   318.68958      4326.9314     -39571.795     -39206.063    
     49500   289.72251      10119.528     -39576.859     -39244.37     
     49600   296.61513      10301.653     -39589.534     -39249.135    
     49700   278.59517      11468.745     -39547.864     -39228.145    
     49800   293.11484      2115.6694     -39549.087     -39212.705    
     49900   308.62994      14822.283     -39562.407     -39208.219    
     50000   302.83067      5439.3987     -39554.28      -39206.748    
     50100   295.61081      10184.96      -39550.208     -39210.962    
     50200   292.99926      2373.7342     -39568.337     -39232.087    
     50300   275.28393      11280.849     -39558.316     -39242.397    
     50400   283.89122      13068.26      -39546.13      -39220.333    
     50500   306.65512      10098.697     -39549.808     -39197.887    
     50600   315.53455      13401.233     -39570.056     -39207.944    
     50700   326.71509      11794.523     -39618.062     -39243.119    
     50800   306.90028      300.77098     -39621.539     -39269.336    
     50900   283.37722     -3788.6496     -39610.519     -39285.312    
     51000   313.8691       14279.228     -39647.903     -39287.703    
     51100   276.58607      17214.349     -39605.424     -39288.011    
     51200   313.28287      1092.369      -39632.727     -39273.2      
     51300   306.0409       815.78051     -39599.694     -39248.478    
     51400   342.79579     -399.76135     -39657.862     -39264.465    
     51500   302.33407      9933.8349     -39640.983     -39294.021    
     51600   290.80866      16686.606     -39629.531     -39295.796    
     51700   312.62104      10335.68      -39643.477     -39284.709    
     51800   306.0191       8116.0223     -39611.522     -39260.331    
     51900   317.47914      8200.7699     -39612.346     -39248.003    
     52000   298.12233      7043.435      -39594.466     -39252.338    
     52100   306.64489      10484.013     -39639.567     -39287.657    
     52200   288.40995      11689.436     -39635.403     -39304.42     
     52300   287.01756      4854.0153     -39622.357     -39292.972    
     52400   306.93318      14343.406     -39621.709     -39269.469    
     52500   304.23277      17245.922     -39620.289     -39271.148    
     52600   296.44829      15918.98      -39648.467     -39308.259    
     52700   293.21312      12566.051     -39663.162     -39326.667    
     52800   289.19178      3674.9713     -39634.071     -39302.191    
     52900   271.67143      11873.994     -39590.482     -39278.709    
     53000   309.90764     -3716.778      -39623.521     -39267.867    
     53100   280.47098      3762.8061     -39607.673     -39285.801    
     53200   294.77851      24217.714     -39657.306     -39319.015    
     53300   296.81494      5737.1134     -39658.63      -39318.001    
     53400   299.54373      28.484959     -39653.116     -39309.356    
     53500   303.20113      8429.2275     -39650.123     -39302.166    
     53600   310.26093      20185.771     -39646.596     -39290.537    
     53700   302.67418      11938.486     -39627.003     -39279.651    
     53800   296.2494      -4163.9566     -39636.74      -39296.761    
     53900   303.21151     -6739.7055     -39673.301     -39325.331    
     54000   280.05955      8229.4748     -39649.846     -39328.446    
     54100   299.36593      6886.8193     -39652.495     -39308.939    
     54200   312.47886     -4555.3121     -39663.706     -39305.101    
     54300   294.60198      3169.7359     -39646.071     -39307.983    
     54400   302.65028      4266.5475     -39661.795     -39314.47     
     54500   303.97297      1659.4841     -39661.56      -39312.717    
     54600   288.40881      13787.441     -39641.943     -39310.961    
     54700   322.55568     -5749.8949     -39654.193     -39284.024    
     54800   327.30048     -3280.582      -39627.876     -39252.262    
     54900   307.21643     -352.1506      -39623.654     -39271.089    
     55000   297.2099      -5519.0763     -39634.127     -39293.045    
     55100   302.43621      4242.7745     -39646.75      -39299.67     
     55200   301.01226      1590.6819     -39659.818     -39314.373    
     55300   286.95757      2308.9891     -39657.297     -39327.981    
     55400   285.95298     -7091.1117     -39679.055     -39350.892    
     55500   284.16624      2361.9803     -39684.35      -39358.237    
     55600   288.4956       5074.6525     -39651.163     -39320.082    
     55700   313.94801      4724.5143     -39663.34      -39303.05     
     55800   299.0361       12378.816     -39645.687     -39302.51     
     55900   297.01359      5189.1475     -39653.403     -39312.546    
     56000   276.70324      8380.9731     -39651.072     -39333.524    
     56100   309.49169      7100.7167     -39692.451     -39337.275    
     56200   304.46307      8403.2415     -39664.985     -39315.58     
     56300   319.67233      15783.847     -39655.431     -39288.571    
     56400   311.11132      11830.97      -39643.132     -39286.097    
     56500   287.00193      9727.6355     -39640.643     -39311.276    
     56600   302.94017      8838.7174     -39675.738     -39328.08     
     56700   287.51721      5689.3581     -39648.067     -39318.109    
     56800   317.99459      13872.085     -39677.151     -39312.217    
     56900   299.0087       4735.8908     -39655.238     -39312.092    
     57000   288.02471      137.41092     -39635.541     -39305        
     57100   313.87344      14868.831     -39633.312     -39273.108    
     57200   317.01866      10832.102     -39632.232     -39268.418    
     57300   300.61078      1082.7085     -39648.802     -39303.817    
     57400   280.94355      12823.838     -39641.769     -39319.354    
     57500   290.96659      289.22167     -39645.247     -39311.331    
     57600   298.2922       11441.323     -39638.742     -39296.419    
     57700   312.22246      14037.089     -39637.799     -39279.488    
     57800   306.7416       8984.7227     -39637.627     -39285.607    
     57900   281.63921      3885.4397     -39647.048     -39323.836    
     58000   291.89075      6304.7375     -39661.859     -39326.882    
     58100   315.36086      7085.7817     -39674.397     -39312.485    
     58200   296.83506      13597.228     -39627.36      -39286.708    
     58300   318.33009     -2561.3557     -39635.19      -39269.87     
     58400   286.24802     -11237.389     -39642.495     -39313.993    
     58500   293.8643       6685.8457     -39669.811     -39332.569    
     58600   305.82132      1704.1113     -39673.396     -39322.432    
     58700   294.18756      3658.19       -39636.718     -39299.104    
     58800   307.28033     -2055.8811     -39634.193     -39281.555    
     58900   305.00744      16311.424     -39639.214     -39289.184    
     59000   283.36056      19837.03      -39645.694     -39320.506    
     59100   299.15538      7065.0168     -39685.281     -39341.967    
     59200   288.25125      6566.6303     -39666.063     -39335.262    
     59300   304.76249      7401.358      -39667.23      -39317.481    
     59400   301.24699      5067.1046     -39642.681     -39296.966    
     59500   307.22184      1849.4442     -39655.714     -39303.142    
     59600   284.44602      11253.064     -39654.884     -39328.45     
     59700   294.02605      3859.9372     -39692.531     -39355.103    
     59800   285.94921      13134.775     -39670.552     -39342.393    
     59900   282.4571      -2810.8516     -39647.548     -39323.397    
     60000   296.45433      15294.374     -39654.73      -39314.516    
     60100   297.30068      15099.795     -39650.122     -39308.936    
     60200   290.68899      951.22557     -39631.473     -39297.875    
     60300   295.05883     -5369.1473     -39637.791     -39299.178    
     60400   294.51246      2190.228      -39640.017     -39302.031    
     60500   301.83565      555.52983     -39641.675     -39295.285    
     60600   311.48263      10043.005     -39644.969     -39287.507    
     60700   309.85801     -8085.1124     -39662.337     -39306.74     
     60800   281.9389       4699.4554     -39658.531     -39334.975    
     60900   279.3432       11490.367     -39656.108     -39335.531    
     61000   315.93175      5264.7481     -39675.935     -39313.368    
     61100   300.71743      8802.6863     -39647.754     -39302.647    
     61200   311.04999      3694.3823     -39666.079     -39309.114    
     61300   302.9483       4500.2705     -39666.786     -39319.119    
     61400   292.34987     -2902.5894     -39663.385     -39327.881    
     61500   297.36797      8886.2773     -39666.449     -39325.186    
     61600   315.58407      12974.753     -39662.994     -39300.826    
     61700   314.22744      12434.414     -39645.589     -39284.978    
     61800   302.86779      7154.5345     -39634.951     -39287.376    
     61900   308.50395     -2762.2223     -39663.472     -39309.429    
     62000   265.68171      9025.5694     -39638.613     -39333.713    
     62100   296.93368      21755.222     -39661.334     -39320.569    
     62200   294.42134      13929.288     -39635.413     -39297.532    
     62300   319.85792     -901.47297     -39641.659     -39274.586    
     62400   318.12438     -5934.7995     -39654.108     -39289.024    
     62500   296.22139      6737.0834     -39646.679     -39306.732    
     62600   293.92712      607.2356      -39658.977     -39321.663    
     62700   275.08602      7512.8232     -39649.057     -39333.365    
     62800   311.10652      4196.349      -39664.81      -39307.78     
     62900   312.99397      8157.4027     -39640.039     -39280.844    
     63000   294.56357      6144.5052     -39624.745     -39286.7      
     63100   301.16359      1798.002      -39647.857     -39302.238    
     63200   295.60583      11793.765     -39669.096     -39329.855    
     63300   287.29211      4249.1241     -39688.48      -39358.78     
     63400   270.19233      8410.5948     -39658.595     -39348.519    
     63500   306.52573      425.78826     -39675.584     -39323.811    
     63600   289.56849      9554.8087     -39641.322     -39309.01     
     63700   308.99241      11.09942      -39650.391     -39295.787    
     63800   284.7725       16436.961     -39627.877     -39301.068    
     63900   299.40659      2983.7133     -39667.813     -39324.211    
     64000   285.75215     -2234.4038     -39675.721     -39347.788    
     64100   303.02734      895.52285     -39683.788     -39336.03     
     64200   289.37127      22148.93      -39635.654     -39303.568    
     64300   296.44768      12708.716     -39636.188     -39295.981    
     64400   294.30999     -1267.516      -39634.959     -39297.205    
     64500   302.44294      16322.722     -39657.283     -39310.196    
     64600   295.3357       8752.5391     -39676.671     -39337.74     
     64700   267.54658     -2451.4417     -39652.089     -39345.049    
     64800   295.29448      5003.8926     -39642.401     -39303.517    
     64900   308.17676      24331.256     -39647.258     -39293.591    
     65000   295.97331      4202.5944     -39653.053     -39313.39     
     65100   296.56262      12312.004     -39664.29      -39323.952    
     65200   293.38501      8255.0347     -39665.268     -39328.576    
     65300   288.57342      4394.5292     -39663.119     -39331.948    
     65400   316.80819      361.77342     -39684.893     -39321.32     
     65500   304.0356       9265.5098     -39658.007     -39309.092    
     65600   299.02584      1184.1702     -39657.316     -39314.15     
     65700   296.3916       13069.189     -39678.3       -39338.158    
     65800   296.39183      797.54291     -39691.673     -39351.53     
     65900   272.75284      3691.5719     -39673.602     -39360.587    
     66000   298.54399      6117.817      -39671.514     -39328.902    
     66100   307.73991      9338.3609     -39659.648     -39306.482    
     66200   305.8149       4274.7681     -39648.931     -39297.974    
     66300   314.89663      9944.0555     -39671.53      -39310.151    
     66400   281.34298      13031.29      -39661.591     -39338.719    
     66500   291.03865      10766.135     -39674.322     -39340.322    
     66600   308.10119      8875.8103     -39682.996     -39329.415    
     66700   304.2899       15743.959     -39671.224     -39322.017    
     66800   310.51105      3070.7722     -39674.158     -39317.812    
     66900   311.61108      2188.5856     -39686.522     -39328.914    
     67000   296.49957     -1727.8811     -39699.397     -39359.131    
     67100   295.22294      4708.935      -39711.442     -39372.64     
     67200   295.02532      785.70081     -39711.123     -39372.549    
     67300   300.24615      12615.315     -39686.599     -39342.033    
     67400   302.76149      18089.195     -39673.427     -39325.974    
     67500   317.62621      5266.5164     -39689.832     -39325.32     
     67600   306.45657      5117.7606     -39697.808     -39346.114    
     67700   286.50198      17455.626     -39685.671     -39356.878    
     67800   292.65663      15421.5       -39693.887     -39358.031    
     67900   305.67088      12203.324     -39696.114     -39345.323    
     68000   301.57257      25020.819     -39690.406     -39344.318    
     68100   286.66922      5011.8463     -39695.079     -39366.094    
     68200   277.42554     -7221.8524     -39705.338     -39386.961    
     68300   304.4452       93.285363     -39721.175     -39371.79     
     68400   297.84343      12658.491     -39681.107     -39339.298    
     68500   307.6913       5266.0253     -39687.731     -39334.62     
     68600   312.33058     -4984.2004     -39707.67      -39349.236    
     68700   293.03297     -988.96502     -39708.752     -39372.464    
     68800   269.63686     -3338.6686     -39685.964     -39376.526    
     68900   311.71047      16858.47      -39689.109     -39331.386    
     69000   299.91094      13072.26      -39664.54      -39320.359    
     69100   328.32124      8901.945      -39710.784     -39333.998    
     69200   292.92671      19288.206     -39700.821     -39364.654    
     69300   291.93742      10993.053     -39705.216     -39370.185    
     69400   300.79239     -1556.7561     -39699.458     -39354.265    
     69500   300.07827     -4522.6285     -39675.414     -39331.041    
     69600   309.26223      479.14444     -39688.603     -39333.69     
     69700   275.68057      15726.292     -39661.772     -39345.397    
     69800   312.22351      4806.4546     -39709.721     -39351.41     
     69900   290.70075      12603.115     -39698.004     -39364.393    
     70000   284.17903     -3168.3057     -39707.006     -39380.879    
     70100   299.09601      609.71504     -39713.82      -39370.573    
     70200   311.53533      20503.414     -39696.973     -39339.451    
     70300   308.4606       15077.498     -39690.433     -39336.44     
     70400   277.549        11840.723     -39661.476     -39342.957    
     70500   297.49666      9567.0387     -39705.678     -39364.267    
     70600   284.95909      12053.56      -39724.48      -39397.457    
     70700   264.78031      6295.3994     -39690.772     -39386.907    
     70800   308.81726      6072.3974     -39710.341     -39355.939    
     70900   317.40781      10327.202     -39710.779     -39346.518    
     71000   315.22994      15952.884     -39716.449     -39354.687    
     71100   301.49698      3326.8151     -39726.177     -39380.175    
     71200   283.16395     -387.39045     -39717.135     -39392.173    
     71300   309.51477      8421.0431     -39703.051     -39347.848    
     71400   302.50395      13222.885     -39683.796     -39336.639    
     71500   298.72213      17392.597     -39686.124     -39343.307    
     71600   286.92408     -5619.763      -39673.683     -39344.405    
     71700   304.05538      6861.9204     -39705.11      -39356.172    
     71800   264.677        3114.009      -39688.055     -39384.308    
     71900   288.66945      3533.4147     -39717.995     -39386.714    
     72000   311.59394      10124.816     -39715.718     -39358.129    
     72100   304.64463      12681.864     -39695.662     -39346.048    
     72200   309.57199      3409.3008     -39700.528     -39345.259    
     72300   295.04057     -7010.259      -39680.182     -39341.59     
     72400   307.34975      5199.7022     -39690.211     -39337.493    
     72500   305.92077      7261.152      -39693.834     -39342.755    
     72600   291.68955      2211.1711     -39700.946     -39366.199    
     72700   289.99724      5485.2262     -39705.226     -39372.422    
     72800   314.43352      9384.4535     -39720.355     -39359.507    
     72900   306.06505      16279.172     -39675.367     -39324.124    
     73000   306.18224      13537.872     -39684.389     -39333.01     
     73100   291.05712      15733.49      -39687.001     -39352.98     
     73200   300.89908      10798.113     -39706.909     -39361.593    
     73300   293.56791      10563.031     -39693.527     -39356.625    
     73400   284.80457      9675.2008     -39680.573     -39353.728    
     73500   300.36154      9251.9757     -39694.073     -39349.374    
     73600   314.32113      15953.8       -39706.334     -39345.615    
     73700   281.8272       5956.6949     -39672.381     -39348.952    
     73800   290.6557       6601.0226     -39689.819     -39356.259    
     73900   306.9962       2799.7465     -39712.969     -39360.656    
     74000   285.41006      7506.6726     -39687.237     -39359.697    
     74100   310.86562      14224.153     -39700.606     -39343.853    
     74200   328.06784      14418.531     -39709.522     -39333.027    
     74300   288.40772      17370.524     -39681.433     -39350.453    
     74400   285.79371      5076.983      -39704.135     -39376.155    
     74500   289.65709      57.274106     -39704.145     -39371.731    
     74600   304.04287      6579.1482     -39683.1       -39334.176    
     74700   303.52133      5621.493      -39673.57      -39325.246    
     74800   303.452        3125.2417     -39685.461     -39337.216    
     74900   288.68633      866.42911     -39681.548     -39350.248    
     75000   301.56591      4857.9948     -39698.489     -39352.408    
     75100   287.28752     -11049.851     -39689.07      -39359.376    
     75200   290.09533      1674.1999     -39709.528     -39376.611    
     75300   310.81265      5476.4311     -39731.37      -39374.678    
     75400   298.48977      12309.761     -39691.408     -39348.857    
     75500   310.24051      7846.9865     -39684.24      -39328.205    
     75600   279.3546       18057.86      -39653.624     -39333.034    
     75700   297.23262      16701.218     -39707.152     -39366.044    
     75800   267.51878      10148.139     -39695.416     -39388.408    
     75900   300.30598     -547.96114     -39715.709     -39371.074    
     76000   298.16348      1874.6989     -39689.782     -39347.606    
     76100   292.19448      8352.6935     -39672.199     -39336.873    
     76200   290.89882     -5252.8741     -39668.94      -39335.101    
     76300   303.00903     -998.77382     -39692.987     -39345.25     
     76400   298.53272      16093.917     -39715.644     -39373.045    
     76500   296.24524      9086.9474     -39716.545     -39376.571    
     76600   298.72407      18502.302     -39698.446     -39355.627    
     76700   321.86344      7789.5867     -39699.168     -39329.794    
     76800   307.90555      17745.836     -39685.715     -39332.359    
     76900   303.26974      8651.5702     -39692.506     -39344.471    
     77000   303.83646      5439.2797     -39703.472     -39354.785    
     77100   291.47656      15179.108     -39694.843     -39360.341    
     77200   297.38771      2680.563      -39689.596     -39348.311    
     77300   311.13367     -5651.6584     -39680.815     -39323.755    
     77400   329.2282       5054.3792     -39686.794     -39308.968    
     77500   312.65129      19024.543     -39695.554     -39336.752    
     77600   309.99969      20194.647     -39722.16      -39366.4      
     77700   313.51282      14499.477     -39730.057     -39370.266    
     77800   296.00653      3409.6724     -39702.675     -39362.974    
     77900   310.1173       90.974919     -39687.841     -39331.947    
     78000   320.17653      8686.5599     -39686.92      -39319.481    
     78100   309.89543      23558.836     -39693.343     -39337.704    
     78200   299.23437      15818.388     -39698.836     -39355.431    
     78300   295.58581      774.39518     -39702.274     -39363.056    
     78400   304.89449      6043.8232     -39714.367     -39364.467    
     78500   288.29117     -9735.6371     -39700.897     -39370.05     
     78600   299.56884      11691.872     -39702.388     -39358.599    
     78700   305.53734      7177.5613     -39677.469     -39326.831    
     78800   315.08995      9679.0886     -39683.597     -39321.996    
     78900   288.08974      6895.36       -39680.875     -39350.26     
     79000   310.92341      3687.9197     -39720.324     -39363.505    
     79100   303.06833      3142.9786     -39716.733     -39368.928    
     79200   297.9297       10933.213     -39702.533     -39360.625    
     79300   305.59636      2060.4725     -39680.204     -39329.498    
     79400   325.10695      14187.662     -39687.485     -39314.388    
     79500   302.4422       3759.2265     -39675.807     -39328.721    
     79600   296.8329       13845.783     -39682.823     -39342.174    
     79700   301.96714      8013.7661     -39696.303     -39349.762    
     79800   313.41258     -6823.2265     -39722.593     -39362.917    
     79900   302.45136      8320.7366     -39722.598     -39375.502    
     80000   291.44357      13353.258     -39712.107     -39377.643    
     80100   303.42627      18218.547     -39688.792     -39340.576    
     80200   305.53811     -16260.369     -39683.735     -39333.096    
     80300   308.79882      4594.9454     -39703.594     -39349.213    
     80400   288.16096     -3142.2133     -39698.382     -39367.685    
     80500   289.13355      3887.0782     -39710.315     -39378.502    
     80600   304.56544      4094.2109     -39685.29      -39335.767    
     80700   322.12314     -343.77334     -39687.361     -39317.689    
     80800   293.94895      8677.7416     -39675.394     -39338.054    
     80900   292.71818     -1125.0863     -39698.056     -39362.129    
     81000   299.61765     -7837.5229     -39706.888     -39363.043    
     81100   290.52798     -3016.9902     -39692.959     -39359.546    
     81200   327.43698      1419.5512     -39695.677     -39319.906    
     81300   320.97381      5108.3317     -39683.597     -39315.244    
     81400   304.49151     -4527.0577     -39695.155     -39345.717    
     81500   289.9608       7032.9883     -39693.715     -39360.953    
     81600   306.73778      8120.5841     -39710.295     -39358.279    
     81700   320.15067      3856.2579     -39716.23      -39348.821    
     81800   324.05201      8478.9759     -39697.567     -39325.681    
     81900   328.44235      8193.2604     -39683.205     -39306.28     
     82000   310.55987      15773.028     -39666.833     -39310.431    
     82100   300.86763      3869.0969     -39698.354     -39353.075    
     82200   283.6976       15761.321     -39686.221     -39360.646    
     82300   304.71438      3817.3452     -39697.642     -39347.948    
     82400   299.91983     -132.89503     -39682.215     -39338.023    
     82500   316.33895      5179.3784     -39696.594     -39333.56     
     82600   291.66712      12822.086     -39693.794     -39359.073    
     82700   284.00066     -1021.3187     -39705.34      -39379.417    
     82800   278.17419     -728.40114     -39695.724     -39376.488    
     82900   318.32885      5594.18       -39704.78      -39339.462    
     83000   308.78068      8452.8478     -39688.59      -39334.23     
     83100   297.8803       7928.2532     -39683.141     -39341.29     
     83200   295.68641      17176.963     -39700.901     -39361.568    
     83300   295.55342      18750.566     -39725.281     -39386.101    
     83400   301.29571      3110.3992     -39726.774     -39381.004    
     83500   302.08158      6039.4383     -39682.788     -39336.116    
     83600   293.32521      7287.8689     -39674.906     -39338.283    
     83700   296.14608      9468.0323     -39695.846     -39355.985    
     83800   283.89443      13907.594     -39691.262     -39365.461    
     83900   305.59167      22636.662     -39697.367     -39346.666    
     84000   308.58922      1591.0339     -39668.158     -39314.017    
     84100   303.09423      1543.2091     -39669.906     -39322.072    
     84200   308.26357     -114.24913     -39702.022     -39348.255    
     84300   298.41879      5391.0017     -39701.677     -39359.208    
     84400   293.65213     -8577.9739     -39699.236     -39362.237    
     84500   297.18623      2919.814      -39693.027     -39351.972    
     84600   330.81781      1537.2573     -39701.153     -39321.503    
     84700   330.9169       9341.468      -39709.833     -39330.069    
     84800   280.64898      9682.37       -39697.236     -39375.16     
     84900   301.20531      21905.467     -39711.486     -39365.819    
     85000   303.89408      10027.83      -39689.31      -39340.558    
     85100   297.75375     -10260.391     -39671.853     -39330.148    
     85200   302.93687      7070.2483     -39695.896     -39348.242    
     85300   288.4207       10244.927     -39706.743     -39375.748    
     85400   301.38622      14188.886     -39720.24      -39374.366    
     85500   289.43859      2774.3157     -39695.027     -39362.864    
     85600   294.16447      7396.4346     -39690.236     -39352.649    
     85700   311.11091      4381.1046     -39704.241     -39347.206    
     85800   281.67369      20163.688     -39677.726     -39354.474    
     85900   318.1185       12450.639     -39723.87      -39358.793    
     86000   298.74079     -6240.4581     -39702.586     -39359.747    
     86100   290.22271      638.89343     -39692.323     -39359.26     
     86200   302.29266     -4095.0954     -39697.456     -39350.541    
     86300   306.20523      15663.65      -39678.031     -39326.626    
     86400   304.77941      8131.6575     -39668.448     -39318.679    
     86500   317.32111      17645.661     -39707.486     -39343.324    
     86600   291.318        9350.3938     -39705.735     -39371.415    
     86700   305.79062      4837.1622     -39719.328     -39368.399    
     86800   303.01497     -512.09645     -39705.949     -39358.206    
     86900   316.37549      3343.41       -39688.734     -39325.658    
     87000   320.36661      10054.183     -39671.599     -39303.942    
     87100   310.06347      10771.157     -39671.772     -39315.94     
     87200   308.11407      4787.2103     -39686.122     -39332.527    
     87300   312.06695      11253.693     -39706.145     -39348.013    
     87400   291.09719      6938.2286     -39694.736     -39360.669    
     87500   305.94535      17615.919     -39718.905     -39367.798    
     87600   278.08094      12526.626     -39689.99      -39370.861    
     87700   301.38736      7512.6452     -39692.143     -39346.267    
     87800   325.92717      1259.1599     -39694.58      -39320.542    
     87900   306.53248      1732.1931     -39686.38      -39334.6      
     88000   310.45571      8516.4914     -39720.652     -39364.369    
     88100   278.46088     -561.5946      -39690.868     -39371.303    
     88200   301.74009      7562.573      -39701.916     -39355.635    
     88300   310.24062     -1858.7038     -39684.47      -39328.434    
     88400   317.48497      10639.47      -39689.558     -39325.208    
     88500   313.16596      3279.1821     -39696.093     -39336.7      
     88600   286.97207      3198.8971     -39677.143     -39347.81     
     88700   285.06831      7214.7721     -39684.14      -39356.992    
     88800   287.90172      10174.743     -39703.105     -39372.706    
     88900   294.0756       7203.8664     -39709.729     -39372.245    
     89000   328.86729      8761.7434     -39717.773     -39340.361    
     89100   312.423        7641.4009     -39684.539     -39325.999    
     89200   290.09041      3323.7207     -39668.277     -39335.365    
     89300   309.36011      15956.656     -39722.941     -39367.916    
     89400   280.18186      10327.958     -39712.326     -39390.786    
     89500   307.8292       12881.313     -39723.42      -39370.151    
     89600   319.17468     -3669.6531     -39711.81      -39345.521    
     89700   320.30765      6145.9479     -39708.02      -39340.431    
     89800   299.00037      7049.2006     -39694.308     -39351.172    
     89900   293.53222      6009.3757     -39724.757     -39387.896    
     90000   282.27504      1777.9164     -39722.715     -39398.773    
     90100   284.97214     -578.15372     -39710.382     -39383.344    
     90200   306.01422      4637.4699     -39709.659     -39358.474    
     90300   291.21716      992.50947     -39678.748     -39344.543    
     90400   323.90043      3907.1358     -39710.085     -39338.373    
     90500   299.29532      10265.712     -39687.986     -39344.511    
     90600   285.43108      14828.302     -39699.25      -39371.685    
     90700   290.04061      14590.67      -39725.717     -39392.863    
     90800   285.60882     -1127.5987     -39706.511     -39378.743    
     90900   299.36642     -10492.505     -39691.885     -39348.329    
     91000   309.35177     -649.31452     -39700.246     -39345.23     
     91100   308.73178      5246.8873     -39711.033     -39356.729    
     91200   304.25285      10122.703     -39719.325     -39370.161    
     91300   283.38526     -5101.548      -39704.613     -39379.397    
     91400   305.2915       9221.2913     -39722.415     -39372.059    
     91500   297.53296      3329.9233     -39680.315     -39338.863    
     91600   297.1368       8770.5746     -39664.329     -39323.331    
     91700   315.86089      14943.145     -39686.027     -39323.541    
     91800   299.13514      4161.7        -39702.821     -39359.53     
     91900   284.52195      1472.8848     -39697.618     -39371.097    
     92000   286.35985      1019.6166     -39681.201     -39352.571    
     92100   306.16251      12398.816     -39693.425     -39342.069    
     92200   315.28404      4215.7157     -39711.494     -39349.67     
     92300   300.22213      4649.5485     -39723.651     -39379.112    
     92400   288.56069      7430.4498     -39724.737     -39393.581    
     92500   294.33614      10160.533     -39710.372     -39372.589    
     92600   305.45862      5387.2034     -39693.838     -39343.29     
     92700   293.40428      3052.7814     -39680.855     -39344.141    
     92800   301.89338     -21.333794     -39709.691     -39363.235    
     92900   289.80743      4978.9453     -39713.873     -39381.287    
     93000   294.41339      8442.8526     -39701.83      -39363.957    
     93100   321.23998      18033.947     -39698.145     -39329.486    
     93200   286.55622      4336.6706     -39663.474     -39334.619    
     93300   311.21193      6244.3104     -39708.775     -39351.625    
     93400   302.04425      3029.3442     -39713.592     -39366.963    
     93500   281.4124      -7187.6688     -39708.939     -39385.987    
     93600   284.07162      14397.399     -39717.829     -39391.825    
     93700   300.82016      9392.2636     -39700.023     -39354.798    
     93800   307.73495      4090.3031     -39692.454     -39339.293    
     93900   289.43358      12797.621     -39669.854     -39337.696    
     94000   288.51426      933.44183     -39682.748     -39351.645    
     94100   284.53718      5135.5658     -39707.604     -39381.066    
     94200   277.26209      16900.806     -39704.457     -39386.268    
     94300   314.53119      14356.498     -39709.151     -39348.191    
     94400   300.78207      16938.628     -39679.774     -39334.592    
     94500   300.35379      11689.768     -39682.628     -39337.938    
     94600   296.98593      1329.3751     -39695.997     -39355.172    
     94700   299.60474      15835.167     -39721.73      -39377.9      
     94800   287.10522      11854.274     -39717.071     -39387.586    
     94900   295.18734      15560.57      -39696.405     -39357.645    
     95000   288.58564     -1247.4933     -39660.43      -39329.245    
     95100   327.1534       6912.1757     -39705.834     -39330.389    
     95200   292.71501      5181.3089     -39690.953     -39355.03     
     95300   283.03102      7452.9365     -39692.144     -39367.334    
     95400   299.68574      8954.4633     -39718.373     -39374.451    
     95500   304.7977       8472.159      -39714.989     -39365.2      
     95600   297.65473      7816.5971     -39681.328     -39339.736    
     95700   321.33834     -888.93908     -39701.443     -39332.671    
     95800   287.12641      1069.907      -39678.947     -39349.438    
     95900   291.9911       17762.958     -39710.906     -39375.813    
     96000   287.88337      17158.86      -39704.475     -39374.097    
     96100   303.38206      20776.165     -39676.933     -39328.768    
     96200   327.56604      22006.62      -39702.244     -39326.325    
     96300   297.03071      14352.72      -39684.896     -39344.02     
     96400   304.1015       5608.8921     -39711.493     -39362.502    
     96500   288.9016       10666.375     -39708.699     -39377.152    
     96600   277.30659      13355.77      -39718.473     -39400.233    
     96700   274.40175      2078.5879     -39719.306     -39404.399    
     96800   301.80083      6214.9362     -39713.58      -39367.23     
     96900   300.9883       9075.2688     -39691.314     -39345.896    
     97000   303.97493     -1182.3651     -39686.17      -39337.325    
     97100   306.14171      6994.3023     -39685.539     -39334.207    
     97200   306.60054      7515.4718     -39714.694     -39362.835    
     97300   287.78128      4802.4477     -39717.224     -39386.963    
     97400   282.81936      2753.3675     -39703.197     -39378.631    
     97500   290.16285      8522.9073     -39694.321     -39361.327    
     97600   295.35368      5002.9088     -39686.798     -39347.847    
     97700   325.1263       4933.9375     -39722.223     -39349.104    
     97800   296.81031      16615.657     -39701.984     -39361.36     
     97900   291.17066      23677.565     -39704.551     -39370.4      
     98000   273.98603      23991.358     -39706.883     -39392.453    
     98100   270.12302      13100.667     -39696.019     -39386.022    
     98200   307.79614      6669.9434     -39703.249     -39350.019    
     98300   320.33635      2604.9215     -39705.775     -39338.154    
     98400   312.17968      4195.9705     -39698.468     -39340.207    
     98500   308.43002      3524.0472     -39724.191     -39370.233    
     98600   296.8422       2777.0944     -39730.24      -39389.58     
     98700   286.72294      2436.1207     -39709.122     -39380.075    
     98800   283.32888      5604.4006     -39689.586     -39364.435    
     98900   322.37119      14714.951     -39718.356     -39348.399    
     99000   310.60665      13497.783     -39698.509     -39342.053    
     99100   273.80755     -1603.4501     -39663.92      -39349.695    
     99200   281.75905     -20263.29      -39707.428     -39384.078    
     99300   266.11915      538.42776     -39706.811     -39401.41     
     99400   297.80213      13036.837     -39718.173     -39376.412    
     99500   290.95221      15807.878     -39689.067     -39355.167    
     99600   294.87703      2410.2181     -39681.757     -39343.353    
     99700   302.05655     -3515.9686     -39686.317     -39339.673    
     99800   314.80401     -4167.2651     -39696.733     -39335.46     
     99900   293.77654      3.8528379     -39681.087     -39343.946    
    100000   310.5          7208.0634     -39714.359     -39358.025    
    100100   284.03843      10775.721     -39703.392     -39377.427    
    100200   285.81083      37.596667     -39712.784     -39384.784    
    100300   310.51223      4749.2207     -39720.719     -39364.371    
    100400   301.98655      7803.5866     -39682.755     -39336.191    
    100500   306.20233      9801.6774     -39675.229     -39323.828    
    100600   289.91399      3658.2016     -39678.424     -39345.715    
    100700   296.52969      6313.46       -39724.709     -39384.408    
    100800   295.428        8612.8408     -39723.162     -39384.125    
    100900   300.56809      8774.3051     -39706.404     -39361.468    
    101000   307.65835      16795.695     -39697.469     -39344.396    
    101100   295.77414      3129.4162     -39690.656     -39351.222    
    101200   273.01018      8978.346      -39702.543     -39389.234    
    101300   268.18909      2671.7016     -39712.203     -39404.426    
    101400   300.78983      8593.3784     -39725.911     -39380.721    
    101500   287.94371      10501.544     -39693.238     -39362.791    
    101600   298.53763      8212.3654     -39692.398     -39349.792    
    101700   294.37623      12556.122     -39686.127     -39348.297    
    101800   313.67522      10749.133     -39704.21      -39344.233    
    101900   289.3401       9078.911      -39696.347     -39364.297    
    102000   295.88302      8138.813      -39728.398     -39388.839    
    102100   278.11789      9637.1479     -39716.255     -39397.084    
    102200   289.66359      8682.5141     -39701.519     -39369.097    
    102300   305.8318       9961.0065     -39701.645     -39350.669    
    102400   303.1314       3006.8471     -39693.253     -39345.376    
    102500   308.8201      -498.28586     -39703.008     -39348.603    
    102600   296.25853      2756.8268     -39703.874     -39363.884    
    102700   289.92135      5667.4559     -39731.351     -39398.634    
    102800   271.29565      9170.1305     -39712.533     -39401.191    
    102900   299.89715      14107.015     -39716.952     -39372.787    
    103000   292.54556      10324.367     -39698.789     -39363.06     
    103100   301.11024      21690.911     -39711.357     -39365.799    
    103200   314.19332      10019.462     -39729.458     -39368.886    
    103300   289.11185      4264.0246     -39690.472     -39358.683    
    103400   319.87278      9328.3342     -39699.121     -39332.031    
    103500   290.76043      17050.006     -39666.078     -39332.398    
    103600   288.3704       3317.9544     -39690.67      -39359.733    
    103700   290.61394      8329.6419     -39719.872     -39386.36     
[...]
    174300   288.86621      7343.2867     -39701.193     -39369.687    
    174400   320.71148      7000.1739     -39712.73      -39344.677    
    174500   310.19476      11905.801     -39700.726     -39344.743    
    174600   308.61382      4708.6051     -39709.851     -39355.683    
    174700   283.17089      263.67849     -39695.72      -39370.75     
    174800   281.80868      5946.1894     -39708.914     -39385.507    
    174900   265.99248      14033.62      -39732.58      -39427.324    
    175000   284.59919      6589.7806     -39734.929     -39408.319    
    175100   291.57409      4014.4466     -39708.609     -39373.995    
    175200   296.9413       5517.8253     -39695.352     -39354.579    
    175300   298.74175      11688.947     -39701.312     -39358.473    
    175400   288.64256      18053.97      -39708.81      -39377.56     
    175500   288.26225      6965.2566     -39723.083     -39392.27     
    175600   308.50619      7671.6436     -39725.229     -39371.184    
    175700   307.43773      12218.083     -39695.765     -39342.945    
    175800   283.39093      318.41305     -39671.05      -39345.828    
    175900   312.80311     -3399.7468     -39719.905     -39360.928    
    176000   290.60053     -3108.7316     -39728.237     -39394.74     
    176100   277.15916      14836.144     -39713.64      -39395.569    
    176200   300.526        18499.514     -39722.664     -39377.776    
    176300   311.62355      201.11424     -39718.666     -39361.043    
    176400   299.48831      18217.524     -39703.342     -39359.646    
    176500   295.40469      5415.0769     -39700.493     -39361.483    
    176600   311.2333      -2790.284      -39714.17      -39356.995    
    176700   313.28566      6385.7853     -39713.038     -39353.507    
    176800   297.07979      12009.371     -39699.997     -39359.065    
    176900   298.06185      4218.2254     -39716.448     -39374.388    
    177000   280.50305      4331.5593     -39712.616     -39390.707    
    177100   285.35751      3343.9586     -39700.267     -39372.787    
    177200   312.84109      17481.407     -39700.556     -39341.536    
    177300   299.63287      19853.794     -39690.69      -39346.828    
    177400   295.01898      11611.477     -39700.344     -39361.777    
    177500   295.35598      3882.7471     -39715.304     -39376.35     
    177600   299.72798     -3654.5622     -39732.851     -39388.879    
    177700   276.01413     -7771.7839     -39718.136     -39401.379    
    177800   283.59915      8745.3767     -39709.491     -39384.03     
    177900   299.93214      13999.204     -39699.086     -39354.88     
    178000   281.12586      13477.77      -39668.675     -39346.051    
    178100   320.91136      5594.4182     -39720.956     -39352.674    
    178200   297.50501      1123.5978     -39721.66      -39380.24     
    178300   289.65063      8168.1366     -39722.258     -39389.851    
    178400   309.71288      10280.108     -39714.501     -39359.071    
    178500   316.08596      1635.4022     -39699.557     -39336.813    
    178600   309.30512     -1440.9605     -39700.379     -39345.416    
    178700   305.48256      21486.201     -39710.069     -39359.494    
    178800   277.23831      17530.181     -39692.431     -39374.269    
    178900   279.99452      7166.8547     -39713.678     -39392.353    
    179000   291.75612     -2526.3469     -39741.045     -39406.222    
    179100   287.4666       8052.3552     -39719.166     -39389.266    
    179200   303.36524      17532.701     -39704.047     -39355.901    
    179300   322.02507      18499.97      -39710.889     -39341.329    
    179400   315.60601      6188.3752     -39706.294     -39344.101    
    179500   284.06626      6499.2087     -39698.313     -39372.315    
    179600   294.05598      2543.3079     -39723.824     -39386.362    
    179700   276.43208      5888.3562     -39700.704     -39383.467    
    179800   299.16985      11888.163     -39680.941     -39337.61     
    179900   313.8581       14845.624     -39688.811     -39328.624    
    180000   321.59967      16985.474     -39716.407     -39347.335    
    180100   272.47221      7817.8948     -39689.873     -39377.181    
    180200   295.76269      9750.3361     -39714.312     -39374.891    
    180300   297.56972      14213.268     -39707.155     -39365.661    
    180400   313.05205      6473.7895     -39702.243     -39342.981    
    180500   334.5233       792.12155     -39690.386     -39306.483    
    180600   313.07607      14346.906     -39680.752     -39321.462    
    180700   306.18414      12434.386     -39700.247     -39348.867    
    180800   296.69665     -6267.7052     -39713.437     -39372.944    
    180900   283.87825      3675.791      -39713.411     -39387.629    
    181000   275.34596      12383.446     -39707.264     -39391.273    
    181100   314.13291      11935.307     -39712.308     -39351.805    
    181200   303.3436       14001.081     -39695.608     -39347.487    
    181300   292.84966      2500.7514     -39696.006     -39359.928    
    181400   291.97301      19549.549     -39716.407     -39381.336    
    181500   280.47512      10809.098     -39724.035     -39402.158    
    181600   290.40661      8489.8166     -39714.941     -39381.667    
    181700   292.67568      12286.009     -39677.058     -39341.18     
    181800   313.03752      473.75107     -39701.217     -39341.972    
    181900   298.45025      6187.3397     -39702.923     -39360.418    
    182000   298.09704     -2974.4492     -39724.665     -39382.565    
    182100   293.8798       11765.037     -39728.315     -39391.055    
    182200   269.99105      24425.353     -39694.377     -39384.532    
    182300   308.05163      10199.306     -39695.653     -39342.129    
    182400   322.77746      17715.83      -39702.034     -39331.61     
    182500   319.10419      16190.698     -39713.577     -39347.369    
    182600   293.27593      9394.9561     -39713.661     -39377.094    
    182700   278.11825      10776.937     -39703.962     -39384.79     
    182800   283.5313       4575.0156     -39699.457     -39374.073    
    182900   312.55477      12720.326     -39711.369     -39352.677    
    183000   317.65738      26780.428     -39695.606     -39331.059    
    183100   312.06433      961.27558     -39696.125     -39337.996    
    183200   315.25285      9622.0077     -39716.821     -39355.033    
    183300   311.0064       8667.37       -39731.103     -39374.188    
    183400   285.11034      9218.2236     -39706.512     -39379.316    
    183500   301.01215      12643.417     -39702.427     -39356.982    
    183600   330.74832      15897.854     -39707.996     -39328.426    
    183700   312.98271      12638.412     -39699.578     -39340.395    
    183800   285.81377      4845.937      -39687.967     -39359.964    
    183900   284.77962      4159.6595     -39693.419     -39366.602    
    184000   296.99035      8500.1311     -39705.406     -39364.577    
    184100   314.53881      14884.841     -39714.033     -39353.064    
    184200   315.47098      13632.441     -39687.04      -39325.002    
    184300   309.91511      5564.6198     -39676.854     -39321.192    
    184400   293.96635      4422.7784     -39689.404     -39352.044    
    184500   304.19954      16202.706     -39719.688     -39370.585    
    184600   284.56722      16687.875     -39702.421     -39375.848    
    184700   309.58498      6440.4068     -39723.683     -39368.4      
    184800   303.23451      974.43918     -39691.563     -39343.567    
    184900   318.81351      4564.2085     -39679.871     -39313.997    
    185000   312.86555     -4039.123      -39689.615     -39330.567    
    185100   296.85109      9846.9421     -39699.06      -39358.39     
    185200   294.15402      22172.785     -39710.794     -39373.22     
    185300   295.59099      19677.003     -39715.516     -39376.292    
    185400   302.47632      10677.307     -39710.222     -39363.097    
    185500   295.51642     -2412.0045     -39665.112     -39325.974    
    185600   312.67978      3088.1103     -39681.411     -39322.576    
    185700   321.14353      12541.351     -39711.223     -39342.675    
    185800   290.87347      5186.4778     -39691.847     -39358.037    
    185900   294.90249      5275.0851     -39698.874     -39360.44     
    186000   304.64189      274.17775     -39722.574     -39372.963    
    186100   274.01862      6642.3435     -39717.119     -39402.652    
    186200   281.32609     -2373.2702     -39731.115     -39408.262    
    186300   288.43774      9007.7297     -39695.654     -39364.639    
    186400   293.75862      5629.8542     -39690.198     -39353.077    
    186500   313.91762      11307.286     -39714.027     -39353.772    
    186600   289.73617      19498.672     -39703.81      -39371.306    
    186700   276.91212      12325.354     -39705.117     -39387.329    
    186800   287.07046      14831.044     -39711.97      -39382.524    
    186900   299.64787      5021.1192     -39688.134     -39344.254    
    187000   305.5915       4277.6071     -39684.262     -39333.561    
    187100   309.21564      11042.509     -39701.403     -39346.543    
    187200   309.84479      22110.915     -39729.358     -39373.776    
    187300   298.90036      12376.29      -39723.241     -39380.219    
    187400   281.00507      24614.09      -39694.87      -39372.385    
    187500   286.66902      3542.0524     -39683.714     -39354.729    
    187600   311.72154      9279.114      -39702.054     -39344.319    
    187700   303.29193      14807.834     -39716.984     -39368.922    
    187800   274.43442      2210.5151     -39712.078     -39397.134    
    187900   291.79799      1574.9789     -39718.725     -39383.854    
    188000   294.49914      14275.709     -39698.972     -39361.001    
    188100   311.17127      8320.6292     -39705.542     -39348.438    
    188200   305.3056       7828.2575     -39696.138     -39345.766    
    188300   292.91215      16202.391     -39704.908     -39368.758    
    188400   292.91464      13896.328     -39726.97      -39390.817    
    188500   288.1681       13313.217     -39712.744     -39382.039    
    188600   305.90551      3674.6154     -39704.49      -39353.429    
    188700   303.82302      8264.8014     -39689.362     -39340.692    
    188800   304.76889      20809.179     -39691.955     -39342.199    
    188900   303.15676      3112.9566     -39707.725     -39359.818    
    189000   290.32802      3394.1422     -39701.764     -39368.58     
    189100   295.3954       12065.431     -39703.47      -39364.471    
    189200   313.17668      9516.4674     -39716.503     -39357.097    
    189300   317.77973      19246.216     -39712.674     -39347.986    
    189400   301.07545      7790.3359     -39697.905     -39352.387    
    189500   287.66985      6662.5965     -39702.672     -39372.538    
    189600   282.19691      12373.286     -39706.78      -39382.927    
    189700   310.94144      7907.0342     -39719.787     -39362.947    
    189800   302.43759      13740.531     -39691.492     -39344.411    
    189900   302.46377      7381.7218     -39690.931     -39343.82     
    190000   282.66707      11980.013     -39690.565     -39366.173    
    190100   275.81026      11318.949     -39697.434     -39380.911    
    190200   296.51622      22021.951     -39712.651     -39372.366    
    190300   314.80772      10135.178     -39703.61      -39342.333    
    190400   326.83426      7139.001      -39705.197     -39330.118    
    190500   302.44815      28506.001     -39707.973     -39360.88     
    190600   295.88663      11110.573     -39729.769     -39390.206    
    190700   301.21378      17100.996     -39729.045     -39383.369    
    190800   282.52258      17130.439     -39686.066     -39361.84     
    190900   317.07337      727.94288     -39708.975     -39345.098    
    191000   311.35108      2443.092      -39711.743     -39354.433    
    191100   273.45518      7628.3075     -39705.537     -39391.717    
    191200   293.36499      2302.3539     -39734.515     -39397.846    
    191300   295.68783      5860.9308     -39729.398     -39390.063    
    191400   294.92173      8209.2076     -39698.919     -39360.463    
    191500   307.90662      17048.294     -39695.885     -39342.527    
    191600   298.86311     -114.47268     -39691.601     -39348.622    
    191700   282.39582      3805.5688     -39701.601     -39377.521    
    191800   285.53611      13548.932     -39715.69      -39388.006    
    191900   305.67642      14565.909     -39727.115     -39376.317    
    192000   289.07727      12222.111     -39696.984     -39365.236    
    192100   304.69106     -262.25598     -39706.765     -39357.098    
    192200   287.43899     -7479.0481     -39679.519     -39349.651    
    192300   307.85684      3349.5313     -39690.117     -39336.817    
    192400   303.63626      13233.372     -39700.594     -39352.137    
    192500   299.64194      12948.814     -39722.351     -39378.479    
    192600   282.13917      11464.264     -39707.966     -39384.18     
    192700   312.70946      2976.7332     -39720.801     -39361.932    
    192800   286.51774      10720.974     -39668.437     -39339.625    
    192900   329.25842      17275.74      -39697.374     -39319.513    
    193000   328.2676       18653.554     -39686.867     -39310.143    
    193100   307.75158      8982.9523     -39694.382     -39341.203    
    193200   305.83306      11033.801     -39720.929     -39369.951    
    193300   298.07074      7458.8034     -39723.688     -39381.619    
    193400   297.83065      19131.056     -39714.956     -39373.162    
    193500   304.62869      15003.252     -39702.635     -39353.039    
    193600   306.64184      6859.4279     -39680.941     -39329.035    
    193700   310.16088      7876.0035     -39686.445     -39330.501    
    193800   287.55371      15535.501     -39702.135     -39372.135    
    193900   295.79567      31602.744     -39722.822     -39383.363    
    194000   292.00002      22360.536     -39716.049     -39380.947    
    194100   296.72241      13504.468     -39692.85      -39352.328    
    194200   302.09806      4944.7093     -39678.153     -39331.462    
    194300   300.11745      14053.107     -39683.572     -39339.153    
    194400   315.26258      9969.1889     -39712.828     -39351.029    
    194500   293.64756      25992.362     -39700.713     -39363.72     
    194600   297.31991      28856.576     -39714.674     -39373.466    
    194700   282.92775      3098.3595     -39710.885     -39386.194    
    194800   283.16257     -1022.5059     -39733.566     -39408.606    
    194900   283.48233      11804.18      -39720.159     -39394.832    
    195000   298.14451      9717.4603     -39707.185     -39365.031    
    195100   293.23646      11112.129     -39684.798     -39348.277    
    195200   313.29156      23158.312     -39706.134     -39346.597    
    195300   299.05716      25554.959     -39706.378     -39363.177    
    195400   284.28835      15311.93      -39723.072     -39396.819    
    195500   262.71444      8381.7713     -39711.139     -39409.645    
    195600   291.9061       12183.268     -39721.303     -39386.308    
    195700   304.8144       19698.177     -39723.562     -39373.753    
    195800   278.69558      23220.7       -39680.317     -39360.482    
    195900   309.07523      13954.299     -39692.704     -39338.006    
    196000   322.46635      13952.072     -39700.698     -39330.631    
    196100   303.06908      24121.341     -39706.943     -39359.137    
    196200   283.12573      19497.189     -39707.131     -39382.213    
    196300   303.90793      14409.057     -39722.566     -39373.798    
    196400   292.66734      2789.0916     -39700.553     -39364.684    
    196500   315.79879     -6056.6319     -39706.271     -39343.857    
    196600   313.08856      13771.793     -39675.816     -39316.511    
    196700   305.91122      7918.6643     -39682.302     -39331.234    
    196800   304.61389      9668.1434     -39720.476     -39370.898    
    196900   291.52155      17062.843     -39710.12      -39375.566    
    197000   306.76539      9677.2556     -39719.776     -39367.729    
    197100   305.21141      4817.9457     -39698.773     -39348.509    
    197200   300.3672       7857.3323     -39671.716     -39327.011    
    197300   315.52628      3104.6277     -39687.755     -39325.653    
    197400   318.1905       11614.143     -39718.879     -39353.72     
    197500   284.3182       11094.202     -39710.486     -39384.199    
    197600   299.90102      22756.839     -39730.848     -39386.678    
    197700   284.93842      34329.038     -39692.599     -39365.6      
    197800   315.80148      4611.6653     -39702.206     -39339.789    
    197900   298.36836      605.50807     -39689.078     -39346.667    
    198000   305.36921      17869.616     -39711.374     -39360.929    
    198100   296.3122       6546.3202     -39701.442     -39361.39     
    198200   310.57284      4105.3995     -39706.491     -39350.074    
    198300   307.17377     -6310.7496     -39678.409     -39325.893    
    198400   312.61079      6445.5538     -39670.831     -39312.076    
    198500   299.19763      22664.589     -39684.574     -39341.212    
    198600   297.06069      17867.455     -39702.317     -39361.407    
    198700   308.31567      12077.753     -39715.875     -39362.048    
    198800   310.29074      21981.335     -39711.341     -39355.247    
    198900   310.13768      1319.434      -39683.535     -39327.617    
    199000   325.23229     -160.10323     -39693.248     -39320.007    
    199100   299.8763       21349.728     -39702.063     -39357.921    
    199200   288.64706      28441.306     -39704.994     -39373.739    
    199300   292.1372       18983.335     -39706.653     -39371.393    
    199400   299.87523      462.25856     -39699.572     -39355.432    
    199500   312.76119      4578.9872     -39693.347     -39334.418    
    199600   314.94271      12135.433     -39671.663     -39310.231    
    199700   303.09156      2559.2568     -39678.511     -39330.68     
    199800   294.49717      3033.0493     -39700.75      -39362.781    
    199900   299.01533      12717.219     -39713.211     -39370.058    
    200000   299.62481      23288.632     -39709.007     -39365.154    
Loop time of 18670.5 on 8 procs for 200000 steps with 386 atoms

Performance: 0.463 ns/day, 51.862 hours/ns, 10.712 timesteps/s, 4.135 katom-step/s
85.3% CPU use with 4 MPI tasks x 2 OpenMP threads

MPI task timing breakdown:
Section |  min time  |  avg time  |  max time  |%varavg| %total
---------------------------------------------------------------
Pair    | 11554      | 11910      | 12352      | 261.7 | 63.79
Bond    | 0.64483    | 0.68766    | 0.74269    |   4.2 |  0.00
Neigh   | 164.52     | 167.59     | 170.29     |  16.9 |  0.90
Comm    | 3505.6     | 3949.6     | 4305.3     | 455.5 | 21.15
Output  | 5.0592     | 7.6572     | 10.051     |  65.4 |  0.04
Modify  | 2599.3     | 2606.3     | 2610.4     |   8.4 | 13.96
Other   |            | 28.32      |            |       |  0.15

Nlocal:           96.5 ave         102 max          89 min
Histogram: 1 0 0 1 0 0 0 0 0 2
Nghost:        4542.75 ave        4618 max        4470 min
Histogram: 1 0 0 1 0 1 0 0 0 1
Neighs:        65464.5 ave       68695 max       60843 min
Histogram: 1 0 0 0 1 0 0 0 0 2

Total # of neighbors = 261858
Ave neighs/atom = 678.3886
Ave special neighs/atom = 0
Neighbor list builds = 3170
Dangerous builds = 1
System init for write_data ...
WARNING: Compute rdf cutoff less than neighbor cutoff - forcing a needless neighbor list build (src/compute_rdf.cpp:179)
Total wall time: 5:11:33
