ITEM: TIMESTEP
0
ITEM: NUMBER OF ATOMS
331
ITEM: BOX BOUNDS xy xz yz pp pp pp
-8.3499999999999996e+00 1.5708700000000000e+01 -8.2042000000000002e+00
-2.0055999999999998e+00 1.3086800000000000e+01 -1.4580000000000001e-01
0.0000000000000000e+00 1.7524799999999999e+01 -2.0055999999999998e+00
ITEM: ATOMS id type x y z
1 4 -0.985234 2.18515 4.86022
2 4 -0.147071 4.30007 2.48287
3 1 0.196631 3.08032 6.00323
46 1 5.76821 0.162142 0.130763
5 1 1.95927 4.58219 2.53766
6 1 -1.26181 4.77321 1.07629
8 2 -0.136204 3.97108 6.59413
9 2 1.05735 3.3403 5.2319
10 2 0.370394 2.05167 6.65662
11 2 0.997689 0.615762 4.44465
12 2 1.67437 3.18968 2.10989
13 2 2.50598 4.64393 3.58096
14 2 2.40595 5.29511 1.76191
283 1 1.66569 1.45538 0.0803923
16 2 -2.40482 4.41562 0.983203
17 2 -0.559478 4.33786 0.247772
18 3 -0.960526 3.37841 3.4795
24 4 5.09035 0.605136 4.1662
45 1 3.28302 1.25127 4.1501
47 1 4.06357 0.397792 8.15923
174 2 -1.29196 5.18947 5.31847
51 1 2.84798 5.33466 5.94372
78 2 3.07824 1.44315 5.25678
79 2 2.63133 0.378239 3.74813
80 2 3.27263 2.1243 3.38671
162 2 3.35974 -0.130566 6.40514
82 2 4.73108 0.59543 7.15404
83 2 2.93504 0.532948 8.06468
7 2 0.593571 5.56835 3.45016
170 2 -0.367142 4.09522 8.44805
93 2 2.69007 4.5799 5.02329
4 1 -0.133457 0.451764 4.2568
95 2 2.6955 4.87628 7.0599
117 3 5.76342 0.740257 5.84849
284 2 2.71059 1.23142 0.444202
87 2 5.91902 1.97215 1.98856
266 3 5.42318 3.03941 0.404049
267 3 4.14628 5.35021 0.281784
154 1 -2.48386 5.25671 5.73801
263 4 4.72349 4.1733 1.15106
176 2 -2.56714 5.25532 6.83186
286 2 0.951081 1.5017 0.9619
311 2 1.90505 4.1893 0.608977
265 2 3.43724 3.40451 1.92278
321 2 4.97022 0.431306 0.883608
175 2 -3.20094 4.56239 5.29804
49 1 6.26398 1.57654 3.00092
161 2 0.659749 -0.292858 5.89052
316 2 -0.393285 0.471891 3.17298
15 2 -1.14407 5.89113 1.19454
183 2 0.898996 5.68804 7.18135
81 2 4.31662 -0.595864 8.64177
19 4 1.63822 1.07049 16.7599
21 4 2.5682 -1.0125 12.7708
22 4 1.2143 0.944105 11.1815
23 4 -0.635302 2.32837 13.3812
25 4 5.90743 -0.13597 16.7436
27 4 4.27334 1.45836 9.73717
29 4 4.05764 0.816501 14.6216
285 2 1.16215 -1.20375 16.6724
34 4 0.303295 4.49379 15.6475
44 1 -1.05085 0.86357 14.5626
48 1 5.71313 0.708863 10.7982
58 2 0.146032 1.56317 15.9343
60 2 -2.07549 3.06779 12.7051
198 3 1.2384 5.20234 10.2974
149 4 -0.161202 5.39556 9.53836
122 3 4.76721 2.88722 9.23394
76 2 -0.484548 -0.0293496 14.0567
84 2 6.3176 -0.0750142 10.1353
85 2 5.37147 0.253969 11.7716
171 2 2.90992 3.28703 11.2035
112 3 0.372276 0.65335 9.59013
113 3 1.46291 -0.584577 11.7243
114 3 0.344297 1.80206 12.2569
116 3 2.69228 1.73652 10.768
119 3 3.61318 0.187368 13.2057
120 3 5.02056 -0.3754 15.3023
121 3 2.85994 1.21183 15.6712
150 4 2.58198 5.02463 11.1789
125 3 4.96715 2.29229 14.3084
126 3 -0.101061 3.4741 14.5338
168 2 0.871796 -1.03149 9.52567
75 2 -1.26185 0.64258 15.6793
127 3 1.66129 4.47876 16.2393
59 2 -1.71239 2.34243 9.01362
62 2 -0.81861 4.29358 16.8523
71 2 -3.17564 3.90655 9.08566
115 3 1.60594 -1.60558 14.2405
186 2 3.6632 5.48197 9.12172
293 2 3.09304 6.92588 2.13603
143 4 -6.14912 11.8663 6.17142
144 4 -2.61549 6.92005 4.8713
146 4 -2.87335 9.102 7.11599
182 2 -0.943728 5.74641 6.97028
322 2 -1.484 12.8602 0.604378
215 1 0.0662897 11.1718 4.81913
94 2 2.21327 6.46875 5.85141
163 2 -3.85964 7.03648 3.7003
164 2 -1.44574 7.43716 3.70587
166 2 -4.35499 8.68729 7.90437
167 2 -3.10832 10.6492 6.53068
169 2 -5.9754 10.984 4.71833
184 2 -0.0637161 7.12641 8.1123
312 2 -3.10892 12.0054 3.56548
72 2 -4.78912 7.14521 7.01477
157 1 -0.0783601 5.92267 7.72439
192 3 -2.73362 8.06699 5.96236
193 3 -6.41999 10.9334 7.31216
199 3 -1.48067 9.04394 8.0684
206 4 -1.80831 9.05907 1.85342
207 4 0.677975 9.38412 4.13137
213 1 -2.15266 10.8554 2.36281
214 1 1.17474 8.18459 5.49904
294 2 1.80868 7.84949 0.949057
220 2 -1.16927 10.4386 0.833086
221 2 -2.54475 8.00939 0.650635
227 2 -1.33356 11.0853 3.29651
228 2 -3.44333 9.73301 2.67863
229 2 -2.29561 11.7082 1.52148
231 2 0.668877 7.17197 5.13571
232 2 1.0353 8.37226 6.63878
235 2 -0.300084 10.5885 5.77808
242 3 -0.647645 8.54685 2.86355
233 2 -0.668924 11.9737 4.49379
218 2 -6.39336 9.92448 2.65457
291 1 2.88399 7.51568 1.17977
281 2 -4.3645 8.17051 0.0669969
230 2 2.3042 8.10766 5.26413
302 2 -3.78711 7.72676 14.8857
64 2 -0.0359495 6.06586 15.056
204 3 1.37522 8.3787 12.7831
145 4 -2.17718 6.11537 11.8313
148 4 -4.45533 9.93398 10.8435
151 4 -1.44275 9.91564 9.53356
153 4 0.725133 9.52655 11.9106
159 1 -0.0598915 10.7871 13.0574
155 1 -0.960454 6.35238 13.3158
156 1 -4.77767 8.06376 11.3643
301 1 -3.42595 7.04938 16.6001
325 2 -2.45343 6.46998 16.5228
165 2 -2.7628 7.71059 11.4873
318 2 -6.2463 8.26273 17.3153
259 1 -6.32591 9.12885 16.6145
177 2 -0.841796 7.48853 13.0494
178 2 -0.134928 5.60001 12.9675
179 2 -1.62433 6.07933 14.2299
180 2 -4.39384 7.30375 10.5355
181 2 -4.42677 7.84617 12.4081
326 2 -0.934088 11.1836 12.3834
188 2 -0.278161 9.77145 13.8881
194 3 -3.3709 5.32216 12.5255
195 3 -5.59413 10.2358 9.7414
196 3 -4.56416 10.7874 12.0733
197 3 -1.49785 5.48776 10.5482
200 3 -1.22893 11.7058 9.11711
201 3 -2.95671 9.83291 10.2136
202 3 2.68409 5.81064 12.7024
203 3 -0.22374 9.43423 10.5463
30 4 3.36054 4.70243 17.103
258 4 -7.02837 9.94467 14.6897
275 2 -0.18589 8.34139 16.5613
260 2 -5.46583 9.04619 14.9047
262 2 -5.39842 9.78983 16.6222
320 2 -2.93902 10.6146 16.778
270 1 -0.0785257 9.5587 16.4723
274 2 -1.03898 10.2023 16.8258
280 4 -4.93335 6.55419 15.6849
328 2 -5.60279 8.44975 8.84844
303 2 -3.33737 8.11851 16.9234
319 2 -5.94068 8.14258 11.372
147 4 -6.82829 10.6041 8.77602
28 4 7.38319 1.34218 6.46378
31 4 6.11784 3.53288 8.19707
35 4 9.45412 2.01844 4.40266
37 4 11.8872 1.30706 6.19834
40 4 10.2397 4.36704 2.38663
42 4 9.89487 5.64749 7.20485
88 2 7.16811 0.910036 3.01883
55 1 11.3948 3.815 0.839249
56 1 8.38057 5.21026 6.33643
65 2 9.21984 0.694174 3.38795
69 2 9.83363 5.99099 2.80913
70 2 9.70726 4.16857 0.648259
306 2 12.6619 0.704261 1.11214
89 2 6.33681 2.54095 3.71284
109 2 8.69828 5.76316 5.30301
96 2 4.49714 5.55852 3.46341
106 2 11.687 2.72928 1.07552
107 2 12.0982 4.77414 2.17193
108 2 8.12429 4.14089 6.31847
118 3 8.19342 -0.130904 7.01275
123 3 7.0433 2.40859 7.56079
124 3 5.32712 4.64278 7.04888
128 3 8.1083 2.24152 5.23073
129 3 13.963 -0.122324 8.09083
131 3 13.3056 1.87138 5.50691
132 3 10.6578 1.67225 5.3671
133 3 12.0131 -0.548316 6.11261
137 3 9.81862 3.17812 3.39018
139 3 11.7417 1.81146 7.72191
140 3 10.47 4.35901 8.01508
26 4 8.34829 -0.619506 8.54596
264 2 5.67709 4.79554 2.44375
32 4 4.69604 5.61914 6.02463
315 2 15.0563 -0.371966 4.83097
97 2 6.08182 4.86176 4.274
313 2 10.1992 2.37866 0.198289
52 1 5.36696 5.70135 4.16154
323 2 8.72822 0.120102 1.40915
41 4 11.1779 3.00525 8.68715
304 1 13.4509 0.490555 0.386206
330 2 14.4804 0.121201 0.733996
327 2 8.74267 -1.36364 13.5563
310 2 11.3604 -0.917711 14.6116
33 4 5.9503 3.44964 13.9224
36 4 9.8402 1.35509 10.6177
38 4 9.07388 0.273467 16.2923
39 4 12.3338 -0.555639 11.1667
50 1 7.24467 4.55716 9.35061
53 1 7.48865 2.84698 12.8834
54 1 9.71363 0.212474 14.4408
90 2 8.23461 4.18991 9.00851
63 2 5.84517 3.66598 12.1764
66 2 8.94687 1.85131 12.0101
67 2 9.59893 1.77176 15.2098
68 2 12.5833 -1.25716 12.6975
77 2 13.3935 0.954894 13.9975
86 2 6.41356 1.62403 10.9634
91 2 6.86518 4.15481 10.3304
309 2 13.3378 -0.797805 14.5545
99 2 8.31833 3.62585 12.7272
100 2 7.23328 2.22926 12.0079
101 2 7.702 2.06383 13.914
102 2 10.5695 0.313978 13.6823
103 2 8.67349 0.262342 13.942
104 2 9.85801 -1.25128 15.4848
130 3 8.88519 0.413653 9.65322
134 3 7.49199 0.118853 16.5095
135 3 13.6178 0.190493 10.6266
136 3 11.0711 0.33133 11.1238
138 3 10.4271 2.66161 9.98403
141 3 6.06871 4.83025 14.682
249 4 11.1443 4.596 13.2724
250 1 11.7341 2.75657 13.1694
105 2 11.5603 2.22254 17.3634
305 2 13.5038 -0.561971 17.3064
253 2 12.0681 2.42821 12.1254
254 2 10.6248 2.39797 13.3156
20 4 14.4853 0.718442 9.34437
256 2 9.3828 4.41579 11.4738
307 1 12.4285 -1.5273 14.6611
252 2 12.4439 2.64123 14.1062
187 2 4.91182 5.23679 10.3969
300 2 2.12189 11.4696 7.52934
295 1 1.12601 12.3869 1.99014
110 2 7.63215 5.81418 6.924
61 2 5.30438 7.20925 6.33162
244 3 7.69015 9.61902 8.73604
298 1 1.47556 11.0826 8.36936
292 2 3.56635 8.41294 1.20492
234 2 1.07159 11.6606 5.05078
98 2 5.87239 6.72268 4.03833
205 4 7.90771 8.92184 2.94356
208 4 5.07939 11.926 7.15103
209 4 3.6824 10.5308 3.8235
210 4 6.43554 8.6493 8.56739
211 4 6.05456 9.67991 5.44688
212 1 7.70896 10.3026 1.63612
216 1 4.6568 11.0159 2.28968
268 4 1.46733 11.6245 0.0664912
219 2 8.65884 7.44398 2.81094
222 2 4.45206 10.7235 8.13294
223 2 3.45523 12.0215 4.59184
317 2 7.39513 11.189 2.32627
225 2 6.59688 9.42909 1.30267
226 2 8.36129 10.6017 0.610072
297 2 0.672162 11.9034 3.06584
272 2 1.5149 10.5792 1.52699
57 1 10.0515 7.39347 8.55837
236 2 4.01408 10.5461 1.48858
237 2 5.80513 10.7291 2.13763
238 2 4.53962 12.128 2.34112
243 3 2.08996 9.81305 3.48511
245 3 7.13593 9.25737 4.36085
246 3 4.58976 9.53375 4.64446
247 3 5.96438 8.55806 7.05251
248 3 6.33548 11.1786 5.95856
111 2 8.78584 7.10407 8.4773
296 2 2.1048 12.7794 2.19034
324 2 0.962058 10.1559 7.97057
43 4 5.90049 5.68638 15.9531
73 2 6.43187 7.29153 15.6926
261 2 8.13149 9.78626 16.7825
142 3 4.38305 5.77937 16.4072
158 1 3.97364 5.77631 10.1757
160 1 4.13213 7.95636 13.5482
173 2 1.58542 11.086 12.1004
185 2 3.9592 6.84519 10.3082
257 2 10.0829 6.3242 11.9308
74 2 6.87416 5.13651 17.2037
189 2 3.86663 8.91183 12.7877
190 2 4.87917 7.25947 13.0611
191 2 4.502 8.30029 14.6038
217 1 4.94713 9.42447 9.56432
239 2 4.82067 8.43428 10.171
240 2 3.9395 9.84575 9.27643
241 2 5.53794 10.0878 10.2107
92 2 7.14268 5.75773 9.22971
251 1 9.56445 5.17272 12.3108
172 2 3.01884 7.3353 15.0982
224 2 6.80227 7.04632 8.93912
269 4 4.33704 10.6283 16.4526
271 1 5.41524 8.87955 16.3082
152 4 2.43126 7.22214 13.4464
276 2 6.01918 9.32482 17.2548
277 2 6.12029 8.91845 15.3327
278 2 4.83362 7.96406 16.4961
279 3 2.82156 10.0904 16.9455
255 2 8.70575 5.32751 12.9612
331 3 10.799 5.06507 14.8524
299 2 2.04677 10.8254 9.31908
287 1 7.29825 9.10496 13.7088
288 2 6.90264 8.14972 14.1714
289 2 8.00207 8.94011 12.765
290 2 6.51184 9.90071 13.5851
282 2 9.18276 7.41141 15.7635
308 2 4.26877 10.5831 13.9958
314 2 4.0141 10.9909 10.3158
273 2 0.419988 9.93406 15.4718
329 2 10.4973 6.80136 9.47382
ITEM: TIMESTEP
100
ITEM: NUMBER OF ATOMS
331
ITEM: BOX BOUNDS xy xz yz pp pp pp
-8.3458249999999996e+00 1.5700845650000000e+01 -8.2000978999999994e+00
-2.0055999999999998e+00 1.3086800000000000e+01 -1.4572710000000022e-01
0.0000000000000000e+00 1.7524799999999999e+01 -2.0055999999999998e+00
ITEM: ATOMS id type x y z
1 4 -0.924897 2.27883 4.92902
2 4 -0.212719 4.37042 2.50166
3 1 0.289048 3.00126 6.16251
46 1 5.76477 0.199547 0.0927945
5 1 1.76058 4.73455 2.35961
6 1 -1.20181 4.8944 0.989913
8 2 -0.38304 3.83372 6.55286
9 2 1.26046 3.46162 5.63622
10 2 0.555847 2.19404 6.91361
11 2 0.9801 0.520707 4.36656
12 2 1.53251 3.37252 1.74231
13 2 2.28984 4.65525 3.31953
14 2 2.18944 5.68154 1.73095
316 2 -0.556223 0.729181 3.26293
16 2 -2.38921 4.39929 1.04879
17 2 -0.518503 4.43434 0.166868
18 3 -0.900997 3.2296 3.71222
24 4 5.0957 0.75028 4.25388
45 1 3.22429 1.33582 4.27935
47 1 3.95637 0.502147 8.21777
174 2 -1.18347 5.10267 5.23039
51 1 2.80624 5.35937 6.03338
78 2 3.11906 1.93322 5.23023
79 2 2.44101 0.425222 4.15594
80 2 3.40701 1.99934 3.30413
162 2 3.37433 -0.215593 6.47346
82 2 4.52205 0.713263 7.18654
83 2 2.82522 0.344269 7.95886
7 2 0.48731 5.70883 3.47383
170 2 -0.459718 4.16006 8.49029
93 2 2.80896 4.75828 5.09336
4 1 -0.188748 0.523418 4.34783
95 2 2.51128 4.67856 6.90011
117 3 5.6468 0.716061 5.69012
284 2 2.66653 1.36537 0.760393
87 2 5.57143 2.00753 2.03125
266 3 5.41311 3.12423 0.270556
267 3 4.19622 5.39432 0.348092
154 1 -2.23914 5.26078 5.63572
263 4 4.72023 4.23141 1.17061
176 2 -2.41424 5.2821 6.78071
286 2 0.720112 1.4942 0.298615
311 2 1.79445 4.49044 0.354172
265 2 3.30806 3.56394 1.9728
321 2 4.84122 0.298628 0.743795
175 2 -3.06468 4.64508 5.04097
49 1 6.08298 1.81846 2.99451
161 2 0.682639 -0.361996 5.91142
183 2 1.13272 5.64612 7.14676
15 2 -1.13532 6.02695 1.21134
322 2 6.8123 0.147373 0.662643
182 2 -0.828476 5.62216 7.00403
81 2 4.39529 -0.505552 8.71716
19 4 1.6114 1.17797 16.7434
21 4 2.50663 -0.998694 12.8389
22 4 1.10172 0.984225 11.2146
23 4 -0.542668 2.32106 13.4706
25 4 6.01275 -0.121355 16.783
27 4 4.25231 1.43463 9.82669
29 4 4.0744 0.897922 14.6058
285 2 1.88017 -1.07861 16.5266
34 4 0.373478 4.36408 15.6428
44 1 -0.884018 0.72578 14.5993
48 1 5.68383 0.753122 10.7602
58 2 0.0342504 1.60645 16.0373
60 2 -2.13133 2.95867 12.9972
198 3 1.26097 5.2968 10.2878
62 2 -0.598806 4.09233 17.0262
122 3 4.8652 2.84203 9.39945
76 2 -0.324617 0.0468066 13.7391
84 2 6.23505 -0.117879 10.1659
85 2 4.94501 0.369073 11.6818
171 2 2.45207 3.19881 11.1427
112 3 0.391208 0.732974 9.51053
113 3 1.35465 -0.542212 11.7708
114 3 0.210416 1.85804 12.1737
116 3 2.52715 1.6677 10.8477
119 3 3.40564 0.336239 13.3269
120 3 5.08081 -0.277191 15.3455
121 3 2.84724 1.12469 15.6884
150 4 2.53053 4.97013 11.1226
125 3 4.89975 2.27726 14.207
126 3 0.119574 3.31255 14.5184
168 2 0.967075 -0.802402 9.38629
75 2 -0.747115 0.119897 15.5329
127 3 1.81575 4.56831 16.0467
59 2 -1.69208 2.33335 9.10978
71 2 -3.06263 3.74825 9.3505
186 2 3.66587 5.34069 8.95863
283 1 1.70028 -0.458122 17.5143
293 2 2.67514 7.02117 2.17255
143 4 -6.14138 11.8045 6.31655
144 4 -2.58828 6.86264 4.77536
146 4 -2.77973 8.931 7.21184
291 1 2.70537 7.57185 1.18345
230 2 2.12115 8.27191 5.81239
215 1 0.0100386 11.088 4.70037
94 2 2.15012 6.35956 5.94765
163 2 -3.96707 6.8984 3.85661
164 2 -1.29667 7.30986 3.61183
166 2 -4.20339 8.73331 8.13702
167 2 -2.93158 10.4257 6.45662
169 2 -5.57057 11.0912 4.9211
184 2 0.0467503 7.19062 8.05089
312 2 -3.07257 12.2661 3.4345
72 2 -4.86907 7.24444 7.08773
157 1 0.0547199 5.86217 7.74541
192 3 -2.6586 7.87683 5.94043
193 3 -6.27316 10.8465 7.49764
199 3 -1.52427 9.13368 8.12841
206 4 -1.8417 9.18688 1.82774
207 4 0.673068 9.28305 4.09246
213 1 -2.05202 10.9522 2.36375
214 1 1.00936 8.16311 5.55263
294 2 1.63035 7.72328 0.872936
220 2 -1.26953 10.3803 0.699192
221 2 -2.68493 7.94153 0.721873
227 2 -1.09895 11.039 3.07096
228 2 -3.30565 10.0567 2.86203
229 2 -2.22499 11.8513 1.53087
231 2 0.633324 7.13771 5.24075
232 2 0.303851 8.71542 6.3585
235 2 -0.318996 10.5992 5.68154
242 3 -0.746175 8.48684 2.79263
233 2 -0.750269 11.7886 4.23816
218 2 -6.36531 9.95217 2.75322
302 2 -3.64956 7.74222 15.2486
64 2 -0.289518 5.86966 15.1615
204 3 1.50969 8.40886 12.5778
145 4 -2.19162 6.18771 11.8765
148 4 -4.47472 10.0092 10.9738
151 4 -1.45121 9.94993 9.60097
153 4 0.638343 9.53838 11.9115
159 1 -0.274826 10.8737 12.86
155 1 -1.00092 6.0854 13.3551
156 1 -4.93893 8.17475 11.356
301 1 -3.07575 6.66745 16.6884
325 2 -2.48448 6.06488 15.9057
165 2 -2.994 7.68414 11.4977
147 4 -6.80305 10.652 8.93172
259 1 -6.35661 9.04468 16.5063
177 2 -0.874485 7.31283 13.3394
178 2 0.0061594 5.57326 13.3031
179 2 -1.68434 5.73413 14.1732
180 2 -4.48327 7.37445 10.607
181 2 -4.56373 8.01861 12.4076
326 2 -1.08875 11.2467 12.183
188 2 -0.754978 10.0174 13.5958
194 3 -3.32543 5.21206 12.388
195 3 -5.58916 10.2669 9.85356
196 3 -4.76138 10.9281 12.2346
197 3 -1.4273 5.81129 10.52
200 3 -1.19981 11.5629 9.28802
201 3 -2.88568 9.83891 10.4042
202 3 2.45904 5.65602 12.6107
203 3 -0.211136 9.26156 10.6285
30 4 3.35164 4.79157 17.175
258 4 -6.9223 9.85693 14.7975
275 2 -0.00518647 8.6719 16.1449
260 2 -5.57273 8.65051 14.8686
262 2 -5.36075 9.58704 16.7352
320 2 -2.71003 10.5597 16.7976
270 1 0.0226729 9.9173 16.3398
274 2 -0.935186 10.3479 16.8153
280 4 -4.80271 6.48549 15.7714
115 3 -6.29511 11.2297 14.2716
303 2 -2.8709 7.75042 16.7398
328 2 -5.54495 8.48545 9.03801
149 4 -0.0741848 5.55489 9.57788
329 2 -4.82382 6.79397 9.39841
281 2 -4.59203 5.96323 17.5163
28 4 7.24252 1.35913 6.49932
31 4 6.09926 3.52324 8.25442
35 4 9.43032 1.92424 4.39869
37 4 11.8992 1.29999 6.29384
40 4 10.2625 4.26051 2.39226
42 4 9.86079 5.65898 7.23764
330 2 14.4548 0.514065 0.717919
55 1 11.4683 3.67666 0.944007
56 1 8.47177 5.26224 6.1855
65 2 9.10742 0.589596 3.36988
69 2 9.84781 5.77389 2.86537
70 2 9.6981 3.85517 0.662736
306 2 12.7243 0.827258 1.22818
89 2 6.41483 2.77738 3.53017
323 2 8.83105 0.0588653 1.52923
96 2 4.63114 4.99929 3.89336
106 2 11.6712 2.57281 1.25321
107 2 12.0566 4.74392 2.30985
108 2 8.39526 4.1516 5.80636
118 3 8.19452 0.110546 7.09153
123 3 6.95587 2.31886 7.67884
124 3 5.39734 4.62281 7.00209
128 3 8.13571 2.14896 5.228
129 3 14.0114 -0.291153 8.20977
131 3 13.3038 1.91996 5.73586
132 3 10.7082 1.48924 5.1952
133 3 11.963 -0.579404 6.40212
137 3 9.84343 3.18947 3.48072
139 3 11.6596 1.96886 7.71944
140 3 10.6332 4.41149 7.92314
26 4 8.44444 -0.501557 8.59157
264 2 5.64155 4.72105 2.49175
32 4 4.77453 5.71954 6.06961
315 2 15.0382 -0.434407 4.78802
97 2 6.42679 4.8896 4.63244
313 2 10.3304 2.2913 0.0934492
52 1 5.55068 5.5916 4.34189
110 2 7.61885 5.66893 6.96839
41 4 11.2829 3.15642 8.68879
304 1 13.4039 0.753197 0.358246
88 2 6.96868 1.03802 2.92021
327 2 8.54639 -1.40743 13.4572
310 2 11.4258 -0.990497 14.567
33 4 5.92745 3.4355 13.7622
36 4 9.86466 1.2662 10.6755
38 4 9.19112 0.017377 16.2428
39 4 12.3754 -0.517619 11.2674
50 1 7.15441 4.55977 9.47317
53 1 7.49942 2.9189 12.7896
54 1 9.71649 0.000879136 14.32
90 2 8.16487 4.18125 9.07725
63 2 5.84094 3.73285 12.1022
66 2 8.98058 1.92986 11.9812
67 2 9.66204 1.5177 15.3551
68 2 12.7791 -1.11205 12.8745
77 2 13.6221 0.94727 14.3607
86 2 6.30996 1.65611 11.0933
91 2 6.79112 4.0111 10.405
309 2 13.4073 -0.787634 14.7035
99 2 8.34427 3.7371 12.4472
100 2 7.23969 2.32781 11.8178
101 2 7.76018 2.21954 13.9029
102 2 10.6107 0.0234005 13.6376
103 2 8.72305 0.1776 13.8106
104 2 9.86414 -1.43666 15.2872
130 3 8.91546 0.387727 9.77531
134 3 7.63086 -0.123665 16.5363
135 3 13.6112 0.196262 10.6876
136 3 11.0076 0.334089 11.2709
138 3 10.44 2.57505 9.92048
252 2 12.1919 2.56001 14.1771
249 4 11.0969 4.55888 13.203
250 1 11.6366 2.71332 13.1529
187 2 4.81933 5.00247 10.4289
305 2 13.1639 -0.35914 17.1103
253 2 12.1513 2.1923 12.3394
254 2 10.4218 2.39264 13.2121
20 4 14.4932 0.697734 9.39378
256 2 9.60156 4.3913 11.0645
307 1 12.5747 -1.57008 14.7631
251 1 9.64496 5.1533 11.9876
105 2 11.8652 2.01589 17.5174
300 2 2.23063 11.6339 7.53974
295 1 1.31141 12.2995 1.93595
268 4 1.51044 11.7233 0.0463509
61 2 5.53702 7.2432 6.48744
324 2 0.993545 10.3259 8.4055
298 1 1.65137 11.2864 8.49085
292 2 3.34988 8.58243 1.08686
234 2 1.01752 11.5972 4.79571
98 2 5.85078 6.56057 3.83309
205 4 7.93291 8.9593 3.02563
208 4 5.14389 11.9251 7.09383
209 4 3.73105 10.5156 3.81124
210 4 6.3659 8.74678 8.69643
211 4 6.08345 9.61342 5.43554
212 1 7.81986 10.4008 1.72696
216 1 4.67631 10.9599 2.29802
248 3 6.22749 11.261 5.89659
219 2 8.47127 7.39236 2.82533
222 2 4.51534 10.6215 8.00909
223 2 3.52044 11.8242 4.88635
317 2 7.43692 11.322 2.24682
225 2 6.76041 9.4139 1.38158
226 2 8.42067 10.7112 0.696468
297 2 0.826455 11.8778 3.04199
272 2 1.41296 10.4768 1.36247
57 1 10.1228 7.39943 8.71059
236 2 4.15534 10.4278 1.47723
237 2 5.88133 10.8163 2.11896
238 2 4.33134 12.1057 2.27223
243 3 2.08224 9.71624 3.50465
245 3 7.18817 9.25797 4.40626
246 3 4.61187 9.46385 4.65379
247 3 5.85363 8.70074 7.11538
109 2 8.71975 6.05126 5.28091
296 2 2.41764 12.6189 2.10291
43 4 5.858 5.7852 15.8584
73 2 6.24622 7.39215 15.4331
261 2 8.02144 10.0427 16.521
142 3 4.52948 5.74814 16.5418
158 1 3.9393 5.58224 10.0373
160 1 4.11635 7.9563 13.6016
173 2 1.34831 11.1848 11.8766
185 2 4.02006 6.69481 10.2798
257 2 9.99954 6.19602 11.6482
74 2 7.18159 5.56429 16.8433
189 2 4.09302 8.82019 12.7755
190 2 4.68714 7.0217 13.0649
191 2 4.63426 8.34962 14.5976
217 1 4.91325 9.55318 9.62914
239 2 5.01873 8.55736 10.481
240 2 3.76356 9.70017 9.20303
241 2 5.60779 10.5951 9.85659
92 2 7.08376 5.8397 9.48678
141 3 6.0328 4.95122 14.5306
172 2 2.77374 7.40636 14.9402
224 2 6.74781 7.08426 9.13126
269 4 4.39984 10.6314 16.4956
271 1 5.56748 9.05947 16.2592
152 4 2.40452 7.22918 13.234
276 2 6.0281 9.16762 17.3175
277 2 6.28342 9.16936 15.3265
278 2 4.91307 8.09127 16.2673
279 3 2.89471 10.1789 17.0075
255 2 8.64622 5.21244 12.5132
331 3 10.9874 5.22003 14.7336
299 2 2.32518 11.3397 9.38852
287 1 7.31929 9.14941 13.5564
288 2 7.23948 8.07039 13.641
289 2 7.89754 9.43491 12.6342
290 2 6.3408 9.7059 13.6338
282 2 9.28371 7.30394 15.7123
308 2 4.61289 10.6388 14.0986
314 2 3.95623 11.083 10.518
244 3 7.69229 9.70107 8.93036
318 2 9.20876 8.13908 17.1829
273 2 0.32574 10.4583 15.3788
319 2 9.66782 8.13038 11.2358
111 2 8.9688 6.96223 8.87499
ITEM: TIMESTEP
200
ITEM: NUMBER OF ATOMS
331
ITEM: BOX BOUNDS xy xz yz pp pp pp
-1.4565419999999918e-01 2.3189986800000000e+01 7.4969955000000006e+00
-2.0055999999999998e+00 1.3086800000000000e+01 -1.4565419999999918e-01
0.0000000000000000e+00 1.7524799999999999e+01 -2.0055999999999998e+00
ITEM: ATOMS id type x y z
81 2 4.01876 -0.546177 8.64691
322 2 6.71404 0.047511 0.940431
161 2 0.847558 -0.0223982 6.00722
46 1 5.76904 0.268339 0.345692
49 1 6.11786 1.77838 3.10574
321 2 4.92873 0.566075 1.06632
265 2 3.20545 3.55925 1.7734
263 4 4.62144 4.19456 1.0057
267 3 4.15292 5.46388 0.228766
11 2 1.06937 0.71779 4.48846
266 3 5.43519 3.12109 0.254372
87 2 5.63093 2.09469 2.14284
284 2 1.83464 1.73044 1.03796
117 3 5.78511 0.833325 5.77188
83 2 2.91042 0.885411 7.98128
82 2 4.72776 0.76169 7.31584
162 2 3.46129 -0.268019 6.38476
24 4 5.09381 0.742465 4.31566
45 1 3.2819 1.34311 4.27202
47 1 3.97742 0.533544 8.16199
80 2 3.54903 2.48221 4.08248
79 2 2.71367 0.96431 3.38853
78 2 2.7634 1.18043 5.29851
28 4 7.43535 1.37184 6.47373
88 2 6.95835 0.978912 2.89204
31 4 6.11264 3.67752 8.34972
40 4 10.2411 4.23139 2.24612
123 3 7.09367 2.51707 7.61628
52 1 5.36154 5.19989 4.39892
124 3 5.46084 4.75355 7.30911
97 2 6.05357 4.37419 4.07832
56 1 8.72957 5.23402 6.0031
32 4 4.81223 5.77205 6.13492
264 2 5.3708 4.61776 2.44002
69 2 9.70031 5.8426 2.59439
140 3 10.5575 4.37434 8.01536
70 2 9.67231 3.89437 0.464755
109 2 9.24594 5.96326 5.25553
89 2 6.66374 2.68074 3.60052
96 2 4.1281 5.027 4.13481
108 2 8.69881 4.19422 5.7183
118 3 8.21797 0.116397 7.09457
128 3 8.28268 2.24668 5.30282
110 2 7.75198 5.6413 6.52348
42 4 9.83257 5.66537 7.36832
283 1 1.63831 -0.508757 17.4457
21 4 2.45126 -0.956228 13.0176
186 2 4.05741 5.07502 9.39474
168 2 0.779943 -0.878317 9.34408
25 4 5.8827 -0.115492 16.914
27 4 4.19326 1.40619 9.84111
29 4 4.0483 0.960469 14.6168
285 2 2.42791 -1.15957 16.9664
125 3 4.85926 2.27694 14.2824
121 3 2.79217 1.22214 15.7849
48 1 5.55628 0.491076 10.8961
120 3 5.19245 -0.173036 15.4107
119 3 3.39914 0.24112 13.4058
116 3 2.52294 1.55481 10.8122
113 3 1.01334 -0.373037 12.0456
122 3 4.85638 2.7413 9.34789
85 2 4.87539 -0.181195 11.4801
84 2 6.18911 -0.128016 10.1912
33 4 5.8159 3.37936 13.7619
103 2 8.53572 0.23654 14.2125
50 1 7.16808 4.67914 9.51242
256 2 9.32002 4.48965 11.258
53 1 7.41754 2.8528 12.7424
90 2 8.17657 4.16156 9.44379
63 2 5.705 3.52562 12.0714
66 2 8.84915 1.80879 11.8819
141 3 5.85206 4.76638 14.5525
86 2 6.17672 1.18391 11.5109
249 4 11.0209 4.5802 13.1929
91 2 6.6537 4.41054 10.4804
99 2 8.16269 3.74079 12.4248
100 2 7.21052 2.04713 11.9799
101 2 7.83456 2.3677 13.8698
134 3 7.74943 -0.056185 16.6628
171 2 2.85182 3.12445 11.4131
19 4 1.64096 1.18782 16.8122
286 2 0.518996 -0.84957 17.2168
218 2 9.41308 10.0369 2.68934
143 4 9.60975 11.8171 6.1911
229 2 13.3592 11.7275 1.70881
146 4 12.9023 9.06331 7.12872
228 2 12.147 9.86986 2.79561
213 1 13.4278 10.862 2.52463
193 3 9.35155 10.878 7.35336
72 2 11.1207 7.0744 7.2549
163 2 11.8127 6.76352 3.71168
312 2 12.5417 12.1545 3.59747
166 2 11.4166 8.68503 8.02344
167 2 12.5183 10.59 6.50865
169 2 9.88655 11.0044 4.81
61 2 5.09557 7.4205 6.56425
98 2 5.71415 6.26642 4.11714
226 2 8.45419 10.7227 0.850349
247 3 5.87507 8.77447 7.12562
205 4 8.01727 8.9179 3.04227
245 3 7.38451 9.1474 4.5597
210 4 6.36287 8.77196 8.65153
211 4 6.16864 9.68471 5.47726
212 1 7.85524 10.3919 1.82551
219 2 8.63855 7.36007 2.80917
57 1 10.1148 7.38482 8.62173
317 2 7.40995 11.2921 2.35462
225 2 6.78006 9.19301 1.48405
281 2 11.4565 7.96756 0.0942277
111 2 8.66119 6.83991 8.58607
302 2 12.1962 7.68169 15.2579
251 1 9.49582 5.22111 12.0825
329 2 10.6598 6.92024 9.48
328 2 10.0489 8.50797 8.80914
148 4 11.1978 10.0166 11.0403
303 2 12.9901 7.70748 16.7831
115 3 9.35691 11.2827 14.4413
280 4 11.0161 6.37308 15.8617
320 2 12.774 10.4784 17.2541
156 1 10.7095 8.15586 11.3985
262 2 9.99391 10.0253 16.9168
260 2 10.3582 8.75358 14.9893
165 2 12.6379 7.72463 11.6655
147 4 8.9039 10.7234 8.86458
259 1 9.39767 9.11478 16.5716
258 4 8.86847 9.79489 14.7023
201 3 12.7262 9.97081 10.3564
200 3 14.5055 11.5309 9.11975
180 2 11.2432 7.43608 10.6867
181 2 11.1303 8.17019 12.5209
326 2 14.5092 11.2249 12.3951
196 3 10.9981 11.0024 12.2919
195 3 10.0454 10.4014 9.94638
43 4 5.85578 5.76647 15.7722
274 2 14.7515 10.434 16.9324
319 2 9.61221 8.0498 11.409
73 2 6.14655 7.3716 15.3113
318 2 9.48448 8.3168 17.3158
244 3 7.72263 9.65526 8.99777
261 2 7.91037 9.53516 16.5838
142 3 4.54909 5.8569 16.5793
282 2 9.47221 7.29768 15.8893
158 1 4.00535 5.74703 10.3232
289 2 8.13131 9.35024 12.6232
288 2 7.15195 8.15653 13.7469
287 1 7.45761 9.28784 13.5784
257 2 9.8636 6.22147 11.6084
331 3 10.9333 5.18888 14.7386
255 2 8.71504 5.34501 12.8855
74 2 7.17923 5.52631 16.8137
92 2 7.10999 5.85249 9.27656
277 2 6.09245 9.19841 15.0614
190 2 4.8115 6.93057 13.1472
224 2 6.78285 7.17252 8.99496
290 2 6.61358 10.0005 13.6374
187 2 4.88641 5.51192 11.0562
304 1 13.6435 0.958337 0.25918
41 4 11.2462 3.05928 8.62404
35 4 9.45545 1.88767 4.37379
37 4 11.8742 1.32748 6.2188
313 2 10.4649 2.00856 0.228097
315 2 15.1573 -0.324954 5.02614
330 2 14.7746 0.879652 0.189227
55 1 11.448 3.59562 0.839977
26 4 8.43091 -0.676843 8.54666
65 2 9.08971 0.44286 3.47467
139 3 11.5402 1.89248 7.62338
133 3 12.0831 -0.4957 6.32399
306 2 13.2206 0.878303 1.27719
132 3 10.7029 1.51237 5.25855
323 2 8.60697 0.132609 1.22688
131 3 13.353 1.82892 5.6452
106 2 11.591 2.55112 1.20658
107 2 12.111 4.55834 2.16634
129 3 14.0625 -0.330772 8.09629
1 4 14.7631 2.18853 4.89609
2 4 15.507 4.26206 2.57731
137 3 9.86276 3.12257 3.29449
3 1 16.0699 2.62391 6.2392
15 2 14.5822 5.84371 1.19236
51 1 18.529 5.65378 6.22278
5 1 17.4868 4.84214 2.3568
6 1 14.4677 4.72695 0.970802
175 2 12.8324 4.61044 5.07834
8 2 15.5273 3.62143 6.51661
9 2 17.1018 2.72578 5.82679
311 2 17.5399 4.55221 0.424157
296 2 10.3834 -0.262093 2.25761
176 2 13.1669 5.41225 6.8029
10 2 15.972 1.8953 7.0767
154 1 13.4324 5.36075 5.67548
12 2 17.0865 3.28342 1.98785
13 2 18.4295 4.88806 2.96188
14 2 17.5375 5.53084 1.42847
316 2 15.331 0.319718 3.26546
16 2 13.328 4.31156 0.976479
95 2 18.5748 5.5626 7.37036
4 1 15.6103 0.51452 4.34841
174 2 14.6403 5.33231 5.45429
170 2 15.0297 4.51972 8.0892
7 2 16.2905 5.7568 3.33895
17 2 15.1569 4.3112 0.10386
18 3 14.71 3.32333 3.64793
93 2 18.2342 4.71479 5.74763
327 2 8.62716 -1.32447 13.5063
310 2 11.432 -0.915569 14.6193
307 1 12.4926 -1.42946 14.747
36 4 9.9338 1.29231 10.5948
38 4 9.2748 -0.107006 16.3815
39 4 12.3652 -0.482913 11.2869
20 4 14.3937 0.697146 9.36629
254 2 10.397 2.39533 13.2681
54 1 9.65022 0.10439 14.4734
253 2 11.9282 2.49675 12.2255
305 2 13.1314 -0.0843053 17.1922
250 1 11.5104 2.76682 13.2363
67 2 10.1446 1.39954 15.5123
68 2 12.5972 -1.36728 12.777
77 2 13.6412 0.858696 14.3856
252 2 12.1233 2.25113 14.0336
138 3 10.3603 2.6332 9.94553
309 2 13.3436 -0.728242 14.6111
136 3 11.1405 0.412415 11.3462
135 3 13.6413 0.296079 10.7234
130 3 9.03117 0.346831 9.63078
102 2 10.2751 0.115779 13.6091
104 2 9.89948 -1.48086 15.3178
112 3 15.9303 0.746212 9.57548
22 4 16.7661 0.981757 11.2701
23 4 15.1139 2.33958 13.54
71 2 12.6764 3.68151 9.25055
59 2 13.9137 2.22119 8.83214
127 3 17.4177 4.5527 16.2824
75 2 15.1327 -0.176589 15.3074
34 4 16.0658 4.25377 15.7316
126 3 15.7648 3.30469 14.5364
44 1 14.9417 0.573742 14.4725
150 4 18.2767 4.81195 11.1041
58 2 15.765 1.26125 16.0156
60 2 13.4792 2.97887 13.2513
198 3 17.0542 5.02626 10.1147
62 2 14.9061 3.87115 16.9921
114 3 15.8921 2.06553 12.1606
76 2 15.4063 0.0321291 13.5098
105 2 11.8313 1.83358 17.4326
300 2 17.2966 11.0062 7.06579
295 1 16.9509 12.3169 1.96751
268 4 17.2868 11.8336 0.0359127
184 2 15.7171 7.49082 8.39221
183 2 16.8064 6.13427 7.15138
298 1 17.4204 11.22 8.21233
292 2 19.1022 8.65974 1.07122
234 2 16.7821 11.6608 4.76365
246 3 20.4926 9.39341 4.55633
243 3 17.879 9.7094 3.60801
208 4 20.8513 11.8317 7.06358
209 4 19.5376 10.3998 3.75494
238 2 20.0484 12.0586 2.26968
237 2 21.5541 10.6698 1.98083
236 2 19.5475 10.4088 1.39036
216 1 20.2486 10.8965 2.13517
248 3 21.9683 11.2306 5.89255
272 2 17.4464 10.6034 1.44633
222 2 20.0822 10.6033 8.0265
223 2 19.4415 11.8548 4.73133
297 2 16.407 11.9267 2.9218
293 2 18.9893 7.05313 2.03604
144 4 13.1808 6.95549 4.78535
233 2 14.9831 11.8206 4.44552
242 3 15.0553 8.67197 2.7777
235 2 15.5176 10.4683 5.7232
232 2 15.871 8.27505 6.40651
231 2 16.1633 7.02689 5.03225
291 1 18.5025 7.66768 1.1963
230 2 17.8621 8.17248 5.45532
227 2 14.3631 10.9573 3.37992
221 2 13.0662 7.86535 0.765604
220 2 14.2988 10.573 0.804565
294 2 17.3697 7.77895 1.06985
214 1 16.5148 7.98109 5.47402
215 1 15.8191 11.0515 4.62809
207 4 16.4538 9.24582 4.12021
206 4 13.8388 9.19073 1.88811
199 3 14.0585 9.16983 8.11691
94 2 17.8529 6.47988 5.8704
192 3 13.0073 8.06712 5.93641
157 1 15.741 6.29339 7.72005
164 2 14.2361 7.54949 3.60698
182 2 14.8437 6.09386 7.03961
299 2 18.3761 11.7718 8.54832
273 2 15.9937 10.3079 15.3871
314 2 19.5818 11.0842 10.4858
308 2 20.1809 10.6694 14.242
194 3 12.3925 5.25567 12.3671
179 2 14.1351 5.37032 13.9688
160 1 19.8734 7.81978 13.4099
173 2 17.0818 11.1495 11.8871
185 2 19.4866 6.81592 10.1232
279 3 18.5492 10.3069 17.0838
278 2 20.4166 8.26616 16.1521
189 2 19.7828 8.56966 12.4327
188 2 15.2155 9.94199 13.7802
191 2 20.3485 8.36545 14.3838
217 1 20.5727 9.60584 9.6515
239 2 20.8154 8.66546 10.5206
240 2 19.4191 9.82002 9.67658
241 2 21.2054 10.5741 9.88633