ITEM: TIMESTEP
0
ITEM: NUMBER OF ATOMS
331
ITEM: BOX BOUNDS xy xz yz pp pp pp
-8.3499999999999996e+00 1.5708700000000000e+01 -8.2042000000000002e+00
-2.0055999999999998e+00 1.3086800000000000e+01 -1.4580000000000001e-01
0.0000000000000000e+00 1.7524799999999999e+01 -2.0055999999999998e+00
ITEM: ATOMS id type q x y z
1 4 1.05571 -0.763128 1.99368 4.48997
2 4 0.687496 -0.153796 4.31342 2.19687
3 1 -0.632261 0.12461 2.91861 5.92223
174 2 0.161152 -2.48394 5.39509 7.47064
5 1 -0.630301 1.74532 4.7642 3.4647
6 1 -0.588077 -1.59543 5.81438 1.79059
8 2 0.148197 0.708832 3.88594 5.61426
9 2 0.13613 0.838029 1.98769 6.12556
10 2 0.169228 -0.772661 3.04275 6.69019
11 2 0.134999 1.2914 0.296851 4.07736
12 2 0.011086 1.57531 4.01545 1.76141
13 2 0.144977 1.09158 4.33945 4.39039
14 2 0.147273 2.83561 4.86005 3.82987
263 4 0.934819 4.33274 4.32465 1.43474
16 2 0.115966 -2.5027 5.41594 2.36551
17 2 0.0252601 -1.27555 4.66731 0.611418
18 3 -0.750923 -0.735962 3.17429 3.08754
24 4 0.803218 5.00612 1.23599 4.34141
45 1 -0.661519 3.23563 2.12027 4.6917
47 1 -0.697728 3.59558 0.576372 8.43032
176 2 0.196212 -1.84291 3.89913 6.67404
7 2 0.127243 1.34445 5.79922 3.20542
78 2 0.165999 2.72213 3.08592 4.19156
79 2 0.134584 3.82401 2.38332 5.80025
80 2 0.137242 2.4825 1.30878 4.78116
46 1 -0.651526 6.25773 0.252946 0.362963
82 2 0.204836 4.09238 1.00963 7.58375
51 1 -0.639408 2.59304 5.51129 7.00779
163 2 0.0597177 -3.21657 5.10925 5.35565
154 1 -0.610334 -2.07126 4.98607 6.52168
93 2 0.208218 2.614 4.56883 7.65403
285 2 0.161025 2.52967 1.76344 0.609899
265 2 0.000532572 3.11509 3.72115 2.51003
117 3 -0.777801 5.85718 0.624282 5.54749
284 2 0.13728 0.600022 2.13214 0.959102
321 2 0.136535 5.52529 0.460204 1.29115
94 2 0.127078 2.16563 5.20035 5.90237
267 3 -0.804838 3.71706 5.615 0.74846
266 3 -0.765284 5.0264 3.17527 0.672527
96 2 0.142411 4.14774 3.93127 4.62267
4 1 -0.669055 0.173592 0.379422 3.97592
312 2 -0.0160448 3.52528 0.392468 3.84448
162 2 -0.0171601 2.61265 -0.105337 6.88846
170 2 -0.00617763 -0.681358 5.33904 7.90511
316 2 0.169378 -0.142825 0.471038 2.87074
87 2 0.189657 5.6107 2.42188 2.19114
175 2 0.0299491 -0.43651 5.64278 6.078
283 1 -0.672215 1.40333 1.79033 0.144886
15 2 0.0628755 -0.496326 6.1749 2.57617
83 2 0.157091 2.49467 0.786212 8.523
49 1 -0.684647 6.15876 2.07492 3.18564
19 4 0.765316 1.60013 1.01411 16.363
21 4 1.39817 2.45657 -1.15975 13.0224
22 4 1.41958 1.22472 1.25983 11.5574
23 4 1.0174 -0.954482 2.49783 13.5818
25 4 1.19471 6.13177 -0.0123232 17.269
27 4 1.03691 4.10945 1.50773 10.0066
29 4 1.51477 4.37834 0.481165 14.6575
150 4 1.00832 2.67895 5.21624 11.0141
81 2 0.176068 4.01068 -0.423088 8.83419
127 3 -0.740105 1.27539 4.27888 16.6058
48 1 -0.638889 5.40258 0.532793 11.0113
58 2 0.018605 0.162406 0.615647 15.4878
44 1 -0.647283 -1.50727 0.896334 14.3951
34 4 0.829492 -0.312682 4.35423 16.0838
75 2 0.184848 -0.76033 0.0835349 14.122
198 3 -0.760703 1.53848 5.35045 9.71946
311 2 0.102096 1.40096 2.74118 16.582
84 2 0.258858 5.84259 -0.35179 10.263
85 2 0.272737 4.8502 0.0758409 12.0401
171 2 0.116901 2.4963 3.53798 11.2827
112 3 -0.823977 0.545296 0.274178 10.028
113 3 -0.820573 1.60154 0.112125 12.5498
114 3 -0.800565 0.150323 2.28434 12.362
116 3 -0.78823 2.59386 1.93474 11.2485
119 3 -0.795132 4.14837 -0.593834 13.4537
120 3 -0.762958 5.55588 -0.0315289 15.7154
121 3 -0.758831 2.99733 0.72974 15.5576
122 3 -0.798529 5.01 2.69855 9.47593
125 3 -0.780411 4.91793 1.86194 14.0122
126 3 -0.810394 -0.684559 3.33451 14.9353
286 2 0.174257 0.976682 -1.14287 17.0618
59 2 -0.0266133 -0.784915 2.47142 9.48957
60 2 0.0117745 -2.51819 3.06331 12.8784
20 4 1.1622 -0.951141 0.787891 9.60973
77 2 0.158702 -1.74806 1.05463 15.4898
326 2 0.171296 7.45885 -1.09015 12.4046
62 2 -0.024731 -1.36649 4.26826 17.418
95 2 0.182609 1.93503 6.38381 7.54853
143 4 0.566481 -6.3811 11.4709 6.49519
144 4 0.668509 -1.93019 6.50939 5.29422
146 4 0.907561 -2.50636 9.23681 6.9164
294 2 0.150324 1.66242 8.29148 0.973815
300 2 0.199121 0.316171 10.0444 7.9775
231 2 0.196491 1.97826 8.20943 4.76012
322 2 0.158416 -0.772863 12.9725 0.789189
317 2 0.113326 -5.46239 9.72109 3.82678
235 2 0.174926 -1.24957 11.5265 5.1306
166 2 0.0710557 -4.12283 9.75713 7.16214
167 2 -0.0130455 -1.80397 10.5436 5.97635
169 2 -0.0183277 -6.16478 11.2087 4.79035
164 2 -0.0248675 -1.99777 6.58686 3.51459
230 2 0.138879 0.32688 8.69126 5.86074
234 2 0.198034 0.196106 10.9889 6.29745
183 2 0.170768 -0.242138 7.38433 7.56945
192 3 -0.780796 -2.33875 7.86299 6.05421
193 3 -0.767412 -5.725 10.2495 7.29296
199 3 -0.777649 -1.82269 9.09776 8.29104
206 4 0.675742 -1.78665 9.12384 1.33541
207 4 0.962811 0.396673 9.8188 3.91721
213 1 -0.626552 -3.12955 10.262 1.04355
214 1 -0.632392 0.847868 8.25705 4.78355
215 1 -0.640365 -0.147405 11.2001 5.16513
184 2 0.177381 1.50993 7.87719 8.17239
221 2 0.0111111 -2.30473 7.26381 1.18515
227 2 0.0962842 -3.96769 9.38843 1.61198
242 3 -0.718847 -0.773621 9.57043 2.5089
229 2 0.17051 -2.86377 11.2264 1.69026
157 1 -0.661928 0.511416 7.58658 8.47915
232 2 0.120083 0.288389 7.26063 4.41508
328 2 0.26948 -5.82954 8.48882 7.3716
261 2 0.187367 -6.92843 10.1312 16.3939
64 2 -0.0215695 -0.650256 5.94627 15.5107
115 3 -0.762468 -6.69187 11.0807 14.3275
145 4 0.959048 -1.86615 6.29042 12.2243
148 4 1.33584 -4.94543 9.65463 10.914
151 4 1.46155 -1.94275 10.1709 9.70369
200 3 -0.822376 -1.73064 11.685 9.13942
153 4 1.0175 0.0446523 9.79823 12.0555
155 1 -0.644927 -1.1055 7.03658 13.8765
156 1 -0.663124 -4.76353 7.97856 11.9215
274 2 0.170726 -0.740035 10.8451 16.4896
182 2 0.269278 -0.0699613 8.24854 9.26279
165 2 0.038265 -1.97691 8.08518 12.6572
149 4 1.01362 0.0930433 5.9417 9.34955
258 4 0.80531 -7.07602 9.55837 14.1548
177 2 0.171538 -0.362798 7.64371 14.3811
178 2 0.0907755 -0.535054 5.60259 13.5422
179 2 0.136203 -2.00722 6.87281 14.5733
180 2 0.175252 -3.96261 7.56194 11.2326
181 2 0.159151 -4.40383 8.03345 12.9741
220 2 -0.043658 -1.20644 7.39146 17.3165
188 2 0.0286632 -1.20516 10.3078 13.2348
194 3 -0.768625 -3.1737 5.57016 12.4902
195 3 -0.781147 -6.1249 9.41826 9.87157
196 3 -0.850078 -5.45065 10.7892 11.8663
197 3 -0.732921 -0.936718 6.06542 10.5785
147 4 1.06397 -7.0537 10.3251 8.85458
201 3 -0.828467 -3.40239 9.96086 10.31
202 3 -0.761285 2.34981 6.1452 12.3267
203 3 -0.841637 -0.757759 9.70181 10.6462
168 2 0.0846172 -7.26922 11.8358 9.62997
275 2 0.12548 -0.111954 9.07121 15.7913
204 3 -0.786612 1.06174 8.70033 12.626
260 2 -0.0043669 -5.74317 8.73524 13.4574
303 2 -0.0150722 -4.80154 6.21335 17.0893
320 2 0.175125 -2.55958 10.7499 17.0228
30 4 1.17368 3.04861 4.89526 17.4492
172 2 -0.0232971 1.62137 7.35502 14.7456
270 1 -0.65849 0.0127325 10.2384 15.7679
228 2 0.143139 -3.48874 8.43888 17.4543
28 4 1.44743 7.30173 1.16415 6.3788
31 4 1.25967 6.03439 3.45986 8.39607
35 4 1.22928 9.5521 1.94107 4.17063
37 4 1.47664 12.082 1.43135 5.93869
40 4 0.672482 10.9196 4.06609 2.49523
330 2 0.184155 13.0481 1.42341 0.475557
105 2 0.119488 12.1314 3.35943 0.636463
55 1 -0.668785 12.0402 2.80011 1.57944
56 1 -0.629742 7.93284 5.02675 5.49318
65 2 -0.0189757 9.32816 0.711973 2.99742
69 2 -0.0597731 11.7436 5.05718 3.64825
70 2 -0.0145719 10.2598 5.46306 1.48188
313 2 -0.00978289 10.444 2.27212 0.50932
89 2 0.174268 6.34818 2.96169 3.84722
296 2 0.0792136 9.07436 0.693221 0.532078
32 4 0.825166 4.3218 5.61076 6.4484
106 2 0.155289 11.5142 1.75737 1.61835
107 2 0.194307 12.9666 2.9898 2.39466
108 2 0.268426 7.99402 3.91262 5.47177
118 3 -0.81923 8.05584 -0.0425608 7.13059
123 3 -0.792351 6.79474 2.43116 7.40623
124 3 -0.754281 5.14039 4.72336 7.4948
128 3 -0.802157 8.3121 1.91101 5.23199
129 3 -0.846479 14.2997 0.242145 8.12393
131 3 -0.798208 13.4923 1.63113 5.11503
132 3 -0.830961 10.8745 1.58623 4.99109
133 3 -0.781204 11.998 -0.406375 6.48883
137 3 -0.781187 9.77237 3.31215 3.37136
139 3 -0.837657 12.0193 2.40953 7.26851
140 3 -0.800215 10.2939 4.3328 7.37088
42 4 0.778798 9.63017 5.54291 6.56896
264 2 -0.00902622 5.34963 4.83288 2.74703
26 4 1.30398 8.10797 -0.588073 8.62902
97 2 0.142596 5.86267 4.78769 4.29817
109 2 0.15432 7.03033 5.36241 4.84318
41 4 1.31212 11.0588 3.20224 8.23619
110 2 0.109356 7.67265 5.42955 6.71999
88 2 0.172152 7.08295 1.42703 3.05669
52 1 -0.667413 4.7308 5.03432 4.57311
98 2 0.145577 4.26094 5.81156 3.94594
72 2 0.00473627 9.62077 5.58997 4.78555
237 2 0.17179 12.7866 -0.326467 3.46832
315 2 0.201475 15.3613 -0.48581 4.48963
309 2 0.157414 13.6703 -1.46567 14.144
68 2 -0.00749318 12.4475 -0.742982 12.7116
33 4 0.998911 5.89386 3.19777 13.9115
36 4 1.25972 9.76441 1.36309 10.3742
38 4 0.683115 9.18321 1.06494 16.9793
39 4 0.952869 12.2648 -0.213034 11.0985
50 1 -0.658966 7.32505 4.25614 9.49925
53 1 -0.641166 7.41959 3.11348 12.4732
54 1 -0.629938 9.41862 0.18174 15.3887
306 2 0.151343 14.4507 -0.819309 16.7712
63 2 0.0401244 5.82056 3.92421 12.3002
66 2 -0.0117901 9.00088 2.30936 11.6269
67 2 0.0115506 9.39064 2.83916 17.2824
71 2 -0.00841631 12.0388 4.26687 9.13062
281 2 0.0212422 8.60424 4.47026 16.5234
327 2 0.185973 8.76106 -0.81188 13.7422
90 2 0.144864 6.97119 5.35834 9.47045
92 2 0.180729 7.4669 3.8564 10.5959
99 2 0.161845 8.255 3.87941 12.2119
100 2 0.137203 7.27036 2.18116 11.7159
101 2 0.0670134 7.81725 2.58037 13.9086
102 2 0.125267 10.6165 0.313217 15.3366
103 2 0.141792 8.74313 0.913027 14.7417
104 2 0.177618 8.95552 -0.956369 15.5384
130 3 -0.848507 8.65436 0.350245 9.72633
134 3 -0.753183 7.71628 0.512415 17.4548
135 3 -0.842215 13.6015 0.530087 10.7137
136 3 -0.856871 10.9965 0.601809 10.933
138 3 -0.857498 10.2911 2.42446 9.29236
141 3 -0.812623 5.94736 4.41884 15.0253
249 4 1.0202 10.9631 4.69093 12.9397
250 1 -0.683916 11.2391 2.78032 13.061
187 2 0.171474 4.84741 4.78337 10.604
252 2 0.151198 11.8479 2.5148 13.9356
253 2 0.188592 11.6913 2.42271 12.1261
254 2 0.144644 10.1689 2.33152 13.1363
304 1 -0.642136 13.6272 -1.38243 17.3537
256 2 0.160363 9.37093 4.23774 10.832
76 2 0.114261 13.1526 0.888209 13.6818
302 2 0.136118 11.2872 4.34729 17.045
91 2 0.199598 8.24762 4.15579 8.82328
310 2 0.163991 11.7795 -1.1636 14.2449
251 1 -0.663112 9.76428 5.09104 11.5289
301 1 -0.626916 10.2155 4.46178 17.412
86 2 0.171934 6.25921 1.3526 11.3518
222 2 0.00363959 4.77488 11.0531 8.44964
218 2 -0.0129049 9.8795 8.0854 5.63862
57 1 -0.6687 9.68117 7.32611 7.41692
61 2 0.0923127 4.65045 7.3229 6.68879
299 2 0.204066 1.57762 11.3046 7.40613
226 2 0.0867382 8.92596 8.87471 2.4577
298 1 -0.687179 0.977725 10.9161 8.20256
244 3 -0.850804 7.32031 9.60141 8.60048
248 3 -0.818712 6.04935 11.4493 6.14554
205 4 0.713098 8.48709 8.4451 4.60746
212 1 -0.631491 9.13468 9.73847 3.45372
209 4 1.02987 3.65598 10.6593 3.78463
247 3 -0.758024 4.93454 8.88048 6.99129
211 4 1.27495 5.76079 9.65395 5.59702
243 3 -0.734173 2.10055 10.3585 3.48383
216 1 -0.666801 4.33641 11.9751 2.61747
111 2 0.144783 8.57438 7.14305 7.70216
219 2 -0.017249 8.17199 6.69077 4.49533
245 3 -0.798413 7.1956 9.03302 5.24892
223 2 0.113262 3.54655 11.7567 5.13855
325 2 0.136389 10.2594 6.95753 0.784887
208 4 1.1859 5.24866 12.2381 7.26802
210 4 0.936769 6.01061 8.80897 8.55779
297 2 0.163426 2.04719 12.4222 2.03225
233 2 0.171958 0.471054 11.984 4.54237
295 1 -0.629929 1.02323 12.3926 1.50525
236 2 0.163361 5.28902 11.5903 2.10973
246 3 -0.779848 4.68113 9.53076 4.23749
238 2 0.165569 3.46218 12.3077 1.88704
292 2 0.1738 3.43821 9.02736 1.03256
161 2 0.0785692 7.60098 11.6576 6.57269
272 2 0.0698777 1.30833 10.7665 0.812489
305 2 0.148283 5.99241 12.861 0.50635
225 2 0.179491 8.62714 10.7126 3.36389
323 2 0.162824 0.224141 12.3191 2.32337
329 2 0.162082 10.4246 6.86279 8.19445
291 1 -0.647413 2.75904 8.1352 1.29106
293 2 0.19185 2.94454 7.59959 2.27969
43 4 0.92684 5.54967 5.55929 15.9651
73 2 -0.0138729 5.78018 7.05094 15.2453
255 2 0.141577 8.914 5.6579 12.0974
142 3 -0.803715 4.01887 5.55172 16.3919
74 2 -0.058836 6.62162 5.59457 17.2717
160 1 -0.664559 3.87749 8.27098 12.9862
159 1 -0.663447 0.187313 11.5777 12.8474
185 2 0.156198 4.58932 6.58564 11.3354
276 2 0.149291 5.83634 8.54996 17.0373
282 2 -0.0326664 8.81715 7.16729 15.7017
189 2 0.170255 3.59071 9.21847 12.4777
190 2 0.160458 4.46917 7.51204 12.3145
191 2 0.150791 4.11089 8.27015 14.0753
217 1 -0.639953 4.80694 9.67102 9.84642
239 2 0.122833 4.79315 8.53389 10.4237
262 2 0.137425 8.99944 8.38517 16.9182
241 2 0.137535 5.47423 10.4747 10.401
240 2 0.147904 3.7626 9.98868 9.49525
257 2 0.170392 10.3428 5.82471 10.8449
307 1 -0.641379 4.442 11.1791 14.2748
259 1 -0.64423 8.46918 9.03661 16.1583
269 4 0.895133 4.50752 10.5317 16.2741
271 1 -0.662048 5.27271 8.66259 16.1425
158 1 -0.683027 4.35312 5.82718 10.5364
318 2 0.151363 7.2765 8.90704 16.1565
277 2 0.133917 5.97074 8.8114 15.073
278 2 0.167722 4.3977 7.92061 15.9674
279 3 -0.759049 2.97051 10.3254 16.6908
280 4 0.621616 9.77638 5.69366 15.8187
186 2 0.183247 4.27051 6.21128 9.48933
268 4 0.766472 1.42251 10.1631 17.0897
287 1 -0.659099 6.95721 9.21393 13.3447
288 2 0.135952 6.65459 8.15654 13.5116
289 2 0.15424 7.35266 9.42476 12.2703
290 2 0.15001 6.00608 10.0585 13.7663
152 4 1.00036 2.14576 7.55646 13.1596
308 2 0.161032 4.23445 10.1327 13.7098
314 2 -0.0350079 3.78098 11.3638 10.3363
331 3 -0.749861 10.3923 5.20982 14.3858
273 2 0.185595 0.160127 10.7497 14.6744
324 2 0.144936 1.5683 10.8227 9.22441
319 2 0.169382 9.98551 7.34938 11.7793
224 2 -0.0369774 6.4572 7.2166 8.78586
173 2 0.110247 1.1556 11.5806 11.8417
ITEM: TIMESTEP
100
ITEM: NUMBER OF ATOMS
331
ITEM: BOX BOUNDS xy xz yz pp pp pp
-8.3499999999999996e+00 1.5708700000000000e+01 -8.2042000000000002e+00
-2.0049314666666667e+00 1.3082437733333334e+01 -1.4580000000000001e-01
0.0000000000000000e+00 1.7524799999999999e+01 -2.0049314666666667e+00
ITEM: ATOMS id type q x y z
1 4 1.06452 -0.825582 2.14086 4.494
2 4 0.716512 -0.189823 4.31536 2.22698
3 1 -0.642771 0.128013 3.05127 5.93545
322 2 0.160498 7.3354 0.093927 1.01904
5 1 -0.618136 1.68857 4.62403 3.49367
6 1 -0.614407 -1.19443 5.93869 1.73923
8 2 0.155747 0.713232 4.074 5.97736
9 2 0.143946 0.765023 2.03239 6.11928
10 2 0.159788 -0.719357 3.1291 6.71121
11 2 0.14438 1.40715 0.722762 4.33481
12 2 0.0332264 1.57204 3.64028 2.06279
13 2 0.156792 1.06675 4.08077 4.52227
14 2 0.144932 2.81157 4.72589 3.85881
263 4 0.960189 4.41133 4.39885 1.47915
16 2 0.125503 -2.19934 5.89446 2.14983
17 2 0.00619194 -0.799512 4.63591 0.535066
18 3 -0.759403 -0.955354 3.21376 3.09968
24 4 0.814403 5.03729 1.28284 4.36465
45 1 -0.669524 3.24574 2.10144 4.95986
47 1 -0.648273 3.33328 0.606695 8.55008
176 2 0.165866 -1.73464 4.04773 6.79341
7 2 0.11615 1.27106 5.68876 3.19119
78 2 0.169846 2.76338 2.9768 4.3889
79 2 0.15645 3.74295 2.448 5.94771
80 2 0.123412 2.50885 1.18729 5.09385
46 1 -0.65528 6.26423 0.420829 0.547875
82 2 0.176245 3.95566 1.12621 7.63392
51 1 -0.655468 2.65719 5.38187 6.88603
163 2 0.0456006 -3.48389 5.25288 5.71163
154 1 -0.620939 -2.00982 5.18756 6.64925
93 2 0.203071 2.60794 4.35615 7.40331
285 2 0.132983 2.2044 2.26107 0.941291
265 2 -0.00783219 3.24073 3.81147 2.57127
117 3 -0.767075 5.8553 0.505356 5.43291
284 2 0.160633 0.326451 1.84616 0.556148
321 2 0.149836 5.38575 0.510274 1.26739
94 2 0.141118 2.20536 5.38477 5.80306
267 3 -0.815762 3.69632 5.48388 0.596212
266 3 -0.789788 5.11742 3.28393 0.798211
96 2 0.151592 4.17395 3.86432 4.66216
4 1 -0.671092 0.372672 0.717825 3.93856
312 2 -0.00981501 3.48794 0.649655 3.71751
162 2 -0.0217215 2.66155 -0.191484 6.87627
170 2 -0.00192465 -0.499312 5.24455 7.97581
316 2 0.179905 0.365741 0.63058 2.83479
87 2 0.191557 5.72538 2.57646 2.33276
83 2 0.177231 2.16662 0.554538 8.45007
283 1 -0.687744 1.33705 1.77447 0.211263
49 1 -0.678931 6.24621 2.09052 3.26997
174 2 0.165192 -2.25994 5.6598 7.58363
175 2 0.0481725 -0.518632 5.81334 5.98978
19 4 0.784243 1.59667 0.934541 16.3299
21 4 1.42828 2.42182 -1.12344 13.1703
22 4 1.40694 1.09017 1.12926 11.5651
23 4 1.02948 -0.89452 2.37144 13.5705
25 4 1.18785 6.07557 0.0931501 17.2597
27 4 1.06879 4.075 1.55374 10.0091
29 4 1.51414 4.41249 0.550254 14.7937
150 4 1.05163 2.62243 5.17556 11.0035
81 2 0.156913 3.80327 -0.431114 8.93334
127 3 -0.781273 1.05901 4.26752 16.6943
48 1 -0.671173 5.21265 0.49199 11.1453
58 2 0.0436011 0.420935 0.232076 15.2596
44 1 -0.666578 -1.31115 0.661057 14.4225
34 4 0.89655 -0.274948 4.33553 16.0252
75 2 0.206767 -0.558515 -0.00504245 13.9133
198 3 -0.780441 1.46672 5.15744 9.87803
311 2 0.0759268 1.29198 2.60385 16.6915
84 2 0.250706 5.64134 -0.341368 10.4277
85 2 0.27932 4.69146 0.0405913 12.1007
171 2 0.115431 2.54483 3.5567 11.6322
112 3 -0.823211 0.466652 0.420288 10.0129
113 3 -0.858707 1.46703 -0.0724778 12.5236
114 3 -0.85792 0.09754 2.00708 12.4424
116 3 -0.751078 2.57463 2.06986 10.9724
119 3 -0.780628 4.10177 -0.493563 13.6775
120 3 -0.770819 5.57363 -0.198296 15.7215
121 3 -0.79435 3.01929 0.74364 15.6679
122 3 -0.786541 4.99629 2.68533 9.31552
125 3 -0.796974 5.0005 1.93968 14.0844
126 3 -0.817517 -0.490408 3.30092 14.8259
286 2 0.186915 1.43765 -1.22781 17.3095
59 2 -0.0420763 -1.12531 2.51422 9.31982
60 2 0.00865374 -2.32072 3.06424 12.7961
20 4 1.19775 -0.968724 0.856193 9.46177
77 2 0.144174 -1.27363 0.696508 15.5584
62 2 -0.00731361 -1.43889 4.10406 17.3127
86 2 0.169828 6.06788 1.23412 11.4516
95 2 0.169643 2.18459 6.23413 7.47371
143 4 0.580907 -6.28821 11.3737 6.49181
144 4 0.694886 -2.17611 6.52745 5.32813
146 4 0.91984 -2.50553 9.24957 6.87417
294 2 0.162881 1.69135 7.99239 1.22156
300 2 0.195845 0.426946 10.0088 7.75511
231 2 0.178913 1.87066 8.32866 5.47776
15 2 0.113159 -0.27453 6.51368 2.36481
317 2 0.130535 -5.39967 9.90421 3.61401
235 2 0.185171 -1.28346 11.4883 4.99324
166 2 0.0457518 -4.11647 9.77174 7.1137
167 2 -0.00874442 -1.7458 10.4423 5.90422
169 2 -0.0282714 -5.90904 11.0758 4.85717
164 2 -0.0252677 -1.5606 6.24124 3.60157
230 2 0.179439 0.0330862 8.47809 5.70067
234 2 0.176535 0.21814 11.0922 6.21648
183 2 0.175779 0.172285 7.45554 7.67457
192 3 -0.804475 -2.33533 7.92152 5.97559
193 3 -0.787653 -5.80731 10.2351 7.39207
199 3 -0.832585 -1.82173 9.20274 8.24264
206 4 0.664517 -1.75324 9.17467 1.47534
207 4 1.04595 0.57384 9.83525 3.86231
213 1 -0.621964 -3.0113 10.4666 0.880912
214 1 -0.658636 0.830287 8.30898 4.97863
215 1 -0.632302 -0.179132 11.2005 5.01414
184 2 0.156628 1.8851 7.65918 8.55695
221 2 -0.0149887 -1.45113 7.54399 0.741805
227 2 -0.00800456 -3.30221 8.99905 2.16817
242 3 -0.743854 -0.639537 9.46649 2.58222
229 2 0.164668 -3.02968 11.2594 1.67326
157 1 -0.670319 0.735759 7.54701 8.64453
232 2 0.150701 0.685899 7.43739 4.31026
328 2 0.26594 -5.86269 8.40872 7.52138
228 2 0.152052 -3.99779 10.3476 0.395523
261 2 0.17748 -6.71954 10.0151 16.6627
64 2 -0.0283632 -0.620859 5.86932 15.4492
115 3 -0.767515 -6.68555 11.1804 14.5145
145 4 0.989193 -1.79794 5.91149 12.1689
148 4 1.33031 -4.9922 9.70232 11.0555
151 4 1.39038 -2.07223 10.0706 9.58383
200 3 -0.800285 -1.77176 11.6484 9.18163
153 4 1.03779 0.0444444 9.79175 12.1337
155 1 -0.635827 -1.19161 6.87628 13.7961
156 1 -0.648269 -4.94759 8.04229 12.0715
274 2 0.154391 -0.403421 11.0696 16.3473
182 2 0.225854 0.369261 8.23693 9.46858
165 2 0.0844808 -1.98209 7.80552 12.6817
149 4 1.00746 0.156655 5.92923 9.42691
258 4 0.831272 -7.01218 9.64065 14.4034
177 2 0.160386 -0.385003 7.5381 14.2823
178 2 0.0653414 -0.445756 5.37757 13.3454
179 2 0.138933 -2.03053 6.59914 14.5183
180 2 0.161248 -4.13133 7.54543 11.3859
181 2 0.15489 -4.6512 7.84975 13.1879
172 2 -0.0126942 2.00505 6.95206 14.6491
188 2 0.0442016 -1.04082 10.353 13.3997
194 3 -0.821225 -3.17463 5.25402 12.5158
195 3 -0.75108 -6.37253 9.52732 9.99244
196 3 -0.834115 -5.32516 10.8042 12.1444
197 3 -0.762175 -1.04818 6.004 10.6375
147 4 1.06497 -7.13459 10.3731 8.8479
201 3 -0.813988 -3.62478 9.94204 10.3656
202 3 -0.775295 2.28122 6.22683 12.1952
203 3 -0.784644 -0.859515 9.68514 10.9032
168 2 0.0600482 -7.26186 11.9256 9.41276
275 2 0.116329 -0.0974458 9.19009 15.6666
204 3 -0.817039 1.11284 8.73971 12.7525
260 2 0.00235266 -5.64381 8.61282 13.792
303 2 -0.017299 -4.50081 6.17 16.9109
320 2 0.180982 -2.40752 10.8662 17.1025
30 4 1.18182 2.92776 4.70816 17.3205
220 2 0.0667818 -2.07225 8.44642 17.3231
28 4 1.48144 7.30907 1.27471 6.25492
31 4 1.27436 6.09908 3.45799 8.28031
35 4 1.27419 9.57033 2.07932 4.17771
37 4 1.47488 12.0632 1.47527 5.92208
40 4 0.703738 10.9867 4.10858 2.53841
330 2 0.197992 13.1379 1.51269 0.545522
105 2 0.0856241 11.9175 3.53024 0.548458
55 1 -0.654958 11.9857 2.81908 1.59772
56 1 -0.606432 8.0604 5.11608 5.21126
65 2 0.00754755 9.26141 0.851475 3.00015
69 2 -0.0747075 11.9712 5.05325 3.5543
70 2 -0.00374431 10.2727 5.37587 1.45346
313 2 -0.00749015 10.4318 2.44877 0.371875
89 2 0.185041 6.66917 2.97878 3.8775
296 2 0.120798 9.04943 0.582801 0.907426
32 4 0.82406 4.40993 5.64182 6.35406
106 2 0.169726 11.4004 1.84708 1.55004
107 2 0.216262 12.9542 2.91234 2.26714
108 2 0.247252 8.14511 3.99266 5.08274
118 3 -0.818416 7.90106 0.0887053 7.08164
123 3 -0.815802 6.81687 2.46743 7.34095
124 3 -0.757791 5.29329 4.77045 7.35279
128 3 -0.848635 8.24472 1.97937 5.11921
129 3 -0.825354 14.4088 0.226498 8.0299
131 3 -0.814637 13.4396 1.62894 5.08754
132 3 -0.859159 10.8211 1.59708 4.91698
133 3 -0.810723 12.0008 -0.307291 6.71958
137 3 -0.813033 9.79492 3.3111 3.21138
139 3 -0.824976 11.9809 2.32066 7.28264
140 3 -0.767073 10.3708 4.36438 7.4071
42 4 0.74533 9.46944 5.62415 6.73226
264 2 -0.0177198 5.3468 5.1008 2.70443
26 4 1.29882 7.99171 -0.730367 8.45178
97 2 0.140073 5.88585 4.90609 4.36484
109 2 0.129481 7.17959 5.41388 4.43271
41 4 1.246 11.1835 3.29724 8.33123
110 2 0.0866163 7.48668 5.35317 6.71969
88 2 0.176338 7.07132 1.35604 2.9668
52 1 -0.669394 4.67483 4.95195 4.51311
98 2 0.125906 4.10596 5.65603 3.83107
72 2 0.00860691 9.64468 5.77187 4.82879
315 2 0.187998 15.3882 -0.0780324 4.44812
309 2 0.166187 13.6134 -1.33945 13.949
68 2 -0.0190716 12.4524 -0.880169 12.5765
33 4 1.04009 6.08278 3.10078 13.9744
36 4 1.29178 9.82395 1.32971 10.1554
38 4 0.712533 9.13627 1.14416 16.8552
39 4 0.970805 12.2083 -0.245062 11.0102
50 1 -0.66026 7.34489 4.1532 9.54587
53 1 -0.658541 7.47344 2.86565 12.474
54 1 -0.637797 9.56168 0.202217 15.2886
306 2 0.148703 14.2979 -0.820234 16.5781
63 2 0.044462 6.06923 3.84886 12.25
66 2 0.003419 8.89302 2.13523 11.3788
67 2 0.00738433 9.43285 2.9163 17.053
159 1 -0.654235 8.44637 -1.42265 12.7969
281 2 0.0146326 8.69025 4.46326 16.5806
327 2 0.18968 8.88152 -0.866592 13.6894
90 2 0.14688 6.99445 5.23951 9.5434
92 2 0.185376 7.3964 3.65167 10.5873
99 2 0.153841 8.33877 3.5935 12.152
100 2 0.149687 7.26483 1.91892 11.8762
101 2 0.0406328 7.86444 2.45264 14.0523
102 2 0.127503 10.7436 0.331487 15.3909
103 2 0.139793 8.96758 0.940653 14.5814
104 2 0.195614 9.07488 -0.872578 15.3943
130 3 -0.796942 8.75562 0.206983 9.47251
134 3 -0.75529 7.66755 0.76294 17.221
135 3 -0.844083 13.5629 0.28571 10.456
136 3 -0.875917 10.9472 0.589725 10.8848
138 3 -0.871116 10.2248 2.50623 9.27703
141 3 -0.839828 5.86292 4.28273 14.973
249 4 1.0595 11.09 4.65805 12.8904
250 1 -0.656923 11.4673 2.78124 12.9419
187 2 0.158727 4.79163 4.74303 10.5658
252 2 0.129693 12.0716 2.54836 13.9153
253 2 0.17208 11.9741 2.41124 11.9603
254 2 0.1477 10.4032 2.3564 13.0543
304 1 -0.623666 13.5641 -1.26427 17.3472
256 2 0.173034 9.60115 4.10285 10.9276
76 2 0.123252 13.332 0.595367 13.9274
302 2 0.127203 11.3295 4.09881 17.0851
91 2 0.212685 8.31053 3.91622 8.93397
310 2 0.167219 11.7699 -1.32475 14.4848
251 1 -0.678773 9.7251 5.00635 11.531
301 1 -0.607481 10.3285 4.52026 17.4684
71 2 -0.0313601 12.2916 4.07662 9.3727
326 2 0.183071 7.56534 -0.81199 12.3795
222 2 0.00856948 4.73649 11.0848 8.35948
218 2 -0.00865993 9.72515 8.10581 5.84048
57 1 -0.671114 9.75781 7.28541 7.59292
61 2 0.069741 4.82403 7.29296 6.42335
299 2 0.18358 1.70094 11.3034 7.25517
226 2 0.0978041 8.88231 8.98384 2.46408
298 1 -0.693658 0.989871 10.8855 8.04755
244 3 -0.805931 7.20906 9.55943 8.67776
248 3 -0.822332 6.08906 11.5588 6.0518
205 4 0.705436 8.50924 8.43372 4.61466
212 1 -0.637372 9.21434 9.75067 3.47713
209 4 1.01024 3.5853 10.863 4.06632
247 3 -0.788804 5.11202 8.83865 7.13215
211 4 1.29763 5.84052 9.72624 5.59503
243 3 -0.768239 2.07884 10.296 3.59142
216 1 -0.652537 4.15322 11.9358 2.64068
111 2 0.13681 8.66641 7.088 8.17827
219 2 -0.0150703 8.20353 6.71805 4.12828
245 3 -0.814558 7.21413 9.04794 5.21996
223 2 0.0845138 3.26915 11.8304 5.49
325 2 0.11349 10.6453 7.30661 0.75616
225 2 0.166955 8.54628 10.7078 3.57051
210 4 0.994377 5.80043 8.75349 8.54285
297 2 0.161004 1.90417 12.5191 2.26398
233 2 0.162996 0.533 12.0381 4.50599
295 1 -0.65657 0.947889 12.5765 1.57896
236 2 0.163664 4.76652 11.1195 2.00485
246 3 -0.799599 4.67967 9.72186 4.49145
238 2 0.175105 3.29728 12.4369 2.07154
292 2 0.158366 3.36709 8.9518 0.645517
161 2 0.0717538 7.69745 11.4677 6.48186
272 2 0.0440597 1.39826 10.8232 0.949294
293 2 0.180007 3.39566 7.64204 2.11477
291 1 -0.637388 2.83941 7.99334 1.14722
323 2 0.159996 -0.0197224 12.3371 2.11859
329 2 0.158239 10.6691 6.87173 8.21839
237 2 0.170107 4.80579 12.7107 3.25428
305 2 0.128899 6.02607 12.775 0.459895
208 4 1.21943 5.21347 12.257 7.19935
43 4 0.933036 5.45243 5.39903 15.9047
73 2 -0.0203147 5.95673 7.01741 15.2789
255 2 0.15542 8.72983 5.40087 11.8747
142 3 -0.797102 3.894 5.45372 16.2545
74 2 -0.0617024 6.47425 5.52903 17.2316
160 1 -0.641943 3.87573 8.3919 12.6964
173 2 0.11984 1.28986 11.6141 11.9278
185 2 0.135446 4.56195 6.77198 11.144
276 2 0.127262 6.10931 8.5792 17.1071
282 2 -0.0319171 8.9538 7.1581 15.6503
189 2 0.156265 3.38573 9.42946 12.3716
190 2 0.146821 4.59847 7.89795 11.8966
191 2 0.136587 4.2703 8.32738 13.7726
217 1 -0.647219 4.45548 9.61478 9.68069
239 2 0.124194 4.32227 8.49999 10.2649
270 1 -0.651214 0.2641 10.2991 15.6805
241 2 0.142782 5.10307 10.3521 10.2855
240 2 0.1454 3.45469 10.0908 9.34807
257 2 0.169808 10.3467 5.78635 10.9842
307 1 -0.651721 4.5088 11.1471 14.3035
259 1 -0.651774 8.67466 8.97871 16.2845
269 4 0.868281 4.49533 10.6388 16.2541
271 1 -0.645777 5.4326 8.71082 16.1191
158 1 -0.643694 4.26356 5.81083 10.388
318 2 0.14574 7.41836 8.87148 16.35
277 2 0.155984 6.05394 8.83349 15.1171
278 2 0.16124 4.53199 8.02953 16.1744
279 3 -0.7329 2.89936 10.3831 16.7371
280 4 0.626015 9.91806 5.69271 15.8125
186 2 0.17012 4.09775 6.18482 9.27797
268 4 0.757048 1.39328 9.9794 17.1443
287 1 -0.668849 7.09199 9.31175 13.4368
288 2 0.12136 6.74895 8.18641 13.5212
289 2 0.175424 7.50827 9.48946 12.4379
290 2 0.166559 6.09487 10.0292 13.7179
152 4 1.01811 2.17651 7.623 13.0769
308 2 0.156346 4.2721 10.1375 13.6587
314 2 -0.0229429 3.72643 11.3606 10.254
331 3 -0.749036 10.4881 5.14922 14.4073
273 2 0.188252 0.300983 10.7101 14.5952
324 2 0.155385 1.48966 10.7835 9.08897
319 2 0.16514 9.71085 7.64467 11.8835
224 2 -0.0283779 6.11463 7.12918 8.813
262 2 0.129094 9.20617 8.19376 16.9061
ITEM: TIMESTEP
200
ITEM: NUMBER OF ATOMS
331
ITEM: BOX BOUNDS xy xz yz pp pp pp
-8.3499999999999996e+00 1.5708700000000000e+01 -8.2042000000000002e+00
-2.0042629333333331e+00 1.3078075466666666e+01 -1.4580000000000001e-01
0.0000000000000000e+00 1.7524799999999999e+01 -2.0042629333333331e+00
ITEM: ATOMS id type q x y z
1 4 1.02885 -0.88148 2.25804 4.62369
2 4 0.69549 -0.165811 4.48865 2.29685
3 1 -0.657834 0.067327 3.23732 5.97983
322 2 0.154574 7.4264 0.149142 1.14097
5 1 -0.648261 1.83061 4.79508 3.45402
6 1 -0.588045 -1.30942 6.04585 1.62913
8 2 0.156943 0.275317 4.26535 5.6561
9 2 0.155358 0.951451 2.5108 5.99099
10 2 0.163918 -0.541013 3.13665 6.96623
11 2 0.122797 1.22805 0.675155 4.7179
12 2 0.0166874 1.63083 4.05939 1.84162
13 2 0.146681 1.22798 4.29335 4.34278
14 2 0.145412 2.92447 4.85533 3.89754
263 4 0.982694 4.3152 4.37471 1.39737
16 2 0.128121 -2.27031 5.61425 2.01122
17 2 0.00100248 -0.814672 4.55208 0.647489
18 3 -0.746727 -0.983341 3.4438 3.15256
24 4 0.77227 5.13646 1.3757 4.2953
45 1 -0.656641 3.31213 2.14079 4.76804
47 1 -0.685253 3.21802 0.420471 8.61625
176 2 0.220776 -1.89936 4.00343 6.84617
7 2 0.14089 1.47989 5.81451 3.29908
78 2 0.153026 2.80763 3.12983 4.21599
79 2 0.157216 3.5276 2.40684 5.87672
80 2 0.132838 2.53754 1.29254 4.81791
46 1 -0.654628 6.33118 0.639148 0.767718
82 2 0.183354 3.36902 0.969846 7.67883
51 1 -0.677447 2.60354 5.52958 6.92137
163 2 0.0705451 -3.34903 5.00613 5.45543
154 1 -0.614212 -2.13315 5.04424 6.63322
93 2 0.209568 2.54755 4.65823 7.5856
285 2 0.123041 2.08335 2.23171 1.05503
265 2 -0.0116565 3.25427 3.72693 2.57297
117 3 -0.740336 5.83333 0.596153 5.61658
284 2 0.137515 0.25575 1.77854 0.41334
321 2 0.144736 5.60269 0.796371 1.63564
94 2 0.147431 2.14425 5.30038 5.8748
267 3 -0.820918 3.62066 5.49349 0.644579
266 3 -0.791046 5.12469 3.40388 0.623319
96 2 0.150575 4.22755 3.94506 4.70626
4 1 -0.656155 0.272292 0.809859 4.05858
312 2 -0.0115436 3.73505 0.600887 3.58423
162 2 -0.0149866 2.64957 -0.294247 6.86847
170 2 -0.00372522 -0.716024 5.06939 7.99973
316 2 0.16646 0.544335 1.04639 2.98081
87 2 0.189926 5.85672 2.66411 2.18661
175 2 0.0442341 -0.644509 5.82373 6.26159
283 1 -0.668485 1.43431 1.74726 0.164775
174 2 0.160474 -2.59466 5.45334 7.53509
19 4 0.793988 1.68914 1.01235 16.4322
21 4 1.47307 2.54702 -1.1534 13.1706
22 4 1.45596 1.12079 1.19385 11.516
23 4 1.05384 -0.86158 2.35347 13.5152
25 4 1.18596 6.13324 0.18506 17.2465
27 4 1.0592 3.99005 1.48459 9.97871
29 4 1.4647 4.41507 0.49439 14.8103
150 4 0.994898 2.63549 5.07511 11.1425
81 2 0.172848 4.04936 -0.465743 8.88865
127 3 -0.772908 1.086 4.21269 16.5121
48 1 -0.689548 5.27497 0.635547 11.0096
58 2 0.0168837 0.25147 0.76122 15.4821
44 1 -0.650007 -1.38428 0.688086 14.4203
34 4 0.910985 -0.350546 4.23716 15.9085
83 2 0.20427 2.16069 0.233338 8.84683
198 3 -0.716924 1.38668 5.08303 9.82607
311 2 0.0990315 1.39581 2.69518 16.5515
84 2 0.252335 5.68075 -0.15219 10.2627
85 2 0.270076 4.84035 0.154074 11.9115
171 2 0.125836 2.61675 3.43389 11.7346
112 3 -0.812252 0.382377 0.442682 9.92037
113 3 -0.826487 1.51629 -0.063017 12.4193
114 3 -0.862035 0.0730279 2.1409 12.2694
116 3 -0.787786 2.44829 1.96578 11.1874
119 3 -0.80742 3.95976 -0.501943 13.4562
120 3 -0.768703 5.45813 -0.345512 15.7983