ITEM: TIMESTEP
0
ITEM: NUMBER OF ATOMS
331
ITEM: BOX BOUNDS xy xz yz pp pp pp
-8.3499999999999996e+00 1.5708700000000000e+01 -8.2042000000000002e+00
-2.0055999999999998e+00 1.3086800000000000e+01 -1.4580000000000001e-01
0.0000000000000000e+00 1.7524799999999999e+01 -2.0055999999999998e+00
ITEM: ATOMS id type x y z
1 4 -0.985234 2.18515 4.86022
2 4 -0.147071 4.30007 2.48287
3 1 0.196631 3.08032 6.00323
46 1 5.76821 0.162142 0.130763
5 1 1.95927 4.58219 2.53766
6 1 -1.26181 4.77321 1.07629
8 2 -0.136204 3.97108 6.59413
9 2 1.05735 3.3403 5.2319
10 2 0.370394 2.05167 6.65662
11 2 0.997689 0.615762 4.44465
12 2 1.67437 3.18968 2.10989
13 2 2.50598 4.64393 3.58096
14 2 2.40595 5.29511 1.76191
283 1 1.66569 1.45538 0.0803923
16 2 -2.40482 4.41562 0.983203
17 2 -0.559478 4.33786 0.247772
18 3 -0.960526 3.37841 3.4795
24 4 5.09035 0.605136 4.1662
45 1 3.28302 1.25127 4.1501
47 1 4.06357 0.397792 8.15923
174 2 -1.29196 5.18947 5.31847
51 1 2.84798 5.33466 5.94372
78 2 3.07824 1.44315 5.25678
79 2 2.63133 0.378239 3.74813
80 2 3.27263 2.1243 3.38671
162 2 3.35974 -0.130566 6.40514
82 2 4.73108 0.59543 7.15404
83 2 2.93504 0.532948 8.06468
7 2 0.593571 5.56835 3.45016
170 2 -0.367142 4.09522 8.44805
93 2 2.69007 4.5799 5.02329
4 1 -0.133457 0.451764 4.2568
95 2 2.6955 4.87628 7.0599
117 3 5.76342 0.740257 5.84849
284 2 2.71059 1.23142 0.444202
87 2 5.91902 1.97215 1.98856
266 3 5.42318 3.03941 0.404049
267 3 4.14628 5.35021 0.281784
154 1 -2.48386 5.25671 5.73801
263 4 4.72349 4.1733 1.15106
176 2 -2.56714 5.25532 6.83186
286 2 0.951081 1.5017 0.9619
311 2 1.90505 4.1893 0.608977
265 2 3.43724 3.40451 1.92278
321 2 4.97022 0.431306 0.883608
175 2 -3.20094 4.56239 5.29804
49 1 6.26398 1.57654 3.00092
161 2 0.659749 -0.292858 5.89052
316 2 -0.393285 0.471891 3.17298
15 2 -1.14407 5.89113 1.19454
183 2 0.898996 5.68804 7.18135
81 2 4.31662 -0.595864 8.64177
19 4 1.63822 1.07049 16.7599
21 4 2.5682 -1.0125 12.7708
22 4 1.2143 0.944105 11.1815
23 4 -0.635302 2.32837 13.3812
25 4 5.90743 -0.13597 16.7436
27 4 4.27334 1.45836 9.73717
29 4 4.05764 0.816501 14.6216
285 2 1.16215 -1.20375 16.6724
34 4 0.303295 4.49379 15.6475
44 1 -1.05085 0.86357 14.5626
48 1 5.71313 0.708863 10.7982
58 2 0.146032 1.56317 15.9343
60 2 -2.07549 3.06779 12.7051
198 3 1.2384 5.20234 10.2974
149 4 -0.161202 5.39556 9.53836
122 3 4.76721 2.88722 9.23394
76 2 -0.484548 -0.0293496 14.0567
84 2 6.3176 -0.0750142 10.1353
85 2 5.37147 0.253969 11.7716
171 2 2.90992 3.28703 11.2035
112 3 0.372276 0.65335 9.59013
113 3 1.46291 -0.584577 11.7243
114 3 0.344297 1.80206 12.2569
116 3 2.69228 1.73652 10.768
119 3 3.61318 0.187368 13.2057
120 3 5.02056 -0.3754 15.3023
121 3 2.85994 1.21183 15.6712
150 4 2.58198 5.02463 11.1789
125 3 4.96715 2.29229 14.3084
126 3 -0.101061 3.4741 14.5338
168 2 0.871796 -1.03149 9.52567
75 2 -1.26185 0.64258 15.6793
127 3 1.66129 4.47876 16.2393
59 2 -1.71239 2.34243 9.01362
62 2 -0.81861 4.29358 16.8523
71 2 -3.17564 3.90655 9.08566
115 3 1.60594 -1.60558 14.2405
186 2 3.6632 5.48197 9.12172
293 2 3.09304 6.92588 2.13603
143 4 -6.14912 11.8663 6.17142
144 4 -2.61549 6.92005 4.8713
146 4 -2.87335 9.102 7.11599
182 2 -0.943728 5.74641 6.97028
322 2 -1.484 12.8602 0.604378
215 1 0.0662897 11.1718 4.81913
94 2 2.21327 6.46875 5.85141
163 2 -3.85964 7.03648 3.7003
164 2 -1.44574 7.43716 3.70587
166 2 -4.35499 8.68729 7.90437
167 2 -3.10832 10.6492 6.53068
169 2 -5.9754 10.984 4.71833
184 2 -0.0637161 7.12641 8.1123
312 2 -3.10892 12.0054 3.56548
72 2 -4.78912 7.14521 7.01477
157 1 -0.0783601 5.92267 7.72439
192 3 -2.73362 8.06699 5.96236
193 3 -6.41999 10.9334 7.31216
199 3 -1.48067 9.04394 8.0684
206 4 -1.80831 9.05907 1.85342
207 4 0.677975 9.38412 4.13137
213 1 -2.15266 10.8554 2.36281
214 1 1.17474 8.18459 5.49904
294 2 1.80868 7.84949 0.949057
220 2 -1.16927 10.4386 0.833086
221 2 -2.54475 8.00939 0.650635
227 2 -1.33356 11.0853 3.29651
228 2 -3.44333 9.73301 2.67863
229 2 -2.29561 11.7082 1.52148
231 2 0.668877 7.17197 5.13571
232 2 1.0353 8.37226 6.63878
235 2 -0.300084 10.5885 5.77808
242 3 -0.647645 8.54685 2.86355
233 2 -0.668924 11.9737 4.49379
218 2 -6.39336 9.92448 2.65457
291 1 2.88399 7.51568 1.17977
281 2 -4.3645 8.17051 0.0669969
230 2 2.3042 8.10766 5.26413
302 2 -3.78711 7.72676 14.8857
64 2 -0.0359495 6.06586 15.056
204 3 1.37522 8.3787 12.7831
145 4 -2.17718 6.11537 11.8313
148 4 -4.45533 9.93398 10.8435
151 4 -1.44275 9.91564 9.53356
153 4 0.725133 9.52655 11.9106
159 1 -0.0598915 10.7871 13.0574
155 1 -0.960454 6.35238 13.3158
156 1 -4.77767 8.06376 11.3643
301 1 -3.42595 7.04938 16.6001
325 2 -2.45343 6.46998 16.5228
165 2 -2.7628 7.71059 11.4873
318 2 -6.2463 8.26273 17.3153
259 1 -6.32591 9.12885 16.6145
177 2 -0.841796 7.48853 13.0494
178 2 -0.134928 5.60001 12.9675
179 2 -1.62433 6.07933 14.2299
180 2 -4.39384 7.30375 10.5355
181 2 -4.42677 7.84617 12.4081
326 2 -0.934088 11.1836 12.3834
188 2 -0.278161 9.77145 13.8881
194 3 -3.3709 5.32216 12.5255
195 3 -5.59413 10.2358 9.7414
196 3 -4.56416 10.7874 12.0733
197 3 -1.49785 5.48776 10.5482
200 3 -1.22893 11.7058 9.11711
201 3 -2.95671 9.83291 10.2136
202 3 2.68409 5.81064 12.7024
203 3 -0.22374 9.43423 10.5463
30 4 3.36054 4.70243 17.103
258 4 -7.02837 9.94467 14.6897
275 2 -0.18589 8.34139 16.5613
260 2 -5.46583 9.04619 14.9047
262 2 -5.39842 9.78983 16.6222
320 2 -2.93902 10.6146 16.778
270 1 -0.0785257 9.5587 16.4723
274 2 -1.03898 10.2023 16.8258
280 4 -4.93335 6.55419 15.6849
328 2 -5.60279 8.44975 8.84844
303 2 -3.33737 8.11851 16.9234
319 2 -5.94068 8.14258 11.372
147 4 -6.82829 10.6041 8.77602
28 4 7.38319 1.34218 6.46378
31 4 6.11784 3.53288 8.19707
35 4 9.45412 2.01844 4.40266
37 4 11.8872 1.30706 6.19834
40 4 10.2397 4.36704 2.38663
42 4 9.89487 5.64749 7.20485
88 2 7.16811 0.910036 3.01883
55 1 11.3948 3.815 0.839249
56 1 8.38057 5.21026 6.33643
65 2 9.21984 0.694174 3.38795
69 2 9.83363 5.99099 2.80913
70 2 9.70726 4.16857 0.648259
306 2 12.6619 0.704261 1.11214
89 2 6.33681 2.54095 3.71284
109 2 8.69828 5.76316 5.30301
96 2 4.49714 5.55852 3.46341
106 2 11.687 2.72928 1.07552
107 2 12.0982 4.77414 2.17193
108 2 8.12429 4.14089 6.31847
118 3 8.19342 -0.130904 7.01275
123 3 7.0433 2.40859 7.56079
124 3 5.32712 4.64278 7.04888
128 3 8.1083 2.24152 5.23073
129 3 13.963 -0.122324 8.09083
131 3 13.3056 1.87138 5.50691
132 3 10.6578 1.67225 5.3671
133 3 12.0131 -0.548316 6.11261
137 3 9.81862 3.17812 3.39018
139 3 11.7417 1.81146 7.72191
140 3 10.47 4.35901 8.01508
26 4 8.34829 -0.619506 8.54596
264 2 5.67709 4.79554 2.44375
32 4 4.69604 5.61914 6.02463
315 2 15.0563 -0.371966 4.83097
97 2 6.08182 4.86176 4.274
313 2 10.1992 2.37866 0.198289
52 1 5.36696 5.70135 4.16154
323 2 8.72822 0.120102 1.40915
41 4 11.1779 3.00525 8.68715
304 1 13.4509 0.490555 0.386206
330 2 14.4804 0.121201 0.733996
327 2 8.74267 -1.36364 13.5563
310 2 11.3604 -0.917711 14.6116
33 4 5.9503 3.44964 13.9224
36 4 9.8402 1.35509 10.6177
38 4 9.07388 0.273467 16.2923
39 4 12.3338 -0.555639 11.1667
50 1 7.24467 4.55716 9.35061
53 1 7.48865 2.84698 12.8834
54 1 9.71363 0.212474 14.4408
90 2 8.23461 4.18991 9.00851
63 2 5.84517 3.66598 12.1764
66 2 8.94687 1.85131 12.0101
67 2 9.59893 1.77176 15.2098
68 2 12.5833 -1.25716 12.6975
77 2 13.3935 0.954894 13.9975
86 2 6.41356 1.62403 10.9634
91 2 6.86518 4.15481 10.3304
309 2 13.3378 -0.797805 14.5545
99 2 8.31833 3.62585 12.7272
100 2 7.23328 2.22926 12.0079
101 2 7.702 2.06383 13.914
102 2 10.5695 0.313978 13.6823
103 2 8.67349 0.262342 13.942
104 2 9.85801 -1.25128 15.4848
130 3 8.88519 0.413653 9.65322
134 3 7.49199 0.118853 16.5095
135 3 13.6178 0.190493 10.6266
136 3 11.0711 0.33133 11.1238
138 3 10.4271 2.66161 9.98403
141 3 6.06871 4.83025 14.682
249 4 11.1443 4.596 13.2724
250 1 11.7341 2.75657 13.1694
105 2 11.5603 2.22254 17.3634
305 2 13.5038 -0.561971 17.3064
253 2 12.0681 2.42821 12.1254
254 2 10.6248 2.39797 13.3156
20 4 14.4853 0.718442 9.34437
256 2 9.3828 4.41579 11.4738
307 1 12.4285 -1.5273 14.6611
252 2 12.4439 2.64123 14.1062
187 2 4.91182 5.23679 10.3969
300 2 2.12189 11.4696 7.52934
295 1 1.12601 12.3869 1.99014
110 2 7.63215 5.81418 6.924
61 2 5.30438 7.20925 6.33162
244 3 7.69015 9.61902 8.73604
298 1 1.47556 11.0826 8.36936
292 2 3.56635 8.41294 1.20492
234 2 1.07159 11.6606 5.05078
98 2 5.87239 6.72268 4.03833
205 4 7.90771 8.92184 2.94356
208 4 5.07939 11.926 7.15103
209 4 3.6824 10.5308 3.8235
210 4 6.43554 8.6493 8.56739
211 4 6.05456 9.67991 5.44688
212 1 7.70896 10.3026 1.63612
216 1 4.6568 11.0159 2.28968
268 4 1.46733 11.6245 0.0664912
219 2 8.65884 7.44398 2.81094
222 2 4.45206 10.7235 8.13294
223 2 3.45523 12.0215 4.59184
317 2 7.39513 11.189 2.32627
225 2 6.59688 9.42909 1.30267
226 2 8.36129 10.6017 0.610072
297 2 0.672162 11.9034 3.06584
272 2 1.5149 10.5792 1.52699
57 1 10.0515 7.39347 8.55837
236 2 4.01408 10.5461 1.48858
237 2 5.80513 10.7291 2.13763
238 2 4.53962 12.128 2.34112
243 3 2.08996 9.81305 3.48511
245 3 7.13593 9.25737 4.36085
246 3 4.58976 9.53375 4.64446
247 3 5.96438 8.55806 7.05251
248 3 6.33548 11.1786 5.95856
111 2 8.78584 7.10407 8.4773
296 2 2.1048 12.7794 2.19034
324 2 0.962058 10.1559 7.97057
43 4 5.90049 5.68638 15.9531
73 2 6.43187 7.29153 15.6926
261 2 8.13149 9.78626 16.7825
142 3 4.38305 5.77937 16.4072
158 1 3.97364 5.77631 10.1757
160 1 4.13213 7.95636 13.5482
173 2 1.58542 11.086 12.1004
185 2 3.9592 6.84519 10.3082
257 2 10.0829 6.3242 11.9308
74 2 6.87416 5.13651 17.2037
189 2 3.86663 8.91183 12.7877
190 2 4.87917 7.25947 13.0611
191 2 4.502 8.30029 14.6038
217 1 4.94713 9.42447 9.56432
239 2 4.82067 8.43428 10.171
240 2 3.9395 9.84575 9.27643
241 2 5.53794 10.0878 10.2107
92 2 7.14268 5.75773 9.22971
251 1 9.56445 5.17272 12.3108
172 2 3.01884 7.3353 15.0982
224 2 6.80227 7.04632 8.93912
269 4 4.33704 10.6283 16.4526
271 1 5.41524 8.87955 16.3082
152 4 2.43126 7.22214 13.4464
276 2 6.01918 9.32482 17.2548
277 2 6.12029 8.91845 15.3327
278 2 4.83362 7.96406 16.4961
279 3 2.82156 10.0904 16.9455
255 2 8.70575 5.32751 12.9612
331 3 10.799 5.06507 14.8524
299 2 2.04677 10.8254 9.31908
287 1 7.29825 9.10496 13.7088
288 2 6.90264 8.14972 14.1714
289 2 8.00207 8.94011 12.765
290 2 6.51184 9.90071 13.5851
282 2 9.18276 7.41141 15.7635
308 2 4.26877 10.5831 13.9958
314 2 4.0141 10.9909 10.3158
273 2 0.419988 9.93406 15.4718
329 2 10.4973 6.80136 9.47382
ITEM: TIMESTEP
100
ITEM: NUMBER OF ATOMS
331
ITEM: BOX BOUNDS xy xz yz pp pp pp
-8.3499999999999996e+00 1.5708700000000000e+01 -8.2042000000000002e+00
-2.0045971999999992e+00 1.3080256600000000e+01 -1.4580000000000001e-01
0.0000000000000000e+00 1.7524799999999999e+01 -2.0045971999999992e+00
ITEM: ATOMS id type x y z
1 4 -0.925359 2.2777 4.92902
2 4 -0.212826 4.36823 2.50166
3 1 0.289192 2.99976 6.16251
46 1 5.76765 0.199447 0.0927945
5 1 1.76146 4.73218 2.35961
6 1 -1.20241 4.89196 0.989913
8 2 -0.383232 3.83181 6.55286
9 2 1.26109 3.45989 5.63622
10 2 0.556125 2.19294 6.91361
11 2 0.98059 0.520446 4.36656
12 2 1.53328 3.37083 1.74231
13 2 2.29098 4.65292 3.31953
14 2 2.19054 5.6787 1.73095
316 2 -0.556501 0.728816 3.26293
16 2 -2.39041 4.39709 1.04879
17 2 -0.518762 4.43212 0.166868
18 3 -0.901448 3.22798 3.71222
24 4 5.09825 0.749904 4.25388
45 1 3.2259 1.33515 4.27935
47 1 3.95835 0.501896 8.21777
174 2 -1.18407 5.10012 5.23039
51 1 2.80764 5.35669 6.03338
78 2 3.12062 1.93225 5.23023
79 2 2.44223 0.425009 4.15594
80 2 3.40871 1.99834 3.30413
162 2 3.37602 -0.215486 6.47346
82 2 4.52431 0.712906 7.18654
83 2 2.82663 0.344097 7.95886
7 2 0.487554 5.70598 3.47383
170 2 -0.459948 4.15798 8.49029
93 2 2.81036 4.7559 5.09336
4 1 -0.188842 0.523156 4.34783
95 2 2.51254 4.67622 6.90011
117 3 5.64962 0.715703 5.69012
284 2 2.66787 1.36469 0.760393
87 2 5.57421 2.00653 2.03125
266 3 5.41582 3.12267 0.270556
267 3 4.19832 5.39163 0.348092
154 1 -2.24026 5.25815 5.63572
263 4 4.7226 4.2293 1.17061
176 2 -2.41545 5.27946 6.78071
286 2 0.720473 1.49345 0.298615
311 2 1.79535 4.48819 0.354172
265 2 3.30971 3.56216 1.9728
321 2 4.84365 0.298479 0.743795
175 2 -3.06621 4.64276 5.04097
49 1 6.08602 1.81755 2.99451
161 2 0.68298 -0.361815 5.91142
183 2 1.13328 5.6433 7.14676
15 2 -1.13589 6.02394 1.21134
322 2 6.81571 0.147299 0.662643
182 2 -0.82889 5.61935 7.00403
81 2 4.39748 -0.505299 8.71716
19 4 1.61221 1.17738 16.7434
21 4 2.50789 -0.998195 12.8389
22 4 1.10227 0.983733 11.2146
23 4 -0.542939 2.3199 13.4706
25 4 6.01575 -0.121294 16.783
27 4 4.25444 1.43391 9.82669
29 4 4.07644 0.897473 14.6058
285 2 1.88111 -1.07807 16.5266
34 4 0.373665 4.3619 15.6428
44 1 -0.88446 0.725417 14.5993
48 1 5.68667 0.752746 10.7602
58 2 0.0342675 1.60565 16.0373
60 2 -2.1324 2.95719 12.9972
198 3 1.2616 5.29415 10.2878
62 2 -0.599105 4.09028 17.0262
122 3 4.86763 2.84061 9.39945
76 2 -0.324779 0.0467832 13.7391
84 2 6.23817 -0.11782 10.1659
85 2 4.94749 0.368889 11.6818
171 2 2.45329 3.19721 11.1427
112 3 0.391404 0.732607 9.51053
113 3 1.35533 -0.541941 11.7708
114 3 0.210522 1.85711 12.1737
116 3 2.52842 1.66686 10.8477
119 3 3.40734 0.336071 13.3269
120 3 5.08335 -0.277052 15.3455
121 3 2.84866 1.12413 15.6884
150 4 2.5318 4.96765 11.1226
125 3 4.9022 2.27612 14.207
126 3 0.119634 3.3109 14.5184
168 2 0.967559 -0.802001 9.38629
75 2 -0.747489 0.119837 15.5329
127 3 1.81665 4.56603 16.0467
59 2 -1.69293 2.33218 9.10978
71 2 -3.06416 3.74638 9.3505
186 2 3.66771 5.33802 8.95863
283 1 1.70113 -0.457892 17.5143
293 2 2.67648 7.01766 2.17255
143 4 -6.14446 11.7986 6.31655
144 4 -2.58957 6.8592 4.77536
146 4 -2.78113 8.92654 7.21184
291 1 2.70672 7.56806 1.18345
230 2 2.12221 8.26777 5.81239
215 1 0.0100436 11.0824 4.70037
94 2 2.1512 6.35638 5.94765
163 2 -3.96906 6.89496 3.85661
164 2 -1.29732 7.30621 3.61183
166 2 -4.2055 8.72895 8.13702
167 2 -2.93305 10.4205 6.45662
169 2 -5.57336 11.0856 4.9211
184 2 0.0467737 7.18702 8.05089
312 2 -3.07411 12.2599 3.4345
72 2 -4.87151 7.24081 7.08773
157 1 0.0547473 5.85924 7.74541
192 3 -2.65993 7.87289 5.94043
193 3 -6.2763 10.841 7.49764
199 3 -1.52504 9.12911 8.12841
206 4 -1.84262 9.18229 1.82774
207 4 0.673405 9.27841 4.09246
213 1 -2.05305 10.9467 2.36375
214 1 1.00987 8.15903 5.55263
294 2 1.63117 7.71942 0.872936
220 2 -1.27016 10.3751 0.699192
221 2 -2.68627 7.93756 0.721873
227 2 -1.0995 11.0335 3.07096
228 2 -3.3073 10.0517 2.86203
229 2 -2.22611 11.8454 1.53087
231 2 0.633641 7.13414 5.24075
232 2 0.304003 8.71106 6.3585
235 2 -0.319156 10.5939 5.68154
242 3 -0.746549 8.4826 2.79263
233 2 -0.750644 11.7827 4.23816
218 2 -6.3685 9.9472 2.75322
302 2 -3.65138 7.73835 15.2486
64 2 -0.289663 5.86673 15.1615
204 3 1.51044 8.40466 12.5778
145 4 -2.19272 6.18462 11.8765
148 4 -4.47695 10.0042 10.9738
151 4 -1.45194 9.94495 9.60097
153 4 0.638662 9.53361 11.9115
159 1 -0.274964 10.8682 12.86
155 1 -1.00142 6.08236 13.3551
156 1 -4.9414 8.17067 11.356
301 1 -3.07729 6.66412 16.6884
325 2 -2.48573 6.06185 15.9057
165 2 -2.9955 7.6803 11.4977
147 4 -6.80645 10.6467 8.93172
259 1 -6.35979 9.04016 16.5063
177 2 -0.874923 7.30917 13.3394
178 2 0.00616249 5.57047 13.3031
179 2 -1.68518 5.73126 14.1732
180 2 -4.48551 7.37076 10.607
181 2 -4.56601 8.0146 12.4076
326 2 -1.08929 11.2411 12.183
188 2 -0.755356 10.0124 13.5958
194 3 -3.32709 5.20945 12.388
195 3 -5.59195 10.2617 9.85356
196 3 -4.76376 10.9226 12.2346
197 3 -1.42802 5.80838 10.52
200 3 -1.20041 11.5571 9.28802
201 3 -2.88713 9.83399 10.4042
202 3 2.46027 5.65319 12.6107
203 3 -0.211242 9.25693 10.6285
30 4 3.35331 4.78918 17.175
258 4 -6.92576 9.85201 14.7975
275 2 -0.00518907 8.66756 16.1449
260 2 -5.57552 8.64619 14.8686
262 2 -5.36343 9.58224 16.7352
320 2 -2.71139 10.5545 16.7976
270 1 0.0226842 9.91234 16.3398
274 2 -0.935654 10.3427 16.8153
280 4 -4.80511 6.48225 15.7714
115 3 -6.29826 11.2241 14.2716
303 2 -2.87234 7.74654 16.7398
328 2 -5.54772 8.48121 9.03801
149 4 -0.0742219 5.55211 9.57788
329 2 -4.82623 6.79058 9.39841
281 2 -4.59433 5.96025 17.5163
28 4 7.24615 1.35845 6.49932
31 4 6.10232 3.52148 8.25442
35 4 9.43504 1.92328 4.39869
37 4 11.9051 1.29934 6.29384
40 4 10.2676 4.25838 2.39226
42 4 9.86572 5.65615 7.23764
330 2 14.462 0.513808 0.717919
55 1 11.474 3.67483 0.944007
56 1 8.476 5.25961 6.1855
65 2 9.11197 0.589301 3.36988
69 2 9.85274 5.771 2.86537
70 2 9.70295 3.85324 0.662736
306 2 12.7307 0.826844 1.22818
89 2 6.41804 2.77599 3.53017
323 2 8.83547 0.0588359 1.52923
96 2 4.63346 4.99679 3.89336
106 2 11.677 2.57152 1.25321
107 2 12.0626 4.74154 2.30985
108 2 8.39946 4.14952 5.80636
118 3 8.19862 0.110491 7.09153
123 3 6.95935 2.3177 7.67884
124 3 5.40004 4.6205 7.00209
128 3 8.13978 2.14788 5.228
129 3 14.0184 -0.291008 8.20977
131 3 13.3104 1.919 5.73586
132 3 10.7135 1.4885 5.1952
133 3 11.969 -0.579115 6.40212
137 3 9.84836 3.18787 3.48072
139 3 11.6654 1.96788 7.71944
140 3 10.6385 4.40928 7.92314
26 4 8.44866 -0.501306 8.59157
264 2 5.64438 4.71869 2.49175
32 4 4.77692 5.71668 6.06961
315 2 15.0457 -0.43419 4.78802
97 2 6.43 4.88716 4.63244
313 2 10.3355 2.29016 0.0934492
52 1 5.55345 5.58881 4.34189
110 2 7.62266 5.6661 6.96839
41 4 11.2885 3.15484 8.68879
304 1 13.4106 0.752821 0.358246
88 2 6.97217 1.0375 2.92021
327 2 8.55067 -1.40672 13.4572
310 2 11.4315 -0.990002 14.567
33 4 5.93041 3.43378 13.7622
36 4 9.8696 1.26557 10.6755
38 4 9.19571 0.0173683 16.2428
39 4 12.3816 -0.51736 11.2674
50 1 7.15799 4.55749 9.47317
53 1 7.50317 2.91745 12.7896
54 1 9.72135 0.000878697 14.32
90 2 8.16895 4.17916 9.07725
63 2 5.84386 3.73098 12.1022
66 2 8.98507 1.9289 11.9812
67 2 9.66687 1.51694 15.3551
68 2 12.7855 -1.1115 12.8745
77 2 13.629 0.946796 14.3607
86 2 6.31312 1.65528 11.0933
91 2 6.79451 4.00909 10.405
309 2 13.4141 -0.78724 14.7035
99 2 8.34844 3.73523 12.4472
100 2 7.24331 2.32665 11.8178
101 2 7.76406 2.21843 13.9029
102 2 10.6161 0.0233888 13.6376
103 2 8.72742 0.177512 13.8106
104 2 9.86908 -1.43595 15.2872
130 3 8.91992 0.387533 9.77531
134 3 7.63468 -0.123603 16.5363
135 3 13.618 0.196164 10.6876
136 3 11.0131 0.333922 11.2709
138 3 10.4453 2.57376 9.92048
252 2 12.198 2.55873 14.1771
249 4 11.1024 4.5566 13.203
250 1 11.6424 2.71196 13.1529
187 2 4.82174 4.99997 10.4289
305 2 13.1705 -0.35896 17.1103
253 2 12.1574 2.1912 12.3394
254 2 10.427 2.39144 13.2121
20 4 14.5005 0.697385 9.39378
256 2 9.60636 4.3891 11.0645
307 1 12.581 -1.56929 14.7631
251 1 9.64978 5.15072 11.9876
105 2 11.8712 2.01489 17.5174
300 2 2.23174 11.6281 7.53974
295 1 1.31207 12.2934 1.93595
268 4 1.5112 11.7175 0.0463509
61 2 5.53979 7.23958 6.48744
324 2 0.994042 10.3208 8.4055
298 1 1.65219 11.2807 8.49085
292 2 3.35156 8.57814 1.08686
234 2 1.01803 11.5914 4.79571
98 2 5.85371 6.55729 3.83309
205 4 7.93688 8.95482 3.02563
208 4 5.14646 11.9191 7.09383
209 4 3.73291 10.5103 3.81124
210 4 6.36908 8.74241 8.69643
211 4 6.0865 9.60861 5.43554
212 1 7.82377 10.3956 1.72696
216 1 4.67865 10.9544 2.29802
248 3 6.2306 11.2554 5.89659
219 2 8.4755 7.38866 2.82533
222 2 4.5176 10.6161 8.00909
223 2 3.5222 11.8183 4.88635
317 2 7.44064 11.3164 2.24682
225 2 6.76379 9.4092 1.38158
226 2 8.42488 10.7058 0.696468
297 2 0.826868 11.8719 3.04199
272 2 1.41367 10.4716 1.36247
57 1 10.1279 7.39573 8.71059
236 2 4.15742 10.4226 1.47723
237 2 5.88427 10.8109 2.11896
238 2 4.33351 12.0997 2.27223
243 3 2.08329 9.71138 3.50465
245 3 7.19177 9.25334 4.40626
246 3 4.61417 9.45912 4.65379
247 3 5.85656 8.69639 7.11538
109 2 8.72411 6.04824 5.28091
296 2 2.41885 12.6126 2.10291
43 4 5.86093 5.78231 15.8584
73 2 6.24935 7.38846 15.4331
261 2 8.02545 10.0377 16.521
142 3 4.53175 5.74526 16.5418
158 1 3.94127 5.57944 10.0373
160 1 4.11841 7.95232 13.6016
173 2 1.34898 11.1792 11.8766
185 2 4.02208 6.69146 10.2798
257 2 10.0045 6.19292 11.6482
74 2 7.18518 5.56151 16.8433
189 2 4.09507 8.81578 12.7755
190 2 4.68948 7.01819 13.0649
191 2 4.63658 8.34544 14.5976
217 1 4.9157 9.5484 9.62914
239 2 5.02124 8.55309 10.481
240 2 3.76544 9.69532 9.20303
241 2 5.61059 10.5898 9.85659
92 2 7.08731 5.83678 9.48678
141 3 6.03581 4.94874 14.5306
172 2 2.77513 7.40265 14.9402
224 2 6.75119 7.08072 9.13126
269 4 4.40204 10.626 16.4956
271 1 5.57027 9.05494 16.2592
152 4 2.40572 7.22557 13.234
276 2 6.03111 9.16304 17.3175
277 2 6.28656 9.16478 15.3265
278 2 4.91552 8.08723 16.2673
279 3 2.89615 10.1738 17.0075
255 2 8.65055 5.20984 12.5132
331 3 10.9929 5.21742 14.7336
299 2 2.32634 11.334 9.38852
287 1 7.32295 9.14483 13.5564
288 2 7.24311 8.06635 13.641
289 2 7.9015 9.43019 12.6342
290 2 6.34397 9.70105 13.6338
282 2 9.28835 7.30029 15.7123
308 2 4.6152 10.6335 14.0986
314 2 3.9582 11.0775 10.518
244 3 7.69614 9.69622 8.93036
318 2 9.21337 8.13501 17.1829
273 2 0.325903 10.453 15.3788
319 2 9.67266 8.12632 11.2358
111 2 8.97328 6.95875 8.87499
ITEM: TIMESTEP
200
ITEM: NUMBER OF ATOMS
331
ITEM: BOX BOUNDS xy xz yz pp pp pp
-1.4580000000000001e-01 2.3213200000000001e+01 7.5045000000000002e+00
-2.0035944000000008e+00 1.3073713200000000e+01 -1.4580000000000001e-01
0.0000000000000000e+00 1.7524799999999999e+01 -2.0035944000000008e+00
ITEM: ATOMS id type x y z
81 2 4.01988 -0.54822 8.63953
322 2 6.72042 0.0472551 0.940997
161 2 0.848896 -0.0216759 6.00696
46 1 5.77579 0.266983 0.345052
49 1 6.12428 1.77633 3.10591
321 2 4.93446 0.564197 1.0648
265 2 3.20802 3.55523 1.77039
263 4 4.62518 4.19001 1.00552
267 3 4.15637 5.45882 0.228691
11 2 1.06994 0.719749 4.48871
266 3 5.44085 3.1184 0.254251
87 2 5.63431 2.09231 2.14366
284 2 1.83583 1.72737 1.03875
117 3 5.79083 0.832521 5.77239
83 2 2.91629 0.882546 7.97908
82 2 4.73336 0.760777 7.31696
162 2 3.46432 -0.267221 6.38268
24 4 5.09901 0.741699 4.31633
45 1 3.28635 1.34229 4.27272
47 1 3.98155 0.53091 8.16078
80 2 3.5522 2.48156 4.08454
79 2 2.71725 0.965078 3.38932
78 2 2.76647 1.17959 5.29831
28 4 7.44288 1.37032 6.47326
88 2 6.96299 0.976399 2.89113
31 4 6.11806 3.67313 8.35014
40 4 10.2521 4.22778 2.2458
123 3 7.10002 2.51431 7.61622
52 1 5.36601 5.1946 4.39973
124 3 5.46522 4.74885 7.3099
97 2 6.06219 4.37245 4.08017
56 1 8.73855 5.22826 6.00328
32 4 4.81733 5.76659 6.13504
264 2 5.37577 4.6115 2.44026
69 2 9.71096 5.83862 2.59384
140 3 10.5677 4.37075 8.01499
70 2 9.68338 3.89165 0.464658
109 2 9.25248 5.95923 5.25384
89 2 6.67242 2.67874 3.59851
96 2 4.13305 5.01587 4.13645
108 2 8.71015 4.1884 5.71707
118 3 8.22618 0.115743 7.09399
128 3 8.29126 2.24502 5.30257
110 2 7.75907 5.63276 6.52343
42 4 9.84181 5.66055 7.36783
283 1 1.64021 -0.509058 17.4457
21 4 2.45363 -0.955205 13.0176
186 2 4.05833 5.07068 9.39279
168 2 0.780951 -0.876914 9.34359
25 4 5.88901 -0.115291 16.9136
27 4 4.19741 1.40441 9.84197
29 4 4.05206 0.959678 14.617
285 2 2.42994 -1.16047 16.9667
125 3 4.86399 2.27458 14.2819
121 3 2.79576 1.22079 15.7849
48 1 5.56239 0.491607 10.8946
120 3 5.19797 -0.173439 15.411
119 3 3.40152 0.241749 13.4061
116 3 2.52432 1.55238 10.8114
113 3 1.01454 -0.373107 12.0455
122 3 4.86069 2.73842 9.348
85 2 4.8712 -0.177825 11.473
84 2 6.19508 -0.131068 10.1928
33 4 5.82215 3.37527 13.7614
103 2 8.54456 0.236522 14.2125
50 1 7.17395 4.67317 9.51393
256 2 9.32964 4.48583 11.2581
53 1 7.42524 2.8485 12.7434
90 2 8.18242 4.15503 9.44581
63 2 5.71199 3.52056 12.0706
66 2 8.85825 1.80715 11.8822
141 3 5.85801 4.76171 14.5519
86 2 6.18464 1.17571 11.5171
249 4 11.033 4.57448 13.193
91 2 6.65906 4.40451 10.4821
99 2 8.17129 3.7375 12.4256
100 2 7.21867 2.04369 11.9798
101 2 7.84011 2.36415 13.8706
134 3 7.75713 -0.055408 16.662
171 2 2.85295 3.12023 11.4145
19 4 1.64325 1.18633 16.8117
286 2 0.52072 -0.847704 17.2155
218 2 9.4223 10.0295 2.69052
143 4 9.61906 11.8053 6.19114
229 2 13.3717 11.7179 1.71028
146 4 12.9154 9.05481 7.12937
228 2 12.1607 9.86036 2.79635
213 1 13.4415 10.8511 2.52524
193 3 9.36107 10.8666 7.35353
72 2 11.1285 7.06971 7.25594
163 2 11.8259 6.75599 3.71118
312 2 12.5501 12.1411 3.60034
166 2 11.4289 8.67709 8.02294
167 2 12.5324 10.5808 6.50936
169 2 9.89649 10.9926 4.81044
61 2 5.1019 7.41642 6.56217
98 2 5.71533 6.26326 4.11659
226 2 8.46061 10.7138 0.848997
247 3 5.88131 8.76548 7.12519
205 4 8.02525 8.90876 3.04222
245 3 7.39067 9.13748 4.55919
210 4 6.36964 8.76384 8.65157
211 4 6.17446 9.67529 5.47678
212 1 7.8611 10.3818 1.82483
219 2 8.65016 7.35282 2.80924
57 1 10.1254 7.37823 8.6229
317 2 7.41563 11.2816 2.35402
225 2 6.78737 9.1849 1.48246
281 2 11.4693 7.95725 0.094685
111 2 8.6701 6.8357 8.58425
302 2 12.2065 7.67485 15.2596
251 1 9.50661 5.2157 12.0823
329 2 10.6691 6.91141 9.48028
328 2 10.0602 8.50055 8.81313
148 4 11.2098 10.0065 11.0398
303 2 13.0021 7.70135 16.7843
115 3 9.36671 11.2713 14.4409
280 4 11.0276 6.36591 15.8627
320 2 12.7891 10.4657 17.253
156 1 10.7218 8.14557 11.3975
262 2 10.0024 10.0159 16.9153
260 2 10.3649 8.74536 14.992
165 2 12.6518 7.71777 11.6656
147 4 8.91288 10.7128 8.86447
259 1 9.40576 9.10609 16.5717
258 4 8.87642 9.78483 14.7029
201 3 12.7378 9.96186 10.3562
200 3 14.5205 11.52 9.12011
180 2 11.2575 7.42642 10.6856
181 2 11.1427 8.1592 12.5189
326 2 14.524 11.2151 12.3961
196 3 11.0087 10.9917 12.2916
195 3 10.0558 10.3908 9.94611
43 4 5.86114 5.76038 15.7734
274 2 14.7664 10.4233 16.9325
319 2 9.62326 8.04074 11.4076
73 2 6.15457 7.36442 15.3125
318 2 9.49254 8.3082 17.3152
244 3 7.73075 9.64597 8.99772
261 2 7.91954 9.52637 16.5828
142 3 4.55309 5.85177 16.5781
282 2 9.48179 7.28874 15.8921
158 1 4.00908 5.7406 10.3222
289 2 8.14109 9.33936 12.6223
288 2 7.15743 8.14768 13.7478
287 1 7.46519 9.279 13.5794
257 2 9.8754 6.21834 11.6124
331 3 10.9452 5.18396 14.7385
255 2 8.72667 5.33885 12.8849
74 2 7.18351 5.51861 16.8164
92 2 7.11724 5.84336 9.27993
277 2 6.09897 9.19062 15.0618
190 2 4.81544 6.92381 13.1479
224 2 6.78875 7.16628 8.99792
290 2 6.62164 9.99204 13.6367
187 2 4.892 5.50283 11.0521
304 1 13.6568 0.958439 0.259507
41 4 11.2574 3.05663 8.62394
35 4 9.46475 1.88559 4.37414
37 4 11.886 1.32652 6.21853
313 2 10.4741 2.00706 0.22885
315 2 15.1729 -0.324744 5.02658
330 2 14.7882 0.882985 0.188231
55 1 11.4601 3.59217 0.840241
26 4 8.43936 -0.676207 8.54694
65 2 9.09958 0.441335 3.47642
139 3 11.5523 1.89072 7.62328
133 3 12.0958 -0.494963 6.3253
306 2 13.236 0.87937 1.27786
132 3 10.7134 1.51152 5.2589
323 2 8.61613 0.13176 1.22714
131 3 13.3659 1.82726 5.64412
106 2 11.602 2.54792 1.20692
107 2 12.1231 4.55423 2.16586
129 3 14.0768 -0.330078 8.09645
1 4 14.7777 2.18643 4.89619
2 4 15.5224 4.25766 2.57695
137 3 9.87309 3.11943 3.29421
3 1 16.0848 2.62083 6.23886
15 2 14.5961 5.83872 1.1933
51 1 18.5474 5.64648 6.22427
5 1 17.5037 4.8368 2.35661
6 1 14.4821 4.72151 0.970536
175 2 12.847 4.60501 5.07879
8 2 15.5427 3.62055 6.51678
9 2 17.1177 2.7227 5.82692
311 2 17.5586 4.54742 0.424016
296 2 10.394 -0.261259 2.25637
176 2 13.1816 5.4072 6.80315
10 2 15.9865 1.89297 7.07695
154 1 13.4472 5.35486 5.67573
12 2 17.1021 3.27906 1.98443
13 2 18.447 4.8814 2.96207
14 2 17.5569 5.52684 1.43015
316 2 15.3465 0.319519 3.26511
16 2 13.3418 4.30663 0.978314
95 2 18.5942 5.55689 7.36749
4 1 15.6261 0.514224 4.34813
174 2 14.6554 5.32702 5.45423
170 2 15.0462 4.51389 8.08857
7 2 16.3065 5.75248 3.3375
17 2 15.17 4.30633 0.101566
18 3 14.7255 3.32127 3.64684
93 2 18.2539 4.70535 5.75046
327 2 8.63674 -1.3226 13.5065
310 2 11.4431 -0.914218 14.6196
307 1 12.5044 -1.4287 14.7459
36 4 9.94372 1.29121 10.5953
38 4 9.28357 -0.106168 16.3819
39 4 12.3772 -0.481885 11.2868
20 4 14.4075 0.69719 9.36683
254 2 10.4117 2.39056 13.2676
54 1 9.66033 0.104912 14.4741
253 2 11.9429 2.4936 12.2263
305 2 13.1409 -0.0823325 17.1919
250 1 11.5248 2.76304 13.2359
67 2 10.1558 1.39916 15.5128
68 2 12.6092 -1.36723 12.776
77 2 13.6538 0.855725 14.3881
252 2 12.1382 2.24911 14.0336
138 3 10.3708 2.63115 9.94552
309 2 13.3559 -0.728417 14.6101
136 3 11.1517 0.412262 11.3462
135 3 13.6544 0.296191 10.7237
130 3 9.04068 0.346422 9.63107
102 2 10.286 0.116607 13.61
104 2 9.90987 -1.47946 15.318
112 3 15.9457 0.74611 9.57589
22 4 16.7825 0.98085 11.2701
23 4 15.1291 2.33711 13.5396
71 2 12.6884 3.67918 9.25013
59 2 13.9278 2.21965 8.83321
127 3 17.4422 4.55028 16.2853
75 2 15.1466 -0.177159 15.3071
34 4 16.0786 4.24981 15.7308
126 3 15.7811 3.3017 14.5363
44 1 14.9555 0.572373 14.4728
150 4 18.2948 4.80773 11.1039
58 2 15.781 1.25995 16.0131
60 2 13.4938 2.97885 13.251
198 3 17.0712 5.02215 10.1152
62 2 14.9198 3.86668 16.991
114 3 15.908 2.0638 12.1603
76 2 15.4184 0.0291511 13.5085
105 2 11.8442 1.83179 17.433
300 2 17.3119 10.9937 7.06598
295 1 16.9682 12.305 1.96731
268 4 17.3046 11.8216 0.0354636
184 2 15.7338 7.48387 8.39239
183 2 16.8221 6.12795 7.15344
298 1 17.4365 11.2072 8.21246
292 2 19.1209 8.65094 1.07085
234 2 16.7984 11.6503 4.76342
246 3 20.513 9.38269 4.55587
243 3 17.8974 9.6996 3.60841
208 4 20.8719 11.8199 7.06451
209 4 19.5575 10.3886 3.75476
238 2 20.0697 12.047 2.27054
237 2 21.5741 10.6593 1.98059
236 2 19.567 10.3994 1.39069
216 1 20.2687 10.8856 2.1352
248 3 21.9899 11.2188 5.89159
272 2 17.4635 10.5918 1.44603
222 2 20.1018 10.5922 8.02711
223 2 19.4591 11.8454 4.72704
297 2 16.4247 11.9164 2.92111
293 2 19.0075 7.04674 2.03587
144 4 13.1943 6.94807 4.7855
233 2 14.999 11.8102 4.4465
242 3 15.0708 8.66202 2.77725
235 2 15.5359 10.4584 5.72389
232 2 15.8855 8.26711 6.40631
231 2 16.1781 7.01958 5.0311
291 1 18.5213 7.66143 1.19645
230 2 17.8774 8.16507 5.45818
227 2 14.3773 10.9466 3.38141
221 2 13.0814 7.85879 0.764222
220 2 14.3112 10.5643 0.805041
294 2 17.3877 7.77258 1.06911
214 1 16.5309 7.97228 5.47517
215 1 15.8355 11.0415 4.62817
207 4 16.471 9.23644 4.11874
206 4 13.8533 9.18066 1.88775
199 3 14.0722 9.16025 8.11714
94 2 17.869 6.47127 5.86875
192 3 13.0201 8.0595 5.93642
157 1 15.7574 6.2873 7.72047
164 2 14.2534 7.54136 3.60899
182 2 14.8592 6.08788 7.03953
299 2 18.3931 11.7579 8.54824
273 2 16.0107 10.2975 15.3867
314 2 19.6019 11.0724 10.4888
308 2 20.199 10.6615 14.2401
194 3 12.4052 5.2506 12.3669
179 2 14.1498 5.36453 13.9699
160 1 19.8928 7.81221 13.4101
173 2 17.0975 11.1396 11.8854
185 2 19.5057 6.80974 10.1257
279 3 18.567 10.2959 17.0841
278 2 20.4382 8.25537 16.1522
189 2 19.8025 8.56233 12.4323
188 2 15.2311 9.93163 13.7802
191 2 20.3675 8.35791 14.3838
217 1 20.595 9.5964 9.65178
239 2 20.8417 8.6587 10.52
240 2 19.4412 9.80653 9.67559