ITEM: TIMESTEP
0
ITEM: NUMBER OF ATOMS
331
ITEM: BOX BOUNDS xy xz yz pp pp pp
-8.3499999999999996e+00 1.5708700000000000e+01 -8.2042000000000002e+00
-2.0055999999999998e+00 1.3086800000000000e+01 -1.4580000000000001e-01
0.0000000000000000e+00 1.7524799999999999e+01 -2.0055999999999998e+00
ITEM: ATOMS id type x y z
1 4 -0.985234 2.18515 4.86022
2 4 -0.147071 4.30007 2.48287
3 1 0.196631 3.08032 6.00323
46 1 5.76821 0.162142 0.130763
5 1 1.95927 4.58219 2.53766
6 1 -1.26181 4.77321 1.07629
8 2 -0.136204 3.97108 6.59413
9 2 1.05735 3.3403 5.2319
10 2 0.370394 2.05167 6.65662
11 2 0.997689 0.615762 4.44465
12 2 1.67437 3.18968 2.10989
13 2 2.50598 4.64393 3.58096
14 2 2.40595 5.29511 1.76191
283 1 1.66569 1.45538 0.0803923
16 2 -2.40482 4.41562 0.983203
17 2 -0.559478 4.33786 0.247772
18 3 -0.960526 3.37841 3.4795
24 4 5.09035 0.605136 4.1662
45 1 3.28302 1.25127 4.1501
47 1 4.06357 0.397792 8.15923
174 2 -1.29196 5.18947 5.31847
51 1 2.84798 5.33466 5.94372
78 2 3.07824 1.44315 5.25678
79 2 2.63133 0.378239 3.74813
80 2 3.27263 2.1243 3.38671
162 2 3.35974 -0.130566 6.40514
82 2 4.73108 0.59543 7.15404
83 2 2.93504 0.532948 8.06468
7 2 0.593571 5.56835 3.45016
170 2 -0.367142 4.09522 8.44805
93 2 2.69007 4.5799 5.02329
4 1 -0.133457 0.451764 4.2568
95 2 2.6955 4.87628 7.0599
117 3 5.76342 0.740257 5.84849
284 2 2.71059 1.23142 0.444202
87 2 5.91902 1.97215 1.98856
266 3 5.42318 3.03941 0.404049
267 3 4.14628 5.35021 0.281784
154 1 -2.48386 5.25671 5.73801
263 4 4.72349 4.1733 1.15106
176 2 -2.56714 5.25532 6.83186
286 2 0.951081 1.5017 0.9619
311 2 1.90505 4.1893 0.608977
265 2 3.43724 3.40451 1.92278
321 2 4.97022 0.431306 0.883608
175 2 -3.20094 4.56239 5.29804
49 1 6.26398 1.57654 3.00092
161 2 0.659749 -0.292858 5.89052
316 2 -0.393285 0.471891 3.17298
15 2 -1.14407 5.89113 1.19454
183 2 0.898996 5.68804 7.18135
81 2 4.31662 -0.595864 8.64177
19 4 1.63822 1.07049 16.7599
21 4 2.5682 -1.0125 12.7708
22 4 1.2143 0.944105 11.1815
23 4 -0.635302 2.32837 13.3812
25 4 5.90743 -0.13597 16.7436
27 4 4.27334 1.45836 9.73717
29 4 4.05764 0.816501 14.6216
285 2 1.16215 -1.20375 16.6724
34 4 0.303295 4.49379 15.6475
44 1 -1.05085 0.86357 14.5626
48 1 5.71313 0.708863 10.7982
58 2 0.146032 1.56317 15.9343
60 2 -2.07549 3.06779 12.7051
198 3 1.2384 5.20234 10.2974
149 4 -0.161202 5.39556 9.53836
122 3 4.76721 2.88722 9.23394
76 2 -0.484548 -0.0293496 14.0567
84 2 6.3176 -0.0750142 10.1353
85 2 5.37147 0.253969 11.7716
171 2 2.90992 3.28703 11.2035
112 3 0.372276 0.65335 9.59013
113 3 1.46291 -0.584577 11.7243
114 3 0.344297 1.80206 12.2569
116 3 2.69228 1.73652 10.768
119 3 3.61318 0.187368 13.2057
120 3 5.02056 -0.3754 15.3023
121 3 2.85994 1.21183 15.6712
150 4 2.58198 5.02463 11.1789
125 3 4.96715 2.29229 14.3084
126 3 -0.101061 3.4741 14.5338
168 2 0.871796 -1.03149 9.52567
75 2 -1.26185 0.64258 15.6793
127 3 1.66129 4.47876 16.2393
59 2 -1.71239 2.34243 9.01362
62 2 -0.81861 4.29358 16.8523
71 2 -3.17564 3.90655 9.08566
115 3 1.60594 -1.60558 14.2405
186 2 3.6632 5.48197 9.12172
293 2 3.09304 6.92588 2.13603
143 4 -6.14912 11.8663 6.17142
144 4 -2.61549 6.92005 4.8713
146 4 -2.87335 9.102 7.11599
182 2 -0.943728 5.74641 6.97028
322 2 -1.484 12.8602 0.604378
215 1 0.0662897 11.1718 4.81913
94 2 2.21327 6.46875 5.85141
163 2 -3.85964 7.03648 3.7003
164 2 -1.44574 7.43716 3.70587
166 2 -4.35499 8.68729 7.90437
167 2 -3.10832 10.6492 6.53068
169 2 -5.9754 10.984 4.71833
184 2 -0.0637161 7.12641 8.1123
312 2 -3.10892 12.0054 3.56548
72 2 -4.78912 7.14521 7.01477
157 1 -0.0783601 5.92267 7.72439
192 3 -2.73362 8.06699 5.96236
193 3 -6.41999 10.9334 7.31216
199 3 -1.48067 9.04394 8.0684
206 4 -1.80831 9.05907 1.85342
207 4 0.677975 9.38412 4.13137
213 1 -2.15266 10.8554 2.36281
214 1 1.17474 8.18459 5.49904
294 2 1.80868 7.84949 0.949057
220 2 -1.16927 10.4386 0.833086
221 2 -2.54475 8.00939 0.650635
227 2 -1.33356 11.0853 3.29651
228 2 -3.44333 9.73301 2.67863
229 2 -2.29561 11.7082 1.52148
231 2 0.668877 7.17197 5.13571
232 2 1.0353 8.37226 6.63878
235 2 -0.300084 10.5885 5.77808
242 3 -0.647645 8.54685 2.86355
233 2 -0.668924 11.9737 4.49379
218 2 -6.39336 9.92448 2.65457
291 1 2.88399 7.51568 1.17977
281 2 -4.3645 8.17051 0.0669969
230 2 2.3042 8.10766 5.26413
302 2 -3.78711 7.72676 14.8857
64 2 -0.0359495 6.06586 15.056
204 3 1.37522 8.3787 12.7831
145 4 -2.17718 6.11537 11.8313
148 4 -4.45533 9.93398 10.8435
151 4 -1.44275 9.91564 9.53356
153 4 0.725133 9.52655 11.9106
159 1 -0.0598915 10.7871 13.0574
155 1 -0.960454 6.35238 13.3158
156 1 -4.77767 8.06376 11.3643
301 1 -3.42595 7.04938 16.6001
325 2 -2.45343 6.46998 16.5228
165 2 -2.7628 7.71059 11.4873
318 2 -6.2463 8.26273 17.3153
259 1 -6.32591 9.12885 16.6145
177 2 -0.841796 7.48853 13.0494
178 2 -0.134928 5.60001 12.9675
179 2 -1.62433 6.07933 14.2299
180 2 -4.39384 7.30375 10.5355
181 2 -4.42677 7.84617 12.4081
326 2 -0.934088 11.1836 12.3834
188 2 -0.278161 9.77145 13.8881
194 3 -3.3709 5.32216 12.5255
195 3 -5.59413 10.2358 9.7414
196 3 -4.56416 10.7874 12.0733
197 3 -1.49785 5.48776 10.5482
200 3 -1.22893 11.7058 9.11711
201 3 -2.95671 9.83291 10.2136
202 3 2.68409 5.81064 12.7024
203 3 -0.22374 9.43423 10.5463
30 4 3.36054 4.70243 17.103
258 4 -7.02837 9.94467 14.6897
275 2 -0.18589 8.34139 16.5613
260 2 -5.46583 9.04619 14.9047
262 2 -5.39842 9.78983 16.6222
320 2 -2.93902 10.6146 16.778
270 1 -0.0785257 9.5587 16.4723
274 2 -1.03898 10.2023 16.8258
280 4 -4.93335 6.55419 15.6849
328 2 -5.60279 8.44975 8.84844
303 2 -3.33737 8.11851 16.9234
319 2 -5.94068 8.14258 11.372
147 4 -6.82829 10.6041 8.77602
28 4 7.38319 1.34218 6.46378
31 4 6.11784 3.53288 8.19707
35 4 9.45412 2.01844 4.40266
37 4 11.8872 1.30706 6.19834
40 4 10.2397 4.36704 2.38663
42 4 9.89487 5.64749 7.20485
88 2 7.16811 0.910036 3.01883
55 1 11.3948 3.815 0.839249
56 1 8.38057 5.21026 6.33643
65 2 9.21984 0.694174 3.38795
69 2 9.83363 5.99099 2.80913
70 2 9.70726 4.16857 0.648259
306 2 12.6619 0.704261 1.11214
89 2 6.33681 2.54095 3.71284
109 2 8.69828 5.76316 5.30301
96 2 4.49714 5.55852 3.46341
106 2 11.687 2.72928 1.07552
107 2 12.0982 4.77414 2.17193
108 2 8.12429 4.14089 6.31847
118 3 8.19342 -0.130904 7.01275
123 3 7.0433 2.40859 7.56079
124 3 5.32712 4.64278 7.04888
128 3 8.1083 2.24152 5.23073
129 3 13.963 -0.122324 8.09083
131 3 13.3056 1.87138 5.50691
132 3 10.6578 1.67225 5.3671
133 3 12.0131 -0.548316 6.11261
137 3 9.81862 3.17812 3.39018
139 3 11.7417 1.81146 7.72191
140 3 10.47 4.35901 8.01508
26 4 8.34829 -0.619506 8.54596
264 2 5.67709 4.79554 2.44375
32 4 4.69604 5.61914 6.02463
315 2 15.0563 -0.371966 4.83097
97 2 6.08182 4.86176 4.274
313 2 10.1992 2.37866 0.198289
52 1 5.36696 5.70135 4.16154
323 2 8.72822 0.120102 1.40915
41 4 11.1779 3.00525 8.68715
304 1 13.4509 0.490555 0.386206
330 2 14.4804 0.121201 0.733996
327 2 8.74267 -1.36364 13.5563
310 2 11.3604 -0.917711 14.6116
33 4 5.9503 3.44964 13.9224
36 4 9.8402 1.35509 10.6177
38 4 9.07388 0.273467 16.2923
39 4 12.3338 -0.555639 11.1667
50 1 7.24467 4.55716 9.35061
53 1 7.48865 2.84698 12.8834
54 1 9.71363 0.212474 14.4408
90 2 8.23461 4.18991 9.00851
63 2 5.84517 3.66598 12.1764
66 2 8.94687 1.85131 12.0101
67 2 9.59893 1.77176 15.2098
68 2 12.5833 -1.25716 12.6975
77 2 13.3935 0.954894 13.9975
86 2 6.41356 1.62403 10.9634
91 2 6.86518 4.15481 10.3304
309 2 13.3378 -0.797805 14.5545
99 2 8.31833 3.62585 12.7272
100 2 7.23328 2.22926 12.0079
101 2 7.702 2.06383 13.914
102 2 10.5695 0.313978 13.6823
103 2 8.67349 0.262342 13.942
104 2 9.85801 -1.25128 15.4848
130 3 8.88519 0.413653 9.65322
134 3 7.49199 0.118853 16.5095
135 3 13.6178 0.190493 10.6266
136 3 11.0711 0.33133 11.1238
138 3 10.4271 2.66161 9.98403
141 3 6.06871 4.83025 14.682
249 4 11.1443 4.596 13.2724
250 1 11.7341 2.75657 13.1694
105 2 11.5603 2.22254 17.3634
305 2 13.5038 -0.561971 17.3064
253 2 12.0681 2.42821 12.1254
254 2 10.6248 2.39797 13.3156
20 4 14.4853 0.718442 9.34437
256 2 9.3828 4.41579 11.4738
307 1 12.4285 -1.5273 14.6611
252 2 12.4439 2.64123 14.1062
187 2 4.91182 5.23679 10.3969
300 2 2.12189 11.4696 7.52934
295 1 1.12601 12.3869 1.99014
110 2 7.63215 5.81418 6.924
61 2 5.30438 7.20925 6.33162
244 3 7.69015 9.61902 8.73604
298 1 1.47556 11.0826 8.36936
292 2 3.56635 8.41294 1.20492
234 2 1.07159 11.6606 5.05078
98 2 5.87239 6.72268 4.03833
205 4 7.90771 8.92184 2.94356
208 4 5.07939 11.926 7.15103
209 4 3.6824 10.5308 3.8235
210 4 6.43554 8.6493 8.56739
211 4 6.05456 9.67991 5.44688
212 1 7.70896 10.3026 1.63612
216 1 4.6568 11.0159 2.28968
268 4 1.46733 11.6245 0.0664912
219 2 8.65884 7.44398 2.81094
222 2 4.45206 10.7235 8.13294
223 2 3.45523 12.0215 4.59184
317 2 7.39513 11.189 2.32627
225 2 6.59688 9.42909 1.30267
226 2 8.36129 10.6017 0.610072
297 2 0.672162 11.9034 3.06584
272 2 1.5149 10.5792 1.52699
57 1 10.0515 7.39347 8.55837
236 2 4.01408 10.5461 1.48858
237 2 5.80513 10.7291 2.13763
238 2 4.53962 12.128 2.34112
243 3 2.08996 9.81305 3.48511
245 3 7.13593 9.25737 4.36085
246 3 4.58976 9.53375 4.64446
247 3 5.96438 8.55806 7.05251
248 3 6.33548 11.1786 5.95856
111 2 8.78584 7.10407 8.4773
296 2 2.1048 12.7794 2.19034
324 2 0.962058 10.1559 7.97057
43 4 5.90049 5.68638 15.9531
73 2 6.43187 7.29153 15.6926
261 2 8.13149 9.78626 16.7825
142 3 4.38305 5.77937 16.4072
158 1 3.97364 5.77631 10.1757
160 1 4.13213 7.95636 13.5482
173 2 1.58542 11.086 12.1004
185 2 3.9592 6.84519 10.3082
257 2 10.0829 6.3242 11.9308
74 2 6.87416 5.13651 17.2037
189 2 3.86663 8.91183 12.7877
190 2 4.87917 7.25947 13.0611
191 2 4.502 8.30029 14.6038
217 1 4.94713 9.42447 9.56432
239 2 4.82067 8.43428 10.171
240 2 3.9395 9.84575 9.27643
241 2 5.53794 10.0878 10.2107
92 2 7.14268 5.75773 9.22971
251 1 9.56445 5.17272 12.3108
172 2 3.01884 7.3353 15.0982
224 2 6.80227 7.04632 8.93912
269 4 4.33704 10.6283 16.4526
271 1 5.41524 8.87955 16.3082
152 4 2.43126 7.22214 13.4464
276 2 6.01918 9.32482 17.2548
277 2 6.12029 8.91845 15.3327
278 2 4.83362 7.96406 16.4961
279 3 2.82156 10.0904 16.9455
255 2 8.70575 5.32751 12.9612
331 3 10.799 5.06507 14.8524
299 2 2.04677 10.8254 9.31908
287 1 7.29825 9.10496 13.7088
288 2 6.90264 8.14972 14.1714
289 2 8.00207 8.94011 12.765
290 2 6.51184 9.90071 13.5851
282 2 9.18276 7.41141 15.7635
308 2 4.26877 10.5831 13.9958
314 2 4.0141 10.9909 10.3158
273 2 0.419988 9.93406 15.4718
329 2 10.4973 6.80136 9.47382
ITEM: TIMESTEP
100
ITEM: NUMBER OF ATOMS
331
ITEM: BOX BOUNDS xy xz yz pp pp pp
-8.3499999999999996e+00 1.5708700000000000e+01 -8.2042000000000002e+00
-2.0055999999999998e+00 1.3086800000000000e+01 -1.4580000000000001e-01
0.0000000000000000e+00 1.7516037600000001e+01 -2.0055999999999998e+00
ITEM: ATOMS id type x y z
1 4 -0.925359 2.27883 4.92656
2 4 -0.212826 4.37042 2.50041
3 1 0.289192 3.00126 6.15943
46 1 5.76765 0.199547 0.0927481
5 1 1.76146 4.73455 2.35843
6 1 -1.20241 4.8944 0.989418
8 2 -0.383232 3.83372 6.54959
9 2 1.26109 3.46162 5.6334
10 2 0.556125 2.19404 6.91015
11 2 0.98059 0.520707 4.36438
12 2 1.53328 3.37252 1.74143
13 2 2.29098 4.65525 3.31787
14 2 2.19054 5.68154 1.73009
316 2 -0.556501 0.729181 3.26129
16 2 -2.39041 4.39929 1.04827
17 2 -0.518762 4.43434 0.166785
18 3 -0.901448 3.2296 3.71036
24 4 5.09825 0.75028 4.25175
45 1 3.2259 1.33582 4.27721
47 1 3.95835 0.502147 8.21367
174 2 -1.18407 5.10267 5.22777
51 1 2.80764 5.35937 6.03036
78 2 3.12062 1.93322 5.22761
79 2 2.44223 0.425222 4.15386
80 2 3.40871 1.99934 3.30248
162 2 3.37602 -0.215593 6.47022
82 2 4.52431 0.713263 7.18295
83 2 2.82663 0.344269 7.95488
7 2 0.487554 5.70883 3.47209
170 2 -0.459948 4.16006 8.48604
93 2 2.81036 4.75828 5.09081
4 1 -0.188842 0.523418 4.34566
95 2 2.51254 4.67856 6.89666
117 3 5.64962 0.716061 5.68727
284 2 2.66787 1.36537 0.760013
87 2 5.57421 2.00753 2.03024
266 3 5.41582 3.12423 0.27042
267 3 4.19832 5.39432 0.347918
154 1 -2.24026 5.26078 5.6329
263 4 4.7226 4.23141 1.17002
176 2 -2.41545 5.2821 6.77732
286 2 0.720473 1.4942 0.298466
311 2 1.79535 4.49044 0.353995
265 2 3.30971 3.56394 1.97181
321 2 4.84365 0.298628 0.743423
175 2 -3.06621 4.64508 5.03845
49 1 6.08602 1.81846 2.99301
161 2 0.68298 -0.361996 5.90846
183 2 1.13328 5.64612 7.14318
15 2 -1.13589 6.02695 1.21074
322 2 6.81571 0.147373 0.662312
182 2 -0.82889 5.62216 7.00053
81 2 4.39748 -0.505552 8.71281
19 4 1.61221 1.17797 16.735
21 4 2.50789 -0.998694 12.8325
22 4 1.10227 0.984225 11.209
23 4 -0.542939 2.32106 13.4638
25 4 6.01575 -0.121355 16.7746
27 4 4.25444 1.43463 9.82178
29 4 4.07644 0.897922 14.5985
285 2 1.88111 -1.07861 16.5184
34 4 0.373665 4.36408 15.635
44 1 -0.88446 0.72578 14.592
48 1 5.68667 0.753122 10.7548
58 2 0.0342675 1.60645 16.0293
60 2 -2.1324 2.95867 12.9907
198 3 1.2616 5.2968 10.2826
62 2 -0.599105 4.09233 17.0177
122 3 4.86763 2.84203 9.39475
76 2 -0.324779 0.0468066 13.7322
84 2 6.23817 -0.117879 10.1608
85 2 4.94749 0.369073 11.6759
171 2 2.45329 3.19881 11.1371
112 3 0.391404 0.732974 9.50577
113 3 1.35533 -0.542212 11.765
114 3 0.210522 1.85804 12.1676
116 3 2.52842 1.6677 10.8423
119 3 3.40734 0.336239 13.3203
120 3 5.08335 -0.277191 15.3379
121 3 2.84866 1.12469 15.6806
150 4 2.5318 4.97013 11.117
125 3 4.9022 2.27726 14.1999
126 3 0.119634 3.31255 14.5111
168 2 0.967559 -0.802402 9.3816
75 2 -0.747489 0.119897 15.5251
127 3 1.81665 4.56831 16.0387
59 2 -1.69293 2.33335 9.10523
71 2 -3.06416 3.74825 9.34583
186 2 3.66771 5.34069 8.95415
283 1 1.70113 -0.458122 17.5056
293 2 2.67648 7.02117 2.17147
143 4 -6.14446 11.8045 6.31339
144 4 -2.58957 6.86264 4.77298
146 4 -2.78113 8.931 7.20823
291 1 2.70672 7.57185 1.18286
230 2 2.12221 8.27191 5.80948
215 1 0.0100436 11.088 4.69802
94 2 2.1512 6.35956 5.94467
163 2 -3.96906 6.8984 3.85469
164 2 -1.29732 7.30986 3.61002
166 2 -4.2055 8.73331 8.13295
167 2 -2.93305 10.4257 6.45339
169 2 -5.57336 11.0912 4.91864
184 2 0.0467737 7.19062 8.04686
312 2 -3.07411 12.2661 3.43278
72 2 -4.87151 7.24444 7.08419
157 1 0.0547473 5.86217 7.74154
192 3 -2.65993 7.87683 5.93746
193 3 -6.2763 10.8465 7.49389
199 3 -1.52504 9.13368 8.12434
206 4 -1.84262 9.18688 1.82683
207 4 0.673405 9.28305 4.09041
213 1 -2.05305 10.9522 2.36257
214 1 1.00987 8.16311 5.54985
294 2 1.63117 7.72328 0.8725
220 2 -1.27016 10.3803 0.698843
221 2 -2.68627 7.94153 0.721512
227 2 -1.0995 11.039 3.06943
228 2 -3.3073 10.0567 2.8606
229 2 -2.22611 11.8513 1.5301
231 2 0.633641 7.13771 5.23813
232 2 0.304003 8.71542 6.35532
235 2 -0.319156 10.5992 5.6787
242 3 -0.746549 8.48684 2.79124
233 2 -0.750644 11.7886 4.23604
218 2 -6.3685 9.95217 2.75185
302 2 -3.65138 7.74222 15.241
64 2 -0.289663 5.86966 15.1539
204 3 1.51044 8.40886 12.5715
145 4 -2.19272 6.18771 11.8705
148 4 -4.47695 10.0092 10.9684
151 4 -1.45194 9.94993 9.59617
153 4 0.638662 9.53838 11.9055
159 1 -0.274964 10.8737 12.8535
155 1 -1.00142 6.0854 13.3484
156 1 -4.9414 8.17475 11.3503
301 1 -3.07729 6.66745 16.6801
325 2 -2.48573 6.06488 15.8978
165 2 -2.9955 7.68414 11.4919
147 4 -6.80645 10.652 8.92725
259 1 -6.35979 9.04468 16.498
177 2 -0.874923 7.31283 13.3327
178 2 0.00616249 5.57326 13.2964
179 2 -1.68518 5.73413 14.1661
180 2 -4.48551 7.37445 10.6017
181 2 -4.56601 8.01861 12.4014
326 2 -1.08929 11.2467 12.1769
188 2 -0.755356 10.0174 13.589
194 3 -3.32709 5.21206 12.3818
195 3 -5.59195 10.2669 9.84864
196 3 -4.76376 10.9281 12.2285
197 3 -1.42802 5.81129 10.5147
200 3 -1.20041 11.5629 9.28338
201 3 -2.88713 9.83891 10.399
202 3 2.46027 5.65602 12.6044
203 3 -0.211242 9.26156 10.6232
30 4 3.35331 4.79157 17.1664
258 4 -6.92576 9.85693 14.7901
275 2 -0.00518907 8.6719 16.1369
260 2 -5.57552 8.65051 14.8612
262 2 -5.36343 9.58704 16.7268
320 2 -2.71139 10.5597 16.7892
270 1 0.0226842 9.9173 16.3317
274 2 -0.935654 10.3479 16.8069
280 4 -4.80511 6.48549 15.7635
115 3 -6.29826 11.2297 14.2645
303 2 -2.87234 7.75042 16.7314
328 2 -5.54772 8.48545 9.03349
149 4 -0.0742219 5.55489 9.57309
329 2 -4.82623 6.79397 9.39371
281 2 -4.59433 5.96323 17.5076
28 4 7.24615 1.35913 6.49607
31 4 6.10232 3.52324 8.25029
35 4 9.43504 1.92424 4.39649
37 4 11.9051 1.29999 6.29069
40 4 10.2676 4.26051 2.39106
42 4 9.86572 5.65898 7.23402
330 2 14.462 0.514065 0.717561
55 1 11.474 3.67666 0.943535
56 1 8.476 5.26224 6.18241
65 2 9.11197 0.589596 3.3682
69 2 9.85274 5.77389 2.86393
70 2 9.70295 3.85517 0.662405
306 2 12.7307 0.827258 1.22756
89 2 6.41804 2.77738 3.5284
323 2 8.83547 0.0588653 1.52846
96 2 4.63346 4.99929 3.89141
106 2 11.677 2.57281 1.25259
107 2 12.0626 4.74392 2.30869
108 2 8.39946 4.1516 5.80345
118 3 8.19862 0.110546 7.08798
123 3 6.95935 2.31886 7.675
124 3 5.40004 4.62281 6.99859
128 3 8.13978 2.14896 5.22538
129 3 14.0184 -0.291153 8.20567
131 3 13.3104 1.91996 5.733
132 3 10.7135 1.48924 5.1926
133 3 11.969 -0.579404 6.39892
137 3 9.84836 3.18947 3.47898
139 3 11.6654 1.96886 7.71558
140 3 10.6385 4.41149 7.91917
26 4 8.44866 -0.501557 8.58728
264 2 5.64438 4.72105 2.4905
32 4 4.77692 5.71954 6.06658
315 2 15.0457 -0.434407 4.78563
97 2 6.43 4.8896 4.63012
313 2 10.3355 2.2913 0.0934025
52 1 5.55345 5.5916 4.33971
110 2 7.62266 5.66893 6.96491
41 4 11.2885 3.15642 8.68444
304 1 13.4106 0.753197 0.358067
88 2 6.97217 1.03802 2.91875
327 2 8.55067 -1.40743 13.4505
310 2 11.4315 -0.990497 14.5597
33 4 5.93041 3.4355 13.7554
36 4 9.8696 1.2662 10.6701
38 4 9.19571 0.017377 16.2347
39 4 12.3816 -0.517619 11.2618
50 1 7.15799 4.55977 9.46843
53 1 7.50317 2.9189 12.7832
54 1 9.72135 0.000879136 14.3128
90 2 8.16895 4.18125 9.07271
63 2 5.84386 3.73285 12.0962
66 2 8.98507 1.92986 11.9752
67 2 9.66687 1.5177 15.3474
68 2 12.7855 -1.11205 12.8681
77 2 13.629 0.94727 14.3535
86 2 6.31312 1.65611 11.0878
91 2 6.79451 4.0111 10.3998
309 2 13.4141 -0.787634 14.6962
99 2 8.34844 3.7371 12.4409
100 2 7.24331 2.32781 11.8119
101 2 7.76406 2.21954 13.8959
102 2 10.6161 0.0234005 13.6308
103 2 8.72742 0.1776 13.8037
104 2 9.86908 -1.43666 15.2796
130 3 8.91992 0.387727 9.77042
134 3 7.63468 -0.123665 16.528
135 3 13.618 0.196262 10.6823
136 3 11.0131 0.334089 11.2653
138 3 10.4453 2.57505 9.91552
252 2 12.198 2.56001 14.17
249 4 11.1024 4.55888 13.1964
250 1 11.6424 2.71332 13.1463
187 2 4.82174 5.00247 10.4237
305 2 13.1705 -0.35914 17.1017
253 2 12.1574 2.1923 12.3333
254 2 10.427 2.39264 13.2055
20 4 14.5005 0.697734 9.38909
256 2 9.60636 4.3913 11.059
307 1 12.581 -1.57008 14.7557
251 1 9.64978 5.1533 11.9816
105 2 11.8712 2.01589 17.5086
300 2 2.23174 11.6339 7.53597
295 1 1.31207 12.2995 1.93499
268 4 1.5112 11.7233 0.0463277
61 2 5.53979 7.2432 6.4842
324 2 0.994042 10.3259 8.4013
298 1 1.65219 11.2864 8.4866
292 2 3.35156 8.58243 1.08632
234 2 1.01803 11.5972 4.79331
98 2 5.85371 6.56057 3.83118
205 4 7.93688 8.9593 3.02411
208 4 5.14646 11.9251 7.09028
209 4 3.73291 10.5156 3.80934
210 4 6.36908 8.74678 8.69208
211 4 6.0865 9.61342 5.43282
212 1 7.82377 10.4008 1.7261
216 1 4.67865 10.9599 2.29687
248 3 6.2306 11.261 5.89364
219 2 8.4755 7.39236 2.82392
222 2 4.5176 10.6215 8.00509
223 2 3.5222 11.8242 4.88391
317 2 7.44064 11.322 2.2457
225 2 6.76379 9.4139 1.38089
226 2 8.42488 10.7112 0.69612
297 2 0.826868 11.8778 3.04047
272 2 1.41367 10.4768 1.36179
57 1 10.1279 7.39943 8.70624
236 2 4.15742 10.4278 1.47649
237 2 5.88427 10.8163 2.1179
238 2 4.33351 12.1057 2.27109
243 3 2.08329 9.71624 3.50289
245 3 7.19177 9.25797 4.40406
246 3 4.61417 9.46385 4.65147
247 3 5.85656 8.70074 7.11182
109 2 8.72411 6.05126 5.27827
296 2 2.41885 12.6189 2.10185
43 4 5.86093 5.7852 15.8504
73 2 6.24935 7.39215 15.4254
261 2 8.02545 10.0427 16.5127
142 3 4.53175 5.74814 16.5336
158 1 3.94127 5.58224 10.0323
160 1 4.11841 7.9563 13.5948
173 2 1.34898 11.1848 11.8706
185 2 4.02208 6.69481 10.2746
257 2 10.0045 6.19602 11.6424
74 2 7.18518 5.56429 16.8349
189 2 4.09507 8.82019 12.7691
190 2 4.68948 7.0217 13.0584
191 2 4.63658 8.34962 14.5903
217 1 4.9157 9.55318 9.62432
239 2 5.02124 8.55736 10.4758
240 2 3.76544 9.70017 9.19843
241 2 5.61059 10.5951 9.85166
92 2 7.08731 5.8397 9.48203
141 3 6.03581 4.95122 14.5233
172 2 2.77513 7.40636 14.9328
224 2 6.75119 7.08426 9.1267
269 4 4.40204 10.6314 16.4874
271 1 5.57027 9.05947 16.251
152 4 2.40572 7.22918 13.2274
276 2 6.03111 9.16762 17.3089
277 2 6.28656 9.16936 15.3188
278 2 4.91552 8.09127 16.2592
279 3 2.89615 10.1789 16.999
255 2 8.65055 5.21244 12.5069
331 3 10.9929 5.22003 14.7262
299 2 2.32634 11.3397 9.38383
287 1 7.32295 9.14941 13.5496
288 2 7.24311 8.07039 13.6342
289 2 7.9015 9.43491 12.6279
290 2 6.34397 9.7059 13.627
282 2 9.28835 7.30394 15.7044
308 2 4.6152 10.6388 14.0916
314 2 3.9582 11.083 10.5128
244 3 7.69614 9.70107 8.9259
318 2 9.21337 8.13908 17.1743
273 2 0.325903 10.4583 15.3711
319 2 9.67266 8.13038 11.2302
111 2 8.97328 6.96223 8.87055
ITEM: TIMESTEP
200
ITEM: NUMBER OF ATOMS
331
ITEM: BOX BOUNDS xy xz yz pp pp pp
-8.3499999999999996e+00 1.5708700000000000e+01 -8.2042000000000002e+00
-2.0055999999999998e+00 1.3086800000000000e+01 -1.4580000000000001e-01
0.0000000000000000e+00 1.7507275199999999e+01 -2.0055999999999998e+00
ITEM: ATOMS id type x y z
1 4 -0.88348 2.23353 4.92744
2 4 -0.261461 4.4565 2.46814
3 1 0.368766 2.77805 6.23122
46 1 5.79416 0.365747 0.259824
5 1 1.82576 4.82109 2.45809
6 1 -1.30122 4.98532 0.970775
8 2 -0.385751 3.30099 6.97477
9 2 1.18244 3.42528 5.84341
10 2 0.758332 1.78007 6.53645
11 2 1.11602 0.750663 4.51723
12 2 1.44896 3.4094 2.0084
13 2 2.79252 4.83374 3.02562
14 2 1.88272 5.53849 1.58374
316 2 -0.345811 0.447235 3.29075
16 2 -2.41046 4.53198 0.970623
17 2 -0.504884 4.51181 0.198902
18 3 -0.983955 3.40738 3.44562
24 4 5.04339 0.82873 4.28851
45 1 3.27221 1.42876 4.34052
47 1 3.99141 0.440367 8.16301
174 2 -1.0083 5.22563 5.30132
51 1 2.8679 5.5726 6.19249
78 2 2.79098 1.45438 5.38711
79 2 2.82408 0.646038 3.59136
80 2 3.50683 2.49525 3.91143
162 2 3.21718 -0.00802223 6.38787
82 2 4.77927 0.680094 7.25952
83 2 2.9125 0.760971 7.95404
7 2 0.753789 5.68029 3.53997
170 2 -0.63492 4.32691 8.39459
93 2 2.73672 4.82877 5.33274
4 1 -0.0337293 0.53373 4.40962
95 2 2.57606 5.1701 7.19254
117 3 5.82996 0.778706 5.72229
284 2 2.34645 1.52729 1.03994
87 2 5.59313 2.33817 2.27061
266 3 5.30838 3.14059 0.274032
267 3 4.14713 5.51725 0.233201
154 1 -2.23069 5.21042 5.51062
263 4 4.58024 4.23108 1.04046
176 2 -2.46749 5.27985 6.59379
286 2 0.619971 1.26068 0.169456
311 2 1.76975 4.34984 0.553144
265 2 3.20199 3.50351 1.72433
321 2 5.0741 0.779078 1.08556
175 2 -2.79963 4.43426 4.94526
49 1 6.20434 1.99548 3.18961
161 2 0.821933 -0.113716 6.10251
15 2 -1.18253 6.11085 1.17242
96 2 4.44048 4.59299 4.16342
81 2 4.01881 -0.652811 8.41393
322 2 6.71202 -0.0458443 0.77013
283 1 1.72391 1.42559 0.0261575
19 4 1.58935 1.11936 16.8131
21 4 2.45849 -0.999649 12.9537
22 4 1.06557 0.96014 11.2951
23 4 -0.645703 2.38511 13.5381
25 4 5.93909 -0.0393789 16.7779
27 4 4.20194 1.40225 9.81073
29 4 4.02805 0.979467 14.693
285 2 2.09683 -1.24834 16.8204
34 4 0.44602 4.31117 15.7528
44 1 -0.895435 0.582157 14.3603
48 1 5.48002 0.51381 10.9389
58 2 0.0620219 1.22041 15.9271
60 2 -2.12194 3.25961 13.1601
198 3 1.37755 5.06615 10.2026
62 2 -0.538748 4.11392 17.1245
122 3 4.70989 2.86276 9.42083
76 2 -0.314464 0.0372798 13.482
84 2 6.02793 -0.21566 10.1408
85 2 4.72674 -0.106622 11.5754
171 2 2.73147 3.09226 11.1518
112 3 0.268821 0.768876 9.69088
113 3 1.16253 -0.414931 12.0309
114 3 0.198743 2.09641 12.1539
116 3 2.62023 1.49397 10.8963
119 3 3.38998 0.246008 13.4182
120 3 5.25826 -0.177436 15.3799
121 3 2.8256 1.15064 15.8621
150 4 2.60342 4.87997 11.0689
125 3 4.91875 2.2169 14.1955
126 3 0.00881253 3.28774 14.6715
168 2 0.859684 -0.781188 9.24646
75 2 -0.792796 0.0118464 15.3715
127 3 1.96798 4.50204 16.138
59 2 -1.70043 2.18359 8.77073
71 2 -2.91353 3.60387 9.09003
183 2 0.940411 5.95291 7.21326
143 4 -6.16624 11.8234 6.18644
144 4 -2.53691 6.91558 4.82925
146 4 -2.75026 8.97199 7.1898
291 1 2.81596 7.81301 1.05586
230 2 1.84762 8.10621 6.09088
215 1 0.205363 10.8521 4.76192
94 2 2.25549 6.52902 5.95554
163 2 -4.09246 6.75293 4.03389
164 2 -1.40463 7.48999 3.61268
166 2 -4.16036 8.54707 8.14701
167 2 -2.9832 10.5421 6.59201
169 2 -5.94295 11.1006 4.71961
184 2 -0.165083 7.29737 8.07321
312 2 -3.08222 12.3121 3.58119
72 2 -4.67627 7.0922 7.08594
157 1 -0.0510458 6.07979 7.73382
192 3 -2.66638 7.89468 5.99565
193 3 -6.19723 10.8493 7.36226
199 3 -1.56985 9.08249 8.08923
206 4 -1.83516 9.18542 1.90894
207 4 0.839803 9.23596 4.08697
213 1 -2.43794 10.8785 2.40495
214 1 0.916059 8.00274 5.51691
294 2 1.65137 7.86942 1.0242
220 2 -1.23418 10.5256 0.886201
221 2 -2.59579 7.84117 0.864242
227 2 -1.77282 11.1635 3.33381
228 2 -3.62751 9.74872 2.65543
229 2 -2.60087 11.6821 1.64829
231 2 0.898346 7.03296 4.76949
232 2 -0.093709 8.15241 6.13266
235 2 -0.253427 10.3983 5.75739
242 3 -0.640851 8.61151 2.84094
233 2 -0.654349 11.397 4.18561
218 2 -6.36433 10.0977 2.67651
182 2 -0.915848 5.76383 6.96329
302 2 -3.45957 7.80133 15.3719
64 2 -0.198075 5.79233 15.1719
204 3 1.34781 8.41307 12.547
145 4 -2.08891 6.33662 11.8358
148 4 -4.43003 10.0361 11.0984
151 4 -1.56439 10.0207 9.71071
153 4 0.501779 9.55153 11.854
159 1 -0.226812 10.9501 12.891
155 1 -1.06118 6.1102 13.4243
156 1 -4.87776 8.1936 11.5982
301 1 -2.81629 6.53229 16.6869
325 2 -2.08327 6.03042 16.0413
165 2 -2.91226 7.8384 11.6567
147 4 -6.77629 10.7175 8.84878
259 1 -6.2855 9.02842 16.5698
177 2 -1.24334 7.31722 13.6924
178 2 -0.128881 5.75143 12.9558
179 2 -1.63776 5.42015 14.1195
180 2 -4.6182 7.40556 10.7554
181 2 -4.4094 7.9566 12.6671
326 2 -1.08903 11.401 12.2982
188 2 -0.654259 10.0409 13.7462
194 3 -3.31246 5.26404 12.233
195 3 -5.67294 10.4438 9.94586
196 3 -4.53397 10.9319 12.3368
197 3 -1.1242 5.97872 10.5751
200 3 -1.18428 11.5405 9.16341
201 3 -3.01486 9.89864 10.3336
202 3 2.60013 5.68719 12.565
203 3 -0.28372 9.36235 10.5024
30 4 3.35137 4.79652 17.0256
258 4 -6.88036 9.81062 14.6751
275 2 -0.0320224 8.56078 16.54
260 2 -5.46278 8.65579 14.9314
262 2 -5.65779 9.87178 16.9374
320 2 -3.04007 10.6841 17.1438
270 1 -0.0497786 9.85068 16.4307
274 2 -1.025 10.4226 16.8818
280 4 -4.48367 6.35424 15.761
115 3 -6.52731 11.2645 14.3624
303 2 -2.69776 7.63721 16.7159
328 2 -5.57157 8.40814 8.82921
149 4 -0.0326651 5.5982 9.51126
329 2 -4.94848 6.83281 9.55996
318 2 -6.21847 8.24226 17.3476
281 2 -4.24817 5.60517 17.417
319 2 -6.00772 8.35944 11.6879
28 4 7.36224 1.41168 6.51744
31 4 6.01931 3.70766 8.29556
35 4 9.3833 1.86868 4.39052
37 4 11.8728 1.33786 6.20878
40 4 10.3556 4.22023 2.5693
105 2 12.0712 3.7127 0.0656191
42 4 9.90103 5.64674 7.35127
55 1 11.4671 3.54696 1.04716
56 1 8.64678 5.20467 6.10235
65 2 8.95027 0.623849 3.31117
69 2 9.87425 5.80555 2.95439
70 2 9.7839 4.0336 0.789986
306 2 13.5436 0.378865 1.17904
89 2 6.67213 2.82666 3.77346
323 2 8.88808 0.175014 1.54438
304 1 13.6501 0.759419 0.0952221
106 2 11.537 2.47434 1.35718
107 2 12.2356 4.38581 2.41856
108 2 8.55358 4.09957 5.88842
118 3 8.28178 0.0562749 7.19848
123 3 6.98681 2.53258 7.59592
124 3 5.46541 4.78157 7.21393
128 3 8.21734 2.18874 5.36502
129 3 14.1189 -0.3075 8.19146
131 3 13.3032 1.87614 5.58137
132 3 10.6391 1.43898 5.17849
133 3 12.0894 -0.40943 6.33884
137 3 9.87236 3.08355 3.52817
139 3 11.5835 2.03217 7.60259
140 3 10.6225 4.36184 8.05656
26 4 8.46474 -0.557301 8.58821
264 2 5.41845 4.60123 2.49403
32 4 4.83069 5.76314 6.05919
315 2 15.1837 -0.289285 5.01811
97 2 6.4542 4.51063 4.39984
313 2 10.3492 2.23454 0.173549
52 1 5.509 5.15668 4.35466
109 2 9.05986 5.76819 5.24239
41 4 11.2631 3.08789 8.67944
88 2 6.99162 1.28062 2.84937
98 2 5.64449 6.08211 3.70758
110 2 7.75546 5.62615 6.70152
327 2 8.6589 -1.23187 13.5019
310 2 11.4406 -1.01171 14.6534
33 4 5.79798 3.39458 13.6831
36 4 9.89031 1.32603 10.7096
38 4 9.15891 -0.0614361 16.2453
39 4 12.3625 -0.531465 11.2985
50 1 7.16521 4.63707 9.44913
53 1 7.40833 2.85727 12.7335
54 1 9.79618 0.133985 14.4194
90 2 8.19055 4.18396 9.07192
63 2 5.67853 3.34502 11.9724
66 2 9.04351 1.9699 12.0683
67 2 10.0761 1.46322 15.6479
68 2 12.7705 -1.13635 12.8576
77 2 13.5505 0.775625 14.1205
86 2 6.16043 1.24093 11.542
91 2 6.85672 4.22262 10.5064
309 2 13.3406 -0.856554 14.6269
99 2 8.19344 3.7812 12.4637
100 2 7.2119 2.19857 11.818
101 2 7.75474 2.21534 13.7526
102 2 10.6528 0.368155 13.7302
103 2 8.79559 0.429454 13.9585
104 2 9.769 -1.44394 15.0394
130 3 8.86405 0.580013 9.77152
134 3 7.64156 0.041806 16.5262
135 3 13.6447 0.188428 10.6334
136 3 11.1506 0.387768 11.4066
138 3 10.5218 2.60786 10.0149
252 2 12.2716 2.48107 14.0879
249 4 11.0887 4.55609 13.0323
250 1 11.6608 2.70944 13.2046
330 2 14.5824 -1.23583 17.2337
305 2 13.0449 -0.269223 17.4688
253 2 12.1635 2.36979 12.249
254 2 10.5946 2.28637 13.2714
20 4 14.4359 0.681062 9.35918
256 2 9.34352 4.63114 11.0761
307 1 12.4191 -1.62037 14.7281
141 3 5.88568 4.7938 14.3629
186 2 4.05175 5.3996 9.23899
187 2 4.96142 5.24765 10.8686
300 2 1.92129 11.4475 7.09894
295 1 1.4114 12.2387 2.12242
268 4 1.58478 11.8786 0.0891368
61 2 5.14769 7.36152 6.56451
324 2 1.35497 10.4627 8.61894
298 1 1.80715 11.476 8.24247
292 2 3.29923 8.76606 0.944132
234 2 1.12483 11.5305 4.97022
293 2 3.25373 7.3028 1.97326
205 4 7.91353 9.0846 3.06044
208 4 5.13374 11.9065 7.10507
209 4 3.80464 10.4345 3.73684
210 4 6.40331 8.74001 8.67556
211 4 6.02049 9.64835 5.51541
212 1 7.8403 10.5269 1.78373
216 1 4.55442 10.8432 2.08868
248 3 6.13242 11.3927 5.89245
219 2 8.6362 7.56501 2.72833
222 2 4.45303 10.6543 8.06899
223 2 3.66871 11.818 4.70452
317 2 7.32288 11.4147 2.29457
225 2 6.76082 9.33435 1.45926
226 2 8.42663 10.7705 0.787674
297 2 0.936958 11.7734 3.10858
272 2 1.67061 10.5611 1.35097
57 1 10.1493 7.30692 8.66352
236 2 4.06253 10.0638 1.43748
237 2 5.82523 10.7772 1.94571
238 2 4.17222 11.8943 1.95872
243 3 2.29095 9.70545 3.50082
245 3 7.31179 9.28551 4.58533
246 3 4.75431 9.32344 4.60852
247 3 5.81219 8.76106 7.16877
296 2 2.49145 12.654 2.29382
299 2 2.77668 11.7381 8.73792
43 4 5.93632 5.70543 15.6606
73 2 6.36568 7.33705 15.2987
261 2 7.96372 9.56475 16.5891
142 3 4.55477 5.79688 16.3565
158 1 4.10527 5.73373 10.333
160 1 4.12168 7.85377 13.4458
173 2 1.46327 11.0903 12.0764
185 2 4.09435 6.85906 10.441
257 2 9.85474 6.28508 11.8096
74 2 7.17302 5.28294 16.7566
189 2 3.99581 8.67116 12.5481