ITEM: TIMESTEP
0
ITEM: NUMBER OF ATOMS
331
ITEM: BOX BOUNDS xy xz yz pp pp pp
-8.3499999999999996e+00 1.5708700000000000e+01 -8.2042000000000002e+00
-2.0055999999999998e+00 1.3086800000000000e+01 -1.4580000000000001e-01
0.0000000000000000e+00 1.7524799999999999e+01 -2.0055999999999998e+00
ITEM: ATOMS id type q x y z
1 4 1.05571 -0.763128 1.99368 4.48997
2 4 0.687496 -0.153796 4.31342 2.19687
3 1 -0.632261 0.12461 2.91861 5.92223
174 2 0.161152 -2.48394 5.39509 7.47064
5 1 -0.630301 1.74532 4.7642 3.4647
6 1 -0.588077 -1.59543 5.81438 1.79059
8 2 0.148197 0.708832 3.88594 5.61426
9 2 0.13613 0.838029 1.98769 6.12556
10 2 0.169228 -0.772661 3.04275 6.69019
11 2 0.134999 1.2914 0.296851 4.07736
12 2 0.011086 1.57531 4.01545 1.76141
13 2 0.144977 1.09158 4.33945 4.39039
14 2 0.147273 2.83561 4.86005 3.82987
263 4 0.934819 4.33274 4.32465 1.43474
16 2 0.115966 -2.5027 5.41594 2.36551
17 2 0.0252601 -1.27555 4.66731 0.611418
18 3 -0.750923 -0.735962 3.17429 3.08754
24 4 0.803218 5.00612 1.23599 4.34141
45 1 -0.661519 3.23563 2.12027 4.6917
47 1 -0.697728 3.59558 0.576372 8.43032
176 2 0.196212 -1.84291 3.89913 6.67404
7 2 0.127243 1.34445 5.79922 3.20542
78 2 0.165999 2.72213 3.08592 4.19156
79 2 0.134584 3.82401 2.38332 5.80025
80 2 0.137242 2.4825 1.30878 4.78116
46 1 -0.651526 6.25773 0.252946 0.362963
82 2 0.204836 4.09238 1.00963 7.58375
51 1 -0.639408 2.59304 5.51129 7.00779
163 2 0.0597177 -3.21657 5.10925 5.35565
154 1 -0.610334 -2.07126 4.98607 6.52168
93 2 0.208218 2.614 4.56883 7.65403
285 2 0.161025 2.52967 1.76344 0.609899
265 2 0.000532572 3.11509 3.72115 2.51003
117 3 -0.777801 5.85718 0.624282 5.54749
284 2 0.13728 0.600022 2.13214 0.959102
321 2 0.136535 5.52529 0.460204 1.29115
94 2 0.127078 2.16563 5.20035 5.90237
267 3 -0.804838 3.71706 5.615 0.74846
266 3 -0.765284 5.0264 3.17527 0.672527
96 2 0.142411 4.14774 3.93127 4.62267
4 1 -0.669055 0.173592 0.379422 3.97592
312 2 -0.0160448 3.52528 0.392468 3.84448
162 2 -0.0171601 2.61265 -0.105337 6.88846
170 2 -0.00617763 -0.681358 5.33904 7.90511
316 2 0.169378 -0.142825 0.471038 2.87074
87 2 0.189657 5.6107 2.42188 2.19114
175 2 0.0299491 -0.43651 5.64278 6.078
283 1 -0.672215 1.40333 1.79033 0.144886
15 2 0.0628755 -0.496326 6.1749 2.57617
83 2 0.157091 2.49467 0.786212 8.523
49 1 -0.684647 6.15876 2.07492 3.18564
19 4 0.765316 1.60013 1.01411 16.363
21 4 1.39817 2.45657 -1.15975 13.0224
22 4 1.41958 1.22472 1.25983 11.5574
23 4 1.0174 -0.954482 2.49783 13.5818
25 4 1.19471 6.13177 -0.0123232 17.269
27 4 1.03691 4.10945 1.50773 10.0066
29 4 1.51477 4.37834 0.481165 14.6575
150 4 1.00832 2.67895 5.21624 11.0141
81 2 0.176068 4.01068 -0.423088 8.83419
127 3 -0.740105 1.27539 4.27888 16.6058
48 1 -0.638889 5.40258 0.532793 11.0113
58 2 0.018605 0.162406 0.615647 15.4878
44 1 -0.647283 -1.50727 0.896334 14.3951
34 4 0.829492 -0.312682 4.35423 16.0838
75 2 0.184848 -0.76033 0.0835349 14.122
198 3 -0.760703 1.53848 5.35045 9.71946
311 2 0.102096 1.40096 2.74118 16.582
84 2 0.258858 5.84259 -0.35179 10.263
85 2 0.272737 4.8502 0.0758409 12.0401
171 2 0.116901 2.4963 3.53798 11.2827
112 3 -0.823977 0.545296 0.274178 10.028
113 3 -0.820573 1.60154 0.112125 12.5498
114 3 -0.800565 0.150323 2.28434 12.362
116 3 -0.78823 2.59386 1.93474 11.2485
119 3 -0.795132 4.14837 -0.593834 13.4537
120 3 -0.762958 5.55588 -0.0315289 15.7154
121 3 -0.758831 2.99733 0.72974 15.5576
122 3 -0.798529 5.01 2.69855 9.47593
125 3 -0.780411 4.91793 1.86194 14.0122
126 3 -0.810394 -0.684559 3.33451 14.9353
286 2 0.174257 0.976682 -1.14287 17.0618
59 2 -0.0266133 -0.784915 2.47142 9.48957
60 2 0.0117745 -2.51819 3.06331 12.8784
20 4 1.1622 -0.951141 0.787891 9.60973
77 2 0.158702 -1.74806 1.05463 15.4898
326 2 0.171296 7.45885 -1.09015 12.4046
62 2 -0.024731 -1.36649 4.26826 17.418
95 2 0.182609 1.93503 6.38381 7.54853
143 4 0.566481 -6.3811 11.4709 6.49519
144 4 0.668509 -1.93019 6.50939 5.29422
146 4 0.907561 -2.50636 9.23681 6.9164
294 2 0.150324 1.66242 8.29148 0.973815
300 2 0.199121 0.316171 10.0444 7.9775
231 2 0.196491 1.97826 8.20943 4.76012
322 2 0.158416 -0.772863 12.9725 0.789189
317 2 0.113326 -5.46239 9.72109 3.82678
235 2 0.174926 -1.24957 11.5265 5.1306
166 2 0.0710557 -4.12283 9.75713 7.16214
167 2 -0.0130455 -1.80397 10.5436 5.97635
169 2 -0.0183277 -6.16478 11.2087 4.79035
164 2 -0.0248675 -1.99777 6.58686 3.51459
230 2 0.138879 0.32688 8.69126 5.86074
234 2 0.198034 0.196106 10.9889 6.29745
183 2 0.170768 -0.242138 7.38433 7.56945
192 3 -0.780796 -2.33875 7.86299 6.05421
193 3 -0.767412 -5.725 10.2495 7.29296
199 3 -0.777649 -1.82269 9.09776 8.29104
206 4 0.675742 -1.78665 9.12384 1.33541
207 4 0.962811 0.396673 9.8188 3.91721
213 1 -0.626552 -3.12955 10.262 1.04355
214 1 -0.632392 0.847868 8.25705 4.78355
215 1 -0.640365 -0.147405 11.2001 5.16513
184 2 0.177381 1.50993 7.87719 8.17239
221 2 0.0111111 -2.30473 7.26381 1.18515
227 2 0.0962842 -3.96769 9.38843 1.61198
242 3 -0.718847 -0.773621 9.57043 2.5089
229 2 0.17051 -2.86377 11.2264 1.69026
157 1 -0.661928 0.511416 7.58658 8.47915
232 2 0.120083 0.288389 7.26063 4.41508
328 2 0.26948 -5.82954 8.48882 7.3716
261 2 0.187367 -6.92843 10.1312 16.3939
64 2 -0.0215695 -0.650256 5.94627 15.5107
115 3 -0.762468 -6.69187 11.0807 14.3275
145 4 0.959048 -1.86615 6.29042 12.2243
148 4 1.33584 -4.94543 9.65463 10.914
151 4 1.46155 -1.94275 10.1709 9.70369
200 3 -0.822376 -1.73064 11.685 9.13942
153 4 1.0175 0.0446523 9.79823 12.0555
155 1 -0.644927 -1.1055 7.03658 13.8765
156 1 -0.663124 -4.76353 7.97856 11.9215
274 2 0.170726 -0.740035 10.8451 16.4896
182 2 0.269278 -0.0699613 8.24854 9.26279
165 2 0.038265 -1.97691 8.08518 12.6572
149 4 1.01362 0.0930433 5.9417 9.34955
258 4 0.80531 -7.07602 9.55837 14.1548
177 2 0.171538 -0.362798 7.64371 14.3811
178 2 0.0907755 -0.535054 5.60259 13.5422
179 2 0.136203 -2.00722 6.87281 14.5733
180 2 0.175252 -3.96261 7.56194 11.2326
181 2 0.159151 -4.40383 8.03345 12.9741
220 2 -0.043658 -1.20644 7.39146 17.3165
188 2 0.0286632 -1.20516 10.3078 13.2348
194 3 -0.768625 -3.1737 5.57016 12.4902
195 3 -0.781147 -6.1249 9.41826 9.87157
196 3 -0.850078 -5.45065 10.7892 11.8663
197 3 -0.732921 -0.936718 6.06542 10.5785
147 4 1.06397 -7.0537 10.3251 8.85458
201 3 -0.828467 -3.40239 9.96086 10.31
202 3 -0.761285 2.34981 6.1452 12.3267
203 3 -0.841637 -0.757759 9.70181 10.6462
168 2 0.0846172 -7.26922 11.8358 9.62997
275 2 0.12548 -0.111954 9.07121 15.7913
204 3 -0.786612 1.06174 8.70033 12.626
260 2 -0.0043669 -5.74317 8.73524 13.4574
303 2 -0.0150722 -4.80154 6.21335 17.0893
320 2 0.175125 -2.55958 10.7499 17.0228
30 4 1.17368 3.04861 4.89526 17.4492
172 2 -0.0232971 1.62137 7.35502 14.7456
270 1 -0.65849 0.0127325 10.2384 15.7679
228 2 0.143139 -3.48874 8.43888 17.4543
28 4 1.44743 7.30173 1.16415 6.3788
31 4 1.25967 6.03439 3.45986 8.39607
35 4 1.22928 9.5521 1.94107 4.17063
37 4 1.47664 12.082 1.43135 5.93869
40 4 0.672482 10.9196 4.06609 2.49523
330 2 0.184155 13.0481 1.42341 0.475557
105 2 0.119488 12.1314 3.35943 0.636463
55 1 -0.668785 12.0402 2.80011 1.57944
56 1 -0.629742 7.93284 5.02675 5.49318
65 2 -0.0189757 9.32816 0.711973 2.99742
69 2 -0.0597731 11.7436 5.05718 3.64825
70 2 -0.0145719 10.2598 5.46306 1.48188
313 2 -0.00978289 10.444 2.27212 0.50932
89 2 0.174268 6.34818 2.96169 3.84722
296 2 0.0792136 9.07436 0.693221 0.532078
32 4 0.825166 4.3218 5.61076 6.4484
106 2 0.155289 11.5142 1.75737 1.61835
107 2 0.194307 12.9666 2.9898 2.39466
108 2 0.268426 7.99402 3.91262 5.47177
118 3 -0.81923 8.05584 -0.0425608 7.13059
123 3 -0.792351 6.79474 2.43116 7.40623
124 3 -0.754281 5.14039 4.72336 7.4948
128 3 -0.802157 8.3121 1.91101 5.23199
129 3 -0.846479 14.2997 0.242145 8.12393
131 3 -0.798208 13.4923 1.63113 5.11503
132 3 -0.830961 10.8745 1.58623 4.99109
133 3 -0.781204 11.998 -0.406375 6.48883
137 3 -0.781187 9.77237 3.31215 3.37136
139 3 -0.837657 12.0193 2.40953 7.26851
140 3 -0.800215 10.2939 4.3328 7.37088
42 4 0.778798 9.63017 5.54291 6.56896
264 2 -0.00902622 5.34963 4.83288 2.74703
26 4 1.30398 8.10797 -0.588073 8.62902
97 2 0.142596 5.86267 4.78769 4.29817
109 2 0.15432 7.03033 5.36241 4.84318
41 4 1.31212 11.0588 3.20224 8.23619
110 2 0.109356 7.67265 5.42955 6.71999
88 2 0.172152 7.08295 1.42703 3.05669
52 1 -0.667413 4.7308 5.03432 4.57311
98 2 0.145577 4.26094 5.81156 3.94594
72 2 0.00473627 9.62077 5.58997 4.78555
237 2 0.17179 12.7866 -0.326467 3.46832
315 2 0.201475 15.3613 -0.48581 4.48963
309 2 0.157414 13.6703 -1.46567 14.144
68 2 -0.00749318 12.4475 -0.742982 12.7116
33 4 0.998911 5.89386 3.19777 13.9115
36 4 1.25972 9.76441 1.36309 10.3742
38 4 0.683115 9.18321 1.06494 16.9793
39 4 0.952869 12.2648 -0.213034 11.0985
50 1 -0.658966 7.32505 4.25614 9.49925
53 1 -0.641166 7.41959 3.11348 12.4732
54 1 -0.629938 9.41862 0.18174 15.3887
306 2 0.151343 14.4507 -0.819309 16.7712
63 2 0.0401244 5.82056 3.92421 12.3002
66 2 -0.0117901 9.00088 2.30936 11.6269
67 2 0.0115506 9.39064 2.83916 17.2824
71 2 -0.00841631 12.0388 4.26687 9.13062
281 2 0.0212422 8.60424 4.47026 16.5234
327 2 0.185973 8.76106 -0.81188 13.7422
90 2 0.144864 6.97119 5.35834 9.47045
92 2 0.180729 7.4669 3.8564 10.5959
99 2 0.161845 8.255 3.87941 12.2119
100 2 0.137203 7.27036 2.18116 11.7159
101 2 0.0670134 7.81725 2.58037 13.9086
102 2 0.125267 10.6165 0.313217 15.3366
103 2 0.141792 8.74313 0.913027 14.7417
104 2 0.177618 8.95552 -0.956369 15.5384
130 3 -0.848507 8.65436 0.350245 9.72633
134 3 -0.753183 7.71628 0.512415 17.4548
135 3 -0.842215 13.6015 0.530087 10.7137
136 3 -0.856871 10.9965 0.601809 10.933
138 3 -0.857498 10.2911 2.42446 9.29236
141 3 -0.812623 5.94736 4.41884 15.0253
249 4 1.0202 10.9631 4.69093 12.9397
250 1 -0.683916 11.2391 2.78032 13.061
187 2 0.171474 4.84741 4.78337 10.604
252 2 0.151198 11.8479 2.5148 13.9356
253 2 0.188592 11.6913 2.42271 12.1261
254 2 0.144644 10.1689 2.33152 13.1363
304 1 -0.642136 13.6272 -1.38243 17.3537
256 2 0.160363 9.37093 4.23774 10.832
76 2 0.114261 13.1526 0.888209 13.6818
302 2 0.136118 11.2872 4.34729 17.045
91 2 0.199598 8.24762 4.15579 8.82328
310 2 0.163991 11.7795 -1.1636 14.2449
251 1 -0.663112 9.76428 5.09104 11.5289
301 1 -0.626916 10.2155 4.46178 17.412
86 2 0.171934 6.25921 1.3526 11.3518
222 2 0.00363959 4.77488 11.0531 8.44964
218 2 -0.0129049 9.8795 8.0854 5.63862
57 1 -0.6687 9.68117 7.32611 7.41692
61 2 0.0923127 4.65045 7.3229 6.68879
299 2 0.204066 1.57762 11.3046 7.40613
226 2 0.0867382 8.92596 8.87471 2.4577
298 1 -0.687179 0.977725 10.9161 8.20256
244 3 -0.850804 7.32031 9.60141 8.60048
248 3 -0.818712 6.04935 11.4493 6.14554
205 4 0.713098 8.48709 8.4451 4.60746
212 1 -0.631491 9.13468 9.73847 3.45372
209 4 1.02987 3.65598 10.6593 3.78463
247 3 -0.758024 4.93454 8.88048 6.99129
211 4 1.27495 5.76079 9.65395 5.59702
243 3 -0.734173 2.10055 10.3585 3.48383
216 1 -0.666801 4.33641 11.9751 2.61747
111 2 0.144783 8.57438 7.14305 7.70216
219 2 -0.017249 8.17199 6.69077 4.49533
245 3 -0.798413 7.1956 9.03302 5.24892
223 2 0.113262 3.54655 11.7567 5.13855
325 2 0.136389 10.2594 6.95753 0.784887
208 4 1.1859 5.24866 12.2381 7.26802
210 4 0.936769 6.01061 8.80897 8.55779
297 2 0.163426 2.04719 12.4222 2.03225
233 2 0.171958 0.471054 11.984 4.54237
295 1 -0.629929 1.02323 12.3926 1.50525
236 2 0.163361 5.28902 11.5903 2.10973
246 3 -0.779848 4.68113 9.53076 4.23749
238 2 0.165569 3.46218 12.3077 1.88704
292 2 0.1738 3.43821 9.02736 1.03256
161 2 0.0785692 7.60098 11.6576 6.57269
272 2 0.0698777 1.30833 10.7665 0.812489
305 2 0.148283 5.99241 12.861 0.50635
225 2 0.179491 8.62714 10.7126 3.36389
323 2 0.162824 0.224141 12.3191 2.32337
329 2 0.162082 10.4246 6.86279 8.19445
291 1 -0.647413 2.75904 8.1352 1.29106
293 2 0.19185 2.94454 7.59959 2.27969
43 4 0.92684 5.54967 5.55929 15.9651
73 2 -0.0138729 5.78018 7.05094 15.2453
255 2 0.141577 8.914 5.6579 12.0974
142 3 -0.803715 4.01887 5.55172 16.3919
74 2 -0.058836 6.62162 5.59457 17.2717
160 1 -0.664559 3.87749 8.27098 12.9862
159 1 -0.663447 0.187313 11.5777 12.8474
185 2 0.156198 4.58932 6.58564 11.3354
276 2 0.149291 5.83634 8.54996 17.0373
282 2 -0.0326664 8.81715 7.16729 15.7017
189 2 0.170255 3.59071 9.21847 12.4777
190 2 0.160458 4.46917 7.51204 12.3145
191 2 0.150791 4.11089 8.27015 14.0753
217 1 -0.639953 4.80694 9.67102 9.84642
239 2 0.122833 4.79315 8.53389 10.4237
262 2 0.137425 8.99944 8.38517 16.9182
241 2 0.137535 5.47423 10.4747 10.401
240 2 0.147904 3.7626 9.98868 9.49525
257 2 0.170392 10.3428 5.82471 10.8449
307 1 -0.641379 4.442 11.1791 14.2748
259 1 -0.64423 8.46918 9.03661 16.1583
269 4 0.895133 4.50752 10.5317 16.2741
271 1 -0.662048 5.27271 8.66259 16.1425
158 1 -0.683027 4.35312 5.82718 10.5364
318 2 0.151363 7.2765 8.90704 16.1565
277 2 0.133917 5.97074 8.8114 15.073
278 2 0.167722 4.3977 7.92061 15.9674
279 3 -0.759049 2.97051 10.3254 16.6908
280 4 0.621616 9.77638 5.69366 15.8187
186 2 0.183247 4.27051 6.21128 9.48933
268 4 0.766472 1.42251 10.1631 17.0897
287 1 -0.659099 6.95721 9.21393 13.3447
288 2 0.135952 6.65459 8.15654 13.5116
289 2 0.15424 7.35266 9.42476 12.2703
290 2 0.15001 6.00608 10.0585 13.7663
152 4 1.00036 2.14576 7.55646 13.1596
308 2 0.161032 4.23445 10.1327 13.7098
314 2 -0.0350079 3.78098 11.3638 10.3363
331 3 -0.749861 10.3923 5.20982 14.3858
273 2 0.185595 0.160127 10.7497 14.6744
324 2 0.144936 1.5683 10.8227 9.22441
319 2 0.169382 9.98551 7.34938 11.7793
224 2 -0.0369774 6.4572 7.2166 8.78586
173 2 0.110247 1.1556 11.5806 11.8417
ITEM: TIMESTEP
100
ITEM: NUMBER OF ATOMS
331
ITEM: BOX BOUNDS xy xz yz pp pp pp
-8.3472166666666663e+00 1.5703463766666667e+01 -8.2014652666666663e+00
-2.0055999999999998e+00 1.3086800000000000e+01 -1.4575140000000000e-01
0.0000000000000000e+00 1.7524799999999999e+01 -2.0055999999999998e+00
ITEM: ATOMS id type q x y z
1 4 1.06448 -0.825583 2.14088 4.49397
2 4 0.716508 -0.189824 4.31536 2.22697
3 1 -0.642754 0.128024 3.05131 5.93548
322 2 0.160504 7.33541 0.0938671 1.01898
5 1 -0.618134 1.68857 4.62403 3.49367
6 1 -0.614405 -1.19443 5.9387 1.73923
8 2 0.155747 0.71321 4.07405 5.97733
9 2 0.143883 0.765251 2.03241 6.11945
10 2 0.159737 -0.719277 3.12914 6.71133
11 2 0.14439 1.4073 0.723006 4.3346
12 2 0.0332251 1.57204 3.64028 2.06279
13 2 0.156789 1.06675 4.08077 4.52231
14 2 0.144934 2.81157 4.72589 3.8588
263 4 0.960185 4.41134 4.39884 1.47915
16 2 0.125506 -2.19934 5.89446 2.14982
17 2 0.00619488 -0.79952 4.63591 0.535063
18 3 -0.759415 -0.955373 3.21377 3.09971
24 4 0.814405 5.0373 1.28284 4.36464
45 1 -0.669531 3.24576 2.10144 4.95987
47 1 -0.648283 3.33328 0.606688 8.55006
176 2 0.165861 -1.73464 4.04773 6.79342
7 2 0.116152 1.27106 5.68876 3.19119
78 2 0.169844 2.76341 2.97678 4.38888
79 2 0.156453 3.74289 2.44803 5.94773
80 2 0.123409 2.50886 1.18729 5.09383
46 1 -0.65526 6.26424 0.420704 0.547778
82 2 0.176252 3.95566 1.12622 7.63395
51 1 -0.655467 2.6572 5.38188 6.88602
163 2 0.0456058 -3.48388 5.25287 5.71163
154 1 -0.620938 -2.00983 5.18756 6.64925
93 2 0.203068 2.60799 4.35616 7.40329
285 2 0.132982 2.20441 2.26107 0.941288
265 2 -0.00783217 3.24072 3.81147 2.57127
117 3 -0.767072 5.8553 0.505359 5.43291
284 2 0.160626 0.32646 1.84615 0.556159
321 2 0.149835 5.38574 0.51027 1.26726
94 2 0.141111 2.20532 5.38476 5.80302
267 3 -0.815763 3.69633 5.48388 0.596209
266 3 -0.789789 5.11744 3.28392 0.798213
96 2 0.151596 4.17395 3.86434 4.66216
4 1 -0.671109 0.372695 0.717791 3.93861
312 2 -0.00981767 3.48796 0.649662 3.71751
162 2 -0.0217117 2.66158 -0.191536 6.87643
170 2 -0.00192679 -0.499323 5.24452 7.97583
316 2 0.179887 0.365531 0.630861 2.83475
87 2 0.191556 5.72538 2.57645 2.33273
83 2 0.177206 2.16666 0.554553 8.45009
283 1 -0.687747 1.33705 1.77447 0.211265
49 1 -0.678933 6.24622 2.09051 3.26997
174 2 0.165195 -2.25994 5.6598 7.58363
175 2 0.048172 -0.518626 5.81335 5.98978
19 4 0.784241 1.59667 0.934542 16.3299
21 4 1.42827 2.42179 -1.12342 13.1703
22 4 1.40693 1.09001 1.12921 11.5649
23 4 1.02949 -0.89451 2.37143 13.5705
25 4 1.18785 6.07557 0.093142 17.2597
27 4 1.06878 4.07499 1.55374 10.0091
29 4 1.51415 4.41249 0.550249 14.7937
150 4 1.05163 2.62243 5.17554 11.0035
81 2 0.15692 3.80328 -0.431107 8.93333
127 3 -0.781274 1.05901 4.26752 16.6943
48 1 -0.671171 5.21265 0.491991 11.1453
58 2 0.0436019 0.420939 0.232048 15.2596
44 1 -0.666575 -1.31115 0.661045 14.4226
34 4 0.896553 -0.274946 4.33552 16.0252
75 2 0.206762 -0.55851 -0.00495398 13.9132
198 3 -0.780446 1.46672 5.15745 9.87803
311 2 0.0759281 1.29198 2.60384 16.6915
84 2 0.250696 5.64134 -0.341356 10.4277
85 2 0.279323 4.69146 0.0405812 12.1007
171 2 0.115437 2.54481 3.55667 11.6321
112 3 -0.823287 0.466475 0.420285 10.0127
113 3 -0.858693 1.467 -0.0724581 12.5236
114 3 -0.857907 0.0975286 2.00706 12.4423
116 3 -0.751062 2.57457 2.06981 10.9723
119 3 -0.780623 4.10176 -0.493565 13.6775
120 3 -0.770813 5.57364 -0.198275 15.7215
121 3 -0.794349 3.01929 0.743639 15.6679
122 3 -0.786539 4.99629 2.68533 9.31552
125 3 -0.796967 5.0005 1.93968 14.0844
126 3 -0.81751 -0.490408 3.30092 14.8259
286 2 0.186911 1.43765 -1.22781 17.3095
59 2 -0.0420971 -1.12581 2.51363 9.31829
60 2 0.00865993 -2.32073 3.06422 12.7961
20 4 1.19789 -0.968927 0.855734 9.46151
77 2 0.14418 -1.27368 0.696134 15.5585
62 2 -0.00731471 -1.43889 4.10406 17.3127
86 2 0.16983 6.06787 1.23413 11.4516
95 2 0.169647 2.18457 6.2341 7.4737
143 4 0.580904 -6.28829 11.3736 6.49188
144 4 0.694897 -2.17611 6.52745 5.32813
146 4 0.919845 -2.50556 9.24957 6.87413
294 2 0.162881 1.69135 7.99239 1.22156
300 2 0.195848 0.42694 10.0088 7.75517
231 2 0.178905 1.87069 8.32868 5.47777
15 2 0.113161 -0.274524 6.51369 2.3648
317 2 0.130575 -5.39994 9.90577 3.614
235 2 0.185172 -1.28346 11.4884 4.99324
166 2 0.0457401 -4.11651 9.77172 7.11368
167 2 -0.00874541 -1.74583 10.4423 5.90417
169 2 -0.0282991 -5.90889 11.0763 4.85683
164 2 -0.025266 -1.56059 6.24124 3.60157
230 2 0.179434 0.0330386 8.47804 5.70075
234 2 0.176535 0.218135 11.0922 6.2165
183 2 0.175778 0.172319 7.45549 7.67455
192 3 -0.80447 -2.33534 7.92151 5.97558
193 3 -0.787663 -5.80738 10.2351 7.3922
199 3 -0.832572 -1.82176 9.20273 8.24259
206 4 0.664516 -1.75325 9.17467 1.47533
207 4 1.04597 0.573833 9.83525 3.86231
213 1 -0.621967 -3.01129 10.4666 0.880934
214 1 -0.65861 0.830279 8.30898 4.97863
215 1 -0.632293 -0.17914 11.2005 5.01414
184 2 0.156632 1.8851 7.65921 8.55699
221 2 -0.0149898 -1.45112 7.54398 0.741793
227 2 -0.00800283 -3.30218 8.99902 2.16815
242 3 -0.743854 -0.639542 9.46649 2.58222
229 2 0.164669 -3.02977 11.2594 1.67328
157 1 -0.670323 0.735764 7.547 8.64452
232 2 0.150689 0.685911 7.43732 4.31025
328 2 0.265927 -5.86259 8.40865 7.52135
228 2 0.152058 -3.99772 10.3475 0.395565
261 2 0.177483 -6.71964 10.0151 16.6628
64 2 -0.0283628 -0.620861 5.86932 15.4492
115 3 -0.767514 -6.68554 11.1804 14.5145
145 4 0.989201 -1.79797 5.91149 12.1689
148 4 1.33032 -4.9922 9.70232 11.0555
151 4 1.39038 -2.0723 10.0706 9.58378
200 3 -0.800294 -1.77176 11.6484 9.1816
153 4 1.0376 0.0443913 9.79132 12.1336
155 1 -0.635826 -1.19163 6.87625 13.7961
156 1 -0.648274 -4.94759 8.04229 12.0715
274 2 0.154398 -0.403539 11.0696 16.3479
182 2 0.225864 0.369228 8.23691 9.46855
165 2 0.0844693 -1.98227 7.80545 12.6817
149 4 1.00746 0.156651 5.92923 9.4269
258 4 0.831271 -7.01219 9.64066 14.4034
177 2 0.160395 -0.385057 7.53816 14.2822
178 2 0.0653518 -0.4457 5.3776 13.3455
179 2 0.138931 -2.0305 6.59908 14.5183
180 2 0.161248 -4.13133 7.54544 11.3859
181 2 0.154889 -4.65119 7.84974 13.1879
172 2 -0.0126928 2.00513 6.952 14.6492
188 2 0.0443165 -1.04053 10.3539 13.3997
194 3 -0.82123 -3.17463 5.25399 12.5158
195 3 -0.751082 -6.37254 9.52733 9.99247
196 3 -0.834112 -5.32516 10.8042 12.1444
197 3 -0.762166 -1.04817 6.004 10.6375
147 4 1.06502 -7.13465 10.3731 8.84793
201 3 -0.813993 -3.62482 9.94204 10.3656
202 3 -0.775288 2.28125 6.22677 12.1952
203 3 -0.78466 -0.859621 9.68491 10.9031
168 2 0.0600556 -7.26185 11.9256 9.41282
275 2 0.116314 -0.0975495 9.18988 15.667
204 3 -0.817068 1.11293 8.73935 12.7525
260 2 0.0023529 -5.64381 8.61282 13.792
303 2 -0.0173017 -4.50081 6.16995 16.9109
320 2 0.180987 -2.40745 10.8661 17.1022
30 4 1.18181 2.92776 4.70816 17.3206
220 2 0.066794 -2.07222 8.44646 17.3232
28 4 1.48145 7.30909 1.27471 6.25491
31 4 1.27436 6.09908 3.45799 8.28031
35 4 1.27421 9.57042 2.0793 4.17777
37 4 1.47491 12.0632 1.47517 5.9221
40 4 0.70374 10.9867 4.10858 2.53843
330 2 0.197974 13.1376 1.51268 0.5453
105 2 0.0856212 11.9175 3.53029 0.548481
55 1 -0.65496 11.9857 2.81908 1.59772
56 1 -0.606437 8.0604 5.11603 5.21129
65 2 0.00754269 9.2615 0.851409 3.00025
69 2 -0.0747072 11.9712 5.05325 3.55428
70 2 -0.00374248 10.2727 5.37581 1.45348
313 2 -0.00749907 10.4319 2.44881 0.371769
89 2 0.185043 6.66916 2.97876 3.87753
296 2 0.120786 9.04939 0.583146 0.907719
32 4 0.824042 4.40994 5.64184 6.35406
106 2 0.169716 11.4004 1.84708 1.55005
107 2 0.216259 12.9542 2.91237 2.26716
108 2 0.247259 8.14515 3.99262 5.08275
118 3 -0.818409 7.90106 0.0887108 7.08163
123 3 -0.815796 6.81687 2.46743 7.34094
124 3 -0.75779 5.29329 4.77044 7.35279
128 3 -0.848636 8.24476 1.97935 5.1192
129 3 -0.82556 14.4077 0.225 8.03036
131 3 -0.814638 13.4396 1.62885 5.08762
132 3 -0.859179 10.8211 1.59708 4.91709
133 3 -0.810711 12.0003 -0.30757 6.71944
137 3 -0.813038 9.79494 3.31107 3.21142
139 3 -0.824999 11.9809 2.32055 7.28266
140 3 -0.767065 10.3708 4.36434 7.40707
42 4 0.745321 9.46941 5.62413 6.73224
264 2 -0.0177218 5.3468 5.10079 2.70443
26 4 1.29882 7.99172 -0.730355 8.45177
97 2 0.140076 5.88582 4.90606 4.36483
109 2 0.129481 7.17962 5.41384 4.43273
41 4 1.24602 11.1835 3.29717 8.33119
110 2 0.0866086 7.48667 5.35313 6.71974
88 2 0.176339 7.07131 1.35603 2.96681
52 1 -0.669396 4.67483 4.95196 4.51311
98 2 0.125904 4.10597 5.65605 3.83108
72 2 0.00859605 9.64472 5.77193 4.82878
315 2 0.187979 15.3889 -0.0782786 4.44806
309 2 0.166191 13.6135 -1.33947 13.9491
68 2 -0.019069 12.4525 -0.880062 12.5765
33 4 1.04009 6.08279 3.10078 13.9744
36 4 1.29177 9.82399 1.32968 10.1554
38 4 0.712531 9.13627 1.14412 16.8551
39 4 0.970853 12.2083 -0.24507 11.0101
50 1 -0.660258 7.34489 4.15321 9.54587
53 1 -0.658543 7.47346 2.86564 12.474
54 1 -0.637799 9.56149 0.202061 15.2885
306 2 0.148663 14.2981 -0.820405 16.5779
63 2 0.0444602 6.06923 3.84886 12.25
66 2 0.00340656 8.89304 2.13521 11.3788
67 2 0.00737845 9.43288 2.9162 17.0528
159 1 -0.654387 8.44557 -1.42258 12.7975
281 2 0.014638 8.69024 4.46321 16.5806
327 2 0.189715 8.88091 -0.865666 13.6895
90 2 0.14688 6.99445 5.23951 9.5434
92 2 0.185378 7.3964 3.65167 10.5872
99 2 0.153841 8.33878 3.59349 12.1519
100 2 0.149689 7.26485 1.91891 11.8763
101 2 0.0406317 7.86444 2.45265 14.0523
102 2 0.127494 10.7435 0.331394 15.3907
103 2 0.139786 8.96722 0.940401 14.5814
104 2 0.195628 9.07466 -0.872736 15.3943
130 3 -0.796955 8.75564 0.20699 9.47251
134 3 -0.755289 7.66756 0.762928 17.221
135 3 -0.844067 13.563 0.285765 10.4561
136 3 -0.875944 10.9473 0.58965 10.8846
138 3 -0.871108 10.2248 2.50621 9.27701
141 3 -0.839831 5.86291 4.28272 14.973
249 4 1.05951 11.09 4.65805 12.8904
250 1 -0.656924 11.4673 2.78124 12.9419
187 2 0.158725 4.79161 4.74303 10.5658
252 2 0.129693 12.0716 2.54835 13.9153
253 2 0.172075 11.9741 2.41127 11.9603
254 2 0.147689 10.4033 2.35638 13.0544
304 1 -0.623703 13.5641 -1.26441 17.3472
256 2 0.173033 9.60116 4.10285 10.9276
76 2 0.12325 13.332 0.595382 13.9274
302 2 0.127202 11.3294 4.09874 17.0851
91 2 0.212682 8.31053 3.91622 8.93396
310 2 0.167217 11.7699 -1.32475 14.4848
251 1 -0.678772 9.7251 5.00636 11.531
301 1 -0.607478 10.3285 4.52022 17.4684
71 2 -0.0313586 12.2914 4.07663 9.37272
326 2 0.183104 7.56483 -0.812628 12.3789
222 2 0.0085917 4.73458 11.0845 8.35996
218 2 -0.00866225 9.72531 8.10582 5.84055
57 1 -0.671129 9.7578 7.2854 7.59292
61 2 0.0697869 4.82392 7.29318 6.42375
299 2 0.183599 1.7009 11.3034 7.25512
226 2 0.0977705 8.88367 8.9829 2.4639
298 1 -0.693663 0.989878 10.8855 8.04754
244 3 -0.805932 7.20904 9.55942 8.67779
248 3 -0.822301 6.08878 11.5584 6.05197
205 4 0.70543 8.50935 8.4338 4.61466
212 1 -0.637382 9.21433 9.75048 3.47686
209 4 1.01032 3.58521 10.8629 4.06609
247 3 -0.788795 5.11189 8.8385 7.13228
211 4 1.29766 5.84046 9.72608 5.59492
243 3 -0.768296 2.07882 10.2959 3.59136
216 1 -0.65259 4.15324 11.9359 2.64072
111 2 0.136829 8.66638 7.08828 8.17788
219 2 -0.0150551 8.20345 6.71801 4.12844
245 3 -0.814603 7.21415 9.04794 5.21988
223 2 0.0845685 3.26877 11.8307 5.48955
325 2 0.113491 10.6453 7.30658 0.756135
225 2 0.166964 8.54475 10.7068 3.56969
210 4 0.994332 5.80052 8.75332 8.54298
297 2 0.160994 1.90406 12.5192 2.26404
233 2 0.162986 0.533023 12.0382 4.50598
295 1 -0.656557 0.947848 12.5765 1.57903
236 2 0.163651 4.76633 11.1194 2.005
246 3 -0.799656 4.6796 9.72188 4.49146
238 2 0.175095 3.29725 12.4369 2.07154
292 2 0.158355 3.36709 8.9518 0.645511
161 2 0.0717556 7.6974 11.4674 6.48169
272 2 0.0440585 1.39846 10.8233 0.949414
293 2 0.179997 3.39566 7.64204 2.11476
291 1 -0.637392 2.83941 7.99334 1.14723
323 2 0.159993 -0.0198139 12.3371 2.11864
329 2 0.158235 10.6688 6.87157 8.2188
237 2 0.170133 4.80619 12.7111 3.25354
305 2 0.128973 6.02607 12.7757 0.460039
208 4 1.21967 5.2129 12.2564 7.19953
43 4 0.933036 5.45244 5.39902 15.9047
73 2 -0.0203151 5.95676 7.0174 15.2789
255 2 0.155418 8.72983 5.40086 11.8747
142 3 -0.797101 3.894 5.45373 16.2545
74 2 -0.0617023 6.47425 5.52903 17.2316
160 1 -0.641982 3.87575 8.39186 12.6964
173 2 0.119997 1.28731 11.6142 11.9292
185 2 0.135452 4.56185 6.77195 11.1441
276 2 0.127265 6.1093 8.57912 17.1071
282 2 -0.0319234 8.95376 7.15807 15.6503
189 2 0.156269 3.38581 9.42941 12.3716
190 2 0.146837 4.59847 7.89795 11.8967
191 2 0.136596 4.27023 8.32735 13.7725
217 1 -0.647287 4.45557 9.61443 9.68124
239 2 0.124248 4.32157 8.49951 10.2645
270 1 -0.651256 0.263804 10.299 15.6808
241 2 0.142854 5.10349 10.3507 10.2866
240 2 0.145383 3.45531 10.0912 9.34842
257 2 0.169808 10.3467 5.78635 10.9842
307 1 -0.651733 4.50881 11.1472 14.3035
259 1 -0.65178 8.67473 8.97873 16.2845
269 4 0.86828 4.49531 10.6388 16.2541
271 1 -0.645772 5.43261 8.71076 16.1191
158 1 -0.643701 4.26356 5.81084 10.388
318 2 0.14573 7.41845 8.87131 16.3501
277 2 0.155988 6.05396 8.83343 15.1171
278 2 0.161241 4.532 8.02952 16.1744
279 3 -0.732914 2.89936 10.3831 16.7371
280 4 0.626015 9.91806 5.69271 15.8125
186 2 0.170114 4.09775 6.18486 9.278
268 4 0.757054 1.39331 9.97933 17.1444
287 1 -0.668846 7.09198 9.31176 13.4369
288 2 0.12136 6.74894 8.18642 13.5213
289 2 0.175415 7.50837 9.48945 12.4379
290 2 0.166558 6.09486 10.0292 13.7179
152 4 1.01817 2.1766 7.62293 13.0769
308 2 0.156341 4.27213 10.1376 13.6587
314 2 -0.0229438 3.72688 11.3606 10.254
331 3 -0.749041 10.4881 5.14923 14.4073
273 2 0.188336 0.300631 10.7096 14.5958
324 2 0.155378 1.48972 10.7835 9.08894
319 2 0.165139 9.71085 7.64467 11.8835
224 2 -0.0283913 6.11491 7.12911 8.81311
262 2 0.129107 9.2062 8.19376 16.906
ITEM: TIMESTEP
200
ITEM: NUMBER OF ATOMS
331
ITEM: BOX BOUNDS xy xz yz pp pp pp
-8.3444333333333347e+00 1.5698227533333334e+01 -8.1987305333333342e+00
-2.0055999999999998e+00 1.3086800000000000e+01 -1.4570280000000002e-01
0.0000000000000000e+00 1.7524799999999999e+01 -2.0055999999999998e+00
ITEM: ATOMS id type q x y z
1 4 1.02945 -0.878984 2.25775 4.62396
2 4 0.695379 -0.165193 4.48848 2.29676
3 1 -0.658159 0.0696749 3.23814 5.9789
322 2 0.153639 7.43422 0.145476 1.14197
5 1 -0.648426 1.8312 4.79583 3.45427
6 1 -0.588456 -1.30805 6.04542 1.62887
8 2 0.15693 0.275781 4.26625 5.65434
9 2 0.155467 0.954355 2.51398 5.98991
10 2 0.164005 -0.53895 3.13682 6.96498
11 2 0.123042 1.23223 0.682405 4.71485
12 2 0.0163942 1.62848 4.05895 1.84167
13 2 0.146587 1.22781 4.29535 4.34232
14 2 0.145403 2.92509 4.85396 3.89753
263 4 0.98251 4.31539 4.37519 1.39746
16 2 0.128106 -2.26856 5.61483 2.01303
17 2 0.00100415 -0.812789 4.55213 0.649557
18 3 -0.747335 -0.982131 3.44365 3.15258
24 4 0.772408 5.13677 1.37601 4.29571
45 1 -0.656568 3.31304 2.1415 4.76794
47 1 -0.685236 3.21766 0.419241 8.61517
176 2 0.220701 -1.89832 4.00381 6.84618
7 2 0.141013 1.48341 5.81663 3.30117
78 2 0.152844 2.80711 3.13033 4.21533
79 2 0.157082 3.52872 2.40783 5.87682
80 2 0.132399 2.54034 1.29079 4.81842
46 1 -0.653586 6.32736 0.638119 0.766512
82 2 0.183114 3.37369 0.974784 7.67969
51 1 -0.677487 2.60342 5.52966 6.92121
163 2 0.0704192 -3.34702 5.00601 5.45455
154 1 -0.614327 -2.13185 5.04412 6.63283
93 2 0.209674 2.54692 4.65935 7.5866
285 2 0.122795 2.0846 2.23192 1.05481
265 2 -0.011735 3.25471 3.72763 2.57278
117 3 -0.740346 5.83372 0.59582 5.61702
284 2 0.137357 0.255812 1.77949 0.413821
321 2 0.145334 5.60308 0.799915 1.63304
94 2 0.147563 2.14381 5.30005 5.87568
267 3 -0.82094 3.62063 5.49356 0.644226
266 3 -0.791206 5.12556 3.40451 0.623421
96 2 0.1507 4.22834 3.94546 4.70597
4 1 -0.655555 0.27128 0.805789 4.06091
312 2 -0.0115977 3.73701 0.601942 3.58417
162 2 -0.0145942 2.64514 -0.292262 6.86944
170 2 -0.00375143 -0.716371 5.06834 8.00079
316 2 0.165728 0.534361 1.07357 2.98682
87 2 0.189698 5.85657 2.66457 2.18692
175 2 0.0442422 -0.642704 5.82372 6.26103
283 1 -0.668625 1.4341 1.74751 0.164441
174 2 0.160387 -2.59308 5.45374 7.53455
19 4 0.7938 1.68906 1.012 16.4323
21 4 1.47322 2.54652 -1.15412 13.1699
22 4 1.45582 1.12315 1.19257 11.5168
23 4 1.05456 -0.859867 2.35237 13.5156
25 4 1.18645 6.13222 0.184389 17.2456
27 4 1.05878 3.99033 1.48429 9.97765
29 4 1.46508 4.41395 0.493523 14.8092
150 4 0.995047 2.63541 5.07461 11.1428
81 2 0.172678 4.05371 -0.467006 8.88887
127 3 -0.77281 1.08581 4.21236 16.5122
48 1 -0.68939 5.2742 0.633394 11.01
58 2 0.017503 0.249901 0.76151 15.4811
44 1 -0.649819 -1.38383 0.687796 14.4195
34 4 0.911179 -0.350301 4.2368 15.9083
83 2 0.20512 2.1626 0.235696 8.84725
198 3 -0.716955 1.387 5.0829 9.82589
311 2 0.0989898 1.39549 2.6945 16.5515
84 2 0.252391 5.67895 -0.153896 10.2629
85 2 0.270438 4.8398 0.152819 11.9129
171 2 0.125865 2.6186 3.43234 11.7345
112 3 -0.812186 0.385062 0.439491 9.919
113 3 -0.82694 1.51613 -0.0652427 12.4196
114 3 -0.861822 0.0749269 2.13951 12.2693
116 3 -0.788333 2.44969 1.96475 11.1876
119 3 -0.807713 3.9591 -0.503334 13.4575