ITEM: TIMESTEP
0
ITEM: NUMBER OF ATOMS
331
ITEM: BOX BOUNDS xy xz yz pp pp pp
-8.3499999999999996e+00 1.5708700000000000e+01 -8.2042000000000002e+00
-2.0055999999999998e+00 1.3086800000000000e+01 -1.4580000000000001e-01
0.0000000000000000e+00 1.7524799999999999e+01 -2.0055999999999998e+00
ITEM: ATOMS id type x y z
1 4 -0.985234 2.18515 4.86022
2 4 -0.147071 4.30007 2.48287
3 1 0.196631 3.08032 6.00323
46 1 5.76821 0.162142 0.130763
5 1 1.95927 4.58219 2.53766
6 1 -1.26181 4.77321 1.07629
8 2 -0.136204 3.97108 6.59413
9 2 1.05735 3.3403 5.2319
10 2 0.370394 2.05167 6.65662
11 2 0.997689 0.615762 4.44465
12 2 1.67437 3.18968 2.10989
13 2 2.50598 4.64393 3.58096
14 2 2.40595 5.29511 1.76191
283 1 1.66569 1.45538 0.0803923
16 2 -2.40482 4.41562 0.983203
17 2 -0.559478 4.33786 0.247772
18 3 -0.960526 3.37841 3.4795
24 4 5.09035 0.605136 4.1662
45 1 3.28302 1.25127 4.1501
47 1 4.06357 0.397792 8.15923
174 2 -1.29196 5.18947 5.31847
51 1 2.84798 5.33466 5.94372
78 2 3.07824 1.44315 5.25678
79 2 2.63133 0.378239 3.74813
80 2 3.27263 2.1243 3.38671
162 2 3.35974 -0.130566 6.40514
82 2 4.73108 0.59543 7.15404
83 2 2.93504 0.532948 8.06468
7 2 0.593571 5.56835 3.45016
170 2 -0.367142 4.09522 8.44805
93 2 2.69007 4.5799 5.02329
4 1 -0.133457 0.451764 4.2568
95 2 2.6955 4.87628 7.0599
117 3 5.76342 0.740257 5.84849
284 2 2.71059 1.23142 0.444202
87 2 5.91902 1.97215 1.98856
266 3 5.42318 3.03941 0.404049
267 3 4.14628 5.35021 0.281784
154 1 -2.48386 5.25671 5.73801
263 4 4.72349 4.1733 1.15106
176 2 -2.56714 5.25532 6.83186
286 2 0.951081 1.5017 0.9619
311 2 1.90505 4.1893 0.608977
265 2 3.43724 3.40451 1.92278
321 2 4.97022 0.431306 0.883608
175 2 -3.20094 4.56239 5.29804
49 1 6.26398 1.57654 3.00092
161 2 0.659749 -0.292858 5.89052
316 2 -0.393285 0.471891 3.17298
15 2 -1.14407 5.89113 1.19454
183 2 0.898996 5.68804 7.18135
81 2 4.31662 -0.595864 8.64177
19 4 1.63822 1.07049 16.7599
21 4 2.5682 -1.0125 12.7708
22 4 1.2143 0.944105 11.1815
23 4 -0.635302 2.32837 13.3812
25 4 5.90743 -0.13597 16.7436
27 4 4.27334 1.45836 9.73717
29 4 4.05764 0.816501 14.6216
285 2 1.16215 -1.20375 16.6724
34 4 0.303295 4.49379 15.6475
44 1 -1.05085 0.86357 14.5626
48 1 5.71313 0.708863 10.7982
58 2 0.146032 1.56317 15.9343
60 2 -2.07549 3.06779 12.7051
198 3 1.2384 5.20234 10.2974
149 4 -0.161202 5.39556 9.53836
122 3 4.76721 2.88722 9.23394
76 2 -0.484548 -0.0293496 14.0567
84 2 6.3176 -0.0750142 10.1353
85 2 5.37147 0.253969 11.7716
171 2 2.90992 3.28703 11.2035
112 3 0.372276 0.65335 9.59013
113 3 1.46291 -0.584577 11.7243
114 3 0.344297 1.80206 12.2569
116 3 2.69228 1.73652 10.768
119 3 3.61318 0.187368 13.2057
120 3 5.02056 -0.3754 15.3023
121 3 2.85994 1.21183 15.6712
150 4 2.58198 5.02463 11.1789
125 3 4.96715 2.29229 14.3084
126 3 -0.101061 3.4741 14.5338
168 2 0.871796 -1.03149 9.52567
75 2 -1.26185 0.64258 15.6793
127 3 1.66129 4.47876 16.2393
59 2 -1.71239 2.34243 9.01362
62 2 -0.81861 4.29358 16.8523
71 2 -3.17564 3.90655 9.08566
115 3 1.60594 -1.60558 14.2405
186 2 3.6632 5.48197 9.12172
293 2 3.09304 6.92588 2.13603
143 4 -6.14912 11.8663 6.17142
144 4 -2.61549 6.92005 4.8713
146 4 -2.87335 9.102 7.11599
182 2 -0.943728 5.74641 6.97028
322 2 -1.484 12.8602 0.604378
215 1 0.0662897 11.1718 4.81913
94 2 2.21327 6.46875 5.85141
163 2 -3.85964 7.03648 3.7003
164 2 -1.44574 7.43716 3.70587
166 2 -4.35499 8.68729 7.90437
167 2 -3.10832 10.6492 6.53068
169 2 -5.9754 10.984 4.71833
184 2 -0.0637161 7.12641 8.1123
312 2 -3.10892 12.0054 3.56548
72 2 -4.78912 7.14521 7.01477
157 1 -0.0783601 5.92267 7.72439
192 3 -2.73362 8.06699 5.96236
193 3 -6.41999 10.9334 7.31216
199 3 -1.48067 9.04394 8.0684
206 4 -1.80831 9.05907 1.85342
207 4 0.677975 9.38412 4.13137
213 1 -2.15266 10.8554 2.36281
214 1 1.17474 8.18459 5.49904
294 2 1.80868 7.84949 0.949057
220 2 -1.16927 10.4386 0.833086
221 2 -2.54475 8.00939 0.650635
227 2 -1.33356 11.0853 3.29651
228 2 -3.44333 9.73301 2.67863
229 2 -2.29561 11.7082 1.52148
231 2 0.668877 7.17197 5.13571
232 2 1.0353 8.37226 6.63878
235 2 -0.300084 10.5885 5.77808
242 3 -0.647645 8.54685 2.86355
233 2 -0.668924 11.9737 4.49379
218 2 -6.39336 9.92448 2.65457
291 1 2.88399 7.51568 1.17977
281 2 -4.3645 8.17051 0.0669969
230 2 2.3042 8.10766 5.26413
302 2 -3.78711 7.72676 14.8857
64 2 -0.0359495 6.06586 15.056
204 3 1.37522 8.3787 12.7831
145 4 -2.17718 6.11537 11.8313
148 4 -4.45533 9.93398 10.8435
151 4 -1.44275 9.91564 9.53356
153 4 0.725133 9.52655 11.9106
159 1 -0.0598915 10.7871 13.0574
155 1 -0.960454 6.35238 13.3158
156 1 -4.77767 8.06376 11.3643
301 1 -3.42595 7.04938 16.6001
325 2 -2.45343 6.46998 16.5228
165 2 -2.7628 7.71059 11.4873
318 2 -6.2463 8.26273 17.3153
259 1 -6.32591 9.12885 16.6145
177 2 -0.841796 7.48853 13.0494
178 2 -0.134928 5.60001 12.9675
179 2 -1.62433 6.07933 14.2299
180 2 -4.39384 7.30375 10.5355
181 2 -4.42677 7.84617 12.4081
326 2 -0.934088 11.1836 12.3834
188 2 -0.278161 9.77145 13.8881
194 3 -3.3709 5.32216 12.5255
195 3 -5.59413 10.2358 9.7414
196 3 -4.56416 10.7874 12.0733
197 3 -1.49785 5.48776 10.5482
200 3 -1.22893 11.7058 9.11711
201 3 -2.95671 9.83291 10.2136
202 3 2.68409 5.81064 12.7024
203 3 -0.22374 9.43423 10.5463
30 4 3.36054 4.70243 17.103
258 4 -7.02837 9.94467 14.6897
275 2 -0.18589 8.34139 16.5613
260 2 -5.46583 9.04619 14.9047
262 2 -5.39842 9.78983 16.6222
320 2 -2.93902 10.6146 16.778
270 1 -0.0785257 9.5587 16.4723
274 2 -1.03898 10.2023 16.8258
280 4 -4.93335 6.55419 15.6849
328 2 -5.60279 8.44975 8.84844
303 2 -3.33737 8.11851 16.9234
319 2 -5.94068 8.14258 11.372
147 4 -6.82829 10.6041 8.77602
28 4 7.38319 1.34218 6.46378
31 4 6.11784 3.53288 8.19707
35 4 9.45412 2.01844 4.40266
37 4 11.8872 1.30706 6.19834
40 4 10.2397 4.36704 2.38663
42 4 9.89487 5.64749 7.20485
88 2 7.16811 0.910036 3.01883
55 1 11.3948 3.815 0.839249
56 1 8.38057 5.21026 6.33643
65 2 9.21984 0.694174 3.38795
69 2 9.83363 5.99099 2.80913
70 2 9.70726 4.16857 0.648259
306 2 12.6619 0.704261 1.11214
89 2 6.33681 2.54095 3.71284
109 2 8.69828 5.76316 5.30301
96 2 4.49714 5.55852 3.46341
106 2 11.687 2.72928 1.07552
107 2 12.0982 4.77414 2.17193
108 2 8.12429 4.14089 6.31847
118 3 8.19342 -0.130904 7.01275
123 3 7.0433 2.40859 7.56079
124 3 5.32712 4.64278 7.04888
128 3 8.1083 2.24152 5.23073
129 3 13.963 -0.122324 8.09083
131 3 13.3056 1.87138 5.50691
132 3 10.6578 1.67225 5.3671
133 3 12.0131 -0.548316 6.11261
137 3 9.81862 3.17812 3.39018
139 3 11.7417 1.81146 7.72191
140 3 10.47 4.35901 8.01508
26 4 8.34829 -0.619506 8.54596
264 2 5.67709 4.79554 2.44375
32 4 4.69604 5.61914 6.02463
315 2 15.0563 -0.371966 4.83097
97 2 6.08182 4.86176 4.274
313 2 10.1992 2.37866 0.198289
52 1 5.36696 5.70135 4.16154
323 2 8.72822 0.120102 1.40915
41 4 11.1779 3.00525 8.68715
304 1 13.4509 0.490555 0.386206
330 2 14.4804 0.121201 0.733996
327 2 8.74267 -1.36364 13.5563
310 2 11.3604 -0.917711 14.6116
33 4 5.9503 3.44964 13.9224
36 4 9.8402 1.35509 10.6177
38 4 9.07388 0.273467 16.2923
39 4 12.3338 -0.555639 11.1667
50 1 7.24467 4.55716 9.35061
53 1 7.48865 2.84698 12.8834
54 1 9.71363 0.212474 14.4408
90 2 8.23461 4.18991 9.00851
63 2 5.84517 3.66598 12.1764
66 2 8.94687 1.85131 12.0101
67 2 9.59893 1.77176 15.2098
68 2 12.5833 -1.25716 12.6975
77 2 13.3935 0.954894 13.9975
86 2 6.41356 1.62403 10.9634
91 2 6.86518 4.15481 10.3304
309 2 13.3378 -0.797805 14.5545
99 2 8.31833 3.62585 12.7272
100 2 7.23328 2.22926 12.0079
101 2 7.702 2.06383 13.914
102 2 10.5695 0.313978 13.6823
103 2 8.67349 0.262342 13.942
104 2 9.85801 -1.25128 15.4848
130 3 8.88519 0.413653 9.65322
134 3 7.49199 0.118853 16.5095
135 3 13.6178 0.190493 10.6266
136 3 11.0711 0.33133 11.1238
138 3 10.4271 2.66161 9.98403
141 3 6.06871 4.83025 14.682
249 4 11.1443 4.596 13.2724
250 1 11.7341 2.75657 13.1694
105 2 11.5603 2.22254 17.3634
305 2 13.5038 -0.561971 17.3064
253 2 12.0681 2.42821 12.1254
254 2 10.6248 2.39797 13.3156
20 4 14.4853 0.718442 9.34437
256 2 9.3828 4.41579 11.4738
307 1 12.4285 -1.5273 14.6611
252 2 12.4439 2.64123 14.1062
187 2 4.91182 5.23679 10.3969
300 2 2.12189 11.4696 7.52934
295 1 1.12601 12.3869 1.99014
110 2 7.63215 5.81418 6.924
61 2 5.30438 7.20925 6.33162
244 3 7.69015 9.61902 8.73604
298 1 1.47556 11.0826 8.36936
292 2 3.56635 8.41294 1.20492
234 2 1.07159 11.6606 5.05078
98 2 5.87239 6.72268 4.03833
205 4 7.90771 8.92184 2.94356
208 4 5.07939 11.926 7.15103
209 4 3.6824 10.5308 3.8235
210 4 6.43554 8.6493 8.56739
211 4 6.05456 9.67991 5.44688
212 1 7.70896 10.3026 1.63612
216 1 4.6568 11.0159 2.28968
268 4 1.46733 11.6245 0.0664912
219 2 8.65884 7.44398 2.81094
222 2 4.45206 10.7235 8.13294
223 2 3.45523 12.0215 4.59184
317 2 7.39513 11.189 2.32627
225 2 6.59688 9.42909 1.30267
226 2 8.36129 10.6017 0.610072
297 2 0.672162 11.9034 3.06584
272 2 1.5149 10.5792 1.52699
57 1 10.0515 7.39347 8.55837
236 2 4.01408 10.5461 1.48858
237 2 5.80513 10.7291 2.13763
238 2 4.53962 12.128 2.34112
243 3 2.08996 9.81305 3.48511
245 3 7.13593 9.25737 4.36085
246 3 4.58976 9.53375 4.64446
247 3 5.96438 8.55806 7.05251
248 3 6.33548 11.1786 5.95856
111 2 8.78584 7.10407 8.4773
296 2 2.1048 12.7794 2.19034
324 2 0.962058 10.1559 7.97057
43 4 5.90049 5.68638 15.9531
73 2 6.43187 7.29153 15.6926
261 2 8.13149 9.78626 16.7825
142 3 4.38305 5.77937 16.4072
158 1 3.97364 5.77631 10.1757
160 1 4.13213 7.95636 13.5482
173 2 1.58542 11.086 12.1004
185 2 3.9592 6.84519 10.3082
257 2 10.0829 6.3242 11.9308
74 2 6.87416 5.13651 17.2037
189 2 3.86663 8.91183 12.7877
190 2 4.87917 7.25947 13.0611
191 2 4.502 8.30029 14.6038
217 1 4.94713 9.42447 9.56432
239 2 4.82067 8.43428 10.171
240 2 3.9395 9.84575 9.27643
241 2 5.53794 10.0878 10.2107
92 2 7.14268 5.75773 9.22971
251 1 9.56445 5.17272 12.3108
172 2 3.01884 7.3353 15.0982
224 2 6.80227 7.04632 8.93912
269 4 4.33704 10.6283 16.4526
271 1 5.41524 8.87955 16.3082
152 4 2.43126 7.22214 13.4464
276 2 6.01918 9.32482 17.2548
277 2 6.12029 8.91845 15.3327
278 2 4.83362 7.96406 16.4961
279 3 2.82156 10.0904 16.9455
255 2 8.70575 5.32751 12.9612
331 3 10.799 5.06507 14.8524
299 2 2.04677 10.8254 9.31908
287 1 7.29825 9.10496 13.7088
288 2 6.90264 8.14972 14.1714
289 2 8.00207 8.94011 12.765
290 2 6.51184 9.90071 13.5851
282 2 9.18276 7.41141 15.7635
308 2 4.26877 10.5831 13.9958
314 2 4.0141 10.9909 10.3158
273 2 0.419988 9.93406 15.4718
329 2 10.4973 6.80136 9.47382
ITEM: TIMESTEP
100
ITEM: NUMBER OF ATOMS
331
ITEM: BOX BOUNDS xy xz yz pp pp pp
-8.3499999999999996e+00 1.5708700000000000e+01 -8.2042000000000002e+00
-2.0066028000000000e+00 1.3093343400000000e+01 -1.4580000000000001e-01
0.0000000000000000e+00 1.7524799999999999e+01 -2.0066028000000000e+00
ITEM: ATOMS id type x y z
1 4 -0.925359 2.27997 4.92902
2 4 -0.212826 4.3726 2.50166
3 1 0.289192 3.00276 6.16251
46 1 5.76765 0.199647 0.0927945
5 1 1.76146 4.73691 2.35961
6 1 -1.20241 4.89685 0.989913
8 2 -0.383232 3.83564 6.55286
9 2 1.26109 3.46335 5.63622
10 2 0.556125 2.19514 6.91361
11 2 0.98059 0.520967 4.36656
12 2 1.53328 3.37421 1.74231
13 2 2.29098 4.65758 3.31953
14 2 2.19054 5.68438 1.73095
316 2 -0.556501 0.729545 3.26293
16 2 -2.39041 4.40149 1.04879
17 2 -0.518762 4.43655 0.166868
18 3 -0.901448 3.23121 3.71222
24 4 5.09825 0.750655 4.25388
45 1 3.2259 1.33648 4.27935
47 1 3.95835 0.502398 8.21777
174 2 -1.18407 5.10522 5.23039
51 1 2.80764 5.36205 6.03338
78 2 3.12062 1.93418 5.23023
79 2 2.44223 0.425434 4.15594
80 2 3.40871 2.00034 3.30413
162 2 3.37602 -0.215701 6.47346
82 2 4.52431 0.71362 7.18654
83 2 2.82663 0.344441 7.95886
7 2 0.487554 5.71169 3.47383
170 2 -0.459948 4.16214 8.49029
93 2 2.81036 4.76066 5.09336
4 1 -0.188842 0.52368 4.34783
95 2 2.51254 4.6809 6.90011
117 3 5.64962 0.716419 5.69012
284 2 2.66787 1.36605 0.760393
87 2 5.57421 2.00854 2.03125
266 3 5.41582 3.12579 0.270556
267 3 4.19832 5.39702 0.348092
154 1 -2.24026 5.26341 5.63572
263 4 4.7226 4.23353 1.17061
176 2 -2.41545 5.28474 6.78071
286 2 0.720473 1.49494 0.298615
311 2 1.79535 4.49268 0.354172
265 2 3.30971 3.56573 1.9728
321 2 4.84365 0.298777 0.743795
175 2 -3.06621 4.6474 5.04097
49 1 6.08602 1.81937 2.99451
161 2 0.68298 -0.362177 5.91142
183 2 1.13328 5.64894 7.14676
15 2 -1.13589 6.02997 1.21134
322 2 6.81571 0.147446 0.662643
182 2 -0.82889 5.62497 7.00403
81 2 4.39748 -0.505805 8.71716
19 4 1.61221 1.17856 16.7434
21 4 2.50789 -0.999193 12.8389
22 4 1.10227 0.984717 11.2146
23 4 -0.542939 2.32222 13.4706
25 4 6.01575 -0.121416 16.783
27 4 4.25444 1.43534 9.82669
29 4 4.07644 0.898371 14.6058
285 2 1.88111 -1.07915 16.5266
34 4 0.373665 4.36627 15.6428
44 1 -0.88446 0.726143 14.5993
48 1 5.68667 0.753499 10.7602
58 2 0.0342675 1.60726 16.0373
60 2 -2.1324 2.96015 12.9972
198 3 1.2616 5.29944 10.2878
62 2 -0.599105 4.09437 17.0262
122 3 4.86763 2.84345 9.39945
76 2 -0.324779 0.04683 13.7391
84 2 6.23817 -0.117938 10.1659
85 2 4.94749 0.369258 11.6818
171 2 2.45329 3.20041 11.1427
112 3 0.391404 0.73334 9.51053
113 3 1.35533 -0.542483 11.7708
114 3 0.210522 1.85897 12.1737
116 3 2.52842 1.66853 10.8477
119 3 3.40734 0.336407 13.3269
120 3 5.08335 -0.277329 15.3455
121 3 2.84866 1.12525 15.6884
150 4 2.5318 4.97262 11.1226
125 3 4.9022 2.2784 14.207
126 3 0.119634 3.31421 14.5184
168 2 0.967559 -0.802803 9.38629
75 2 -0.747489 0.119957 15.5329
127 3 1.81665 4.5706 16.0467
59 2 -1.69293 2.33451 9.10978
71 2 -3.06416 3.75012 9.3505
186 2 3.66771 5.34336 8.95863
283 1 1.70113 -0.458351 17.5143
293 2 2.67648 7.02468 2.17255
143 4 -6.14446 11.8104 6.31655
144 4 -2.58957 6.86607 4.77536
146 4 -2.78113 8.93547 7.21184
291 1 2.70672 7.57564 1.18345
230 2 2.12221 8.27605 5.81239
215 1 0.0100436 11.0935 4.70037
94 2 2.1512 6.36274 5.94765
163 2 -3.96906 6.90185 3.85661
164 2 -1.29732 7.31352 3.61183
166 2 -4.2055 8.73768 8.13702
167 2 -2.93305 10.4309 6.45662
169 2 -5.57336 11.0967 4.9211
184 2 0.0467737 7.19421 8.05089
312 2 -3.07411 12.2722 3.4345
72 2 -4.87151 7.24806 7.08773
157 1 0.0547473 5.8651 7.74541
192 3 -2.65993 7.88077 5.94043
193 3 -6.2763 10.8519 7.49764
199 3 -1.52504 9.13824 8.12841
206 4 -1.84262 9.19148 1.82774
207 4 0.673405 9.28769 4.09246
213 1 -2.05305 10.9577 2.36375
214 1 1.00987 8.1672 5.55263
294 2 1.63117 7.72714 0.872936
220 2 -1.27016 10.3855 0.699192
221 2 -2.68627 7.9455 0.721873
227 2 -1.0995 11.0446 3.07096
228 2 -3.3073 10.0617 2.86203
229 2 -2.22611 11.8572 1.53087
231 2 0.633641 7.14127 5.24075
232 2 0.304003 8.71978 6.3585
235 2 -0.319156 10.6045 5.68154
242 3 -0.746549 8.49109 2.79263
233 2 -0.750644 11.7945 4.23816
218 2 -6.3685 9.95715 2.75322
302 2 -3.65138 7.7461 15.2486
64 2 -0.289663 5.8726 15.1615
204 3 1.51044 8.41307 12.5778
145 4 -2.19272 6.19081 11.8765
148 4 -4.47695 10.0142 10.9738
151 4 -1.45194 9.9549 9.60097
153 4 0.638662 9.54315 11.9115
159 1 -0.274964 10.8791 12.86
155 1 -1.00142 6.08845 13.3551
156 1 -4.9414 8.17884 11.356
301 1 -3.07729 6.67078 16.6884
325 2 -2.48573 6.06791 15.9057
165 2 -2.9955 7.68799 11.4977
147 4 -6.80645 10.6574 8.93172
259 1 -6.35979 9.0492 16.5063
177 2 -0.874923 7.31649 13.3394
178 2 0.00616249 5.57604 13.3031
179 2 -1.68518 5.73699 14.1732
180 2 -4.48551 7.37813 10.607
181 2 -4.56601 8.02262 12.4076
326 2 -1.08929 11.2524 12.183
188 2 -0.755356 10.0224 13.5958
194 3 -3.32709 5.21467 12.388
195 3 -5.59195 10.272 9.85356
196 3 -4.76376 10.9336 12.2346
197 3 -1.42802 5.81419 10.52
200 3 -1.20041 11.5687 9.28802
201 3 -2.88713 9.84383 10.4042
202 3 2.46027 5.65885 12.6107
203 3 -0.211242 9.26619 10.6285
30 4 3.35331 4.79397 17.175
258 4 -6.92576 9.86186 14.7975
275 2 -0.00518907 8.67623 16.1449
260 2 -5.57552 8.65484 14.8686
262 2 -5.36343 9.59183 16.7352
320 2 -2.71139 10.565 16.7976
270 1 0.0226842 9.92226 16.3398
274 2 -0.935654 10.353 16.8153
280 4 -4.80511 6.48873 15.7714
115 3 -6.29826 11.2354 14.2716
303 2 -2.87234 7.75429 16.7398
328 2 -5.54772 8.48969 9.03801
149 4 -0.0742219 5.55766 9.57788
329 2 -4.82623 6.79737 9.39841
281 2 -4.59433 5.96621 17.5163
28 4 7.24615 1.35981 6.49932
31 4 6.10232 3.525 8.25442
35 4 9.43504 1.9252 4.39869
37 4 11.9051 1.30064 6.29384
40 4 10.2676 4.26264 2.39226
42 4 9.86572 5.6618 7.23764
330 2 14.462 0.514322 0.717919
55 1 11.474 3.6785 0.944007
56 1 8.476 5.26487 6.1855
65 2 9.11197 0.589891 3.36988
69 2 9.85274 5.77677 2.86537
70 2 9.70295 3.8571 0.662736
306 2 12.7307 0.827671 1.22818
89 2 6.41804 2.77877 3.53017
323 2 8.83547 0.0588948 1.52923
96 2 4.63346 5.00179 3.89336
106 2 11.677 2.57409 1.25321
107 2 12.0626 4.74629 2.30985
108 2 8.39946 4.15368 5.80636
118 3 8.19862 0.110601 7.09153
123 3 6.95935 2.32002 7.67884
124 3 5.40004 4.62512 7.00209
128 3 8.13978 2.15003 5.228
129 3 14.0184 -0.291299 8.20977
131 3 13.3104 1.92092 5.73586
132 3 10.7135 1.48999 5.1952
133 3 11.969 -0.579694 6.40212
137 3 9.84836 3.19106 3.48072
139 3 11.6654 1.96984 7.71944
140 3 10.6385 4.41369 7.92314
26 4 8.44866 -0.501808 8.59157
264 2 5.64438 4.72341 2.49175
32 4 4.77692 5.7224 6.06961
315 2 15.0457 -0.434624 4.78802
97 2 6.43 4.89205 4.63244
313 2 10.3355 2.29245 0.0934492
52 1 5.55345 5.5944 4.34189
110 2 7.62266 5.67176 6.96839
41 4 11.2885 3.158 8.68879
304 1 13.4106 0.753574 0.358246
88 2 6.97217 1.03854 2.92021
327 2 8.55067 -1.40813 13.4572
310 2 11.4315 -0.990993 14.567
33 4 5.93041 3.43722 13.7622
36 4 9.8696 1.26683 10.6755
38 4 9.19571 0.0173857 16.2428
39 4 12.3816 -0.517877 11.2674
50 1 7.15799 4.56205 9.47317
53 1 7.50317 2.92036 12.7896
54 1 9.72135 0.000879576 14.32
90 2 8.16895 4.18335 9.07725
63 2 5.84386 3.73471 12.1022
66 2 8.98507 1.93083 11.9812
67 2 9.66687 1.51846 15.3551
68 2 12.7855 -1.11261 12.8745
77 2 13.629 0.947743 14.3607
86 2 6.31312 1.65693 11.0933
91 2 6.79451 4.0131 10.405
309 2 13.4141 -0.788028 14.7035
99 2 8.34844 3.73897 12.4472
100 2 7.24331 2.32898 11.8178
101 2 7.76406 2.22065 13.9029
102 2 10.6161 0.0234122 13.6376
103 2 8.72742 0.177689 13.8106
104 2 9.86908 -1.43738 15.2872
130 3 8.91992 0.387921 9.77531
134 3 7.63468 -0.123727 16.5363
135 3 13.618 0.19636 10.6876
136 3 11.0131 0.334256 11.2709
138 3 10.4453 2.57634 9.92048
252 2 12.198 2.56129 14.1771
249 4 11.1024 4.56115 13.203
250 1 11.6424 2.71468 13.1529
187 2 4.82174 5.00498 10.4289
305 2 13.1705 -0.359319 17.1103
253 2 12.1574 2.19339 12.3394
254 2 10.427 2.39383 13.2121
20 4 14.5005 0.698083 9.39378
256 2 9.60636 4.39349 11.0645
307 1 12.581 -1.57086 14.7631
251 1 9.64978 5.15587 11.9876
105 2 11.8712 2.0169 17.5174
300 2 2.23174 11.6397 7.53974
295 1 1.31207 12.3057 1.93595
268 4 1.5112 11.7292 0.0463509
61 2 5.53979 7.24682 6.48744
324 2 0.994042 10.3311 8.4055
298 1 1.65219 11.292 8.49085
292 2 3.35156 8.58673 1.08686
234 2 1.01803 11.603 4.79571
98 2 5.85371 6.56385 3.83309
205 4 7.93688 8.96377 3.02563
208 4 5.14646 11.931 7.09383
209 4 3.73291 10.5208 3.81124
210 4 6.36908 8.75115 8.69643
211 4 6.0865 9.61822 5.43554
212 1 7.82377 10.406 1.72696
216 1 4.67865 10.9654 2.29802
248 3 6.2306 11.2667 5.89659
219 2 8.4755 7.39606 2.82533
222 2 4.5176 10.6268 8.00909
223 2 3.5222 11.8301 4.88635
317 2 7.44064 11.3277 2.24682
225 2 6.76379 9.41861 1.38158
226 2 8.42488 10.7165 0.696468
297 2 0.826868 11.8838 3.04199
272 2 1.41367 10.482 1.36247
57 1 10.1279 7.40313 8.71059
236 2 4.15742 10.433 1.47723
237 2 5.88427 10.8217 2.11896
238 2 4.33351 12.1118 2.27223
243 3 2.08329 9.72109 3.50465
245 3 7.19177 9.2626 4.40626
246 3 4.61417 9.46859 4.65379
247 3 5.85656 8.70509 7.11538
109 2 8.72411 6.05429 5.28091
296 2 2.41885 12.6252 2.10291
43 4 5.86093 5.78809 15.8584
73 2 6.24935 7.39585 15.4331
261 2 8.02545 10.0478 16.521
142 3 4.53175 5.75101 16.5418
158 1 3.94127 5.58503 10.0373
160 1 4.11841 7.96028 13.6016
173 2 1.34898 11.1903 11.8766
185 2 4.02208 6.69815 10.2798
257 2 10.0045 6.19911 11.6482
74 2 7.18518 5.56707 16.8433
189 2 4.09507 8.8246 12.7755
190 2 4.68948 7.02521 13.0649
191 2 4.63658 8.35379 14.5976
217 1 4.9157 9.55795 9.62914
239 2 5.02124 8.56164 10.481
240 2 3.76544 9.70502 9.20303
241 2 5.61059 10.6004 9.85659
92 2 7.08731 5.84262 9.48678
141 3 6.03581 4.95369 14.5306
172 2 2.77513 7.41006 14.9402
224 2 6.75119 7.0878 9.13126
269 4 4.40204 10.6367 16.4956
271 1 5.57027 9.064 16.2592
152 4 2.40572 7.2328 13.234
276 2 6.03111 9.17221 17.3175
277 2 6.28656 9.17395 15.3265
278 2 4.91552 8.09532 16.2673
279 3 2.89615 10.184 17.0075
255 2 8.65055 5.21505 12.5132
331 3 10.9929 5.22264 14.7336
299 2 2.32634 11.3454 9.38852
287 1 7.32295 9.15398 13.5564
288 2 7.24311 8.07442 13.641
289 2 7.9015 9.43963 12.6342
290 2 6.34397 9.71076 13.6338
282 2 9.28835 7.3076 15.7123
308 2 4.6152 10.6442 14.0986
314 2 3.9582 11.0886 10.518
244 3 7.69614 9.70592 8.93036
318 2 9.21337 8.14315 17.1829
273 2 0.325903 10.4635 15.3788
319 2 9.67266 8.13445 11.2358
111 2 8.97328 6.96571 8.87499
ITEM: TIMESTEP
200
ITEM: NUMBER OF ATOMS
331
ITEM: BOX BOUNDS xy xz yz pp pp pp
-1.4580000000000001e-01 2.3213200000000001e+01 7.5045000000000002e+00
-2.0076055999999998e+00 1.3099886800000000e+01 -1.4580000000000001e-01
0.0000000000000000e+00 1.7524799999999999e+01 -2.0076055999999998e+00
ITEM: ATOMS id type x y z
81 2 4.02293 -0.545652 8.64588
322 2 6.72154 0.0482526 0.940515
161 2 0.847925 -0.0237423 6.00797
46 1 5.7768 0.270408 0.345829
49 1 6.12433 1.78129 3.10485
321 2 4.93545 0.569306 1.06484
265 2 3.20744 3.56445 1.77085
263 4 4.62491 4.19954 1.00612
267 3 4.1577 5.4684 0.227874
11 2 1.06736 0.723572 4.49259
266 3 5.44056 3.12385 0.25517
87 2 5.63019 2.09909 2.14495
284 2 1.83672 1.73462 1.03628
117 3 5.79128 0.83533 5.77376
83 2 2.91683 0.883026 7.97906
82 2 4.73286 0.763263 7.31623
162 2 3.46324 -0.267929 6.38537
24 4 5.09976 0.743286 4.31578
45 1 3.28656 1.34473 4.27227
47 1 3.98104 0.534758 8.16109
80 2 3.54767 2.48501 4.08263
79 2 2.71716 0.966586 3.38984
78 2 2.76715 1.18219 5.2977
28 4 7.44299 1.37384 6.47364
88 2 6.96413 0.983681 2.8854
31 4 6.11738 3.68202 8.34916
40 4 10.2523 4.23391 2.2466
123 3 7.10096 2.52086 7.61487
52 1 5.36569 5.20638 4.40188
124 3 5.46583 4.75779 7.30928
97 2 6.05926 4.37853 4.08248
56 1 8.73865 5.23993 6.00461
32 4 4.81689 5.77765 6.13566
264 2 5.3735 4.62204 2.44144
69 2 9.71244 5.84451 2.59529
140 3 10.5686 4.3777 8.01542
70 2 9.68385 3.89729 0.465341
109 2 9.25869 5.96691 5.25632
89 2 6.67022 2.68348 3.60073
96 2 4.12882 5.03267 4.1377
108 2 8.70468 4.19896 5.72119
118 3 8.22492 0.117422 7.09574
128 3 8.29107 2.24672 5.3027
110 2 7.76186 5.65139 6.52659
42 4 9.84301 5.67058 7.36927
283 1 1.63966 -0.508306 17.4453
21 4 2.45418 -0.957154 13.0165
186 2 4.06121 5.07667 9.39319
168 2 0.781182 -0.881574 9.3466
25 4 5.88879 -0.115927 16.9135
27 4 4.19819 1.40812 9.84233
29 4 4.0529 0.960409 14.6173
285 2 2.4277 -1.16158 16.9667
125 3 4.86397 2.27735 14.2814
121 3 2.79608 1.22251 15.784
48 1 5.5638 0.494096 10.8955
120 3 5.19581 -0.172056 15.4109
119 3 3.40317 0.240601 13.4061
116 3 2.52447 1.55682 10.8119
113 3 1.01758 -0.372499 12.0466
122 3 4.86221 2.74369 9.34724
85 2 4.8736 -0.17317 11.4763
84 2 6.19493 -0.130647 10.1937
33 4 5.82208 3.38187 13.7626
103 2 8.54513 0.235101 14.2119
50 1 7.17173 4.68565 9.51176
256 2 9.32884 4.49251 11.2594
53 1 7.42612 2.85666 12.7357
90 2 8.18256 4.16556 9.44388
63 2 5.71487 3.5315 12.0735
66 2 8.85985 1.80939 11.8816
141 3 5.85741 4.76923 14.5539
86 2 6.18684 1.18126 11.515
249 4 11.0322 4.58517 13.1925
91 2 6.65435 4.41652 10.4784
99 2 8.17265 3.74178 12.4204
100 2 7.22227 2.04745 11.9758
101 2 7.86157 2.36285 13.8777
134 3 7.7563 -0.0568499 16.6623
171 2 2.85436 3.12827 11.4112
19 4 1.64364 1.18894 16.8111
286 2 0.51807 -0.846748 17.2167
218 2 9.43063 10.0514 2.69293
143 4 9.61877 11.8288 6.19258
229 2 13.375 11.7361 1.70525
146 4 12.9159 9.07077 7.13041
228 2 12.1613 9.881 2.79621
213 1 13.443 10.873 2.52397
193 3 9.36064 10.8886 7.35414
72 2 11.1344 7.08004 7.25621
163 2 11.8282 6.77211 3.71363
312 2 12.5628 12.1694 3.59453
166 2 11.4313 8.68882 8.02475
167 2 12.5304 10.5979 6.50908
169 2 9.89762 11.0165 4.81142
61 2 5.10373 7.42818 6.56845
98 2 5.71951 6.27517 4.11405
226 2 8.46154 10.7341 0.847198
247 3 5.88065 8.78326 7.12465
205 4 8.02352 8.92888 3.04259
245 3 7.38992 9.15878 4.56027
210 4 6.36878 8.78145 8.65002
211 4 6.17409 9.6943 5.47815
212 1 7.86077 10.4008 1.82557
219 2 8.64464 7.36824 2.81038
57 1 10.1256 7.39084 8.62184
317 2 7.4159 11.3015 2.35642
225 2 6.7883 9.20236 1.48594
281 2 11.4697 7.97692 0.0944926
111 2 8.67126 6.84709 8.5869
302 2 12.2084 7.68772 15.2569
251 1 9.50512 5.22526 12.0838
329 2 10.6706 6.92685 9.48382
328 2 10.0588 8.51399 8.80707
148 4 11.2096 10.0266 11.0393
303 2 13.002 7.71464 16.7816
115 3 9.36669 11.2928 14.4412
280 4 11.0277 6.38021 15.8615
320 2 12.7891 10.4921 17.2546
156 1 10.7207 8.16542 11.3986
262 2 9.99871 10.035 16.9114
260 2 10.3604 8.77047 14.9945
165 2 12.6514 7.73335 11.6637
147 4 8.91306 10.7329 8.86542
259 1 9.40458 9.12379 16.569
258 4 8.87708 9.80425 14.7027
201 3 12.7357 9.98242 10.3567
200 3 14.5205 11.543 9.12081
180 2 11.2545 7.4475 10.6858
181 2 11.1431 8.1802 12.5195
326 2 14.5259 11.2333 12.394
196 3 11.0075 11.0141 12.291
195 3 10.0542 10.4103 9.94654
43 4 5.85974 5.77151 15.7714
274 2 14.7705 10.4432 16.9303
319 2 9.6225 8.05442 11.4115
73 2 6.14697 7.37728 15.3109
318 2 9.48996 8.32744 17.3147
244 3 7.73115 9.66471 8.99698
261 2 7.91837 9.54202 16.5784
142 3 4.55327 5.86172 16.5788
282 2 9.48335 7.30756 15.889
158 1 4.00787 5.74978 10.3223
289 2 8.14638 9.35863 12.6137
288 2 7.16485 8.16147 13.7522
287 1 7.46855 9.298 13.5813
257 2 9.87426 6.22158 11.604
331 3 10.9445 5.19428 14.7394
255 2 8.72669 5.34944 12.892
74 2 7.18425 5.53373 16.812
92 2 7.11459 5.85855 9.27662
277 2 6.09761 9.2069 15.0621
190 2 4.81201 6.93677 13.1441
224 2 6.78608 7.18153 8.99452
290 2 6.62114 10.011 13.6382
187 2 4.88719 5.51225 11.0578
304 1 13.6547 0.962717 0.255982
41 4 11.2569 3.0611 8.62338
35 4 9.46626 1.88877 4.37477
37 4 11.8862 1.32905 6.21829
313 2 10.4738 2.01503 0.230497
315 2 15.1722 -0.323919 5.02793
330 2 14.7846 0.857144 0.176662
55 1 11.4606 3.59919 0.840241
26 4 8.43834 -0.676753 8.54774
65 2 9.10236 0.442174 3.47539
139 3 11.5519 1.89413 7.62286
133 3 12.096 -0.495608 6.32305
306 2 13.235 0.853414 1.27271
132 3 10.714 1.51403 5.25944
323 2 8.61659 0.13372 1.22407
131 3 13.3662 1.83016 5.64483
106 2 11.6045 2.55368 1.20373
107 2 12.1232 4.56048 2.16568
129 3 14.0772 -0.331105 8.09671
1 4 14.7769 2.19067 4.89603
2 4 15.5232 4.26629 2.57637
137 3 9.87338 3.12503 3.29436
3 1 16.0845 2.62635 6.23879
15 2 14.5921 5.84222 1.19058
51 1 18.548 5.66348 6.22259
5 1 17.5024 4.84704 2.35498
6 1 14.4816 4.73212 0.971029
175 2 12.8485 4.61658 5.07849
8 2 15.5403 3.62408 6.51775
9 2 17.1162 2.73008 5.82393
311 2 17.5587 4.55656 0.422315
296 2 10.3924 -0.261445 2.25885
176 2 13.1833 5.41854 6.80219
10 2 15.9885 1.89521 7.07555
154 1 13.448 5.36697 5.67461
12 2 17.1027 3.28642 1.98487
13 2 18.4449 4.89403 2.96108
14 2 17.5543 5.53653 1.42682
316 2 15.3469 0.321238 3.26605
16 2 13.3421 4.31305 0.978855
95 2 18.5931 5.58066 7.37301
4 1 15.6248 0.515732 4.35057
174 2 14.6572 5.33897 5.4523
170 2 15.048 4.52518 8.08938
7 2 16.3059 5.76182 3.33562
17 2 15.1716 4.31448 0.105125
18 3 14.7249 3.32455 3.6496
93 2 18.2519 4.72084 5.75036
327 2 8.6363 -1.32725 13.5052
310 2 11.4422 -0.914133 14.6217
307 1 12.5052 -1.42687 14.7536
36 4 9.94449 1.29299 10.5951
38 4 9.28281 -0.106112 16.382
39 4 12.377 -0.483913 11.2868
20 4 14.4083 0.696064 9.36756
254 2 10.4109 2.39874 13.2655
54 1 9.65902 0.103428 14.4729
253 2 11.9439 2.49761 12.2232
305 2 13.163 -0.0423573 17.2305
250 1 11.5247 2.7708 13.2337
67 2 10.1527 1.40073 15.5106
68 2 12.5998 -1.3617 12.7814
77 2 13.6551 0.858754 14.3859
252 2 12.1375 2.256 14.0326
138 3 10.37 2.63439 9.94443
309 2 13.3572 -0.726704 14.6171
136 3 11.1517 0.413232 11.3436
135 3 13.6549 0.297024 10.7259
130 3 9.04009 0.347543 9.63131
102 2 10.2844 0.115794 13.6087
104 2 9.90869 -1.48053 15.32
112 3 15.9459 0.743351 9.57766
22 4 16.7837 0.982837 11.2702
23 4 15.1289 2.34144 13.5392
71 2 12.6873 3.68589 9.25236
59 2 13.9296 2.2222 8.83003
127 3 17.4382 4.55731 16.2831
75 2 15.1496 -0.1756 15.3061
34 4 16.0796 4.2564 15.7312
126 3 15.7809 3.30596 14.5364
44 1 14.9577 0.575271 14.4724
150 4 18.2943 4.81643 11.1019
58 2 15.7809 1.26265 16.0145
60 2 13.4943 2.9846 13.25
198 3 17.0708 5.03182 10.1149
62 2 14.9219 3.8723 16.9884
114 3 15.9084 2.0659 12.1606
76 2 15.422 0.0334929 13.509
105 2 11.8428 1.83739 17.433
300 2 17.3108 11.0172 7.06838
295 1 16.9682 12.3301 1.96682
268 4 17.3048 11.8465 0.0365696
184 2 15.732 7.49758 8.3944
183 2 16.8258 6.14305 7.14887
298 1 17.4358 11.2317 8.21145
292 2 19.1225 8.66603 1.07209
234 2 16.8006 11.6693 4.76227
246 3 20.513 9.40276 4.55766
243 3 17.8967 9.71929 3.60837
208 4 20.8735 11.8451 7.06277
209 4 19.5572 10.4101 3.75601
238 2 20.0666 12.0694 2.27098
237 2 21.5749 10.6799 1.98298
236 2 19.5701 10.4188 1.39027
216 1 20.2684 10.9061 2.13591
248 3 21.9887 11.2431 5.89333
272 2 17.4654 10.6162 1.44737
222 2 20.1031 10.6158 8.0265
223 2 19.4608 11.8648 4.73342
297 2 16.4221 11.9377 2.92132
293 2 19.0094 7.05758 2.03527
144 4 13.1954 6.96364 4.7864
233 2 15.0002 11.831 4.44548
242 3 15.071 8.68188 2.77807
235 2 15.5314 10.4752 5.7197
232 2 15.8894 8.28683 6.40389
231 2 16.1846 7.03253 5.03641
291 1 18.522 7.67351 1.19653
230 2 17.8813 8.18015 5.45269
227 2 14.3802 10.9679 3.377
221 2 13.0793 7.88049 0.766753
220 2 14.3165 10.5775 0.801797
294 2 17.3888 7.78582 1.07116
214 1 16.5331 7.99057 5.4718
215 1 15.8349 11.0604 4.62637
207 4 16.4704 9.2556 4.12163
206 4 13.8531 9.20101 1.88813
199 3 14.0725 9.17973 8.1176
94 2 17.874 6.48782 5.86761
192 3 13.0214 8.07458 5.9379
157 1 15.7565 6.30009 7.72015
164 2 14.2498 7.558 3.60722
182 2 14.8606 6.1024 7.03916
299 2 18.3914 11.7844 8.54495
273 2 16.0112 10.319 15.3882
314 2 19.602 11.0961 10.4804
308 2 20.2061 10.669 14.2473
194 3 12.4051 5.26115 12.3673
179 2 14.1538 5.37602 13.9711
160 1 19.892 7.82731 13.4089
173 2 17.0998 11.1582 11.8864
185 2 19.506 6.81964 10.1233
279 3 18.5668 10.3176 17.0828
278 2 20.4343 8.2791 16.1518
189 2 19.8002 8.5776 12.4327
188 2 15.2322 9.95154 13.7808
191 2 20.3689 8.37229 14.3828
217 1 20.5942 9.61727 9.65153
239 2 20.835 8.67908 10.5154
240 2 19.4384 9.83493 9.67507
241 2 21.2314 10.5846 9.88702