ITEM: TIMESTEP
0
ITEM: NUMBER OF ATOMS
331
ITEM: BOX BOUNDS xy xz yz pp pp pp
-8.3499999999999996e+00 1.5708700000000000e+01 -8.2042000000000002e+00
-2.0055999999999998e+00 1.3086800000000000e+01 -1.4580000000000001e-01
0.0000000000000000e+00 1.7524799999999999e+01 -2.0055999999999998e+00
ITEM: ATOMS id type q x y z
1 4 1.05571 -0.763128 1.99368 4.48997
2 4 0.687496 -0.153796 4.31342 2.19687
3 1 -0.632261 0.12461 2.91861 5.92223
174 2 0.161152 -2.48394 5.39509 7.47064
5 1 -0.630301 1.74532 4.7642 3.4647
6 1 -0.588077 -1.59543 5.81438 1.79059
8 2 0.148197 0.708832 3.88594 5.61426
9 2 0.13613 0.838029 1.98769 6.12556
10 2 0.169228 -0.772661 3.04275 6.69019
11 2 0.134999 1.2914 0.296851 4.07736
12 2 0.011086 1.57531 4.01545 1.76141
13 2 0.144977 1.09158 4.33945 4.39039
14 2 0.147273 2.83561 4.86005 3.82987
263 4 0.934819 4.33274 4.32465 1.43474
16 2 0.115966 -2.5027 5.41594 2.36551
17 2 0.0252601 -1.27555 4.66731 0.611418
18 3 -0.750923 -0.735962 3.17429 3.08754
24 4 0.803218 5.00612 1.23599 4.34141
45 1 -0.661519 3.23563 2.12027 4.6917
47 1 -0.697728 3.59558 0.576372 8.43032
176 2 0.196212 -1.84291 3.89913 6.67404
7 2 0.127243 1.34445 5.79922 3.20542
78 2 0.165999 2.72213 3.08592 4.19156
79 2 0.134584 3.82401 2.38332 5.80025
80 2 0.137242 2.4825 1.30878 4.78116
46 1 -0.651526 6.25773 0.252946 0.362963
82 2 0.204836 4.09238 1.00963 7.58375
51 1 -0.639408 2.59304 5.51129 7.00779
163 2 0.0597177 -3.21657 5.10925 5.35565
154 1 -0.610334 -2.07126 4.98607 6.52168
93 2 0.208218 2.614 4.56883 7.65403
285 2 0.161025 2.52967 1.76344 0.609899
265 2 0.000532572 3.11509 3.72115 2.51003
117 3 -0.777801 5.85718 0.624282 5.54749
284 2 0.13728 0.600022 2.13214 0.959102
321 2 0.136535 5.52529 0.460204 1.29115
94 2 0.127078 2.16563 5.20035 5.90237
267 3 -0.804838 3.71706 5.615 0.74846
266 3 -0.765284 5.0264 3.17527 0.672527
96 2 0.142411 4.14774 3.93127 4.62267
4 1 -0.669055 0.173592 0.379422 3.97592
312 2 -0.0160448 3.52528 0.392468 3.84448
162 2 -0.0171601 2.61265 -0.105337 6.88846
170 2 -0.00617763 -0.681358 5.33904 7.90511
316 2 0.169378 -0.142825 0.471038 2.87074
87 2 0.189657 5.6107 2.42188 2.19114
175 2 0.0299491 -0.43651 5.64278 6.078
283 1 -0.672215 1.40333 1.79033 0.144886
15 2 0.0628755 -0.496326 6.1749 2.57617
83 2 0.157091 2.49467 0.786212 8.523
49 1 -0.684647 6.15876 2.07492 3.18564
19 4 0.765316 1.60013 1.01411 16.363
21 4 1.39817 2.45657 -1.15975 13.0224
22 4 1.41958 1.22472 1.25983 11.5574
23 4 1.0174 -0.954482 2.49783 13.5818
25 4 1.19471 6.13177 -0.0123232 17.269
27 4 1.03691 4.10945 1.50773 10.0066
29 4 1.51477 4.37834 0.481165 14.6575
150 4 1.00832 2.67895 5.21624 11.0141
81 2 0.176068 4.01068 -0.423088 8.83419
127 3 -0.740105 1.27539 4.27888 16.6058
48 1 -0.638889 5.40258 0.532793 11.0113
58 2 0.018605 0.162406 0.615647 15.4878
44 1 -0.647283 -1.50727 0.896334 14.3951
34 4 0.829492 -0.312682 4.35423 16.0838
75 2 0.184848 -0.76033 0.0835349 14.122
198 3 -0.760703 1.53848 5.35045 9.71946
311 2 0.102096 1.40096 2.74118 16.582
84 2 0.258858 5.84259 -0.35179 10.263
85 2 0.272737 4.8502 0.0758409 12.0401
171 2 0.116901 2.4963 3.53798 11.2827
112 3 -0.823977 0.545296 0.274178 10.028
113 3 -0.820573 1.60154 0.112125 12.5498
114 3 -0.800565 0.150323 2.28434 12.362
116 3 -0.78823 2.59386 1.93474 11.2485
119 3 -0.795132 4.14837 -0.593834 13.4537
120 3 -0.762958 5.55588 -0.0315289 15.7154
121 3 -0.758831 2.99733 0.72974 15.5576
122 3 -0.798529 5.01 2.69855 9.47593
125 3 -0.780411 4.91793 1.86194 14.0122
126 3 -0.810394 -0.684559 3.33451 14.9353
286 2 0.174257 0.976682 -1.14287 17.0618
59 2 -0.0266133 -0.784915 2.47142 9.48957
60 2 0.0117745 -2.51819 3.06331 12.8784
20 4 1.1622 -0.951141 0.787891 9.60973
77 2 0.158702 -1.74806 1.05463 15.4898
326 2 0.171296 7.45885 -1.09015 12.4046
62 2 -0.024731 -1.36649 4.26826 17.418
95 2 0.182609 1.93503 6.38381 7.54853
143 4 0.566481 -6.3811 11.4709 6.49519
144 4 0.668509 -1.93019 6.50939 5.29422
146 4 0.907561 -2.50636 9.23681 6.9164
294 2 0.150324 1.66242 8.29148 0.973815
300 2 0.199121 0.316171 10.0444 7.9775
231 2 0.196491 1.97826 8.20943 4.76012
322 2 0.158416 -0.772863 12.9725 0.789189
317 2 0.113326 -5.46239 9.72109 3.82678
235 2 0.174926 -1.24957 11.5265 5.1306
166 2 0.0710557 -4.12283 9.75713 7.16214
167 2 -0.0130455 -1.80397 10.5436 5.97635
169 2 -0.0183277 -6.16478 11.2087 4.79035
164 2 -0.0248675 -1.99777 6.58686 3.51459
230 2 0.138879 0.32688 8.69126 5.86074
234 2 0.198034 0.196106 10.9889 6.29745
183 2 0.170768 -0.242138 7.38433 7.56945
192 3 -0.780796 -2.33875 7.86299 6.05421
193 3 -0.767412 -5.725 10.2495 7.29296
199 3 -0.777649 -1.82269 9.09776 8.29104
206 4 0.675742 -1.78665 9.12384 1.33541
207 4 0.962811 0.396673 9.8188 3.91721
213 1 -0.626552 -3.12955 10.262 1.04355
214 1 -0.632392 0.847868 8.25705 4.78355
215 1 -0.640365 -0.147405 11.2001 5.16513
184 2 0.177381 1.50993 7.87719 8.17239
221 2 0.0111111 -2.30473 7.26381 1.18515
227 2 0.0962842 -3.96769 9.38843 1.61198
242 3 -0.718847 -0.773621 9.57043 2.5089
229 2 0.17051 -2.86377 11.2264 1.69026
157 1 -0.661928 0.511416 7.58658 8.47915
232 2 0.120083 0.288389 7.26063 4.41508
328 2 0.26948 -5.82954 8.48882 7.3716
261 2 0.187367 -6.92843 10.1312 16.3939
64 2 -0.0215695 -0.650256 5.94627 15.5107
115 3 -0.762468 -6.69187 11.0807 14.3275
145 4 0.959048 -1.86615 6.29042 12.2243
148 4 1.33584 -4.94543 9.65463 10.914
151 4 1.46155 -1.94275 10.1709 9.70369
200 3 -0.822376 -1.73064 11.685 9.13942
153 4 1.0175 0.0446523 9.79823 12.0555
155 1 -0.644927 -1.1055 7.03658 13.8765
156 1 -0.663124 -4.76353 7.97856 11.9215
274 2 0.170726 -0.740035 10.8451 16.4896
182 2 0.269278 -0.0699613 8.24854 9.26279
165 2 0.038265 -1.97691 8.08518 12.6572
149 4 1.01362 0.0930433 5.9417 9.34955
258 4 0.80531 -7.07602 9.55837 14.1548
177 2 0.171538 -0.362798 7.64371 14.3811
178 2 0.0907755 -0.535054 5.60259 13.5422
179 2 0.136203 -2.00722 6.87281 14.5733
180 2 0.175252 -3.96261 7.56194 11.2326
181 2 0.159151 -4.40383 8.03345 12.9741
220 2 -0.043658 -1.20644 7.39146 17.3165
188 2 0.0286632 -1.20516 10.3078 13.2348
194 3 -0.768625 -3.1737 5.57016 12.4902
195 3 -0.781147 -6.1249 9.41826 9.87157
196 3 -0.850078 -5.45065 10.7892 11.8663
197 3 -0.732921 -0.936718 6.06542 10.5785
147 4 1.06397 -7.0537 10.3251 8.85458
201 3 -0.828467 -3.40239 9.96086 10.31
202 3 -0.761285 2.34981 6.1452 12.3267
203 3 -0.841637 -0.757759 9.70181 10.6462
168 2 0.0846172 -7.26922 11.8358 9.62997
275 2 0.12548 -0.111954 9.07121 15.7913
204 3 -0.786612 1.06174 8.70033 12.626
260 2 -0.0043669 -5.74317 8.73524 13.4574
303 2 -0.0150722 -4.80154 6.21335 17.0893
320 2 0.175125 -2.55958 10.7499 17.0228
30 4 1.17368 3.04861 4.89526 17.4492
172 2 -0.0232971 1.62137 7.35502 14.7456
270 1 -0.65849 0.0127325 10.2384 15.7679
228 2 0.143139 -3.48874 8.43888 17.4543
28 4 1.44743 7.30173 1.16415 6.3788
31 4 1.25967 6.03439 3.45986 8.39607
35 4 1.22928 9.5521 1.94107 4.17063
37 4 1.47664 12.082 1.43135 5.93869
40 4 0.672482 10.9196 4.06609 2.49523
330 2 0.184155 13.0481 1.42341 0.475557
105 2 0.119488 12.1314 3.35943 0.636463
55 1 -0.668785 12.0402 2.80011 1.57944
56 1 -0.629742 7.93284 5.02675 5.49318
65 2 -0.0189757 9.32816 0.711973 2.99742
69 2 -0.0597731 11.7436 5.05718 3.64825
70 2 -0.0145719 10.2598 5.46306 1.48188
313 2 -0.00978289 10.444 2.27212 0.50932
89 2 0.174268 6.34818 2.96169 3.84722
296 2 0.0792136 9.07436 0.693221 0.532078
32 4 0.825166 4.3218 5.61076 6.4484
106 2 0.155289 11.5142 1.75737 1.61835
107 2 0.194307 12.9666 2.9898 2.39466
108 2 0.268426 7.99402 3.91262 5.47177
118 3 -0.81923 8.05584 -0.0425608 7.13059
123 3 -0.792351 6.79474 2.43116 7.40623
124 3 -0.754281 5.14039 4.72336 7.4948
128 3 -0.802157 8.3121 1.91101 5.23199
129 3 -0.846479 14.2997 0.242145 8.12393
131 3 -0.798208 13.4923 1.63113 5.11503
132 3 -0.830961 10.8745 1.58623 4.99109
133 3 -0.781204 11.998 -0.406375 6.48883
137 3 -0.781187 9.77237 3.31215 3.37136
139 3 -0.837657 12.0193 2.40953 7.26851
140 3 -0.800215 10.2939 4.3328 7.37088
42 4 0.778798 9.63017 5.54291 6.56896
264 2 -0.00902622 5.34963 4.83288 2.74703
26 4 1.30398 8.10797 -0.588073 8.62902
97 2 0.142596 5.86267 4.78769 4.29817
109 2 0.15432 7.03033 5.36241 4.84318
41 4 1.31212 11.0588 3.20224 8.23619
110 2 0.109356 7.67265 5.42955 6.71999
88 2 0.172152 7.08295 1.42703 3.05669
52 1 -0.667413 4.7308 5.03432 4.57311
98 2 0.145577 4.26094 5.81156 3.94594
72 2 0.00473627 9.62077 5.58997 4.78555
237 2 0.17179 12.7866 -0.326467 3.46832
315 2 0.201475 15.3613 -0.48581 4.48963
309 2 0.157414 13.6703 -1.46567 14.144
68 2 -0.00749318 12.4475 -0.742982 12.7116
33 4 0.998911 5.89386 3.19777 13.9115
36 4 1.25972 9.76441 1.36309 10.3742
38 4 0.683115 9.18321 1.06494 16.9793
39 4 0.952869 12.2648 -0.213034 11.0985
50 1 -0.658966 7.32505 4.25614 9.49925
53 1 -0.641166 7.41959 3.11348 12.4732
54 1 -0.629938 9.41862 0.18174 15.3887
306 2 0.151343 14.4507 -0.819309 16.7712
63 2 0.0401244 5.82056 3.92421 12.3002
66 2 -0.0117901 9.00088 2.30936 11.6269
67 2 0.0115506 9.39064 2.83916 17.2824
71 2 -0.00841631 12.0388 4.26687 9.13062
281 2 0.0212422 8.60424 4.47026 16.5234
327 2 0.185973 8.76106 -0.81188 13.7422
90 2 0.144864 6.97119 5.35834 9.47045
92 2 0.180729 7.4669 3.8564 10.5959
99 2 0.161845 8.255 3.87941 12.2119
100 2 0.137203 7.27036 2.18116 11.7159
101 2 0.0670134 7.81725 2.58037 13.9086
102 2 0.125267 10.6165 0.313217 15.3366
103 2 0.141792 8.74313 0.913027 14.7417
104 2 0.177618 8.95552 -0.956369 15.5384
130 3 -0.848507 8.65436 0.350245 9.72633
134 3 -0.753183 7.71628 0.512415 17.4548
135 3 -0.842215 13.6015 0.530087 10.7137
136 3 -0.856871 10.9965 0.601809 10.933
138 3 -0.857498 10.2911 2.42446 9.29236
141 3 -0.812623 5.94736 4.41884 15.0253
249 4 1.0202 10.9631 4.69093 12.9397
250 1 -0.683916 11.2391 2.78032 13.061
187 2 0.171474 4.84741 4.78337 10.604
252 2 0.151198 11.8479 2.5148 13.9356
253 2 0.188592 11.6913 2.42271 12.1261
254 2 0.144644 10.1689 2.33152 13.1363
304 1 -0.642136 13.6272 -1.38243 17.3537
256 2 0.160363 9.37093 4.23774 10.832
76 2 0.114261 13.1526 0.888209 13.6818
302 2 0.136118 11.2872 4.34729 17.045
91 2 0.199598 8.24762 4.15579 8.82328
310 2 0.163991 11.7795 -1.1636 14.2449
251 1 -0.663112 9.76428 5.09104 11.5289
301 1 -0.626916 10.2155 4.46178 17.412
86 2 0.171934 6.25921 1.3526 11.3518
222 2 0.00363959 4.77488 11.0531 8.44964
218 2 -0.0129049 9.8795 8.0854 5.63862
57 1 -0.6687 9.68117 7.32611 7.41692
61 2 0.0923127 4.65045 7.3229 6.68879
299 2 0.204066 1.57762 11.3046 7.40613
226 2 0.0867382 8.92596 8.87471 2.4577
298 1 -0.687179 0.977725 10.9161 8.20256
244 3 -0.850804 7.32031 9.60141 8.60048
248 3 -0.818712 6.04935 11.4493 6.14554
205 4 0.713098 8.48709 8.4451 4.60746
212 1 -0.631491 9.13468 9.73847 3.45372
209 4 1.02987 3.65598 10.6593 3.78463
247 3 -0.758024 4.93454 8.88048 6.99129
211 4 1.27495 5.76079 9.65395 5.59702
243 3 -0.734173 2.10055 10.3585 3.48383
216 1 -0.666801 4.33641 11.9751 2.61747
111 2 0.144783 8.57438 7.14305 7.70216
219 2 -0.017249 8.17199 6.69077 4.49533
245 3 -0.798413 7.1956 9.03302 5.24892
223 2 0.113262 3.54655 11.7567 5.13855
325 2 0.136389 10.2594 6.95753 0.784887
208 4 1.1859 5.24866 12.2381 7.26802
210 4 0.936769 6.01061 8.80897 8.55779
297 2 0.163426 2.04719 12.4222 2.03225
233 2 0.171958 0.471054 11.984 4.54237
295 1 -0.629929 1.02323 12.3926 1.50525
236 2 0.163361 5.28902 11.5903 2.10973
246 3 -0.779848 4.68113 9.53076 4.23749
238 2 0.165569 3.46218 12.3077 1.88704
292 2 0.1738 3.43821 9.02736 1.03256
161 2 0.0785692 7.60098 11.6576 6.57269
272 2 0.0698777 1.30833 10.7665 0.812489
305 2 0.148283 5.99241 12.861 0.50635
225 2 0.179491 8.62714 10.7126 3.36389
323 2 0.162824 0.224141 12.3191 2.32337
329 2 0.162082 10.4246 6.86279 8.19445
291 1 -0.647413 2.75904 8.1352 1.29106
293 2 0.19185 2.94454 7.59959 2.27969
43 4 0.92684 5.54967 5.55929 15.9651
73 2 -0.0138729 5.78018 7.05094 15.2453
255 2 0.141577 8.914 5.6579 12.0974
142 3 -0.803715 4.01887 5.55172 16.3919
74 2 -0.058836 6.62162 5.59457 17.2717
160 1 -0.664559 3.87749 8.27098 12.9862
159 1 -0.663447 0.187313 11.5777 12.8474
185 2 0.156198 4.58932 6.58564 11.3354
276 2 0.149291 5.83634 8.54996 17.0373
282 2 -0.0326664 8.81715 7.16729 15.7017
189 2 0.170255 3.59071 9.21847 12.4777
190 2 0.160458 4.46917 7.51204 12.3145
191 2 0.150791 4.11089 8.27015 14.0753
217 1 -0.639953 4.80694 9.67102 9.84642
239 2 0.122833 4.79315 8.53389 10.4237
262 2 0.137425 8.99944 8.38517 16.9182
241 2 0.137535 5.47423 10.4747 10.401
240 2 0.147904 3.7626 9.98868 9.49525
257 2 0.170392 10.3428 5.82471 10.8449
307 1 -0.641379 4.442 11.1791 14.2748
259 1 -0.64423 8.46918 9.03661 16.1583
269 4 0.895133 4.50752 10.5317 16.2741
271 1 -0.662048 5.27271 8.66259 16.1425
158 1 -0.683027 4.35312 5.82718 10.5364
318 2 0.151363 7.2765 8.90704 16.1565
277 2 0.133917 5.97074 8.8114 15.073
278 2 0.167722 4.3977 7.92061 15.9674
279 3 -0.759049 2.97051 10.3254 16.6908
280 4 0.621616 9.77638 5.69366 15.8187
186 2 0.183247 4.27051 6.21128 9.48933
268 4 0.766472 1.42251 10.1631 17.0897
287 1 -0.659099 6.95721 9.21393 13.3447
288 2 0.135952 6.65459 8.15654 13.5116
289 2 0.15424 7.35266 9.42476 12.2703
290 2 0.15001 6.00608 10.0585 13.7663
152 4 1.00036 2.14576 7.55646 13.1596
308 2 0.161032 4.23445 10.1327 13.7098
314 2 -0.0350079 3.78098 11.3638 10.3363
331 3 -0.749861 10.3923 5.20982 14.3858
273 2 0.185595 0.160127 10.7497 14.6744
324 2 0.144936 1.5683 10.8227 9.22441
319 2 0.169382 9.98551 7.34938 11.7793
224 2 -0.0369774 6.4572 7.2166 8.78586
173 2 0.110247 1.1556 11.5806 11.8417
ITEM: TIMESTEP
100
ITEM: NUMBER OF ATOMS
331
ITEM: BOX BOUNDS xy xz yz pp pp pp
-8.3499999999999996e+00 1.5708700000000000e+01 -8.2042000000000002e+00
-2.0062685333333330e+00 1.3091162266666666e+01 -1.4580000000000001e-01
0.0000000000000000e+00 1.7524799999999999e+01 -2.0062685333333330e+00
ITEM: ATOMS id type q x y z
1 4 1.06448 -0.825657 2.14092 4.4939
2 4 0.716493 -0.189822 4.31538 2.22696
3 1 -0.642723 0.128039 3.05138 5.93554
322 2 0.16054 7.33515 0.093844 1.01893
5 1 -0.618115 1.68856 4.62404 3.49366
6 1 -0.614402 -1.19443 5.9387 1.73923
8 2 0.155737 0.713223 4.07413 5.97721
9 2 0.143852 0.765661 2.03242 6.11978
10 2 0.159731 -0.719067 3.12917 6.71141
11 2 0.144422 1.40742 0.723066 4.33433
12 2 0.0332171 1.57203 3.64029 2.0628
13 2 0.156771 1.0667 4.0807 4.52244
14 2 0.144934 2.81157 4.72592 3.85877
263 4 0.960174 4.41134 4.39883 1.47914
16 2 0.125507 -2.19934 5.89448 2.14982
17 2 0.00619348 -0.799534 4.6359 0.535051
18 3 -0.759459 -0.955406 3.21378 3.09976
24 4 0.814409 5.03733 1.28284 4.36463
45 1 -0.669544 3.24577 2.10143 4.95992
47 1 -0.648282 3.33329 0.606698 8.55008
176 2 0.165815 -1.73441 4.04749 6.79342
7 2 0.116151 1.27105 5.68878 3.19118
78 2 0.169839 2.76344 2.97663 4.38881
79 2 0.156459 3.74289 2.44828 5.94772
80 2 0.123423 2.50889 1.18735 5.09392
46 1 -0.655321 6.26437 0.420591 0.547627
82 2 0.176256 3.95567 1.12623 7.63396
51 1 -0.655466 2.6572 5.38187 6.88602
163 2 0.0456166 -3.48382 5.25284 5.71171
154 1 -0.620907 -2.00984 5.18758 6.64926
93 2 0.203066 2.60801 4.35615 7.40329
285 2 0.132977 2.2044 2.26108 0.94129
265 2 -0.00783521 3.2407 3.81149 2.57126
117 3 -0.767069 5.85531 0.505371 5.43291
284 2 0.160612 0.326458 1.84614 0.55615
321 2 0.149855 5.38582 0.509864 1.26688
94 2 0.141109 2.2053 5.38476 5.80301
267 3 -0.815762 3.69633 5.48387 0.596206
266 3 -0.789781 5.11746 3.28388 0.798223
96 2 0.151596 4.17396 3.86434 4.66217
4 1 -0.671072 0.372658 0.717629 3.93872
312 2 -0.00981886 3.48796 0.649697 3.71751
162 2 -0.0217161 2.66183 -0.191685 6.87624
170 2 -0.00192559 -0.499366 5.24451 7.97581
316 2 0.179881 0.364791 0.631672 2.83483
87 2 0.191564 5.72539 2.57646 2.33275
83 2 0.177205 2.16665 0.554553 8.45009
283 1 -0.68775 1.33705 1.77447 0.211264
49 1 -0.678935 6.24622 2.0905 3.26996
174 2 0.165197 -2.25992 5.65976 7.58363
175 2 0.0481772 -0.518677 5.81335 5.98981
19 4 0.784239 1.59667 0.934542 16.3299
21 4 1.42827 2.42179 -1.12341 13.1703
22 4 1.40695 1.08995 1.12918 11.5649
23 4 1.02949 -0.894506 2.37142 13.5705
25 4 1.18786 6.07561 0.0931231 17.2597
27 4 1.06878 4.07498 1.55375 10.0091
29 4 1.51415 4.41249 0.550243 14.7937
150 4 1.05163 2.62243 5.17552 11.0035
81 2 0.156922 3.80329 -0.431093 8.93335
127 3 -0.781275 1.05901 4.26752 16.6943
48 1 -0.671166 5.21265 0.491991 11.1453
58 2 0.043601 0.42095 0.232046 15.2596
44 1 -0.666575 -1.31115 0.661043 14.4226
34 4 0.896559 -0.274943 4.33552 16.0252
75 2 0.206761 -0.558506 -0.00494044 13.9132
198 3 -0.780449 1.46672 5.15745 9.87803
311 2 0.0759286 1.29198 2.60384 16.6915
84 2 0.250688 5.64133 -0.341354 10.4277
85 2 0.279328 4.69145 0.0405769 12.1007
171 2 0.115438 2.5448 3.55667 11.632
112 3 -0.823306 0.466447 0.420307 10.0127
113 3 -0.858688 1.46699 -0.0724551 12.5235
114 3 -0.857902 0.0975229 2.00705 12.4423
116 3 -0.751055 2.57455 2.0698 10.9723
119 3 -0.78062 4.10176 -0.493565 13.6775
120 3 -0.770816 5.57363 -0.198269 15.7215
121 3 -0.794349 3.01929 0.743638 15.668
122 3 -0.786537 4.99629 2.68533 9.31552
125 3 -0.79696 5.0005 1.93967 14.0844
126 3 -0.817509 -0.490407 3.30092 14.8259
286 2 0.186912 1.43766 -1.22781 17.3096
59 2 -0.0421099 -1.12603 2.51336 9.3175
60 2 0.00866363 -2.32073 3.06421 12.7961
20 4 1.19794 -0.968917 0.855528 9.46141
77 2 0.14418 -1.2737 0.696067 15.5585
62 2 -0.00731531 -1.43889 4.10405 17.3127
86 2 0.169837 6.06787 1.23413 11.4516
95 2 0.169649 2.18457 6.23409 7.4737
143 4 0.580997 -6.28797 11.3736 6.49184
144 4 0.6949 -2.17611 6.52745 5.32812
146 4 0.919847 -2.50554 9.24955 6.87409
294 2 0.162882 1.69135 7.99239 1.22157
300 2 0.195853 0.426932 10.0088 7.7552
231 2 0.178899 1.87073 8.32872 5.47777
15 2 0.113162 -0.27452 6.51369 2.3648
317 2 0.130557 -5.39957 9.90573 3.61277
235 2 0.18517 -1.28344 11.4884 4.99321
166 2 0.045731 -4.11645 9.77172 7.11362
167 2 -0.00874855 -1.74583 10.4423 5.90411
169 2 -0.0283353 -5.90874 11.0766 4.85801
164 2 -0.0252638 -1.56059 6.24124 3.60155
230 2 0.179429 0.0329755 8.47809 5.70076
234 2 0.176528 0.218152 11.0922 6.21652
183 2 0.175781 0.17234 7.45546 7.67454
192 3 -0.804477 -2.33532 7.92149 5.97556
193 3 -0.787688 -5.80731 10.2352 7.39231
199 3 -0.832564 -1.82176 9.20272 8.24255
206 4 0.664512 -1.75325 9.17468 1.47533
207 4 1.04598 0.573859 9.83526 3.86233
213 1 -0.621964 -3.01128 10.4667 0.880935
214 1 -0.658591 0.830275 8.30901 4.97861
215 1 -0.632289 -0.179125 11.2005 5.01412
184 2 0.156635 1.88511 7.6592 8.55701
221 2 -0.0149887 -1.45111 7.54398 0.74179
227 2 -0.00801791 -3.30218 8.99901 2.16813
242 3 -0.743847 -0.639535 9.46649 2.58223
229 2 0.164657 -3.02976 11.2594 1.67335
157 1 -0.670323 0.735768 7.54699 8.64451
232 2 0.150682 0.685916 7.43733 4.31015
328 2 0.265932 -5.86267 8.40869 7.5214
228 2 0.152054 -3.99771 10.3475 0.395554
261 2 0.177479 -6.71959 10.0151 16.6627
64 2 -0.0283625 -0.620856 5.86931 15.4493
115 3 -0.767517 -6.68554 11.1805 14.5145
145 4 0.989205 -1.79799 5.91148 12.1689
148 4 1.33031 -4.99222 9.70232 11.0555
151 4 1.39035 -2.07236 10.0706 9.58374
200 3 -0.800298 -1.77178 11.6484 9.18158
153 4 1.03754 0.0444698 9.79093 12.1335
155 1 -0.635822 -1.19166 6.87622 13.7961
156 1 -0.648276 -4.9476 8.04229 12.0715
274 2 0.154418 -0.403354 11.07 16.3482
182 2 0.225868 0.369211 8.23689 9.46853
165 2 0.0844564 -1.98243 7.80539 12.6817
149 4 1.00747 0.156649 5.92923 9.4269
258 4 0.831266 -7.01218 9.64066 14.4034
177 2 0.160401 -0.385113 7.53821 14.2822
178 2 0.0653611 -0.445672 5.37766 13.3455
179 2 0.138929 -2.03049 6.59902 14.5184
180 2 0.161249 -4.13134 7.54544 11.3859
181 2 0.154888 -4.65119 7.84975 13.1879
172 2 -0.0126959 2.00522 6.95193 14.6493
188 2 0.0443803 -1.03965 10.3553 13.3998
194 3 -0.821235 -3.17463 5.25396 12.5158
195 3 -0.751093 -6.37256 9.52733 9.99245
196 3 -0.834114 -5.32516 10.8042 12.1444
197 3 -0.76216 -1.04816 6.00402 10.6375
147 4 1.06507 -7.13463 10.3731 8.84791
201 3 -0.813999 -3.62485 9.94204 10.3656
202 3 -0.775288 2.28129 6.22671 12.1952
203 3 -0.784659 -0.859627 9.68487 10.903
168 2 0.0600663 -7.2618 11.9255 9.41281
275 2 0.116307 -0.0977988 9.1899 15.6674
204 3 -0.817099 1.11296 8.73892 12.7524
260 2 0.00235401 -5.6438 8.61282 13.792
303 2 -0.0173022 -4.50081 6.16992 16.9109
320 2 0.181006 -2.40714 10.8662 17.1019
30 4 1.18181 2.92776 4.70816 17.3206
220 2 0.0668 -2.07221 8.44646 17.3231
28 4 1.48143 7.30913 1.27472 6.25486
31 4 1.27436 6.09909 3.45799 8.28031
35 4 1.27424 9.57056 2.07926 4.17785
37 4 1.47473 12.0633 1.47488 5.9221
40 4 0.703734 10.9867 4.10852 2.53844
330 2 0.197957 13.1375 1.51269 0.545185
105 2 0.0856202 11.9175 3.53029 0.548517
55 1 -0.654965 11.9857 2.81904 1.59774
56 1 -0.606428 8.06042 5.11605 5.21128
65 2 0.00754002 9.26161 0.851403 3.00045
69 2 -0.0747081 11.9712 5.05323 3.55426
70 2 -0.00374432 10.2727 5.37574 1.45348
313 2 -0.00749852 10.4318 2.4488 0.37175
89 2 0.185038 6.66912 2.97875 3.8776
296 2 0.120799 9.0496 0.582723 0.907537
32 4 0.824029 4.40994 5.64185 6.35406
106 2 0.169703 11.4004 1.84705 1.5501
107 2 0.216246 12.9542 2.91236 2.2672
108 2 0.24726 8.14517 3.99264 5.0827
118 3 -0.818406 7.90107 0.0887196 7.08162
123 3 -0.815785 6.81688 2.46743 7.34093
124 3 -0.757792 5.29329 4.77044 7.35279
128 3 -0.848635 8.24485 1.97931 5.11916
129 3 -0.825659 14.408 0.22417 8.03041
131 3 -0.814662 13.4397 1.62867 5.08768
132 3 -0.859233 10.8212 1.59697 4.91731
133 3 -0.81086 12.0009 -0.308344 6.71971
137 3 -0.813047 9.79498 3.31101 3.2115
139 3 -0.824953 11.9809 2.32036 7.2828
140 3 -0.767063 10.3708 4.36425 7.407
42 4 0.745311 9.46944 5.62414 6.73226
264 2 -0.0177227 5.3468 5.10078 2.70443
26 4 1.29881 7.99172 -0.730344 8.45176
97 2 0.140067 5.88586 4.90608 4.36484
109 2 0.12947 7.17957 5.41385 4.43271
41 4 1.24601 11.1835 3.29714 8.33116
110 2 0.086618 7.48666 5.35306 6.71969
88 2 0.176346 7.07134 1.35603 2.96682
52 1 -0.669396 4.67483 4.95195 4.51311
98 2 0.1259 4.10598 5.65604 3.83109
72 2 0.00859965 9.64468 5.77196 4.82885
315 2 0.188017 15.3886 -0.0788827 4.44816
309 2 0.166196 13.6135 -1.33945 13.9492
68 2 -0.0190711 12.4525 -0.880024 12.5764
33 4 1.04009 6.08279 3.10078 13.9744
36 4 1.29176 9.82402 1.32966 10.1554
38 4 0.712557 9.13626 1.1441 16.8551
39 4 0.970855 12.2084 -0.245159 11.0101
50 1 -0.660259 7.34489 4.1532 9.54587
53 1 -0.658543 7.47347 2.86563 12.474
54 1 -0.637824 9.56152 0.202004 15.2886
306 2 0.148648 14.2983 -0.82051 16.5778
63 2 0.0444591 6.06923 3.84886 12.25
66 2 0.00339676 8.89306 2.13525 11.3787
67 2 0.00737748 9.43285 2.91617 17.0527
159 1 -0.654558 8.44659 -1.42301 12.7977
281 2 0.0146395 8.69023 4.46317 16.5806
327 2 0.189718 8.88218 -0.865239 13.6895
90 2 0.146874 6.99446 5.23951 9.5434
92 2 0.18538 7.3964 3.65167 10.5872
99 2 0.153842 8.33879 3.59349 12.1519
100 2 0.149693 7.26487 1.91889 11.8763
101 2 0.0406346 7.86444 2.45265 14.0523
102 2 0.127493 10.7435 0.331283 15.3906
103 2 0.139777 8.96728 0.940249 14.5813
104 2 0.195625 9.07458 -0.872816 15.3944
130 3 -0.796961 8.75564 0.206995 9.47251
134 3 -0.755289 7.66756 0.762939 17.221
135 3 -0.844069 13.563 0.28578 10.4561
136 3 -0.875947 10.9473 0.589578 10.8846
138 3 -0.871099 10.2248 2.50617 9.27697
141 3 -0.83983 5.86291 4.28271 14.973
249 4 1.05951 11.09 4.65805 12.8904
250 1 -0.656925 11.4673 2.78124 12.9419
187 2 0.158721 4.79159 4.74303 10.5658
252 2 0.129694 12.0716 2.54833 13.9153
253 2 0.172071 11.974 2.41131 11.9603
254 2 0.147679 10.4033 2.35635 13.0544
304 1 -0.623735 13.5641 -1.26449 17.3472
256 2 0.17303 9.60117 4.10285 10.9276
76 2 0.12325 13.332 0.595383 13.9274
302 2 0.127202 11.3294 4.09868 17.0851
91 2 0.212677 8.31053 3.91621 8.93396
310 2 0.167206 11.7699 -1.32473 14.4849
251 1 -0.678773 9.7251 5.00636 11.531
301 1 -0.607477 10.3284 4.52021 17.4684
71 2 -0.0313586 12.2916 4.07655 9.37264
326 2 0.1831 7.56608 -0.814004 12.3781
222 2 0.00866391 4.73487 11.0846 8.36041
218 2 -0.0086565 9.72544 8.10581 5.84053
57 1 -0.67112 9.75782 7.2854 7.59289
61 2 0.0697947 4.82385 7.29326 6.42399
299 2 0.183612 1.70089 11.3034 7.25511
226 2 0.0976344 8.88305 8.98223 2.46407
298 1 -0.693658 0.989876 10.8855 8.04754
244 3 -0.805907 7.20904 9.5594 8.6778
248 3 -0.822123 6.08934 11.558 6.05139
205 4 0.705473 8.50941 8.43378 4.61462
212 1 -0.637312 9.2142 9.75061 3.47701
209 4 1.01039 3.58517 10.8628 4.06598
247 3 -0.788783 5.11184 8.83839 7.1324
211 4 1.29769 5.84043 9.72577 5.59479
243 3 -0.768326 2.07883 10.296 3.59135
216 1 -0.652634 4.15322 11.9359 2.64083
111 2 0.136794 8.6664 7.08801 8.17825
219 2 -0.0150544 8.20349 6.718 4.12837
245 3 -0.814604 7.21417 9.04768 5.21988
223 2 0.0846519 3.26915 11.8316 5.48918
325 2 0.11349 10.6453 7.30657 0.756146
225 2 0.167013 8.54434 10.7067 3.56873
210 4 0.9943 5.80063 8.75306 8.54308
297 2 0.160973 1.90411 12.5195 2.26413
233 2 0.162973 0.533085 12.0382 4.50591
295 1 -0.656565 0.947871 12.5765 1.57916
236 2 0.163658 4.76627 11.1194 2.00533
246 3 -0.799704 4.67954 9.72188 4.49145
238 2 0.175076 3.29711 12.4367 2.07153
292 2 0.158351 3.36709 8.9518 0.645503
161 2 0.0718179 7.69779 11.4675 6.4811
272 2 0.0440706 1.3985 10.8233 0.949549
293 2 0.179989 3.39567 7.64203 2.11476
291 1 -0.637395 2.83942 7.99334 1.14722
323 2 0.160001 -0.0198374 12.3373 2.11866
329 2 0.158233 10.6691 6.87171 8.21839
237 2 0.17013 4.80627 12.7115 3.25318
305 2 0.129022 6.0259 12.7761 0.460238
208 4 1.21978 5.21313 12.2562 7.19958
43 4 0.933034 5.45244 5.39901 15.9047
73 2 -0.0203166 5.95678 7.01739 15.2788
255 2 0.155416 8.72982 5.40085 11.8747
142 3 -0.797101 3.894 5.45373 16.2545
74 2 -0.0617034 6.47426 5.52902 17.2316
160 1 -0.642027 3.87577 8.39183 12.6964
173 2 0.120174 1.28707 11.6146 11.9301
185 2 0.135462 4.56171 6.77194 11.1442
276 2 0.127272 6.10929 8.57909 17.1071
282 2 -0.031915 8.95379 7.1581 15.6503
189 2 0.156264 3.3859 9.42936 12.3716
190 2 0.146846 4.59848 7.898 11.8967
191 2 0.136614 4.27014 8.3273 13.7724
217 1 -0.647243 4.45569 9.61432 9.68145
239 2 0.124219 4.32145 8.49912 10.2643
270 1 -0.651338 0.263607 10.299 15.6811
241 2 0.142861 5.10337 10.3503 10.2874
240 2 0.145381 3.45534 10.0912 9.34915
257 2 0.169808 10.3467 5.78635 10.9842
307 1 -0.651735 4.50882 11.1472 14.3035
259 1 -0.651768 8.67469 8.97871 16.2845
269 4 0.868286 4.49532 10.6388 16.2541
271 1 -0.645771 5.43261 8.71074 16.1191
158 1 -0.64371 4.26358 5.81085 10.388
318 2 0.145733 7.41835 8.87142 16.35
277 2 0.155985 6.05396 8.83339 15.1171
278 2 0.161243 4.532 8.02952 16.1744
279 3 -0.732922 2.89939 10.3831 16.737
280 4 0.626012 9.91807 5.6927 15.8125
186 2 0.170108 4.09774 6.1849 9.27803
268 4 0.757027 1.39332 9.97931 17.1444
287 1 -0.668845 7.09197 9.31176 13.4368
288 2 0.12136 6.74891 8.18643 13.5213
289 2 0.175414 7.50835 9.48943 12.4379
290 2 0.166556 6.09486 10.0292 13.7179
152 4 1.01822 2.17669 7.62284 13.077
308 2 0.156337 4.27216 10.1376 13.6587
314 2 -0.022952 3.727 11.3604 10.2539
331 3 -0.749041 10.4881 5.14923 14.4073
273 2 0.188418 0.300917 10.7091 14.5963
324 2 0.155384 1.48974 10.7835 9.08893
319 2 0.165136 9.71086 7.64465 11.8835
224 2 -0.0284076 6.11525 7.12887 8.81305
262 2 0.129097 9.20625 8.19379 16.9061
ITEM: TIMESTEP
200
ITEM: NUMBER OF ATOMS
331
ITEM: BOX BOUNDS xy xz yz pp pp pp
-1.4580000000000001e-01 2.3213200000000001e+01 7.5045000000000002e+00
-2.0069370666666666e+00 1.3095524533333334e+01 -1.4580000000000001e-01
0.0000000000000000e+00 1.7524799999999999e+01 -2.0069370666666666e+00
ITEM: ATOMS id type q x y z
49 1 -0.690713 6.29358 2.32704 3.20644
283 1 -0.668541 1.43318 1.74739 0.163207
124 3 -0.772002 5.30582 4.87042 7.48318
322 2 0.153797 7.43271 0.144263 1.13986
87 2 0.189358 5.85625 2.66484 2.18617
162 2 -0.0147489 2.64564 -0.297398 6.86901
312 2 -0.0114408 3.73784 0.602696 3.58505
96 2 0.150538 4.22727 3.94407 4.70636
266 3 -0.791445 5.12579 3.40402 0.623863
11 2 0.122812 1.22907 0.675952 4.72094
267 3 -0.820852 3.62102 5.49347 0.643703
321 2 0.146473 5.60694 0.802159 1.62343
117 3 -0.740244 5.83442 0.595175 5.61722
263 4 0.982446 4.3157 4.37491 1.39715
265 2 -0.0116626 3.25465 3.72759 2.5727
285 2 0.122827 2.08194 2.23245 1.05381
82 2 0.182737 3.36859 0.973118 7.67623
24 4 0.772477 5.13701 1.3763 4.29616
45 1 -0.656539 3.31255 2.14052 4.76817
47 1 -0.684502 3.21706 0.41803 8.6141
46 1 -0.654902 6.32904 0.637243 0.765721
80 2 0.132921 2.5382 1.29159 4.81843
78 2 0.153004 2.80717 3.12998 4.21674
79 2 0.157143 3.52741 2.40648 5.87673
28 4 1.44529 7.27517 1.25632 6.33425
31 4 1.25448 6.0079 3.50978 8.2935
72 2 0.0240659 9.65975 5.80114 4.92103
98 2 0.1307 4.39823 5.86903 3.97755
52 1 -0.665988 4.81342 5.04082 4.63998
88 2 0.179685 7.21982 1.70585 3.16014
110 2 0.0769175 7.52613 5.42259 6.78909
56 1 -0.606307 8.13789 5.07182 5.31698
109 2 0.145408 7.43798 5.37281 4.47053
97 2 0.155189 5.94699 4.93062 4.44788
70 2 -0.00426312 10.2533 5.21804 1.2116
264 2 -0.0138416 5.23896 4.98329 2.70829
42 4 0.787721 9.37541 5.6513 6.82992
140 3 -0.817169 10.1704 4.4558 7.44441
89 2 0.165908 6.40256 3.27674 3.90799
137 3 -0.782035 9.83293 3.35702 3.36843
32 4 0.817142 4.40495 5.71373 6.44001
108 2 0.278623 8.23098 3.8704 5.33087
118 3 -0.817805 7.86585 0.0427099 7.09636
123 3 -0.808386 6.71197 2.49916 7.36787
128 3 -0.816278 8.34156 2.02386 5.14068
19 4 0.793446 1.68815 1.01178 16.431
21 4 1.47427 2.54647 -1.15457 13.1678
86 2 0.174041 6.09224 1.40449 11.301
286 2 0.190372 1.67496 -1.23489 17.2274
25 4 1.18732 6.13227 0.183089 17.2452
27 4 1.05865 3.98961 1.48259 9.97672
29 4 1.46567 4.41333 0.492666 14.8096
125 3 -0.790292 5.16896 1.83129 14.1703
81 2 0.172607 4.05697 -0.466803 8.88757
122 3 -0.777112 4.78463 2.6485 9.31876
48 1 -0.689077 5.27487 0.632029 11.0085
121 3 -0.794713 3.0337 0.873425 15.6639
120 3 -0.767778 5.45733 -0.346711 15.7996
119 3 -0.807338 3.95879 -0.503154 13.4585
116 3 -0.788933 2.44769 1.96098 11.1854
113 3 -0.828046 1.5161 -0.0693508 12.4187
85 2 0.270922 4.83973 0.152658 11.9103
84 2 0.252684 5.67857 -0.156204 10.261
33 4 1.03537 6.08008 3.13767 13.8777
326 2 0.179826 7.79244 -0.546768 12.2825
38 4 0.72358 9.15222 1.26439 16.705
171 2 0.125691 2.6165 3.42967 11.7294
251 1 -0.665639 9.80547 4.82057 11.4401
50 1 -0.669148 7.39268 4.10564 9.42351
83 2 0.204445 2.16198 0.229773 8.84567
53 1 -0.655581 7.39993 2.93266 12.3818
63 2 0.0344953 5.87092 3.79991 12.1021
256 2 0.143858 9.54627 3.82389 10.9193
66 2 -0.0196333 8.88229 2.12397 11.3415
67 2 0.00610576 9.37627 2.9948 17.1225