ITEM: TIMESTEP
0
ITEM: NUMBER OF ATOMS
331
ITEM: BOX BOUNDS xy xz yz pp pp pp
-8.3499999999999996e+00 1.5708700000000000e+01 -8.2042000000000002e+00
-2.0055999999999998e+00 1.3086800000000000e+01 -1.4580000000000001e-01
0.0000000000000000e+00 1.7524799999999999e+01 -2.0055999999999998e+00
ITEM: ATOMS id type q x y z
1 4 1.05571 -0.763128 1.99368 4.48997
2 4 0.687496 -0.153796 4.31342 2.19687
3 1 -0.632261 0.12461 2.91861 5.92223
174 2 0.161152 -2.48394 5.39509 7.47064
5 1 -0.630301 1.74532 4.7642 3.4647
6 1 -0.588077 -1.59543 5.81438 1.79059
8 2 0.148197 0.708832 3.88594 5.61426
9 2 0.13613 0.838029 1.98769 6.12556
10 2 0.169228 -0.772661 3.04275 6.69019
11 2 0.134999 1.2914 0.296851 4.07736
12 2 0.011086 1.57531 4.01545 1.76141
13 2 0.144977 1.09158 4.33945 4.39039
14 2 0.147273 2.83561 4.86005 3.82987
263 4 0.934819 4.33274 4.32465 1.43474
16 2 0.115966 -2.5027 5.41594 2.36551
17 2 0.0252601 -1.27555 4.66731 0.611418
18 3 -0.750923 -0.735962 3.17429 3.08754
24 4 0.803218 5.00612 1.23599 4.34141
45 1 -0.661519 3.23563 2.12027 4.6917
47 1 -0.697728 3.59558 0.576372 8.43032
176 2 0.196212 -1.84291 3.89913 6.67404
7 2 0.127243 1.34445 5.79922 3.20542
78 2 0.165999 2.72213 3.08592 4.19156
79 2 0.134584 3.82401 2.38332 5.80025
80 2 0.137242 2.4825 1.30878 4.78116
46 1 -0.651526 6.25773 0.252946 0.362963
82 2 0.204836 4.09238 1.00963 7.58375
51 1 -0.639408 2.59304 5.51129 7.00779
163 2 0.0597177 -3.21657 5.10925 5.35565
154 1 -0.610334 -2.07126 4.98607 6.52168
93 2 0.208218 2.614 4.56883 7.65403
285 2 0.161025 2.52967 1.76344 0.609899
265 2 0.000532572 3.11509 3.72115 2.51003
117 3 -0.777801 5.85718 0.624282 5.54749
284 2 0.13728 0.600022 2.13214 0.959102
321 2 0.136535 5.52529 0.460204 1.29115
94 2 0.127078 2.16563 5.20035 5.90237
267 3 -0.804838 3.71706 5.615 0.74846
266 3 -0.765284 5.0264 3.17527 0.672527
96 2 0.142411 4.14774 3.93127 4.62267
4 1 -0.669055 0.173592 0.379422 3.97592
312 2 -0.0160448 3.52528 0.392468 3.84448
162 2 -0.0171601 2.61265 -0.105337 6.88846
170 2 -0.00617763 -0.681358 5.33904 7.90511
316 2 0.169378 -0.142825 0.471038 2.87074
87 2 0.189657 5.6107 2.42188 2.19114
175 2 0.0299491 -0.43651 5.64278 6.078
283 1 -0.672215 1.40333 1.79033 0.144886
15 2 0.0628755 -0.496326 6.1749 2.57617
83 2 0.157091 2.49467 0.786212 8.523
49 1 -0.684647 6.15876 2.07492 3.18564
19 4 0.765316 1.60013 1.01411 16.363
21 4 1.39817 2.45657 -1.15975 13.0224
22 4 1.41958 1.22472 1.25983 11.5574
23 4 1.0174 -0.954482 2.49783 13.5818
25 4 1.19471 6.13177 -0.0123232 17.269
27 4 1.03691 4.10945 1.50773 10.0066
29 4 1.51477 4.37834 0.481165 14.6575
150 4 1.00832 2.67895 5.21624 11.0141
81 2 0.176068 4.01068 -0.423088 8.83419
127 3 -0.740105 1.27539 4.27888 16.6058
48 1 -0.638889 5.40258 0.532793 11.0113
58 2 0.018605 0.162406 0.615647 15.4878
44 1 -0.647283 -1.50727 0.896334 14.3951
34 4 0.829492 -0.312682 4.35423 16.0838
75 2 0.184848 -0.76033 0.0835349 14.122
198 3 -0.760703 1.53848 5.35045 9.71946
311 2 0.102096 1.40096 2.74118 16.582
84 2 0.258858 5.84259 -0.35179 10.263
85 2 0.272737 4.8502 0.0758409 12.0401
171 2 0.116901 2.4963 3.53798 11.2827
112 3 -0.823977 0.545296 0.274178 10.028
113 3 -0.820573 1.60154 0.112125 12.5498
114 3 -0.800565 0.150323 2.28434 12.362
116 3 -0.78823 2.59386 1.93474 11.2485
119 3 -0.795132 4.14837 -0.593834 13.4537
120 3 -0.762958 5.55588 -0.0315289 15.7154
121 3 -0.758831 2.99733 0.72974 15.5576
122 3 -0.798529 5.01 2.69855 9.47593
125 3 -0.780411 4.91793 1.86194 14.0122
126 3 -0.810394 -0.684559 3.33451 14.9353
286 2 0.174257 0.976682 -1.14287 17.0618
59 2 -0.0266133 -0.784915 2.47142 9.48957
60 2 0.0117745 -2.51819 3.06331 12.8784
20 4 1.1622 -0.951141 0.787891 9.60973
77 2 0.158702 -1.74806 1.05463 15.4898
326 2 0.171296 7.45885 -1.09015 12.4046
62 2 -0.024731 -1.36649 4.26826 17.418
95 2 0.182609 1.93503 6.38381 7.54853
143 4 0.566481 -6.3811 11.4709 6.49519
144 4 0.668509 -1.93019 6.50939 5.29422
146 4 0.907561 -2.50636 9.23681 6.9164
294 2 0.150324 1.66242 8.29148 0.973815
300 2 0.199121 0.316171 10.0444 7.9775
231 2 0.196491 1.97826 8.20943 4.76012
322 2 0.158416 -0.772863 12.9725 0.789189
317 2 0.113326 -5.46239 9.72109 3.82678
235 2 0.174926 -1.24957 11.5265 5.1306
166 2 0.0710557 -4.12283 9.75713 7.16214
167 2 -0.0130455 -1.80397 10.5436 5.97635
169 2 -0.0183277 -6.16478 11.2087 4.79035
164 2 -0.0248675 -1.99777 6.58686 3.51459
230 2 0.138879 0.32688 8.69126 5.86074
234 2 0.198034 0.196106 10.9889 6.29745
183 2 0.170768 -0.242138 7.38433 7.56945
192 3 -0.780796 -2.33875 7.86299 6.05421
193 3 -0.767412 -5.725 10.2495 7.29296
199 3 -0.777649 -1.82269 9.09776 8.29104
206 4 0.675742 -1.78665 9.12384 1.33541
207 4 0.962811 0.396673 9.8188 3.91721
213 1 -0.626552 -3.12955 10.262 1.04355
214 1 -0.632392 0.847868 8.25705 4.78355
215 1 -0.640365 -0.147405 11.2001 5.16513
184 2 0.177381 1.50993 7.87719 8.17239
221 2 0.0111111 -2.30473 7.26381 1.18515
227 2 0.0962842 -3.96769 9.38843 1.61198
242 3 -0.718847 -0.773621 9.57043 2.5089
229 2 0.17051 -2.86377 11.2264 1.69026
157 1 -0.661928 0.511416 7.58658 8.47915
232 2 0.120083 0.288389 7.26063 4.41508
328 2 0.26948 -5.82954 8.48882 7.3716
261 2 0.187367 -6.92843 10.1312 16.3939
64 2 -0.0215695 -0.650256 5.94627 15.5107
115 3 -0.762468 -6.69187 11.0807 14.3275
145 4 0.959048 -1.86615 6.29042 12.2243
148 4 1.33584 -4.94543 9.65463 10.914
151 4 1.46155 -1.94275 10.1709 9.70369
200 3 -0.822376 -1.73064 11.685 9.13942
153 4 1.0175 0.0446523 9.79823 12.0555
155 1 -0.644927 -1.1055 7.03658 13.8765
156 1 -0.663124 -4.76353 7.97856 11.9215
274 2 0.170726 -0.740035 10.8451 16.4896
182 2 0.269278 -0.0699613 8.24854 9.26279
165 2 0.038265 -1.97691 8.08518 12.6572
149 4 1.01362 0.0930433 5.9417 9.34955
258 4 0.80531 -7.07602 9.55837 14.1548
177 2 0.171538 -0.362798 7.64371 14.3811
178 2 0.0907755 -0.535054 5.60259 13.5422
179 2 0.136203 -2.00722 6.87281 14.5733
180 2 0.175252 -3.96261 7.56194 11.2326
181 2 0.159151 -4.40383 8.03345 12.9741
220 2 -0.043658 -1.20644 7.39146 17.3165
188 2 0.0286632 -1.20516 10.3078 13.2348
194 3 -0.768625 -3.1737 5.57016 12.4902
195 3 -0.781147 -6.1249 9.41826 9.87157
196 3 -0.850078 -5.45065 10.7892 11.8663
197 3 -0.732921 -0.936718 6.06542 10.5785
147 4 1.06397 -7.0537 10.3251 8.85458
201 3 -0.828467 -3.40239 9.96086 10.31
202 3 -0.761285 2.34981 6.1452 12.3267
203 3 -0.841637 -0.757759 9.70181 10.6462
168 2 0.0846172 -7.26922 11.8358 9.62997
275 2 0.12548 -0.111954 9.07121 15.7913
204 3 -0.786612 1.06174 8.70033 12.626
260 2 -0.0043669 -5.74317 8.73524 13.4574
303 2 -0.0150722 -4.80154 6.21335 17.0893
320 2 0.175125 -2.55958 10.7499 17.0228
30 4 1.17368 3.04861 4.89526 17.4492
172 2 -0.0232971 1.62137 7.35502 14.7456
270 1 -0.65849 0.0127325 10.2384 15.7679
228 2 0.143139 -3.48874 8.43888 17.4543
28 4 1.44743 7.30173 1.16415 6.3788
31 4 1.25967 6.03439 3.45986 8.39607
35 4 1.22928 9.5521 1.94107 4.17063
37 4 1.47664 12.082 1.43135 5.93869
40 4 0.672482 10.9196 4.06609 2.49523
330 2 0.184155 13.0481 1.42341 0.475557
105 2 0.119488 12.1314 3.35943 0.636463
55 1 -0.668785 12.0402 2.80011 1.57944
56 1 -0.629742 7.93284 5.02675 5.49318
65 2 -0.0189757 9.32816 0.711973 2.99742
69 2 -0.0597731 11.7436 5.05718 3.64825
70 2 -0.0145719 10.2598 5.46306 1.48188
313 2 -0.00978289 10.444 2.27212 0.50932
89 2 0.174268 6.34818 2.96169 3.84722
296 2 0.0792136 9.07436 0.693221 0.532078
32 4 0.825166 4.3218 5.61076 6.4484
106 2 0.155289 11.5142 1.75737 1.61835
107 2 0.194307 12.9666 2.9898 2.39466
108 2 0.268426 7.99402 3.91262 5.47177
118 3 -0.81923 8.05584 -0.0425608 7.13059
123 3 -0.792351 6.79474 2.43116 7.40623
124 3 -0.754281 5.14039 4.72336 7.4948
128 3 -0.802157 8.3121 1.91101 5.23199
129 3 -0.846479 14.2997 0.242145 8.12393
131 3 -0.798208 13.4923 1.63113 5.11503
132 3 -0.830961 10.8745 1.58623 4.99109
133 3 -0.781204 11.998 -0.406375 6.48883
137 3 -0.781187 9.77237 3.31215 3.37136
139 3 -0.837657 12.0193 2.40953 7.26851
140 3 -0.800215 10.2939 4.3328 7.37088
42 4 0.778798 9.63017 5.54291 6.56896
264 2 -0.00902622 5.34963 4.83288 2.74703
26 4 1.30398 8.10797 -0.588073 8.62902
97 2 0.142596 5.86267 4.78769 4.29817
109 2 0.15432 7.03033 5.36241 4.84318
41 4 1.31212 11.0588 3.20224 8.23619
110 2 0.109356 7.67265 5.42955 6.71999
88 2 0.172152 7.08295 1.42703 3.05669
52 1 -0.667413 4.7308 5.03432 4.57311
98 2 0.145577 4.26094 5.81156 3.94594
72 2 0.00473627 9.62077 5.58997 4.78555
237 2 0.17179 12.7866 -0.326467 3.46832
315 2 0.201475 15.3613 -0.48581 4.48963
309 2 0.157414 13.6703 -1.46567 14.144
68 2 -0.00749318 12.4475 -0.742982 12.7116
33 4 0.998911 5.89386 3.19777 13.9115
36 4 1.25972 9.76441 1.36309 10.3742
38 4 0.683115 9.18321 1.06494 16.9793
39 4 0.952869 12.2648 -0.213034 11.0985
50 1 -0.658966 7.32505 4.25614 9.49925
53 1 -0.641166 7.41959 3.11348 12.4732
54 1 -0.629938 9.41862 0.18174 15.3887
306 2 0.151343 14.4507 -0.819309 16.7712
63 2 0.0401244 5.82056 3.92421 12.3002
66 2 -0.0117901 9.00088 2.30936 11.6269
67 2 0.0115506 9.39064 2.83916 17.2824
71 2 -0.00841631 12.0388 4.26687 9.13062
281 2 0.0212422 8.60424 4.47026 16.5234
327 2 0.185973 8.76106 -0.81188 13.7422
90 2 0.144864 6.97119 5.35834 9.47045
92 2 0.180729 7.4669 3.8564 10.5959
99 2 0.161845 8.255 3.87941 12.2119
100 2 0.137203 7.27036 2.18116 11.7159
101 2 0.0670134 7.81725 2.58037 13.9086
102 2 0.125267 10.6165 0.313217 15.3366
103 2 0.141792 8.74313 0.913027 14.7417
104 2 0.177618 8.95552 -0.956369 15.5384
130 3 -0.848507 8.65436 0.350245 9.72633
134 3 -0.753183 7.71628 0.512415 17.4548
135 3 -0.842215 13.6015 0.530087 10.7137
136 3 -0.856871 10.9965 0.601809 10.933
138 3 -0.857498 10.2911 2.42446 9.29236
141 3 -0.812623 5.94736 4.41884 15.0253
249 4 1.0202 10.9631 4.69093 12.9397
250 1 -0.683916 11.2391 2.78032 13.061
187 2 0.171474 4.84741 4.78337 10.604
252 2 0.151198 11.8479 2.5148 13.9356
253 2 0.188592 11.6913 2.42271 12.1261
254 2 0.144644 10.1689 2.33152 13.1363
304 1 -0.642136 13.6272 -1.38243 17.3537
256 2 0.160363 9.37093 4.23774 10.832
76 2 0.114261 13.1526 0.888209 13.6818
302 2 0.136118 11.2872 4.34729 17.045
91 2 0.199598 8.24762 4.15579 8.82328
310 2 0.163991 11.7795 -1.1636 14.2449
251 1 -0.663112 9.76428 5.09104 11.5289
301 1 -0.626916 10.2155 4.46178 17.412
86 2 0.171934 6.25921 1.3526 11.3518
222 2 0.00363959 4.77488 11.0531 8.44964
218 2 -0.0129049 9.8795 8.0854 5.63862
57 1 -0.6687 9.68117 7.32611 7.41692
61 2 0.0923127 4.65045 7.3229 6.68879
299 2 0.204066 1.57762 11.3046 7.40613
226 2 0.0867382 8.92596 8.87471 2.4577
298 1 -0.687179 0.977725 10.9161 8.20256
244 3 -0.850804 7.32031 9.60141 8.60048
248 3 -0.818712 6.04935 11.4493 6.14554
205 4 0.713098 8.48709 8.4451 4.60746
212 1 -0.631491 9.13468 9.73847 3.45372
209 4 1.02987 3.65598 10.6593 3.78463
247 3 -0.758024 4.93454 8.88048 6.99129
211 4 1.27495 5.76079 9.65395 5.59702
243 3 -0.734173 2.10055 10.3585 3.48383
216 1 -0.666801 4.33641 11.9751 2.61747
111 2 0.144783 8.57438 7.14305 7.70216
219 2 -0.017249 8.17199 6.69077 4.49533
245 3 -0.798413 7.1956 9.03302 5.24892
223 2 0.113262 3.54655 11.7567 5.13855
325 2 0.136389 10.2594 6.95753 0.784887
208 4 1.1859 5.24866 12.2381 7.26802
210 4 0.936769 6.01061 8.80897 8.55779
297 2 0.163426 2.04719 12.4222 2.03225
233 2 0.171958 0.471054 11.984 4.54237
295 1 -0.629929 1.02323 12.3926 1.50525
236 2 0.163361 5.28902 11.5903 2.10973
246 3 -0.779848 4.68113 9.53076 4.23749
238 2 0.165569 3.46218 12.3077 1.88704
292 2 0.1738 3.43821 9.02736 1.03256
161 2 0.0785692 7.60098 11.6576 6.57269
272 2 0.0698777 1.30833 10.7665 0.812489
305 2 0.148283 5.99241 12.861 0.50635
225 2 0.179491 8.62714 10.7126 3.36389
323 2 0.162824 0.224141 12.3191 2.32337
329 2 0.162082 10.4246 6.86279 8.19445
291 1 -0.647413 2.75904 8.1352 1.29106
293 2 0.19185 2.94454 7.59959 2.27969
43 4 0.92684 5.54967 5.55929 15.9651
73 2 -0.0138729 5.78018 7.05094 15.2453
255 2 0.141577 8.914 5.6579 12.0974
142 3 -0.803715 4.01887 5.55172 16.3919
74 2 -0.058836 6.62162 5.59457 17.2717
160 1 -0.664559 3.87749 8.27098 12.9862
159 1 -0.663447 0.187313 11.5777 12.8474
185 2 0.156198 4.58932 6.58564 11.3354
276 2 0.149291 5.83634 8.54996 17.0373
282 2 -0.0326664 8.81715 7.16729 15.7017
189 2 0.170255 3.59071 9.21847 12.4777
190 2 0.160458 4.46917 7.51204 12.3145
191 2 0.150791 4.11089 8.27015 14.0753
217 1 -0.639953 4.80694 9.67102 9.84642
239 2 0.122833 4.79315 8.53389 10.4237
262 2 0.137425 8.99944 8.38517 16.9182
241 2 0.137535 5.47423 10.4747 10.401
240 2 0.147904 3.7626 9.98868 9.49525
257 2 0.170392 10.3428 5.82471 10.8449
307 1 -0.641379 4.442 11.1791 14.2748
259 1 -0.64423 8.46918 9.03661 16.1583
269 4 0.895133 4.50752 10.5317 16.2741
271 1 -0.662048 5.27271 8.66259 16.1425
158 1 -0.683027 4.35312 5.82718 10.5364
318 2 0.151363 7.2765 8.90704 16.1565
277 2 0.133917 5.97074 8.8114 15.073
278 2 0.167722 4.3977 7.92061 15.9674
279 3 -0.759049 2.97051 10.3254 16.6908
280 4 0.621616 9.77638 5.69366 15.8187
186 2 0.183247 4.27051 6.21128 9.48933
268 4 0.766472 1.42251 10.1631 17.0897
287 1 -0.659099 6.95721 9.21393 13.3447
288 2 0.135952 6.65459 8.15654 13.5116
289 2 0.15424 7.35266 9.42476 12.2703
290 2 0.15001 6.00608 10.0585 13.7663
152 4 1.00036 2.14576 7.55646 13.1596
308 2 0.161032 4.23445 10.1327 13.7098
314 2 -0.0350079 3.78098 11.3638 10.3363
331 3 -0.749861 10.3923 5.20982 14.3858
273 2 0.185595 0.160127 10.7497 14.6744
324 2 0.144936 1.5683 10.8227 9.22441
319 2 0.169382 9.98551 7.34938 11.7793
224 2 -0.0369774 6.4572 7.2166 8.78586
173 2 0.110247 1.1556 11.5806 11.8417
ITEM: TIMESTEP
100
ITEM: NUMBER OF ATOMS
331
ITEM: BOX BOUNDS xy xz yz pp pp pp
-8.3499999999999996e+00 1.5708700000000000e+01 -8.2042000000000002e+00
-2.0055999999999998e+00 1.3086800000000000e+01 -1.4580000000000001e-01
0.0000000000000000e+00 1.7530641599999999e+01 -2.0055999999999998e+00
ITEM: ATOMS id type q x y z
1 4 1.0645 -0.82562 2.14089 4.49395
2 4 0.716504 -0.189823 4.31537 2.22697
3 1 -0.642741 0.128028 3.05133 5.93549
322 2 0.160518 7.33527 0.0938856 1.01899
5 1 -0.618127 1.68857 4.62403 3.49366
6 1 -0.614406 -1.19443 5.93869 1.73923
8 2 0.155742 0.713231 4.07406 5.97728
9 2 0.143898 0.765344 2.03241 6.11953
10 2 0.159756 -0.719191 3.12915 6.71137
11 2 0.144396 1.40728 0.722915 4.33457
12 2 0.0332222 1.57204 3.64028 2.06279
13 2 0.156782 1.06672 4.08074 4.52235
14 2 0.144933 2.81157 4.7259 3.85879
263 4 0.96018 4.41134 4.39884 1.47915
16 2 0.125504 -2.19934 5.89446 2.14983
17 2 0.00619281 -0.799522 4.6359 0.535053
18 3 -0.759431 -0.95538 3.21377 3.09972
24 4 0.814406 5.03731 1.28284 4.36464
45 1 -0.669534 3.24576 2.10144 4.95989
47 1 -0.648275 3.33329 0.606699 8.55009
176 2 0.165855 -1.73462 4.04768 6.79342
7 2 0.116151 1.27105 5.68877 3.19119
78 2 0.169843 2.76341 2.97671 4.38886
79 2 0.156454 3.74292 2.44814 5.94772
80 2 0.123415 2.50887 1.18732 5.09388
46 1 -0.655302 6.2643 0.42071 0.547751
82 2 0.176249 3.95567 1.12622 7.63393
51 1 -0.655469 2.6572 5.38187 6.88602
163 2 0.0456049 -3.48388 5.25286 5.71165
154 1 -0.620931 -2.00983 5.18756 6.64926
93 2 0.203068 2.60797 4.35615 7.4033
285 2 0.132981 2.2044 2.26107 0.94129
265 2 -0.00783368 3.24072 3.81148 2.57127
117 3 -0.767072 5.8553 0.505364 5.43291
284 2 0.160623 0.326455 1.84615 0.55615
321 2 0.149844 5.38578 0.510071 1.26714
94 2 0.141113 2.20533 5.38476 5.80303
267 3 -0.815763 3.69633 5.48387 0.596209
266 3 -0.789785 5.11744 3.28391 0.798217
96 2 0.151594 4.17395 3.86433 4.66217
4 1 -0.671084 0.372664 0.717728 3.93864
312 2 -0.00981758 3.48795 0.649676 3.71751
162 2 -0.0217215 2.66165 -0.191506 6.87626
170 2 -0.00192565 -0.499321 5.24453 7.97583
316 2 0.179896 0.365271 0.631115 2.83481
87 2 0.19156 5.72538 2.57646 2.33276
83 2 0.177215 2.16663 0.554545 8.45008
283 1 -0.687747 1.33705 1.77447 0.211264
49 1 -0.678933 6.24622 2.09051 3.26997
174 2 0.165192 -2.25993 5.65978 7.58364
175 2 0.0481744 -0.518629 5.81335 5.98978
19 4 0.78424 1.59667 0.934542 16.3299
21 4 1.42828 2.4218 -1.12343 13.1703
22 4 1.40695 1.09006 1.12922 11.565
23 4 1.02949 -0.894513 2.37143 13.5705
25 4 1.18785 6.07559 0.0931382 17.2597
27 4 1.06879 4.07499 1.55374 10.0091
29 4 1.51415 4.41249 0.550248 14.7937
150 4 1.05163 2.62243 5.17554 11.0035
81 2 0.156916 3.80328 -0.431106 8.93335
127 3 -0.781274 1.05901 4.26752 16.6943
48 1 -0.671169 5.21265 0.491991 11.1453
58 2 0.0436008 0.420943 0.232061 15.2596
44 1 -0.666576 -1.31115 0.66105 14.4226
34 4 0.896555 -0.274945 4.33552 16.0252
75 2 0.206764 -0.55851 -0.00499135 13.9132
198 3 -0.780445 1.46672 5.15744 9.87803
311 2 0.0759276 1.29198 2.60384 16.6915
84 2 0.250698 5.64134 -0.341361 10.4277
85 2 0.279325 4.69146 0.0405846 12.1007
171 2 0.115434 2.54482 3.55669 11.6321
112 3 -0.823258 0.46655 0.420298 10.0128
113 3 -0.858697 1.46701 -0.0724663 12.5236
114 3 -0.857911 0.0975316 2.00706 12.4423
116 3 -0.751066 2.57459 2.06983 10.9724
119 3 -0.780622 4.10177 -0.493564 13.6775
120 3 -0.770815 5.57363 -0.198283 15.7215
121 3 -0.794349 3.01929 0.743639 15.6679
122 3 -0.786539 4.99629 2.68533 9.31552
125 3 -0.796967 5.0005 1.93968 14.0844
126 3 -0.817513 -0.490407 3.30092 14.8259
286 2 0.186915 1.43765 -1.22781 17.3096
59 2 -0.0420931 -1.12567 2.51379 9.31866
60 2 0.00865929 -2.32073 3.06422 12.7961
20 4 1.19784 -0.968819 0.85586 9.46159
77 2 0.144177 -1.27366 0.696287 15.5584
62 2 -0.00731518 -1.43889 4.10405 17.3127
86 2 0.169831 6.06788 1.23413 11.4516
95 2 0.169648 2.18458 6.2341 7.4737
143 4 0.580911 -6.28814 11.3737 6.49182
144 4 0.694893 -2.17611 6.52745 5.32812
146 4 0.919842 -2.50553 9.24956 6.87413
294 2 0.162881 1.69135 7.99239 1.22156
300 2 0.195848 0.426939 10.0088 7.75516
231 2 0.178906 1.8707 8.32869 5.47776
15 2 0.113159 -0.274521 6.51368 2.36481
317 2 0.130532 -5.39967 9.90423 3.61397
235 2 0.185171 -1.28345 11.4884 4.99323
166 2 0.0457504 -4.11648 9.77173 7.11366
167 2 -0.00874638 -1.74581 10.4423 5.90417
169 2 -0.0282711 -5.90895 11.0757 4.85719
164 2 -0.0252666 -1.5606 6.24124 3.60157
230 2 0.179434 0.0330263 8.4781 5.70071
234 2 0.176531 0.218147 11.0922 6.2165
183 2 0.175781 0.172313 7.4555 7.67455
192 3 -0.804477 -2.33533 7.92151 5.97558
193 3 -0.787658 -5.80728 10.2351 7.3921
199 3 -0.832575 -1.82175 9.20273 8.2426
206 4 0.664497 -1.75325 9.17465 1.47532
207 4 1.04596 0.573848 9.83525 3.86232
213 1 -0.621944 -3.0113 10.4667 0.880763
214 1 -0.658612 0.830281 8.309 4.97862
215 1 -0.632295 -0.179128 11.2005 5.01413
184 2 0.15663 1.8851 7.6592 8.55699
221 2 -0.0149834 -1.45112 7.5439 0.741774
227 2 -0.00801801 -3.30225 8.99905 2.16797
242 3 -0.743848 -0.639533 9.46651 2.58221
229 2 0.164677 -3.02965 11.2595 1.67299
157 1 -0.670323 0.735763 7.547 8.64452
232 2 0.15069 0.685906 7.43736 4.3102
328 2 0.265939 -5.86268 8.40871 7.52139
228 2 0.152045 -3.99788 10.3473 0.395617
261 2 0.177482 -6.71957 10.0151 16.6627
64 2 -0.0283617 -0.620858 5.86932 15.4492
115 3 -0.767515 -6.68554 11.1804 14.5145
145 4 0.989199 -1.79797 5.91148 12.1689
148 4 1.33031 -4.99221 9.70232 11.0555
151 4 1.39037 -2.07229 10.0706 9.58379
200 3 -0.800291 -1.77177 11.6484 9.1816
153 4 1.03763 0.0444639 9.79127 12.1336
155 1 -0.635825 -1.19163 6.87625 13.7961
156 1 -0.648272 -4.9476 8.04229 12.0715
274 2 0.154408 -0.4034 11.0698 16.3477
182 2 0.225858 0.369235 8.23691 9.46856
165 2 0.0844677 -1.98226 7.80545 12.6817
149 4 1.00746 0.156652 5.92923 9.4269
258 4 0.83127 -7.01218 9.64066 14.4034
177 2 0.160394 -0.38506 7.53816 14.2822
178 2 0.0653507 -0.445703 5.3776 13.3455
179 2 0.138934 -2.03051 6.59908 14.5183
180 2 0.161249 -4.13133 7.54544 11.3859
181 2 0.154891 -4.65119 7.84975 13.1879
172 2 -0.0126944 2.00513 6.95199 14.6492
188 2 0.0442982 -1.04019 10.3542 13.3997
194 3 -0.82123 -3.17463 5.25399 12.5158
195 3 -0.751085 -6.37255 9.52733 9.99244
196 3 -0.834112 -5.32516 10.8042 12.1444
197 3 -0.762169 -1.04817 6.00401 10.6375
147 4 1.065 -7.1346 10.3731 8.8479
201 3 -0.813993 -3.62481 9.94204 10.3656
202 3 -0.775293 2.28125 6.22677 12.1952
203 3 -0.784657 -0.859588 9.685 10.9031
168 2 0.0600539 -7.26181 11.9255 9.41276
275 2 0.11632 -0.0976154 9.19 15.667
204 3 -0.817084 1.11291 8.7393 12.7524
260 2 0.00235432 -5.64381 8.61282 13.792
303 2 -0.0173003 -4.50081 6.16996 16.9109
320 2 0.180998 -2.40733 10.8662 17.1022
30 4 1.18182 2.92776 4.70816 17.3206
220 2 0.0667874 -2.07198 8.44659 17.323
28 4 1.48144 7.3091 1.27471 6.25489
31 4 1.27436 6.09908 3.45799 8.28031
35 4 1.27421 9.57044 2.07929 4.17778
37 4 1.47481 12.0632 1.47507 5.92209
40 4 0.703735 10.9867 4.10855 2.53843
330 2 0.197975 13.1377 1.51269 0.545354
105 2 0.0856225 11.9175 3.53026 0.548488
55 1 -0.654961 11.9857 2.81906 1.59773
56 1 -0.606432 8.06041 5.11608 5.21126
65 2 0.00754326 9.26151 0.851439 3.0003
69 2 -0.0747081 11.9712 5.05324 3.55428
70 2 -0.00374486 10.2727 5.3758 1.45347
313 2 -0.0074934 10.4318 2.44878 0.371813
89 2 0.185039 6.66915 2.97876 3.87755
296 2 0.120799 9.04952 0.582748 0.907475
32 4 0.824045 4.40994 5.64184 6.35406
106 2 0.169714 11.4004 1.84706 1.55007
107 2 0.216255 12.9542 2.91235 2.26717
108 2 0.247255 8.14514 3.99266 5.08272
118 3 -0.818411 7.90106 0.0887125 7.08163
123 3 -0.815793 6.81688 2.46743 7.34094
124 3 -0.757792 5.29329 4.77044 7.35279
128 3 -0.848634 8.24478 1.97934 5.11919
129 3 -0.825509 14.4084 0.225334 8.03016
131 3 -0.814649 13.4397 1.6288 5.08761
132 3 -0.859198 10.8211 1.59703 4.91714
133 3 -0.810798 12.0009 -0.307817 6.71965
137 3 -0.81304 9.79495 3.31106 3.21144
139 3 -0.824965 11.9809 2.32051 7.28272
140 3 -0.767068 10.3708 4.36432 7.40705
42 4 0.745318 9.46944 5.62414 6.73226
264 2 -0.0177217 5.3468 5.10079 2.70443
26 4 1.29882 7.99172 -0.730356 8.45177
97 2 0.14007 5.88585 4.90608 4.36484
109 2 0.129477 7.17959 5.41388 4.43271
41 4 1.24601 11.1835 3.29719 8.3312
110 2 0.0866158 7.48667 5.35312 6.71969
88 2 0.176342 7.07133 1.35603 2.96681
52 1 -0.669396 4.67483 4.95195 4.51311
98 2 0.125903 4.10597 5.65604 3.83108
72 2 0.00860308 9.6447 5.7719 4.82881
315 2 0.188007 15.3884 -0.0784497 4.44814
309 2 0.166191 13.6134 -1.33945 13.9491
68 2 -0.0190713 12.4525 -0.880107 12.5765
33 4 1.04009 6.08279 3.10078 13.9744
36 4 1.29177 9.82398 1.32968 10.1554
38 4 0.712548 9.13627 1.14413 16.8551
39 4 0.970823 12.2083 -0.245133 11.0101
50 1 -0.660258 7.34489 4.1532 9.54587
53 1 -0.658542 7.47345 2.86564 12.474
54 1 -0.637813 9.56161 0.202122 15.2886
306 2 0.148675 14.2981 -0.820371 16.578
63 2 0.0444606 6.06923 3.84886 12.25
66 2 0.00340718 8.89304 2.13524 11.3788
67 2 0.00738121 9.43285 2.91624 17.0529
159 1 -0.654421 8.44648 -1.42268 12.7974
281 2 0.0146346 8.69024 4.46321 16.5806
327 2 0.189705 8.88183 -0.865784 13.6895
90 2 0.146877 6.99445 5.23951 9.5434
92 2 0.185378 7.3964 3.65167 10.5872
99 2 0.153841 8.33878 3.59349 12.152
100 2 0.149688 7.26485 1.91891 11.8763
101 2 0.0406333 7.86444 2.45265 14.0523
102 2 0.1275 10.7436 0.331388 15.3908
103 2 0.139782 8.96743 0.94046 14.5814
104 2 0.195619 9.07474 -0.872693 15.3943
130 3 -0.796952 8.75563 0.206989 9.47251
134 3 -0.75529 7.66755 0.76294 17.221
135 3 -0.844075 13.5629 0.285746 10.456
136 3 -0.875923 10.9473 0.58965 10.8847
138 3 -0.871107 10.2248 2.5062 9.277
141 3 -0.83983 5.86291 4.28272 14.973
249 4 1.05951 11.09 4.65805 12.8904
250 1 -0.656924 11.4673 2.78124 12.9419
187 2 0.158724 4.79161 4.74303 10.5658
252 2 0.129694 12.0716 2.54834 13.9153
253 2 0.172077 11.9741 2.41128 11.9603
254 2 0.147689 10.4033 2.35637 13.0543
304 1 -0.6237 13.5641 -1.26438 17.3472
256 2 0.173032 9.60116 4.10285 10.9276
76 2 0.123252 13.332 0.595375 13.9274
302 2 0.127202 11.3294 4.09875 17.0851
91 2 0.212681 8.31053 3.91621 8.93396
310 2 0.167212 11.7699 -1.32474 14.4849
251 1 -0.678773 9.7251 5.00636 11.531
301 1 -0.60748 10.3285 4.52024 17.4684
71 2 -0.0313596 12.2916 4.07658 9.37267
326 2 0.183085 7.56582 -0.812717 12.3787
222 2 0.00861957 4.73579 11.0847 8.35993
218 2 -0.00865926 9.72523 8.1058 5.84049
57 1 -0.671115 9.75782 7.28541 7.59292
61 2 0.0697686 4.82394 7.29311 6.42368
299 2 0.183595 1.70092 11.3034 7.25514
226 2 0.0978014 8.88234 8.98382 2.46404
298 1 -0.693658 0.989874 10.8855 8.04754
244 3 -0.805909 7.20905 9.55942 8.67778
248 3 -0.822233 6.08919 11.5584 6.0516
205 4 0.705434 8.50931 8.43368 4.61464
212 1 -0.637372 9.21434 9.75066 3.47711
209 4 1.01031 3.58523 10.8629 4.06615
247 3 -0.788793 5.11193 8.83852 7.13227
211 4 1.29766 5.84047 9.72601 5.59491
243 3 -0.768282 2.07884 10.296 3.59138
216 1 -0.652586 4.15322 11.9359 2.64076
111 2 0.136803 8.66641 7.088 8.17826
219 2 -0.0150685 8.2036 6.718 4.12824
245 3 -0.81457 7.21416 9.0478 5.21994
223 2 0.0845969 3.26917 11.831 5.48965
325 2 0.113489 10.6453 7.30659 0.756154
225 2 0.166961 8.54625 10.7078 3.57048
210 4 0.994341 5.80054 8.75327 8.54296
297 2 0.160988 1.90413 12.5193 2.26406
233 2 0.162984 0.533044 12.0382 4.50595
295 1 -0.656568 0.94788 12.5765 1.57906
236 2 0.163664 4.76639 11.1194 2.00509
246 3 -0.79965 4.67961 9.72187 4.49145
238 2 0.17509 3.29719 12.4368 2.07153
292 2 0.158359 3.36709 8.9518 0.64551
161 2 0.0717906 7.69751 11.4676 6.48168
272 2 0.0440653 1.39838 10.8233 0.949415
293 2 0.179998 3.39566 7.64204 2.11476
291 1 -0.637391 2.83941 7.99334 1.14722
323 2 0.159998 -0.0197828 12.3372 2.11862
329 2 0.158236 10.6691 6.87172 8.2184
237 2 0.170121 4.80603 12.7111 3.25372
305 2 0.128963 6.02599 12.7756 0.460067
208 4 1.21961 5.2133 12.2566 7.19946
43 4 0.933034 5.45244 5.39902 15.9047
73 2 -0.0203158 5.95675 7.0174 15.2789
255 2 0.155418 8.72983 5.40086 11.8747
142 3 -0.797101 3.894 5.45373 16.2545
74 2 -0.0617038 6.47425 5.52903 17.2316
160 1 -0.641981 3.87575 8.39187 12.6964
173 2 0.120057 1.28799 11.6142 11.9293
185 2 0.135454 4.56183 6.77196 11.1441
276 2 0.127268 6.1093 8.57914 17.1071
282 2 -0.0319163 8.95379 7.1581 15.6503
189 2 0.156262 3.38581 9.42941 12.3716
190 2 0.146832 4.59847 7.89797 11.8967
191 2 0.136596 4.27024 8.32734 13.7725
217 1 -0.647204 4.45557 9.61458 9.68108
239 2 0.124195 4.32199 8.49957 10.2647
270 1 -0.651275 0.263854 10.2991 15.6808
241 2 0.142797 5.10286 10.3515 10.2866
240 2 0.145391 3.45489 10.0908 9.34869
257 2 0.169808 10.3467 5.78635 10.9842
307 1 -0.651728 4.50881 11.1472 14.3035
259 1 -0.651769 8.67468 8.97871 16.2845
269 4 0.868283 4.49533 10.6388 16.2541
271 1 -0.645774 5.4326 8.71078 16.1191
158 1 -0.643702 4.26357 5.81084 10.388
318 2 0.145736 7.41836 8.87145 16.35
277 2 0.155985 6.05395 8.83344 15.1171
278 2 0.161241 4.53199 8.02953 16.1744
279 3 -0.732911 2.89937 10.3831 16.7371
280 4 0.626014 9.91807 5.69271 15.8125
186 2 0.170114 4.09774 6.18486 9.278
268 4 0.757035 1.3933 9.97936 17.1443
287 1 -0.668848 7.09198 9.31175 13.4368
288 2 0.12136 6.74893 8.18642 13.5213
289 2 0.175422 7.50831 9.48944 12.4379
290 2 0.166558 6.09486 10.0292 13.7179
152 4 1.01817 2.1766 7.62292 13.0769
308 2 0.15634 4.27213 10.1376 13.6587
314 2 -0.0229524 3.72666 11.3605 10.254
331 3 -0.749038 10.4881 5.14923 14.4073
273 2 0.188336 0.30097 10.7096 14.5957
324 2 0.155381 1.4897 10.7835 9.08895
319 2 0.165138 9.71085 7.64466 11.8835
224 2 -0.0283924 6.11494 7.12902 8.81302
262 2 0.129096 9.20621 8.19378 16.9061
ITEM: TIMESTEP
200
ITEM: NUMBER OF ATOMS
331
ITEM: BOX BOUNDS xy xz yz pp pp pp
-8.3499999999999996e+00 1.5708700000000000e+01 -8.2042000000000002e+00
-2.0055999999999998e+00 1.3086800000000000e+01 -1.4580000000000001e-01
0.0000000000000000e+00 1.7536483199999999e+01 -2.0055999999999998e+00
ITEM: ATOMS id type q x y z
1 4 1.02862 -0.881577 2.25798 4.62379
2 4 0.696226 -0.167224 4.48815 2.29537
3 1 -0.657603 0.0663896 3.23813 5.9797
322 2 0.153497 7.43837 0.141959 1.13967
5 1 -0.648571 1.83184 4.79622 3.45296
6 1 -0.589839 -1.3048 6.03991 1.62914
8 2 0.157149 0.274802 4.26529 5.65623
9 2 0.155215 0.950535 2.51009 5.99097
10 2 0.163847 -0.541922 3.1385 6.96648
11 2 0.122818 1.22894 0.676926 4.71952
12 2 0.016419 1.62479 4.05751 1.84045
13 2 0.146905 1.22624 4.29603 4.33813
14 2 0.145175 2.92582 4.84781 3.8958
263 4 0.981677 4.31578 4.3748 1.39391
16 2 0.128321 -2.26383 5.61036 2.01729
17 2 0.000991603 -0.814915 4.54674 0.648011
18 3 -0.747367 -0.982948 3.44545 3.15417
24 4 0.772422 5.13693 1.37621 4.29524
45 1 -0.656506 3.31259 2.14114 4.76756
47 1 -0.684924 3.21741 0.419349 8.61525
176 2 0.220705 -1.89985 4.00236 6.84538
7 2 0.141527 1.49599 5.82185 3.30968
78 2 0.152876 2.80695 3.13047 4.21482
79 2 0.1572 3.52832 2.40736 5.87585
80 2 0.132845 2.53851 1.29214 4.8184
46 1 -0.651936 6.32895 0.632646 0.765192
82 2 0.183026 3.36823 0.97201 7.67795
51 1 -0.67745 2.6041 5.52976 6.92098
163 2 0.070181 -3.34923 5.0047 5.45246
154 1 -0.614203 -2.13287 5.04339 6.63295
93 2 0.209694 2.54904 4.65915 7.586
285 2 0.123375 2.08913 2.22875 1.04625
265 2 -0.0118418 3.2526 3.72801 2.56773
117 3 -0.740275 5.8345 0.595781 5.61715
284 2 0.137325 0.25841 1.78609 0.411966
321 2 0.147527 5.60846 0.800227 1.61739
94 2 0.147422 2.14474 5.2997 5.87484
267 3 -0.821057 3.62152 5.49268 0.638119
266 3 -0.791563 5.12884 3.40323 0.620492
96 2 0.150608 4.228 3.94456 4.70606
4 1 -0.656115 0.273185 0.810063 4.05853
312 2 -0.0113222 3.73569 0.602716 3.58502
162 2 -0.0148089 2.6482 -0.29605 6.86904
170 2 -0.00365563 -0.716867 5.06927 7.99947
316 2 0.166409 0.545981 1.04503 2.98081
87 2 0.188979 5.8535 2.66629 2.18576
175 2 0.0444108 -0.643049 5.8217 6.26412
283 1 -0.668344 1.43402 1.74778 0.161217
174 2 0.160588 -2.59577 5.45205 7.53354
19 4 0.793126 1.68829 1.01305 16.432
21 4 1.47313 2.54689 -1.1536 13.1691
22 4 1.45615 1.12147 1.19155 11.5169
23 4 1.05452 -0.861203 2.35343 13.5169
25 4 1.18784 6.13239 0.186799 17.2489
27 4 1.05891 3.9898 1.48355 9.97773
29 4 1.46577 4.41314 0.493186 14.8108
150 4 0.994918 2.63536 5.07422 11.1422
81 2 0.172718 4.05361 -0.466353 8.88753
127 3 -0.773036 1.08727 4.21047 16.512
48 1 -0.689131 5.27488 0.633678 11.0091
58 2 0.0166419 0.25085 0.760505 15.4854
44 1 -0.649151 -1.38372 0.687803 14.42
34 4 0.911057 -0.349378 4.23575 15.91
75 2 0.184951 -0.580666 -0.063026 14.183
198 3 -0.716843 1.38673 5.08325 9.82573
311 2 0.099396 1.39671 2.69465 16.5522
84 2 0.2526 5.6798 -0.153929 10.2619
85 2 0.270419 4.83985 0.152894 11.9111
171 2 0.125768 2.61679 3.43156 11.7314
112 3 -0.812098 0.382061 0.439069 9.92117
113 3 -0.82712 1.51584 -0.066025 12.4187
114 3 -0.861915 0.0733166 2.13823 12.2708
116 3 -0.788358 2.44796 1.96329 11.1864
119 3 -0.80774 3.95979 -0.502818 13.4584
120 3 -0.768807 5.4564 -0.34253 15.8048