ITEM: TIMESTEP
0
ITEM: NUMBER OF ATOMS
331
ITEM: BOX BOUNDS xy xz yz pp pp pp
-8.3499999999999996e+00 1.5708700000000000e+01 -8.2042000000000002e+00
-2.0055999999999998e+00 1.3086800000000000e+01 -1.4580000000000001e-01
0.0000000000000000e+00 1.7524799999999999e+01 -2.0055999999999998e+00
ITEM: ATOMS id type q x y z
1 4 1.07749 -1.38065 2.17098 4.28118
2 4 0.722516 0.0198527 4.59582 2.52851
3 1 -0.661464 0.183318 1.81033 5.58807
6 1 -0.613054 -0.400663 4.8018 0.531529
8 2 0.155467 0.655956 2.82957 5.86138
9 2 0.116951 0.862998 1.1933 4.92584
10 2 0.212775 -0.153148 1.2255 6.49988
18 3 -0.759236 -0.770405 3.39292 3.20016
175 2 0.022546 -2.34052 5.09042 6.10617
15 2 -0.00807219 -1.05765 5.93379 1.86194
17 2 0.120768 0.909117 4.65689 0.50185
7 2 0.0176459 1.03832 5.58342 3.64739
16 2 0.168633 -1.00517 3.93356 0.328787
182 2 0.153981 -0.850922 5.55516 7.67309
83 2 0.197781 1.47854 0.824637 8.47689
62 2 -0.00600076 -1.01718 6.50881 0.203914
284 2 0.125895 1.9031 0.309115 0.0909422
94 2 0.151031 2.2673 5.01543 5.27178
117 3 -0.779386 5.8669 1.06364 5.09664
51 1 -0.643503 2.71029 5.38645 6.24952
322 2 0.141138 7.24429 0.200109 0.881703
312 2 0.0263342 3.12052 0.171991 4.29747
93 2 0.181815 2.46407 4.65981 7.13139
87 2 0.146203 3.19318 -0.0765604 2.08398
12 2 0.135777 2.00414 3.0767 2.91055
47 1 -0.664192 2.59148 0.871395 8.20028
89 2 0.0356331 4.41021 1.87133 2.40919
5 1 -0.655338 2.17312 4.26071 2.87541
13 2 0.129401 2.52499 4.69298 3.91609
81 2 0.108567 3.23765 -0.103695 8.1747
321 2 0.172422 5.24681 0.55235 1.28517
162 2 -0.0251504 2.81643 -0.0233449 6.45144
265 2 -0.0421471 4.14048 3.6696 2.57437
46 1 -0.644831 6.12998 0.596765 0.463869
311 2 -0.0293875 2.27705 3.31672 1.13189
14 2 0.162396 2.82316 4.69693 2.03648
24 4 0.802631 4.50815 1.49732 4.39019
45 1 -0.663644 3.39789 2.52262 5.53114
49 1 -0.623551 3.96955 0.293708 2.85064
78 2 0.143212 3.61984 3.49811 4.92696
79 2 0.204144 3.86313 2.57694 6.56946
80 2 0.137994 2.16703 2.17211 5.48915
82 2 0.172552 2.88233 1.55748 7.20916
22 4 1.50114 1.17175 1.13196 11.6909
23 4 1.04608 -0.587132 2.26002 14.0947
44 1 -0.673294 -0.856426 0.607858 14.9149
20 4 1.23753 -1.22802 0.874615 9.70155
60 2 0.00187971 -2.11991 2.88323 13.4577
75 2 0.214171 0.183184 0.178874 14.944
112 3 -0.844114 0.15517 1.12235 10.4145
113 3 -0.843864 1.59231 -0.387088 12.123
114 3 -0.801512 0.393257 2.01769 12.8079
126 3 -0.78105 -0.215171 3.29647 15.2335
286 2 0.148131 -0.159171 -1.10841 17.0911
283 1 -0.665381 1.08962 -1.10873 16.8329
285 2 0.279261 1.18327 -1.54962 15.7225
34 4 0.956039 0.156191 4.34916 16.4458
58 2 0.0225007 0.236509 1.24818 17.1302
168 2 0.000148199 1.66792 -0.685057 9.02158
77 2 0.159461 -1.35541 0.710263 15.9095
170 2 -0.00698595 -0.147581 4.13448 8.88919
59 2 -0.0394091 -1.87216 2.33961 9.31862
127 3 -0.765472 1.63042 4.56372 16.9618
27 4 1.00159 3.71564 1.44559 9.85394
48 1 -0.667201 4.93937 0.252898 10.572
29 4 1.54877 4.04883 0.929852 14.9741
150 4 1.05867 2.93632 5.12992 11.4777
19 4 0.737047 1.8504 0.523072 17.174
84 2 0.211611 6.00223 0.554647 10.3257
85 2 0.201797 4.6207 -0.65107 9.96613
119 3 -0.817686 3.42585 -0.150336 13.9171
86 2 0.212377 4.76861 0.132882 11.674
120 3 -0.811255 5.16415 0.250003 15.9004
116 3 -0.767264 2.56352 2.0193 11.2777
125 3 -0.803877 4.7104 2.33687 14.3103
121 3 -0.748044 2.81636 1.14452 15.9332
171 2 0.120135 3.24501 3.39732 11.8398
122 3 -0.772859 4.7556 2.54802 9.09215
21 4 1.49445 2.57342 -1.19393 13.0832
25 4 1.28458 6.18154 0.272314 17.1394
143 4 0.614181 -6.18478 11.5489 6.14994
144 4 0.65645 -2.3673 6.56489 5.07237
146 4 0.928795 -2.65795 9.20122 6.94575
317 2 0.111543 -5.34529 9.69941 3.9799
166 2 0.0832144 -4.29547 9.33158 7.23229
169 2 -0.00595865 -5.80486 11.4469 4.42784
193 3 -0.783875 -5.65461 10.3661 6.93351
213 1 -0.626986 -3.12936 9.69497 1.24511
227 2 0.153447 -4.19049 9.64675 0.867304
228 2 0.05821 -2.72722 11.2833 0.961731
192 3 -0.781973 -2.57021 7.93479 5.96838
229 2 0.161496 -3.17714 9.53674 2.33496
167 2 0.0105445 -2.37127 10.7458 6.07236
147 4 1.08413 -6.49358 10.728 8.61133
163 2 0.0115536 -3.62115 6.43242 3.67739
88 2 0.156561 -3.31721 12.6787 2.90642
212 1 -0.622486 -6.28496 10.0131 3.14997
225 2 0.144044 -6.74804 11.1295 3.08078
161 2 0.0962904 -7.88986 11.835 6.12108
221 2 0.0170562 -2.24812 8.3715 0.506364
233 2 0.162611 -0.139364 10.906 5.92137
207 4 1.0595 0.43868 9.63954 3.72452
294 2 0.175451 1.85196 8.18066 1.65484
30 4 1.18526 3.33182 6.99658 0.10624
300 2 0.168065 0.640038 10.0802 7.41873
235 2 0.181746 -1.22134 11.5221 4.37856
215 1 -0.652729 -0.834259 10.6136 4.90988
214 1 -0.661277 0.47825 7.74823 3.98719
184 2 0.189993 0.0563508 7.12994 8.47947
199 3 -0.813194 -1.86989 9.02505 8.2939
231 2 0.174617 1.52599 7.38386 3.96467
164 2 -0.0257102 -0.706475 6.28221 4.53309
95 2 0.133226 2.33951 6.47476 6.51765
230 2 0.134697 0.0456263 7.92556 5.16565
234 2 0.143538 -1.57236 9.69844 5.00522
206 4 0.682389 -1.2964 10.0231 0.970688
232 2 0.120053 -0.228934 7.26428 3.27831
242 3 -0.763909 -0.343275 9.9181 2.20578
157 1 -0.65915 0.0959039 5.94652 8.1379
297 2 0.146242 -0.153257 12.4193 1.53855
183 2 0.166582 1.1079 5.70081 7.47823
115 3 -0.755389 -6.85712 10.9169 14.1594
148 4 1.30788 -4.4923 9.76206 10.9871
156 1 -0.671794 -4.83756 8.01669 11.6566
180 2 0.169382 -3.85567 7.53483 11.3159
181 2 0.154961 -4.90297 8.09702 12.8234
195 3 -0.817863 -5.47513 10.0881 9.72314
196 3 -0.819824 -4.75973 10.9185 12.2606
201 3 -0.830561 -2.9704 9.88429 10.5572
320 2 0.15891 -2.44251 11.0594 17.0352
303 2 0.0445244 -4.66332 5.88027 16.8467
194 3 -0.795988 -3.24742 5.12692 12.732
275 2 0.147671 -0.314549 8.41509 15.3874
149 4 1.04748 0.28936 5.44574 9.94412
197 3 -0.794816 -0.82487 5.71881 11.0874
64 2 -0.0232088 -0.487296 5.88493 15.9377
198 3 -0.779191 1.80643 5.49599 10.4216
151 4 1.45863 -1.65899 9.89566 9.63993
153 4 1.04238 0.603173 9.80596 11.676
270 1 -0.630132 0.568455 9.02431 15.6756
159 1 -0.682258 -0.384429 10.9788 12.8792
155 1 -0.64663 -1.05485 6.53788 14.1303
177 2 0.150479 -0.248609 7.34743 14.5027
188 2 0.169159 -0.476804 10.1423 13.6558
179 2 0.139409 -1.85189 6.33477 14.9473
200 3 -0.783575 -1.52071 11.5876 9.04716
220 2 -0.0268086 -0.845169 8.3636 16.875
203 3 -0.811473 -0.32121 9.44836 10.4245
145 4 0.972502 -1.72615 5.89843 12.4505
165 2 0.0489731 -1.86121 7.68111 12.8974
202 3 -0.740111 2.61826 5.98745 12.8267
178 2 0.12457 -0.352018 5.29184 13.8245
326 2 0.198396 -1.36608 11.1643 12.3373
28 4 1.49886 7.17517 1.39209 6.14715
31 4 1.27183 5.75112 3.53691 8.22999
98 2 0.188734 6.53756 5.18671 4.87461
118 3 -0.822477 7.57311 0.257204 7.10705
123 3 -0.758116 6.67395 2.66344 7.18505
124 3 -0.779169 5.08033 4.86958 7.39234
128 3 -0.798661 8.39542 1.87972 5.1429
264 2 -0.0158378 5.97886 5.01858 2.88672
26 4 1.30752 8.00911 -0.72947 8.39267
97 2 0.11439 4.67971 5.05626 4.30373
323 2 0.158091 9.41641 0.738996 1.54662
52 1 -0.661518 5.58527 5.70798 4.72245
35 4 1.19449 9.52093 1.27498 4.27126
65 2 0.00138827 8.77526 0.199295 3.23823
266 3 -0.817066 5.93087 3.41919 0.782104
263 4 0.923629 5.08941 4.47794 1.52587
108 2 0.18743 8.77653 5.33687 5.88111
267 3 -0.779236 4.29206 5.62044 0.782541
315 2 0.137115 14.3073 0.00883256 3.60366
154 1 -0.626853 11.7808 5.36636 5.02683
139 3 -0.853481 11.1587 2.70855 7.03163
330 2 0.156802 12.852 1.4505 0.636771
208 4 1.22575 13.7682 -0.638828 7.31743
70 2 0.0318804 10.1591 4.07866 1.01372
41 4 1.30408 10.8124 3.27638 8.41087
176 2 0.230804 12.3533 4.38199 5.01597
133 3 -0.840151 12.8063 0.53935 6.78776
4 1 -0.659021 13.5696 0.851384 3.19352
316 2 0.181904 12.4792 0.771103 3.61417
137 3 -0.782402 10.1804 2.54535 3.37494
140 3 -0.795643 10.0054 4.72801 8.34001
37 4 1.43911 11.9052 1.69618 6.09326
40 4 0.749004 10.817 3.76611 2.69353
55 1 -0.632982 11.7719 3.45092 1.04811
69 2 0.0125683 10.6596 5.37792 3.60957
11 2 0.1726 13.6367 0.810405 2.01358
106 2 0.160393 11.8223 2.33514 0.981891
107 2 0.0779518 12.6869 3.84492 2.52139
325 2 0.134943 10.4354 6.40996 0.79217
131 3 -0.802136 13.071 2.61431 5.13157
132 3 -0.803539 10.7691 0.579271 5.17605
105 2 0.150695 12.3723 3.87862 0.187472
174 2 0.191784 11.2112 5.60385 5.92088
305 2 0.123884 14.3152 0.0230367 0.539809
129 3 -0.854901 14.7464 0.0998805 8.32656
33 4 1.02139 5.88573 3.3192 14.1015
38 4 0.68599 9.22411 0.518609 15.9402
50 1 -0.646623 6.89461 4.08355 9.60733
53 1 -0.641905 7.29493 2.88385 12.6511
63 2 0.060617 5.98203 3.73863 12.2404
66 2 -0.0194388 8.57174 1.83858 11.5432
67 2 0.0481624 9.22235 2.10823 14.8659
91 2 0.207849 7.87535 3.69977 9.04291
92 2 0.16994 7.00056 3.65081 10.7883
99 2 0.162213 8.28942 3.42725 12.3555
100 2 0.153066 7.16601 1.82099 12.2888
101 2 0.0478748 7.5392 2.48975 14.4152
130 3 -0.836209 8.82668 0.114624 9.52908
134 3 -0.778397 7.77241 0.367798 16.5799
54 1 -0.625573 9.0629 0.638394 13.9555
103 2 0.161026 7.89653 0.421697 13.963
187 2 0.172818 5.36462 5.20492 10.4147
90 2 0.155741 6.82633 5.24324 9.58549
141 3 -0.806996 5.94329 4.7751 14.9718
256 2 0.162767 9.51544 3.56375 11.3186
327 2 0.177446 8.24496 -1.144 13.324
102 2 0.180462 9.35587 0.798369 12.8878
281 2 0.0278576 8.8361 3.89685 16.6962
301 1 -0.640729 10.3564 4.40506 17.2319
76 2 0.156199 14.2169 0.0547016 14.1416
331 3 -0.771408 10.4232 4.81116 14.4028
254 2 0.174671 10.6283 1.76742 13.5507
310 2 0.161804 12.5989 -0.452181 14.5443
313 2 -0.00948735 10.431 0.999415 17.0929
252 2 0.135036 12.3354 2.4628 14.3336
36 4 1.26095 9.62421 1.1292 10.3695
39 4 0.93049 12.036 -0.534062 11.022
257 2 0.179512 10.4667 5.06424 10.9057
302 2 0.165316 11.0173 3.59694 16.9133
104 2 0.0386489 9.83421 -0.814694 14.7249
135 3 -0.868873 13.346 0.141991 10.575
136 3 -0.838572 10.7202 0.398265 11.2121
138 3 -0.848813 10.2985 2.24368 9.40465
253 2 0.173521 12.247 2.14199 12.4351
250 1 -0.657828 11.7048 2.41926 13.3819
251 1 -0.678023 9.8975 4.48788 11.6911
249 4 1.11495 11.2339 4.29167 13.1152
306 2 0.143162 14.3152 -0.206755 17.1466
71 2 -0.0280145 12.3298 3.67435 8.99762
304 1 -0.638081 13.5796 -1.04195 17.4993
307 1 -0.641622 12.5337 -1.53834 14.445
61 2 0.0353087 4.56942 7.42768 7.0855
237 2 0.154595 4.93893 11.8501 2.39233
209 4 0.982639 3.57368 10.8546 4.00272
216 1 -0.692559 4.36913 10.8915 2.27162
222 2 -0.0246419 4.65285 11.3213 8.22798
296 2 0.151883 1.64838 11.8765 1.96551
236 2 0.170289 5.10476 10.0203 2.27722
238 2 0.171001 3.59855 10.9551 1.49905
243 3 -0.747956 1.91909 10.2086 3.8428
246 3 -0.810605 4.37354 9.84926 4.93938
292 2 0.193738 3.46567 9.14471 1.74152
298 1 -0.684541 1.0359 11.1344 7.56065
324 2 0.150932 1.95688 11.1696 8.21367
291 1 -0.653372 2.97909 8.07065 1.57734
295 1 -0.681843 0.955375 12.6901 1.39747
32 4 0.861962 4.54851 5.90614 6.39928
223 2 0.0869829 3.42657 12.4401 4.57413
299 2 0.181667 1.18917 11.7219 6.5156
293 2 0.153608 3.42986 7.29237 2.37028
96 2 0.149757 5.69628 6.78707 4.34222
56 1 -0.628631 8.41818 6.30516 6.35755
205 4 0.721149 8.32717 8.73175 3.92896
247 3 -0.819884 5.85439 9.00498 7.00894
226 2 0.11963 9.4882 9.52738 2.0963
211 4 1.33727 5.79605 9.87486 5.63318
245 3 -0.77732 7.14297 9.38563 4.62536
42 4 0.802359 9.1469 6.0693 8.15537
109 2 0.163077 7.631 6.73413 5.63614
210 4 1.00249 6.49606 9.121 8.50132
248 3 -0.811255 6.22767 11.7192 6.04838
218 2 0.0130753 9.0563 7.70566 5.16664
219 2 -0.0623111 7.95756 7.60738 2.69316
72 2 0.0514025 9.76141 7.27955 6.7958
110 2 0.0709365 7.35084 5.84614 7.71931
244 3 -0.829333 7.81872 9.98625 8.57418
142 3 -0.773214 4.21142 5.9192 16.6214
160 1 -0.65102 3.93714 8.50038 13.3997
204 3 -0.798992 1.4358 8.71868 12.4898
185 2 0.159302 4.86296 6.44768 11.7397
189 2 0.159072 4.10953 9.66112 13.7689
190 2 0.144899 4.25592 8.30647 12.2912
191 2 0.153416 4.44129 7.79744 14.1906
217 1 -0.692549 5.0571 9.92055 9.5988
239 2 0.129216 5.19539 9.13988 10.422
268 4 0.75726 1.54984 9.97931 17.2576
269 4 0.887244 4.57263 10.7193 16.3288
278 2 0.189028 4.76 8.17508 16.6192
279 3 -0.755639 3.03701 10.3679 16.7819
308 2 0.141776 3.26308 11.2321 14.0236
314 2 -0.0352449 3.6015 11.1863 10.0295
158 1 -0.691981 4.55028 5.88631 10.853
173 2 0.0101046 1.26514 11.3842 11.8843
186 2 0.171917 4.20531 6.60322 10.0793
309 2 0.14648 5.15386 11.0625 13.7209
152 4 0.998796 2.30713 7.60802 13.3347
241 2 0.166282 5.50549 10.9598 9.80498
274 2 0.0454031 0.138261 10.6832 16.2495
240 2 0.145158 4.05086 9.9362 9.12052
273 2 0.159575 1.25882 9.30024 14.7603
172 2 0.0233317 1.94248 7.79207 15.0844
68 2 -0.014205 4.01089 11.6406 12.4901
272 2 0.0366517 1.39707 8.12828 17.0358
319 2 0.163249 9.91142 7.53024 11.1465
289 2 0.175324 6.2471 11.3333 12.5633
261 2 0.141045 8.01508 8.42193 15.2216
276 2 0.133808 6.46422 9.05877 17.077
258 4 0.786018 8.08454 9.67662 13.3139
328 2 0.142122 9.13621 7.71535 9.64942
259 1 -0.674337 8.12212 7.91363 14.1598
262 2 0.147411 9.1344 7.37161 13.919
329 2 0.167618 9.06761 5.94378 10.6169
57 1 -0.653539 8.43457 6.80252 9.95814
271 1 -0.646581 5.53097 9.01885 16.3776
224 2 -0.0125911 6.81509 7.5139 9.10565
43 4 0.944182 5.66382 5.78954 16.0944
73 2 -0.0044057 6.17038 7.3078 15.6322
111 2 0.128 7.60452 7.21344 10.6456
277 2 0.128679 5.82705 9.20005 15.2088
280 4 0.676878 9.70283 5.32915 15.683
287 1 -0.674434 6.46254 10.2266 12.4073
288 2 0.150809 6.88748 10.0115 11.3509
74 2 -0.0627277 6.68457 5.42545 17.4067
290 2 0.151976 5.56786 9.52604 12.6678
318 2 0.145131 7.20529 7.3941 13.7965
282 2 -0.0305706 8.78313 6.83679 15.6753
260 2 0.0124256 9.14927 8.66512 12.3656
255 2 0.160836 9.14294 5.14965 12.2674
ITEM: TIMESTEP
100
ITEM: NUMBER OF ATOMS
331
ITEM: BOX BOUNDS xy xz yz pp pp pp
-8.3149503999999990e+00 1.5708700000000000e+01 -8.1691503999999995e+00
-2.0055999999999998e+00 1.3086800000000000e+01 -1.4580000000000001e-01
0.0000000000000000e+00 1.7524799999999999e+01 -2.0055999999999998e+00
ITEM: ATOMS id type q x y z
1 4 1.12252 -1.38572 2.33749 4.25478
2 4 0.692559 -0.0635076 4.68296 2.41194
3 1 -0.654161 0.178899 1.67211 5.27435
6 1 -0.600623 -0.56002 4.93018 0.368359
8 2 0.151217 0.590434 2.67776 5.7157
9 2 0.120894 0.811954 1.22967 4.3853
10 2 0.202685 -0.0743025 0.905063 6.07942
18 3 -0.782913 -0.794329 3.48456 3.28201
175 2 0.0416123 -2.3213 5.07076 5.99545
15 2 0.00286338 -1.27764 5.94579 1.65294
17 2 0.0677393 0.952999 4.55002 0.642872
7 2 0.0198794 0.953823 5.61514 3.52147
80 2 0.149437 2.16042 2.21675 5.37859
79 2 0.190784 3.82755 2.37822 6.44646
83 2 0.194227 1.28791 0.73561 8.07903
82 2 0.16659 2.75345 1.55871 7.40692
284 2 0.138066 1.77737 0.178435 0.0921521
94 2 0.147751 2.26859 5.47057 5.00357
117 3 -0.795993 5.79699 1.06029 5.13014
51 1 -0.648255 2.50654 5.59738 6.12662
322 2 0.167778 7.25665 0.22737 0.91115
312 2 0.0627522 3.0477 -0.00305561 3.70341
93 2 0.181298 2.18316 4.76202 6.81024
87 2 0.151709 3.53071 0.392352 1.71414
12 2 0.158736 1.84367 3.12149 3.01772
47 1 -0.665258 2.41172 0.804668 8.18766
89 2 0.0213538 4.74732 2.03721 2.65119
5 1 -0.662425 2.1088 4.18976 2.83113
13 2 0.1378 2.44225 4.6908 3.82795
81 2 0.0910023 3.0542 -0.2537 8.25866
321 2 0.168896 5.44462 0.591445 1.28753
162 2 -0.0253154 2.73537 0.00610214 6.39924
265 2 -0.0263824 4.05031 3.65338 2.61149
46 1 -0.669752 6.29559 0.646163 0.50281
311 2 -0.0285289 2.14081 2.91487 1.33006
14 2 0.171536 2.68497 4.43331 1.94413
24 4 0.800039 4.47969 1.45509 4.39803
45 1 -0.67217 3.35513 2.50967 5.44201
49 1 -0.648731 3.99468 0.386871 2.70694
78 2 0.138441 3.66754 3.49622 4.87177
22 4 1.49345 1.2037 1.27102 11.6005
23 4 1.05493 -0.504891 2.22933 14.0341
44 1 -0.672581 -0.804587 0.50482 14.6728
20 4 1.22436 -1.16706 0.905808 9.49874
60 2 0.00163719 -2.02867 2.73362 13.3461
75 2 0.210142 0.214984 0.0427549 14.606
112 3 -0.854687 0.0204659 1.26077 10.4968
113 3 -0.835448 1.54329 -0.316348 12.022
114 3 -0.796757 0.696099 2.03922 12.9522
126 3 -0.78891 -0.242946 3.2021 15.2091
286 2 0.151373 -0.177569 -1.14285 17.0736
283 1 -0.675398 1.0057 -1.23479 16.8436
285 2 0.27815 1.17106 -1.5555 15.7258
34 4 0.941852 0.0999659 4.2161 16.4725
58 2 0.0115228 0.117515 1.30144 17.3178
25 4 1.26805 6.21726 0.327743 17.1631
77 2 0.145511 -1.26155 0.392697 15.7523
170 2 0.00360171 -0.213628 4.2239 8.87096
59 2 -0.0262549 -1.67433 2.38308 8.91825
168 2 0.0296089 1.40514 -0.728631 8.99714
27 4 1.00438 3.77108 1.35972 9.73112
48 1 -0.665513 4.75422 -0.0348193 10.4532
29 4 1.50499 4.08476 0.803155 15.0022
150 4 0.975963 2.89966 5.1893 11.4898
19 4 0.765273 1.65663 0.387423 17.1903
84 2 0.194509 5.90881 0.306537 10.3318
85 2 0.168202 4.37538 -0.849316 9.68335
119 3 -0.813286 3.60632 -0.231026 13.8271
86 2 0.225082 4.41007 -0.205601 11.5284
120 3 -0.782624 5.29427 0.182329 15.8553
116 3 -0.778758 2.5592 2.01234 11.0761
125 3 -0.773634 4.7707 2.15021 14.3038
121 3 -0.760643 2.72832 0.797317 16.0935
171 2 0.120712 2.96264 3.49434 11.6344
122 3 -0.802678 4.8223 2.53639 9.11517
21 4 1.48796 2.51074 -1.07853 13.1124
16 2 0.160955 -1.41159 2.11546 17.4671
194 3 -0.788232 -3.08118 5.00558 12.7407
127 3 -0.781026 1.66036 4.58538 17.0045
143 4 0.581882 -6.13886 11.559 6.11608
144 4 0.685685 -2.44396 6.66797 5.11115
146 4 0.953332 -2.83535 9.08298 7.06011
317 2 0.11164 -5.27409 9.52405 3.68478
166 2 0.0750398 -4.39537 9.41383 7.57808
169 2 -0.0178103 -5.66061 11.1814 4.53585
193 3 -0.785412 -5.70633 10.404 7.17953
213 1 -0.623202 -3.10268 9.57985 1.21707
227 2 0.16014 -4.09351 9.86825 0.798884
228 2 0.0463795 -2.64263 11.2824 1.0888
192 3 -0.805001 -2.75581 7.89065 6.04121
229 2 0.154951 -3.15069 9.22869 2.29677
167 2 -0.00177203 -2.4758 10.434 6.15993
182 2 0.154464 -1.04389 5.70935 7.65765
163 2 0.00321463 -3.57613 6.53533 3.65429
88 2 0.158474 -3.37643 12.7507 2.69859
212 1 -0.599177 -6.24442 9.97104 3.07869
157 1 -0.665143 -0.071101 6.05847 8.15399
183 2 0.177922 0.898483 5.93108 7.41545
221 2 0.0329903 -2.40374 8.37602 0.357635
233 2 0.188983 -0.15281 10.6865 6.01802
207 4 1.0769 0.429991 9.74153 3.61595
294 2 0.172998 1.74085 8.09208 1.46036
161 2 0.0935625 -7.82178 11.7495 5.87782
300 2 0.179997 0.718804 9.99369 7.66416
235 2 0.190477 -1.39678 11.3253 4.84718
215 1 -0.673464 -0.785799 10.4607 5.05729
214 1 -0.63387 0.780101 7.8999 3.95181
184 2 0.200818 -0.151367 7.26337 8.45214
199 3 -0.792729 -1.86701 8.90661 8.20907
231 2 0.182201 1.91317 7.69623 4.01846
164 2 -0.036636 -1.00959 6.95323 4.17787
95 2 0.127565 2.40728 6.78434 6.561
230 2 0.135922 0.138925 7.9972 4.99419
234 2 0.161282 -1.39014 9.57428 5.2012
206 4 0.6788 -1.28364 9.91678 0.931219
232 2 0.122065 0.255957 7.59874 2.89762
242 3 -0.794715 -0.394497 9.8424 2.2473
225 2 0.154451 -6.35818 11.1192 2.97172
30 4 1.18352 3.2619 6.99948 0.0367361
297 2 0.169522 -0.140858 12.1937 2.02825
62 2 -0.0204746 -1.02876 6.74662 0.113469
115 3 -0.751848 -6.75627 10.9071 14.1611
148 4 1.32351 -4.4816 9.90795 11.1234
156 1 -0.645187 -4.81377 8.09776 11.6644
180 2 0.16175 -3.73596 7.66783 11.3707
181 2 0.161043 -4.92715 8.07625 12.8037
195 3 -0.842075 -5.56554 10.208 9.93605
196 3 -0.799547 -4.84504 10.8393 12.4876
201 3 -0.83014 -3.00653 9.85022 10.5078
320 2 0.168556 -2.39673 11.0953 17.128
303 2 0.0462074 -4.96841 6.15006 17.1237
272 2 0.0315343 1.22344 8.08869 16.8435
275 2 0.127887 -0.532808 8.83942 15.3278
149 4 1.04184 0.186303 5.57807 9.91373
197 3 -0.814863 -0.844001 5.65993 11.1241
64 2 -0.00389828 -0.57699 5.66248 15.6993
198 3 -0.741947 1.81144 5.55134 10.3235
151 4 1.40159 -1.63493 9.98395 9.55093
153 4 1.03287 0.59737 9.71479 11.7498
270 1 -0.624954 0.544831 9.26619 15.7366
159 1 -0.670882 -0.455749 10.9212 12.7897
155 1 -0.63929 -1.1987 6.74378 14.1761
177 2 0.158495 -0.63918 7.68003 14.5802
188 2 0.156267 -0.739805 10.0626 13.6007
179 2 0.150316 -2.12217 6.56016 14.8096
200 3 -0.827793 -1.4033 11.4827 8.8911
220 2 -0.0159333 -0.638492 8.6332 17.0944
203 3 -0.783189 -0.224559 9.49601 10.384
145 4 1.00979 -1.69477 5.80221 12.4771
165 2 0.0504806 -1.97068 7.60449 12.7467
202 3 -0.730279 2.39837 6.20183 12.9779
178 2 0.113622 -0.29072 5.54243 13.9825
326 2 0.20179 -1.31727 11.1483 12.1201
147 4 1.15945 -6.55848 10.6816 8.80458
28 4 1.49717 7.15146 1.38077 6.17016
31 4 1.3035 5.81248 3.39418 8.27265
98 2 0.159591 5.8718 4.5527 4.70722
118 3 -0.828532 7.52283 0.0906053 6.91062
123 3 -0.795955 6.719 2.52099 7.28246
124 3 -0.768794 5.08757 4.76411 7.41863
128 3 -0.80975 8.5208 1.94885 5.34961
264 2 -0.0205414 6.04998 5.34745 2.88005
26 4 1.31371 7.99733 -0.696026 8.2655
97 2 0.103431 4.45361 5.76677 4.16336
323 2 0.146549 9.32057 0.437151 1.26914
52 1 -0.641682 5.49955 5.64678 4.79253
35 4 1.25063 9.57273 1.53938 4.27985
65 2 0.0126869 8.81663 0.39894 3.2112
266 3 -0.79786 5.90138 3.5594 0.829516
263 4 0.949144 5.109 4.59531 1.66999
108 2 0.189253 8.64338 5.16434 5.6626
267 3 -0.774371 4.31954 5.62861 0.998179
315 2 0.1682 14.7979 0.240631 3.56872
154 1 -0.626531 11.8023 5.3301 4.98291
139 3 -0.854228 11.3561 2.67636 7.21381
330 2 0.170049 12.9604 1.54586 0.782663
208 4 1.18533 13.6999 -0.568317 7.10632
70 2 0.0229116 10.088 4.11803 0.853591
41 4 1.28547 10.9562 3.39488 8.52289
176 2 0.241605 12.2522 4.26509 4.98607
133 3 -0.871181 12.5713 0.504869 6.96622
4 1 -0.65879 13.8352 0.846483 3.25352
316 2 0.163557 12.871 0.292285 3.66775
137 3 -0.85148 10.1422 2.58638 3.34407
140 3 -0.799613 10.1254 4.78535 8.18599
37 4 1.46227 11.9056 1.7048 6.19959
40 4 0.749627 10.8365 3.66235 2.50283
55 1 -0.642203 11.7761 3.37337 0.886805
69 2 0.00984553 10.8996 5.28223 3.4264
11 2 0.176091 13.8704 1.02614 2.11644
106 2 0.146248 11.7652 2.19493 0.761691
107 2 0.0757187 12.7816 3.61995 2.293
129 3 -0.836647 14.852 0.00677987 8.161
131 3 -0.807366 13.1676 2.69567 5.27067
132 3 -0.787913 10.8556 0.70938 5.04126
105 2 0.154263 12.2698 3.82871 0.00990892
174 2 0.191523 11.1097 5.54972 5.80057
305 2 0.121915 14.4413 0.184191 0.549442
304 1 -0.654388 13.7703 1.16501 0.067646
32 4 0.838844 4.40208 5.75631 6.44306
110 2 0.111613 7.18195 5.5165 7.39895
33 4 1.01515 5.8577 3.3434 14.0267
38 4 0.705937 9.16911 0.552348 15.9555
50 1 -0.655523 7.07482 4.00439 9.55186
53 1 -0.641412 7.37283 3.02718 12.6378
63 2 0.0425532 5.86731 3.75589 12.2032
66 2 -0.00963007 8.64864 1.98664 11.5279
67 2 0.0489868 9.25572 2.04748 14.7745
91 2 0.212844 8.07043 3.66573 9.03158
92 2 0.169201 7.09755 3.6258 10.7096
99 2 0.153511 8.3404 3.61411 12.1676
100 2 0.155571 7.23023 2.00201 12.252
101 2 0.056669 7.68748 2.8112 14.2949
130 3 -0.808206 8.78307 0.322632 9.441
134 3 -0.786913 7.76986 0.478387 16.6112
54 1 -0.641778 9.18646 0.519888 13.9877
103 2 0.166096 7.99853 0.458781 13.9455
187 2 0.171639 5.43754 4.85462 10.5475
90 2 0.149102 6.89975 5.14817 9.48499
141 3 -0.80389 5.75501 4.61396 14.9782
256 2 0.184626 9.49961 3.96755 10.7433
327 2 0.173379 8.25029 -1.19638 13.2719
102 2 0.191388 9.61187 0.655789 12.971
281 2 0.022359 8.73217 3.78625 16.8895
255 2 0.149096 9.17463 5.04348 12.3611
76 2 0.134975 14.1768 0.216748 13.8486
331 3 -0.735967 10.4057 4.68836 14.4794
254 2 0.177672 10.7983 1.6636 13.6353
310 2 0.129751 12.802 -0.489276 14.9277
313 2 -0.00732461 10.4265 0.496315 17.1977
252 2 0.143362 12.335 2.57522 14.4182
36 4 1.26371 9.69309 1.19542 10.3672
39 4 0.954901 12.1455 -0.398358 11.1112
68 2 -0.0200394 12.6385 -1.00213 12.6569
302 2 0.160075 11.0301 3.85879 17.2147
104 2 0.041674 9.72816 -0.8862 14.863
135 3 -0.845106 13.2952 0.26093 10.3193
136 3 -0.849276 10.7896 0.348637 11.2243
138 3 -0.842989 10.3442 2.35043 9.54256
253 2 0.16657 12.3166 1.98226 12.532
250 1 -0.657023 11.7537 2.33293 13.4343
251 1 -0.676036 9.96272 4.63577 11.5629
249 4 1.0278 11.1984 4.20512 13.0583
306 2 0.139909 14.224 -0.0308579 17.0921
71 2 -0.0249059 12.3602 3.94887 9.26215
61 2 0.0679199 5.31443 7.13079 5.99516
237 2 0.144895 4.44162 11.9411 2.29152
209 4 1.01834 3.49847 10.7635 4.04524
216 1 -0.659605 4.23789 10.7932 2.27971
222 2 0.00171784 4.65656 11.2545 8.00481
296 2 0.17094 1.81294 11.9608 2.05039
236 2 0.179193 5.14121 10.135 2.4187
238 2 0.156833 3.7256 10.4404 1.28793
243 3 -0.783619 1.97761 10.3704 3.80703
246 3 -0.797512 4.59595 9.85542 4.90533
292 2 0.185264 3.39634 9.08201 1.70745
298 1 -0.683899 1.07676 11.0932 7.63563
324 2 0.158433 1.90329 11.3289 8.35315
291 1 -0.648158 2.84271 8.02122 1.54077
295 1 -0.682061 0.876673 12.4833 1.55553
72 2 0.021127 9.65027 7.1178 6.55801
223 2 0.0867196 3.40467 12.3814 4.59377
299 2 0.183353 1.2991 11.4932 6.59398
244 3 -0.841561 7.75275 10.0741 8.73387
96 2 0.14945 6.31804 6.43392 4.54171
56 1 -0.631926 8.15805 6.03689 6.19532
205 4 0.696936 8.41993 8.55935 3.93377
247 3 -0.811776 5.85413 9.15243 7.05178
219 2 -0.0448888 7.79042 7.94462 2.52175
211 4 1.31136 5.96213 10.0377 5.66729
245 3 -0.748699 7.31122 9.25864 4.71338
42 4 0.793224 9.11836 6.00269 7.91503
109 2 0.167322 7.53239 6.68881 5.54161
210 4 0.99317 6.47607 9.09885 8.52171
248 3 -0.813059 6.28941 11.883 5.71478
218 2 -0.0179991 9.03831 7.1547 4.82501
293 2 0.162738 3.17617 7.19883 2.34876
226 2 0.104602 9.27782 9.38859 1.96051
325 2 0.130296 10.2592 6.66274 1.08407
142 3 -0.775534 4.09583 5.89988 16.5189
160 1 -0.676255 4.09274 8.44313 13.4416
204 3 -0.790213 1.46058 8.6369 12.5768
185 2 0.12855 4.92106 6.18137 11.8471
189 2 0.174724 4.18592 9.51714 13.8113
190 2 0.149621 4.28679 8.32094 12.315
191 2 0.139057 4.58185 7.54696 14.0951
217 1 -0.660569 4.94574 9.9191 9.45149
239 2 0.113231 4.82593 8.92237 10.1351
268 4 0.746748 1.61211 9.9207 17.3241
269 4 0.880167 4.57683 10.8534 16.4248
278 2 0.175906 4.80787 8.35306 16.7175
279 3 -0.766351 3.081 10.4605 16.9134
308 2 0.157806 3.34583 11.3755 14.1641
314 2 -0.0148049 3.72717 11.0911 10.4886
158 1 -0.67617 4.56828 5.63269 10.8567
173 2 0.017221 1.22668 11.3474 11.9165
186 2 0.17555 4.35207 6.34204 10.0105
309 2 0.157354 5.18775 11.0762 13.7795
152 4 1.04624 2.39079 7.65049 13.491
241 2 0.171313 5.57662 10.7518 9.93185
290 2 0.155249 5.62162 9.56216 12.7902
172 2 0.0125921 1.97117 8.03495 15.1444
273 2 0.158912 1.22647 9.54381 14.8775
282 2 -0.0253011 8.36929 6.52104 15.6847
260 2 0.0158998 9.1783 8.56819 12.476
74 2 -0.0630662 6.64394 5.54597 17.3146
319 2 0.163824 9.98729 7.61694 10.988
289 2 0.174274 6.52697 11.3482 12.7047
261 2 0.142006 7.95078 8.47934 15.4207
276 2 0.148401 6.48675 9.10762 17.0689
258 4 0.791206 8.13756 9.62111 13.424
328 2 0.128752 9.46294 7.69148 9.28861
259 1 -0.670772 7.9803 7.89468 14.3724
262 2 0.147482 8.95031 7.36075 14.1807
329 2 0.180257 9.11237 5.99846 10.3094
57 1 -0.65302 8.59396 6.88873 9.73139
271 1 -0.654952 5.58391 9.12922 16.42
318 2 0.128687 7.00045 7.39232 13.9447
43 4 0.909634 5.57592 5.79207 16.0563
73 2 -0.00627583 6.06656 7.37288 15.5864
111 2 0.136144 8.02607 7.41524 10.5513
277 2 0.151241 5.74641 9.11442 15.28
280 4 0.644716 9.59202 5.15996 15.8593
287 1 -0.671738 6.553 10.228 12.4525
288 2 0.154898 6.9603 9.96921 11.4073
257 2 0.171339 10.7345 5.4024 11.1647
224 2 -0.00976978 6.9334 7.4606 8.91521
274 2 0.0574322 0.231454 10.8673 16.3743
301 1 -0.640117 10.2133 4.5474 17.489
307 1 -0.648259 4.37268 11.4175 14.5262
240 2 0.155884 4.06695 10.155 8.76614
ITEM: TIMESTEP
200
ITEM: NUMBER OF ATOMS
331
ITEM: BOX BOUNDS xy xz yz pp pp pp
-1.4580000000000001e-01 2.3283299200000002e+01 7.5745991999999998e+00
-2.0055999999999998e+00 1.3086800000000000e+01 -1.4580000000000001e-01
0.0000000000000000e+00 1.7524799999999999e+01 -2.0055999999999998e+00
ITEM: ATOMS id type q x y z
78 2 0.116668 3.72545 3.60573 4.74461
49 1 -0.636664 4.06547 0.380431 2.77278
45 1 -0.658476 3.44172 2.62746 5.50109
24 4 0.782009 4.585 1.56838 4.31855
70 2 0.0468558 10.1926 4.17852 0.58836
311 2 -0.0262346 2.05867 3.08941 1.23233
46 1 -0.666803 6.28684 0.621936 0.498928
265 2 -0.0317496 4.01794 4.05547 2.87697
162 2 -0.0272206 2.62505 -0.191445 6.28656
321 2 0.178207 5.52931 0.514673 1.39259
81 2 0.099429 3.0501 -0.306086 7.99229
89 2 0.0392365 4.90518 1.95945 2.5442
80 2 0.157768 2.31264 2.28857 5.50485
79 2 0.222867 4.00086 2.62286 6.46717
83 2 0.204597 1.34671 0.606155 7.96795
82 2 0.169948 2.79897 1.48648 7.05437
284 2 0.13375 1.73525 0.326153 0.170228
47 1 -0.663545 2.48796 0.748637 8.00551
117 3 -0.750154 5.88748 1.1001 5.11943
87 2 0.156769 3.53651 0.235441 1.80371
322 2 0.155132 7.40311 0.344392 0.830263
312 2 0.0463884 3.08912 0.198317 3.97321
28 4 1.44532 7.25903 1.38562 6.17698
267 3 -0.831259 4.12846 5.74206 0.883788
12 2 0.144935 2.17782 3.24812 2.81477
31 4 1.2637 5.89277 3.2644 8.38904
98 2 0.138783 5.38357 4.47143 4.80378
174 2 0.167472 11.0957 5.58494 5.51391
118 3 -0.812399 7.76597 -0.0630942 6.64205
123 3 -0.818711 6.7546 2.4575 7.32825
124 3 -0.721936 4.88715 4.67464 7.49618
128 3 -0.799253 8.36756 2.12348 5.10414
264 2 -0.0197451 6.02053 5.42706 2.79772
97 2 0.132895 4.6544 6.18884 3.79299
52 1 -0.646893 5.33388 5.71774 4.63024
69 2 0.00305652 10.5527 5.48231 3.27205
266 3 -0.766372 5.63593 3.60887 0.895645
263 4 0.948757 5.02647 4.68522 1.66303
108 2 0.205263 8.85883 4.85864 5.93441
140 3 -0.787909 9.99867 4.78251 8.24771
32 4 0.814112 4.35019 5.70496 6.45211
21 4 1.49553 2.66785 -1.16299 13.0225
122 3 -0.788964 4.79734 2.35672 9.00687
171 2 0.104163 2.84879 3.57229 11.7999
121 3 -0.75539 2.75694 0.803757 16.1091
125 3 -0.81557 4.73351 2.0925 14.4109
116 3 -0.774627 2.59036 2.0009 10.9887
120 3 -0.779079 5.21415 -0.0978526 15.9088
113 3 -0.843813 1.67822 -0.292859 12.072
86 2 0.229859 4.41842 -0.35905 11.33
119 3 -0.825628 3.58902 -0.125488 13.7957
85 2 0.161841 4.41409 -0.932436 9.41989
283 1 -0.659057 0.965906 -1.09902 16.8724
285 2 0.276133 1.15312 -1.51214 15.7784
84 2 0.211497 5.83312 0.0887608 10.171
19 4 0.775601 1.6353 0.551701 17.1785
25 4 1.18974 6.17354 0.196886 17.1325
29 4 1.53794 4.08112 0.710866 15.0008
48 1 -0.663744 4.71757 -0.105166 10.2219
27 4 1.03348 3.66953 1.27073 9.58259
168 2 0.0241505 1.58187 -0.631485 9.15203
33 4 0.991261 5.7104 3.23622 14.0235
50 1 -0.679991 6.94725 4.02777 9.73405
53 1 -0.659238 7.27525 2.96642 12.7082
63 2 0.0337428 5.55164 3.66524 12.2901
251 1 -0.668891 9.83697 4.71688 11.7194
66 2 -0.0104711 8.53798 1.95488 11.5544
67 2 0.0540897 9.59331 1.87142 14.7554
91 2 0.200152 7.97528 3.71775 9.19341
92 2 0.175469 6.91196 3.65134 10.8253
99 2 0.162493 8.17676 3.53088 12.2332
100 2 0.148512 6.98844 2.07106 12.1076
281 2 0.0128032 8.69532 3.77039 16.7106
101 2 0.101196 7.532 2.61472 13.9835
134 3 -0.763634 7.74164 0.690352 16.5788