ITEM: TIMESTEP
0
ITEM: NUMBER OF ATOMS
331
ITEM: BOX BOUNDS xy xz yz pp pp pp
-8.3499999999999996e+00 1.5708700000000000e+01 -8.2042000000000002e+00
-2.0055999999999998e+00 1.3086800000000000e+01 -1.4580000000000001e-01
0.0000000000000000e+00 1.7524799999999999e+01 -2.0055999999999998e+00
ITEM: ATOMS id type q x y z
1 4 1.07749 -1.38065 2.17098 4.28118
2 4 0.722516 0.0198527 4.59582 2.52851
3 1 -0.661464 0.183318 1.81033 5.58807
6 1 -0.613054 -0.400663 4.8018 0.531529
8 2 0.155467 0.655956 2.82957 5.86138
9 2 0.116951 0.862998 1.1933 4.92584
10 2 0.212775 -0.153148 1.2255 6.49988
18 3 -0.759236 -0.770405 3.39292 3.20016
175 2 0.022546 -2.34052 5.09042 6.10617
15 2 -0.00807219 -1.05765 5.93379 1.86194
17 2 0.120768 0.909117 4.65689 0.50185
7 2 0.0176459 1.03832 5.58342 3.64739
16 2 0.168633 -1.00517 3.93356 0.328787
182 2 0.153981 -0.850922 5.55516 7.67309
83 2 0.197781 1.47854 0.824637 8.47689
62 2 -0.00600076 -1.01718 6.50881 0.203914
284 2 0.125895 1.9031 0.309115 0.0909422
94 2 0.151031 2.2673 5.01543 5.27178
117 3 -0.779386 5.8669 1.06364 5.09664
51 1 -0.643503 2.71029 5.38645 6.24952
322 2 0.141138 7.24429 0.200109 0.881703
312 2 0.0263342 3.12052 0.171991 4.29747
93 2 0.181815 2.46407 4.65981 7.13139
87 2 0.146203 3.19318 -0.0765604 2.08398
12 2 0.135777 2.00414 3.0767 2.91055
47 1 -0.664192 2.59148 0.871395 8.20028
89 2 0.0356331 4.41021 1.87133 2.40919
5 1 -0.655338 2.17312 4.26071 2.87541
13 2 0.129401 2.52499 4.69298 3.91609
81 2 0.108567 3.23765 -0.103695 8.1747
321 2 0.172422 5.24681 0.55235 1.28517
162 2 -0.0251504 2.81643 -0.0233449 6.45144
265 2 -0.0421471 4.14048 3.6696 2.57437
46 1 -0.644831 6.12998 0.596765 0.463869
311 2 -0.0293875 2.27705 3.31672 1.13189
14 2 0.162396 2.82316 4.69693 2.03648
24 4 0.802631 4.50815 1.49732 4.39019
45 1 -0.663644 3.39789 2.52262 5.53114
49 1 -0.623551 3.96955 0.293708 2.85064
78 2 0.143212 3.61984 3.49811 4.92696
79 2 0.204144 3.86313 2.57694 6.56946
80 2 0.137994 2.16703 2.17211 5.48915
82 2 0.172552 2.88233 1.55748 7.20916
22 4 1.50114 1.17175 1.13196 11.6909
23 4 1.04608 -0.587132 2.26002 14.0947
44 1 -0.673294 -0.856426 0.607858 14.9149
20 4 1.23753 -1.22802 0.874615 9.70155
60 2 0.00187971 -2.11991 2.88323 13.4577
75 2 0.214171 0.183184 0.178874 14.944
112 3 -0.844114 0.15517 1.12235 10.4145
113 3 -0.843864 1.59231 -0.387088 12.123
114 3 -0.801512 0.393257 2.01769 12.8079
126 3 -0.78105 -0.215171 3.29647 15.2335
286 2 0.148131 -0.159171 -1.10841 17.0911
283 1 -0.665381 1.08962 -1.10873 16.8329
285 2 0.279261 1.18327 -1.54962 15.7225
34 4 0.956039 0.156191 4.34916 16.4458
58 2 0.0225007 0.236509 1.24818 17.1302
168 2 0.000148199 1.66792 -0.685057 9.02158
77 2 0.159461 -1.35541 0.710263 15.9095
170 2 -0.00698595 -0.147581 4.13448 8.88919
59 2 -0.0394091 -1.87216 2.33961 9.31862
127 3 -0.765472 1.63042 4.56372 16.9618
27 4 1.00159 3.71564 1.44559 9.85394
48 1 -0.667201 4.93937 0.252898 10.572
29 4 1.54877 4.04883 0.929852 14.9741
150 4 1.05867 2.93632 5.12992 11.4777
19 4 0.737047 1.8504 0.523072 17.174
84 2 0.211611 6.00223 0.554647 10.3257
85 2 0.201797 4.6207 -0.65107 9.96613
119 3 -0.817686 3.42585 -0.150336 13.9171
86 2 0.212377 4.76861 0.132882 11.674
120 3 -0.811255 5.16415 0.250003 15.9004
116 3 -0.767264 2.56352 2.0193 11.2777
125 3 -0.803877 4.7104 2.33687 14.3103
121 3 -0.748044 2.81636 1.14452 15.9332
171 2 0.120135 3.24501 3.39732 11.8398
122 3 -0.772859 4.7556 2.54802 9.09215
21 4 1.49445 2.57342 -1.19393 13.0832
25 4 1.28458 6.18154 0.272314 17.1394
143 4 0.614181 -6.18478 11.5489 6.14994
144 4 0.65645 -2.3673 6.56489 5.07237
146 4 0.928795 -2.65795 9.20122 6.94575
317 2 0.111543 -5.34529 9.69941 3.9799
166 2 0.0832144 -4.29547 9.33158 7.23229
169 2 -0.00595865 -5.80486 11.4469 4.42784
193 3 -0.783875 -5.65461 10.3661 6.93351
213 1 -0.626986 -3.12936 9.69497 1.24511
227 2 0.153447 -4.19049 9.64675 0.867304
228 2 0.05821 -2.72722 11.2833 0.961731
192 3 -0.781973 -2.57021 7.93479 5.96838
229 2 0.161496 -3.17714 9.53674 2.33496
167 2 0.0105445 -2.37127 10.7458 6.07236
147 4 1.08413 -6.49358 10.728 8.61133
163 2 0.0115536 -3.62115 6.43242 3.67739
88 2 0.156561 -3.31721 12.6787 2.90642
212 1 -0.622486 -6.28496 10.0131 3.14997
225 2 0.144044 -6.74804 11.1295 3.08078
161 2 0.0962904 -7.88986 11.835 6.12108
221 2 0.0170562 -2.24812 8.3715 0.506364
233 2 0.162611 -0.139364 10.906 5.92137
207 4 1.0595 0.43868 9.63954 3.72452
294 2 0.175451 1.85196 8.18066 1.65484
30 4 1.18526 3.33182 6.99658 0.10624
300 2 0.168065 0.640038 10.0802 7.41873
235 2 0.181746 -1.22134 11.5221 4.37856
215 1 -0.652729 -0.834259 10.6136 4.90988
214 1 -0.661277 0.47825 7.74823 3.98719
184 2 0.189993 0.0563508 7.12994 8.47947
199 3 -0.813194 -1.86989 9.02505 8.2939
231 2 0.174617 1.52599 7.38386 3.96467
164 2 -0.0257102 -0.706475 6.28221 4.53309
95 2 0.133226 2.33951 6.47476 6.51765
230 2 0.134697 0.0456263 7.92556 5.16565
234 2 0.143538 -1.57236 9.69844 5.00522
206 4 0.682389 -1.2964 10.0231 0.970688
232 2 0.120053 -0.228934 7.26428 3.27831
242 3 -0.763909 -0.343275 9.9181 2.20578
157 1 -0.65915 0.0959039 5.94652 8.1379
297 2 0.146242 -0.153257 12.4193 1.53855
183 2 0.166582 1.1079 5.70081 7.47823
115 3 -0.755389 -6.85712 10.9169 14.1594
148 4 1.30788 -4.4923 9.76206 10.9871
156 1 -0.671794 -4.83756 8.01669 11.6566
180 2 0.169382 -3.85567 7.53483 11.3159
181 2 0.154961 -4.90297 8.09702 12.8234
195 3 -0.817863 -5.47513 10.0881 9.72314
196 3 -0.819824 -4.75973 10.9185 12.2606
201 3 -0.830561 -2.9704 9.88429 10.5572
320 2 0.15891 -2.44251 11.0594 17.0352
303 2 0.0445244 -4.66332 5.88027 16.8467
194 3 -0.795988 -3.24742 5.12692 12.732
275 2 0.147671 -0.314549 8.41509 15.3874
149 4 1.04748 0.28936 5.44574 9.94412
197 3 -0.794816 -0.82487 5.71881 11.0874
64 2 -0.0232088 -0.487296 5.88493 15.9377
198 3 -0.779191 1.80643 5.49599 10.4216
151 4 1.45863 -1.65899 9.89566 9.63993
153 4 1.04238 0.603173 9.80596 11.676
270 1 -0.630132 0.568455 9.02431 15.6756
159 1 -0.682258 -0.384429 10.9788 12.8792
155 1 -0.64663 -1.05485 6.53788 14.1303
177 2 0.150479 -0.248609 7.34743 14.5027
188 2 0.169159 -0.476804 10.1423 13.6558
179 2 0.139409 -1.85189 6.33477 14.9473
200 3 -0.783575 -1.52071 11.5876 9.04716
220 2 -0.0268086 -0.845169 8.3636 16.875
203 3 -0.811473 -0.32121 9.44836 10.4245
145 4 0.972502 -1.72615 5.89843 12.4505
165 2 0.0489731 -1.86121 7.68111 12.8974
202 3 -0.740111 2.61826 5.98745 12.8267
178 2 0.12457 -0.352018 5.29184 13.8245
326 2 0.198396 -1.36608 11.1643 12.3373
28 4 1.49886 7.17517 1.39209 6.14715
31 4 1.27183 5.75112 3.53691 8.22999
98 2 0.188734 6.53756 5.18671 4.87461
118 3 -0.822477 7.57311 0.257204 7.10705
123 3 -0.758116 6.67395 2.66344 7.18505
124 3 -0.779169 5.08033 4.86958 7.39234
128 3 -0.798661 8.39542 1.87972 5.1429
264 2 -0.0158378 5.97886 5.01858 2.88672
26 4 1.30752 8.00911 -0.72947 8.39267
97 2 0.11439 4.67971 5.05626 4.30373
323 2 0.158091 9.41641 0.738996 1.54662
52 1 -0.661518 5.58527 5.70798 4.72245
35 4 1.19449 9.52093 1.27498 4.27126
65 2 0.00138827 8.77526 0.199295 3.23823
266 3 -0.817066 5.93087 3.41919 0.782104
263 4 0.923629 5.08941 4.47794 1.52587
108 2 0.18743 8.77653 5.33687 5.88111
267 3 -0.779236 4.29206 5.62044 0.782541
315 2 0.137115 14.3073 0.00883256 3.60366
154 1 -0.626853 11.7808 5.36636 5.02683
139 3 -0.853481 11.1587 2.70855 7.03163
330 2 0.156802 12.852 1.4505 0.636771
208 4 1.22575 13.7682 -0.638828 7.31743
70 2 0.0318804 10.1591 4.07866 1.01372
41 4 1.30408 10.8124 3.27638 8.41087
176 2 0.230804 12.3533 4.38199 5.01597
133 3 -0.840151 12.8063 0.53935 6.78776
4 1 -0.659021 13.5696 0.851384 3.19352
316 2 0.181904 12.4792 0.771103 3.61417
137 3 -0.782402 10.1804 2.54535 3.37494
140 3 -0.795643 10.0054 4.72801 8.34001
37 4 1.43911 11.9052 1.69618 6.09326
40 4 0.749004 10.817 3.76611 2.69353
55 1 -0.632982 11.7719 3.45092 1.04811
69 2 0.0125683 10.6596 5.37792 3.60957
11 2 0.1726 13.6367 0.810405 2.01358
106 2 0.160393 11.8223 2.33514 0.981891
107 2 0.0779518 12.6869 3.84492 2.52139
325 2 0.134943 10.4354 6.40996 0.79217
131 3 -0.802136 13.071 2.61431 5.13157
132 3 -0.803539 10.7691 0.579271 5.17605
105 2 0.150695 12.3723 3.87862 0.187472
174 2 0.191784 11.2112 5.60385 5.92088
305 2 0.123884 14.3152 0.0230367 0.539809
129 3 -0.854901 14.7464 0.0998805 8.32656
33 4 1.02139 5.88573 3.3192 14.1015
38 4 0.68599 9.22411 0.518609 15.9402
50 1 -0.646623 6.89461 4.08355 9.60733
53 1 -0.641905 7.29493 2.88385 12.6511
63 2 0.060617 5.98203 3.73863 12.2404
66 2 -0.0194388 8.57174 1.83858 11.5432
67 2 0.0481624 9.22235 2.10823 14.8659
91 2 0.207849 7.87535 3.69977 9.04291
92 2 0.16994 7.00056 3.65081 10.7883
99 2 0.162213 8.28942 3.42725 12.3555
100 2 0.153066 7.16601 1.82099 12.2888
101 2 0.0478748 7.5392 2.48975 14.4152
130 3 -0.836209 8.82668 0.114624 9.52908
134 3 -0.778397 7.77241 0.367798 16.5799
54 1 -0.625573 9.0629 0.638394 13.9555
103 2 0.161026 7.89653 0.421697 13.963
187 2 0.172818 5.36462 5.20492 10.4147
90 2 0.155741 6.82633 5.24324 9.58549
141 3 -0.806996 5.94329 4.7751 14.9718
256 2 0.162767 9.51544 3.56375 11.3186
327 2 0.177446 8.24496 -1.144 13.324
102 2 0.180462 9.35587 0.798369 12.8878
281 2 0.0278576 8.8361 3.89685 16.6962
301 1 -0.640729 10.3564 4.40506 17.2319
76 2 0.156199 14.2169 0.0547016 14.1416
331 3 -0.771408 10.4232 4.81116 14.4028
254 2 0.174671 10.6283 1.76742 13.5507
310 2 0.161804 12.5989 -0.452181 14.5443
313 2 -0.00948735 10.431 0.999415 17.0929
252 2 0.135036 12.3354 2.4628 14.3336
36 4 1.26095 9.62421 1.1292 10.3695
39 4 0.93049 12.036 -0.534062 11.022
257 2 0.179512 10.4667 5.06424 10.9057
302 2 0.165316 11.0173 3.59694 16.9133
104 2 0.0386489 9.83421 -0.814694 14.7249
135 3 -0.868873 13.346 0.141991 10.575
136 3 -0.838572 10.7202 0.398265 11.2121
138 3 -0.848813 10.2985 2.24368 9.40465
253 2 0.173521 12.247 2.14199 12.4351
250 1 -0.657828 11.7048 2.41926 13.3819
251 1 -0.678023 9.8975 4.48788 11.6911
249 4 1.11495 11.2339 4.29167 13.1152
306 2 0.143162 14.3152 -0.206755 17.1466
71 2 -0.0280145 12.3298 3.67435 8.99762
304 1 -0.638081 13.5796 -1.04195 17.4993
307 1 -0.641622 12.5337 -1.53834 14.445
61 2 0.0353087 4.56942 7.42768 7.0855
237 2 0.154595 4.93893 11.8501 2.39233
209 4 0.982639 3.57368 10.8546 4.00272
216 1 -0.692559 4.36913 10.8915 2.27162
222 2 -0.0246419 4.65285 11.3213 8.22798
296 2 0.151883 1.64838 11.8765 1.96551
236 2 0.170289 5.10476 10.0203 2.27722
238 2 0.171001 3.59855 10.9551 1.49905
243 3 -0.747956 1.91909 10.2086 3.8428
246 3 -0.810605 4.37354 9.84926 4.93938
292 2 0.193738 3.46567 9.14471 1.74152
298 1 -0.684541 1.0359 11.1344 7.56065
324 2 0.150932 1.95688 11.1696 8.21367
291 1 -0.653372 2.97909 8.07065 1.57734
295 1 -0.681843 0.955375 12.6901 1.39747
32 4 0.861962 4.54851 5.90614 6.39928
223 2 0.0869829 3.42657 12.4401 4.57413
299 2 0.181667 1.18917 11.7219 6.5156
293 2 0.153608 3.42986 7.29237 2.37028
96 2 0.149757 5.69628 6.78707 4.34222
56 1 -0.628631 8.41818 6.30516 6.35755
205 4 0.721149 8.32717 8.73175 3.92896
247 3 -0.819884 5.85439 9.00498 7.00894
226 2 0.11963 9.4882 9.52738 2.0963
211 4 1.33727 5.79605 9.87486 5.63318
245 3 -0.77732 7.14297 9.38563 4.62536
42 4 0.802359 9.1469 6.0693 8.15537
109 2 0.163077 7.631 6.73413 5.63614
210 4 1.00249 6.49606 9.121 8.50132
248 3 -0.811255 6.22767 11.7192 6.04838
218 2 0.0130753 9.0563 7.70566 5.16664
219 2 -0.0623111 7.95756 7.60738 2.69316
72 2 0.0514025 9.76141 7.27955 6.7958
110 2 0.0709365 7.35084 5.84614 7.71931
244 3 -0.829333 7.81872 9.98625 8.57418
142 3 -0.773214 4.21142 5.9192 16.6214
160 1 -0.65102 3.93714 8.50038 13.3997
204 3 -0.798992 1.4358 8.71868 12.4898
185 2 0.159302 4.86296 6.44768 11.7397
189 2 0.159072 4.10953 9.66112 13.7689
190 2 0.144899 4.25592 8.30647 12.2912
191 2 0.153416 4.44129 7.79744 14.1906
217 1 -0.692549 5.0571 9.92055 9.5988
239 2 0.129216 5.19539 9.13988 10.422
268 4 0.75726 1.54984 9.97931 17.2576
269 4 0.887244 4.57263 10.7193 16.3288
278 2 0.189028 4.76 8.17508 16.6192
279 3 -0.755639 3.03701 10.3679 16.7819
308 2 0.141776 3.26308 11.2321 14.0236
314 2 -0.0352449 3.6015 11.1863 10.0295
158 1 -0.691981 4.55028 5.88631 10.853
173 2 0.0101046 1.26514 11.3842 11.8843
186 2 0.171917 4.20531 6.60322 10.0793
309 2 0.14648 5.15386 11.0625 13.7209
152 4 0.998796 2.30713 7.60802 13.3347
241 2 0.166282 5.50549 10.9598 9.80498
274 2 0.0454031 0.138261 10.6832 16.2495
240 2 0.145158 4.05086 9.9362 9.12052
273 2 0.159575 1.25882 9.30024 14.7603
172 2 0.0233317 1.94248 7.79207 15.0844
68 2 -0.014205 4.01089 11.6406 12.4901
272 2 0.0366517 1.39707 8.12828 17.0358
319 2 0.163249 9.91142 7.53024 11.1465
289 2 0.175324 6.2471 11.3333 12.5633
261 2 0.141045 8.01508 8.42193 15.2216
276 2 0.133808 6.46422 9.05877 17.077
258 4 0.786018 8.08454 9.67662 13.3139
328 2 0.142122 9.13621 7.71535 9.64942
259 1 -0.674337 8.12212 7.91363 14.1598
262 2 0.147411 9.1344 7.37161 13.919
329 2 0.167618 9.06761 5.94378 10.6169
57 1 -0.653539 8.43457 6.80252 9.95814
271 1 -0.646581 5.53097 9.01885 16.3776
224 2 -0.0125911 6.81509 7.5139 9.10565
43 4 0.944182 5.66382 5.78954 16.0944
73 2 -0.0044057 6.17038 7.3078 15.6322
111 2 0.128 7.60452 7.21344 10.6456
277 2 0.128679 5.82705 9.20005 15.2088
280 4 0.676878 9.70283 5.32915 15.683
287 1 -0.674434 6.46254 10.2266 12.4073
288 2 0.150809 6.88748 10.0115 11.3509
74 2 -0.0627277 6.68457 5.42545 17.4067
290 2 0.151976 5.56786 9.52604 12.6678
318 2 0.145131 7.20529 7.3941 13.7965
282 2 -0.0305706 8.78313 6.83679 15.6753
260 2 0.0124256 9.14927 8.66512 12.3656
255 2 0.160836 9.14294 5.14965 12.2674
ITEM: TIMESTEP
100
ITEM: NUMBER OF ATOMS
331
ITEM: BOX BOUNDS xy xz yz pp pp pp
-8.3499999999999996e+00 1.5708700000000000e+01 -8.2042000000000002e+00
-1.9741825999999989e+00 1.3086800000000000e+01 -1.4580000000000001e-01
0.0000000000000000e+00 1.7524799999999999e+01 -1.9741825999999989e+00
ITEM: ATOMS id type q x y z
1 4 1.12249 -1.38556 2.33756 4.25519
2 4 0.692507 -0.0636035 4.68312 2.41214
3 1 -0.654187 0.178937 1.67229 5.27453
6 1 -0.600777 -0.560005 4.93057 0.368289
8 2 0.151195 0.590364 2.67826 5.7157
9 2 0.120859 0.811695 1.23028 4.38491
10 2 0.202685 -0.0740191 0.904959 6.07949
18 3 -0.78289 -0.794366 3.48434 3.28192
175 2 0.0416047 -2.32177 5.07067 5.99544
15 2 0.00292715 -1.27885 5.94484 1.65312
17 2 0.0678025 0.95232 4.55111 0.642864
7 2 0.0198747 0.953633 5.61461 3.5217
80 2 0.149478 2.16047 2.21683 5.37861
79 2 0.190782 3.82755 2.37811 6.44641
83 2 0.194233 1.28791 0.735559 8.07907
82 2 0.166593 2.7533 1.55868 7.40691
284 2 0.138065 1.78012 0.178027 0.0928637
94 2 0.147723 2.26889 5.47037 5.00344
117 3 -0.795977 5.79702 1.06028 5.13014
51 1 -0.648254 2.50653 5.59737 6.12661
322 2 0.167768 7.25666 0.227386 0.911209
312 2 0.062772 3.04776 -0.00316521 3.70326
93 2 0.181288 2.18314 4.76204 6.81025
87 2 0.151698 3.53077 0.392507 1.71419
12 2 0.158715 1.84375 3.12138 3.01723
47 1 -0.66528 2.41166 0.804669 8.18766
89 2 0.0213522 4.74673 2.03767 2.65156
5 1 -0.662426 2.10856 4.18981 2.83083
13 2 0.137746 2.44212 4.69047 3.82814
81 2 0.0910023 3.05414 -0.253679 8.25856
321 2 0.168904 5.44458 0.591485 1.28754
162 2 -0.025308 2.73574 0.00602707 6.39935
265 2 -0.0263724 4.04979 3.65414 2.61147
46 1 -0.669734 6.29559 0.646206 0.502814
311 2 -0.028492 2.14043 2.91546 1.32993
14 2 0.171394 2.6849 4.43323 1.94421
24 4 0.800077 4.47971 1.45511 4.39798
45 1 -0.672187 3.35507 2.50964 5.44201
49 1 -0.648746 3.99472 0.386983 2.70699
78 2 0.138429 3.66754 3.49617 4.87181
22 4 1.49343 1.20372 1.27102 11.6005
23 4 1.05503 -0.505138 2.22806 14.0349
44 1 -0.67348 -0.804566 0.505973 14.6733
20 4 1.22405 -1.16658 0.906319 9.49821
60 2 0.00163665 -2.0277 2.73301 13.3458
75 2 0.210341 0.214987 0.047881 14.6055
112 3 -0.854665 0.0205554 1.26075 10.497
113 3 -0.835451 1.54328 -0.316271 12.0219
114 3 -0.796719 0.695782 2.03896 12.9527
126 3 -0.78882 -0.243109 3.20163 15.2093
286 2 0.151383 -0.176965 -1.14543 17.0744
283 1 -0.675425 1.0073 -1.23574 16.8447
285 2 0.27817 1.17303 -1.55652 15.7269
34 4 0.941619 0.100108 4.21653 16.4724
58 2 0.0112612 0.117517 1.30084 17.3203
25 4 1.26801 6.21732 0.327737 17.1631
77 2 0.146049 -1.25769 0.3927 15.7506
170 2 0.00358905 -0.213608 4.2239 8.87098
59 2 -0.0263042 -1.67327 2.38363 8.91759
168 2 0.0296106 1.40512 -0.728667 8.99717
27 4 1.00436 3.77107 1.35974 9.73114
48 1 -0.665537 4.75422 -0.0348293 10.4531
29 4 1.50494 4.08443 0.803109 15.0026
150 4 0.97598 2.89966 5.18929 11.4898
19 4 0.765271 1.65659 0.386768 17.19
84 2 0.194514 5.90876 0.306568 10.3317
85 2 0.168228 4.37546 -0.849329 9.68348
119 3 -0.813264 3.60627 -0.231029 13.8272
86 2 0.225077 4.41019 -0.205606 11.5284
120 3 -0.782637 5.29417 0.182317 15.8553
116 3 -0.778796 2.55915 2.01236 11.0762
125 3 -0.773593 4.77074 2.15021 14.3037
121 3 -0.760885 2.72826 0.797454 16.0933
171 2 0.120703 2.96262 3.49432 11.6344
122 3 -0.802682 4.8223 2.5364 9.11517
21 4 1.48793 2.51076 -1.07849 13.1123
16 2 0.161106 -1.40985 2.11773 17.4632
194 3 -0.78821 -3.08118 5.00558 12.7407
127 3 -0.781013 1.66043 4.58712 17.0041
143 4 0.581874 -6.13872 11.559 6.1161
144 4 0.68567 -2.44396 6.66797 5.11117
146 4 0.953326 -2.83535 9.08298 7.06012
317 2 0.111649 -5.2741 9.52407 3.68476
166 2 0.0750426 -4.39537 9.41382 7.57809
169 2 -0.0178193 -5.66072 11.1815 4.53579
193 3 -0.78541 -5.70632 10.404 7.17953
213 1 -0.623204 -3.1027 9.57983 1.21707
227 2 0.160138 -4.09354 9.86828 0.798913
228 2 0.0463645 -2.64265 11.2824 1.0888
192 3 -0.805 -2.75581 7.89065 6.04122
229 2 0.15495 -3.1507 9.2287 2.2968
167 2 -0.00178147 -2.47579 10.434 6.15992
182 2 0.154462 -1.0439 5.70936 7.65765
163 2 0.00322235 -3.57557 6.53612 3.6543
88 2 0.158484 -3.37638 12.7508 2.69857
212 1 -0.599198 -6.24443 9.97103 3.07866
157 1 -0.665141 -0.0711112 6.05847 8.154
183 2 0.177917 0.898457 5.9311 7.41545
221 2 0.033002 -2.40384 8.37599 0.357683
233 2 0.188989 -0.152815 10.6865 6.01803
207 4 1.0769 0.429994 9.74153 3.61596
294 2 0.172882 1.73942 8.0903 1.45968
161 2 0.0936072 -7.82189 11.7494 5.8784
300 2 0.180001 0.718792 9.9937 7.66416
235 2 0.190479 -1.39679 11.3253 4.84717
215 1 -0.67346 -0.785795 10.4607 5.05729
214 1 -0.633839 0.780091 7.89989 3.95183
184 2 0.200812 -0.151382 7.26342 8.45213
199 3 -0.792731 -1.86701 8.90662 8.20907
231 2 0.182223 1.9132 7.69627 4.01843
164 2 -0.0366485 -1.00955 6.95307 4.17788
95 2 0.127573 2.40727 6.78434 6.56088
230 2 0.135928 0.138945 7.99724 4.99423
234 2 0.16128 -1.39014 9.57426 5.20119
206 4 0.678813 -1.28367 9.91677 0.931235
232 2 0.122055 0.255909 7.59872 2.89766
242 3 -0.79472 -0.394483 9.84241 2.24729
225 2 0.154432 -6.3582 11.1192 2.97167
30 4 1.18249 3.26152 7.00051 0.0377435
297 2 0.169526 -0.141092 12.1931 2.02779
62 2 -0.0204693 -1.02768 6.74709 0.113916
115 3 -0.751729 -6.75625 10.9071 14.161
148 4 1.32351 -4.48159 9.90794 11.1234
156 1 -0.645191 -4.81375 8.09775 11.6644
180 2 0.161748 -3.73594 7.66783 11.3707
181 2 0.161048 -4.92705 8.07621 12.8037
195 3 -0.842083 -5.56553 10.208 9.93606
196 3 -0.799544 -4.84501 10.8392 12.4875
201 3 -0.830137 -3.00653 9.85022 10.5078
320 2 0.168546 -2.3967 11.0954 17.1279
303 2 0.0462045 -4.96827 6.15 17.124
272 2 0.0315969 1.22249 8.08842 16.8435
275 2 0.127894 -0.533163 8.83953 15.3275
149 4 1.04184 0.186309 5.57808 9.91374
197 3 -0.81485 -0.844003 5.65993 11.124
64 2 -0.00387045 -0.577415 5.66262 15.6991
198 3 -0.741952 1.81145 5.55134 10.3235
151 4 1.40159 -1.63492 9.98397 9.55093
153 4 1.03284 0.597364 9.7148 11.7498
270 1 -0.624933 0.544493 9.26608 15.7364
159 1 -0.670933 -0.455736 10.9212 12.7897
155 1 -0.639311 -1.19872 6.74379 14.1761
177 2 0.158527 -0.639115 7.67987 14.5801
188 2 0.156262 -0.739912 10.0625 13.6006
179 2 0.150325 -2.12212 6.56027 14.8096
200 3 -0.827798 -1.40327 11.4827 8.89112
220 2 -0.0159722 -0.638897 8.63293 17.0942
203 3 -0.783205 -0.224563 9.49601 10.384
145 4 1.00984 -1.69478 5.8022 12.4771
165 2 0.0504775 -1.9707 7.60456 12.7466
202 3 -0.730252 2.39841 6.20184 12.9779
178 2 0.113636 -0.29085 5.54233 13.9827
326 2 0.201781 -1.31723 11.1484 12.12
147 4 1.15944 -6.55848 10.6816 8.8046
28 4 1.49718 7.15145 1.38076 6.17018
31 4 1.30351 5.81248 3.39418 8.27265
98 2 0.159613 5.87187 4.55268 4.70724
118 3 -0.828543 7.52284 0.090616 6.91064
123 3 -0.795966 6.71899 2.52099 7.28245
124 3 -0.768789 5.08756 4.7641 7.41863
128 3 -0.809749 8.52079 1.94888 5.34961
264 2 -0.0204537 6.049 5.34742 2.87994
26 4 1.31367 7.99735 -0.696019 8.26551
97 2 0.103423 4.45365 5.76681 4.16345
323 2 0.146506 9.32047 0.437165 1.26891
52 1 -0.641659 5.49956 5.64682 4.79263
35 4 1.25072 9.57278 1.53949 4.27991
65 2 0.0127488 8.81658 0.399168 3.21077
266 3 -0.797757 5.90132 3.55934 0.829239
263 4 0.95004 5.10777 4.59682 1.6688
108 2 0.189262 8.64336 5.16434 5.66259
267 3 -0.775185 4.32102 5.62895 0.998858
315 2 0.168032 14.8 0.241066 3.57012
154 1 -0.626526 11.8021 5.33028 4.98244
139 3 -0.85425 11.3561 2.67634 7.21384
330 2 0.169627 12.9619 1.54263 0.785055
208 4 1.18561 13.6998 -0.568341 7.10637
70 2 0.0228786 10.0901 4.11826 0.851529
41 4 1.28549 10.9562 3.39481 8.52293
176 2 0.241619 12.2523 4.26565 4.98594
133 3 -0.871201 12.5713 0.504896 6.96611
4 1 -0.658366 13.8354 0.845552 3.25504
316 2 0.163494 12.8737 0.288801 3.6709
137 3 -0.851567 10.1424 2.58615 3.34441
140 3 -0.799599 10.1254 4.7853 8.18602
37 4 1.46228 11.9056 1.70478 6.19964
40 4 0.749554 10.8365 3.66153 2.5021
55 1 -0.64202 11.7774 3.3727 0.886701
69 2 0.00991237 10.9004 5.28215 3.42535
11 2 0.175534 13.868 1.02347 2.11569
106 2 0.145985 11.7662 2.1921 0.762338
107 2 0.0759032 12.7821 3.61761 2.29229
129 3 -0.836636 14.8522 0.00690985 8.16079
131 3 -0.80731 13.1677 2.69593 5.27081
132 3 -0.787836 10.8557 0.709063 5.04127
105 2 0.154296 12.2717 3.82801 0.0101434
174 2 0.191506 11.1092 5.5499 5.79974
305 2 0.121442 14.4401 0.178442 0.550609
304 1 -0.654003 13.7689 1.15998 0.0655089
32 4 0.838852 4.40207 5.75631 6.44307
110 2 0.111621 7.18193 5.51651 7.39895
33 4 1.01541 5.85763 3.34318 14.0265
38 4 0.705877 9.16948 0.552246 15.9558
50 1 -0.655537 7.07481 4.00439 9.55185
53 1 -0.641414 7.37299 3.02704 12.6377
63 2 0.0425272 5.86725 3.7558 12.2029
66 2 -0.00962205 8.64907 1.98634 11.5284
67 2 0.0490186 9.25592 2.04754 14.7744
91 2 0.212842 8.07042 3.66574 9.03153
92 2 0.169199 7.0976 3.62579 10.7095
99 2 0.153508 8.34051 3.61403 12.1675
100 2 0.155552 7.23015 2.00202 12.2515
101 2 0.0567169 7.68797 2.81083 14.2946
130 3 -0.808195 8.78326 0.32257 9.44112
134 3 -0.786899 7.77012 0.47836 16.6114
54 1 -0.641751 9.18658 0.519879 13.988
103 2 0.166104 7.99859 0.458737 13.9461
187 2 0.171632 5.43755 4.85463 10.5474
90 2 0.14909 6.89978 5.14818 9.48503
141 3 -0.804127 5.75507 4.61303 14.978
256 2 0.184632 9.49978 3.96741 10.7433
327 2 0.173422 8.25011 -1.1968 13.2719
102 2 0.191381 9.61179 0.655574 12.9713
281 2 0.0223537 8.73218 3.78615 16.8894
255 2 0.149108 9.17463 5.04338 12.361
76 2 0.13489 14.1756 0.220576 13.8486
331 3 -0.735986 10.4057 4.68838 14.4795
254 2 0.177714 10.7982 1.66357 13.6341
310 2 0.129591 12.8025 -0.489008 14.9327
313 2 -0.00730149 10.4279 0.496965 17.1971
252 2 0.143419 12.3337 2.57558 14.419
36 4 1.2638 9.69334 1.19521 10.3675
39 4 0.954812 12.1453 -0.398446 11.1111
68 2 -0.0199549 12.6359 -1.00097 12.6578
302 2 0.160063 11.03 3.85861 17.2147
104 2 0.0416887 9.72817 -0.886215 14.863
135 3 -0.8448 13.2948 0.26115 10.319
136 3 -0.849344 10.7895 0.34875 11.2244
138 3 -0.84295 10.3443 2.35034 9.54268
253 2 0.166548 12.3179 1.98218 12.5332
250 1 -0.657029 11.7537 2.33301 13.4345
251 1 -0.676041 9.96272 4.63576 11.5628
249 4 1.02779 11.1985 4.20508 13.0583
306 2 0.139654 14.2234 -0.0324192 17.0923
71 2 -0.0248808 12.3602 3.94887 9.26212
61 2 0.0679263 5.31444 7.13089 5.99522
237 2 0.144849 4.4407 11.9421 2.2908
209 4 1.01837 3.49851 10.7639 4.04531
216 1 -0.659954 4.23862 10.7945 2.28043
222 2 0.00173853 4.65651 11.2545 8.00495
296 2 0.170894 1.81295 11.961 2.05033
236 2 0.179214 5.14263 10.1374 2.42022
238 2 0.156647 3.72588 10.4404 1.2894
243 3 -0.783568 1.97764 10.3705 3.80704
246 3 -0.797507 4.59593 9.85547 4.90529
292 2 0.185073 3.39531 9.08515 1.70822
298 1 -0.683883 1.07674 11.0932 7.63564
324 2 0.158427 1.90329 11.329 8.35316
291 1 -0.647694 2.8422 8.02186 1.54072
295 1 -0.682097 0.876638 12.4833 1.55566
72 2 0.0211287 9.65028 7.11779 6.55802
223 2 0.0866519 3.40653 12.3837 4.58988
299 2 0.183395 1.29908 11.4932 6.59398
244 3 -0.841558 7.75277 10.0741 8.73388
96 2 0.149433 6.31809 6.43399 4.54177
56 1 -0.631915 8.15805 6.03689 6.19533
205 4 0.696939 8.41994 8.55933 3.93376
247 3 -0.811794 5.85414 9.15233 7.05179
219 2 -0.0448906 7.79044 7.94461 2.52173
211 4 1.3115 5.96209 10.0374 5.66726
245 3 -0.748772 7.31121 9.25863 4.71335
42 4 0.793219 9.11836 6.00268 7.91503
109 2 0.167322 7.53239 6.68882 5.54161
210 4 0.993183 6.47612 9.0988 8.52169
248 3 -0.813204 6.28925 11.8827 5.7157
218 2 -0.0179851 9.03832 7.1547 4.82502
293 2 0.162471 3.17736 7.19878 2.34957
226 2 0.104607 9.27785 9.38859 1.9605
325 2 0.13031 10.2591 6.66248 1.08402
142 3 -0.775016 4.09655 5.90266 16.5183
160 1 -0.676207 4.0926 8.44328 13.4414
204 3 -0.790232 1.46057 8.63692 12.5768
185 2 0.128547 4.92107 6.18135 11.8471
189 2 0.174927 4.18584 9.51738 13.8108
190 2 0.149581 4.2869 8.32096 12.3149
191 2 0.139142 4.58144 7.54717 14.0952
217 1 -0.660577 4.94579 9.91904 9.45155
239 2 0.113211 4.82598 8.92226 10.1352
268 4 0.746731 1.61167 9.92035 17.3241
269 4 0.881268 4.5762 10.8517 16.4247
278 2 0.176273 4.80323 8.35916 16.7204
279 3 -0.766714 3.08058 10.4594 16.9124
308 2 0.157832 3.3454 11.3726 14.1671
314 2 -0.0148162 3.72657 11.0916 10.4871
158 1 -0.676174 4.56828 5.63268 10.8567
173 2 0.0172112 1.22668 11.3475 11.9165
186 2 0.175538 4.35206 6.34204 10.0105
309 2 0.157642 5.18742 11.0762 13.7796
152 4 1.04631 2.39075 7.65053 13.4911
241 2 0.171302 5.57688 10.7516 9.93182
290 2 0.155249 5.62162 9.56227 12.7901
172 2 0.0126926 1.97105 8.035 15.1445
273 2 0.158914 1.22637 9.54362 14.8775
282 2 -0.0252978 8.36937 6.52106 15.685
260 2 0.0159248 9.17812 8.56802 12.4763
74 2 -0.0630941 6.64445 5.5449 17.3144
319 2 0.163824 9.9873 7.61691 10.9881
289 2 0.174394 6.52725 11.3481 12.7047
261 2 0.142038 7.95155 8.47872 15.4202
276 2 0.14825 6.4809 9.11506 17.0729
258 4 0.791291 8.13759 9.62107 13.424
328 2 0.128749 9.46297 7.69145 9.28862
259 1 -0.670921 7.98105 7.89439 14.372
262 2 0.147515 8.95118 7.36026 14.1804
329 2 0.180259 9.11236 5.99844 10.3093
57 1 -0.653035 8.59398 6.88872 9.73139
271 1 -0.654962 5.58324 9.12803 16.416
318 2 0.12856 7.00148 7.39163 13.9442
43 4 0.90979 5.57632 5.79098 16.0565
73 2 -0.00637558 6.06808 7.37044 15.5871
111 2 0.136141 8.0261 7.41521 10.5513
277 2 0.151392 5.75764 9.09153 15.2763
280 4 0.644715 9.59205 5.15993 15.8594
287 1 -0.671728 6.5531 10.228 12.4524
288 2 0.154905 6.9604 9.96912 11.4074
257 2 0.171345 10.7346 5.40243 11.1647
224 2 -0.0097782 6.93344 7.4605 8.91515
274 2 0.0574267 0.23104 10.867 16.3745
301 1 -0.640141 10.2132 4.54721 17.489
307 1 -0.647739 4.37296 11.4169 14.5267
240 2 0.155883 4.06694 10.1551 8.76644
ITEM: TIMESTEP
200
ITEM: NUMBER OF ATOMS
331
ITEM: BOX BOUNDS xy xz yz pp pp pp
-1.4580000000000001e-01 2.3213200000000001e+01 7.5045000000000002e+00
-1.9427652000000002e+00 1.3086800000000000e+01 -1.4580000000000001e-01
0.0000000000000000e+00 1.7524799999999999e+01 -1.9427652000000002e+00
ITEM: ATOMS id type q x y z
78 2 0.118169 3.72391 3.59412 4.74385
49 1 -0.64523 4.04315 0.360618 2.79547
45 1 -0.659422 3.44526 2.63022 5.49792
24 4 0.781815 4.5894 1.57002 4.31803
70 2 0.044325 10.1919 4.13717 0.591553
311 2 -0.0207507 2.12991 3.13228 1.28007
46 1 -0.649916 6.28824 0.616495 0.492832
265 2 -0.0311681 4.01273 4.05603 2.88601
162 2 -0.0269234 2.63796 -0.183546 6.27299
321 2 0.172203 5.4781 0.547901 1.37254
81 2 0.101157 3.08148 -0.297902 7.99675
89 2 0.0340373 4.91678 1.95871 2.55219
80 2 0.158148 2.31813 2.29054 5.50466
79 2 0.222649 4.00456 2.63974 6.46987
83 2 0.204059 1.36873 0.58682 7.96741
82 2 0.169972 2.81597 1.48795 7.05192
284 2 0.13192 1.74919 0.305662 0.178737
47 1 -0.664744 2.50448 0.742593 8.0039
117 3 -0.751309 5.89108 1.10365 5.12383
87 2 0.155284 3.52167 0.2434 1.82558
322 2 0.146128 7.42634 0.215 0.889976
312 2 0.0535212 3.07757 0.168652 3.93078
28 4 1.44894 7.26244 1.38208 6.17022
267 3 -0.829881 4.12652 5.73011 0.886977
12 2 0.145033 2.13892 3.23633 2.83244
31 4 1.26187 5.89571 3.26528 8.38786
98 2 0.138809 5.37449 4.47869 4.79572
174 2 0.167084 11.0872 5.58249 5.50336
118 3 -0.81216 7.77614 -0.0614581 6.64048
123 3 -0.817022 6.75698 2.45637 7.32248
124 3 -0.72184 4.88587 4.67484 7.49641
128 3 -0.800544 8.36698 2.11423 5.09592
264 2 -0.0208197 6.0292 5.40618 2.79049
97 2 0.134934 4.65815 6.20471 3.80773
52 1 -0.647831 5.33579 5.71964 4.63045
69 2 0.00260076 10.5599 5.48326 3.26703
266 3 -0.770611 5.63537 3.60137 0.89003
263 4 0.947532 5.03139 4.67175 1.66538
108 2 0.204637 8.85738 4.85361 5.93208
140 3 -0.787757 9.99844 4.78032 8.24696
32 4 0.814424 4.35058 5.7054 6.45209
325 2 0.121928 9.8689 6.3932 0.964761
21 4 1.4934 2.6819 -1.15639 13.0243
122 3 -0.788672 4.79934 2.36408 9.01433
171 2 0.104828 2.84684 3.57051 11.7974
121 3 -0.75697 2.759 0.817577 16.1114
125 3 -0.816598 4.73729 2.09619 14.4158
116 3 -0.775476 2.5871 1.99725 10.9935
120 3 -0.779958 5.21612 -0.102996 15.9049
113 3 -0.844848 1.68892 -0.297882 12.0717
86 2 0.229962 4.4555 -0.342713 11.3234
119 3 -0.827672 3.59696 -0.116976 13.7936
85 2 0.159576 4.40242 -0.928069 9.41713
283 1 -0.661044 0.973308 -1.08478 16.8756
285 2 0.276954 1.17303 -1.49531 15.8016
84 2 0.213676 5.83887 0.0893867 10.1315
19 4 0.770706 1.63388 0.565039 17.1808
25 4 1.18714 6.16285 0.225213 17.1325
29 4 1.53612 4.08245 0.717924 15.0027
48 1 -0.664731 4.73178 -0.100235 10.2115
27 4 1.03292 3.67116 1.2749 9.58342
168 2 0.0235082 1.61444 -0.633558 9.16689
33 4 0.99027 5.71209 3.23746 14.0231
50 1 -0.679895 6.95037 4.02733 9.73155
53 1 -0.659319 7.27726 2.96445 12.7065
63 2 0.0335348 5.55458 3.66128 12.2897
251 1 -0.670643 9.83586 4.71887 11.7169
66 2 -0.0101667 8.55342 1.95297 11.5637
67 2 0.0535873 9.59127 1.902 14.7457
91 2 0.200431 7.97625 3.72331 9.19282
92 2 0.175858 6.91471 3.65172 10.8224
99 2 0.163162 8.17281 3.52322 12.2348
100 2 0.149084 6.99484 2.06209 12.1128
281 2 0.0182509 8.68824 3.74345 16.7559
101 2 0.0997762 7.53326 2.61855 13.9949