LAMMPS (2 Aug 2023 - Update 2)
OMP_NUM_THREADS environment is not set. Defaulting to 1 thread. (src/comm.cpp:98)
  using 1 OpenMP thread(s) per MPI task
Reading data file ...
  triclinic box = (0 0 0) to (15.7087 13.0868 17.5248) with tilt (-8.2042 -0.1458 -2.0056)
WARNING: Triclinic box skew is large. LAMMPS will run inefficiently. (src/domain.cpp:220)
  2 by 2 by 2 MPI processor grid
  reading atoms ...
  331 atoms
Finding 1-2 1-3 1-4 neighbors ...
  special bond factors lj:    0        0        0       
  special bond factors coul:  0        0        0       
     0 = max # of 1-2 neighbors
     0 = max # of 1-3 neighbors
     0 = max # of 1-4 neighbors
     1 = max # of special neighbors
  special bonds CPU = 0.001 seconds
  read_data CPU = 0.008 seconds
*****Minimization starts.*****
Setting up cg style minimization ...
  Unit style    : real
  Current step  : 0
WARNING: No pairwise cutoff or binsize set. Atom sorting therefore disabled. (src/atom.cpp:2366)
WARNING: Communication cutoff is 0.0. No ghost atoms will be generated. Atoms may get lost. (src/comm_brick.cpp:210)
Per MPI rank memory allocation (min/avg/max) = 6.365 | 6.365 | 6.365 Mbytes
   Step          Temp          E_pair         E_mol          TotEng         Press     
         0   0              0              0              0              0            
         1   0              0              0              0              0            
Loop time of 0.000259775 on 8 procs for 1 steps with 331 atoms

95.9% CPU use with 8 MPI tasks x 1 OpenMP threads

Minimization stats:
  Stopping criterion = search direction is not downhill
  Energy initial, next-to-last, final = 
                     0                  0                  0
  Force two-norm initial, final = 0 0
  Force max component initial, final = 0 0
  Final line search alpha, max atom move = 0 0
  Iterations, force evaluations = 1 0

MPI task timing breakdown:
Section |  min time  |  avg time  |  max time  |%varavg| %total
---------------------------------------------------------------
Pair    | 0          | 0          | 0          |   0.0 |  0.00
Bond    | 1.885e-06  | 2.1301e-06 | 2.863e-06  |   0.0 |  0.82
Neigh   | 0          | 0          | 0          |   0.0 |  0.00
Comm    | 4.331e-06  | 4.7758e-06 | 5.378e-06  |   0.0 |  1.84
Output  | 0          | 0          | 0          |   0.0 |  0.00
Modify  | 0          | 0          | 0          |   0.0 |  0.00
Other   |            | 0.0002529  |            |       | 97.34

Nlocal:         41.375 ave          44 max          36 min
Histogram: 1 0 0 0 0 1 1 2 2 1
Nghost:              0 ave           0 max           0 min
Histogram: 8 0 0 0 0 0 0 0 0 0
Neighs:              0 ave           0 max           0 min
Histogram: 8 0 0 0 0 0 0 0 0 0

Total # of neighbors = 0
Ave neighs/atom = 0
Ave special neighs/atom = 0
Neighbor list builds = 0
Dangerous builds = 0
System init for write_data ...
WARNING: Communication cutoff is 0.0. No ghost atoms will be generated. Atoms may get lost. (src/comm_brick.cpp:210)

CITE-CITE-CITE-CITE-CITE-CITE-CITE-CITE-CITE-CITE-CITE-CITE-CITE

Your simulation uses code contributions which should be cited:
- pair reaxff command: doi:10.1016/j.parco.2011.08.005
- fix qeq/reaxff command: doi:10.1016/j.parco.2011.08.005
The log file lists these citations in BibTeX format.

CITE-CITE-CITE-CITE-CITE-CITE-CITE-CITE-CITE-CITE-CITE-CITE-CITE

WARNING: Fix qeq/reaxff group is not charge neutral, net charge = 27.88 (src/REAXFF/fix_qeq_reaxff.cpp:392)
Neighbor list info ...
  update: every = 10 steps, delay = 0 steps, check = no
  max neighbors/atom: 2000, page size: 100000
  master list distance cutoff = 12
  ghost atom cutoff = 12
  binsize = 6, bins = 5 3 3
  2 neighbor lists, perpetual/occasional/extra = 2 0 0
  (1) pair reaxff, perpetual
      attributes: half, newton off, ghost
      pair build: half/bin/newtoff/ghost
      stencil: full/ghost/bin/3d
      bin: standard
  (2) fix qeq/reaxff, perpetual, copy from (1)
      attributes: half, newton off
      pair build: copy
      stencil: none
      bin: none
Setting up Verlet run ...
  Unit style    : real
  Current step  : 0
  Time step     : 0.5
Per MPI rank memory allocation (min/avg/max) = 127.6 | 129.1 | 130.3 Mbytes
   Step          Temp          PotEng         Press         Density         Volume    
         0   300           -34729.82       144799.92      1.400369       3602.6891    
       100   683.66303     -35479.052     -48952.942      1.400369       3602.6891    
       200   557.24668     -35756.544     -838.30449      1.400369       3602.6891    
       300   515.08152     -36024.756     -5808.8384      1.400369       3602.6891    
       400   395.61044     -36139.869      1395.4697      1.400369       3602.6891    
       500   318.9385      -36218.976     -2853.1074      1.400369       3602.6891    
       600   284.58968     -36279.633      5524.3292      1.400369       3602.6891    
       700   285.48872     -36328.483      6216.625       1.400369       3602.6891    
       800   288.55366     -36341.687      2559.8857      1.400369       3602.6891    
       900   322.34913     -36379.972     -4094.4895      1.400369       3602.6891    
      1000   295.99187     -36379.935     -5670.8963      1.400369       3602.6891    
      1100   282.57744     -36389.632     -7174.3333      1.400369       3602.6891    
      1200   297.28283     -36410.028      6527.6548      1.400369       3602.6891    
      1300   303.26915     -36411.976     -7382.3597      1.400369       3602.6891    
      1400   308.31364     -36403.592      116.35074      1.400369       3602.6891    
      1500   315.73557     -36410.382      329.37542      1.400369       3602.6891    
      1600   299.53601     -36415.528      1486.4851      1.400369       3602.6891    
      1700   290.05467     -36434.971      1072.1344      1.400369       3602.6891    
      1800   295.7381      -36463.807      6978.3378      1.400369       3602.6891    
      1900   285.26095     -36458.835     -12195.951      1.400369       3602.6891    
      2000   285.14666     -36441.433      6852.6924      1.400369       3602.6891    
      2100   303.76878     -36433.79      -1863.1267      1.400369       3602.6891    
      2200   295.01381     -36416.532      12889.822      1.400369       3602.6891    
      2300   321.788       -36454.543     -2963.6295      1.400369       3602.6891    
      2400   282.77026     -36453.697     -9688.1937      1.400369       3602.6891    
      2500   271.13023     -36470.617     -2297.1504      1.400369       3602.6891    
      2600   293.87403     -36495.424     -8256.1311      1.400369       3602.6891    
      2700   311.72014     -36493         -15391.179      1.400369       3602.6891    
      2800   312.48503     -36475.447      13835.569      1.400369       3602.6891    
      2900   314.4891      -36475.978     -10566.912      1.400369       3602.6891    
      3000   288.05611     -36468.165     -16904.071      1.400369       3602.6891    
Loop time of 145.024 on 8 procs for 3000 steps with 331 atoms

Performance: 0.894 ns/day, 26.856 hours/ns, 20.686 timesteps/s, 6.847 katom-step/s
98.7% CPU use with 8 MPI tasks x 1 OpenMP threads

MPI task timing breakdown:
Section |  min time  |  avg time  |  max time  |%varavg| %total
---------------------------------------------------------------
Pair    | 101.51     | 112.62     | 120.87     |  71.2 | 77.66
Bond    | 0.0081464  | 0.0089517  | 0.0095878  |   0.5 |  0.01
Neigh   | 8.2213     | 8.983      | 9.5435     |  14.4 |  6.19
Comm    | 1.8297     | 10.063     | 21.149     | 238.3 |  6.94
Output  | 0.0016563  | 0.0017942  | 0.0027051  |   0.8 |  0.00
Modify  | 12.72      | 13.275     | 14.068     |  12.0 |  9.15
Other   |            | 0.0723     |            |       |  0.05

Nlocal:         41.375 ave          51 max          33 min
Histogram: 1 0 2 1 0 1 2 0 0 1
Nghost:        3256.12 ave        3290 max        3215 min
Histogram: 1 1 0 1 0 1 1 0 2 1
Neighs:        26627.4 ave       32490 max       21396 min
Histogram: 1 0 1 1 1 1 2 0 0 1

Total # of neighbors = 213019
Ave neighs/atom = 643.56193
Ave special neighs/atom = 0
Neighbor list builds = 300
Dangerous builds not checked
System init for write_data ...
System init for write_restart ...
OMP_NUM_THREADS environment is not set. Defaulting to 1 thread. (src/comm.cpp:98)
  using 1 OpenMP thread(s) per MPI task
Reading restart file ...
  restart file = 2 Aug 2023, LAMMPS = 2 Aug 2023
  restoring atom style full from restart
  triclinic box = (0 0 0) to (15.7087 13.0868 17.5248) with tilt (-8.2042 -0.1458 -2.0056)
WARNING: Triclinic box skew is large. LAMMPS will run inefficiently. (src/domain.cpp:220)
  2 by 2 by 2 MPI processor grid
  pair style reaxff stores no restart info
  331 atoms
Finding 1-2 1-3 1-4 neighbors ...
  special bond factors lj:    0        0        0       
  special bond factors coul:  0        0        0       
     0 = max # of 1-2 neighbors
     0 = max # of 1-3 neighbors
     0 = max # of 1-4 neighbors
     1 = max # of special neighbors
  special bonds CPU = 0.000 seconds
  read_restart CPU = 0.003 seconds
*****debug*****
xy = -8.2042000000000001592, deltaxy = 0.082042
xz = -0.14580000000000001292, deltaxz = 0.001458
yz = -2.0055999999999998273, deltayz = 0.020056
*****
*****Negative-deform 1 starts.*****
Resetting global fix info from restart file:
  fix style: nvt, fix ID: fnvt
All restart file global fix info was re-assigned
Neighbor list info ...
  update: every = 10 steps, delay = 0 steps, check = no
  max neighbors/atom: 2000, page size: 100000
  master list distance cutoff = 12
  ghost atom cutoff = 12
  binsize = 6, bins = 5 3 3
  2 neighbor lists, perpetual/occasional/extra = 2 0 0
  (1) pair reaxff, perpetual
      attributes: half, newton off, ghost
      pair build: half/bin/newtoff/ghost
      stencil: full/ghost/bin/3d
      bin: standard
  (2) fix qeq/reaxff, perpetual, copy from (1)
      attributes: half, newton off
      pair build: copy
      stencil: none
      bin: none
Setting up Verlet run ...
  Unit style    : real
  Current step  : 0
  Time step     : 0.5
Per MPI rank memory allocation (min/avg/max) = 124.7 | 126.3 | 127.8 Mbytes
   Step          Temp          PotEng         Press         Density         Volume    
         0   288.05611     -36468.165     -16904.122      1.400369       3602.6891    
       100   296.71683     -36497.819     -11403.32       1.4008359      3601.4882    
       200   290.50952     -36507.641      4566.4262      1.4013032      3600.2873    
       300   303.47195     -36509.962     -2852.2593      1.4017708      3599.0864    
       400   294.68236     -36483.073     -6746.0529      1.4022386      3597.8855    
       500   299.49941     -36474.719     -1684.7477      1.4027068      3596.6846    
       600   294.89938     -36470.794     -3340.5451      1.4031753      3595.4837    
       700   322.81856     -36505.248     -5457.251       1.4036442      3594.2828    
       800   308.28866     -36513.954     -7603.8742      1.4041133      3593.0819    
       900   289.45462     -36523.215      4939.3633      1.4045827      3591.881     
      1000   283.68668     -36524.445     -4066.4303      1.4050525      3590.6801    
      1100   254.24105     -36479.87      -9154.0953      1.4055226      3589.4792    
      1200   321.95662     -36506.853     -9954.2268      1.405993       3588.2783    
      1300   309.8692      -36480.555      12504.347      1.4064637      3587.0774    
      1400   323.99421     -36503.803      7276.8778      1.4069347      3585.8765    
      1500   305.7949      -36512.525      12157.764      1.407406       3584.6756    
      1600   289.95157     -36523.128     -3650.2057      1.4078777      3583.4747    
      1700   299.88402     -36546.969     -4044.5313      1.4083496      3582.2738    
      1800   295.57278     -36533.231      2351.2076      1.4088219      3581.0729    
      1900   314.67533     -36523.351     -1877.8196      1.4092945      3579.872     
      2000   312.37817     -36514.621      5586.764       1.4097674      3578.6711    
      2100   316.59072     -36529.54      -7039.745       1.4102407      3577.4702    
      2200   282.97924     -36518.655      7924.8349      1.4107142      3576.2693    
      2300   264.86936     -36533.154      2735.0087      1.4111881      3575.0684    
      2400   281.2572      -36543.211     -1065.6744      1.4116623      3573.8676    
      2500   283.3376      -36523.327      3535.2025      1.4121368      3572.6667    
      2600   302.34516     -36524.271     -5928.2307      1.4126116      3571.4658    
      2700   308.55549     -36517.389      4073.5368      1.4130868      3570.2649    
      2800   309.36615     -36518.485      2469.5508      1.4135622      3569.064     
      2900   288.59377     -36525.501      4388.9843      1.414038       3567.8631    
      3000   282.70559     -36534.13       1919.8879      1.4145141      3566.6622    
Loop time of 149.722 on 8 procs for 3000 steps with 331 atoms

Performance: 0.866 ns/day, 27.726 hours/ns, 20.037 timesteps/s, 6.632 katom-step/s
98.8% CPU use with 8 MPI tasks x 1 OpenMP threads

MPI task timing breakdown:
Section |  min time  |  avg time  |  max time  |%varavg| %total
---------------------------------------------------------------
Pair    | 105.3      | 118.37     | 124.19     |  54.5 | 79.06
Bond    | 0.0078498  | 0.0088774  | 0.0096064  |   0.6 |  0.01
Neigh   | 9.3173     | 10.316     | 10.993     |  13.9 |  6.89
Comm    | 1.509      | 7.3393     | 20.382     | 218.9 |  4.90
Output  | 0.0094059  | 0.010836   | 0.011988   |   0.9 |  0.01
Modify  | 12.918     | 13.601     | 14.629     |  12.4 |  9.08
Other   |            | 0.07891    |            |       |  0.05

Nlocal:         41.375 ave          47 max          35 min
Histogram: 2 1 0 0 0 1 1 0 1 2
Nghost:         3291.5 ave        3339 max        3262 min
Histogram: 3 1 0 1 0 1 0 0 1 1
Neighs:        26885.8 ave       30430 max       22894 min
Histogram: 1 2 0 0 0 1 1 0 1 2

Total # of neighbors = 215086
Ave neighs/atom = 649.80665
Ave special neighs/atom = 0
Neighbor list builds = 300
Dangerous builds not checked
OMP_NUM_THREADS environment is not set. Defaulting to 1 thread. (src/comm.cpp:98)
  using 1 OpenMP thread(s) per MPI task
Reading restart file ...
  restart file = 2 Aug 2023, LAMMPS = 2 Aug 2023
  restoring atom style full from restart
  triclinic box = (0 0 0) to (15.7087 13.0868 17.5248) with tilt (-8.2042 -0.1458 -2.0056)
WARNING: Triclinic box skew is large. LAMMPS will run inefficiently. (src/domain.cpp:220)
  2 by 2 by 2 MPI processor grid
  pair style reaxff stores no restart info
  331 atoms
Finding 1-2 1-3 1-4 neighbors ...
  special bond factors lj:    0        0        0       
  special bond factors coul:  0        0        0       
     0 = max # of 1-2 neighbors
     0 = max # of 1-3 neighbors
     0 = max # of 1-4 neighbors
     1 = max # of special neighbors
  special bonds CPU = 0.000 seconds
  read_restart CPU = 0.003 seconds
*****Positive-deform 1 starts.*****
Resetting global fix info from restart file:
  fix style: nvt, fix ID: fnvt
All restart file global fix info was re-assigned
Neighbor list info ...
  update: every = 10 steps, delay = 0 steps, check = no
  max neighbors/atom: 2000, page size: 100000
  master list distance cutoff = 12
  ghost atom cutoff = 12
  binsize = 6, bins = 5 3 3
  2 neighbor lists, perpetual/occasional/extra = 2 0 0
  (1) pair reaxff, perpetual
      attributes: half, newton off, ghost
      pair build: half/bin/newtoff/ghost
      stencil: full/ghost/bin/3d
      bin: standard
  (2) fix qeq/reaxff, perpetual, copy from (1)
      attributes: half, newton off
      pair build: copy
      stencil: none
      bin: none
Setting up Verlet run ...
  Unit style    : real
  Current step  : 0
  Time step     : 0.5
Per MPI rank memory allocation (min/avg/max) = 124.7 | 126.3 | 127.8 Mbytes
   Step          Temp          PotEng         Press         Density         Volume    
         0   288.05611     -36468.165     -16904.122      1.400369       3602.6891    
       100   296.69259     -36497.803     -11361.7        1.3999023      3603.89      
       200   291.69843     -36509.128      3866.2596      1.399436       3605.0909    
       300   300.52153     -36507.462     -10427.14       1.39897        3606.2918    
       400   295.22188     -36482.175     -7167.2428      1.3985043      3607.4927    
       500   302.40141     -36474.991      8262.1946      1.3980389      3608.6935    
       600   301.22965     -36477.18      -7362.6072      1.3975738      3609.8944    
       700   323.16521     -36503.947     -2949.9918      1.3971091      3611.0953    
       800   300.14597     -36503.783     -7731.7522      1.3966446      3612.2962    
       900   285.57187     -36518.305     -5977.8401      1.3961804      3613.4971    
      1000   266.9821      -36512.754     -2300.5815      1.3957166      3614.698     
      1100   297.20271     -36520.337     -17410.906      1.3952531      3615.8989    
      1200   318.1879      -36514.061     -13563.571      1.3947898      3617.0998    
      1300   306.90446     -36491.346      5998.9066      1.3943269      3618.3007    
      1400   299.4476      -36489.456      2640.712       1.3938643      3619.5016    
      1500   327.77847     -36534.695     -14593.761      1.393402       3620.7025    
      1600   295.75653     -36524.898     -4688.0763      1.39294        3621.9034    
      1700   275.92907     -36519.629     -4458.3709      1.3924783      3623.1043    
      1800   290.50027     -36524.055      5952.6755      1.3920169      3624.3052    
      1900   304.93548     -36508.986      3047.4018      1.3915558      3625.5061    
      2000   302.96609     -36506.177     -9019.9162      1.391095       3626.707     
      2100   291.60539     -36510.728     -4459.4526      1.3906345      3627.9079    
      2200   298.30384     -36530.069     -11231.967      1.3901744      3629.1088    
      2300   309.55008     -36563.487     -2547.185       1.3897145      3630.3097    
      2400   277.62224     -36565.798     -9703.3398      1.3892549      3631.5106    
      2500   270.93173     -36543.791     -16505.344      1.3887957      3632.7115    
      2600   302.45174     -36543.9        2960.3166      1.3883367      3633.9124    
      2700   307.88753     -36525.498     -948.41294      1.3878781      3635.1133    
      2800   318.08658     -36527.044     -2505.1019      1.3874197      3636.3142    
      2900   318.24446     -36539.253     -3447.4554      1.3869617      3637.5151    
      3000   289.14085     -36536.108     -8973.698       1.3865039      3638.716     
Loop time of 148.519 on 8 procs for 3000 steps with 331 atoms

Performance: 0.873 ns/day, 27.504 hours/ns, 20.199 timesteps/s, 6.686 katom-step/s
98.0% CPU use with 8 MPI tasks x 1 OpenMP threads

MPI task timing breakdown:
Section |  min time  |  avg time  |  max time  |%varavg| %total
---------------------------------------------------------------
Pair    | 93.993     | 111.98     | 120.38     |  70.3 | 75.40
Bond    | 0.0079596  | 0.0089021  | 0.0095511  |   0.5 |  0.01
Neigh   | 8.2388     | 10.015     | 10.664     |  22.6 |  6.74
Comm    | 3.1531     | 11.542     | 29.522     | 218.8 |  7.77
Output  | 0.010309   | 0.011964   | 0.013305   |   0.9 |  0.01
Modify  | 14.217     | 14.881     | 16.671     |  19.1 | 10.02
Other   |            | 0.07668    |            |       |  0.05

Nlocal:         41.375 ave          51 max          29 min
Histogram: 1 0 1 0 1 2 0 0 1 2
Nghost:        3178.25 ave        3198 max        3144 min
Histogram: 1 0 0 0 2 1 0 1 0 3
Neighs:        26365.6 ave       32167 max       18894 min
Histogram: 1 0 1 0 1 2 0 0 1 2

Total # of neighbors = 210925
Ave neighs/atom = 637.23565
Ave special neighs/atom = 0
Neighbor list builds = 300
Dangerous builds not checked
OMP_NUM_THREADS environment is not set. Defaulting to 1 thread. (src/comm.cpp:98)
  using 1 OpenMP thread(s) per MPI task
Reading restart file ...
  restart file = 2 Aug 2023, LAMMPS = 2 Aug 2023
  restoring atom style full from restart
  triclinic box = (0 0 0) to (15.7087 13.0868 17.5248) with tilt (-8.2042 -0.1458 -2.0056)
WARNING: Triclinic box skew is large. LAMMPS will run inefficiently. (src/domain.cpp:220)
  2 by 2 by 2 MPI processor grid
  pair style reaxff stores no restart info
  331 atoms
Finding 1-2 1-3 1-4 neighbors ...
  special bond factors lj:    0        0        0       
  special bond factors coul:  0        0        0       
     0 = max # of 1-2 neighbors
     0 = max # of 1-3 neighbors
     0 = max # of 1-4 neighbors
     1 = max # of special neighbors
  special bonds CPU = 0.000 seconds
  read_restart CPU = 0.003 seconds
*****debug*****
xy = -8.2042000000000001592, deltaxy = 0.082042
xz = -0.14580000000000001292, deltaxz = 0.001458
yz = -2.0055999999999998273, deltayz = 0.020056
*****
*****Negative-deform 2 starts.*****
Resetting global fix info from restart file:
  fix style: nvt, fix ID: fnvt
All restart file global fix info was re-assigned
Neighbor list info ...
  update: every = 10 steps, delay = 0 steps, check = no
  max neighbors/atom: 2000, page size: 100000
  master list distance cutoff = 12
  ghost atom cutoff = 12
  binsize = 6, bins = 5 3 3
  2 neighbor lists, perpetual/occasional/extra = 2 0 0
  (1) pair reaxff, perpetual
      attributes: half, newton off, ghost
      pair build: half/bin/newtoff/ghost
      stencil: full/ghost/bin/3d
      bin: standard
  (2) fix qeq/reaxff, perpetual, copy from (1)
      attributes: half, newton off
      pair build: copy
      stencil: none
      bin: none
Setting up Verlet run ...
  Unit style    : real
  Current step  : 0
  Time step     : 0.5
Per MPI rank memory allocation (min/avg/max) = 124.7 | 126.3 | 127.8 Mbytes
   Step          Temp          PotEng         Press         Density         Volume    
         0   288.05611     -36468.165     -16904.122      1.400369       3602.6891    
       100   296.75712     -36497.793     -11437.949      1.4008359      3601.4882    
       200   290.17124     -36507.861      3497.8442      1.4013032      3600.2873    
       300   303.74712     -36509.807     -4112.7702      1.4017708      3599.0864    
       400   291.71102     -36479.698     -7354.4241      1.4022386      3597.8855    
       500   299.85487     -36474.452      4057.9349      1.4027068      3596.6846    
       600   304.4864      -36476.445     -1029.7591      1.4031753      3595.4837    
       700   305.78069     -36483.691     -10534.234      1.4036442      3594.2828    
       800   306.52574     -36508.255     -3739.0755      1.4041133      3593.0819    
       900   291.09844     -36519.533     -1568.0721      1.4045827      3591.881     
      1000   274.46987     -36506.146     -5618.9078      1.4050525      3590.6801    
      1100   305.91922     -36517.179     -5384.0592      1.4055226      3589.4792    
      1200   306.92125     -36503.1       -13854.962      1.405993       3588.2783    
      1300   309.2582      -36503.36      -9784.8402      1.4064637      3587.0774    
      1400   296.45375     -36490.487     -2827.292       1.4069347      3585.8765    
      1500   280.74511     -36482.036     -1552.6238      1.407406       3584.6756    
      1600   294.37489     -36511.333      7944.6493      1.4078777      3583.4747    
      1700   285.17321     -36511.375     -7072.6547      1.4083496      3582.2738    
      1800   307.10864     -36526.451     -3787.8909      1.4088219      3581.0729    
      1900   311.50581     -36523.741     -2436.7514      1.4092945      3579.872     
      2000   303.96403     -36512.003     -11701.949      1.4097674      3578.6711    
      2100   299.86208     -36494.824     -2439.1798      1.4102407      3577.4702    
      2200   331.32593     -36515.915      11241.952      1.4107142      3576.2693    
      2300   294.73637     -36501.711     -4071.6841      1.4111881      3575.0684    
      2400   302.72728     -36530.121     -4837.0461      1.4116623      3573.8676    
      2500   303.15631     -36529.814      11109.788      1.4121368      3572.6667    
      2600   321.11942     -36551.914     -1700.4337      1.4126116      3571.4658    
      2700   282.27163     -36550.176     -5381.7365      1.4130868      3570.2649    
      2800   281.84965     -36550.387      6536.6812      1.4135622      3569.064     
      2900   306.01458     -36556.725     -5294.727       1.414038       3567.8631    
      3000   301.56996     -36537.333     -6834.1885      1.4145141      3566.6622    
Loop time of 148.536 on 8 procs for 3000 steps with 331 atoms

Performance: 0.873 ns/day, 27.507 hours/ns, 20.197 timesteps/s, 6.685 katom-step/s
98.9% CPU use with 8 MPI tasks x 1 OpenMP threads

MPI task timing breakdown:
Section |  min time  |  avg time  |  max time  |%varavg| %total
---------------------------------------------------------------
Pair    | 99.429     | 116.38     | 123.59     |  67.9 | 78.35
Bond    | 0.0080821  | 0.008995   | 0.0095786  |   0.6 |  0.01
Neigh   | 8.0813     | 8.9856     | 9.3265     |  13.3 |  6.05
Comm    | 2.4461     | 9.6647     | 26.613     | 235.5 |  6.51
Output  | 0.0099386  | 0.011179   | 0.012246   |   0.9 |  0.01
Modify  | 13.085     | 13.413     | 14.323     |  10.9 |  9.03
Other   |            | 0.07468    |            |       |  0.05

Nlocal:         41.375 ave          47 max          36 min
Histogram: 1 1 1 1 0 1 0 1 1 1
Nghost:         3271.5 ave        3313 max        3230 min
Histogram: 1 0 1 1 1 2 0 0 0 2
Neighs:        26911.2 ave       30277 max       23672 min
Histogram: 1 1 1 1 0 1 0 1 1 1

Total # of neighbors = 215290
Ave neighs/atom = 650.42296
Ave special neighs/atom = 0
Neighbor list builds = 300
Dangerous builds not checked
OMP_NUM_THREADS environment is not set. Defaulting to 1 thread. (src/comm.cpp:98)
  using 1 OpenMP thread(s) per MPI task
Reading restart file ...
  restart file = 2 Aug 2023, LAMMPS = 2 Aug 2023
  restoring atom style full from restart
  triclinic box = (0 0 0) to (15.7087 13.0868 17.5248) with tilt (-8.2042 -0.1458 -2.0056)
WARNING: Triclinic box skew is large. LAMMPS will run inefficiently. (src/domain.cpp:220)
  2 by 2 by 2 MPI processor grid
  pair style reaxff stores no restart info
  331 atoms
Finding 1-2 1-3 1-4 neighbors ...
  special bond factors lj:    0        0        0       
  special bond factors coul:  0        0        0       
     0 = max # of 1-2 neighbors
     0 = max # of 1-3 neighbors
     0 = max # of 1-4 neighbors
     1 = max # of special neighbors
  special bonds CPU = 0.000 seconds
  read_restart CPU = 0.003 seconds
*****Positive-deform 2 starts.*****
Resetting global fix info from restart file:
  fix style: nvt, fix ID: fnvt
All restart file global fix info was re-assigned
Neighbor list info ...
  update: every = 10 steps, delay = 0 steps, check = no
  max neighbors/atom: 2000, page size: 100000
  master list distance cutoff = 12
  ghost atom cutoff = 12
  binsize = 6, bins = 5 3 3
  2 neighbor lists, perpetual/occasional/extra = 2 0 0
  (1) pair reaxff, perpetual
      attributes: half, newton off, ghost
      pair build: half/bin/newtoff/ghost
      stencil: full/ghost/bin/3d
      bin: standard
  (2) fix qeq/reaxff, perpetual, copy from (1)
      attributes: half, newton off
      pair build: copy
      stencil: none
      bin: none
Setting up Verlet run ...
  Unit style    : real
  Current step  : 0
  Time step     : 0.5
Per MPI rank memory allocation (min/avg/max) = 124.7 | 126.3 | 127.8 Mbytes
   Step          Temp          PotEng         Press         Density         Volume    
         0   288.05611     -36468.165     -16904.122      1.400369       3602.6891    
       100   296.63077     -36497.809     -11350.747      1.3999023      3603.89      
       200   291.16678     -36508.119      5409.602       1.399436       3605.0909    
       300   301.79422     -36509.069     -5903.5999      1.39897        3606.2918    
       400   286.92303     -36474.674     -3794.11        1.3985043      3607.4927    
       500   308.13477     -36479.198      4494.9666      1.3980389      3608.6935    
       600   311.52098     -36480.701      2850.7031      1.3975738      3609.8944    
       700   317.22076     -36493.879     -10435.219      1.3971091      3611.0953    
       800   298.89845     -36502.652     -1861.9443      1.3966446      3612.2962    
       900   281.69531     -36513.211     -11885.017      1.3961804      3613.4971    
      1000   299.45545     -36534.537     -2522.7211      1.3957166      3614.698     
      1100   284.17664     -36498.619     -2203.3099      1.3952531      3615.8989    
      1200   309.04027     -36491.778     -8431.3986      1.3947898      3617.0998    
      1300   330.96494     -36503.269     -13500.174      1.3943269      3618.3007    
      1400   304.16905     -36490.822      3285.5898      1.3938643      3619.5016    
      1500   296.8738      -36501.92       5446.0898      1.393402       3620.7025    
      1600   299.47802     -36516.065     -5970.83        1.39294        3621.9034    
      1700   309.92211     -36519.236      1183.1445      1.3924783      3623.1043    
      1800   302.42376     -36485.311      2428.1043      1.3920169      3624.3052    
      1900   302.59625     -36476.112      9457.4388      1.3915558      3625.5061    
      2000   304.82799     -36496.324      4717.6843      1.391095       3626.707     
      2100   296.74331     -36510.118      3311.2188      1.3906345      3627.9079    
      2200   283.92414     -36501.631      1041.6936      1.3901744      3629.1088    
      2300   310.235       -36520.748     -8919.691       1.3897145      3630.3097    
      2400   318.40993     -36525.042     -9510.9094      1.3892549      3631.5106    
      2500   297.31072     -36503.876     -6010.2683      1.3887957      3632.7115    
      2600   301.79828     -36519.881     -14942.648      1.3883367      3633.9124    
      2700   280.29665     -36518.682     -924.17075      1.3878781      3635.1133    
      2800   280.22253     -36522.266     -9758.8534      1.3874197      3636.3142    
      2900   301.84184     -36515.385      868.74287      1.3869617      3637.5151    
      3000   303.99904     -36499.811      703.47642      1.3865039      3638.716     
Loop time of 144.754 on 8 procs for 3000 steps with 331 atoms

Performance: 0.895 ns/day, 26.806 hours/ns, 20.725 timesteps/s, 6.860 katom-step/s
98.9% CPU use with 8 MPI tasks x 1 OpenMP threads

MPI task timing breakdown:
Section |  min time  |  avg time  |  max time  |%varavg| %total
---------------------------------------------------------------
Pair    | 95.536     | 113.42     | 119.55     |  71.4 | 78.35
Bond    | 0.0083119  | 0.0089447  | 0.0097451  |   0.5 |  0.01
Neigh   | 8.8412     | 9.9893     | 10.3       |  14.1 |  6.90
Comm    | 2.0027     | 8.1456     | 26.029     | 266.8 |  5.63
Output  | 0.010147   | 0.011615   | 0.01276    |   0.9 |  0.01
Modify  | 12.798     | 13.1       | 14.254     |  12.3 |  9.05
Other   |            | 0.07651    |            |       |  0.05

Nlocal:         41.375 ave          50 max          32 min
Histogram: 1 1 0 0 0 3 1 0 1 1
Nghost:        3176.88 ave        3200 max        3146 min
Histogram: 1 0 0 1 1 0 3 0 1 1
Neighs:        26338.2 ave       31509 max       20741 min
Histogram: 1 1 0 0 1 2 1 0 1 1

Total # of neighbors = 210706
Ave neighs/atom = 636.57402
Ave special neighs/atom = 0
Neighbor list builds = 300
Dangerous builds not checked
OMP_NUM_THREADS environment is not set. Defaulting to 1 thread. (src/comm.cpp:98)
  using 1 OpenMP thread(s) per MPI task
Reading restart file ...
  restart file = 2 Aug 2023, LAMMPS = 2 Aug 2023
  restoring atom style full from restart
  triclinic box = (0 0 0) to (15.7087 13.0868 17.5248) with tilt (-8.2042 -0.1458 -2.0056)
WARNING: Triclinic box skew is large. LAMMPS will run inefficiently. (src/domain.cpp:220)
  2 by 2 by 2 MPI processor grid
  pair style reaxff stores no restart info
  331 atoms
Finding 1-2 1-3 1-4 neighbors ...
  special bond factors lj:    0        0        0       
  special bond factors coul:  0        0        0       
     0 = max # of 1-2 neighbors
     0 = max # of 1-3 neighbors
     0 = max # of 1-4 neighbors
     1 = max # of special neighbors
  special bonds CPU = 0.000 seconds
  read_restart CPU = 0.003 seconds
*****debug*****
xy = -8.2042000000000001592, deltaxy = 0.082042
xz = -0.14580000000000001292, deltaxz = 0.001458
yz = -2.0055999999999998273, deltayz = 0.020056
*****
*****Negative-deform 3 starts.*****
Resetting global fix info from restart file:
  fix style: nvt, fix ID: fnvt
All restart file global fix info was re-assigned
Neighbor list info ...
  update: every = 10 steps, delay = 0 steps, check = no
  max neighbors/atom: 2000, page size: 100000
  master list distance cutoff = 12
  ghost atom cutoff = 12
  binsize = 6, bins = 5 3 3
  2 neighbor lists, perpetual/occasional/extra = 2 0 0
  (1) pair reaxff, perpetual
      attributes: half, newton off, ghost
      pair build: half/bin/newtoff/ghost
      stencil: full/ghost/bin/3d
      bin: standard
  (2) fix qeq/reaxff, perpetual, copy from (1)
      attributes: half, newton off
      pair build: copy
      stencil: none
      bin: none
Setting up Verlet run ...
  Unit style    : real
  Current step  : 0
  Time step     : 0.5
Per MPI rank memory allocation (min/avg/max) = 124.7 | 126.3 | 127.8 Mbytes
   Step          Temp          PotEng         Press         Density         Volume    
         0   288.05611     -36468.165     -16904.122      1.400369       3602.6891    
       100   296.71391     -36497.805     -11385.876      1.4008359      3601.4882    
       200   291.48702     -36509.122      4167.4652      1.4013032      3600.2873    
       300   305.44654     -36510.95      -4313.2943      1.4017708      3599.0864    
       400   291.32889     -36478.896     -3531.355       1.4022386      3597.8855    
       500   295.95988     -36470.898      7079.1895      1.4027068      3596.6846    
       600   308.44839     -36485.2       -6775.8568      1.4031753      3595.4837    
       700   305.46212     -36494.938      97.863016      1.4036442      3594.2828    
       800   307.10156     -36520.896      853.13533      1.4041133      3593.0819    
       900   299.70595     -36539.522     -2188.9557      1.4045827      3591.881     
      1000   294.98654     -36539.618     -3226.0991      1.4050525      3590.6801    
      1100   303.24317     -36537.036     -7269.7546      1.4055226      3589.4792    
      1200   304.85124     -36518.202     -9779.1672      1.405993       3588.2783    
      1300   321.20357     -36518.182      1997.5067      1.4064637      3587.0774    
      1400   318.6327      -36518.367      319.01073      1.4069347      3585.8765    
      1500   295.95212     -36512.054     -4848.4397      1.407406       3584.6756    
      1600   297.79936     -36528.339      3206.3076      1.4078777      3583.4747    
      1700   262.34864     -36515.815     -23402.118      1.4083496      3582.2738    
      1800   275.90168     -36534.877      8183.5354      1.4088219      3581.0729    
      1900   310.84571     -36548.826      3118.4843      1.4092945      3579.872     
      2000   310.78975     -36525.116      1435.0206      1.4097674      3578.6711    
      2100   291.33533     -36506.154      15450.285      1.4102407      3577.4702    
      2200   311.61516     -36533.287     -18.126085      1.4107142      3576.2693    
      2300   299.65426     -36530.616     -1172.3877      1.4111881      3575.0684    
      2400   291.68042     -36531.873     -5684.5765      1.4116623      3573.8676    
      2500   275.3757      -36525.962      13968.83       1.4121368      3572.6667    
      2600   299.19992     -36543.964     -4931.6351      1.4126116      3571.4658    
      2700   314.82767     -36524.432     -38.058545      1.4130868      3570.2649    
      2800   316.89972     -36519.863      3857.0326      1.4135622      3569.064     
      2900   297.22854     -36525.652      11204.245      1.414038       3567.8631    
      3000   289.26219     -36526.014     -2776.2239      1.4145141      3566.6622    
Loop time of 148.121 on 8 procs for 3000 steps with 331 atoms

Performance: 0.875 ns/day, 27.430 hours/ns, 20.254 timesteps/s, 6.704 katom-step/s
98.8% CPU use with 8 MPI tasks x 1 OpenMP threads

MPI task timing breakdown:
Section |  min time  |  avg time  |  max time  |%varavg| %total
---------------------------------------------------------------
Pair    | 107.06     | 117.41     | 123.88     |  50.0 | 79.27
Bond    | 0.0082035  | 0.0089874  | 0.009621   |   0.5 |  0.01
Neigh   | 8.0208     | 9.1167     | 9.5177     |  14.5 |  6.15
Comm    | 2.0159     | 8.5095     | 18.862     | 186.1 |  5.74
Output  | 0.0094016  | 0.011002   | 0.012145   |   0.9 |  0.01
Modify  | 12.6       | 12.992     | 14.086     |  12.0 |  8.77
Other   |            | 0.07419    |            |       |  0.05

Nlocal:         41.375 ave          50 max          31 min
Histogram: 1 0 1 0 2 1 0 1 1 1
Nghost:           3308 ave        3352 max        3260 min
Histogram: 2 0 0 1 1 0 1 1 0 2
Neighs:        26895.6 ave       32071 max       20493 min
Histogram: 1 0 1 0 2 1 0 1 0 2

Total # of neighbors = 215165
Ave neighs/atom = 650.04532
Ave special neighs/atom = 0
Neighbor list builds = 300
Dangerous builds not checked
OMP_NUM_THREADS environment is not set. Defaulting to 1 thread. (src/comm.cpp:98)
  using 1 OpenMP thread(s) per MPI task
Reading restart file ...
  restart file = 2 Aug 2023, LAMMPS = 2 Aug 2023
  restoring atom style full from restart
  triclinic box = (0 0 0) to (15.7087 13.0868 17.5248) with tilt (-8.2042 -0.1458 -2.0056)
WARNING: Triclinic box skew is large. LAMMPS will run inefficiently. (src/domain.cpp:220)
  2 by 2 by 2 MPI processor grid
  pair style reaxff stores no restart info
  331 atoms
Finding 1-2 1-3 1-4 neighbors ...
  special bond factors lj:    0        0        0       
  special bond factors coul:  0        0        0       
     0 = max # of 1-2 neighbors
     0 = max # of 1-3 neighbors
     0 = max # of 1-4 neighbors
     1 = max # of special neighbors
  special bonds CPU = 0.000 seconds
  read_restart CPU = 0.003 seconds
*****Positive-deform 3 starts.*****
Resetting global fix info from restart file:
  fix style: nvt, fix ID: fnvt
All restart file global fix info was re-assigned
Neighbor list info ...
  update: every = 10 steps, delay = 0 steps, check = no
  max neighbors/atom: 2000, page size: 100000
  master list distance cutoff = 12
  ghost atom cutoff = 12
  binsize = 6, bins = 5 3 3
  2 neighbor lists, perpetual/occasional/extra = 2 0 0
  (1) pair reaxff, perpetual
      attributes: half, newton off, ghost
      pair build: half/bin/newtoff/ghost
      stencil: full/ghost/bin/3d
      bin: standard
  (2) fix qeq/reaxff, perpetual, copy from (1)
      attributes: half, newton off
      pair build: copy
      stencil: none
      bin: none
Setting up Verlet run ...
  Unit style    : real
  Current step  : 0
  Time step     : 0.5
Per MPI rank memory allocation (min/avg/max) = 124.7 | 126.3 | 127.8 Mbytes
   Step          Temp          PotEng         Press         Density         Volume    
         0   288.05611     -36468.165     -16904.122      1.400369       3602.6891    
       100   296.69805     -36497.808     -11395.813      1.3999023      3603.89      
       200   290.28667     -36506.819      4851.1574      1.399436       3605.0909    
       300   300.53629     -36507.315     -7774.4092      1.39897        3606.2918    
       400   292.07262     -36479.965     -6261.7419      1.3985043      3607.4927    
       500   304.8106      -36475.151      4252.2303      1.3980389      3608.6935    
       600   293.17289     -36466.548      4612.8154      1.3975738      3609.8944    
       700   310.01034     -36491.994     -10490.695      1.3971091      3611.0953    
       800   300.64894     -36500.644     -5519.9227      1.3966446      3612.2962    
       900   288.51751     -36500.652     -10189.128      1.3961804      3613.4971    
      1000   307.68482     -36518.093     -5164.2334      1.3957166      3614.698     
      1100   303.21459     -36505.824     -6659.4392      1.3952531      3615.8989    
      1200   305.23186     -36491.271     -6979.5273      1.3947898      3617.0998    
      1300   310.04734     -36487.487     -10556.217      1.3943269      3618.3007    
      1400   297.53438     -36489.011     -2559.2899      1.3938643      3619.5016    
      1500   302.59324     -36518.942      3595.826       1.393402       3620.7025    
      1600   295.67609     -36529.698     -19275.827      1.39294        3621.9034    
      1700   313.25783     -36540.539     -6956.2617      1.3924783      3623.1043    
      1800   286.09174     -36492.188     -10977.353      1.3920169      3624.3052    
      1900   309.58748     -36499.076     -5318.9195      1.3915558      3625.5061    
      2000   303.02222     -36498.928     -6812.5043      1.391095       3626.707     
      2100   288.8767      -36521.698      4271.1318      1.3906345      3627.9079    
      2200   303.33649     -36535.2       -3584.5903      1.3901744      3629.1088    
      2300   292.93961     -36514.657     -4789.3777      1.3897145      3630.3097    
      2400   287.31712     -36493.314     -14330.889      1.3892549      3631.5106    
      2500   310.72094     -36505.296     -4754.1443      1.3887957      3632.7115    
      2600   308.17531     -36489.543     -3103.5891      1.3883367      3633.9124    
      2700   321.19335     -36521.513     -458.31342      1.3878781      3635.1133    
      2800   283.7105      -36509.353     -13623.222      1.3874197      3636.3142    
      2900   272.21395     -36502.982     -7654.2281      1.3869617      3637.5151    
      3000   301.74596     -36518.616     -10473.544      1.3865039      3638.716     
Loop time of 145.064 on 8 procs for 3000 steps with 331 atoms

Performance: 0.893 ns/day, 26.864 hours/ns, 20.681 timesteps/s, 6.845 katom-step/s
98.8% CPU use with 8 MPI tasks x 1 OpenMP threads

MPI task timing breakdown:
Section |  min time  |  avg time  |  max time  |%varavg| %total
---------------------------------------------------------------
Pair    | 97.032     | 113.86     | 120.68     |  68.0 | 78.49
Bond    | 0.00819    | 0.0089833  | 0.0097992  |   0.6 |  0.01
Neigh   | 7.5536     | 8.8617     | 9.2395     |  16.9 |  6.11
Comm    | 2.1801     | 9.0293     | 25.84      | 241.5 |  6.22
Output  | 0.0098973  | 0.011345   | 0.012437   |   0.9 |  0.01
Modify  | 12.866     | 13.219     | 14.544     |  14.0 |  9.11
Other   |            | 0.07421    |            |       |  0.05

Nlocal:         41.375 ave          51 max          35 min
Histogram: 2 0 1 2 0 1 1 0 0 1
Nghost:           3212 ave        3251 max        3181 min
Histogram: 1 1 2 1 0 0 0 1 1 1
Neighs:        26379.6 ave       32228 max       22649 min
Histogram: 2 0 1 2 1 0 1 0 0 1

Total # of neighbors = 211037
Ave neighs/atom = 637.57402
Ave special neighs/atom = 0
Neighbor list builds = 300
Dangerous builds not checked
OMP_NUM_THREADS environment is not set. Defaulting to 1 thread. (src/comm.cpp:98)
  using 1 OpenMP thread(s) per MPI task
Reading restart file ...
  restart file = 2 Aug 2023, LAMMPS = 2 Aug 2023
  restoring atom style full from restart
  triclinic box = (0 0 0) to (15.7087 13.0868 17.5248) with tilt (-8.2042 -0.1458 -2.0056)
WARNING: Triclinic box skew is large. LAMMPS will run inefficiently. (src/domain.cpp:220)
  2 by 2 by 2 MPI processor grid
  pair style reaxff stores no restart info
  331 atoms
Finding 1-2 1-3 1-4 neighbors ...
  special bond factors lj:    0        0        0       
  special bond factors coul:  0        0        0       
     0 = max # of 1-2 neighbors
     0 = max # of 1-3 neighbors
     0 = max # of 1-4 neighbors
     1 = max # of special neighbors
  special bonds CPU = 0.000 seconds
  read_restart CPU = 0.003 seconds
*****debug*****
xy = -8.2042000000000001592, deltaxy = 0.082042
xz = -0.14580000000000001292, deltaxz = 0.001458
yz = -2.0055999999999998273, deltayz = 0.020056
*****
*****Negative-deform 4 starts.*****
Resetting global fix info from restart file:
  fix style: nvt, fix ID: fnvt
All restart file global fix info was re-assigned
Neighbor list info ...
  update: every = 10 steps, delay = 0 steps, check = no
  max neighbors/atom: 2000, page size: 100000
  master list distance cutoff = 12
  ghost atom cutoff = 12
  binsize = 6, bins = 5 3 3
  2 neighbor lists, perpetual/occasional/extra = 2 0 0
  (1) pair reaxff, perpetual
      attributes: half, newton off, ghost
      pair build: half/bin/newtoff/ghost
      stencil: full/ghost/bin/3d
      bin: standard
  (2) fix qeq/reaxff, perpetual, copy from (1)
      attributes: half, newton off
      pair build: copy
      stencil: none
      bin: none
Setting up Verlet run ...
  Unit style    : real
  Current step  : 0
  Time step     : 0.5
Per MPI rank memory allocation (min/avg/max) = 124.7 | 126.3 | 127.8 Mbytes
   Step          Temp          PotEng         Press         Density         Volume    
         0   288.05611     -36468.165     -16904.122      1.400369       3602.6891    
       100   296.70496     -36497.787     -11395.155      1.400369       3602.6891    
       200   291.69064     -36508.649      4685.3274      1.400369       3602.6891    
       300   303.28942     -36509.377     -3601.3574      1.400369       3602.6891    
       400   288.18054     -36477.249     -6729.1271      1.400369       3602.6891    
       500   296.56798     -36473.143      4946.3415      1.400369       3602.6891    
       600   310.86113     -36484.396      899.59054      1.400369       3602.6891    
       700   306.82828     -36486.495     -7674.5025      1.400369       3602.6891    
       800   303.74996     -36508.639     -16178.974      1.400369       3602.6891    
       900   277.57319     -36520.673     -12417.289      1.400369       3602.6891    
      1000   297.09846     -36552.771      654.77138      1.400369       3602.6891    
      1100   279.92427     -36534.854     -8855.8695      1.400369       3602.6891    
      1200   298.66458     -36533.614      7508.4426      1.400369       3602.6891    
      1300   304.4703      -36518.031      12116.848      1.400369       3602.6891    
      1400   303.21561     -36507.547      2455.9347      1.400369       3602.6891    
      1500   317.5716      -36530.422      722.32593      1.400369       3602.6891    
      1600   298.0346      -36540.627     -1347.2244      1.400369       3602.6891    
      1700   286.26285     -36547.436     -3756.4258      1.400369       3602.6891    
      1800   293.24509     -36550.913     -8739.3645      1.400369       3602.6891    
      1900   287.08219     -36513.431     -2081.8533      1.400369       3602.6891    
      2000   309.41864     -36521.466      4882.3659      1.400369       3602.6891    
      2100   284.56123     -36490.639     -1669.0293      1.400369       3602.6891    
      2200   300.13479     -36511.7        5151.1571      1.400369       3602.6891    
      2300   291.95985     -36537.646     -13377.88       1.400369       3602.6891    
      2400   280.22469     -36538.866      19161.395      1.400369       3602.6891    
      2500   273.4433      -36519.649      1985.3772      1.400369       3602.6891    
      2600   295.86826     -36524.145      3520.1198      1.400369       3602.6891    
      2700   304.89166     -36523.461     -11219.314      1.400369       3602.6891    
      2800   301.23087     -36524.468      814.17255      1.400369       3602.6891    
      2900   293.34856     -36528.463      1706.1363      1.400369       3602.6891    
      3000   289.13938     -36538.168     -3692.8883      1.400369       3602.6891    
Loop time of 146.252 on 8 procs for 3000 steps with 331 atoms

Performance: 0.886 ns/day, 27.084 hours/ns, 20.513 timesteps/s, 6.790 katom-step/s
98.8% CPU use with 8 MPI tasks x 1 OpenMP threads

MPI task timing breakdown:
Section |  min time  |  avg time  |  max time  |%varavg| %total
---------------------------------------------------------------
Pair    | 96.008     | 113.45     | 122.4      |  71.7 | 77.57
Bond    | 0.0081826  | 0.0089115  | 0.0095204  |   0.5 |  0.01
Neigh   | 7.4489     | 8.8621     | 9.3125     |  19.7 |  6.06
Comm    | 1.7111     | 10.693     | 28.119     | 233.6 |  7.31
Output  | 0.0090868  | 0.01043    | 0.011432   |   0.8 |  0.01
Modify  | 12.732     | 13.154     | 14.583     |  16.2 |  8.99
Other   |            | 0.07381    |            |       |  0.05

Nlocal:         41.375 ave          47 max          36 min
Histogram: 3 0 1 0 0 0 0 0 3 1
Nghost:         3232.5 ave        3254 max        3203 min
Histogram: 1 0 2 0 0 1 0 1 1 2
Neighs:        26623.4 ave       29943 max       23365 min
Histogram: 2 1 1 0 0 0 0 0 3 1

Total # of neighbors = 212987
Ave neighs/atom = 643.46526
Ave special neighs/atom = 0
Neighbor list builds = 300
Dangerous builds not checked
OMP_NUM_THREADS environment is not set. Defaulting to 1 thread. (src/comm.cpp:98)
  using 1 OpenMP thread(s) per MPI task
Reading restart file ...
  restart file = 2 Aug 2023, LAMMPS = 2 Aug 2023
  restoring atom style full from restart
  triclinic box = (0 0 0) to (15.7087 13.0868 17.5248) with tilt (-8.2042 -0.1458 -2.0056)
WARNING: Triclinic box skew is large. LAMMPS will run inefficiently. (src/domain.cpp:220)
  2 by 2 by 2 MPI processor grid
  pair style reaxff stores no restart info
  331 atoms
Finding 1-2 1-3 1-4 neighbors ...
  special bond factors lj:    0        0        0       
  special bond factors coul:  0        0        0       
     0 = max # of 1-2 neighbors
     0 = max # of 1-3 neighbors
     0 = max # of 1-4 neighbors
     1 = max # of special neighbors
  special bonds CPU = 0.000 seconds
  read_restart CPU = 0.003 seconds
*****Positive-deform 4 starts.*****
Resetting global fix info from restart file:
  fix style: nvt, fix ID: fnvt
All restart file global fix info was re-assigned
Neighbor list info ...
  update: every = 10 steps, delay = 0 steps, check = no
  max neighbors/atom: 2000, page size: 100000
  master list distance cutoff = 12
  ghost atom cutoff = 12
  binsize = 6, bins = 5 3 3
  2 neighbor lists, perpetual/occasional/extra = 2 0 0
  (1) pair reaxff, perpetual
      attributes: half, newton off, ghost
      pair build: half/bin/newtoff/ghost
      stencil: full/ghost/bin/3d
      bin: standard
  (2) fix qeq/reaxff, perpetual, copy from (1)
      attributes: half, newton off
      pair build: copy
      stencil: none
      bin: none
Setting up Verlet run ...
  Unit style    : real
  Current step  : 0
  Time step     : 0.5
Per MPI rank memory allocation (min/avg/max) = 124.7 | 126.3 | 127.8 Mbytes
   Step          Temp          PotEng         Press         Density         Volume    
         0   288.05611     -36468.165     -16904.122      1.400369       3602.6891    
       100   296.70699     -36497.826     -11386.869      1.400369       3602.6891    
       200   289.79495     -36507.062      4425.9732      1.400369       3602.6891    
       300   303.67834     -36510.228     -4284.5857      1.400369       3602.6891    
       400   297.3166      -36484.416     -15656.391      1.400369       3602.6891    
       500   305.38594     -36478.867      567.25884      1.400369       3602.6891    
       600   316.83206     -36490.504     -15292.882      1.400369       3602.6891    
       700   303.24601     -36482.883     -5491.4582      1.400369       3602.6891    
       800   307.97767     -36508.513     -1268.9348      1.400369       3602.6891    
       900   303.84831     -36528.581     -3308.8328      1.400369       3602.6891    
      1000   306.7661      -36536.065     -1629.7507      1.400369       3602.6891    
      1100   306.42721     -36522.292      5282.0069      1.400369       3602.6891    
      1200   311.93298     -36507.952     -23075.541      1.400369       3602.6891    
      1300   316.23443     -36505.636      1524.6287      1.400369       3602.6891    
      1400   311.90997     -36514.732      5538.2519      1.400369       3602.6891    
      1500   304.43676     -36530.436      369.19643      1.400369       3602.6891    
      1600   283.87041     -36525.057      153.02857      1.400369       3602.6891    
      1700   281.84049     -36517.317     -9619.0288      1.400369       3602.6891    
      1800   314.33302     -36519.251     -936.25923      1.400369       3602.6891    
      1900   290.173       -36484.182      5283.0941      1.400369       3602.6891    
      2000   312.76019     -36511.483     -1780.298       1.400369       3602.6891    
      2100   275.44685     -36506.326      8045.0197      1.400369       3602.6891    
      2200   269.46009     -36508.754     -9100.7645      1.400369       3602.6891    
      2300   294.62152     -36520.904     -2241.245       1.400369       3602.6891    
      2400   275.52356     -36489.227      256.22025      1.400369       3602.6891    
      2500   310.70483     -36511.557     -2023.9489      1.400369       3602.6891    
      2600   302.43669     -36512.373     -5860.7238      1.400369       3602.6891    
      2700   278.38374     -36531.44      -6210.3762      1.400369       3602.6891    
      2800   286.17965     -36540.749     -14904.614      1.400369       3602.6891    
      2900   298.07848     -36529.092      4418.4665      1.400369       3602.6891    
      3000   298.03658     -36512.45       5575.9274      1.400369       3602.6891    
Loop time of 144.635 on 8 procs for 3000 steps with 331 atoms

Performance: 0.896 ns/day, 26.784 hours/ns, 20.742 timesteps/s, 6.866 katom-step/s
98.8% CPU use with 8 MPI tasks x 1 OpenMP threads

MPI task timing breakdown:
Section |  min time  |  avg time  |  max time  |%varavg| %total
---------------------------------------------------------------
Pair    | 82.165     | 110.87     | 119.74     | 108.2 | 76.66
Bond    | 0.0083816  | 0.0090957  | 0.0098414  |   0.5 |  0.01
Neigh   | 7.2218     | 9.8279     | 10.408     |  31.6 |  6.79
Comm    | 1.7308     | 10.607     | 39.307     | 350.0 |  7.33
Output  | 0.0099505  | 0.011156   | 0.012251   |   0.8 |  0.01
Modify  | 12.659     | 13.231     | 15.849     |  27.4 |  9.15
Other   |            | 0.07581    |            |       |  0.05

Nlocal:         41.375 ave          52 max          28 min
Histogram: 1 0 1 0 0 3 0 1 1 1
Nghost:        3183.38 ave        3199 max        3158 min
Histogram: 1 0 0 0 3 0 0 0 2 2
Neighs:        26623.9 ave       33090 max       18416 min
Histogram: 1 0 1 0 1 2 0 1 1 1

Total # of neighbors = 212991
Ave neighs/atom = 643.47734
Ave special neighs/atom = 0
Neighbor list builds = 300
Dangerous builds not checked
OMP_NUM_THREADS environment is not set. Defaulting to 1 thread. (src/comm.cpp:98)
  using 1 OpenMP thread(s) per MPI task
Reading restart file ...
  restart file = 2 Aug 2023, LAMMPS = 2 Aug 2023
  restoring atom style full from restart
  triclinic box = (0 0 0) to (15.7087 13.0868 17.5248) with tilt (-8.2042 -0.1458 -2.0056)
WARNING: Triclinic box skew is large. LAMMPS will run inefficiently. (src/domain.cpp:220)
  2 by 2 by 2 MPI processor grid
  pair style reaxff stores no restart info
  331 atoms
Finding 1-2 1-3 1-4 neighbors ...
  special bond factors lj:    0        0        0       
  special bond factors coul:  0        0        0       
     0 = max # of 1-2 neighbors
     0 = max # of 1-3 neighbors
     0 = max # of 1-4 neighbors
     1 = max # of special neighbors
  special bonds CPU = 0.000 seconds
  read_restart CPU = 0.003 seconds
*****debug*****
xy = -8.2042000000000001592, deltaxy = 0.082042
xz = -0.14580000000000001292, deltaxz = 0.001458
yz = -2.0055999999999998273, deltayz = 0.020056
*****
*****Negative-deform 5 starts.*****
Resetting global fix info from restart file:
  fix style: nvt, fix ID: fnvt
All restart file global fix info was re-assigned
Neighbor list info ...
  update: every = 10 steps, delay = 0 steps, check = no
  max neighbors/atom: 2000, page size: 100000
  master list distance cutoff = 12
  ghost atom cutoff = 12
  binsize = 6, bins = 5 3 3
  2 neighbor lists, perpetual/occasional/extra = 2 0 0
  (1) pair reaxff, perpetual
      attributes: half, newton off, ghost
      pair build: half/bin/newtoff/ghost
      stencil: full/ghost/bin/3d
      bin: standard
  (2) fix qeq/reaxff, perpetual, copy from (1)
      attributes: half, newton off
      pair build: copy
      stencil: none
      bin: none
Setting up Verlet run ...
  Unit style    : real
  Current step  : 0
  Time step     : 0.5
Per MPI rank memory allocation (min/avg/max) = 124.7 | 126.3 | 127.8 Mbytes
   Step          Temp          PotEng         Press         Density         Volume    
         0   288.05611     -36468.165     -16904.122      1.400369       3602.6891    
       100   296.70837     -36497.811     -11394.686      1.400369       3602.6891    
       200   290.43345     -36507.665      4646.6111      1.400369       3602.6891    
       300   304.61634     -36511.037     -5872.1102      1.400369       3602.6891    
       400   297.89383     -36485.431     -10816.084      1.400369       3602.6891    
       500   293.87384     -36468.558      3417.0591      1.400369       3602.6891    
       600   303.15683     -36475.971     -1608.4951      1.400369       3602.6891    
       700   308.7558      -36489.018     -3265.7578      1.400369       3602.6891    
       800   295.7224      -36500.614      675.66204      1.400369       3602.6891    
       900   282.20638     -36517.596     -5661.4744      1.400369       3602.6891    
      1000   301.34242     -36539.829     -2442.7636      1.400369       3602.6891    
      1100   315.10148     -36531.174     -4199.9157      1.400369       3602.6891    
      1200   303.92872     -36501.327      3704.1783      1.400369       3602.6891    
      1300   292.93377     -36492.391     -2576.0702      1.400369       3602.6891    
      1400   298.89134     -36520.318      15357.12       1.400369       3602.6891    
      1500   286.61768     -36525.298     -4515.2062      1.400369       3602.6891    
      1600   309.80925     -36541.186     -1001.3323      1.400369       3602.6891    
      1700   285.98052     -36507.279     -10388.057      1.400369       3602.6891    
      1800   291.55158     -36500.334     -8080.4904      1.400369       3602.6891    
      1900   305.77066     -36524.997     -12027.684      1.400369       3602.6891    
      2000   291.62941     -36539.174      5533.2297      1.400369       3602.6891    
      2100   282.7026      -36534.999     -1193.8396      1.400369       3602.6891    
      2200   286.83102     -36527.667     -1685.0003      1.400369       3602.6891    
      2300   315.56163     -36536.045     -12419.381      1.400369       3602.6891    
      2400   302.38274     -36520.603     -4546.9655      1.400369       3602.6891    
      2500   302.80698     -36522.848     -16809.933      1.400369       3602.6891    
      2600   288.57858     -36518.689     -11639.576      1.400369       3602.6891    
      2700   292.90791     -36534.643     -11277.719      1.400369       3602.6891    
      2800   280.79151     -36543.334      2452.2313      1.400369       3602.6891    
      2900   274.69101     -36554.097     -4211.6453      1.400369       3602.6891    
      3000   284.57681     -36550.355     -11634.317      1.400369       3602.6891    
Loop time of 145.191 on 8 procs for 3000 steps with 331 atoms

Performance: 0.893 ns/day, 26.887 hours/ns, 20.662 timesteps/s, 6.839 katom-step/s
98.8% CPU use with 8 MPI tasks x 1 OpenMP threads

MPI task timing breakdown:
Section |  min time  |  avg time  |  max time  |%varavg| %total
---------------------------------------------------------------
Pair    | 87.121     | 112.63     | 120.75     |  95.3 | 77.58
Bond    | 0.0085798  | 0.0092555  | 0.0098322  |   0.4 |  0.01
Neigh   | 6.7191     | 8.8743     | 9.3856     |  27.7 |  6.11
Comm    | 2.5756     | 10.699     | 36.206     | 309.3 |  7.37
Output  | 0.0085106  | 0.0095324  | 0.01046    |   0.8 |  0.01
Modify  | 12.366     | 12.89      | 15.056     |  23.1 |  8.88
Other   |            | 0.07421    |            |       |  0.05

Nlocal:         41.375 ave          47 max          37 min
Histogram: 1 1 1 1 0 1 0 2 0 1
Nghost:           3245 ave        3292 max        3204 min
Histogram: 2 0 0 2 0 1 1 1 0 1
Neighs:        26625.9 ave       30084 max       23956 min
Histogram: 1 1 1 1 1 0 2 0 0 1

Total # of neighbors = 213007
Ave neighs/atom = 643.52568
Ave special neighs/atom = 0
Neighbor list builds = 300
Dangerous builds not checked
OMP_NUM_THREADS environment is not set. Defaulting to 1 thread. (src/comm.cpp:98)
  using 1 OpenMP thread(s) per MPI task
Reading restart file ...
  restart file = 2 Aug 2023, LAMMPS = 2 Aug 2023
  restoring atom style full from restart
  triclinic box = (0 0 0) to (15.7087 13.0868 17.5248) with tilt (-8.2042 -0.1458 -2.0056)
WARNING: Triclinic box skew is large. LAMMPS will run inefficiently. (src/domain.cpp:220)
  2 by 2 by 2 MPI processor grid
  pair style reaxff stores no restart info
  331 atoms
Finding 1-2 1-3 1-4 neighbors ...
  special bond factors lj:    0        0        0       
  special bond factors coul:  0        0        0       
     0 = max # of 1-2 neighbors
     0 = max # of 1-3 neighbors
     0 = max # of 1-4 neighbors
     1 = max # of special neighbors
  special bonds CPU = 0.000 seconds
  read_restart CPU = 0.003 seconds
*****Positive-deform 5 starts.*****
Resetting global fix info from restart file:
  fix style: nvt, fix ID: fnvt
All restart file global fix info was re-assigned
Neighbor list info ...
  update: every = 10 steps, delay = 0 steps, check = no
  max neighbors/atom: 2000, page size: 100000
  master list distance cutoff = 12
  ghost atom cutoff = 12
  binsize = 6, bins = 5 3 3
  2 neighbor lists, perpetual/occasional/extra = 2 0 0
  (1) pair reaxff, perpetual
      attributes: half, newton off, ghost
      pair build: half/bin/newtoff/ghost
      stencil: full/ghost/bin/3d
      bin: standard
  (2) fix qeq/reaxff, perpetual, copy from (1)
      attributes: half, newton off
      pair build: copy
      stencil: none
      bin: none
Setting up Verlet run ...
  Unit style    : real
  Current step  : 0
  Time step     : 0.5
Per MPI rank memory allocation (min/avg/max) = 124.7 | 126.3 | 127.8 Mbytes
   Step          Temp          PotEng         Press         Density         Volume    
         0   288.05611     -36468.165     -16904.122      1.400369       3602.6891    
       100   296.70351     -36497.802     -11387.317      1.400369       3602.6891    
       200   291.22726     -36508.391      4662.3327      1.400369       3602.6891    
       300   302.04409     -36508.812     -6318.8161      1.400369       3602.6891    
       400   293.25447     -36481.877     -7827.3328      1.400369       3602.6891    
       500   299.54375     -36474.889      7785.0462      1.400369       3602.6891    
       600   307.75615     -36484.959     -2882.1372      1.400369       3602.6891    
       700   300.74729     -36486.37      -9785.7978      1.400369       3602.6891    
       800   311.22592     -36518.834     -4195.7022      1.400369       3602.6891    
       900   301.65125     -36530.213     -2460.6999      1.400369       3602.6891    
      1000   308.13994     -36540.559     -5180.1126      1.400369       3602.6891    
      1100   285.3005      -36507.809      7572.3974      1.400369       3602.6891    
      1200   302.47583     -36504.794     -1347.6443      1.400369       3602.6891    
      1300   315.63998     -36510.619      8604.5986      1.400369       3602.6891    
      1400   307.65573     -36517.563      1594.9104      1.400369       3602.6891    
      1500   288.23643     -36513.806     -7266.3479      1.400369       3602.6891    
      1600   292.83107     -36518.439      11377.901      1.400369       3602.6891    
      1700   302.69028     -36514.516     -15345.155      1.400369       3602.6891    
      1800   296.94492     -36488.376     -9669.1451      1.400369       3602.6891    
      1900   317.34039     -36499.078     -10142.813      1.400369       3602.6891    
      2000   302.66154     -36510.589     -1563.7883      1.400369       3602.6891    
      2100   297.93722     -36528.857     -1193.693       1.400369       3602.6891    
      2200   286.21878     -36513.186      1331.3964      1.400369       3602.6891    
      2300   292.19869     -36498.193      11098.582      1.400369       3602.6891    
      2400   321.76892     -36514.35      -2381.1447      1.400369       3602.6891    
      2500   291.19916     -36494.156     -789.72635      1.400369       3602.6891    
      2600   295.64517     -36504.613      8043.9411      1.400369       3602.6891    
      2700   297.1008      -36503.404      2271.3598      1.400369       3602.6891    
      2800   305.4302      -36492.352     -4100.7673      1.400369       3602.6891    
      2900   318.21605     -36479.939      9797.2581      1.400369       3602.6891    
      3000   318.75887     -36507.22      -19860.404      1.400369       3602.6891    
Loop time of 146.135 on 8 procs for 3000 steps with 331 atoms

Performance: 0.887 ns/day, 27.062 hours/ns, 20.529 timesteps/s, 6.795 katom-step/s
98.9% CPU use with 8 MPI tasks x 1 OpenMP threads

MPI task timing breakdown:
Section |  min time  |  avg time  |  max time  |%varavg| %total
---------------------------------------------------------------
Pair    | 79.299     | 104.07     | 121.55     | 158.2 | 71.22
Bond    | 0.0082777  | 0.0089097  | 0.0096041  |   0.5 |  0.01
Neigh   | 7.1654     | 9.1576     | 10.449     |  46.2 |  6.27
Comm    | 1.3542     | 18.838     | 43.616     | 371.9 | 12.89
Output  | 0.0089759  | 0.01016    | 0.011076   |   0.7 |  0.01
Modify  | 12.686     | 13.974     | 15.97      |  37.5 |  9.56
Other   |            | 0.07263    |            |       |  0.05

Nlocal:         41.375 ave          50 max          31 min
Histogram: 1 0 1 1 1 1 0 0 1 2
Nghost:        3170.12 ave        3214 max        3141 min
Histogram: 3 0 1 1 0 1 0 0 0 2
Neighs:        26592.1 ave       31837 max       20351 min
Histogram: 1 0 1 1 1 1 0 0 1 2

Total # of neighbors = 212737
Ave neighs/atom = 642.70997
Ave special neighs/atom = 0
Neighbor list builds = 300
Dangerous builds not checked
OMP_NUM_THREADS environment is not set. Defaulting to 1 thread. (src/comm.cpp:98)
  using 1 OpenMP thread(s) per MPI task
Reading restart file ...
  restart file = 2 Aug 2023, LAMMPS = 2 Aug 2023
  restoring atom style full from restart
  triclinic box = (0 0 0) to (15.7087 13.0868 17.5248) with tilt (-8.2042 -0.1458 -2.0056)
WARNING: Triclinic box skew is large. LAMMPS will run inefficiently. (src/domain.cpp:220)
  2 by 2 by 2 MPI processor grid
  pair style reaxff stores no restart info
  331 atoms
Finding 1-2 1-3 1-4 neighbors ...
  special bond factors lj:    0        0        0       
  special bond factors coul:  0        0        0       
     0 = max # of 1-2 neighbors
     0 = max # of 1-3 neighbors
     0 = max # of 1-4 neighbors
     1 = max # of special neighbors
  special bonds CPU = 0.000 seconds
  read_restart CPU = 0.003 seconds
*****debug*****
xy = -8.2042000000000001592, deltaxy = 0.082042
xz = -0.14580000000000001292, deltaxz = 0.001458
yz = -2.0055999999999998273, deltayz = 0.020056
*****
*****Negative-deform 6 starts.*****
Resetting global fix info from restart file:
  fix style: nvt, fix ID: fnvt
All restart file global fix info was re-assigned
Neighbor list info ...
  update: every = 10 steps, delay = 0 steps, check = no
  max neighbors/atom: 2000, page size: 100000
  master list distance cutoff = 12
  ghost atom cutoff = 12
  binsize = 6, bins = 5 3 3
  2 neighbor lists, perpetual/occasional/extra = 2 0 0
  (1) pair reaxff, perpetual
      attributes: half, newton off, ghost
      pair build: half/bin/newtoff/ghost
      stencil: full/ghost/bin/3d
      bin: standard
  (2) fix qeq/reaxff, perpetual, copy from (1)
      attributes: half, newton off
      pair build: copy
      stencil: none
      bin: none
Setting up Verlet run ...
  Unit style    : real
  Current step  : 0
  Time step     : 0.5
Per MPI rank memory allocation (min/avg/max) = 124.7 | 126.3 | 127.8 Mbytes
   Step          Temp          PotEng         Press         Density         Volume    
         0   288.05611     -36468.165     -16904.122      1.400369       3602.6891    
       100   296.68417     -36497.781     -11355.713      1.400369       3602.6891    
       200   291.35096     -36508.46       4971.1179      1.400369       3602.6891    
       300   298.7896      -36505.324     -3736.0406      1.400369       3602.6891    
       400   291.69173     -36480.099     -6584.2891      1.400369       3602.6891    
       500   306.501       -36478.427      9544.9791      1.400369       3602.6891    
       600   323.96279     -36494.517     -211.33881      1.400369       3602.6891    
       700   308.55941     -36485.977     -8977.3775      1.400369       3602.6891    
       800   308.0811      -36506.81      -10627.477      1.400369       3602.6891    
       900   281.12035     -36506.036     -347.86402      1.400369       3602.6891    
      1000   289.11678     -36516.618     -332.71654      1.400369       3602.6891    
      1100   291.31303     -36508.103     -1887.239       1.400369       3602.6891    
      1200   312.13934     -36503.812     -10054.301      1.400369       3602.6891    
      1300   311.14451     -36488.425      616.98686      1.400369       3602.6891    
      1400   297.11584     -36482.665     -3996.1037      1.400369       3602.6891    
      1500   297.61329     -36509.866      2825.189       1.400369       3602.6891    
      1600   282.60869     -36518.579     -1651.2468      1.400369       3602.6891    
      1700   301.57038     -36542.753     -8431.3879      1.400369       3602.6891    
      1800   261.99192     -36481.677     -1535.0766      1.400369       3602.6891    
      1900   319.62406     -36515.257     -3312.7005      1.400369       3602.6891    
      2000   302.24897     -36504.185      4326.5         1.400369       3602.6891    
      2100   287.75954     -36504.55       2738.243       1.400369       3602.6891    
      2200   287.15098     -36517.59      -474.52416      1.400369       3602.6891    
      2300   308.70352     -36550.645      1172.8307      1.400369       3602.6891    
      2400   293.43021     -36549.101     -11653.746      1.400369       3602.6891    
      2500   298.22113     -36532.714      875.85081      1.400369       3602.6891    
      2600   273.30852     -36484.58       2770.8712      1.400369       3602.6891    
      2700   315.97713     -36514.167      3341.9495      1.400369       3602.6891    
      2800   306.47268     -36512.96       311.51633      1.400369       3602.6891    
      2900   307.3534      -36543.569     -5763.1855      1.400369       3602.6891    
      3000   300.65783     -36551.798     -6655.0097      1.400369       3602.6891    
Loop time of 145.948 on 8 procs for 3000 steps with 331 atoms

Performance: 0.888 ns/day, 27.027 hours/ns, 20.555 timesteps/s, 6.804 katom-step/s
98.9% CPU use with 8 MPI tasks x 1 OpenMP threads

MPI task timing breakdown:
Section |  min time  |  avg time  |  max time  |%varavg| %total
---------------------------------------------------------------
Pair    | 81.009     | 110.23     | 122.35     | 130.9 | 75.53
Bond    | 0.0081774  | 0.008943   | 0.0096684  |   0.5 |  0.01
Neigh   | 6.5843     | 8.6697     | 9.3926     |  35.1 |  5.94
Comm    | 1.6782     | 13.797     | 43.03      | 370.1 |  9.45
Output  | 0.0088713  | 0.009962   | 0.01095    |   0.8 |  0.01
Modify  | 12.435     | 13.155     | 15.239     |  28.4 |  9.01
Other   |            | 0.07318    |            |       |  0.05

Nlocal:         41.375 ave          52 max          38 min
Histogram: 4 1 1 0 0 1 0 0 0 1
Nghost:        3287.88 ave        3367 max        3229 min
Histogram: 2 0 1 0 0 4 0 0 0 1
Neighs:          26629 ave       33139 max       24371 min
Histogram: 4 1 1 0 1 0 0 0 0 1

Total # of neighbors = 213032
Ave neighs/atom = 643.60121
Ave special neighs/atom = 0
Neighbor list builds = 300
Dangerous builds not checked
OMP_NUM_THREADS environment is not set. Defaulting to 1 thread. (src/comm.cpp:98)
  using 1 OpenMP thread(s) per MPI task
Reading restart file ...
  restart file = 2 Aug 2023, LAMMPS = 2 Aug 2023
  restoring atom style full from restart
  triclinic box = (0 0 0) to (15.7087 13.0868 17.5248) with tilt (-8.2042 -0.1458 -2.0056)
WARNING: Triclinic box skew is large. LAMMPS will run inefficiently. (src/domain.cpp:220)
  2 by 2 by 2 MPI processor grid
  pair style reaxff stores no restart info
  331 atoms
Finding 1-2 1-3 1-4 neighbors ...
  special bond factors lj:    0        0        0       
  special bond factors coul:  0        0        0       
     0 = max # of 1-2 neighbors
     0 = max # of 1-3 neighbors
     0 = max # of 1-4 neighbors
     1 = max # of special neighbors
  special bonds CPU = 0.000 seconds
  read_restart CPU = 0.003 seconds
*****Positive-deform 6 starts.*****
Resetting global fix info from restart file:
  fix style: nvt, fix ID: fnvt
All restart file global fix info was re-assigned
Neighbor list info ...
  update: every = 10 steps, delay = 0 steps, check = no
  max neighbors/atom: 2000, page size: 100000
  master list distance cutoff = 12
  ghost atom cutoff = 12
  binsize = 6, bins = 5 3 3
  2 neighbor lists, perpetual/occasional/extra = 2 0 0
  (1) pair reaxff, perpetual
      attributes: half, newton off, ghost
      pair build: half/bin/newtoff/ghost
      stencil: full/ghost/bin/3d
      bin: standard
  (2) fix qeq/reaxff, perpetual, copy from (1)
      attributes: half, newton off
      pair build: copy
      stencil: none
      bin: none
Setting up Verlet run ...
  Unit style    : real
  Current step  : 0
  Time step     : 0.5
Per MPI rank memory allocation (min/avg/max) = 124.7 | 126.3 | 127.8 Mbytes
   Step          Temp          PotEng         Press         Density         Volume    
         0   288.05611     -36468.165     -16904.122      1.400369       3602.6891    
       100   296.74324     -36497.838     -11419.86       1.400369       3602.6891    
       200   290.44587     -36507.465      3847.0873      1.400369       3602.6891    
       300   299.70074     -36505.349     -3103.9596      1.400369       3602.6891    
       400   287.06361     -36473.269     -10239.079      1.400369       3602.6891    
       500   289.64619     -36463.077      557.30983      1.400369       3602.6891    
       600   299.7753      -36478.44      -9114.3857      1.400369       3602.6891    
       700   311.05892     -36502.106     -1668.7308      1.400369       3602.6891    
       800   298.84833     -36505.435     -5629.828       1.400369       3602.6891    
       900   299.95774     -36524.715     -1353.1326      1.400369       3602.6891    
      1000   279.59022     -36515.26       2203.3876      1.400369       3602.6891    
      1100   298.09834     -36524.685     -472.63647      1.400369       3602.6891    
      1200   317.28633     -36519.105     -7114.5505      1.400369       3602.6891    
      1300   304.42306     -36490.822      874.66641      1.400369       3602.6891    
      1400   323.57641     -36515.782      7025.0533      1.400369       3602.6891    
      1500   290.1221      -36509.252     -8787.2626      1.400369       3602.6891    
      1600   290.49956     -36528.213      2165.9446      1.400369       3602.6891    
      1700   288.40619     -36523.286     -80.366071      1.400369       3602.6891    
      1800   305.66114     -36514.999      1262.3678      1.400369       3602.6891    
      1900   301.36809     -36502.66      -1886.1567      1.400369       3602.6891    
      2000   305.26154     -36515.438     -2142.0432      1.400369       3602.6891    
      2100   292.04443     -36535.894      5864.7174      1.400369       3602.6891    
      2200   310.03593     -36554.499     -4313.8072      1.400369       3602.6891    
      2300   320.53704     -36552.04      -8613.1447      1.400369       3602.6891    
      2400   286.87427     -36514.388     -9131.5352      1.400369       3602.6891    
      2500   307.92762     -36526.907     -5991.5001      1.400369       3602.6891    
      2600   324.69345     -36519.955      3417.4794      1.400369       3602.6891    
      2700   299.25898     -36490.634      3788.7578      1.400369       3602.6891    
      2800   306.55881     -36532.131     -7509.9495      1.400369       3602.6891    
      2900   288.82165     -36525.823     -3326.1606      1.400369       3602.6891    
      3000   306.18649     -36539.948     -4965.8874      1.400369       3602.6891    
Loop time of 138.084 on 8 procs for 3000 steps with 331 atoms

Performance: 0.939 ns/day, 25.571 hours/ns, 21.726 timesteps/s, 7.191 katom-step/s
98.8% CPU use with 8 MPI tasks x 1 OpenMP threads

MPI task timing breakdown:
Section |  min time  |  avg time  |  max time  |%varavg| %total
---------------------------------------------------------------
Pair    | 73.211     | 100.81     | 113.14     | 148.0 | 73.00
Bond    | 0.0075392  | 0.0080633  | 0.0087665  |   0.4 |  0.01
Neigh   | 7.1902     | 9.5813     | 10.52      |  44.5 |  6.94
Comm    | 1.4873     | 13.819     | 41.416     | 399.9 | 10.01
Output  | 0.0081318  | 0.0090831  | 0.0098366  |   0.6 |  0.01
Modify  | 12.853     | 13.789     | 16.188     |  37.1 |  9.99
Other   |            | 0.06954    |            |       |  0.05

Nlocal:         41.375 ave          51 max          33 min
Histogram: 2 0 0 2 1 1 0 0 1 1
Nghost:         3248.5 ave        3265 max        3224 min
Histogram: 1 0 1 0 1 1 0 1 1 2
Neighs:        26625.4 ave       32464 max       21596 min
Histogram: 2 0 0 2 1 1 0 0 1 1

Total # of neighbors = 213003
Ave neighs/atom = 643.5136
Ave special neighs/atom = 0
Neighbor list builds = 300
Dangerous builds not checked
Total wall time: 0:31:37
