LAMMPS (2 Aug 2023 - Update 2)
  using 2 OpenMP thread(s) per MPI task
Reading data file ...
  triclinic box = (0 0 0) to (15.7087 13.0868 17.5248) with tilt (-8.2042 -0.1458 -2.0056)
WARNING: Triclinic box skew is large. LAMMPS will run inefficiently. (src/domain.cpp:220)
  2 by 2 by 2 MPI processor grid
  reading atoms ...
  331 atoms
Finding 1-2 1-3 1-4 neighbors ...
  special bond factors lj:    0        0        0       
  special bond factors coul:  0        0        0       
     0 = max # of 1-2 neighbors
     0 = max # of 1-3 neighbors
     0 = max # of 1-4 neighbors
     1 = max # of special neighbors
  special bonds CPU = 0.001 seconds
  read_data CPU = 0.008 seconds
*****Minimization starts.*****

CITE-CITE-CITE-CITE-CITE-CITE-CITE-CITE-CITE-CITE-CITE-CITE-CITE

Your simulation uses code contributions which should be cited:
- pair reaxff command: doi:10.1016/j.parco.2011.08.005
- fix qeq/reaxff command: doi:10.1016/j.parco.2011.08.005
The log file lists these citations in BibTeX format.

CITE-CITE-CITE-CITE-CITE-CITE-CITE-CITE-CITE-CITE-CITE-CITE-CITE

WARNING: Fix qeq/reaxff group is not charge neutral, net charge = 27.88 (src/REAXFF/fix_qeq_reaxff.cpp:392)
Neighbor list info ...
  update: every = 1 steps, delay = 0 steps, check = yes
  max neighbors/atom: 2000, page size: 100000
  master list distance cutoff = 12
  ghost atom cutoff = 12
  binsize = 6, bins = 5 3 3
  2 neighbor lists, perpetual/occasional/extra = 2 0 0
  (1) pair reaxff, perpetual
      attributes: half, newton off, ghost
      pair build: half/bin/newtoff/ghost
      stencil: full/ghost/bin/3d
      bin: standard
  (2) fix qeq/reaxff, perpetual, copy from (1)
      attributes: half, newton off
      pair build: copy
      stencil: none
      bin: none
Setting up cg style minimization ...
  Unit style    : real
  Current step  : 0
Per MPI rank memory allocation (min/avg/max) = 130.6 | 132.2 | 133.3 Mbytes
   Step          Temp          E_pair         E_mol          TotEng         Press     
         0   0             -34729.82       0             -34729.82       141055.58    
        11   0             -36001.793      0             -36001.793      2159.468     
Loop time of 0.740771 on 16 procs for 11 steps with 331 atoms

96.5% CPU use with 8 MPI tasks x 2 OpenMP threads

Minimization stats:
  Stopping criterion = energy tolerance
  Energy initial, next-to-last, final = 
     -34729.8197710534  -36001.7895955819  -36001.7934926299
  Force two-norm initial, final = 1956.832 350.68526
  Force max component initial, final = 221.80846 87.44474
  Final line search alpha, max atom move = 0.0015396796 0.13463688
  Iterations, force evaluations = 11 21

MPI task timing breakdown:
Section |  min time  |  avg time  |  max time  |%varavg| %total
---------------------------------------------------------------
Pair    | 0.45932    | 0.4867     | 0.52685    |   3.4 | 65.70
Bond    | 4.15e-06   | 5.372e-06  | 6.588e-06  |   0.0 |  0.00
Neigh   | 0          | 0          | 0          |   0.0 |  0.00
Comm    | 0.061896   | 0.102      | 0.12931    |   7.5 | 13.77
Output  | 0          | 0          | 0          |   0.0 |  0.00
Modify  | 0.15073    | 0.15075    | 0.15076    |   0.0 | 20.35
Other   |            | 0.001322   |            |       |  0.18

Nlocal:         41.375 ave          44 max          36 min
Histogram: 1 0 0 0 0 1 1 2 2 1
Nghost:        3322.25 ave        3352 max        3277 min
Histogram: 1 0 0 0 3 0 1 0 1 2
Neighs:        26610.2 ave       28228 max       23316 min
Histogram: 1 0 0 0 0 1 1 2 2 1

Total # of neighbors = 212882
Ave neighs/atom = 643.14804
Ave special neighs/atom = 0
Neighbor list builds = 0
Dangerous builds = 0
System init for write_data ...
WARNING: New thermo_style command, previous thermo_modify settings will be lost (src/output.cpp:903)
Neighbor list info ...
  update: every = 10 steps, delay = 0 steps, check = no
  max neighbors/atom: 2000, page size: 100000
  master list distance cutoff = 12
  ghost atom cutoff = 12
  binsize = 6, bins = 5 3 3
  2 neighbor lists, perpetual/occasional/extra = 2 0 0
  (1) pair reaxff, perpetual
      attributes: half, newton off, ghost
      pair build: half/bin/newtoff/ghost
      stencil: full/ghost/bin/3d
      bin: standard
  (2) fix qeq/reaxff, perpetual, copy from (1)
      attributes: half, newton off
      pair build: copy
      stencil: none
      bin: none
Setting up Verlet run ...
  Unit style    : real
  Current step  : 0
  Time step     : 0.5
Per MPI rank memory allocation (min/avg/max) = 129 | 130.5 | 131.7 Mbytes
   Step          Temp          PotEng         Press         Density         Volume    
         0   300           -36001.794      5903.6935      1.400369       3602.6891    
       100   290.98412     -35957.658      482.8644       1.400369       3602.6891    
       200   338.50106     -36008.636     -1024.5928      1.400369       3602.6891    
       300   373.16142     -36116.673     -5481.5457      1.400369       3602.6891    
       400   360.07374     -36191.314      9945.9194      1.400369       3602.6891    
       500   336.75775     -36245.952     -997.75556      1.400369       3602.6891    
       600   310.23949     -36284.459     -11567.945      1.400369       3602.6891    
       700   301.51658     -36322.995     -4728.2491      1.400369       3602.6891    
       800   316.53059     -36368.543      2402.187       1.400369       3602.6891    
       900   290.49303     -36371.356      1180.5463      1.400369       3602.6891    
      1000   285.2686      -36381.636     -3543.0342      1.400369       3602.6891    
      1100   293.74541     -36373.505     -4214.5822      1.400369       3602.6891    
      1200   313.08219     -36374.657     -7420.453       1.400369       3602.6891    
      1300   310.80283     -36380.322      7062.2317      1.400369       3602.6891    
      1400   294.97768     -36403.8        1152.4015      1.400369       3602.6891    
      1500   304.54089     -36431.226     -6347.387       1.400369       3602.6891    
      1600   295.29901     -36440.683     -3394.9061      1.400369       3602.6891    
      1700   278.34513     -36429.641     -5277.1676      1.400369       3602.6891    
      1800   306.6815      -36453.239     -7612.9825      1.400369       3602.6891    
      1900   324.81681     -36465.583     -20859.66       1.400369       3602.6891    
      2000   316.85582     -36475.451      7135.1499      1.400369       3602.6891    
      2100   310.63598     -36498.39      -5092.7855      1.400369       3602.6891    
      2200   310.61824     -36511.061     -10237.867      1.400369       3602.6891    
      2300   288.37489     -36501.558     -12598.601      1.400369       3602.6891    
      2400   308.28723     -36503.257     -7260.1185      1.400369       3602.6891    
      2500   309.1473      -36472.651     -5254.7906      1.400369       3602.6891    
      2600   329.43732     -36491.824     -9157.454       1.400369       3602.6891    
      2700   317.36582     -36500.78      -2313.6498      1.400369       3602.6891    
      2800   289.17858     -36487.038     -1563.6879      1.400369       3602.6891    
      2900   299.58586     -36496.253     -7207.1007      1.400369       3602.6891    
      3000   304.94884     -36503.214     -15110.392      1.400369       3602.6891    
      3100   305.51191     -36511.582      1249.781       1.400369       3602.6891    
      3200   308.82226     -36517.561      859.62548      1.400369       3602.6891    
      3300   288.35124     -36495.405      1056.1959      1.400369       3602.6891    
      3400   296.9005      -36505.685      983.39495      1.400369       3602.6891    
      3500   300.64963     -36520.818     -3109.7175      1.400369       3602.6891    
      3600   294.68267     -36543.877     -16610.407      1.400369       3602.6891    
      3700   287.0359      -36548.588      7747.8694      1.400369       3602.6891    
      3800   267.8318      -36510.792      1869.3044      1.400369       3602.6891    
      3900   301.48437     -36528.229      1046.3619      1.400369       3602.6891    
      4000   315.2488      -36536.102     -4970.7663      1.400369       3602.6891    
      4100   300.91826     -36536.598      4458.1669      1.400369       3602.6891    
      4200   301.25722     -36552.491     -13696.364      1.400369       3602.6891    
      4300   287.8058      -36561.203     -4816.3269      1.400369       3602.6891    
      4400   266.16621     -36551.594     -6651.954       1.400369       3602.6891    
      4500   287.12183     -36538.026      1280.0037      1.400369       3602.6891    
      4600   291.92549     -36522.806     -6291.923       1.400369       3602.6891    
      4700   292.96505     -36515.483     -7419.8528      1.400369       3602.6891    
      4800   293.41638     -36515.223     -531.71557      1.400369       3602.6891    
      4900   311.83994     -36539.435     -1391.0502      1.400369       3602.6891    
      5000   290.04269     -36543.282      4226.0307      1.400369       3602.6891    
Loop time of 247.743 on 16 procs for 5000 steps with 331 atoms

Performance: 0.872 ns/day, 27.527 hours/ns, 20.182 timesteps/s, 6.680 katom-step/s
99.1% CPU use with 8 MPI tasks x 2 OpenMP threads

MPI task timing breakdown:
Section |  min time  |  avg time  |  max time  |%varavg| %total
---------------------------------------------------------------
Pair    | 179.05     | 185.71     | 191.96     |  35.0 | 74.96
Bond    | 0.0014533  | 0.0018757  | 0.0021291  |   0.6 |  0.00
Neigh   | 14.35      | 14.559     | 14.821     |   3.8 |  5.88
Comm    | 17.542     | 23.673     | 30.421     |  98.2 |  9.56
Output  | 0.0031818  | 0.0037506  | 0.0076398  |   2.4 |  0.00
Modify  | 22.589     | 22.793     | 23.152     |   3.9 |  9.20
Other   |            | 0.9983     |            |       |  0.40

Nlocal:         41.375 ave          52 max          32 min
Histogram: 1 1 1 0 1 1 1 1 0 1
Nghost:         3264.5 ave        3296 max        3217 min
Histogram: 1 0 0 0 3 0 1 0 1 2
Neighs:        26566.8 ave       32980 max       21064 min
Histogram: 1 1 1 0 1 1 2 0 0 1

Total # of neighbors = 212534
Ave neighs/atom = 642.09668
Ave special neighs/atom = 0
Neighbor list builds = 500
Dangerous builds not checked
System init for write_data ...
System init for write_restart ...
  using 2 OpenMP thread(s) per MPI task
Reading restart file ...
  restart file = 2 Aug 2023, LAMMPS = 2 Aug 2023
  restoring atom style full from restart
  triclinic box = (0 0 0) to (15.7087 13.0868 17.5248) with tilt (-8.2042 -0.1458 -2.0056)
WARNING: Triclinic box skew is large. LAMMPS will run inefficiently. (src/domain.cpp:220)
  2 by 2 by 2 MPI processor grid
  pair style reaxff stores no restart info
  331 atoms
Finding 1-2 1-3 1-4 neighbors ...
  special bond factors lj:    0        0        0       
  special bond factors coul:  0        0        0       
     0 = max # of 1-2 neighbors
     0 = max # of 1-3 neighbors
     0 = max # of 1-4 neighbors
     1 = max # of special neighbors
  special bonds CPU = 0.001 seconds
  read_restart CPU = 0.005 seconds
*****debug*****
xy = -8.2042000000000001592, deltaxy = 0.82042
xz = -0.14580000000000001292, deltaxz = 0.01458
yz = -2.0055999999999998273, deltayz = 0.20056
*****
*****Negative-deform 1 starts.*****
Resetting global fix info from restart file:
  fix style: nvt, fix ID: fnvt
All restart file global fix info was re-assigned
Neighbor list info ...
  update: every = 10 steps, delay = 0 steps, check = no
  max neighbors/atom: 2000, page size: 100000
  master list distance cutoff = 12
  ghost atom cutoff = 12
  binsize = 6, bins = 5 3 3
  2 neighbor lists, perpetual/occasional/extra = 2 0 0
  (1) pair reaxff, perpetual
      attributes: half, newton off, ghost
      pair build: half/bin/newtoff/ghost
      stencil: full/ghost/bin/3d
      bin: standard
  (2) fix qeq/reaxff, perpetual, copy from (1)
      attributes: half, newton off
      pair build: copy
      stencil: none
      bin: none
Setting up Verlet run ...
  Unit style    : real
  Current step  : 0
  Time step     : 0.5
Per MPI rank memory allocation (min/avg/max) = 126.8 | 128 | 129.8 Mbytes
   Step          Temp          PotEng         Press          Volume           Lx             Ly             Lz      
         0   290.04269     -36543.282      4226.0457      3602.6891      15.7087        13.0868        17.5248      
       100   301.57279     -36564.181     -5422.7547      3595.4837      15.677283      13.0868        17.5248      
       200   300.67618     -36558.592     -5402.624       3588.2783      15.645865      13.0868        17.5248      
       300   289.30954     -36532.051     -6240.1167      3581.0729      15.614448      13.0868        17.5248      
       400   309.36574     -36530.107     -7423.5448      3573.8676      15.58303       13.0868        17.5248      
       500   300.80758     -36538.524     -6059.8653      3566.6622      15.551613      13.0868        17.5248      
       600   317.37333     -36578.933     -9096.7528      3559.4568      15.520196      13.0868        17.5248      
       700   287.44854     -36560.644      1760.9949      3552.2514      15.488778      13.0868        17.5248      
       800   303.89249     -36574.646     -2602.4592      3545.046       15.457361      13.0868        17.5248      
       900   282.43725     -36554.516     -1315.7823      3537.8407      15.425943      13.0868        17.5248      
      1000   293.92386     -36555.302      2781.9786      3530.6353      15.394526      13.0868        17.5248      
      1100   299.33296     -36555.887      7406.2761      3523.4299      15.363109      13.0868        17.5248      
      1200   304.42668     -36566.095      5501.5904      3516.2245      15.331691      13.0868        17.5248      
      1300   294.2406      -36579.207      248.50758      3509.0191      15.300274      13.0868        17.5248      
      1400   299.14697     -36584.427      10746.216      3501.8138      15.268856      13.0868        17.5248      
      1500   292.31584     -36563.07       6556.2301      3494.6084      15.237439      13.0868        17.5248      
      1600   328.04837     -36557.464     -2349.4158      3487.403       15.206022      13.0868        17.5248      
      1700   322.93297     -36541.828     -5985.3224      3480.1976      15.174604      13.0868        17.5248      
      1800   307.09675     -36561.396      6266.9898      3472.9923      15.143187      13.0868        17.5248      
      1900   312.81522     -36566.998      477.91433      3465.7869      15.111769      13.0868        17.5248      
      2000   298.94216     -36572.495      7891.8495      3458.5815      15.080352      13.0868        17.5248      
      2100   297.52944     -36582.497      1943.1559      3451.3761      15.048935      13.0868        17.5248      
      2200   287.97469     -36572.952      11549.931      3444.1707      15.017517      13.0868        17.5248      
      2300   290.29769     -36584.574      1348.0241      3436.9654      14.9861        13.0868        17.5248      
      2400   276.69137     -36590.234      8125.652       3429.76        14.954682      13.0868        17.5248      
      2500   271.87717     -36574.979     -1068.8055      3422.5546      14.923265      13.0868        17.5248      
      2600   310.80893     -36572.465     -2913.0001      3415.3492      14.891848      13.0868        17.5248      
      2700   311.76963     -36561.65       768.80664      3408.1439      14.86043       13.0868        17.5248      
      2800   319.41295     -36569.136      3120.7603      3400.9385      14.829013      13.0868        17.5248      
      2900   313.63018     -36580.124      10523.988      3393.7331      14.797595      13.0868        17.5248      
      3000   290.84586     -36569.631      11227.129      3386.5277      14.766178      13.0868        17.5248      
      3100   300.19839     -36564.042      623.88209      3379.3223      14.734761      13.0868        17.5248      
      3200   283.8911      -36550.992      9335.3311      3372.117       14.703343      13.0868        17.5248      
      3300   307.08845     -36597.471      21232.35       3364.9116      14.671926      13.0868        17.5248      
      3400   301.38163     -36593.472      13984.347      3357.7062      14.640508      13.0868        17.5248      
      3500   309.87879     -36601.022      8865.7654      3350.5008      14.609091      13.0868        17.5248      
      3600   303.12203     -36595.49       1947.931       3343.2955      14.577674      13.0868        17.5248      
      3700   299.06835     -36574.112      1051.1616      3336.0901      14.546256      13.0868        17.5248      
      3800   301.93246     -36573.719      12865.672      3328.8847      14.514839      13.0868        17.5248      
      3900   297.43383     -36585.094      6213.4073      3321.6793      14.483421      13.0868        17.5248      
      4000   304.73656     -36596.119      641.06304      3314.4739      14.452004      13.0868        17.5248      
      4100   281.07919     -36574.574      9252.2355      3307.2686      14.420587      13.0868        17.5248      
      4200   283.22122     -36588.521      17339.63       3300.0632      14.389169      13.0868        17.5248      
      4300   285.05773     -36585.035      15151.998      3292.8578      14.357752      13.0868        17.5248      
      4400   303.98772     -36573.093      17521.75       3285.6524      14.326334      13.0868        17.5248      
      4500   322.43596     -36561.117      15287.425      3278.447       14.294917      13.0868        17.5248      
      4600   293.91327     -36535.273      23411.963      3271.2417      14.2635        13.0868        17.5248      
      4700   283.17931     -36549.41       15199.434      3264.0363      14.232082      13.0868        17.5248      
      4800   302.81738     -36564.297      34592.517      3256.8309      14.200665      13.0868        17.5248      
      4900   302.10456     -36560.959      4042.8189      3249.6255      14.169247      13.0868        17.5248      
      5000   305.7807      -36576.901      11246.564      3242.4202      14.13783       13.0868        17.5248      
Loop time of 269.959 on 16 procs for 5000 steps with 331 atoms

Performance: 0.800 ns/day, 29.995 hours/ns, 18.521 timesteps/s, 6.131 katom-step/s
99.2% CPU use with 8 MPI tasks x 2 OpenMP threads

MPI task timing breakdown:
Section |  min time  |  avg time  |  max time  |%varavg| %total
---------------------------------------------------------------
Pair    | 196.24     | 202.41     | 209.37     |  33.6 | 74.98
Bond    | 0.0014432  | 0.0019172  | 0.0022429  |   0.6 |  0.00
Neigh   | 17.206     | 17.567     | 17.988     |   6.1 |  6.51
Comm    | 17.498     | 24.585     | 30.779     |  97.2 |  9.11
Output  | 0.031492   | 0.037474   | 0.04228    |   1.9 |  0.01
Modify  | 23.733     | 24.367     | 24.938     |   7.2 |  9.03
Other   |            | 0.9921     |            |       |  0.37

Nlocal:         41.375 ave          51 max          33 min
Histogram: 1 1 0 1 1 1 2 0 0 1
Nghost:        3495.62 ave        3557 max        3447 min
Histogram: 2 2 0 0 0 1 0 0 2 1
Neighs:        29636.1 ave       36120 max       23971 min
Histogram: 1 1 0 1 2 0 2 0 0 1

Total # of neighbors = 237089
Ave neighs/atom = 716.28097
Ave special neighs/atom = 0
Neighbor list builds = 500
Dangerous builds not checked
  using 2 OpenMP thread(s) per MPI task
Reading restart file ...
  restart file = 2 Aug 2023, LAMMPS = 2 Aug 2023
  restoring atom style full from restart
  triclinic box = (0 0 0) to (15.7087 13.0868 17.5248) with tilt (-8.2042 -0.1458 -2.0056)
WARNING: Triclinic box skew is large. LAMMPS will run inefficiently. (src/domain.cpp:220)
  2 by 2 by 2 MPI processor grid
  pair style reaxff stores no restart info
  331 atoms
Finding 1-2 1-3 1-4 neighbors ...
  special bond factors lj:    0        0        0       
  special bond factors coul:  0        0        0       
     0 = max # of 1-2 neighbors
     0 = max # of 1-3 neighbors
     0 = max # of 1-4 neighbors
     1 = max # of special neighbors
  special bonds CPU = 0.000 seconds
  read_restart CPU = 0.003 seconds
*****Positive-deform 1 starts.*****
Resetting global fix info from restart file:
  fix style: nvt, fix ID: fnvt
All restart file global fix info was re-assigned
Neighbor list info ...
  update: every = 10 steps, delay = 0 steps, check = no
  max neighbors/atom: 2000, page size: 100000
  master list distance cutoff = 12
  ghost atom cutoff = 12
  binsize = 6, bins = 5 3 3
  2 neighbor lists, perpetual/occasional/extra = 2 0 0
  (1) pair reaxff, perpetual
      attributes: half, newton off, ghost
      pair build: half/bin/newtoff/ghost
      stencil: full/ghost/bin/3d
      bin: standard
  (2) fix qeq/reaxff, perpetual, copy from (1)
      attributes: half, newton off
      pair build: copy
      stencil: none
      bin: none
Setting up Verlet run ...
  Unit style    : real
  Current step  : 0
  Time step     : 0.5
Per MPI rank memory allocation (min/avg/max) = 126.8 | 128 | 129.8 Mbytes
   Step          Temp          PotEng         Press          Volume           Lx             Ly             Lz      
         0   290.04269     -36543.282      4226.0457      3602.6891      15.7087        13.0868        17.5248      
       100   300.9627      -36563.984     -5304.9413      3609.8944      15.740117      13.0868        17.5248      
       200   296.96319     -36554.888     -4411.0639      3617.0998      15.771535      13.0868        17.5248      
       300   313.30963     -36530.615     -9197.914       3624.3052      15.802952      13.0868        17.5248      
       400   312.73934     -36512.148     -10286.748      3631.5106      15.83437       13.0868        17.5248      
       500   315.14121     -36540.407     -6675.1978      3638.716       15.865787      13.0868        17.5248      
       600   303.8161      -36541.148     -2357.6477      3645.9213      15.897204      13.0868        17.5248      
       700   287.41075     -36536.699      1446.243       3653.1267      15.928622      13.0868        17.5248      
       800   305.86015     -36563.953      14346.129      3660.3321      15.960039      13.0868        17.5248      
       900   296.49389     -36556.216     -16756.928      3667.5375      15.991457      13.0868        17.5248      
      1000   277.44405     -36531.989     -15346.91       3674.7428      16.022874      13.0868        17.5248      
      1100   281.33292     -36545.181     -12948.425      3681.9482      16.054291      13.0868        17.5248      
      1200   293.89557     -36558.682     -1139.5805      3689.1536      16.085709      13.0868        17.5248      
      1300   280.91831     -36542.593     -6197.2464      3696.359       16.117126      13.0868        17.5248      
      1400   303.62053     -36525.868     -8651.6109      3703.5644      16.148544      13.0868        17.5248      
      1500   321.55986     -36524.34      -719.4648       3710.7697      16.179961      13.0868        17.5248      
      1600   318.94111     -36539.377     -23119.16       3717.9751      16.211378      13.0868        17.5248      
      1700   286.90546     -36513.926     -8945.4152      3725.1805      16.242796      13.0868        17.5248      
      1800   320.48333     -36545.17      -13031.862      3732.3859      16.274213      13.0868        17.5248      
      1900   301.827       -36533.261     -7259.8634      3739.5912      16.305631      13.0868        17.5248      
      2000   285.26238     -36531.203     -20700.738      3746.7966      16.337048      13.0868        17.5248      
      2100   290.13069     -36536.775     -19280.643      3754.002       16.368465      13.0868        17.5248      
      2200   321.91514     -36535.619     -5468.9266      3761.2074      16.399883      13.0868        17.5248      
      2300   322.66007     -36511.302     -6818.0486      3768.4128      16.4313        13.0868        17.5248      
      2400   312.76348     -36517.49      -2256.4066      3775.6181      16.462718      13.0868        17.5248      
      2500   311.31321     -36536.597     -6773.9493      3782.8235      16.494135      13.0868        17.5248      
      2600   304.02206     -36534.585     -11781.014      3790.0289      16.525552      13.0868        17.5248      
      2700   306.09889     -36541.231     -8775.8185      3797.2343      16.55697       13.0868        17.5248      
      2800   288.93993     -36528.441     -7529.9477      3804.4397      16.588387      13.0868        17.5248      
      2900   299.14551     -36532.548      4076.0254      3811.645       16.619805      13.0868        17.5248      
      3000   289.26858     -36514.282     -6136.9646      3818.8504      16.651222      13.0868        17.5248      
      3100   298.9081      -36499.421     -11993.483      3826.0558      16.682639      13.0868        17.5248      
      3200   312.89396     -36508.1       -6568.3486      3833.2612      16.714057      13.0868        17.5248      
      3300   291.09399     -36503.287      2102.5884      3840.4665      16.745474      13.0868        17.5248      
      3400   285.05074     -36509.507     -9311.7936      3847.6719      16.776892      13.0868        17.5248      
      3500   291.55843     -36520.963     -6822.3726      3854.8773      16.808309      13.0868        17.5248      
      3600   272.37404     -36507.32      -10066.186      3862.0827      16.839726      13.0868        17.5248      
      3700   296.55178     -36504.026     -19878.185      3869.2881      16.871144      13.0868        17.5248      
      3800   318.17679     -36487.833     -2255.9594      3876.4934      16.902561      13.0868        17.5248      
      3900   327.88048     -36503.426     -4648.0045      3883.6988      16.933979      13.0868        17.5248      
      4000   302.43719     -36497.663     -7420.8211      3890.9042      16.965396      13.0868        17.5248      
      4100   299.17944     -36496.529     -8016.7056      3898.1096      16.996813      13.0868        17.5248      
      4200   288.56423     -36477.361     -3076.3437      3905.3149      17.028231      13.0868        17.5248      
      4300   295.77899     -36489.319     -9439.8999      3912.5203      17.059648      13.0868        17.5248      
      4400   291.52869     -36504.234     -8948.3357      3919.7257      17.091066      13.0868        17.5248      
      4500   299.63106     -36512.641     -12449.896      3926.9311      17.122483      13.0868        17.5248      
      4600   292.24616     -36483.276     -12089.344      3934.1365      17.1539        13.0868        17.5248      
      4700   307.93976     -36463.438     -2243.5795      3941.3418      17.185318      13.0868        17.5248      
      4800   312.77964     -36461.375     -6253.2336      3948.5472      17.216735      13.0868        17.5248      
      4900   327.59867     -36495.283     -1883.9387      3955.7526      17.248153      13.0868        17.5248      
      5000   297.41251     -36487.746     -25783.297      3962.958       17.27957       13.0868        17.5248      
Loop time of 232.719 on 16 procs for 5000 steps with 331 atoms

Performance: 0.928 ns/day, 25.858 hours/ns, 21.485 timesteps/s, 7.112 katom-step/s
99.2% CPU use with 8 MPI tasks x 2 OpenMP threads

MPI task timing breakdown:
Section |  min time  |  avg time  |  max time  |%varavg| %total
---------------------------------------------------------------
Pair    | 164.51     | 172.52     | 180.13     |  39.0 | 74.13
Bond    | 0.0014467  | 0.0018762  | 0.0021955  |   0.5 |  0.00
Neigh   | 13.732     | 13.987     | 14.448     |   5.8 |  6.01
Comm    | 15.249     | 22.816     | 30.817     | 107.1 |  9.80
Output  | 0.035127   | 0.056295   | 0.079213   |   7.1 |  0.02
Modify  | 22.03      | 22.398     | 22.733     |   4.5 |  9.62
Other   |            | 0.943      |            |       |  0.41

Nlocal:         41.375 ave          52 max          36 min
Histogram: 3 1 0 1 0 1 1 0 0 1
Nghost:        3061.75 ave        3097 max        3037 min
Histogram: 1 1 3 0 1 0 0 0 1 1
Neighs:        24131.1 ave       30009 max       21025 min
Histogram: 3 1 0 1 0 1 1 0 0 1

Total # of neighbors = 193049
Ave neighs/atom = 583.22961
Ave special neighs/atom = 0
Neighbor list builds = 500
Dangerous builds not checked
  using 2 OpenMP thread(s) per MPI task
Reading restart file ...
  restart file = 2 Aug 2023, LAMMPS = 2 Aug 2023
  restoring atom style full from restart
  triclinic box = (0 0 0) to (15.7087 13.0868 17.5248) with tilt (-8.2042 -0.1458 -2.0056)
WARNING: Triclinic box skew is large. LAMMPS will run inefficiently. (src/domain.cpp:220)
  2 by 2 by 2 MPI processor grid
  pair style reaxff stores no restart info
  331 atoms
Finding 1-2 1-3 1-4 neighbors ...
  special bond factors lj:    0        0        0       
  special bond factors coul:  0        0        0       
     0 = max # of 1-2 neighbors
     0 = max # of 1-3 neighbors
     0 = max # of 1-4 neighbors
     1 = max # of special neighbors
  special bonds CPU = 0.001 seconds
  read_restart CPU = 0.006 seconds
*****debug*****
xy = -8.2042000000000001592, deltaxy = 0.82042
xz = -0.14580000000000001292, deltaxz = 0.01458
yz = -2.0055999999999998273, deltayz = 0.20056
*****
*****Negative-deform 2 starts.*****
Resetting global fix info from restart file:
  fix style: nvt, fix ID: fnvt
All restart file global fix info was re-assigned
Neighbor list info ...
  update: every = 10 steps, delay = 0 steps, check = no
  max neighbors/atom: 2000, page size: 100000
  master list distance cutoff = 12
  ghost atom cutoff = 12
  binsize = 6, bins = 5 3 3
  2 neighbor lists, perpetual/occasional/extra = 2 0 0
  (1) pair reaxff, perpetual
      attributes: half, newton off, ghost
      pair build: half/bin/newtoff/ghost
      stencil: full/ghost/bin/3d
      bin: standard
  (2) fix qeq/reaxff, perpetual, copy from (1)
      attributes: half, newton off
      pair build: copy
      stencil: none
      bin: none
Setting up Verlet run ...
  Unit style    : real
  Current step  : 0
  Time step     : 0.5
Per MPI rank memory allocation (min/avg/max) = 126.8 | 128 | 129.8 Mbytes
   Step          Temp          PotEng         Press          Volume           Lx             Ly             Lz      
         0   290.04269     -36543.282      4226.0457      3602.6891      15.7087        13.0868        17.5248      
       100   301.15308     -36563.911     -5388.2497      3595.4837      15.7087        13.060626      17.5248      
       200   302.41389     -36561.152     -4608.2875      3588.2783      15.7087        13.034453      17.5248      
       300   318.57411     -36556.611     -1845.0422      3581.0729      15.7087        13.008279      17.5248      
       400   313.30895     -36528.238     -4225.4699      3573.8676      15.7087        12.982106      17.5248      
       500   318.8986      -36536.024      6379.2351      3566.6622      15.7087        12.955932      17.5248      
       600   298.14577     -36541.443      4338.5673      3559.4568      15.7087        12.929758      17.5248      
       700   302.48193     -36550.488     -4549.5317      3552.2514      15.7087        12.903585      17.5248      
       800   295.36977     -36542.611     -1465.4457      3545.046       15.7087        12.877411      17.5248      
       900   302.27318     -36550.903     -5463.6971      3537.8407      15.7087        12.851238      17.5248      
      1000   290.00075     -36565.903     -330.92697      3530.6353      15.7087        12.825064      17.5248      
      1100   288.50621     -36570.295      1782.8304      3523.4299      15.7087        12.79889       17.5248      
      1200   282.95069     -36543.652     -16377.725      3516.2245      15.7087        12.772717      17.5248      
      1300   288.48651     -36520.65       2453.5918      3509.0191      15.7087        12.746543      17.5248      
      1400   303.60425     -36529.016     -1622.6636      3501.8138      15.7087        12.72037       17.5248      
      1500   300.35542     -36539.136     -3725.8877      3494.6084      15.7087        12.694196      17.5248      
      1600   296.05364     -36553.801     -5066.0666      3487.403       15.7087        12.668022      17.5248      
      1700   288.18835     -36552.706      509.84801      3480.1976      15.7087        12.641849      17.5248      
      1800   299.15546     -36553.265     -1501.7175      3472.9923      15.7087        12.615675      17.5248      
      1900   312.66709     -36540.963      362.58651      3465.7869      15.7087        12.589502      17.5248      
      2000   318.45511     -36534.715      8166.4836      3458.5815      15.7087        12.563328      17.5248      
      2100   308.28492     -36545.442     -83.2147        3451.3761      15.7087        12.537154      17.5248      
      2200   308.5836      -36563.125      13870.08       3444.1707      15.7087        12.510981      17.5248      
      2300   307.8143      -36559.694     -4035.3524      3436.9654      15.7087        12.484807      17.5248      
      2400   299.44211     -36548.318      382.04258      3429.76        15.7087        12.458634      17.5248      
      2500   310.10415     -36547.035      5418.2823      3422.5546      15.7087        12.43246       17.5248      
      2600   318.33754     -36549.899      4529.8908      3415.3492      15.7087        12.406286      17.5248      
      2700   297.05177     -36555.157      11017.809      3408.1439      15.7087        12.380113      17.5248      
      2800   285.30212     -36553.839     -2279.9013      3400.9385      15.7087        12.353939      17.5248      
      2900   292.3791      -36557.804      2314.9089      3393.7331      15.7087        12.327766      17.5248      
      3000   302.85084     -36575.125      9232.2414      3386.5277      15.7087        12.301592      17.5248      
      3100   289.76244     -36583.022      4094.1586      3379.3223      15.7087        12.275418      17.5248      
      3200   285.20253     -36579.249      10828.282      3372.117       15.7087        12.249245      17.5248      
      3300   292.79395     -36560.476      12286.365      3364.9116      15.7087        12.223071      17.5248      
      3400   305.03432     -36537.575      12811.308      3357.7062      15.7087        12.196898      17.5248      
      3500   318.83753     -36555.53      -1256.6468      3350.5008      15.7087        12.170724      17.5248      
      3600   319.37826     -36580.1        9342.2788      3343.2955      15.7087        12.14455       17.5248      
      3700   313.55213     -36583.037      6471.5465      3336.0901      15.7087        12.118377      17.5248      
      3800   310.29466     -36583.487      1554.8455      3328.8847      15.7087        12.092203      17.5248      
      3900   305.11001     -36584.811      1619.1246      3321.6793      15.7087        12.06603       17.5248      
      4000   271.83084     -36572.176      1420.111       3314.4739      15.7087        12.039856      17.5248      
      4100   268.93765     -36589.826      2490.4346      3307.2686      15.7087        12.013682      17.5248      
      4200   288.8588      -36584.044      9988.3195      3300.0632      15.7087        11.987509      17.5248      
      4300   320.30716     -36587.334      17779.62       3292.8578      15.7087        11.961335      17.5248      
      4400   312.58069     -36572.176      2782.7632      3285.6524      15.7087        11.935162      17.5248      
      4500   308.85126     -36580.806      15379.78       3278.447       15.7087        11.908988      17.5248      
      4600   301.84261     -36581.993     -8825.8108      3271.2417      15.7087        11.882814      17.5248      
      4700   297.76013     -36579.327      11916.363      3264.0363      15.7087        11.856641      17.5248      
      4800   305.29296     -36559.225      9511.1364      3256.8309      15.7087        11.830467      17.5248      
      4900   323.12977     -36542.811      35821.157      3249.6255      15.7087        11.804294      17.5248      
      5000   321.90183     -36556.168      7821.1025      3242.4202      15.7087        11.77812       17.5248      
Loop time of 269.497 on 16 procs for 5000 steps with 331 atoms

Performance: 0.801 ns/day, 29.944 hours/ns, 18.553 timesteps/s, 6.141 katom-step/s
99.2% CPU use with 8 MPI tasks x 2 OpenMP threads

MPI task timing breakdown:
Section |  min time  |  avg time  |  max time  |%varavg| %total
---------------------------------------------------------------
Pair    | 199.85     | 204.93     | 211.53     |  28.5 | 76.04
Bond    | 0.0014542  | 0.0018905  | 0.0021286  |   0.5 |  0.00
Neigh   | 15.337     | 15.582     | 15.989     |   5.1 |  5.78
Comm    | 17.451     | 23.935     | 28.973     |  82.6 |  8.88
Output  | 0.028189   | 0.033757   | 0.038124   |   1.9 |  0.01
Modify  | 23.809     | 24.09      | 24.492     |   4.3 |  8.94
Other   |            | 0.9226     |            |       |  0.34

Nlocal:         41.375 ave          48 max          32 min
Histogram: 1 0 1 1 0 1 1 0 0 3
Nghost:         3634.5 ave        3701 max        3585 min
Histogram: 1 1 1 1 2 0 0 0 1 1
Neighs:        29577.9 ave       34200 max       23189 min
Histogram: 1 0 2 0 0 1 1 0 0 3

Total # of neighbors = 236623
Ave neighs/atom = 714.87311
Ave special neighs/atom = 0
Neighbor list builds = 500
Dangerous builds not checked
  using 2 OpenMP thread(s) per MPI task
Reading restart file ...
  restart file = 2 Aug 2023, LAMMPS = 2 Aug 2023
  restoring atom style full from restart
  triclinic box = (0 0 0) to (15.7087 13.0868 17.5248) with tilt (-8.2042 -0.1458 -2.0056)
WARNING: Triclinic box skew is large. LAMMPS will run inefficiently. (src/domain.cpp:220)
  2 by 2 by 2 MPI processor grid
  pair style reaxff stores no restart info
  331 atoms
Finding 1-2 1-3 1-4 neighbors ...
  special bond factors lj:    0        0        0       
  special bond factors coul:  0        0        0       
     0 = max # of 1-2 neighbors
     0 = max # of 1-3 neighbors
     0 = max # of 1-4 neighbors
     1 = max # of special neighbors
  special bonds CPU = 0.000 seconds
  read_restart CPU = 0.004 seconds
*****Positive-deform 2 starts.*****
Resetting global fix info from restart file:
  fix style: nvt, fix ID: fnvt
All restart file global fix info was re-assigned
Neighbor list info ...
  update: every = 10 steps, delay = 0 steps, check = no
  max neighbors/atom: 2000, page size: 100000
  master list distance cutoff = 12
  ghost atom cutoff = 12
  binsize = 6, bins = 5 3 3
  2 neighbor lists, perpetual/occasional/extra = 2 0 0
  (1) pair reaxff, perpetual
      attributes: half, newton off, ghost
      pair build: half/bin/newtoff/ghost
      stencil: full/ghost/bin/3d
      bin: standard
  (2) fix qeq/reaxff, perpetual, copy from (1)
      attributes: half, newton off
      pair build: copy
      stencil: none
      bin: none
Setting up Verlet run ...
  Unit style    : real
  Current step  : 0
  Time step     : 0.5
Per MPI rank memory allocation (min/avg/max) = 126.8 | 128 | 129.8 Mbytes
   Step          Temp          PotEng         Press          Volume           Lx             Ly             Lz      
         0   290.04269     -36543.282      4226.0457      3602.6891      15.7087        13.0868        17.5248      
       100   301.14817     -36563.9       -5422.082       3609.8944      15.7087        13.112974      17.5248      
       200   297.37622     -36554.666     -2803.7046      3617.0998      15.7087        13.139147      17.5248      
       300   323.07919     -36541.142     -5662.2691      3624.3052      15.7087        13.165321      17.5248      
       400   312.75469     -36519.398     -6804.0951      3631.5106      15.7087        13.191494      17.5248      
       500   323.96158     -36552.489     -530.01214      3638.716       15.7087        13.217668      17.5248      
       600   299.40802     -36544.004      642.54184      3645.9213      15.7087        13.243842      17.5248      
       700   308.63903     -36557.9        2367.5094      3653.1267      15.7087        13.270015      17.5248      
       800   300.14563     -36549.815     -3170.3999      3660.3321      15.7087        13.296189      17.5248      
       900   296.69699     -36548.747     -2890.4652      3667.5375      15.7087        13.322362      17.5248      
      1000   280.91057     -36540.972     -51.662114      3674.7428      15.7087        13.348536      17.5248      
      1100   289.52974     -36548.376      3967.8286      3681.9482      15.7087        13.37471       17.5248      
      1200   287.5002      -36523.357     -1192.7643      3689.1536      15.7087        13.400883      17.5248      
      1300   310.16143     -36517.933     -13735.438      3696.359       15.7087        13.427057      17.5248      
      1400   316.93843     -36527.329     -1097.0251      3703.5644      15.7087        13.45323       17.5248      
      1500   302.71458     -36548.247     -1794.307       3710.7697      15.7087        13.479404      17.5248      
      1600   284.71943     -36524.136     -5912.8823      3717.9751      15.7087        13.505578      17.5248      
      1700   306.00081     -36533.174     -10753.587      3725.1805      15.7087        13.531751      17.5248      
      1800   321.1896      -36539.758      6077.1354      3732.3859      15.7087        13.557925      17.5248      
      1900   308.07227     -36539.906     -14971.265      3739.5912      15.7087        13.584098      17.5248      
      2000   299.90565     -36558.631     -14220.572      3746.7966      15.7087        13.610272      17.5248      
      2100   297.94231     -36557.372     -15249.841      3754.002       15.7087        13.636446      17.5248      
      2200   308.19934     -36550.56      -1815.7589      3761.2074      15.7087        13.662619      17.5248      
      2300   296.54409     -36516.39      -6830.7488      3768.4128      15.7087        13.688793      17.5248      
      2400   315.5539      -36504.519     -7096.2277      3775.6181      15.7087        13.714966      17.5248      
      2500   336.79974     -36509.313     -10468.521      3782.8235      15.7087        13.74114       17.5248      
      2600   325.25174     -36532.412     -6258.9854      3790.0289      15.7087        13.767314      17.5248      
      2700   300.65597     -36520.679     -2649.6948      3797.2343      15.7087        13.793487      17.5248      
      2800   311.55732     -36545.068     -11164.177      3804.4397      15.7087        13.819661      17.5248      
      2900   297.353       -36537.715     -13379.613      3811.645       15.7087        13.845834      17.5248      
      3000   290.69489     -36529.574     -11437.091      3818.8504      15.7087        13.872008      17.5248      
      3100   286.83243     -36503.321     -4817.2386      3826.0558      15.7087        13.898182      17.5248      
      3200   314.779       -36498.781     -9600.6945      3833.2612      15.7087        13.924355      17.5248      
      3300   300.58357     -36494.432     -13251.555      3840.4665      15.7087        13.950529      17.5248      
      3400   282.55875     -36493.115     -11364.961      3847.6719      15.7087        13.976702      17.5248      
      3500   299.51677     -36507.252     -11829.255      3854.8773      15.7087        14.002876      17.5248      
      3600   312.214       -36524.937     -16551.917      3862.0827      15.7087        14.02905       17.5248      
      3700   295.79106     -36515.019     -5412.8153      3869.2881      15.7087        14.055223      17.5248      
      3800   286.85358     -36527.023     -15943.291      3876.4934      15.7087        14.081397      17.5248      
      3900   302.03387     -36554.556     -11609.504      3883.6988      15.7087        14.10757       17.5248      
      4000   297.54737     -36530.593     -11777.454      3890.9042      15.7087        14.133744      17.5248      
      4100   296.73037     -36495.967     -14183.816      3898.1096      15.7087        14.159918      17.5248      
      4200   316.35557     -36511.672     -11291.663      3905.3149      15.7087        14.186091      17.5248      
      4300   292.49098     -36486.424     -99.676209      3912.5203      15.7087        14.212265      17.5248      
      4400   303.17474     -36510.184     -9524.9252      3919.7257      15.7087        14.238438      17.5248      
      4500   292.48749     -36528.611     -8928.8244      3926.9311      15.7087        14.264612      17.5248      
      4600   282.18041     -36519.439     -14789.175      3934.1365      15.7087        14.290786      17.5248      
      4700   301.82945     -36522.241     -11396.406      3941.3418      15.7087        14.316959      17.5248      
      4800   289.17137     -36487.769     -922.94558      3948.5472      15.7087        14.343133      17.5248      
      4900   318.63606     -36488.237     -9000.6243      3955.7526      15.7087        14.369306      17.5248      
      5000   330.06404     -36470.114     -11760.141      3962.958       15.7087        14.39548       17.5248      
Loop time of 232.368 on 16 procs for 5000 steps with 331 atoms

Performance: 0.930 ns/day, 25.819 hours/ns, 21.518 timesteps/s, 7.122 katom-step/s
99.3% CPU use with 8 MPI tasks x 2 OpenMP threads

MPI task timing breakdown:
Section |  min time  |  avg time  |  max time  |%varavg| %total
---------------------------------------------------------------
Pair    | 165.96     | 170.91     | 179.26     |  36.7 | 73.55
Bond    | 0.0015037  | 0.0018926  | 0.0021612  |   0.5 |  0.00
Neigh   | 15.076     | 15.258     | 15.468     |   3.3 |  6.57
Comm    | 14.335     | 22.597     | 27.66      | 100.2 |  9.72
Output  | 0.030799   | 0.047437   | 0.061798   |   5.1 |  0.02
Modify  | 22.374     | 22.632     | 22.827     |   2.9 |  9.74
Other   |            | 0.9181     |            |       |  0.40

Nlocal:         41.375 ave          48 max          33 min
Histogram: 2 0 1 0 0 0 1 0 2 2
Nghost:         2946.5 ave        2967 max        2927 min
Histogram: 2 0 1 0 0 3 0 0 0 2
Neighs:        24146.5 ave       27955 max       19436 min
Histogram: 2 1 0 0 0 0 1 1 1 2

Total # of neighbors = 193172
Ave neighs/atom = 583.60121
Ave special neighs/atom = 0
Neighbor list builds = 500
Dangerous builds not checked
  using 2 OpenMP thread(s) per MPI task
Reading restart file ...
  restart file = 2 Aug 2023, LAMMPS = 2 Aug 2023
  restoring atom style full from restart
  triclinic box = (0 0 0) to (15.7087 13.0868 17.5248) with tilt (-8.2042 -0.1458 -2.0056)
WARNING: Triclinic box skew is large. LAMMPS will run inefficiently. (src/domain.cpp:220)
  2 by 2 by 2 MPI processor grid
  pair style reaxff stores no restart info
  331 atoms
Finding 1-2 1-3 1-4 neighbors ...
  special bond factors lj:    0        0        0       
  special bond factors coul:  0        0        0       
     0 = max # of 1-2 neighbors
     0 = max # of 1-3 neighbors
     0 = max # of 1-4 neighbors
     1 = max # of special neighbors
  special bonds CPU = 0.000 seconds
  read_restart CPU = 0.004 seconds
*****debug*****
xy = -8.2042000000000001592, deltaxy = 0.82042
xz = -0.14580000000000001292, deltaxz = 0.01458
yz = -2.0055999999999998273, deltayz = 0.20056
*****
*****Negative-deform 3 starts.*****
Resetting global fix info from restart file:
  fix style: nvt, fix ID: fnvt
All restart file global fix info was re-assigned
Neighbor list info ...
  update: every = 10 steps, delay = 0 steps, check = no
  max neighbors/atom: 2000, page size: 100000
  master list distance cutoff = 12
  ghost atom cutoff = 12
  binsize = 6, bins = 5 3 3
  2 neighbor lists, perpetual/occasional/extra = 2 0 0
  (1) pair reaxff, perpetual
      attributes: half, newton off, ghost
      pair build: half/bin/newtoff/ghost
      stencil: full/ghost/bin/3d
      bin: standard
  (2) fix qeq/reaxff, perpetual, copy from (1)
      attributes: half, newton off
      pair build: copy
      stencil: none
      bin: none
Setting up Verlet run ...
  Unit style    : real
  Current step  : 0
  Time step     : 0.5
Per MPI rank memory allocation (min/avg/max) = 126.8 | 128 | 129.8 Mbytes
   Step          Temp          PotEng         Press          Volume           Lx             Ly             Lz      
         0   290.04269     -36543.282      4226.0457      3602.6891      15.7087        13.0868        17.5248      
       100   301.82758     -36564.354     -4999.2327      3595.4837      15.7087        13.0868        17.48975     
       200   296.84987     -36555.302     -4500.8575      3588.2783      15.7087        13.0868        17.454701    
       300   307.73325     -36536.082     -298.87161      3581.0729      15.7087        13.0868        17.419651    
       400   313.48165     -36519.781     -16006.668      3573.8676      15.7087        13.0868        17.384602    
       500   324.373       -36553.509     -2395.305       3566.6622      15.7087        13.0868        17.349552    
       600   286.0689      -36541.453      2267.4491      3559.4568      15.7087        13.0868        17.314502    
       700   311.74629     -36564.31      -4668.8079      3552.2514      15.7087        13.0868        17.279453    
       800   299.98809     -36557.463      15638.824      3545.046       15.7087        13.0868        17.244403    
       900   294.09828     -36569.612     -8691.5618      3537.8407      15.7087        13.0868        17.209354    
      1000   293.42401     -36573.469      6601.9899      3530.6353      15.7087        13.0868        17.174304    
      1100   319.72628     -36583.936      8180.9183      3523.4299      15.7087        13.0868        17.139254    
      1200   278.91389     -36536.662     -8403.2509      3516.2245      15.7087        13.0868        17.104205    
      1300   314.2697      -36568.697      10708.895      3509.0191      15.7087        13.0868        17.069155    
      1400   288.16884     -36547.983     -3560.3095      3501.8138      15.7087        13.0868        17.034106    
      1500   311.99991     -36575.081     -5930.7833      3494.6084      15.7087        13.0868        16.999056    
      1600   276.94535     -36559.014     -11852.36       3487.403       15.7087        13.0868        16.964006    
      1700   279.15159     -36568.976      6774.0751      3480.1976      15.7087        13.0868        16.928957    
      1800   280.68536     -36557.372     -6777.3167      3472.9923      15.7087        13.0868        16.893907    
      1900   320.84588     -36563.313      5872.0327      3465.7869      15.7087        13.0868        16.858858    
      2000   300.9595      -36531.447     -3605.3482      3458.5815      15.7087        13.0868        16.823808    
      2100   297.94542     -36541.406      7322.1845      3451.3761      15.7087        13.0868        16.788758    
      2200   303.01354     -36553.484     -2337.2509      3444.1707      15.7087        13.0868        16.753709    
      2300   294.21177     -36551.658      14389.595      3436.9654      15.7087        13.0868        16.718659    
      2400   304.38962     -36578.524     -1195.5206      3429.76        15.7087        13.0868        16.68361     
      2500   303.10177     -36588.976      1694.7106      3422.5546      15.7087        13.0868        16.64856     
      2600   292.82022     -36572.217     -8028.0009      3415.3492      15.7087        13.0868        16.61351     
      2700   295.09427     -36574.078     -1189.6834      3408.1439      15.7087        13.0868        16.578461    
      2800   288.04709     -36558.481      9828.7318      3400.9385      15.7087        13.0868        16.543411    
      2900   282.80104     -36570.678     -1479.165       3393.7331      15.7087        13.0868        16.508362    
      3000   282.90502     -36585.855     -3960.2132      3386.5277      15.7087        13.0868        16.473312    
      3100   308.79288     -36595.907      14566.57       3379.3223      15.7087        13.0868        16.438262    
      3200   294.0479      -36559.114      1116.1359      3372.117       15.7087        13.0868        16.403213    
      3300   311.42235     -36559.438      13655.924      3364.9116      15.7087        13.0868        16.368163    
      3400   295.89636     -36557.762     -9759.1505      3357.7062      15.7087        13.0868        16.333114    
      3500   289.36669     -36573.022      142.23048      3350.5008      15.7087        13.0868        16.298064    
      3600   313.66232     -36596.571      10642.375      3343.2955      15.7087        13.0868        16.263014    
      3700   318.68372     -36610.343      5135.2193      3336.0901      15.7087        13.0868        16.227965    
      3800   287.72538     -36582.309      16906.013      3328.8847      15.7087        13.0868        16.192915    
      3900   294.25496     -36574.649      12235.168      3321.6793      15.7087        13.0868        16.157866    
      4000   286.13775     -36552.884      7797.1267      3314.4739      15.7087        13.0868        16.122816    
      4100   291.1579      -36554.254      8200.8028      3307.2686      15.7087        13.0868        16.087766    
      4200   318.29645     -36607.842      13579.478      3300.0632      15.7087        13.0868        16.052717    
      4300   288.33436     -36592.91       8355.3576      3292.8578      15.7087        13.0868        16.017667    
      4400   293.1773      -36583.424      2805.8758      3285.6524      15.7087        13.0868        15.982618    
      4500   297.11765     -36563.412      4239.348       3278.447       15.7087        13.0868        15.947568    
      4600   325.59375     -36576.193     -5886.6068      3271.2417      15.7087        13.0868        15.912518    
      4700   312.57197     -36592.185      14901.664      3264.0363      15.7087        13.0868        15.877469    
      4800   290.95609     -36575.43       1221.2332      3256.8309      15.7087        13.0868        15.842419    
      4900   278.57891     -36561.523      11591.091      3249.6255      15.7087        13.0868        15.80737     
      5000   292.749       -36559.313     -1493.0867      3242.4202      15.7087        13.0868        15.77232     
Loop time of 268.661 on 16 procs for 5000 steps with 331 atoms

Performance: 0.804 ns/day, 29.851 hours/ns, 18.611 timesteps/s, 6.160 katom-step/s
99.2% CPU use with 8 MPI tasks x 2 OpenMP threads

MPI task timing breakdown:
Section |  min time  |  avg time  |  max time  |%varavg| %total
---------------------------------------------------------------
Pair    | 195.4      | 204.1      | 210.08     |  37.7 | 75.97
Bond    | 0.0014308  | 0.0018939  | 0.0021321  |   0.5 |  0.00
Neigh   | 15.097     | 15.478     | 15.77      |   4.5 |  5.76
Comm    | 17.874     | 23.745     | 32.384     | 110.1 |  8.84
Output  | 0.032626   | 0.037881   | 0.042125   |   1.7 |  0.01
Modify  | 24.124     | 24.387     | 24.72      |   3.9 |  9.08
Other   |            | 0.9112     |            |       |  0.34

Nlocal:         41.375 ave          49 max          34 min
Histogram: 2 0 0 1 0 1 2 0 1 1
Nghost:        3563.75 ave        3593 max        3533 min
Histogram: 1 1 1 0 1 0 2 0 0 2
Neighs:        29622.5 ave       34618 max       24589 min
Histogram: 2 0 0 1 0 1 2 0 1 1

Total # of neighbors = 236980
Ave neighs/atom = 715.95166
Ave special neighs/atom = 0
Neighbor list builds = 500
Dangerous builds not checked
  using 2 OpenMP thread(s) per MPI task
Reading restart file ...
  restart file = 2 Aug 2023, LAMMPS = 2 Aug 2023
  restoring atom style full from restart
  triclinic box = (0 0 0) to (15.7087 13.0868 17.5248) with tilt (-8.2042 -0.1458 -2.0056)
WARNING: Triclinic box skew is large. LAMMPS will run inefficiently. (src/domain.cpp:220)
  2 by 2 by 2 MPI processor grid
  pair style reaxff stores no restart info
  331 atoms
Finding 1-2 1-3 1-4 neighbors ...
  special bond factors lj:    0        0        0       
  special bond factors coul:  0        0        0       
     0 = max # of 1-2 neighbors
     0 = max # of 1-3 neighbors
     0 = max # of 1-4 neighbors
     1 = max # of special neighbors
  special bonds CPU = 0.000 seconds
  read_restart CPU = 0.003 seconds
*****Positive-deform 3 starts.*****
Resetting global fix info from restart file:
  fix style: nvt, fix ID: fnvt
All restart file global fix info was re-assigned
Neighbor list info ...
  update: every = 10 steps, delay = 0 steps, check = no
  max neighbors/atom: 2000, page size: 100000
  master list distance cutoff = 12
  ghost atom cutoff = 12
  binsize = 6, bins = 5 3 3
  2 neighbor lists, perpetual/occasional/extra = 2 0 0
  (1) pair reaxff, perpetual
      attributes: half, newton off, ghost
      pair build: half/bin/newtoff/ghost
      stencil: full/ghost/bin/3d
      bin: standard
  (2) fix qeq/reaxff, perpetual, copy from (1)
      attributes: half, newton off
      pair build: copy
      stencil: none
      bin: none
Setting up Verlet run ...
  Unit style    : real
  Current step  : 0
  Time step     : 0.5
Per MPI rank memory allocation (min/avg/max) = 126.8 | 128 | 129.8 Mbytes
   Step          Temp          PotEng         Press          Volume           Lx             Ly             Lz      
         0   290.04269     -36543.282      4226.0457      3602.6891      15.7087        13.0868        17.5248      
       100   301.07373     -36564.077     -5379.1507      3609.8944      15.7087        13.0868        17.55985     
       200   295.96522     -36552.562     -1748.7492      3617.0998      15.7087        13.0868        17.594899    
       300   325.78804     -36545.952     -4011.285       3624.3052      15.7087        13.0868        17.629949    
       400   306.83244     -36512.017     -7957.5066      3631.5106      15.7087        13.0868        17.664998    
       500   307.62114     -36531.689     -1505.4407      3638.716       15.7087        13.0868        17.700048    
       600   293.30207     -36533.319     -10985.358      3645.9213      15.7087        13.0868        17.735098    
       700   314.51453     -36551.433     -5088.7619      3653.1267      15.7087        13.0868        17.770147    
       800   291.49379     -36534.511      14535.977      3660.3321      15.7087        13.0868        17.805197    
       900   298.5031      -36553.72      -2468.1805      3667.5375      15.7087        13.0868        17.840246    
      1000   285.85741     -36565.047     -4737.8695      3674.7428      15.7087        13.0868        17.875296    
      1100   285.26984     -36560.525      114.56477      3681.9482      15.7087        13.0868        17.910346    
      1200   282.18028     -36539.433     -6893.9274      3689.1536      15.7087        13.0868        17.945395    
      1300   305.51266     -36545.509      6966.8782      3696.359       15.7087        13.0868        17.980445    
      1400   310.34666     -36539.946     -10133.449      3703.5644      15.7087        13.0868        18.015494    
      1500   300.36155     -36549.587     -4550.1099      3710.7697      15.7087        13.0868        18.050544    
      1600   277.42475     -36548.922     -17003.111      3717.9751      15.7087        13.0868        18.085594    
      1700   302.1712      -36563.517     -17386.185      3725.1805      15.7087        13.0868        18.120643    
      1800   282.22547     -36539.999     -15196.535      3732.3859      15.7087        13.0868        18.155693    
      1900   291.69618     -36546.693     -10350.002      3739.5912      15.7087        13.0868        18.190742    
      2000   288.63634     -36541.914     -2929.6279      3746.7966      15.7087        13.0868        18.225792    
      2100   292.70376     -36533.846      3801.5133      3754.002       15.7087        13.0868        18.260842    
      2200   297.55361     -36533.583     -1760.7816      3761.2074      15.7087        13.0868        18.295891    
      2300   303.85013     -36553.723     -3958.0226      3768.4128      15.7087        13.0868        18.330941    
      2400   302.83681     -36560.546      304.33725      3775.6181      15.7087        13.0868        18.36599     
      2500   283.09151     -36551.787     -10150.62       3782.8235      15.7087        13.0868        18.40104     
      2600   275.47948     -36561.111     -13375.156      3790.0289      15.7087        13.0868        18.43609     
      2700   288.64839     -36576.236     -21717.855      3797.2343      15.7087        13.0868        18.471139    
      2800   298.73448     -36551.742     -1181.5567      3804.4397      15.7087        13.0868        18.506189    
      2900   331.50536     -36548.167     -7960.4164      3811.645       15.7087        13.0868        18.541238    
      3000   290.08931     -36510.82      -4341.9675      3818.8504      15.7087        13.0868        18.576288    
      3100   304.74316     -36539.257     -438.29498      3826.0558      15.7087        13.0868        18.611338    
      3200   286.71412     -36536.947     -14752.065      3833.2612      15.7087        13.0868        18.646387    
      3300   287.33239     -36531.232     -8441.3425      3840.4665      15.7087        13.0868        18.681437    
      3400   300.91821     -36548.391     -10354.445      3847.6719      15.7087        13.0868        18.716486    
      3500   298.60298     -36561.003      48.925587      3854.8773      15.7087        13.0868        18.751536    
      3600   295.02712     -36575.42       1215.3845      3862.0827      15.7087        13.0868        18.786586    
      3700   274.48314     -36532.962     -2723.496       3869.2881      15.7087        13.0868        18.821635    
      3800   303.09616     -36532.943     -14440.85       3876.4934      15.7087        13.0868        18.856685    
      3900   320.8429      -36529.206     -17049.969      3883.6988      15.7087        13.0868        18.891734    
      4000   317.46538     -36532.374     -8687.3328      3890.9042      15.7087        13.0868        18.926784    
      4100   292.13328     -36519.754     -14884.671      3898.1096      15.7087        13.0868        18.961834    
      4200   303.36735     -36531.305     -23924.465      3905.3149      15.7087        13.0868        18.996883    
      4300   304.95144     -36527.726     -16769.792      3912.5203      15.7087        13.0868        19.031933    
      4400   273.72895     -36489.083     -11702.945      3919.7257      15.7087        13.0868        19.066982    
      4500   309.19887     -36524.304     -22217.785      3926.9311      15.7087        13.0868        19.102032    
      4600   274.74578     -36503.878     -13645.136      3934.1365      15.7087        13.0868        19.137082    
      4700   267.87958     -36498.094     -10190.574      3941.3418      15.7087        13.0868        19.172131    
      4800   318.28646     -36522.761     -17115.52       3948.5472      15.7087        13.0868        19.207181    
      4900   311.66392     -36479.943     -18286.949      3955.7526      15.7087        13.0868        19.24223     
      5000   316.91189     -36485.712     -14759.657      3962.958       15.7087        13.0868        19.27728     
Loop time of 235.112 on 16 procs for 5000 steps with 331 atoms

Performance: 0.919 ns/day, 26.124 hours/ns, 21.266 timesteps/s, 7.039 katom-step/s
99.1% CPU use with 8 MPI tasks x 2 OpenMP threads

MPI task timing breakdown:
Section |  min time  |  avg time  |  max time  |%varavg| %total
---------------------------------------------------------------
Pair    | 169.39     | 176.35     | 182.2      |  30.9 | 75.01
Bond    | 0.0014865  | 0.0018977  | 0.0021574  |   0.4 |  0.00
Neigh   | 12.422     | 12.749     | 13.006     |   4.9 |  5.42
Comm    | 16.505     | 22.506     | 29.496     |  87.0 |  9.57
Output  | 0.029761   | 0.03462    | 0.038689   |   1.8 |  0.01
Modify  | 22.239     | 22.527     | 22.951     |   5.2 |  9.58
Other   |            | 0.9432     |            |       |  0.40

Nlocal:         41.375 ave          46 max          33 min
Histogram: 1 0 0 1 1 0 1 0 0 4
Nghost:        3086.62 ave        3148 max        3025 min
Histogram: 1 1 0 1 1 2 0 0 1 1
Neighs:          24111 ave       26604 max       19690 min
Histogram: 1 0 1 0 1 1 0 0 1 3

Total # of neighbors = 192888
Ave neighs/atom = 582.7432
Ave special neighs/atom = 0
Neighbor list builds = 500
Dangerous builds not checked
  using 2 OpenMP thread(s) per MPI task
Reading restart file ...
  restart file = 2 Aug 2023, LAMMPS = 2 Aug 2023
  restoring atom style full from restart
  triclinic box = (0 0 0) to (15.7087 13.0868 17.5248) with tilt (-8.2042 -0.1458 -2.0056)
WARNING: Triclinic box skew is large. LAMMPS will run inefficiently. (src/domain.cpp:220)
  2 by 2 by 2 MPI processor grid
  pair style reaxff stores no restart info
  331 atoms
Finding 1-2 1-3 1-4 neighbors ...
  special bond factors lj:    0        0        0       
  special bond factors coul:  0        0        0       
     0 = max # of 1-2 neighbors
     0 = max # of 1-3 neighbors
     0 = max # of 1-4 neighbors
     1 = max # of special neighbors
  special bonds CPU = 0.000 seconds
  read_restart CPU = 0.004 seconds
*****debug*****
xy = -8.2042000000000001592, deltaxy = 0.82042
xz = -0.14580000000000001292, deltaxz = 0.01458
yz = -2.0055999999999998273, deltayz = 0.20056
*****
*****Negative-deform 4 starts.*****
Resetting global fix info from restart file:
  fix style: nvt, fix ID: fnvt
All restart file global fix info was re-assigned
Neighbor list info ...
  update: every = 10 steps, delay = 0 steps, check = no
  max neighbors/atom: 2000, page size: 100000
  master list distance cutoff = 12
  ghost atom cutoff = 12
  binsize = 6, bins = 5 3 3
  2 neighbor lists, perpetual/occasional/extra = 2 0 0
  (1) pair reaxff, perpetual
      attributes: half, newton off, ghost
      pair build: half/bin/newtoff/ghost
      stencil: full/ghost/bin/3d
      bin: standard
  (2) fix qeq/reaxff, perpetual, copy from (1)
      attributes: half, newton off
      pair build: copy
      stencil: none
      bin: none
Setting up Verlet run ...
  Unit style    : real
  Current step  : 0
  Time step     : 0.5
Per MPI rank memory allocation (min/avg/max) = 126.8 | 128 | 129.8 Mbytes
   Step          Temp          PotEng         Press          Volume           Lx             Ly             Lz      
         0   290.04269     -36543.282      4226.0457      3602.6891      15.7087        13.0868        17.5248      
       100   301.71942     -36564.417     -5550.4687      3602.6891      15.7087        13.0868        17.5248      
       200   296.10498     -36554.676     -2221.4578      3602.6891      15.7087        13.0868        17.5248      
       300   324.20584     -36545.272      3606.4213      3602.6891      15.7087        13.0868        17.5248      
       400   307.50726     -36515.535     -4532.9369      3602.6891      15.7087        13.0868        17.5248      
       500   317.74382     -36544.832      5284.4296      3602.6891      15.7087        13.0868        17.5248      
       600   293.9388      -36546.293      4800.0338      3602.6891      15.7087        13.0868        17.5248      
       700   303.98581     -36557.707     -7044.325       3602.6891      15.7087        13.0868        17.5248      
       800   302.29922     -36546.466      1067.957       3602.6891      15.7087        13.0868        17.5248      
       900   325.00627     -36542.146      4236.7146      3602.6891      15.7087        13.0868        17.5248      
      1000   323.46053     -36536.339     -3393.687       3602.6891      15.7087        13.0868        17.5248      
      1100   284.27101     -36537.732     -9601.7057      3602.6891      15.7087        13.0868        17.5248      
      1200   283.37036     -36544.256     -3221.85        3602.6891      15.7087        13.0868        17.5248      
      1300   297.34475     -36559.862     -12813.734      3602.6891      15.7087        13.0868        17.5248      
      1400   279.21359     -36551.543      1742.8994      3602.6891      15.7087        13.0868        17.5248      
      1500   272.98769     -36546.797     -5811.0306      3602.6891      15.7087        13.0868        17.5248      
      1600   296.87794     -36538.784     -14035.233      3602.6891      15.7087        13.0868        17.5248      
      1700   317.25135     -36541.849     -14102.281      3602.6891      15.7087        13.0868        17.5248      
      1800   314.4804      -36552.024      988.14873      3602.6891      15.7087        13.0868        17.5248      
      1900   299.98874     -36565.198     -10122.982      3602.6891      15.7087        13.0868        17.5248      
      2000   288.12373     -36554.479     -6750.3724      3602.6891      15.7087        13.0868        17.5248      
      2100   322.25037     -36585.16       3298.2213      3602.6891      15.7087        13.0868        17.5248      
      2200   294.88531     -36548.751     -6006.7267      3602.6891      15.7087        13.0868        17.5248      
      2300   315.97917     -36545.736      6649.5205      3602.6891      15.7087        13.0868        17.5248      
      2400   305.97878     -36528.35      -2921.1405      3602.6891      15.7087        13.0868        17.5248      
      2500   294.94692     -36549.635     -12654.663      3602.6891      15.7087        13.0868        17.5248      
      2600   294.45293     -36560.292     -9108.5948      3602.6891      15.7087        13.0868        17.5248      
      2700   292.41343     -36557.199     -710.0438       3602.6891      15.7087        13.0868        17.5248      
      2800   296.44098     -36561.705     -2161.8841      3602.6891      15.7087        13.0868        17.5248      
      2900   295.41365     -36553.723      4755.7447      3602.6891      15.7087        13.0868        17.5248      
      3000   307.07839     -36554.128     -1981.8593      3602.6891      15.7087        13.0868        17.5248      
      3100   313.97907     -36553.725      2015.1026      3602.6891      15.7087        13.0868        17.5248      
      3200   308.73021     -36563.32       4286.713       3602.6891      15.7087        13.0868        17.5248      
      3300   297.40476     -36570.907      15362.903      3602.6891      15.7087        13.0868        17.5248      
      3400   309.59366     -36588.17      -7605.499       3602.6891      15.7087        13.0868        17.5248      
      3500   294.22388     -36574.299     -3323.9897      3602.6891      15.7087        13.0868        17.5248      
      3600   311.40611     -36572.128     -6238.8643      3602.6891      15.7087        13.0868        17.5248      
      3700   303.20427     -36543.18       6235.7199      3602.6891      15.7087        13.0868        17.5248      
      3800   304.5988      -36539.56       3746.7008      3602.6891      15.7087        13.0868        17.5248      
      3900   289.37362     -36549.74       6863.9039      3602.6891      15.7087        13.0868        17.5248      
      4000   291.25182     -36572.179     -1018.6784      3602.6891      15.7087        13.0868        17.5248      
      4100   303.44095     -36575.675     -1345.5427      3602.6891      15.7087        13.0868        17.5248      
      4200   293.38591     -36556.877      9796.3983      3602.6891      15.7087        13.0868        17.5248      
      4300   305.39224     -36558.191     -7722.5825      3602.6891      15.7087        13.0868        17.5248      
      4400   325.39651     -36538.6        7799.9665      3602.6891      15.7087        13.0868        17.5248      
      4500   322.75793     -36540.214      7206.8516      3602.6891      15.7087        13.0868        17.5248      
      4600   321.7461      -36558.659     -8513.0808      3602.6891      15.7087        13.0868        17.5248      
      4700   302.84928     -36549.057     -2554.0722      3602.6891      15.7087        13.0868        17.5248      
      4800   285.21198     -36548.808      15953.593      3602.6891      15.7087        13.0868        17.5248      
      4900   305.74215     -36581.729      1185.1202      3602.6891      15.7087        13.0868        17.5248      
      5000   294.26444     -36580.512     -2127.4967      3602.6891      15.7087        13.0868        17.5248      
Loop time of 250.09 on 16 procs for 5000 steps with 331 atoms

Performance: 0.864 ns/day, 27.788 hours/ns, 19.993 timesteps/s, 6.618 katom-step/s
99.2% CPU use with 8 MPI tasks x 2 OpenMP threads

MPI task timing breakdown:
Section |  min time  |  avg time  |  max time  |%varavg| %total
---------------------------------------------------------------
Pair    | 183.37     | 189.17     | 192.64     |  23.2 | 75.64
Bond    | 0.0014105  | 0.0018768  | 0.0021673  |   0.5 |  0.00
Neigh   | 14.685     | 14.886     | 15.029     |   3.5 |  5.95
Comm    | 18.963     | 22.398     | 28.232     |  68.1 |  8.96
Output  | 0.031567   | 0.036945   | 0.041288   |   1.8 |  0.01
Modify  | 22.385     | 22.71      | 22.969     |   4.1 |  9.08
Other   |            | 0.8871     |            |       |  0.35

Nlocal:         41.375 ave          50 max          34 min
Histogram: 2 0 0 1 1 2 0 0 1 1
Nghost:           3333 ave        3350 max        3299 min
Histogram: 1 0 0 0 0 0 2 3 1 1
Neighs:        26594.5 ave       31809 max       22247 min
Histogram: 2 0 0 1 3 0 0 1 0 1

Total # of neighbors = 212756
Ave neighs/atom = 642.76737
Ave special neighs/atom = 0
Neighbor list builds = 500
Dangerous builds not checked
  using 2 OpenMP thread(s) per MPI task
Reading restart file ...
  restart file = 2 Aug 2023, LAMMPS = 2 Aug 2023
  restoring atom style full from restart
  triclinic box = (0 0 0) to (15.7087 13.0868 17.5248) with tilt (-8.2042 -0.1458 -2.0056)
WARNING: Triclinic box skew is large. LAMMPS will run inefficiently. (src/domain.cpp:220)
  2 by 2 by 2 MPI processor grid
  pair style reaxff stores no restart info
  331 atoms
Finding 1-2 1-3 1-4 neighbors ...
  special bond factors lj:    0        0        0       
  special bond factors coul:  0        0        0       
     0 = max # of 1-2 neighbors
     0 = max # of 1-3 neighbors
     0 = max # of 1-4 neighbors
     1 = max # of special neighbors
  special bonds CPU = 0.000 seconds
  read_restart CPU = 0.003 seconds
*****Positive-deform 4 starts.*****
Resetting global fix info from restart file:
  fix style: nvt, fix ID: fnvt
All restart file global fix info was re-assigned
Neighbor list info ...
  update: every = 10 steps, delay = 0 steps, check = no
  max neighbors/atom: 2000, page size: 100000
  master list distance cutoff = 12
  ghost atom cutoff = 12
  binsize = 6, bins = 5 3 3
  2 neighbor lists, perpetual/occasional/extra = 2 0 0
  (1) pair reaxff, perpetual
      attributes: half, newton off, ghost
      pair build: half/bin/newtoff/ghost
      stencil: full/ghost/bin/3d
      bin: standard
  (2) fix qeq/reaxff, perpetual, copy from (1)
      attributes: half, newton off
      pair build: copy
      stencil: none
      bin: none
Setting up Verlet run ...
  Unit style    : real
  Current step  : 0
  Time step     : 0.5
Per MPI rank memory allocation (min/avg/max) = 126.8 | 128 | 129.8 Mbytes
   Step          Temp          PotEng         Press          Volume           Lx             Ly             Lz      
         0   290.04269     -36543.282      4226.0457      3602.6891      15.7087        13.0868        17.5248      
       100   301.06254     -36563.726     -5176.1914      3602.6891      15.7087        13.0868        17.5248      
       200   297.63413     -36554.872      2.645829       3602.6891      15.7087        13.0868        17.5248      
       300   317.6101      -36542.687     -4318.4588      3602.6891      15.7087        13.0868        17.5248      
       400   326.46867     -36534.483     -15779.5        3602.6891      15.7087        13.0868        17.5248      
       500   316.97584     -36547.132      3248.78        3602.6891      15.7087        13.0868        17.5248      
       600   284.8634      -36533.721     -1012.2057      3602.6891      15.7087        13.0868        17.5248      
       700   304.6812      -36555.837      1690.7079      3602.6891      15.7087        13.0868        17.5248      
       800   294.72724     -36542.797     -2388.5315      3602.6891      15.7087        13.0868        17.5248      
       900   302.64302     -36544.871      1261.2769      3602.6891      15.7087        13.0868        17.5248      
      1000   309.96775     -36527.886     -6763.5212      3602.6891      15.7087        13.0868        17.5248      
      1100   305.96231     -36530.853     -8163.3506      3602.6891      15.7087        13.0868        17.5248      
      1200   297.54389     -36547.107     -7227.5499      3602.6891      15.7087        13.0868        17.5248      
      1300   294.63057     -36552.212     -2020.2609      3602.6891      15.7087        13.0868        17.5248      
      1400   298.69424     -36552.349     -12633.446      3602.6891      15.7087        13.0868        17.5248      
      1500   294.61565     -36540.818     -16469.328      3602.6891      15.7087        13.0868        17.5248      
      1600   291.84733     -36565.531     -4518.3883      3602.6891      15.7087        13.0868        17.5248      
      1700   283.33931     -36560.631     -562.88634      3602.6891      15.7087        13.0868        17.5248      
      1800   315.31291     -36569.164     -8710.3769      3602.6891      15.7087        13.0868        17.5248      
      1900   317.20476     -36548.687      2396.8478      3602.6891      15.7087        13.0868        17.5248      
      2000   312.00376     -36536.641     -5996.865       3602.6891      15.7087        13.0868        17.5248      
      2100   288.37275     -36548.98      -9528.0372      3602.6891      15.7087        13.0868        17.5248      
      2200   287.89821     -36566.801     -11199.574      3602.6891      15.7087        13.0868        17.5248      
      2300   294.226       -36569.607     -12123.945      3602.6891      15.7087        13.0868        17.5248      
      2400   291.66278     -36545.858     -5514.3037      3602.6891      15.7087        13.0868        17.5248      
      2500   304.6813      -36532.905      13400.216      3602.6891      15.7087        13.0868        17.5248      
      2600   316.73314     -36544.645     -1842.8879      3602.6891      15.7087        13.0868        17.5248      
      2700   282.19642     -36519.697     -6548.694       3602.6891      15.7087        13.0868        17.5248      
      2800   302.30973     -36539.723      36.489761      3602.6891      15.7087        13.0868        17.5248      
      2900   284.21738     -36529.411     -681.68908      3602.6891      15.7087        13.0868        17.5248      
      3000   278.82949     -36532.468     -8480.1107      3602.6891      15.7087        13.0868        17.5248      
      3100   289.50208     -36543.572     -4582.9742      3602.6891      15.7087        13.0868        17.5248      
      3200   298.21034     -36538.572     -17258.601      3602.6891      15.7087        13.0868        17.5248      
      3300   298.84406     -36539.125     -5272.9639      3602.6891      15.7087        13.0868        17.5248      
      3400   305.93319     -36563.886     -5228.3023      3602.6891      15.7087        13.0868        17.5248      
      3500   303.18362     -36578.96      -2932.3818      3602.6891      15.7087        13.0868        17.5248      
      3600   291.3683      -36578.229     -11515.655      3602.6891      15.7087        13.0868        17.5248      
[...]
      4600   290.74913     -36555.976     -633.31121      3602.6891      15.7087        13.0868        17.5248      
      4700   312.57676     -36553.81      -1407.3996      3602.6891      15.7087        13.0868        17.5248      
      4800   312.04671     -36535.505      1850.2266      3602.6891      15.7087        13.0868        17.5248      
      4900   319.22351     -36550.529     -8941.5264      3602.6891      15.7087        13.0868        17.5248      
      5000   292.56773     -36562.07       3771.8116      3602.6891      15.7087        13.0868        17.5248      
Loop time of 246.745 on 16 procs for 5000 steps with 331 atoms

Performance: 0.875 ns/day, 27.416 hours/ns, 20.264 timesteps/s, 6.707 katom-step/s
99.2% CPU use with 8 MPI tasks x 2 OpenMP threads

MPI task timing breakdown:
Section |  min time  |  avg time  |  max time  |%varavg| %total
---------------------------------------------------------------
Pair    | 176.54     | 182.65     | 192.02     |  38.3 | 74.02
Bond    | 0.0014879  | 0.0018962  | 0.0022918  |   0.5 |  0.00
Neigh   | 15.333     | 15.632     | 15.975     |   5.5 |  6.34
Comm    | 15.023     | 24.317     | 30.442     | 105.1 |  9.86
Output  | 0.034798   | 0.053408   | 0.071346   |   6.2 |  0.02
Modify  | 22.891     | 23.237     | 23.596     |   5.1 |  9.42
Other   |            | 0.8537     |            |       |  0.35

Nlocal:         41.375 ave          49 max          35 min
Histogram: 1 1 0 0 2 2 1 0 0 1
Nghost:        3196.75 ave        3258 max        3136 min
Histogram: 1 1 0 1 2 0 1 0 0 2
Neighs:        26617.4 ave       31342 max       22709 min
Histogram: 1 1 0 0 2 2 1 0 0 1

Total # of neighbors = 212939
Ave neighs/atom = 643.32024
Ave special neighs/atom = 0
Neighbor list builds = 500
Dangerous builds not checked
  using 2 OpenMP thread(s) per MPI task
Reading restart file ...
  restart file = 2 Aug 2023, LAMMPS = 2 Aug 2023
  restoring atom style full from restart
  triclinic box = (0 0 0) to (15.7087 13.0868 17.5248) with tilt (-8.2042 -0.1458 -2.0056)
WARNING: Triclinic box skew is large. LAMMPS will run inefficiently. (src/domain.cpp:220)
  2 by 2 by 2 MPI processor grid
  pair style reaxff stores no restart info
  331 atoms
Finding 1-2 1-3 1-4 neighbors ...
  special bond factors lj:    0        0        0       
  special bond factors coul:  0        0        0       
     0 = max # of 1-2 neighbors
     0 = max # of 1-3 neighbors
     0 = max # of 1-4 neighbors
     1 = max # of special neighbors
  special bonds CPU = 0.001 seconds
  read_restart CPU = 0.006 seconds
*****debug*****
xy = -8.2042000000000001592, deltaxy = 0.82042
xz = -0.14580000000000001292, deltaxz = 0.01458
yz = -2.0055999999999998273, deltayz = 0.20056
*****
*****Negative-deform 6 starts.*****
Resetting global fix info from restart file:
  fix style: nvt, fix ID: fnvt
All restart file global fix info was re-assigned
Neighbor list info ...
  update: every = 10 steps, delay = 0 steps, check = no
  max neighbors/atom: 2000, page size: 100000
  master list distance cutoff = 12
  ghost atom cutoff = 12
  binsize = 6, bins = 5 3 3
  2 neighbor lists, perpetual/occasional/extra = 2 0 0
  (1) pair reaxff, perpetual
      attributes: half, newton off, ghost
      pair build: half/bin/newtoff/ghost
      stencil: full/ghost/bin/3d
      bin: standard
  (2) fix qeq/reaxff, perpetual, copy from (1)
      attributes: half, newton off
      pair build: copy
      stencil: none
      bin: none
Setting up Verlet run ...
  Unit style    : real
  Current step  : 0
  Time step     : 0.5
Per MPI rank memory allocation (min/avg/max) = 126.8 | 128 | 129.8 Mbytes
   Step          Temp          PotEng         Press          Volume           Lx             Ly             Lz      
         0   290.04269     -36543.282      4226.0457      3602.6891      15.7087        13.0868        17.5248      
       100   301.20819     -36563.888     -5408.1097      3602.6891      15.7087        13.0868        17.5248      
       200   298.97632     -36557.216     -4180.3559      3602.6891      15.7087        13.0868        17.5248      
       300   326.23197     -36545.926     -4920.1261      3602.6891      15.7087        13.0868        17.5248      
       400   302.78285     -36513.442     -12121.137      3602.6891      15.7087        13.0868        17.5248      
       500   321.6452      -36552.052      5738.502       3602.6891      15.7087        13.0868        17.5248      
       600   298.49616     -36547.919      7134.2951      3602.6891      15.7087        13.0868        17.5248      
       700   298.83797     -36548.254      1086.5387      3602.6891      15.7087        13.0868        17.5248      
       800   297.85964     -36544.862     -9867.6848      3602.6891      15.7087        13.0868        17.5248      
       900   309.95728     -36567.069     -7852.7688      3602.6891      15.7087        13.0868        17.5248      
      1000   285.04299     -36561.79      -8024.1084      3602.6891      15.7087        13.0868        17.5248      
      1100   294.13981     -36561.628      6928.8465      3602.6891      15.7087        13.0868        17.5248      
      1200   293.50036     -36524.293     -6978.8101      3602.6891      15.7087        13.0868        17.5248      
      1300   312.19499     -36529.24      -9387.2189      3602.6891      15.7087        13.0868        17.5248      
      1400   315.41125     -36536.504     -792.34893      3602.6891      15.7087        13.0868        17.5248      
      1500   292.70632     -36530.093     -212.60914      3602.6891      15.7087        13.0868        17.5248      
      1600   296.71898     -36554.768     -3458.6352      3602.6891      15.7087        13.0868        17.5248      
      1700   291.51804     -36545.588      3907.1968      3602.6891      15.7087        13.0868        17.5248      
      1800   305.01009     -36549.358      4696.402       3602.6891      15.7087        13.0868        17.5248      
      1900   313.14381     -36543.29       2706.9729      3602.6891      15.7087        13.0868        17.5248      
      2000   304.25394     -36526.863     -1624.7953      3602.6891      15.7087        13.0868        17.5248      
      2100   324.43886     -36563.339     -7713.9458      3602.6891      15.7087        13.0868        17.5248      
      2200   266.24568     -36531.825     -4363.6252      3602.6891      15.7087        13.0868        17.5248      
      2300   285.10056     -36545.447     -6557.3336      3602.6891      15.7087        13.0868        17.5248      
      2400   300.0754      -36538.252     -11840.519      3602.6891      15.7087        13.0868        17.5248      
      2500   297.99218     -36525.789     -6030.7103      3602.6891      15.7087        13.0868        17.5248      
      2600   306.46889     -36531.027     -5184.6463      3602.6891      15.7087        13.0868        17.5248      
      2700   301.55866     -36531.722     -7969.9847      3602.6891      15.7087        13.0868        17.5248      
      2800   276.77779     -36515.439     -2093.4671      3602.6891      15.7087        13.0868        17.5248      
      2900   307.04718     -36544.243     -9490.7638      3602.6891      15.7087        13.0868        17.5248      
      3000   294.71025     -36528.511     -4113.8927      3602.6891      15.7087        13.0868        17.5248      
      3100   305.66055     -36536.258     -469.59944      3602.6891      15.7087        13.0868        17.5248      
      3200   298.7007      -36532.427     -8580.7496      3602.6891      15.7087        13.0868        17.5248      
      3300   279.95426     -36528.52      -4164.0189      3602.6891      15.7087        13.0868        17.5248      
      3400   284.43354     -36550.926     -4714.6243      3602.6891      15.7087        13.0868        17.5248      
      3500   283.37752     -36542.126     -4216.9075      3602.6891      15.7087        13.0868        17.5248      
      3600   301.13235     -36522.592     -6847.693       3602.6891      15.7087        13.0868        17.5248      
      3700   313.61793     -36524.146      8472.2084      3602.6891      15.7087        13.0868        17.5248      
      3800   299.51395     -36507.35      -4598.8048      3602.6891      15.7087        13.0868        17.5248      
      3900   313.40019     -36528.065     -5293.2281      3602.6891      15.7087        13.0868        17.5248      
      4000   279.21645     -36517.15      -11644.429      3602.6891      15.7087        13.0868        17.5248      
      4100   268.19793     -36511.652     -5242.767       3602.6891      15.7087        13.0868        17.5248      
      4200   316.48559     -36529.394     -10900.564      3602.6891      15.7087        13.0868        17.5248      
      4300   316.14521     -36501.116      184.76326      3602.6891      15.7087        13.0868        17.5248      
      4400   329.96847     -36531.669     -12573.912      3602.6891      15.7087        13.0868        17.5248      
      4500   303.01927     -36522.525     -17435.881      3602.6891      15.7087        13.0868        17.5248      
      4600   285.8229      -36510.876     -1194.0176      3602.6891      15.7087        13.0868        17.5248      
      4700   290.72452     -36518.53      -12979.532      3602.6891      15.7087        13.0868        17.5248      
      4800   290.20448     -36522.418     -2577.6553      3602.6891      15.7087        13.0868        17.5248      
      4900   291.82743     -36519.317      3691.6373      3602.6891      15.7087        13.0868        17.5248      
      5000   293.95313     -36518.116     -8746.2972      3602.6891      15.7087        13.0868        17.5248      
Loop time of 255.526 on 16 procs for 5000 steps with 331 atoms

Performance: 0.845 ns/day, 28.392 hours/ns, 19.567 timesteps/s, 6.477 katom-step/s
99.1% CPU use with 8 MPI tasks x 2 OpenMP threads

MPI task timing breakdown:
Section |  min time  |  avg time  |  max time  |%varavg| %total
---------------------------------------------------------------
Pair    | 184.79     | 193.01     | 199.15     |  36.0 | 75.53
Bond    | 0.0014422  | 0.0019402  | 0.0023336  |   0.6 |  0.00
Neigh   | 14.814     | 15.198     | 15.558     |   6.5 |  5.95
Comm    | 16.705     | 22.746     | 30.926     | 104.2 |  8.90
Output  | 0.03557    | 0.043442   | 0.049825   |   2.4 |  0.02
Modify  | 23.222     | 23.543     | 24.024     |   5.0 |  9.21
Other   |            | 0.9857     |            |       |  0.39

Nlocal:         41.375 ave          44 max          38 min
Histogram: 1 0 0 2 0 1 1 0 2 1
Nghost:        3421.38 ave        3464 max        3381 min
Histogram: 1 0 2 1 0 2 0 0 0 2
Neighs:        26580.4 ave       28113 max       24627 min
Histogram: 1 0 0 2 0 1 1 0 2 1

Total # of neighbors = 212643
Ave neighs/atom = 642.42598
Ave special neighs/atom = 0
Neighbor list builds = 500
Dangerous builds not checked
  using 2 OpenMP thread(s) per MPI task
Reading restart file ...
  restart file = 2 Aug 2023, LAMMPS = 2 Aug 2023
  restoring atom style full from restart
  triclinic box = (0 0 0) to (15.7087 13.0868 17.5248) with tilt (-8.2042 -0.1458 -2.0056)
WARNING: Triclinic box skew is large. LAMMPS will run inefficiently. (src/domain.cpp:220)
  2 by 2 by 2 MPI processor grid
  pair style reaxff stores no restart info
  331 atoms
Finding 1-2 1-3 1-4 neighbors ...
  special bond factors lj:    0        0        0       
  special bond factors coul:  0        0        0       
     0 = max # of 1-2 neighbors
     0 = max # of 1-3 neighbors
     0 = max # of 1-4 neighbors
     1 = max # of special neighbors
  special bonds CPU = 0.000 seconds
  read_restart CPU = 0.004 seconds
*****Positive-deform 6 starts.*****
Resetting global fix info from restart file:
  fix style: nvt, fix ID: fnvt
All restart file global fix info was re-assigned
Neighbor list info ...
  update: every = 10 steps, delay = 0 steps, check = no
  max neighbors/atom: 2000, page size: 100000
  master list distance cutoff = 12
  ghost atom cutoff = 12
  binsize = 6, bins = 5 3 3
  2 neighbor lists, perpetual/occasional/extra = 2 0 0
  (1) pair reaxff, perpetual
      attributes: half, newton off, ghost
      pair build: half/bin/newtoff/ghost
      stencil: full/ghost/bin/3d
      bin: standard
  (2) fix qeq/reaxff, perpetual, copy from (1)
      attributes: half, newton off
      pair build: copy
      stencil: none
      bin: none
Setting up Verlet run ...
  Unit style    : real
  Current step  : 0
  Time step     : 0.5
Per MPI rank memory allocation (min/avg/max) = 126.8 | 128 | 129.8 Mbytes
   Step          Temp          PotEng         Press          Volume           Lx             Ly             Lz      
         0   290.04269     -36543.282      4226.0457      3602.6891      15.7087        13.0868        17.5248      
       100   301.09196     -36563.899     -5400.8515      3602.6891      15.7087        13.0868        17.5248      
       200   298.45318     -36556.627     -3883.631       3602.6891      15.7087        13.0868        17.5248      
       300   317.40653     -36545.521     -6224.2517      3602.6891      15.7087        13.0868        17.5248      
       400   316.65885     -36524.773     -4516.5054      3602.6891      15.7087        13.0868        17.5248      
       500   313.6814      -36543.979      2634.6078      3602.6891      15.7087        13.0868        17.5248      
       600   297.34288     -36548.871     -5792.2796      3602.6891      15.7087        13.0868        17.5248      
       700   289.27477     -36545.805     -5682.4774      3602.6891      15.7087        13.0868        17.5248      
       800   290.53272     -36545.903      4425.2144      3602.6891      15.7087        13.0868        17.5248      
       900   286.14819     -36544.805     -327.30064      3602.6891      15.7087        13.0868        17.5248      
      1000   311.216       -36541.008      9480.7937      3602.6891      15.7087        13.0868        17.5248      
      1100   313.40581     -36526.71       2301.0275      3602.6891      15.7087        13.0868        17.5248      
      1200   326.1775      -36539.852      7581.6997      3602.6891      15.7087        13.0868        17.5248      
      1300   308.34464     -36551.897      1065.0846      3602.6891      15.7087        13.0868        17.5248      
      1400   302.3221      -36552.148      4690.3928      3602.6891      15.7087        13.0868        17.5248      
      1500   297.76305     -36540.484      3477.0887      3602.6891      15.7087        13.0868        17.5248      
      1600   306.78825     -36531.013      9921.9286      3602.6891      15.7087        13.0868        17.5248      
      1700   313.39205     -36532.027     -77.3859        3602.6891      15.7087        13.0868        17.5248      
      1800   297.02739     -36555.748      8439.4543      3602.6891      15.7087        13.0868        17.5248      
      1900   291.14282     -36553.281      2416.121       3602.6891      15.7087        13.0868        17.5248      
      2000   307.41851     -36551.007     -17337.511      3602.6891      15.7087        13.0868        17.5248      
      2100   310.61791     -36529.777     -14667.356      3602.6891      15.7087        13.0868        17.5248      
      2200   304.07055     -36521.776     -3388.801       3602.6891      15.7087        13.0868        17.5248      
      2300   295.76171     -36538.574      11931.992      3602.6891      15.7087        13.0868        17.5248      
      2400   295.05328     -36554.178      344.56522      3602.6891      15.7087        13.0868        17.5248      
      2500   303.31309     -36554.747      1420.7539      3602.6891      15.7087        13.0868        17.5248      
      2600   303.57869     -36547.038     -7086.6452      3602.6891      15.7087        13.0868        17.5248      
      2700   286.91682     -36517.545     -7621.4693      3602.6891      15.7087        13.0868        17.5248      
      2800   305.05402     -36535.113      4627.3834      3602.6891      15.7087        13.0868        17.5248      
      2900   287.4506      -36541.833      715.74041      3602.6891      15.7087        13.0868        17.5248      
      3000   282.95653     -36546.271      4888.745       3602.6891      15.7087        13.0868        17.5248      
      3100   299.11663     -36548.308      5050.5278      3602.6891      15.7087        13.0868        17.5248      
      3200   320.99652     -36541.136     -4677.9973      3602.6891      15.7087        13.0868        17.5248      
      3300   315.03296     -36511.748      5138.0658      3602.6891      15.7087        13.0868        17.5248      
      3400   312.00354     -36542.523     -7856.2858      3602.6891      15.7087        13.0868        17.5248      
      3500   303.39853     -36556.822      13503.532      3602.6891      15.7087        13.0868        17.5248      
      3600   291.17972     -36555.215      1455.5389      3602.6891      15.7087        13.0868        17.5248      
      3700   297.20202     -36564.818     -3181.6449      3602.6891      15.7087        13.0868        17.5248      
      3800   302.37141     -36557.282      9857.7753      3602.6891      15.7087        13.0868        17.5248      
      3900   317.42191     -36544.458     -7824.67        3602.6891      15.7087        13.0868        17.5248      
      4000   316.91599     -36536.62       2463.7167      3602.6891      15.7087        13.0868        17.5248      
      4100   301.74105     -36558.435     -2847.8054      3602.6891      15.7087        13.0868        17.5248      
      4200   300.19766     -36564.663      194.47463      3602.6891      15.7087        13.0868        17.5248      
      4300   294.8519      -36553.122     -472.86368      3602.6891      15.7087        13.0868        17.5248      
      4400   297.75064     -36543.174     -5639.4626      3602.6891      15.7087        13.0868        17.5248      
      4500   329.05164     -36553.923     -9924.0022      3602.6891      15.7087        13.0868        17.5248      
      4600   306.21645     -36530.283     -2207.1131      3602.6891      15.7087        13.0868        17.5248      
      4700   302.14258     -36560.193      5765.7976      3602.6891      15.7087        13.0868        17.5248      
      4800   303.22179     -36567.832     -4059.8547      3602.6891      15.7087        13.0868        17.5248      
      4900   297.43568     -36557.234     -5453.8795      3602.6891      15.7087        13.0868        17.5248      
      5000   319.26182     -36555.972     -518.83078      3602.6891      15.7087        13.0868        17.5248      
Loop time of 226.443 on 16 procs for 5000 steps with 331 atoms

Performance: 0.954 ns/day, 25.160 hours/ns, 22.081 timesteps/s, 7.309 katom-step/s
99.4% CPU use with 8 MPI tasks x 2 OpenMP threads

MPI task timing breakdown:
Section |  min time  |  avg time  |  max time  |%varavg| %total
---------------------------------------------------------------
Pair    | 132.93     | 167.03     | 186.41     | 153.2 | 73.76
Bond    | 0.0015467  | 0.0017315  | 0.0018866  |   0.3 |  0.00
Neigh   | 12.283     | 15.626     | 17.153     |  48.4 |  6.90
Comm    | 3.2767     | 22.641     | 56.747     | 416.1 | 10.00
Output  | 0.016407   | 0.019925   | 0.022787   |   1.7 |  0.01
Modify  | 19.433     | 20.924     | 24.266     |  41.9 |  9.24
Other   |            | 0.2026     |            |       |  0.09

Nlocal:         41.375 ave          45 max          35 min
Histogram: 1 0 0 0 2 0 0 1 1 3
Nghost:        3148.12 ave        3223 max        3100 min
Histogram: 1 3 0 1 0 1 0 1 0 1
Neighs:        26598.6 ave       28609 max       22674 min
Histogram: 1 0 0 0 2 0 0 1 1 3

Total # of neighbors = 212789
Ave neighs/atom = 642.86707
Ave special neighs/atom = 0
Neighbor list builds = 500
Dangerous builds not checked
Total wall time: 0:53:55
