ITEM: TIMESTEP
0
ITEM: NUMBER OF ATOMS
243
ITEM: BOX BOUNDS xy xz yz pp pp pp
-7.6648620000000003e+00 1.4691300000000000e+01 -7.3456000000000001e+00
0.0000000000000000e+00 1.2723000000000001e+01 -3.1926199999999999e-01
0.0000000000000000e+00 1.5963100000000001e+01 0.0000000000000000e+00
ITEM: ATOMS id type x y z
120 1 6.37115 1.11491 0.70804
134 1 3.7281 5.27006 0.924726
140 1 3.76128 5.62865 6.48256
6 2 1.17581 2.35737 5.32673
10 2 -0.123781 4.13547 1.6776
13 2 -0.317654 4.34849 6.98916
139 1 2.5051 6.09914 4.29773
29 2 3.62722 1.99194 3.55887
135 1 3.74458 3.19783 7.59968
37 2 4.59866 4.16994 1.76536
38 2 1.1304 6.12335 3.5219
4 2 2.04108 0.0743291 7.12264
82 1 1.28861 1.16812 1.1353
83 1 0.261484 1.72461 4.19321
84 1 1.16574 1.31401 6.64444
88 1 -1.09081 3.01258 2.31126
89 1 0.729169 3.54249 0.488397
90 1 -1.03644 5.36001 1.22036
91 1 -1.20007 3.23935 7.67044
92 1 0.445922 3.71792 5.73661
28 2 7.12668 0.108259 1.70331
94 1 -1.19992 5.57048 6.51866
118 1 3.03579 0.611013 2.9312
119 1 2.68194 2.55559 4.80785
40 2 4.6213 4.40175 7.0357
123 1 5.16378 1.82786 4.01244
124 1 6.21654 1.3335 6.29659
130 1 3.57539 3.13253 2.39085
132 1 0.835064 4.75419 2.7604
93 1 -2.37139 5.84816 4.2251
2 2 -1.2026 1.96952 3.49411
7 2 1.98095 0.11442 12.2616
9 2 1.08992 2.36166 10.5324
16 2 -0.307321 4.38716 12.3825
32 2 3.67302 2.08313 8.76884
97 1 -2.50347 5.99329 14.9423
35 2 3.52208 2.04425 13.9827
41 2 1.17842 6.29231 8.76926
43 2 4.52145 4.33245 12.3748
44 2 0.928707 6.32788 14.288
85 1 0.0203975 1.78532 14.749
86 1 0.0747389 1.86151 9.41001
87 1 1.10995 1.31696 11.7193
95 1 -1.14247 3.15747 13.0404
96 1 0.550546 3.76961 11.1585
3 2 1.00923 2.19699 15.8786
98 1 -2.28047 6.17803 9.55702
99 1 -1.20508 5.60395 11.8888
121 1 3.14277 0.703073 8.03278
122 1 2.53347 2.48721 9.91124
125 1 2.97785 0.702374 13.3264
126 1 4.98234 2.10172 14.5727
127 1 2.49286 2.38195 15.2511
128 1 5.08996 1.87675 9.50769
129 1 6.1102 1.36039 11.8533
137 1 0.683882 4.93739 8.04185
141 1 3.44929 3.2644 12.9517
143 1 0.593873 4.9901 13.5085
144 1 2.40811 6.20444 14.8143
146 1 2.69326 6.1492 9.24728
147 1 3.61217 5.48498 11.8426
8 2 -1.4256 2.04678 14.1617
5 2 -1.35963 2.05731 8.76071
34 2 6.98859 0.161607 12.3725
12 2 -1.15812 6.49609 0.0910888
15 2 -1.33323 6.54183 5.25736
19 2 -2.64095 8.51698 1.82183
161 1 1.20305 9.70392 6.317
22 2 -2.69811 8.5873 6.90651
24 2 -3.80449 10.8999 5.21943
46 2 2.13522 8.38573 1.86962
47 2 -1.32553 10.7045 3.49807
49 2 2.13579 8.60697 7.00945
100 1 -3.45967 7.25753 2.31649
101 1 -1.61592 7.80565 0.797746
102 1 -6.31349 11.5832 2.34895
103 1 -3.48605 9.5298 0.93782
104 1 -4.3261 12.0453 0.606274
105 1 -3.56188 7.53938 7.79026
106 1 -1.78737 7.97227 5.75068
107 1 -6.00752 11.5099 7.7463
108 1 -4.74728 10.3476 4.10263
109 1 -3.61118 9.82118 6.40758
110 1 -4.53008 12.2235 5.78494
133 1 0.127041 6.63255 4.61992
148 1 1.20631 7.1799 2.38124
150 1 -1.84958 9.30182 2.99846
151 1 -1.27767 11.749 2.26145
152 1 -2.31169 11.2012 4.68631
153 1 1.443 9.54512 1.01682
155 1 1.24818 7.45488 7.70451
158 1 -1.11543 11.7904 7.73712
160 1 0.212814 10.4615 3.9702
1 2 -5.22119 12.6847 1.82256
18 2 -1.27597 6.59118 10.6546
25 2 -2.7003 8.66462 12.3784
27 2 -3.78442 10.842 10.5521
50 2 -1.1983 10.5911 8.7873
52 2 1.92902 8.50136 12.4303
53 2 -1.3861 10.625 14.1861
111 1 -3.61905 7.43592 12.9917
112 1 -1.69963 8.05557 11.1671
113 1 -4.96961 10.2467 14.6497
114 1 -6.34519 11.7248 13.0089
115 1 -4.80865 10.137 9.50412
116 1 -3.60894 9.85134 11.8203
117 1 -4.50834 12.3139 10.987
138 1 0.183732 6.6975 9.95253
145 1 0.000987051 6.72726 15.459
157 1 -1.8163 9.34606 8.00073
159 1 -2.35016 11.1831 9.8063
163 1 0.960259 7.45919 13.1646
165 1 -1.88125 9.14614 13.665
166 1 0.10008 10.4765 14.7125
167 1 -1.19707 11.6575 12.9428
168 1 -2.59492 11.1167 15.1804
169 1 0.21146 10.3691 9.45992
170 1 1.14463 9.76816 11.7599
21 2 -4.00827 10.7348 15.871
14 2 -3.7132 6.44037 8.88346
23 2 -6.14991 10.4093 8.82152
17 2 -3.83063 6.36746 14.1309
196 1 8.66813 5.5052 1.15423
204 1 8.62387 5.54375 6.45438
11 2 10.9261 6.17483 3.51055
33 2 6.05872 2.42363 5.17041
203 1 7.47292 6.00384 4.18589
56 2 8.55512 2.14294 3.46079
197 1 8.6625 3.32892 7.86812
198 1 10.2142 3.75701 5.83672
60 2 10.8929 2.46629 5.1749
64 2 9.5797 4.27142 1.67808
65 2 6.05982 6.17646 3.46792
67 2 9.57753 4.45005 7.1584
131 1 5.6803 3.56792 0.768442
136 1 5.49399 3.76669 5.86447
172 1 13.0671 0.547395 2.82952
173 1 7.87161 0.764405 2.90754
174 1 7.61695 2.6805 4.65996
176 1 11.2254 1.30318 1.28173
180 1 12.461 2.55207 4.51932
181 1 9.98811 1.75778 4.05089
182 1 11.0583 1.39086 6.31394
190 1 8.65083 3.04474 2.1708
191 1 10.5837 3.7512 0.576788
192 1 10.3266 4.82596 2.98472
193 1 5.45655 4.82852 2.86669
58 2 11.8333 0.115766 6.93788
57 2 11.1382 2.31118 0.115171
31 2 7.10845 0.201481 6.98977
178 1 8.09841 0.834745 7.97823
30 2 5.92176 2.42741 15.7547
213 1 8.55654 5.48763 11.8331
212 1 7.3814 6.08213 9.57122
209 1 7.40847 6.06572 14.6532
36 2 6.0594 2.3651 10.6521
59 2 8.54786 2.04566 8.85518
208 1 5.36378 4.92693 13.5609
62 2 8.4841 2.11692 14.1932
63 2 10.9172 2.29036 10.6217
71 2 5.9071 6.34072 14.1327
70 2 9.54013 4.35291 12.3123
177 1 12.6858 0.712672 8.13366
142 1 5.43955 3.6981 11.2218
175 1 12.2512 2.46298 15.3576
207 1 10.4419 4.92233 13.478
68 2 5.99624 6.30238 8.91611
179 1 7.51396 2.36741 9.98647
183 1 12.6563 0.731282 13.51
184 1 7.95178 0.723167 13.5343
185 1 9.72421 1.7666 15.0734
186 1 7.40239 2.69779 15.1978
187 1 12.3745 2.40927 10.0079
188 1 10.0583 1.80517 9.34893
189 1 10.8965 1.18506 11.8218
199 1 10.502 5.1462 8.10463
200 1 5.47206 4.91349 8.27725
205 1 8.70341 3.14803 13.0473
206 1 10.4446 3.6982 11.1894
232 1 5.44925 12.1461 5.84534
227 1 3.54127 11.6589 7.52989
42 2 3.57122 6.61337 5.32321
231 1 6.1828 9.77557 6.588
51 2 1.10225 10.8273 5.18331
230 1 5.01596 10.1536 4.21599
69 2 8.53001 6.61158 5.23838
73 2 7.10906 8.49562 1.64627
74 2 3.67488 10.4232 3.4922
229 1 7.4213 10.8134 4.60322
76 2 7.06572 8.51384 7.03138
78 2 5.97603 10.7408 5.29742
149 1 3.30223 7.71123 0.955045
154 1 0.877763 12.0182 0.8559
156 1 3.11909 8.02465 5.84205
162 1 0.526351 12.1905 5.80732
194 1 4.97003 6.71377 4.52377
202 1 10.0257 6.81969 4.63865
214 1 6.24853 7.34107 2.34813
215 1 7.91667 7.78594 0.463156
216 1 8.04637 9.0136 2.83676
217 1 2.95634 9.07015 3.02936
218 1 3.89167 11.4818 2.29207
219 1 2.58295 11.0852 4.54962
221 1 6.18168 9.64775 1.09799
222 1 5.545 12.0935 0.436268
223 1 6.16512 7.33198 7.67796
224 1 7.94801 8.00005 5.79435
20 2 8.44848 10.4358 3.50047
39 2 3.69718 6.53368 0.0213021
55 2 4.73708 12.7115 1.66611
243 1 5.47874 12.1518 11.3095
48 2 1.10096 10.7932 15.9394
45 2 3.50496 6.59289 10.5601
54 2 1.11251 10.9644 10.6078
72 2 8.48603 6.54532 10.5912
77 2 3.53209 10.6351 8.7098
79 2 6.81843 8.49552 12.2667
80 2 3.53197 10.3285 14.0876
81 2 5.98793 10.787 10.5902
164 1 2.69284 7.87864 11.1496
171 1 0.577895 12.3478 11.1931
195 1 9.78701 6.74307 15.2413
201 1 4.93619 6.9273 9.98225
210 1 4.8226 6.64497 15.305
211 1 9.9317 6.80018 10.0231
220 1 7.35605 10.7789 15.3755
225 1 8.03807 9.0543 8.09819
26 2 8.31452 10.514 14.0438
228 1 2.6004 10.9838 9.93762
233 1 5.99578 7.30027 12.9043
234 1 7.92951 7.89331 11.2658
235 1 7.64048 9.22067 13.4244
236 1 2.99181 9.05743 13.4138
237 1 4.95041 10.1135 14.6921
238 1 3.6036 11.5504 13.1021
239 1 2.61587 10.8346 15.3278
240 1 7.41118 10.8248 9.91876
241 1 4.97149 10.5528 9.38746
242 1 5.85717 9.54454 11.6097
226 1 2.99372 9.22698 8.1876
66 2 8.27118 6.5157 15.8716
75 2 5.8426 10.6529 15.8608
61 2 4.45233 12.6934 12.4141
ITEM: TIMESTEP
100
ITEM: NUMBER OF ATOMS
243
ITEM: BOX BOUNDS xy xz yz pp pp pp
-7.6648620000000003e+00 1.4691300000000000e+01 -7.3456000000000001e+00
0.0000000000000000e+00 1.2723000000000001e+01 -3.1926199999999999e-01
0.0000000000000000e+00 1.5963100000000001e+01 0.0000000000000000e+00
ITEM: ATOMS id type x y z
120 1 6.36234 1.09463 0.793033
134 1 3.87097 5.36551 1.21399
140 1 3.61341 5.5132 6.43084
6 2 1.10349 2.38264 5.28775
10 2 -0.0755725 4.10406 1.6986
13 2 -0.417343 4.31582 7.0798
139 1 2.60505 6.02487 4.06957
29 2 3.59879 1.99143 3.52412
135 1 3.63709 3.14627 7.65288
37 2 4.71914 4.17202 1.85582
38 2 1.14008 6.13761 3.47643
4 2 2.02845 0.133773 7.0622
82 1 1.3462 1.19871 1.21858
83 1 0.215245 1.66808 4.18751
84 1 1.16245 1.36496 6.48318
88 1 -0.916509 2.91925 2.31914
89 1 0.736325 3.52622 0.435287
90 1 -0.960894 5.3405 1.15892
91 1 -1.31385 3.18199 7.74189
92 1 0.555045 3.73759 5.92726
93 1 -2.2796 5.88749 4.15466
94 1 -1.33781 5.56266 6.49589
118 1 3.12346 0.627983 2.91073
119 1 2.59467 2.42577 4.66174
40 2 4.4964 4.32455 6.96435
123 1 5.06303 1.93776 4.11035
124 1 6.16386 1.33973 6.33065
130 1 3.6455 3.0076 2.31248
132 1 0.737862 4.7398 2.84848
7 2 2.01585 0.14223 12.3292
9 2 1.10737 2.41547 10.5406
16 2 -0.295126 4.27731 12.4837
32 2 3.55991 2.07164 8.7994
97 1 -2.33419 6.15725 14.8784
35 2 3.4721 2.1037 14.023
41 2 1.10726 6.28397 8.68809
43 2 4.49306 4.31798 12.2057
44 2 1.02818 6.30824 14.235
85 1 0.112858 1.60145 14.816
86 1 0.130814 1.75844 9.45546
87 1 1.15092 1.34379 11.7254
95 1 -1.26233 3.22326 13.2046
96 1 0.530135 3.69766 11.2727
3 2 1.09187 2.15575 15.9252
17 2 -3.75197 6.33917 14.2393
99 1 -1.24965 5.40876 11.8348
121 1 3.12764 0.703509 8.12322
122 1 2.56314 2.66796 9.90363
125 1 2.9505 0.685796 13.4726
126 1 4.92277 2.07678 14.6648
127 1 2.52423 2.42617 15.2957
128 1 4.97042 1.89475 9.47874
129 1 6.12952 1.38267 11.8577
137 1 0.637827 4.87432 8.08469
141 1 3.48246 3.20454 12.8393
143 1 0.652169 4.88512 13.6322
34 2 6.9782 0.1561 12.3518
146 1 2.60092 6.0986 9.22965
147 1 3.61228 5.4887 11.5316
8 2 -1.33547 2.03359 14.2334
144 1 2.49533 6.33026 14.8668
5 2 -1.3329 2.02128 8.82848
12 2 -1.11103 6.59925 0.1393
15 2 -1.35828 6.58518 5.27869
19 2 -2.81605 8.59257 1.71231
161 1 1.28097 9.88845 6.4603
22 2 -2.67537 8.6573 6.95644
24 2 -3.66254 10.9933 5.27267
46 2 2.23378 8.41617 1.89349
47 2 -1.32628 10.663 3.47612
49 2 2.07205 8.58674 7.10134
100 1 -3.51962 7.30997 2.31666
101 1 -1.70663 7.96306 0.73307
102 1 -6.23525 11.5821 2.4455
103 1 -3.77847 9.51153 0.84297
104 1 -4.32216 12.01 0.610355
105 1 -3.68124 7.4829 7.59968
106 1 -1.94966 8.00953 5.70463
107 1 -6.2124 11.7188 7.80374
108 1 -4.61511 10.3311 4.09364
109 1 -3.50993 9.94808 6.49971
110 1 -4.45701 12.2899 5.76911
133 1 0.0573619 6.77207 4.52796
148 1 1.32923 7.14789 2.27232
150 1 -2.0872 9.42713 2.83386
151 1 -1.22998 11.7588 2.32721
152 1 -2.25654 11.3325 4.63538
153 1 1.35033 9.43187 1.07428
155 1 1.06006 7.47389 7.62656
158 1 -1.11983 11.7185 7.65317
160 1 0.105289 10.3788 4.14919
1 2 -5.18229 12.7116 1.80789
28 2 -0.184298 12.7177 1.63844
18 2 -1.2549 6.61513 10.6644
25 2 -2.71522 8.59193 12.4252
27 2 -3.77438 10.7751 10.5627
50 2 -1.25686 10.5791 8.75143
52 2 1.97767 8.56946 12.3858
53 2 -1.42103 10.669 14.244
111 1 -3.60122 7.5305 13.197
112 1 -1.66056 8.01674 11.4239
113 1 -4.86385 10.4108 14.4855
114 1 -6.3896 11.7731 12.8933
115 1 -4.67111 10.3312 9.33529
116 1 -3.56279 9.70515 11.6912
117 1 -4.47687 12.0699 11.1919
138 1 0.185028 6.61945 9.93767
145 1 0.0292387 6.69451 15.3992
157 1 -1.69385 9.23511 8.05994
159 1 -2.3408 11.0087 9.90299
163 1 0.973277 7.34126 12.9329
165 1 -1.82873 9.31924 13.5519
166 1 -0.0129305 10.3105 14.8527
167 1 -1.29216 11.8064 13.1261
168 1 -2.48487 10.9814 15.3326
169 1 0.103198 10.3043 9.57658
170 1 1.12453 9.78613 11.8526
21 2 -3.98721 10.7467 15.7703
14 2 -3.8274 6.37751 8.8422
23 2 -6.17856 10.5696 8.82676
98 1 -2.35822 6.37772 9.55658
26 2 -6.41131 10.631 14.0486
196 1 8.70678 5.43076 1.03888
204 1 8.60468 5.57089 6.43919
11 2 10.9919 6.16786 3.44946
33 2 6.09708 2.38815 5.18462
203 1 7.52112 5.98156 4.14503
56 2 8.57952 2.01684 3.39146
197 1 8.35647 3.1956 7.78731
198 1 10.4156 3.7203 6.09861
60 2 10.9667 2.44963 5.27769
64 2 9.57072 4.21368 1.62626
65 2 6.09469 6.2629 3.49721
67 2 9.38738 4.35052 7.15331
131 1 5.62422 3.59785 0.689763
136 1 5.49364 3.69281 5.86941
172 1 12.9585 0.451635 2.98108
173 1 7.98795 0.637548 2.83896
174 1 7.54399 2.54225 4.42554
176 1 11.163 1.16541 1.34265
180 1 12.4315 2.50196 4.61452
181 1 9.97957 2.06036 4.05671
182 1 11.0236 1.31139 6.37979
190 1 8.71684 2.98345 2.11581
191 1 10.5421 3.6816 0.488035
192 1 10.4006 4.80168 2.85082
193 1 5.56836 4.83084 3.01843
58 2 11.8871 0.0910047 6.95448
57 2 11.1997 2.23825 0.0796837
31 2 7.12188 0.15984 6.86357
2 2 13.4542 1.93426 3.52591
30 2 5.92615 2.3764 15.8318
213 1 8.62379 5.38815 11.6023
212 1 7.45581 6.11242 9.4823
209 1 7.34719 6.07635 14.7245
36 2 6.08024 2.39429 10.5847
59 2 8.5455 2.04871 8.85123
208 1 5.33081 4.84842 13.457
62 2 8.47527 2.03889 14.3103
63 2 10.9995 2.34281 10.6172
71 2 5.86115 6.1976 14.1516
70 2 9.4924 4.31655 12.3595
177 1 12.8906 0.696985 8.05788
142 1 5.52225 3.81269 11.1066
175 1 12.3512 2.41211 15.4039
207 1 10.4829 5.08825 13.323
68 2 6.07763 6.29366 8.72917
179 1 7.56222 2.43881 10.0646
183 1 12.7066 0.795627 13.5051
184 1 7.81627 0.779189 13.5777
185 1 9.9336 1.7639 14.8113
186 1 7.48872 2.63418 15.4265
187 1 12.4873 2.48454 10.0649
188 1 10.0887 1.89139 9.35801
189 1 10.9928 1.1062 11.6341
199 1 10.2798 5.04282 8.29405
200 1 5.50933 4.89817 8.08223
205 1 8.69103 3.15844 13.2231
206 1 10.3308 3.64593 11.2456
178 1 7.98731 0.829621 8.02472
61 2 11.8459 0.049843 12.4282
232 1 5.50187 12.1472 5.87876
227 1 3.54567 11.7933 7.6561
42 2 3.51615 6.54923 5.22177
231 1 6.11772 9.74001 6.48456
51 2 1.17877 10.8389 5.14894
230 1 5.06478 10.3156 4.15423
69 2 8.57355 6.57338 5.22019
73 2 7.19536 8.54914 1.70006
74 2 3.62043 10.4852 3.55171
229 1 7.51074 10.8467 4.73096
76 2 7.11153 8.60989 7.02708
78 2 6.03181 10.8222 5.33439
149 1 3.36129 7.94285 0.839904
154 1 0.948913 11.8928 0.854338
156 1 2.93622 7.8613 6.01217
162 1 0.638702 12.2702 5.68222
194 1 5.06697 6.81893 4.64603
202 1 9.96995 6.72635 4.50731
214 1 6.23379 7.37073 2.35437
215 1 8.18885 7.87716 0.643961
216 1 8.13677 9.04398 2.90008
217 1 2.92526 9.13064 3.1179
218 1 3.72098 11.4676 2.31276
219 1 2.69538 11.0995 4.66909
221 1 6.32774 9.73568 1.06783
222 1 5.645 12.0111 0.655038
223 1 6.14797 7.44448 7.54085
224 1 7.9727 8.0227 5.77495
20 2 8.55514 10.4044 3.59371
39 2 3.8689 6.5238 0.133127
55 2 4.74348 12.647 1.78122
48 2 1.42948 10.6176 0.014425
243 1 5.46815 12.0906 11.3738
75 2 5.93947 10.78 15.8495
45 2 3.60148 6.65486 10.3853
54 2 1.07632 10.8643 10.665
72 2 8.43516 6.63321 10.6506
77 2 3.54587 10.5908 8.74817
79 2 6.74035 8.49876 12.371
80 2 3.45009 10.4959 14.1636
81 2 5.9957 10.7682 10.5748
164 1 2.8661 7.88033 11.1201
171 1 0.613866 12.2089 11.3212
195 1 9.78822 6.64734 15.2331
201 1 5.06944 6.84053 9.82002
210 1 5.0139 6.70975 15.4335
211 1 9.88561 6.97345 9.94181
220 1 7.39385 11.0763 15.3305
225 1 8.08176 9.13164 8.17578
66 2 8.35443 6.54233 15.8396
228 1 2.56421 10.9584 10.0107
233 1 5.91923 7.3013 13.0492
234 1 7.90045 7.96175 11.3677
235 1 7.63078 9.20747 13.4654
236 1 2.88037 9.08909 13.5909
237 1 4.98108 10.3746 14.619
238 1 3.48515 11.6806 13.0906
239 1 2.58897 10.9375 15.4473
240 1 7.51967 10.9178 10.0414
241 1 5.09578 10.4593 9.2293
242 1 5.90508 9.54656 11.5858
226 1 3.08378 9.18832 8.21864
ITEM: TIMESTEP
200
ITEM: NUMBER OF ATOMS
243
ITEM: BOX BOUNDS xy xz yz pp pp pp
-7.6648620000000003e+00 1.4691300000000000e+01 -7.3456000000000001e+00
0.0000000000000000e+00 1.2723000000000001e+01 -3.1926199999999999e-01
0.0000000000000000e+00 1.5963100000000001e+01 0.0000000000000000e+00
ITEM: ATOMS id type x y z
120 1 6.40149 1.17411 1.04492
134 1 3.71464 5.42978 1.13309
140 1 3.50913 5.35871 6.42645
6 2 1.1604 2.38593 5.2986
10 2 -0.221384 4.17952 1.72169
13 2 -0.443991 4.37228 7.0031
139 1 2.52091 6.03973 4.24748
29 2 3.59473 2.02982 3.45594
135 1 3.82717 3.06867 7.60926
37 2 4.69282 4.3042 1.69616
38 2 1.14232 6.14217 3.47116
4 2 2.10613 0.137273 7.11369
82 1 1.31796 1.18586 1.11461
83 1 0.154555 1.72251 4.1034
84 1 1.26723 1.36546 6.49063
88 1 -1.19799 3.08161 2.31802
89 1 0.761539 3.66367 0.609802
90 1 -0.954488 5.47531 1.11697
91 1 -1.2694 3.12524 7.64831
92 1 0.323051 3.73743 5.78337
93 1 -2.37283 6.03518 4.15252
94 1 -1.33473 5.56937 6.53383
118 1 3.06254 0.658095 2.86716
119 1 2.57457 2.46429 4.59196
40 2 4.62532 4.32391 6.95976
123 1 5.06609 1.82837 4.00045
124 1 6.08036 1.27247 6.40635
130 1 3.72619 3.11597 2.26787
132 1 0.704232 4.73707 2.95168
31 2 6.98806 0.0942261 7.02894
7 2 2.1296 0.0845596 12.3515
9 2 1.17427 2.4902 10.5793
16 2 -0.385342 4.323 12.4897
32 2 3.58669 2.07798 8.82257
97 1 -2.31937 6.06975 14.7717
35 2 3.58073 2.04879 14.0741
5 2 -1.2062 2.02682 8.80051
43 2 4.40481 4.30879 12.3011
44 2 1.19008 6.21529 14.2348
85 1 0.0872902 1.67788 14.7528
86 1 0.225439 1.86703 9.46175
87 1 1.41953 1.38668 11.6816
95 1 -1.25471 3.11374 13.0647
96 1 0.550416 3.83399 11.2075
3 2 1.02881 2.32102 15.9015
98 1 -2.42918 6.08415 9.63868
99 1 -1.30025 5.4911 11.9107
121 1 2.94774 0.756283 8.29155
122 1 2.61971 2.77095 9.8694
125 1 3.06088 0.63671 13.5503
126 1 5.00892 1.92143 14.7422
127 1 2.47384 2.49972 15.1938
128 1 5.0599 1.92716 9.39492
129 1 6.08542 1.30236 11.7127
137 1 0.49673 4.97562 8.12934
141 1 3.53575 3.11863 12.9179
143 1 0.565763 4.82945 13.6974
34 2 6.9003 0.138477 12.4058
146 1 2.54335 6.24574 9.29192
147 1 3.65443 5.46138 11.5221
8 2 -1.37715 1.97778 14.1986
144 1 2.70942 6.10324 14.752
28 2 -0.146248 12.6362 1.75848
15 2 -1.3969 6.56485 5.24384
19 2 -2.79247 8.43115 1.69695
161 1 1.23825 9.88532 6.37577
22 2 -2.71361 8.61152 6.9625
24 2 -3.65883 10.9186 5.33303
46 2 2.1736 8.45458 1.72829
47 2 -1.32249 10.5618 3.54682
49 2 2.01464 8.67319 7.03895
100 1 -3.74653 7.34615 2.32251
101 1 -1.73466 7.78469 0.670067
102 1 -6.0296 11.4701 2.29173
103 1 -3.76715 9.48752 0.88593
104 1 -4.15642 12.0414 0.613392
105 1 -3.63339 7.47194 7.67121
106 1 -1.92318 8.01894 5.74458
107 1 -6.14642 11.7011 7.82118
108 1 -4.68882 10.3615 4.20303
109 1 -3.6578 9.80729 6.45681
110 1 -4.35448 12.3091 5.91929
133 1 0.0423044 6.57989 4.53197
148 1 1.31269 7.23624 2.28663
150 1 -2.14603 9.26431 2.87543
151 1 -1.18653 11.5684 2.33385
152 1 -2.21151 11.1849 4.74883
153 1 1.27769 9.52922 1.02442
155 1 0.995805 7.53187 7.60314
158 1 -1.29208 11.6577 7.59017
160 1 0.12158 10.3093 4.06193
1 2 -5.15307 12.7018 1.72685
18 2 -1.29022 6.50032 10.6598
25 2 -2.7816 8.62595 12.3943
27 2 -3.72233 10.8601 10.5009
50 2 -1.29975 10.5619 8.71233
52 2 2.09892 8.50346 12.3239
53 2 -1.44422 10.6819 14.1665
111 1 -3.73966 7.52307 13.0087
112 1 -1.83412 7.89246 11.3873
113 1 -4.88924 10.3711 14.5773
114 1 -6.22861 11.724 12.8956
115 1 -4.65536 10.353 9.35543
116 1 -3.62709 9.80075 11.6892
117 1 -4.4083 12.1335 11.1691
138 1 0.149806 6.78365 10.0172
145 1 0.159594 6.77024 15.3268
157 1 -1.82246 9.19345 8.10422
159 1 -2.20944 11.1 9.90772
163 1 1.37897 7.297 13.0622
165 1 -1.79667 9.25158 13.4758
166 1 0.0956004 10.5731 14.6409
167 1 -1.39384 11.7475 13.015
168 1 -2.45194 10.8709 15.3971
169 1 0.25084 10.5573 9.32213
170 1 1.10268 9.50402 11.6921
21 2 -3.97143 10.7429 15.8045
14 2 -3.83429 6.46056 8.90548
23 2 -6.22336 10.5932 8.90652
26 2 -6.38931 10.6369 14.0818
12 2 -1.34205 6.54194 15.8957
17 2 -3.74743 6.36259 14.1267
41 2 1.07892 6.39979 8.7437
196 1 8.59648 5.40034 1.09498
204 1 8.62952 5.46357 6.46734
11 2 10.9187 6.18414 3.43437
33 2 6.01424 2.31499 5.18916
203 1 7.38705 6.0523 4.22096
56 2 8.53567 1.99252 3.45672
197 1 8.63166 3.2439 7.66943
198 1 10.5326 3.76655 6.01073
60 2 11.0286 2.45355 5.32236
64 2 9.56154 4.17437 1.56677
65 2 6.01691 6.27013 3.50364
67 2 9.55697 4.41906 7.12175
131 1 5.62742 3.53797 0.707428
136 1 5.57892 3.75538 5.78039
172 1 12.8315 0.598686 3.12166
173 1 8.01102 0.656266 2.91775
174 1 7.50005 2.50594 4.57539
176 1 11.2858 1.22213 1.30784
180 1 12.4278 2.5952 4.61176
181 1 9.97486 2.00868 4.11744
182 1 11.0093 1.20144 6.35619
190 1 8.66951 2.97761 2.22413
191 1 10.5969 3.60072 0.502484
192 1 10.4699 4.86933 2.69011
193 1 5.48766 4.99192 2.84505
58 2 11.855 0.0379112 7.06717
57 2 11.2662 2.25699 0.0150448
2 2 13.4283 2.02782 3.52022
30 2 6.04801 2.34151 15.9412
213 1 8.65687 5.44098 11.6406
212 1 7.51301 6.05124 9.44126
209 1 7.393 6.00636 14.7348
36 2 6.03405 2.3809 10.5733
59 2 8.45233 2.07173 8.8404
208 1 5.16112 4.97553 13.5638
62 2 8.52743 2.13834 14.2246
63 2 10.9703 2.31858 10.5153
71 2 5.88976 6.22203 14.2906
70 2 9.55349 4.34856 12.2681
177 1 12.7371 0.698513 8.27641
142 1 5.44361 3.73319 11.2424
175 1 12.3504 2.53415 15.3048
207 1 10.4878 4.9853 13.362
61 2 11.8125 0.0550598 12.3518
179 1 7.44791 2.51021 9.97212
183 1 12.6546 0.672508 13.5009
184 1 7.82233 0.821618 13.5906
185 1 9.96697 1.63851 14.8952
186 1 7.50695 2.64814 15.4232
187 1 12.489 2.4441 9.99582
188 1 9.95204 1.84023 9.29438
189 1 10.9086 1.1415 11.635
199 1 10.2723 5.12068 8.30356
200 1 5.34401 5.02629 8.20617
205 1 8.7173 3.21499 13.0817
206 1 10.4151 3.67336 11.0951
178 1 7.95025 0.701646 8.12309
232 1 5.405 12.0456 5.91337
227 1 3.56045 11.6174 7.70551
42 2 3.56863 6.61073 5.34358
231 1 6.12383 9.62023 6.39156
51 2 1.1414 10.9201 5.14084
230 1 5.14295 10.1647 4.08187
69 2 8.43075 6.51044 5.34453
73 2 7.29007 8.45111 1.72853
74 2 3.59009 10.4891 3.49036
229 1 7.56487 11.0712 4.66077
76 2 7.05506 8.53572 7.0204
78 2 6.10564 10.7338 5.27239
149 1 3.36129 8.0393 0.62799
154 1 0.786134 12.1397 0.534558
156 1 2.87231 7.90787 5.91212
162 1 0.429349 12.2127 5.80382
194 1 5.03444 6.73427 4.65348
202 1 9.78441 6.6367 4.50153
214 1 6.35553 7.33102 2.39887
215 1 8.23302 7.88007 0.591293
216 1 7.98355 9.08891 2.99293
217 1 2.97791 9.04711 2.97596
218 1 3.70452 11.4587 2.25853
219 1 2.65762 11.1884 4.56282
221 1 6.41319 9.59788 0.955059
222 1 5.68212 12.0561 0.678827
223 1 6.15549 7.33221 7.54166
224 1 8.02929 7.90493 5.96047
55 2 4.7666 12.7171 1.85134
39 2 3.84492 6.62294 0.0318192
20 2 8.57412 10.4494 3.5207
243 1 5.44137 12.0567 11.3062
75 2 5.93136 10.7942 15.9274
45 2 3.51422 6.619 10.4597
54 2 1.11756 10.8105 10.6874
72 2 8.44096 6.60463 10.592
77 2 3.52081 10.4915 8.84798
79 2 6.84843 8.47086 12.4067
80 2 3.51081 10.5371 14.103
81 2 6.02517 10.7156 10.6248
164 1 3.01448 7.88583 11.1816
171 1 0.357868 12.0328 11.357
195 1 9.87738 6.66489 15.3071
201 1 4.96569 6.94548 9.79664
210 1 5.04527 6.64854 15.5462
211 1 9.86794 7.12594 9.99225
220 1 7.46138 11.0706 15.3926
225 1 7.85775 9.25832 8.22895
66 2 8.36737 6.47114 15.8903
228 1 2.58327 10.981 10.1325
233 1 5.94768 7.43971 13.1957
234 1 7.77225 7.87772 11.2478
235 1 7.71944 9.24561 13.5325
236 1 3.03237 9.17834 13.4414
237 1 4.90765 10.4207 14.744
238 1 3.50316 11.675 13.0146
239 1 2.51014 10.9073 15.3349
240 1 7.50872 10.8398 10.1259
241 1 5.05592 10.452 9.39175
242 1 5.97608 9.58246 11.6525
226 1 3.07496 9.12507 8.16538
48 2 1.01261 10.6997 15.9185
68 2 6.04748 6.36224 8.81355
ITEM: TIMESTEP
300
ITEM: NUMBER OF ATOMS
243
ITEM: BOX BOUNDS xy xz yz pp pp pp
-7.6648620000000003e+00 1.4691300000000000e+01 -7.3456000000000001e+00
0.0000000000000000e+00 1.2723000000000001e+01 -3.1926199999999999e-01
0.0000000000000000e+00 1.5963100000000001e+01 0.0000000000000000e+00
ITEM: ATOMS id type x y z
120 1 6.34421 1.17543 1.14704
134 1 3.85216 5.54503 1.11971
140 1 3.62004 5.58679 6.496
6 2 1.29019 2.48041 5.26744
10 2 -0.254273 4.18415 1.73164
13 2 -0.432903 4.35973 6.97875
139 1 2.62734 6.15953 4.12617
29 2 3.63011 2.08319 3.46272
135 1 3.76407 3.1384 7.56404
37 2 4.69863 4.33983 1.68568
38 2 1.14929 6.19416 3.45912
4 2 2.12454 0.12197 7.14517
82 1 1.37412 1.09366 0.907491
83 1 0.295379 2.12044 4.0981
84 1 1.27987 1.34259 6.43879
88 1 -1.18025 3.04421 2.26116
89 1 0.727564 3.55075 0.585693
90 1 -1.12046 5.39108 1.06248
91 1 -1.22226 3.16935 7.73926
92 1 0.581257 3.80096 5.89113
93 1 -2.41029 6.16594 4.0986
94 1 -1.315 5.49854 6.33921
118 1 2.96218 0.804712 2.84828
119 1 2.69316 2.62329 4.67164
40 2 4.57279 4.36972 6.9529
123 1 5.00906 1.79236 4.15441
124 1 6.20833 1.35283 6.41284
130 1 3.72058 3.22465 2.26678
132 1 0.626767 4.82341 2.90562
31 2 6.96985 0.0975733 6.99668
2 2 -1.24713 2.04175 3.54733
7 2 2.17688 0.108685 12.2891
9 2 1.2065 2.435 10.5533
16 2 -0.387315 4.33853 12.361
32 2 3.68611 2.15077 8.83973
97 1 -2.27776 6.08217 14.6473
35 2 3.60501 1.97298 14.0929
5 2 -1.20987 2.00164 8.82943
43 2 4.50171 4.30011 12.3343
44 2 1.0904 6.23258 14.0767
85 1 0.139824 1.8444 14.5538
86 1 0.234534 1.92594 9.36978
87 1 1.47169 1.37128 11.6856
95 1 -1.34554 3.16726 12.9138
96 1 0.506337 3.72192 11.1339
3 2 1.10024 2.29366 15.7994
98 1 -2.44946 6.20888 9.56881
99 1 -1.21262 5.60884 11.7901
121 1 2.92461 0.867684 8.28772
122 1 2.60724 2.77446 9.85567
125 1 3.10623 0.605003 13.4805
126 1 5.10752 1.8094 14.7401
127 1 2.61567 2.53596 15.2583
128 1 5.04671 1.91782 9.56985
129 1 6.23223 1.32336 11.7258
137 1 0.558363 5.03027 8.11374
141 1 3.64456 3.0144 12.8826
143 1 0.609909 4.82665 13.5083
34 2 6.92939 0.0500345 12.4108
146 1 2.55606 6.32781 9.32787
147 1 3.61846 5.4235 11.6229
8 2 -1.37631 2.12759 14.172
144 1 2.53409 6.04557 14.6887
17 2 -3.7707 6.23269 14.0692
14 2 -3.7984 6.35209 8.84664
28 2 -0.204214 12.6619 1.82952
15 2 -1.33084 6.62112 5.23189
19 2 -2.7197 8.42245 1.70052
161 1 1.30113 9.80459 6.35928
22 2 -2.81142 8.5838 7.0698
24 2 -3.70751 10.8812 5.23374
46 2 2.06107 8.44639 1.61249
47 2 -1.34305 10.4476 3.48613
49 2 2.1031 8.59673 7.05241
100 1 -3.79223 7.30872 2.20301
101 1 -1.69602 7.81784 0.640091
102 1 -6.15771 11.5725 2.27561
103 1 -3.60501 9.58996 1.05332
104 1 -4.18217 11.9816 0.601962
105 1 -3.76503 7.42089 7.65533
106 1 -1.87803 8.01594 5.92381
107 1 -6.06336 11.6507 7.75339
108 1 -4.69063 10.5703 4.01118
109 1 -3.65291 9.75006 6.34885
110 1 -4.35975 12.184 5.91075
133 1 0.118201 6.73778 4.60691
148 1 1.29803 7.22901 2.29811
150 1 -1.87798 9.07423 2.92445
151 1 -1.15793 11.446 2.29061
152 1 -2.32636 11.1363 4.5612
153 1 1.23237 9.60259 0.908086
155 1 1.0836 7.49777 7.62602
158 1 -1.30014 11.6037 7.48325
160 1 0.125142 10.2821 4.12088
1 2 -5.1339 12.686 1.65093
18 2 -1.36431 6.67285 10.6113
25 2 -2.85504 8.58042 12.3719
27 2 -3.74135 10.826 10.5628
50 2 -1.30734 10.5684 8.70108
52 2 2.00015 8.5118 12.3063
53 2 -1.48729 10.5119 14.1437
111 1 -3.70586 7.3783 12.9596
112 1 -1.90587 8.01922 11.2283
113 1 -4.87933 10.2951 14.68
114 1 -6.09932 11.767 12.9982
115 1 -4.75769 10.2676 9.47408
116 1 -3.75883 9.76386 11.7119
117 1 -4.31756 12.2337 11.1267
138 1 0.0831934 6.8078 9.93758
145 1 0.131712 6.67305 15.3007
157 1 -1.83667 9.15885 8.2146
159 1 -2.33118 11.0525 9.89272
163 1 1.18785 7.34662 12.9726
165 1 -1.95303 9.06569 13.6171
166 1 0.02148 10.51 14.6254
167 1 -1.43102 11.7666 13.1067
168 1 -2.40493 10.9399 15.3143
169 1 0.177093 10.376 9.34384
170 1 1.04726 9.58284 11.6735
21 2 -3.90178 10.6973 15.8494
41 2 1.05333 6.3703 8.73488
23 2 -6.19454 10.5428 8.88218
26 2 -6.30114 10.6527 14.0951
12 2 -1.37683 6.56933 15.8214
196 1 8.64838 5.38416 0.997577
204 1 8.7784 5.46742 6.48163
11 2 10.788 6.33146 3.44953
33 2 6.04574 2.40817 5.18445
203 1 7.38802 5.96686 4.39592
56 2 8.57666 2.03957 3.50637
197 1 8.60794 3.09341 7.5857
198 1 10.5635 3.77764 6.03031
60 2 11.0761 2.42293 5.35059
64 2 9.5827 4.23491 1.63228
65 2 6.0048 6.20154 3.58023
67 2 9.53821 4.26613 7.1321
131 1 5.71528 3.68753 0.606876
136 1 5.45172 3.7607 5.75644
172 1 12.9172 0.641559 3.01546
173 1 8.02789 0.615413 2.96089
174 1 7.46704 2.63282 4.45068
176 1 11.3109 1.24682 1.0727
180 1 12.4321 2.51912 4.67469
181 1 9.95242 1.88598 4.37616
182 1 11.1866 1.25876 6.49762
190 1 8.76848 2.98321 2.20503
191 1 10.6278 3.70806 0.604237
192 1 10.1867 4.91076 2.94016
193 1 5.5174 4.8384 2.94853
55 2 12.111 0.0453389 1.7967
58 2 11.9455 0.0678937 7.09117
30 2 6.02164 2.32786 15.9099
213 1 8.60452 5.49116 11.7319
212 1 7.49057 6.10009 9.30637
209 1 7.47244 6.08296 14.6962
36 2 6.13471 2.42186 10.6179
59 2 8.51106 2.02509 8.74476
208 1 5.36259 4.82877 13.59
62 2 8.42374 2.06211 14.156
63 2 10.9403 2.32715 10.6022
71 2 5.95742 6.24697 14.1736
70 2 9.42711 4.28211 12.2951
177 1 12.9921 0.581421 8.15428
142 1 5.6358 3.90871 11.1935
175 1 12.4178 2.53987 15.4239
207 1 10.4459 4.85216 13.3887
61 2 11.8506 0.0658343 12.4069
179 1 7.54677 2.6065 9.87042
183 1 12.6931 0.752754 13.5365
184 1 7.82467 0.680877 13.6061
185 1 9.91858 1.93275 14.7415
186 1 7.42059 2.59511 15.2766
187 1 12.412 2.42942 9.91314
188 1 9.93463 1.83097 9.46627
189 1 11.0798 1.26441 11.7686
199 1 10.3253 4.86163 8.39147
200 1 5.45618 4.92512 8.09993
205 1 8.60283 3.04092 12.9487
206 1 10.4529 3.67914 11.2545
178 1 7.89741 0.608184 8.22579
68 2 5.96441 6.21777 8.7761
57 2 10.9388 2.40619 15.9217
232 1 5.38528 12.0761 5.92086
227 1 3.60212 11.7102 7.79597
42 2 3.58467 6.67529 5.31147
231 1 6.10302 9.66512 6.34348
51 2 1.13827 10.8821 5.18794
230 1 5.08824 10.284 4.02438
69 2 8.48517 6.53608 5.3325
73 2 7.1329 8.46493 1.83046
74 2 3.5438 10.5535 3.45321
229 1 7.545 11.1322 4.66639
76 2 6.99329 8.61246 7.06144
78 2 6.04066 10.7883 5.22943
149 1 3.00098 7.91813 0.418825
154 1 0.837913 12.1452 0.704706
156 1 3.08706 8.03218 5.89742
162 1 0.605691 12.2489 5.82077
194 1 5.01033 6.78655 4.60622
202 1 9.87752 6.8905 4.63573
214 1 6.13176 7.30753 2.39067
215 1 8.09044 7.82896 0.626248
216 1 7.98715 9.08002 3.01477
217 1 2.85202 9.27787 2.77236
218 1 3.68009 11.6911 2.3255
219 1 2.64301 11.1016 4.63565
221 1 6.29757 9.57901 0.959399
222 1 5.77645 12.0538 0.718844
223 1 6.12062 7.45088 7.71568
224 1 7.86529 7.82388 5.97486
20 2 8.4727 10.5396 3.49069
243 1 5.41008 12.1076 11.299
48 2 0.999517 10.8491 15.8376
45 2 3.5648 6.55745 10.5284
54 2 1.10542 10.8098 10.6243
72 2 8.36827 6.60273 10.5723
77 2 3.58339 10.5362 8.88739
79 2 6.77181 8.60339 12.3921
80 2 3.49977 10.5842 14.1306
81 2 6.00763 10.8428 10.5926
164 1 3.03046 7.94329 11.1888
171 1 0.565144 12.0722 11.3897
195 1 9.87697 6.58646 15.2522
201 1 5.07376 6.72427 10.0205
210 1 4.98767 6.76979 15.293
211 1 9.81315 6.87595 9.9385
220 1 7.40787 11.0865 15.2813
225 1 7.92649 9.23374 8.20568
66 2 8.37117 6.52332 15.897
228 1 2.61961 10.9486 10.0912
233 1 5.9199 7.46058 13.0899
234 1 7.69982 7.88107 11.2589
235 1 7.79215 9.30673 13.429
236 1 2.85904 9.24933 13.4305
237 1 4.94598 10.484 14.7444
238 1 3.50005 11.6875 12.9686
239 1 2.47453 11.056 15.3349
240 1 7.50138 10.8734 10.049