ITEM: TIMESTEP
0
ITEM: NUMBER OF ATOMS
243
ITEM: BOX BOUNDS xy xz yz pp pp pp
-7.3456000000000001e+00 1.4691300000000000e+01 -7.3456000000000001e+00
0.0000000000000000e+00 1.2723000000000001e+01 0.0000000000000000e+00
0.0000000000000000e+00 1.6282361999999999e+01 0.0000000000000000e+00
ITEM: ATOMS id type x y z
120 1 6.38531 1.11491 0.722201
134 1 3.74659 5.27006 0.943221
140 1 3.89093 5.62865 6.61221
6 2 1.28234 2.35737 5.43327
10 2 -0.0902292 4.13547 1.71115
13 2 -0.177871 4.34849 7.12894
139 1 2.59105 6.09914 4.38369
29 2 3.6984 1.99194 3.63005
135 1 3.89657 3.19783 7.75167
37 2 4.63396 4.16994 1.80066
38 2 1.20084 6.12335 3.59234
4 2 2.18353 0.0743291 7.2651
82 1 1.31132 1.16812 1.158
83 1 0.345348 1.72461 4.27708
84 1 1.29863 1.31401 6.77733
88 1 -1.04459 3.01258 2.35749
89 1 0.738937 3.54249 0.498165
90 1 -1.01203 5.36001 1.24477
91 1 -1.04666 3.23935 7.82385
92 1 0.560655 3.71792 5.85134
28 2 7.16074 0.108259 1.73738
94 1 -1.06954 5.57048 6.64903
118 1 3.09441 0.611013 2.98982
119 1 2.7781 2.55559 4.90401
40 2 4.76201 4.40175 7.17642
123 1 5.24403 1.82786 4.09269
124 1 6.34247 1.3335 6.42253
130 1 3.62321 3.13253 2.43867
132 1 0.890272 4.75419 2.81561
93 1 -2.28689 5.84816 4.3096
2 2 -1.13271 1.96952 3.564
7 2 2.22618 0.11442 12.5068
9 2 1.30057 2.36166 10.7431
16 2 -0.0596717 4.38716 12.6301
32 2 3.8484 2.08313 8.94422
97 1 -2.20462 5.99329 15.2411
35 2 3.80173 2.04425 14.2624
41 2 1.35381 6.29231 8.94465
43 2 4.76895 4.33245 12.6223
44 2 1.21447 6.32788 14.5738
85 1 0.315378 1.78532 15.044
86 1 0.262939 1.86151 9.59821
87 1 1.34433 1.31696 11.9537
95 1 -0.881665 3.15747 13.3012
96 1 0.773716 3.76961 11.3817
3 2 1.3268 2.19699 16.1962
98 1 -2.08933 6.17803 9.74816
99 1 -0.967309 5.60395 12.1266
121 1 3.30342 0.703073 8.19343
122 1 2.73169 2.48721 10.1095
125 1 3.24438 0.702374 13.5929
126 1 5.27379 2.10172 14.8641
127 1 2.79788 2.38195 15.5561
128 1 5.28012 1.87675 9.69785
129 1 6.34727 1.36039 12.0904
137 1 0.844719 4.93739 8.20269
141 1 3.70832 3.2644 13.2107
143 1 0.864044 4.9901 13.7787
144 1 2.7044 6.20444 15.1106
146 1 2.87821 6.1492 9.43222
147 1 3.84903 5.48498 12.0795
8 2 -1.14236 2.04678 14.4449
5 2 -1.18441 2.05731 8.93592
34 2 7.23604 0.161607 12.62
12 2 -1.1563 6.49609 0.0929106
15 2 -1.22808 6.54183 5.36251
19 2 -2.60451 8.51698 1.85827
161 1 1.32939 9.70392 6.44334
22 2 -2.55998 8.5873 7.04464
24 2 -3.7001 10.8999 5.32382
46 2 2.17262 8.38573 1.90701
47 2 -1.25557 10.7045 3.56803
49 2 2.27598 8.60697 7.14964
100 1 -3.41334 7.25753 2.36282
101 1 -1.59996 7.80565 0.813701
102 1 -6.26651 11.5832 2.39593
103 1 -3.46729 9.5298 0.956576
104 1 -4.31398 12.0453 0.618399
105 1 -3.40608 7.53938 7.94607
106 1 -1.67235 7.97227 5.86569
107 1 -5.8526 11.5099 7.90123
108 1 -4.66523 10.3476 4.18468
109 1 -3.48302 9.82118 6.53573
110 1 -4.41438 12.2235 5.90064
133 1 0.219439 6.63255 4.71232
148 1 1.25394 7.1799 2.42887
150 1 -1.78961 9.30182 3.05843
151 1 -1.23244 11.749 2.30668
152 1 -2.21796 11.2012 4.78004
153 1 1.46334 9.54512 1.03715
155 1 1.40227 7.45488 7.8586
158 1 -0.960692 11.7904 7.89186
160 1 0.292218 10.4615 4.0496
1 2 -5.18473 12.6847 1.85902
18 2 -1.06288 6.59118 10.8677
25 2 -2.45273 8.66462 12.626
27 2 -3.57338 10.842 10.7631
50 2 -1.02256 10.5911 8.96305
52 2 2.17763 8.50136 12.6789
53 2 -1.10237 10.625 14.4699
111 1 -3.35921 7.43592 13.2516
112 1 -1.47629 8.05557 11.3904
113 1 -4.67661 10.2467 14.9427
114 1 -6.08502 11.7248 13.2691
115 1 -4.61857 10.137 9.6942
116 1 -3.37253 9.85134 12.0567
117 1 -4.2886 12.3139 11.2068
138 1 0.382782 6.6975 10.1516
145 1 0.310167 6.72726 15.7682
157 1 -1.65628 9.34606 8.16074
159 1 -2.15403 11.1831 10.0024
163 1 1.22355 7.45919 13.4279
165 1 -1.60795 9.14614 13.9383
166 1 0.39433 10.4765 15.0067
167 1 -0.938217 11.6575 13.2016
168 1 -2.29132 11.1167 15.484
169 1 0.400658 10.3691 9.64911
170 1 1.37983 9.76816 11.9951
21 2 -3.69085 10.7348 16.1885
14 2 -3.53553 6.44037 9.06113
23 2 -5.97348 10.4093 8.99795
17 2 -3.54801 6.36746 14.4135
196 1 8.69122 5.5052 1.17732
204 1 8.75296 5.54375 6.58347
11 2 10.9963 6.17483 3.58076
33 2 6.16213 2.42363 5.27381
203 1 7.55664 6.00384 4.26961
56 2 8.62433 2.14294 3.53
197 1 8.81986 3.32892 8.02549
198 1 10.3309 3.75701 5.95346
60 2 10.9964 2.46629 5.2784
64 2 9.61327 4.27142 1.71164
65 2 6.12918 6.17646 3.53728
67 2 9.72069 4.45005 7.30157
131 1 5.69567 3.56792 0.783811
136 1 5.61128 3.76669 5.98176
172 1 13.1237 0.547395 2.88611
173 1 7.92976 0.764405 2.96569
174 1 7.71015 2.6805 4.75316
176 1 11.251 1.30318 1.30737
180 1 12.5514 2.55207 4.60971
181 1 10.0691 1.75778 4.1319
182 1 11.1845 1.39086 6.44021
190 1 8.69425 3.04474 2.21422
191 1 10.5953 3.7512 0.588324
192 1 10.3863 4.82596 3.04442
193 1 5.51389 4.82852 2.92402
58 2 11.9721 0.115766 7.07663
57 2 11.1405 2.31118 0.117474
31 2 7.24824 0.201481 7.12957
178 1 8.25798 0.834745 8.1378
30 2 6.23685 2.42741 16.0698
213 1 8.79321 5.48763 12.0698
212 1 7.57283 6.08213 9.76264
209 1 7.70153 6.06572 14.9463
36 2 6.27244 2.3651 10.8652
59 2 8.72497 2.04566 9.03229
208 1 5.635 4.92693 13.8321
62 2 8.76797 2.11692 14.477
63 2 11.1297 2.29036 10.8341
71 2 6.18976 6.34072 14.4154
70 2 9.78637 4.35291 12.5585
177 1 12.8484 0.712672 8.29633
142 1 5.66399 3.6981 11.4462
175 1 12.5583 2.46298 15.6648
207 1 10.7114 4.92233 13.7475
68 2 6.17457 6.30238 9.09444
179 1 7.71369 2.36741 10.1862
183 1 12.9265 0.731282 13.7802
184 1 8.22246 0.723167 13.805
185 1 10.0257 1.7666 15.3748
186 1 7.70634 2.69779 15.5017
187 1 12.5746 2.40927 10.208
188 1 10.2453 1.80517 9.53591
189 1 11.1329 1.18506 12.0582
199 1 10.6641 5.1462 8.26672
200 1 5.6376 4.91349 8.44279
205 1 8.96436 3.14803 13.3082
206 1 10.6684 3.6982 11.4132
232 1 5.56616 12.1461 5.96225
227 1 3.69187 11.6589 7.68048
42 2 3.67768 6.61337 5.42968
231 1 6.31456 9.77557 6.71976
51 2 1.20592 10.8273 5.28698
230 1 5.10028 10.1536 4.30031
69 2 8.63478 6.61158 5.34315
73 2 7.14199 8.49562 1.6792
74 2 3.74472 10.4232 3.56204
229 1 7.51337 10.8134 4.69528
76 2 7.20635 8.51384 7.17201
78 2 6.08198 10.7408 5.40336
149 1 3.32133 7.71123 0.974146
154 1 0.894881 12.0182 0.873018
156 1 3.23593 8.02465 5.95889
162 1 0.642498 12.1905 5.92347
194 1 5.06051 6.71377 4.61425
202 1 10.1184 6.81969 4.73142
214 1 6.29549 7.34107 2.39509
215 1 7.92593 7.78594 0.472419
216 1 8.1031 9.0136 2.8935
217 1 3.01693 9.07015 3.08994
218 1 3.93751 11.4818 2.33791
219 1 2.67394 11.0852 4.64061
221 1 6.20364 9.64775 1.11995
222 1 5.55372 12.0935 0.444993
223 1 6.31868 7.33198 7.83152
224 1 8.06389 8.00005 5.91024
20 2 8.51849 10.4358 3.57048
39 2 3.69761 6.53368 0.0217282
55 2 4.7704 12.7115 1.69943
243 1 5.70493 12.1518 11.5357
48 2 1.41975 10.7932 16.2582
45 2 3.71616 6.59289 10.7713
54 2 1.32467 10.9644 10.8199
72 2 8.69786 6.54532 10.803
77 2 3.70628 10.6351 8.88399
79 2 7.06376 8.49552 12.512
80 2 3.81372 10.3285 14.3693
81 2 6.19974 10.787 10.802
164 1 2.91584 7.87864 11.3726
171 1 0.801757 12.3478 11.417
195 1 10.0918 6.74307 15.5461
201 1 5.13583 6.9273 10.1819
210 1 5.1287 6.64497 15.6111
211 1 10.1322 6.80018 10.2236
220 1 7.66356 10.7789 15.683
225 1 8.20003 9.0543 8.26016
26 2 8.5954 10.514 14.3247
228 1 2.79915 10.9838 10.1364
233 1 6.25387 7.30027 13.1624
234 1 8.15483 7.89331 11.4911
235 1 7.90897 9.22067 13.6929
236 1 3.26008 9.05743 13.6821
237 1 5.24425 10.1135 14.986
238 1 3.86564 11.5504 13.3642
239 1 2.92242 10.8346 15.6343
240 1 7.60956 10.8248 10.1171
241 1 5.15924 10.5528 9.57521
242 1 6.08936 9.54454 11.8419
226 1 3.15748 9.22698 8.35136
66 2 8.58862 6.5157 16.1891
75 2 6.15981 10.6529 16.178
61 2 4.70061 12.6934 12.6624
ITEM: TIMESTEP
100
ITEM: NUMBER OF ATOMS
243
ITEM: BOX BOUNDS xy xz yz pp pp pp
-7.3456000000000001e+00 1.4691300000000000e+01 -7.3456000000000001e+00
0.0000000000000000e+00 1.2723000000000001e+01 0.0000000000000000e+00
0.0000000000000000e+00 1.6282361999999999e+01 0.0000000000000000e+00
ITEM: ATOMS id type x y z
120 1 6.47814 1.12538 0.830714
134 1 3.95205 5.37757 1.16069
140 1 3.72372 5.48797 6.57395
6 2 1.17683 2.35569 5.38378
10 2 -0.0405755 4.11681 1.72925
13 2 -0.251055 4.34908 7.20413
139 1 2.70542 6.06205 4.23058
29 2 3.70383 1.99298 3.60695
135 1 3.82048 3.13953 7.86734
37 2 4.77738 4.1868 1.89962
38 2 1.26645 6.17419 3.55046
4 2 2.18663 0.159362 7.23048
82 1 1.36832 1.18855 1.22108
83 1 0.233542 1.70289 4.29809
84 1 1.28911 1.31292 6.60895
88 1 -0.858605 2.96258 2.42337
89 1 0.800781 3.53385 0.477259
90 1 -0.97224 5.3231 1.15475
91 1 -1.1324 3.21482 7.92473
92 1 0.672589 3.72198 6.03646
28 2 7.20551 0.0468056 1.70124
94 1 -1.21921 5.50569 6.5886
118 1 3.19236 0.648286 2.93475
119 1 2.68479 2.3802 4.72666
40 2 4.62936 4.33281 7.08911
123 1 5.18237 1.9527 4.15592
124 1 6.36286 1.30819 6.40115
130 1 3.76018 3.06848 2.44705
132 1 0.798163 4.86644 2.8373
93 1 -2.18459 5.85919 4.24161
7 2 2.24324 0.147009 12.5467
9 2 1.2796 2.36134 10.7672
16 2 -0.10626 4.34736 12.6837
32 2 3.77856 2.06839 9.0107
97 1 -2.1158 6.16302 15.2723
35 2 3.83004 2.0763 14.2791
41 2 1.32851 6.31025 8.93492
43 2 4.75831 4.27768 12.4857
17 2 -3.52349 6.3247 14.5241
85 1 0.375046 1.55295 15.1627
86 1 0.234822 1.81822 9.64198
87 1 1.4009 1.33299 11.9934
95 1 -1.01355 3.27376 13.4445
96 1 0.755035 3.7041 11.4247
3 2 1.39369 2.1314 16.2358
98 1 -2.11651 6.28261 9.73631
99 1 -1.01536 5.497 12.0934
121 1 3.31031 0.73604 8.24022
122 1 2.67106 2.49965 10.0521
125 1 3.28079 0.775627 13.5671
126 1 5.29281 2.0066 15.0077
127 1 2.76092 2.41473 15.4688
128 1 5.22419 1.91312 9.71145
129 1 6.38475 1.39118 12.1081
137 1 0.753896 4.98209 8.25162
141 1 3.79437 3.15522 13.103
143 1 0.836517 5.03007 13.7986
144 1 2.78197 6.31504 15.1715
146 1 2.84387 6.08671 9.44026
147 1 3.86773 5.46133 11.6818
8 2 -1.06884 2.03703 14.4921
14 2 -3.57713 6.33984 9.01557
12 2 -1.07646 6.59341 0.147316
15 2 -1.2569 6.55209 5.37245
19 2 -2.78052 8.61226 1.73358
161 1 1.37011 9.80803 6.54062
22 2 -2.56633 8.64102 7.11644
24 2 -3.5717 10.9589 5.3735
46 2 2.33427 8.41657 1.89432
47 2 -1.25347 10.7075 3.53376
49 2 2.22054 8.62868 7.22411
100 1 -3.45691 7.3471 2.4171
101 1 -1.68734 7.92483 0.771327
102 1 -6.14455 11.614 2.49704
103 1 -3.74922 9.48027 0.832584
104 1 -4.31285 11.938 0.644163
105 1 -3.50417 7.52249 7.83561
106 1 -1.80638 7.9711 5.90074
107 1 -5.99132 11.7783 8.07428
108 1 -4.49687 10.3262 4.20705
109 1 -3.38066 9.91689 6.60302
110 1 -4.34687 12.2551 5.93273
133 1 0.138251 6.76094 4.59859
148 1 1.44638 7.21178 2.38556
150 1 -2.01637 9.45159 2.85028
151 1 -1.09531 11.7804 2.4104
152 1 -2.20325 11.3162 4.6839
153 1 1.39266 9.47133 1.16361
155 1 1.2611 7.4947 7.80312
158 1 -0.932585 11.7411 7.90377
160 1 0.152696 10.4376 4.31008
1 2 -5.12897 12.6832 1.83405
20 2 -5.99105 10.4744 3.65905
18 2 -1.00067 6.60012 10.9041
25 2 -2.47537 8.62952 12.7579
27 2 -3.60996 10.7294 10.7406
50 2 -1.1084 10.5936 8.99496
52 2 2.17606 8.59258 12.6998
53 2 -1.11011 10.6238 14.5207
111 1 -3.34104 7.55665 13.5128
112 1 -1.50477 7.97944 11.667
113 1 -4.5823 10.4254 14.7592
114 1 -6.01295 11.6888 13.1398
115 1 -4.57691 10.1849 9.59972
116 1 -3.34576 9.76428 12.0573
117 1 -4.25647 12.1103 11.2583
138 1 0.42148 6.64854 10.1686
145 1 0.299698 6.74523 15.6741
157 1 -1.56947 9.2724 8.27937
159 1 -2.17416 11.0887 10.124
163 1 1.21654 7.40643 13.2793
165 1 -1.5475 9.29066 13.8297
166 1 0.246893 10.3508 15.2853
167 1 -0.853179 11.6835 13.3979
168 1 -2.17441 11.0202 15.6687
169 1 0.220832 10.254 9.83466
170 1 1.41804 9.88616 12.071
21 2 -3.6957 10.6971 16.0869
44 2 1.29385 6.36546 14.5347
23 2 -6.02378 10.5123 8.98842
196 1 8.74108 5.42853 0.980807
204 1 8.69405 5.6194 6.54687
11 2 11.1028 6.19201 3.53087
33 2 6.19542 2.39772 5.24725
203 1 7.58321 5.98326 4.22583
56 2 8.65553 2.01888 3.48232
197 1 8.58315 3.21722 7.9657
198 1 10.4498 3.69472 6.14696
60 2 11.0326 2.39742 5.35809
64 2 9.60087 4.19846 1.6996
65 2 6.15666 6.26876 3.63917
67 2 9.53703 4.43626 7.24294
131 1 5.64438 3.57207 0.715144
136 1 5.56932 3.65483 5.98612
172 1 13.0686 0.526793 2.95077
173 1 8.03131 0.686172 2.89705
174 1 7.6654 2.57685 4.59223
176 1 11.2836 1.10207 1.25036
180 1 12.4574 2.50478 4.66107
181 1 10.1058 1.94616 4.1392
182 1 11.1412 1.28557 6.46915
190 1 8.70296 3.01026 2.20514
191 1 10.5187 3.58738 0.576399
192 1 10.4327 4.85813 2.88036
193 1 5.63307 4.92143 2.992
58 2 12.0302 0.12931 7.09673
57 2 11.2109 2.24111 0.123533
31 2 7.29107 0.149936 7.05582
2 2 13.5202 1.92897 3.59783
30 2 6.26897 2.35328 16.1898
213 1 8.87366 5.36624 11.8257
212 1 7.61783 6.11925 9.75338
209 1 7.62881 5.93944 15.0425
36 2 6.34309 2.38538 10.8302
59 2 8.67585 2.01543 9.04654
208 1 5.52568 4.91188 13.7572
62 2 8.77064 2.01661 14.5467
63 2 11.1048 2.31034 10.7287
71 2 6.19271 6.20232 14.3716
70 2 9.76408 4.27879 12.6109
177 1 13.0063 0.729375 8.22271
142 1 5.82546 3.8085 11.4016
175 1 12.6255 2.44389 15.643
207 1 10.675 5.05505 13.648
68 2 6.23394 6.32855 9.00757
179 1 7.79912 2.48106 10.238
183 1 12.9485 0.764756 13.8438
184 1 8.15826 0.707045 13.8571
185 1 10.2108 1.74685 15.2024
186 1 7.75508 2.65493 15.614
187 1 12.5898 2.42717 10.2048
188 1 10.1725 1.83728 9.53555
189 1 11.1284 1.14683 11.9531
199 1 10.4852 5.11239 8.34013
200 1 5.70965 4.9891 8.22756
205 1 9.03682 3.02886 13.3339
206 1 10.646 3.6824 11.4319
61 2 12.1014 0.0611473 12.7258
34 2 7.25921 0.165389 12.5844
178 1 8.14528 0.793291 8.2176
5 2 13.4883 2.04176 8.96512
232 1 5.55656 12.0743 6.02706
227 1 3.72886 11.7746 7.76022
42 2 3.64558 6.58122 5.36607
231 1 6.09733 9.6669 6.56832
51 2 1.26193 10.8156 5.3405
230 1 5.15216 10.2515 4.23139
69 2 8.59933 6.59508 5.29248
73 2 7.10151 8.51137 1.7005
74 2 3.69485 10.5051 3.6472
229 1 7.63781 10.8433 4.80745
76 2 7.16247 8.54755 7.09074
78 2 6.15899 10.7747 5.38509
149 1 3.37785 7.86307 0.854257
154 1 0.906822 11.9455 0.885262
156 1 3.02536 7.90966 6.09881
162 1 0.867259 12.2566 5.93658
194 1 5.1835 6.82548 4.76594
202 1 10.0502 6.744 4.59973
214 1 6.24254 7.39954 2.4304
215 1 7.97333 7.80275 0.611361
216 1 8.16645 9.14433 2.8405
217 1 3.07319 9.14792 3.12975
218 1 3.88882 11.5183 2.43107
219 1 2.78133 11.0695 4.78214
221 1 6.14102 9.64936 1.13282
222 1 5.64204 12.0269 0.595786
223 1 6.32228 7.41554 7.78712
224 1 8.04827 7.96014 5.84755
48 2 1.35229 10.6613 0.114139
39 2 3.89547 6.56303 0.0611253
55 2 4.86978 12.6579 1.79098
225 1 8.07977 9.31172 8.07472
243 1 5.82104 12.1901 11.6088
75 2 6.19851 10.6833 16.1871
45 2 3.736 6.6492 10.6588
54 2 1.27088 10.9105 10.8037
72 2 8.67477 6.59238 10.8849
77 2 3.75136 10.6544 8.90345
79 2 7.08541 8.54082 12.5345
80 2 3.79224 10.4519 14.4311
81 2 6.21248 10.8027 10.7826
164 1 3.00247 7.8387 11.4629
171 1 0.759292 12.3725 11.3683
195 1 10.0212 6.71424 15.4842
201 1 5.1671 6.97645 10.0396
210 1 5.32437 6.73296 15.6237
211 1 10.1142 6.81919 10.1588
220 1 7.63382 10.9442 15.5762
66 2 8.60445 6.54983 16.1479
26 2 8.56399 10.5977 14.3054
228 1 2.6867 11.0952 10.0935
233 1 6.3539 7.26312 13.2299
234 1 8.06109 7.97797 11.4284
235 1 8.02578 9.2449 13.5951
236 1 3.14782 9.07429 13.8765
237 1 5.25736 10.2462 15.0254
238 1 3.94663 11.4662 13.2203
239 1 2.78503 10.7911 15.6134
240 1 7.77514 10.8102 10.2819
241 1 5.25019 10.5109 9.46124
242 1 6.08767 9.60029 11.8201
226 1 3.2252 9.23339 8.35965
ITEM: TIMESTEP
200
ITEM: NUMBER OF ATOMS
243
ITEM: BOX BOUNDS xy xz yz pp pp pp
-7.3456000000000001e+00 1.4691300000000000e+01 -7.3456000000000001e+00
0.0000000000000000e+00 1.2723000000000001e+01 0.0000000000000000e+00
0.0000000000000000e+00 1.6282361999999999e+01 0.0000000000000000e+00
ITEM: ATOMS id type x y z
120 1 6.46509 1.20223 1.06691
134 1 3.79987 5.38395 1.11506
140 1 3.66114 5.37738 6.52982
6 2 1.225 2.29631 5.43373
10 2 -0.18274 4.24768 1.67711
13 2 -0.280562 4.38192 7.17525
139 1 2.66294 5.98574 4.25779
29 2 3.68548 2.04739 3.55409
135 1 3.73466 3.26776 7.86491
37 2 4.75089 4.30298 1.78318
38 2 1.23454 6.1034 3.50909
4 2 2.22728 0.148408 7.32238
82 1 1.47343 1.1758 1.07527
83 1 0.208104 1.83346 4.27445
84 1 1.27673 1.26591 6.70715
88 1 -1.03708 3.11084 2.40618
89 1 0.768311 3.62144 0.573623
90 1 -1.12281 5.36727 1.06902
91 1 -1.08957 3.11624 7.77189
92 1 0.60799 3.70396 6.01725
28 2 7.23789 0.0197273 1.84246
94 1 -1.27944 5.37666 6.44863
118 1 3.32052 0.719683 2.82918
119 1 2.64506 2.40205 4.68551
40 2 4.68534 4.34254 7.14457
123 1 5.08693 1.81214 4.3153
124 1 6.37133 1.27386 6.50086
130 1 3.77319 3.22159 2.49804
132 1 0.721448 4.81306 2.81687
93 1 -2.20008 6.03294 4.00235
31 2 7.21944 0.0879811 7.19285
1 2 2.31849 0.0325596 1.81862
7 2 2.33796 0.16141 12.5207
9 2 1.31004 2.37712 10.8429
16 2 -0.156747 4.36365 12.6736
32 2 3.70574 2.10825 9.01017
97 1 -2.1196 6.14207 15.1207
35 2 3.88515 1.98256 14.2994
5 2 -1.1448 2.09509 8.98187
43 2 4.73301 4.31441 12.5098
34 2 7.1754 0.165577 12.6677
85 1 0.333542 1.69279 14.9793
86 1 0.375203 1.92487 9.61163
87 1 1.37805 1.29507 12.0065
95 1 -1.01266 3.21559 13.3913
96 1 0.747699 3.76521 11.5017
3 2 1.31569 2.26181 16.1441
98 1 -2.18141 6.04374 9.76478
99 1 -1.2076 5.41747 12.0518
121 1 3.26613 0.750421 8.39202
122 1 2.79917 2.53758 10.2416
125 1 3.45566 0.727699 13.4526
126 1 5.27913 2.04947 15.0447
127 1 2.80155 2.24166 15.4866
128 1 5.27921 1.90813 9.52135
129 1 6.18641 1.20058 11.9499
137 1 0.532468 5.1031 8.37042
141 1 3.84192 3.13423 13.2351
143 1 0.870047 5.17256 13.675
144 1 2.80572 6.24163 15.1713
146 1 2.689 6.14911 9.513
147 1 3.85981 5.44039 11.7571
8 2 -1.13277 2.00997 14.4398
14 2 -3.57597 6.34264 8.98932
12 2 -1.0733 6.56268 0.02219
15 2 -1.34522 6.44641 5.2823
19 2 -2.66606 8.54236 1.77204
161 1 1.43572 9.81177 6.59898
22 2 -2.56902 8.59393 7.1476
24 2 -3.74289 10.8207 5.4957
46 2 2.32454 8.39477 1.81291
47 2 -1.28652 10.6573 3.66295
49 2 2.19701 8.57954 7.24282
100 1 -3.62624 7.41137 2.39545
101 1 -1.6442 7.83816 0.762424
102 1 -5.83796 11.689 2.65969
103 1 -3.71569 9.48528 0.981183
104 1 -4.22498 11.9073 0.653738
105 1 -3.502 7.47528 7.8408
106 1 -1.80316 7.89394 5.87549
107 1 -5.96532 11.7451 8.07484
108 1 -4.6381 10.2628 4.30559
109 1 -3.5718 9.72818 6.639
110 1 -4.41738 12.1934 6.08295
133 1 0.129584 6.56661 4.58919
148 1 1.38489 7.19549 2.26618
150 1 -1.937 9.29507 2.98735
151 1 -1.09499 11.6952 2.47819
152 1 -2.2502 11.1498 4.85139
153 1 1.39979 9.49419 1.08733
155 1 1.11151 7.65645 7.98728
158 1 -1.1405 11.7806 7.82044
160 1 0.225732 10.3309 4.19266
18 2 -1.15105 6.5267 10.8768
25 2 -2.42066 8.6492 12.6594
27 2 -3.57039 10.8037 10.7879
50 2 -1.15802 10.6402 8.97952
17 2 -3.5506 6.41199 14.4441
53 2 -1.12705 10.566 14.5495
111 1 -3.36067 7.42391 13.2482
112 1 -1.69489 7.94941 11.4063
113 1 -4.6397 10.4175 14.8829
114 1 -5.92853 11.7797 13.2602
115 1 -4.6059 10.2448 9.6609
116 1 -3.36946 9.77519 11.9718
117 1 -4.30479 12.1753 11.2756
138 1 0.319067 6.72704 10.3457
145 1 0.346307 6.75305 15.5806
157 1 -1.66919 9.30128 8.25444
159 1 -2.15698 11.1156 10.1151
163 1 1.47103 7.63384 13.3982
165 1 -1.47431 9.19449 13.8522
166 1 0.330937 10.2944 15.2076
167 1 -0.994025 11.691 13.3943
168 1 -2.21353 10.9033 15.6634
169 1 0.251219 10.3715 9.67432
170 1 1.51731 9.89041 12.0125
21 2 -3.7253 10.6406 16.1505
44 2 1.43401 6.44681 14.4509
23 2 -6.03035 10.5354 9.09331
26 2 -6.08293 10.6281 14.3284
41 2 1.19633 6.41954 9.02042
196 1 8.68575 5.35822 1.02766
204 1 8.77611 5.52507 6.56836
11 2 10.9789 6.27905 3.47461
33 2 6.14986 2.38073 5.32267
203 1 7.59471 6.08215 4.16382
56 2 8.61799 2.11495 3.56628
197 1 8.85194 3.29445 7.90634
198 1 10.6148 3.75744 5.98889
60 2 11.1535 2.38433 5.36234
64 2 9.60079 4.18914 1.67059
65 2 6.14915 6.30637 3.64474
67 2 9.75721 4.39868 7.17442
131 1 5.74164 3.61467 0.682032
136 1 5.54699 3.64165 6.01837
172 1 13.0363 0.644825 2.94939
173 1 8.07962 0.765728 3.00383
174 1 7.58179 2.68521 4.70768
176 1 11.3084 1.24476 1.36246
180 1 12.5486 2.60452 4.70303
181 1 10.1014 2.00865 4.20796
182 1 11.1555 1.17981 6.47109
190 1 8.69067 3.1538 2.38805
191 1 10.5645 3.54976 0.519202
192 1 10.3987 4.93931 2.77761
193 1 5.48912 5.00478 3.02373
58 2 12.0714 0.00687324 7.08817
2 2 13.5011 2.05609 3.52458
57 2 11.2071 2.17319 0.0362399
30 2 6.35981 2.3048 16.1581
213 1 8.92328 5.59622 11.9783
212 1 7.56087 6.07571 9.68714
209 1 7.7161 6.02953 14.9412
36 2 6.20349 2.32511 10.8383
59 2 8.66917 2.1003 9.04714
208 1 5.62919 4.94775 13.6351
62 2 8.9153 2.07973 14.441
63 2 11.0658 2.25113 10.7936
71 2 6.2249 6.25868 14.3775
70 2 9.81156 4.38644 12.6349
177 1 12.9732 0.716167 8.24964
142 1 5.6799 3.75405 11.3967
175 1 12.6054 2.38508 15.6984
207 1 10.83 4.96533 13.7055
178 1 8.09841 0.80577 8.25602
179 1 7.71089 2.538 10.2381
183 1 12.8841 0.699648 13.6976
184 1 8.20504 0.84373 13.6956
185 1 10.287 1.63127 15.1524
186 1 7.74978 2.56247 15.5219
187 1 12.5481 2.42385 10.1505
188 1 10.0799 1.76889 9.62508
189 1 11.0824 1.14924 11.9344
199 1 10.5967 4.98028 8.36497
200 1 5.53135 5.04082 8.25189
205 1 8.94244 3.26605 13.3766
206 1 10.5021 3.61356 11.4444
61 2 12.0582 0.0558561 12.5386
68 2 6.14895 6.34774 8.93571
232 1 5.56992 12.1826 5.88973
227 1 3.88157 11.5197 7.65811
42 2 3.62846 6.49545 5.37875
231 1 6.18232 9.75395 6.57275
51 2 1.26072 10.8154 5.36252
230 1 5.2841 10.0631 4.18044
69 2 8.5978 6.52327 5.33193
73 2 7.16859 8.50143 1.6734
74 2 3.76645 10.3513 3.62517
229 1 7.63846 11.0304 4.72822
76 2 7.2633 8.64094 7.10773
78 2 6.16874 10.7754 5.36313
149 1 3.47821 7.93358 0.846798
154 1 0.837019 12.1274 0.610333
156 1 2.93669 7.80037 6.07308
162 1 0.601494 12.1538 5.96945
194 1 5.10309 6.83625 4.85175
202 1 10.0484 6.77446 4.7077
214 1 6.36372 7.38403 2.49088
215 1 8.00841 7.81206 0.486988
216 1 8.08545 9.16354 2.78851
217 1 3.0801 8.96832 3.12389
218 1 3.84139 11.4214 2.34005
219 1 2.76131 10.9633 4.77955
221 1 6.21053 9.59959 1.07174
222 1 5.59589 12.0566 0.592494
223 1 6.557 7.39045 7.81144
224 1 8.13319 7.9175 5.96175
48 2 1.39519 10.7099 0.0407957
39 2 3.87381 6.59241 0.0456678
55 2 4.74469 12.7033 1.85418
20 2 8.66451 10.4319 3.62724
243 1 5.59912 12.1388 11.3839
75 2 6.18074 10.718 16.2024
45 2 3.67001 6.6128 10.6721
54 2 1.30109 10.914 10.7644
72 2 8.59568 6.53626 10.7727
77 2 3.76309 10.5512 8.94872
79 2 7.21702 8.51645 12.5912
80 2 3.79386 10.5363 14.4129
81 2 6.18336 10.7594 10.8134
164 1 3.0675 7.89616 11.4456
171 1 0.66424 12.2201 11.4279
195 1 10.0847 6.74903 15.5842
201 1 5.1015 6.85157 10.0126
210 1 5.31796 6.6275 15.6418
211 1 9.98338 6.80755 10.0023
220 1 7.66412 10.8963 15.5723
66 2 8.64991 6.49638 16.2017
226 1 3.37 9.10733 8.26712
228 1 2.70586 11.0542 10.0275
233 1 6.25563 7.39287 13.2383
234 1 8.07457 7.90357 11.4134
235 1 8.2461 9.26504 13.5409
236 1 3.25937 9.23611 13.708
237 1 5.18734 10.2776 15.0987
238 1 3.76669 11.673 13.2756
239 1 2.84839 10.9097 15.6191
240 1 7.70141 10.8385 10.2576
241 1 5.20441 10.4447 9.62795
242 1 6.2711 9.69032 12.0125
225 1 8.08638 9.27647 8.30972
52 2 2.34353 8.68942 12.5363
ITEM: TIMESTEP
300
ITEM: NUMBER OF ATOMS
243
ITEM: BOX BOUNDS xy xz yz pp pp pp
-7.3456000000000001e+00 1.4691300000000000e+01 -7.3456000000000001e+00
0.0000000000000000e+00 1.2723000000000001e+01 0.0000000000000000e+00
0.0000000000000000e+00 1.6282361999999999e+01 0.0000000000000000e+00
ITEM: ATOMS id type x y z
120 1 6.28888 1.22501 1.04334
134 1 3.89454 5.51706 1.02563
140 1 3.75588 5.43166 6.49477
6 2 1.29754 2.41223 5.40924
10 2 -0.211598 4.24121 1.58702
13 2 -0.335757 4.37198 7.14444
139 1 2.62958 6.06747 4.20458
29 2 3.75526 2.10059 3.53838
135 1 3.8026 3.12678 7.80171
37 2 4.69019 4.37511 1.8178
38 2 1.22808 6.15438 3.52025
4 2 2.2649 0.0496882 7.26816
82 1 1.41373 1.13323 1.01887
83 1 0.266893 1.86981 4.24636
84 1 1.43392 1.27212 6.57415
88 1 -0.946592 2.94273 2.22246
89 1 0.853205 3.70403 0.469775
90 1 -1.16753 5.31505 0.938417
91 1 -1.09491 3.13866 7.75204
92 1 0.766304 3.72067 6.10046
28 2 7.23316 0.125735 1.80187
94 1 -1.16059 5.35686 6.2372
118 1 3.2634 0.721258 2.87573
119 1 2.70321 2.6236 4.63314
40 2 4.65572 4.33408 7.22174
123 1 5.14298 2.01103 4.25773
124 1 6.29141 1.24502 6.53276
130 1 3.85393 3.14693 2.36864
132 1 0.569756 4.88469 2.8378
93 1 -2.16708 6.2314 4.02802
31 2 7.20633 0.0422735 7.18949
1 2 2.35812 0.0387487 1.73493
11 2 -3.65566 6.3428 3.48741
7 2 2.35386 0.230659 12.6109
9 2 1.30331 2.34292 10.752
16 2 -0.0537154 4.46106 12.5712
32 2 3.77061 2.0077 8.9437
14 2 -3.58378 6.2767 8.95675
35 2 3.92161 2.10514 14.4368
5 2 -1.13647 2.05097 8.93621
43 2 4.77021 4.33549 12.5384
34 2 7.05862 0.0292713 12.5766
85 1 0.423662 1.81435 14.9567
86 1 0.334658 1.80997 9.57479
87 1 1.35397 1.3008 11.9323
95 1 -0.837304 3.30552 13.476
96 1 0.758581 3.76066 11.347
3 2 1.38043 2.31353 16.2393
98 1 -2.11764 6.10452 9.62875
99 1 -1.2823 5.51356 12.1147
121 1 3.33926 0.594674 8.31466
122 1 2.83985 2.48654 10.1426
125 1 3.35366 0.787873 13.6903
126 1 5.37101 1.92578 15.0668
127 1 2.89145 2.47971 15.6193
128 1 5.25594 1.91637 9.61707
129 1 6.10932 1.17158 11.9181
137 1 0.519909 5.0644 8.25233
141 1 3.98115 3.19035 13.3156
143 1 0.884549 5.15917 13.6349
41 2 1.15393 6.326 9.02721
146 1 2.61607 6.04741 9.64268
147 1 3.83468 5.50728 11.9164
8 2 -1.1032 2.06913 14.4698
144 1 2.81048 6.30465 15.0081
160 1 0.158837 10.307 4.28369
15 2 -1.23617 6.57538 5.23874
19 2 -2.6756 8.5464 1.75412
161 1 1.27361 9.61059 6.51599
22 2 -2.58079 8.53835 7.12011
24 2 -3.72722 10.759 5.43698
46 2 2.258 8.45496 1.7653
47 2 -1.25579 10.5632 3.55533
49 2 2.13753 8.52961 7.25881
100 1 -3.69491 7.42978 2.32074
101 1 -1.56127 7.87913 0.8561
102 1 -5.84827 11.669 2.51309
103 1 -3.41154 9.69481 1.02131
104 1 -4.16933 12.0578 0.509872
105 1 -3.39919 7.31225 7.74192
106 1 -1.73308 7.8959 5.89977
107 1 -6.01679 11.7911 8.04722
108 1 -4.72393 10.1925 4.31802
109 1 -3.57566 9.67405 6.53999
110 1 -4.32897 12.066 6.03922
133 1 0.282586 6.64161 4.66166
148 1 1.37064 7.20862 2.32748
150 1 -1.83173 9.24306 2.87197
151 1 -1.06679 11.6688 2.37954
152 1 -2.3372 10.9741 4.6447
153 1 1.40182 9.668 1.18312
155 1 1.15776 7.50004 7.99343
158 1 -1.07384 11.6215 7.75529
12 2 -1.07094 6.62417 0.00802123
18 2 -1.26557 6.58392 10.8655
25 2 -2.59165 8.65731 12.6008
27 2 -3.57771 10.8945 10.7412
50 2 -1.1275 10.4564 8.95083
17 2 -3.52477 6.39908 14.2947
53 2 -1.11939 10.4717 14.4591
111 1 -3.54791 7.51047 13.1756
112 1 -1.75969 8.03012 11.4126
113 1 -4.55324 10.2419 14.9728
114 1 -5.79313 11.7796 13.37
115 1 -4.60575 10.2386 9.67858
116 1 -3.38385 9.89238 11.9852
117 1 -4.19264 12.2504 11.3565
138 1 0.246471 6.69555 10.2799
145 1 0.383701 6.76705 15.6845
157 1 -1.68334 9.09184 8.29801
159 1 -2.09672 10.9902 10.0753
163 1 1.48904 7.65901 13.3387
165 1 -1.54732 9.09397 13.7406
166 1 0.365923 10.3623 15.0707
167 1 -1.059 11.6334 13.3709
168 1 -2.1072 10.8652 15.5954
169 1 0.302711 10.4011 9.54816
170 1 1.43265 9.79336 11.914
21 2 -3.57886 10.7351 16.1085
44 2 1.30922 6.47107 14.4458
23 2 -6.05306 10.6146 9.13687
26 2 -5.98678 10.5 14.3805
97 1 -2.09561 6.38398 15.072
196 1 8.83083 5.3955 0.900256
204 1 8.79338 5.53481 6.59394
57 2 11.1084 2.16097 0.0347088
33 2 6.17379 2.41653 5.45245
203 1 7.53694 6.0476 4.41171
56 2 8.60214 2.16495 3.61512
197 1 8.78281 3.27006 7.92662
198 1 10.6282 3.70833 6.02349
60 2 11.1508 2.33911 5.37105
64 2 9.62134 4.25022 1.72936
65 2 6.17985 6.29753 3.65023
67 2 9.72446 4.34341 7.15983
131 1 5.7115 3.80743 0.727203
136 1 5.56786 3.68754 6.10864
172 1 12.9896 0.519017 2.96853
173 1 8.03909 0.80934 2.97757
174 1 7.643 2.60682 4.81661
176 1 11.0359 1.02489 1.17352
180 1 12.5419 2.4564 4.6433
181 1 10.1104 1.92476 4.24242
182 1 11.1739 1.31175 6.54905
190 1 8.64863 3.21964 2.43314
191 1 10.5468 3.48691 0.628347
192 1 10.4985 4.9135 2.88473
193 1 5.5313 4.9596 3.06505
58 2 12.1126 0.114568 7.10471
2 2 13.5557 1.90639 3.44567
30 2 6.28283 2.42605 0.00590059
68 2 6.24598 6.2462 9.06023
213 1 8.93681 5.56552 12.0978
212 1 7.62716 5.86381 9.76506
209 1 7.62609 6.17717 14.923
36 2 6.20511 2.3387 10.8497
59 2 8.73747 2.0953 8.98392
208 1 5.77668 4.94577 13.6306
62 2 8.75966 1.96965 14.4739
63 2 11.1382 2.28495 10.7722
71 2 6.14032 6.34161 14.355
70 2 9.78213 4.30137 12.5741
177 1 13.1293 0.679027 8.22968
142 1 5.6949 3.75285 11.4145
175 1 12.5499 2.46378 15.6148
207 1 10.7714 5.00324 13.6702
178 1 8.1077 0.776014 8.29839
179 1 7.69761 2.4162 10.2207
183 1 13.0355 0.885681 13.6115
184 1 8.15214 0.745055 13.5317
185 1 10.2137 1.71018 15.135
186 1 7.77857 2.46757 15.6177
187 1 12.606 2.45531 10.1601
188 1 10.1163 1.71739 9.69791
189 1 11.1866 1.39054 12.0683
199 1 10.6349 4.84289 8.38703
200 1 5.55003 5.02999 8.31459
205 1 8.99321 3.2244 13.468
206 1 10.5316 3.68151 11.306
61 2 12.0202 0.144121 12.6159
232 1 5.70148 12.2562 5.94087
227 1 3.88053 11.6942 7.79272
42 2 3.65301 6.57762 5.36272
231 1 6.29744 9.75522 6.43514
51 2 1.21208 10.7372 5.39663
230 1 5.11272 10.2304 4.30118
69 2 8.56477 6.64406 5.41353
73 2 7.08012 8.51685 1.67955
74 2 3.72702 10.3464 3.51772
229 1 7.63331 10.9642 4.70981
76 2 7.2254 8.67327 7.21252
78 2 6.14922 10.8616 5.32594
149 1 3.19091 8.02988 0.502921
154 1 0.874273 12.1255 0.791175
156 1 2.91304 7.83241 6.01002
162 1 0.852513 12.0907 6.11338
194 1 5.09723 6.81324 4.72885
202 1 10.0158 6.71149 4.66534
214 1 6.25851 7.34438 2.43244
215 1 8.01677 7.82386 0.572389
216 1 7.97614 9.2868 2.77158
217 1 3.09508 8.9937 2.93578
218 1 3.797 11.4281 2.38307
219 1 2.63727 10.8419 4.60509
221 1 6.19489 9.69145 1.04762
222 1 5.57027 12.0961 0.616265
223 1 6.44544 7.37886 7.93711
224 1 8.01555 8.02159 6.03148
48 2 1.31896 10.7914 0.0145503
55 2 4.69153 12.6775 1.80739
20 2 8.58838 10.5189 3.56771
243 1 5.43014 12.2011 11.3769
75 2 6.25005 10.7937 16.2154
45 2 3.69924 6.49781 10.6738
54 2 1.31622 10.8755 10.7264
72 2 8.64562 6.55005 10.8206
77 2 3.79793 10.5416 8.96952
79 2 7.09373 8.59419 12.5717
80 2 3.82295 10.5451 14.4195
81 2 6.15502 10.9369 10.8315
164 1 3.16991 7.94165 11.2353
171 1 0.631122 12.1643 11.4142
195 1 10.1048 6.77658 15.4753
201 1 5.1528 6.72089 10.0518
210 1 5.20522 6.77331 15.617
211 1 10.0589 6.80159 10.0484
220 1 7.70061 10.9097 15.5644
66 2 8.66117 6.57083 16.0867
226 1 3.05784 9.26773 8.28684
228 1 2.79758 11.0847 10.0561
233 1 6.16047 7.51279 13.3085
234 1 7.96261 7.8912 11.3661
235 1 8.11287 9.20886 13.6355
236 1 3.48572 9.28042 13.5265
237 1 5.2747 10.5566 15.012
238 1 3.71426 11.7847 13.3513
239 1 2.74539 10.9226 15.6021
240 1 7.66618 11.0194 10.3206