LAMMPS data file via write_data, version 2 Aug 2023, timestep = 1, units = real

350 atoms
4 atom types

0 15.6782 xlo xhi
0 14.2194 ylo yhi
0 17.6383 zlo zhi
-7.0409 -1.0144 0.675 xy xz yz

Masses

1 12.0107
2 1.00794
3 15.9994
4 28.0855

Atoms # full

7 2 4 0 1.3735900000000008 0.29258 7.52295 0 0 0
9 2 4 0 0.4693300000000001 2.44638 5.64103 0 0 0
13 2 4 0 0.13424999999999976 4.64913 7.97538 0 0 0
15 2 4 0 -1.1167900000000002 7.101799999999997 6.45156 0 0 0
23 2 4 0 3.147500000000001 2.26176 3.83091 0 0 0
26 2 4 0 5.666990000000003 1.61601 5.10086 0 0 0
30 2 4 0 4.74949 4.49147 2.49562 0 0 0
31 2 4 0 1.6329900000000004 7.280979999999999 5.16737 0 0 0
32 2 4 0 3.4649700000000028 6.84706 0.7915300000000001 0 0 0
33 2 4 0 5.362530000000005 3.80499 7.28936 0 0 0
35 2 4 0 4.315920000000001 6.51994 6.39572 0 0 0
70 2 1 0 3.0386600000000015 1.41894 2.18836 0 0 0
74 2 1 0 1.3526400000000023 5.6996 4.29178 0 0 0
97 2 2 0.41 -1.87982 6.673739999999999 5.27514 0 0 0
108 2 2 0.41 5.169400000000002 3.53884 1.46697 0 0 0
139 2 2 0.41 3.932190000000002 0.78772 2.08184 0 0 0
140 2 2 0.41 3.0291700000000024 2.1483 1.3715300000000001 0 0 0
141 2 2 0.41 2.1542100000000026 0.7895699999999999 2.07539 0 0 0
150 2 2 0.41 1.6996800000000003 4.86735 4.90784 0 0 0
151 2 2 0.41 1.9335399999999978 5.68274 3.365730000000001 0 0 0
152 2 2 0.41 0.2958700000000002 5.54552 4.04055 0 0 0
163 2 2 0.41 7.287610000000003 0.48713 1.10479 0 0 0
207 2 3 -0.82 -0.8774499999999992 2.50662 4.71792 0 0 0
208 2 3 -0.82 0.39066 1.02336 6.44444 0 0 0
212 2 3 -0.82 0.5912500000000005 3.6788699999999994 6.72316 0 0 0
213 2 3 -0.82 -0.8637799999999998 5.79798 7.39422 0 0 0
224 2 3 -0.82 1.7402800000000012 2.46821 4.632 0 0 0
225 2 3 -0.82 2.72085 1.18044 7.65784 0 0 0
226 2 3 -0.82 4.09549 1.33323 4.79401 0 0 0
227 2 3 -0.82 6.20454 0.32218 5.91845 0 0 0
230 2 3 -0.82 3.867040000000001 3.7262799999999983 3.64724 0 0 0
232 2 3 -0.82 3.7820599999999995 5.64191 1.85105 0 0 0
233 2 3 -0.82 4.659190000000004 2.81135 8.37911 0 0 0
234 2 3 -0.82 5.863220000000005 2.96127 5.97954 0 0 0
235 2 3 -0.82 1.3956600000000012 5.410769999999998 8.73101 0 0 0
237 2 3 -0.82 2.794450000000001 7.104629999999998 6.31065 0 0 0
238 2 3 -0.82 4.270640000000005 4.93153 6.82371 0 0 0
242 2 3 -0.82 2.0702600000000015 6.507959999999997 0.00289 0 0 0
257 2 3 -0.82 6.477410000000001 1.75808 3.69786 0 0 0
299 4 4 0 0.013630000000000017 2.73123 0.83254 0 0 0
300 4 1 0 1.0486600000000001 4.05509 1.54435 0 0 0
301 4 2 0.41 1.8246999999999998 4.39029 0.85482 0 0 0
302 4 2 0.41 1.5220700000000014 3.70807 2.46378 0 0 0
303 4 2 0.41 0.43808 4.926229999999998 1.79882 0 0 0
304 4 3 -0.82 -0.5378800000000006 1.81494 2.08521 0 0 0
309 5 2 0.41 -0.9386799999999987 6.937489999999998 2.81903 0 0 0
314 5 3 -0.82 -3.4083800000000015 6.68461 3.1219900000000003 0 0 0
340 18 2 0.41 -2.2812300000000016 4.441889999999999 2.8241800000000006 0 0 0
346 24 2 0.41 5.327760000000005 1.51015 0.27214 0 0 0
6 2 4 0 0.57355 1.72077 16.25219 0 0 0
10 2 4 0 -1.2495600000000002 3.07622 14.211780000000001 0 0 0
12 2 4 0 -2.6942699999999986 5.547829999999998 17.05533 0 0 0
14 2 4 0 -3.90883 7.46765 10.02266 0 0 0
16 2 4 0 -0.16339999999999844 5.923059999999998 14.11043 0 0 0
17 2 4 0 -1.1985799999999993 7.1101399999999995 11.48557 0 0 0
25 2 4 0 3.2882300000000027 2.09693 8.902770000000002 0 0 0
28 2 4 0 3.0938000000000008 3.6339 16.33946 0 0 0
34 2 4 0 1.39202 6.69626 9.77415 0 0 0
36 2 4 0 4.61841 4.99832 13.94094 0 0 0
37 2 4 0 -0.3395499999999989 7.485429999999999 16.86293 0 0 0
66 2 1 0 -1.0656700000000006 3.02867 12.37461 0 0 0
71 2 1 0 4.60038 2.8090599999999997 17.05217 0 0 0
72 2 1 0 6.073290000000002 1.6693999999999993 11.23119 0 0 0
96 2 2 0.41 -2.754140000000002 5.50425 15.578880000000002 0 0 0
98 2 2 0.41 1.1974200000000015 5.872639999999999 13.54385 0 0 0
104 2 2 0.41 3.6084200000000006 1.2153099999999997 10.033800000000001 0 0 0
106 2 2 0.41 2.464700000000001 4.5776 17.29408 0 0 0
107 2 2 0.41 2.2859600000000024 3.12474 9.26264 0 0 0
128 2 2 0.41 -0.10152000000000028 3.4593 12.07877 0 0 0
129 2 2 0.41 -1.84513 3.65613 11.92348 0 0 0
130 2 2 0.41 -1.12537 2.0205799999999994 11.94897 0 0 0
142 2 2 0.41 5.320390000000003 3.5566099999999987 17.41072 0 0 0
143 2 2 0.41 5.10402 2.1671499999999995 16.3199 0 0 0
145 2 2 0.41 5.752810000000002 2.08572 10.27021 0 0 0
146 2 2 0.41 5.291010000000005 0.9908499999999998 11.593130000000002 0 0 0
209 2 3 -0.82 -0.4532200000000002 1.8769199999999997 14.99298 0 0 0
210 2 3 -0.82 -2.2459499999999997 4.05388 17.60719 0 0 0
211 2 3 -0.82 -0.7080899999999998 3.7541899999999995 9.04954 0 0 0
214 2 3 -0.82 -0.5706999999999988 4.48426 14.745620000000004 0 0 0
215 2 3 -0.82 -2.6388500000000015 6.76638 10.76777 0 0 0
216 2 3 -0.82 -1.23395 6.39198 12.95978 0 0 0
228 2 3 -0.82 1.96855 2.5207099999999993 15.91219 0 0 0
236 2 3 -0.82 0.081039999999998 6.443219999999999 10.70314 0 0 0
239 2 3 -0.82 3.4891699999999997 4.54103 15.02144 0 0 0
240 2 3 -0.82 5.20073 3.6719399999999998 13.196100000000003 0 0 0
241 2 3 -0.82 -0.23060999999999976 7.004770000000001 15.31644 0 0 0
243 2 3 -0.82 -1.57942 6.6748499999999975 17.53978 0 0 0
244 2 3 -0.82 2.753380000000001 6.862489999999998 10.69049 0 0 0
245 2 3 -0.82 3.8795600000000037 6.0051 12.889150000000003 0 0 0
291 3 4 0 2.5955 0.86388 13.14484 0 0 0
292 3 1 0 2.3557699999999997 2.49647 12.285030000000003 0 0 0
293 3 1 0 4.09802 0.8229 14.26328 0 0 0
295 3 2 0.41 1.5928100000000018 2.4030699999999996 11.50268 0 0 0
296 3 2 0.41 3.28383 2.8596499999999994 11.82991 0 0 0
297 3 2 0.41 2.02567 3.25353 13.00994 0 0 0
298 3 2 0.41 4.48225 1.8366599999999997 14.39945 0 0 0
305 4 3 -0.82 -0.1525000000000003 2.37052 17.55632 0 0 -1
328 9 2 0.41 3.8118600000000042 6.779309999999997 16.55788 0 0 0
18 2 4 0 -4.74587 11.38811 3.16397 0 0 0
19 2 4 0 -2.7050599999999974 9.426779999999995 8.02474 0 0 0
20 2 4 0 -4.11614 11.49978 6.20173 0 0 0
24 2 4 0 -0.16149999999999748 13.54854 7.3629500000000005 0 0 0
39 2 4 0 2.5018600000000015 9.19652 2.73188 0 0 0
40 2 4 0 2.1298400000000046 9.39975 8.54233 0 0 0
42 2 4 0 1.1253200000000028 11.02241 6.11211 0 0 0
75 2 1 0 1.0298500000000026 10.0004 1.9496800000000005 0 0 0
86 2 1 0 -6.235450000000003 12.405660000000005 2.75794 0 0 0
99 2 2 0.41 -3.4566799999999973 12.05272 2.84323 0 0 0
100 2 2 0.41 -2.9000699999999986 12.307739999999995 6.02962 0 0 0
111 2 2 0.41 -0.1069000000000006 10.54509 5.47405 0 0 0
153 2 2 0.41 0.47904000000000024 10.59907 2.68791 0 0 0
154 2 2 0.41 0.35226999999999975 9.22536 1.56367 0 0 0
155 2 2 0.41 1.3078300000000014 10.65003 1.10941 0 0 0
185 2 2 0.41 -6.24057 12.75461 1.71767 0 0 0
186 2 2 0.41 -6.3075199999999985 13.284609999999995 3.410200000000001 0 0 0
218 2 3 -0.82 -1.9965099999999998 8.18483 7.276430000000001 0 0 0
219 2 3 -0.82 -4.747889999999998 11.04242 4.7712400000000015 0 0 0
220 2 3 -0.82 -3.8008599999999997 10.13104 7.04385 0 0 0
221 2 3 -0.82 -5.279 12.33518 7.0168 0 0 0
231 2 3 -0.82 0.27684000000000253 7.7713399999999995 5.95764 0 0 0
246 2 3 -0.82 2.019740000000005 8.456059999999999 4.10303 0 0 0
247 2 3 -0.82 3.23601 8.20728 1.66332 0 0 0
249 2 3 -0.82 -1.55715 10.50582 8.43996 0 0 0
250 2 3 -0.82 -1.303419999999999 13.15139 8.47074 0 0 0
252 2 3 -0.82 1.8532199999999996 9.869060000000001 7.00442 0 0 0
253 2 3 -0.82 0.80496 12.269519999999998 7.10839 0 0 0
276 2 3 -0.82 -4.79871 9.97214 2.29976 0 0 0
306 5 4 0 -2.1859600000000006 7.74773 2.80965 0 0 0
307 5 4 0 -2.2677399999999985 9.748149999999997 0.42051 0 0 0
308 5 1 0 -2.13193 9.17051 4.0005 0 0 0
310 5 2 0.41 -2.1697400000000027 10.96028 1.28371 0 0 0
311 5 2 0.41 -2.17752 10.125819999999996 3.459690000000001 0 0 0
312 5 2 0.41 -1.1905399999999973 9.164099999999994 4.56213 0 0 0
313 5 2 0.41 -2.9673 9.130809999999995 4.70853 0 0 0
315 5 3 -0.82 -2.3089000000000013 8.3443 1.27768 0 0 0
348 26 2 0.41 0.8916500000000029 12.92892 2.3446700000000003 0 0 0
21 2 4 0 -2.39159 10.89201 14.46025 0 0 0
22 2 4 0 -3.5790299999999986 11.790359999999994 11.72602 0 0 0
41 2 4 0 -1.479689999999997 11.82431 9.42045 0 0 0
68 2 1 0 -2.8353400000000013 9.084019999999999 14.53295 0 0 0
69 2 1 0 -0.9470499999999998 8.92975 11.54177 0 0 0
77 2 1 0 1.6819700000000053 8.83992 14.42347 0 0 0
101 2 2 0.41 -0.9962800000000028 11.154139999999996 14.92057 0 0 0
102 2 2 0.41 -3.325879999999999 11.69014 15.30383 0 0 0
103 2 2 0.41 -4.5276799999999975 10.670189999999995 11.66531 0 0 0
112 2 2 0.41 -0.5951399999999973 8.9352 16.89727 0 0 0
113 2 2 0.41 -0.3531599999999998 11.69927 10.33711 0 0 0
114 2 2 0.41 0.15017000000000003 11.40347 12.5514 0 0 0
133 2 2 0.41 -2.0021 8.440349999999999 14.23333 0 0 0
134 2 2 0.41 -3.691119999999999 8.878189999999995 13.87729 0 0 0
135 2 2 0.41 -3.130390000000003 8.79607 15.55158 0 0 0
136 2 2 0.41 -0.6231499999999994 9.27723 10.552560000000001 0 0 0
137 2 2 0.41 -0.16673000000000004 9.21678 12.25578 0 0 0
138 2 2 0.41 -1.8594599999999986 9.46504 11.8182 0 0 0
159 2 2 0.41 2.0274900000000002 7.98089 15.009060000000003 0 0 0
160 2 2 0.41 1.0232900000000023 8.45469 13.6389 0 0 0
161 2 2 0.41 1.084170000000003 9.487939999999995 15.07505 0 0 0
198 2 2 0.41 1.8586099999999992 10.73548 17.05245 0 0 0
217 2 3 -0.82 -3.4591300000000014 8.89365 9.36754 0 0 0
222 2 3 -0.82 -2.474290000000001 11.464980000000002 12.89817 0 0 0
223 2 3 -0.82 -4.281700000000002 13.224639999999996 11.98881 0 0 0
248 2 3 -0.82 1.2133000000000007 8.10045 8.95182 0 0 0
251 2 3 -0.82 -2.8627700000000003 11.93582 10.26061 0 0 0
283 2 3 -0.82 1.7505500000000003 10.65538 9.53074 0 0 0
294 3 2 0.41 -5.673700000000005 14.73879 13.89492 0 -1 0
317 6 2 0.41 -5.77774 11.69871 10.22435 0 0 0
318 6 3 -0.82 -6.44436 13.77662 8.956950000000003 0 0 0
320 7 1 0 -6.110380000000001 13.492749999999997 16.63224 0 0 0
321 7 2 0.41 -5.626700000000002 12.97011 15.79829 0 0 0
322 7 2 0.41 -7.045289999999997 12.967259999999996 16.87307 0 0 0
334 12 2 0.41 -4.49984 10.49342 17.2124 0 0 0
335 13 2 0.41 -2.08323 10.41906 17.1752 0 0 0
339 17 2 0.41 -5.4589 10.43297 15.21737 0 0 0
341 19 2 0.41 -5.4478100000000005 13.42379 17.50804 0 0 -1
344 22 2 0.41 -2.141900000000002 13.766199999999998 13.81458 0 0 0
345 23 2 0.41 -3.1764200000000002 13.94031 15.24534 0 0 0
1 1 4 0 14.07668 2.1160899999999994 3.2886 0 0 0
2 1 1 0 12.938470000000006 3.44723 2.78076 0 0 0
3 1 2 0.41 12.617290000000006 3.259239999999999 1.75039 0 0 0
4 1 2 0.41 12.04869 3.4347499999999997 3.414110000000001 0 0 0
5 1 3 -0.82 13.21157 0.72426 3.4499 0 0 0
11 2 4 0 11.205720000000005 5.907499999999998 4.0937 0 0 0
46 2 4 0 8.022000000000006 1.71099 3.11878 0 0 0
49 2 4 0 9.48037 4.232729999999999 1.9671800000000002 0 0 0
50 2 4 0 6.32758 6.49933 4.01999 0 0 0
51 2 4 0 8.991350000000008 6.747799999999997 0.15853 0 0 0
52 2 4 0 9.89702 5.76239 8.2774 0 0 0
54 2 4 0 8.85988 7.184799999999999 5.59087 0 0 0
67 2 1 0 11.957360000000005 4.89969 5.46518 0 0 0
78 2 1 0 8.08486 0.3544900000000001 1.8504300000000002 0 0 0
82 2 1 0 6.889030000000006 4.4623 8.05426 0 0 0
95 2 2 0.41 13.08054 2.8930499999999997 7.57789 0 0 0
115 2 2 0.41 8.96008 1.4961099999999998 4.25696 0 0 0
117 2 2 0.41 10.459949999999994 3.49147 1.15592 0 0 0
120 2 2 0.41 10.265890000000006 4.4506 7.7052900000000015 0 0 0
131 2 2 0.41 11.29021 4.05217 5.68179 0 0 0
132 2 2 0.41 12.054190000000009 5.488200000000001 6.38586 0 0 0
157 2 2 0.41 6.354870000000002 7.15859 7.5478700000000005 0 0 0
158 2 2 0.41 4.9431599999999944 7.30787 8.62198 0 0 0
162 2 2 0.41 9.04856 0.32032 1.3242400000000005 0 0 0
173 2 2 0.41 7.474540000000001 4.98643 7.29098 0 0 0
174 2 2 0.41 7.474070000000006 3.6107299999999998 8.42705 0 0 0
260 2 3 -0.82 8.343700000000005 3.17382 2.44302 0 0 0
261 2 3 -0.82 10.243880000000006 4.90596 3.22688 0 0 0
262 2 3 -0.82 6.103410000000005 5.145029999999999 3.12423 0 0 0
263 2 3 -0.82 4.970490000000002 6.682679999999998 4.90924 0 0 0
264 2 3 -0.82 8.768700000000006 5.4081 1.07793 0 0 0
265 2 3 -0.82 11.264600000000002 6.49569 8.81818 0 0 0
267 2 3 -0.82 10.231819999999999 7.05389 4.72379 0 0 0
268 2 3 -0.82 7.645699999999999 6.25062 4.98009 0 0 0
269 2 3 -0.82 9.154560000000009 6.661469999999997 7.122840000000001 0 0 0
323 8 1 0 12.36512 5.42619 0.05533 0 0 0
324 8 2 0.41 12.340430000000005 5.608769999999998 1.1323600000000005 0 0 0
336 14 2 0.41 7.653209999999999 1.1572 7.85745 0 0 0
337 15 2 0.41 11.144420000000006 1.17078 2.00864 0 0 0
342 20 2 0.41 12.947980000000003 4.49393 5.23505 -1 0 0
347 25 2 0.41 5.814360000000002 6.98762 0.10068 0 0 0
350 28 2 0.41 12.270009999999994 0.49095 6.31823 0 0 0
8 2 4 0 13.580230000000006 2.86471 8.97912 0 0 0
27 2 4 0 8.05027 1.05065 14.52195 0 0 0
29 2 4 0 6.517949999999996 2.985449999999999 12.45063 0 0 0
38 2 4 0 3.914920000000001 7.21323 11.80341 0 0 0
47 2 4 0 9.660750000000005 3.15944 15.71731 0 0 0
48 2 4 0 11.17739 2.8830999999999998 10.911470000000003 0 0 0
55 2 4 0 10.67106 5.015069999999997 13.23502 0 0 0
73 2 1 0 7.401020000000001 4.4152 11.6957 0 0 0
79 2 1 0 8.013100000000001 3.65388 16.4224 0 0 0
80 2 1 0 9.796480000000003 2.353320000000001 9.78761 0 0 0
81 2 1 0 11.70762 1.4546599999999998 11.98056 0 0 0
94 2 2 0.41 13.90207 1.48417 9.41481 0 0 0
105 2 2 0.41 7.1080000000000005 0.6558999999999999 15.590580000000003 0 0 0
109 2 2 0.41 5.712180000000006 5.72894 14.626260000000004 0 0 0
116 2 2 0.41 10.769460000000002 3.09922 16.70286 0 0 0
119 2 2 0.41 8.99492 5.63209 9.43989 0 0 0
121 2 2 0.41 7.309460000000006 7.00164 9.49097 0 0 0
144 2 2 0.41 6.97491 1.0664199999999997 11.043820000000004 0 0 0
147 2 2 0.41 6.6998700000000015 4.886489999999999 10.993020000000003 0 0 0
148 2 2 0.41 8.31476 4.15392 11.1554 0 0 0
149 2 2 0.41 7.6571900000000035 5.156969999999999 12.46171 0 0 0
164 2 2 0.41 7.9905 4.6099499999999995 16.94521 0 0 0
165 2 2 0.41 7.684970000000001 2.87759 17.12886 0 0 0
166 2 2 0.41 7.27671 3.70341 15.60986 0 0 0
167 2 2 0.41 9.02654 1.7989599999999997 10.33976 0 0 0
168 2 2 0.41 10.1908 1.681 9.0108 0 0 0
169 2 2 0.41 9.322720000000004 3.197679999999999 9.27569 0 0 0
170 2 2 0.41 12.46619 0.84668 11.46982 0 0 0
171 2 2 0.41 10.837170000000004 0.8155300000000001 12.18534 0 0 0
172 2 2 0.41 12.120660000000006 1.7783599999999993 12.94367 0 0 0
175 2 2 0.41 6.693829999999999 5.143339999999999 8.88714 0 0 0
229 2 3 -0.82 7.406079999999997 2.2375400000000005 13.62199 0 0 0
258 2 3 -0.82 9.451279999999995 1.61807 15.15472 0 0 0
259 2 3 -0.82 12.41795 3.45906 9.97182 0 0 0
266 2 3 -0.82 5.376880000000002 7.232210000000001 11.08203 0 0 0
270 2 3 -0.82 10.11272 4.15497 14.4969 0 0 0
271 2 3 -0.82 10.683540000000002 4.13696 11.86208 0 0 0
274 2 3 -0.82 9.638880000000007 6.277989999999997 13.030910000000002 0 0 0
325 8 2 0.41 10.579910000000005 5.363860000000001 17.44594 0 0 -1
326 9 1 0 3.832540000000005 7.65604 17.22196 0 0 0
329 10 1 0 8.59686 7.00191 16.09281 0 0 0
330 10 2 0.41 7.753240000000001 6.930759999999999 15.391 0 0 0
331 10 2 0.41 9.14163000000001 6.057669999999999 16.04571 0 0 0
333 11 2 0.41 13.00592000000001 3.02535 14.64739 0 0 0
338 16 2 0.41 12.020820000000008 5.521609999999999 13.525980000000004 -1 0 0
343 21 2 0.41 11.106540000000004 7.048769999999999 17.19543 0 0 0
45 2 4 0 4.920640000000001 13.63552 2.59572 0 0 0
57 2 4 0 9.806420000000001 9.42402 1.17566 0 0 0
58 2 4 0 3.645300000000003 11.396039999999996 4.35395 0 0 0
59 2 4 0 6.37442 11.42033 0.9167300000000002 0 0 0
62 2 4 0 5.888849999999997 11.69077 6.430110000000001 0 0 0
76 2 1 0 5.305670000000003 7.474159999999999 7.601140000000002 0 0 0
83 2 1 0 6.488030000000005 7.99519 2.9622 0 0 0
84 2 1 0 8.408200000000008 8.954829999999994 5.50543 0 0 0
85 2 1 0 8.899570000000011 9.59642 8.5863 0 0 0
87 2 1 0 7.3521 11.95736 5.3363 0 0 0
88 2 1 0 5.251280000000006 13.292679999999999 7.13 0 0 0
110 2 2 0.41 3.5503400000000047 9.06889 8.70111 0 0 0
118 2 2 0.41 7.6716600000000055 7.422600000000003 0.07632 0 0 0
123 2 2 0.41 7.633080000000004 12.00502 0.38363 0 0 0
124 2 2 0.41 8.434700000000001 9.66185 1.68158 0 0 0
125 2 2 0.41 6.587730000000001 10.60048 2.12657 0 0 0
126 2 2 0.41 2.27706 13.0934 8.72914 0 0 0
156 2 2 0.41 5.25526 8.54521 7.37969 0 0 0
176 2 2 0.41 5.692399999999999 8.02769 2.20921 0 0 0
177 2 2 0.41 7.45192 8.04033 2.44479 0 0 0
178 2 2 0.41 6.370540000000003 8.899219999999994 3.57199 0 0 0
179 2 2 0.41 8.348240000000002 9.22437 4.44406 0 0 0
180 2 2 0.41 9.193790000000002 9.57498 5.94198 0 0 0
181 2 2 0.41 7.452700000000006 9.188519999999999 5.98466 0 0 0
182 2 2 0.41 9.53919 10.214759999999995 7.9513300000000005 0 0 0
183 2 2 0.41 8.836750000000004 8.594539999999995 8.15235 0 0 0
187 2 2 0.41 7.3369800000000005 11.21523 4.52933 0 0 0
188 2 2 0.41 8.309200000000002 11.865149999999998 5.85911 0 0 0
189 2 2 0.41 7.2949100000000024 12.952459999999995 4.8868 0 0 0
190 2 2 0.41 5.924610000000002 13.664869999999999 7.91369 0 0 0
191 2 2 0.41 4.238580000000008 13.212459999999995 7.54626 0 0 0
275 2 3 -0.82 10.007650000000009 7.81136 0.92631 0 0 0
277 2 3 -0.82 3.6581599999999996 10.28349 3.1633 0 0 0
278 2 3 -0.82 4.0264000000000015 12.83036 3.688120000000001 0 0 0
279 2 3 -0.82 2.134660000000002 11.551029999999999 4.94344 0 0 0
280 2 3 -0.82 5.3951400000000085 12.683 1.35141 0 0 0
285 2 3 -0.82 4.686239999999998 10.98157 5.52855 0 0 0
286 2 3 -0.82 6.255779999999999 10.56183 7.6002 0 0 0
349 27 2 0.41 8.5357 11.80996 2.91934 0 0 0
43 2 4 0 3.1118200000000007 9.694430000000002 13.67663 0 0 0
44 2 4 0 1.4460600000000046 12.09381 12.55897 0 0 0
53 2 4 0 6.788440000000001 7.862459999999995 10.55426 0 0 0
56 2 4 0 9.456090000000007 7.702019999999996 12.27092 0 0 0
60 2 4 0 7.249170000000001 10.348989999999995 8.88843 0 0 0
61 2 4 0 2.506929999999998 12.10929 9.800750000000003 0 0 0
63 2 4 0 9.149620000000006 10.16857 14.22552 0 0 0
64 2 4 0 3.9287599999999987 11.480440000000005 15.957010000000004 0 0 0
65 2 4 0 7.841020000000004 12.5503 12.836030000000001 0 0 0
89 2 1 0 7.50896 9.87368 15.05238 0 0 0
90 2 1 0 4.702380000000005 13.03156 15.29159 0 0 0
91 2 1 0 2.140470000000004 11.62659 16.47332 0 0 0
92 2 1 0 4.28935 11.74674 9.984130000000002 0 0 0
93 2 1 0 6.2586500000000065 11.64225 12.56886 0 0 0
122 2 2 0.41 8.989410000000003 10.822399999999995 17.53686 0 0 -1
127 2 2 0.41 7.690229999999999 13.56232 13.89147 0 0 0
184 2 2 0.41 9.40676 9.51245 9.55796 0 0 0
192 2 2 0.41 7.60043 9.2788 15.96368 0 0 0
193 2 2 0.41 6.7806 9.37344 14.401390000000001 0 0 0
194 2 2 0.41 7.081500000000006 10.83978 15.35664 0 0 0
195 2 2 0.41 4.298630000000006 13.317259999999997 14.31429 0 0 0
196 2 2 0.41 5.792010000000003 12.92442 15.19765 0 0 0
197 2 2 0.41 4.504140000000005 13.8636 15.98215 0 0 0
199 2 2 0.41 1.4217100000000014 11.75554 15.65693 0 0 0
200 2 2 0.41 2.0502600000000046 12.496899999999995 17.14183 0 0 0
201 2 2 0.41 4.62321 11.27111 9.0543 0 0 0
202 2 2 0.41 4.455920000000001 11.029369999999998 10.79218 0 0 0
203 2 2 0.41 4.91243 12.63244 10.14316 0 0 0
204 2 2 0.41 5.920580000000003 11.186589999999997 13.50422 0 0 0
205 2 2 0.41 6.351350000000004 10.855259999999994 11.813060000000002 0 0 0
206 2 2 0.41 5.475560000000002 12.338199999999999 12.253580000000001 0 0 0
254 2 3 -0.82 3.7672100000000004 8.65936 12.56586 0 0 0
255 2 3 -0.82 2.6592199999999995 11.048289999999998 12.870330000000003 0 0 0
256 2 3 -0.82 1.4010399999999987 13.276649999999998 13.66457 0 0 0
272 2 3 -0.82 10.55019 7.79093 11.06111 0 0 0
273 2 3 -0.82 7.91831 7.871740000000001 11.7432 0 0 0
281 2 3 -0.82 6.498600000000004 9.37963 10.00264 0 0 0
282 2 3 -0.82 7.466840000000005 11.850769999999999 9.51605 0 0 0
284 2 3 -0.82 1.7923700000000014 12.79427 11.12499 0 0 0
287 2 3 -0.82 9.708890000000002 8.89722 13.33727 0 0 0
288 2 3 -0.82 4.13443 10.20615 14.87475 0 0 0
289 2 3 -0.82 4.719129999999997 11.13702 17.38409 0 0 0
290 2 3 -0.82 9.03326 11.47717 13.24199 0 0 0
316 6 4 0 8.791860000000002 12.648149999999994 10.0579 -1 0 0
319 6 3 -0.82 8.354270000000001 13.348609999999997 11.46808 -1 0 0
327 9 2 0.41 3.7902900000000015 8.557979999999999 16.60252 0 0 0
332 10 2 0.41 9.28027 7.774469999999999 15.72119 0 0 0

Velocities

7 0.0012165442537704744 -0.0010654573332044657 0.001785081796334072
9 0.0025728040935684604 0.001360184413680327 0.003795607004776537
13 0.0070926105453014724 0.002545812516588112 -0.003166254958170246
15 -0.0008653256832516517 0.004511282490505756 0.0011316570844459011
23 -0.003479125639352414 -0.002468473681769811 -0.0012414511537076423
26 0.0008747028546152982 0.003529412150920707 -0.0017877869521924841
30 -0.00322511102978804 0.0033717541169734377 -0.001439989982624806
31 -0.0032732491184538316 -0.005230966212142622 -0.0005036749533687164
32 0.002861576906638156 -0.002014678132056091 -0.0021919693683876743
33 -0.008036522188732197 0.0019426058378594379 0.0008293847151089274
35 -0.0016451094874446357 -0.002850201149277994 0.0038645716450946303
70 -0.00036752475883571425 -0.0010287389520908796 -0.005785889418267306
74 0.0037931843511517065 0.005394905185099218 -0.0010179428150908652
97 -0.03053658577109813 0.004804451828313921 0.01855231747934288
108 0.002720743203648452 -0.0015787066942870823 -0.03154883666201883
139 0.03549677240892337 -0.022097163102015708 0.0030374637878322537
140 -0.0266184137194926 0.010791088057159016 -0.013059575590924292
141 -0.006036627850772475 -0.004407976209756593 0.005319356817980319
150 -0.005425851977420778 0.006530443676790605 -0.005250053935219796
151 0.006909671345595699 -0.003681442863085792 0.007804460350537917
152 -0.0007325283765194859 0.0024381990872884966 0.010940911265484353
163 0.03570261120656801 0.008148532778991186 -0.0038719985907936347
207 -0.00564947504788453 -0.0048110425866570335 -0.005200086898095145
208 0.0001781753308103109 -0.002980364957797466 -0.002996105536353288
212 -0.0010140261064245887 -0.007532674070965875 0.0023292702597466413
213 0.004513597021625255 0.0026227436118802863 0.0018451314884815264
224 -0.006325517475676213 0.006558610423293954 0.0023874490047506784
225 -0.0023937441508471973 -0.004466663243837654 -0.0012190776480267408
226 -0.005328626153400456 -0.0009211296841389671 -0.00080017935477367
227 0.0012090495298407266 0.011487891108157313 0.005269608731333042
230 -0.0012687096298604104 -0.0043365867618366 -0.0009001127862119941
232 0.0062326204282903645 -0.001718098970934092 0.00029654657736441676
233 0.009106544952887784 0.003331124235688186 -0.0017224459908109229
234 0.004615376127531376 0.0021707636058091815 0.0031606752115138654
235 0.002447196562839969 0.003136891628394835 -0.001282513836139746
237 -0.002441839426315676 -0.004144857222551732 -0.0028536099765806735
238 0.002015630187928322 -0.0029770311157067595 -0.000636208389406849
242 0.003512074087385696 -0.0009048279509345111 5.747075915855564e-05
257 -0.0018934531947076593 -0.0009729437847955615 -0.001618468221195835
299 0.0011004902279233954 0.0014301419098017387 -0.00017850129113811475
300 -0.001733028930571265 0.0022792799482506563 0.003616875976454062
301 0.025107940296387705 -0.0015399253664637137 0.015894619080840236
302 -0.019814057735245406 0.020250252390729293 -0.010115476764828836
303 -0.001398437209997207 0.012637661333667017 0.012577064021413316
304 0.006473161134955009 0.0006306833159076154 -0.004029359496751978
309 0.007277201636372753 -0.002279695520258672 0.003257232162971765
314 -0.0041989141754640025 0.00628712407527249 -0.00200574611064859
340 0.02109815879418996 -0.026040927147543153 0.011626755528951493
346 0.014272224455591962 -0.016611723054758835 0.010509686062829286
6 -0.0017203382544134533 0.0026215129930812517 0.0001522351838548462
10 -0.0010272918345230198 -0.0031927733463743553 0.001164705941255053
12 0.0025166074140431146 -0.0021442161111577688 -0.00037209014726934364
14 0.0025487867905613026 -0.0014389992075858962 -0.0030040946384609865
16 0.00044486490151924283 -6.038011893769334e-05 -0.00021651889247102922
17 0.004526876090682252 -0.00458316265778142 -0.002981694500895966
25 -0.0013061145590213272 -0.0026127540280068027 0.0002510383537582688
28 0.001722709226198796 0.003158144878899778 0.00037402433055479044
34 -0.0004515015833791899 -0.0032386972658760877 -0.0026437482248131894
36 0.002528257272602195 0.0005589606157484434 0.004377379645664506
37 -0.0043181051283888005 -0.005928173523445586 0.004564119714064734
66 0.006791812325510645 0.0020763170208526467 0.0008014833872289885
71 0.009609047046106047 0.001496040738907561 -0.004497035853347214
72 0.0008204885741890635 -0.0028500794302900342 0.000583081790768257
96 0.022626689020999725 -0.010777501859514442 -0.00895099928235789
98 -0.0006318854321784125 0.007143944064060326 0.009081705438206538
104 -0.003844619379671256 0.002271942993386384 -0.017158205343860884
106 0.029326278083589973 -0.013275308530000758 -0.016097761221444098
107 -0.007991140868428044 0.008778354494024648 0.014058940525215613
128 -0.007902813626882731 -0.00445038505507965 0.00519519609443554
129 0.017902879071812088 -0.014466106515096454 -0.010611704957866697
130 -0.004982340253653914 -0.039986372699347496 -0.019163690538089705
142 0.007632396238916424 0.014679062397145178 0.004818113737650249
143 -0.0049963676977401 0.002001289681087583 0.019953300725804902
145 -0.007077632651907503 -0.018637548382851716 0.02585265258620116
146 0.005296021880574809 0.01529235932338228 0.02490454232047678
209 -0.0037444231380584655 -0.0013309866136079489 -0.0010664857432404306
210 -0.0022021480510281354 -0.005063617083555172 0.001266854652665473
211 -0.0035507653192212688 0.0009211000488712205 -0.000789687202369164
214 -0.0023731345558290944 -0.0005919615739334034 0.000188849765603133
215 -0.005977258069184167 -0.008559202213691185 -0.0022360842810431047
216 -0.011761207441154999 -0.0048434691622418445 -0.002380523960079238
228 -0.007027251415075282 0.004720163999405912 -0.0028160833664074144
236 -0.0012223065596520125 0.004428131872168403 -0.002094832613902054
239 -0.002367298938423892 -0.0029013394830897537 0.002680023092888886
240 -0.0009511718426846633 0.004114578339502495 0.0013049481588942825
241 -0.002484002926558704 -0.003685686655552798 -0.0016089165909720956
243 -0.0011740669445327097 0.0015346855648333305 -0.0031662955799793913
244 0.0037488303397948744 -0.001143485903253086 -0.0074427257021189705
245 0.0034730622721827168 -0.0044316257875230206 0.0021769688671366173
291 0.0017793884447428172 0.0009963161765408832 0.0035854428411957137
292 0.00642546155184323 0.0009552465959492866 0.0033045344884064273
293 -0.006757419714783493 -0.0016370106218429863 0.004893358121137365
295 -0.007798185561348195 0.021985666461430402 0.003440993047126907
296 -0.024162277798426106 -0.010308450817872175 -0.005808974092377327
297 -0.006683060493745465 -0.017561651249149594 -0.005174257573927275
298 -0.03278857990306228 0.0032956263489783474 0.009457006970610983
305 0.003134736850357285 -0.003179650369811344 -0.002909937070358248
328 0.00409829196715642 -0.004819396185748425 0.00942644381706973
18 0.0009589323262659871 -0.004555735277867189 0.0006671166288885757
19 -0.002542947057827091 -0.0014719850225727248 -0.0017348398772859422
20 0.0013043338985725956 5.516181671816397e-06 0.00027650055682834445
24 -0.0028830035607130895 -0.0022509593084285126 -0.004552652614018057
39 0.0008968513894845496 0.0010971344134391976 0.005424276702530823
40 0.0014103033171000894 -0.0002108093203069839 -0.0030327402144446837
42 -0.004171339908550497 0.0028752438492248194 -0.0041758362125052136
75 -0.0037782945023389766 0.004680110284183848 -0.005015621934431697
86 0.004229773973028567 0.005071274518628524 -0.004817212045953015
99 -0.0028832298539980938 -0.011662019538324025 -0.002208299177079851
100 0.010448614493496879 -0.00011532576650273139 0.02667071351840101
111 0.02850628948337049 0.01924630228844974 0.011089441594186226
153 0.022802430849058447 0.020844810314186803 0.0026250892026588725
154 0.02021964657174611 0.0063051311755389396 -0.018433032156694767
155 0.014234806635863928 0.012240766478127978 0.008279640208593194
185 0.003049582921388085 -0.0009859803800708025 -0.00831049578000067
186 0.0003725789426197656 -0.0010971417682326629 -0.00018653753706403554
218 -0.0013285854307303546 -0.0024372016156629897 -0.004971564602348479
219 0.0022565453619854026 -0.009964521500343744 0.00523152341915642
220 0.005331664610862864 0.0016430377569337641 -0.004822364733999062
221 -0.0039010882215683145 0.0024064060112907845 0.002400462318488363
231 -0.0009038355656442889 0.0003886564194633149 0.004498021935580582
246 -0.00610629857022351 0.006750646021181121 -9.345443057045782e-05
247 -0.0027641606408073185 0.002243250369086769 0.0033891922891230828
249 0.011580285367082898 -0.00248178511520769 0.004374549685394425
250 0.0009544494257379181 -0.00043332898824664773 -0.0017538681073399386
252 0.004751263735799058 -0.0005818021777884239 -0.003470575969841499
253 -0.0033316407013007526 0.0032121747572461034 0.00282807095370004
276 -0.0050778698507737835 0.003379368423900827 -0.001790574337299861
306 -0.0007364206050235084 0.001700801285668739 0.004332950801493078
307 0.0038346272299528924 -0.0003860178318417875 -0.001305802370244308
308 -0.006927873682774465 -0.000740084108851808 -0.0002493123311911958
310 -0.004855423184601811 0.03179607880829154 -0.013370178718647707
311 0.025314549487697773 0.011411531474513138 0.0006401490241292947
312 0.02252161638478857 -0.01977743856919926 -0.007086149967325469
313 0.018232896793492624 0.020121106983253863 0.010492598167812414
315 -0.006240751275456051 -0.00020567145833967068 0.004671026103887787
348 0.010113531959980371 -0.012286160747441564 0.0049721006122974976
21 2.3322951134823003e-05 -0.004225267910365854 -0.0005256836707422934
22 -0.0028625111405816226 0.006993700997405606 0.0035491015887606303
41 -0.0006080935134306658 -0.0036700427312872205 0.008139934514216973
68 -0.003326358207006448 -0.0022065662386605233 0.0007316443268340422
69 0.004972724987997025 0.000615613816896714 0.002676780116173033
77 0.0034075617432300425 0.007351749645422025 -0.003526528747487314
101 0.03673618941489843 0.0018043139797831078 0.018301260580184418
102 0.0014451974535846144 0.00045873435134412586 -0.010569410771230036