LAMMPS (2 Aug 2023 - Update 2)
OMP_NUM_THREADS environment is not set. Defaulting to 1 thread. (src/comm.cpp:98)
  using 1 OpenMP thread(s) per MPI task
Reading data file ...
  triclinic box = (0 0 0) to (15.6782 14.2194 17.6383) with tilt (-7.0409 -1.0144 0.675)
  2 by 2 by 2 MPI processor grid
  reading atoms ...
  350 atoms
Finding 1-2 1-3 1-4 neighbors ...
  special bond factors lj:    0        0        0       
  special bond factors coul:  0        0        0       
     0 = max # of 1-2 neighbors
     0 = max # of 1-3 neighbors
     0 = max # of 1-4 neighbors
     1 = max # of special neighbors
  special bonds CPU = 0.001 seconds
  read_data CPU = 0.007 seconds
*****Minimization starts.*****
Setting up cg style minimization ...
  Unit style    : real
  Current step  : 0
WARNING: No pairwise cutoff or binsize set. Atom sorting therefore disabled. (src/atom.cpp:2366)
WARNING: Communication cutoff is 0.0. No ghost atoms will be generated. Atoms may get lost. (src/comm_brick.cpp:210)
Per MPI rank memory allocation (min/avg/max) = 6.365 | 6.365 | 6.365 Mbytes
   Step          Temp          E_pair         E_mol          TotEng         Press     
         0   0              0              0              0              0            
         1   0              0              0              0              0            
Loop time of 6.19669e-05 on 8 procs for 1 steps with 350 atoms

53.5% CPU use with 8 MPI tasks x 1 OpenMP threads

Minimization stats:
  Stopping criterion = search direction is not downhill
  Energy initial, next-to-last, final = 
                     0                  0                  0
  Force two-norm initial, final = 0 0
  Force max component initial, final = 0 0
  Final line search alpha, max atom move = 0 0
  Iterations, force evaluations = 1 0

MPI task timing breakdown:
Section |  min time  |  avg time  |  max time  |%varavg| %total
---------------------------------------------------------------
Pair    | 0          | 0          | 0          |   0.0 |  0.00
Bond    | 1.56e-07   | 1.8625e-07 | 2.55e-07   |   0.0 |  0.30
Neigh   | 0          | 0          | 0          |   0.0 |  0.00
Comm    | 1.238e-06  | 1.5096e-06 | 1.677e-06  |   0.0 |  2.44
Output  | 0          | 0          | 0          |   0.0 |  0.00
Modify  | 0          | 0          | 0          |   0.0 |  0.00
Other   |            | 6.027e-05  |            |       | 97.26

Nlocal:          43.75 ave          49 max          38 min
Histogram: 2 1 0 1 0 0 0 1 1 2
Nghost:              0 ave           0 max           0 min
Histogram: 8 0 0 0 0 0 0 0 0 0
Neighs:              0 ave           0 max           0 min
Histogram: 8 0 0 0 0 0 0 0 0 0

Total # of neighbors = 0
Ave neighs/atom = 0
Ave special neighs/atom = 0
Neighbor list builds = 0
Dangerous builds = 0
System init for write_data ...
WARNING: Communication cutoff is 0.0. No ghost atoms will be generated. Atoms may get lost. (src/comm_brick.cpp:210)
WARNING: New thermo_style command, previous thermo_modify settings will be lost (src/output.cpp:903)

CITE-CITE-CITE-CITE-CITE-CITE-CITE-CITE-CITE-CITE-CITE-CITE-CITE

Your simulation uses code contributions which should be cited:
- pair reaxff command: doi:10.1016/j.parco.2011.08.005
- fix qeq/reaxff command: doi:10.1016/j.parco.2011.08.005
The log file lists these citations in BibTeX format.

CITE-CITE-CITE-CITE-CITE-CITE-CITE-CITE-CITE-CITE-CITE-CITE-CITE

WARNING: Fix qeq/reaxff group is not charge neutral, net charge = -10.66 (src/REAXFF/fix_qeq_reaxff.cpp:392)
Neighbor list info ...
  update: every = 10 steps, delay = 0 steps, check = no
  max neighbors/atom: 2000, page size: 100000
  master list distance cutoff = 12
  ghost atom cutoff = 12
  binsize = 6, bins = 4 3 3
  2 neighbor lists, perpetual/occasional/extra = 2 0 0
  (1) pair reaxff, perpetual
      attributes: half, newton off, ghost
      pair build: half/bin/newtoff/ghost
      stencil: full/ghost/bin/3d
      bin: standard
  (2) fix qeq/reaxff, perpetual, copy from (1)
      attributes: half, newton off
      pair build: copy
      stencil: none
      bin: none
Setting up Verlet run ...
  Unit style    : real
  Current step  : 0
  Time step     : 0.5
Per MPI rank memory allocation (min/avg/max) = 122.3 | 123 | 123.7 Mbytes
   Step          Temp          PotEng         Press         Density         Volume    
         0   300           -38963.433      102489.53      1.6516858      3932.1873    
       100   818.7958      -40090.051     -25805.076      1.6516858      3932.1873    
       200   609.55022     -40434.752     -10112.432      1.6516858      3932.1873    
       300   476.2777      -40665.002      13.431169      1.6516858      3932.1873    
       400   359.05501     -40792.817      14819.286      1.6516858      3932.1873    
       500   315.9059      -40907.936      3146.2061      1.6516858      3932.1873    
       600   289.23918     -40978.778     -6847.2998      1.6516858      3932.1873    
       700   265.59754     -40989.609     -8482.2105      1.6516858      3932.1873    
       800   301.58706     -41004.799     -12887.395      1.6516858      3932.1873    
       900   301.42583     -40968.266     -9420.7734      1.6516858      3932.1873    
      1000   323.62896     -40987.852     -11094.557      1.6516858      3932.1873    
      1100   297.9147      -41005.6       -4213.7463      1.6516858      3932.1873    
      1200   295.62378     -41043.871     -593.79113      1.6516858      3932.1873    
      1300   298.65395     -41074.234     -3614.3977      1.6516858      3932.1873    
      1400   290.32705     -41080.779     -6775.9377      1.6516858      3932.1873    
      1500   284.37281     -41072.601     -19712.599      1.6516858      3932.1873    
      1600   303.99065     -41071.598     -7502.4916      1.6516858      3932.1873    
      1700   297.46512     -41044.072     -4328.2975      1.6516858      3932.1873    
      1800   316.50978     -41055.993     -4105.7996      1.6516858      3932.1873    
      1900   292.24878     -41042.854     -5421.454       1.6516858      3932.1873    
      2000   325.19731     -41089.602     -4661.4125      1.6516858      3932.1873    
      2100   317.03608     -41099.426     -11922.93       1.6516858      3932.1873    
      2200   289.06435     -41079.603     -15089.626      1.6516858      3932.1873    
      2300   298.96132     -41086.185     -6739.7201      1.6516858      3932.1873    
      2400   317.02286     -41089.474     -18822.931      1.6516858      3932.1873    
      2500   299.4654      -41072.288      2526.457       1.6516858      3932.1873    
      2600   299.54421     -41079.135     -3755.0308      1.6516858      3932.1873    
      2700   295.97095     -41078.019     -7559.5803      1.6516858      3932.1873    
      2800   276.16629     -41064.501     -11525.277      1.6516858      3932.1873    
      2900   313.3314      -41104.361     -158.86441      1.6516858      3932.1873    
      3000   286.18816     -41071.636     -11391.879      1.6516858      3932.1873    
      3100   300.61581     -41079.421     -8741.745       1.6516858      3932.1873    
      3200   300.90984     -41090.794     -17118.21       1.6516858      3932.1873    
      3300   281.93117     -41091.528      7431.5932      1.6516858      3932.1873    
      3400   302.80292     -41121.07      -24307.801      1.6516858      3932.1873    
      3500   319.66933     -41116.744     -15171.837      1.6516858      3932.1873    
      3600   309.35595     -41081.355      4154.2132      1.6516858      3932.1873    
      3700   302.95424     -41069.03      -2956.6602      1.6516858      3932.1873    
      3800   298.00435     -41081.566     -1573.9693      1.6516858      3932.1873    
      3900   305.55659     -41107.769     -2129.4688      1.6516858      3932.1873    
      4000   286.9305      -41095.752     -7025.7965      1.6516858      3932.1873    
      4100   285.33726     -41086.581      4832.4052      1.6516858      3932.1873    
      4200   296.86687     -41095.031      147.60424      1.6516858      3932.1873    
      4300   299.35054     -41101.68      -2345.6799      1.6516858      3932.1873    
      4400   309.35259     -41114.186     -2525.0014      1.6516858      3932.1873    
      4500   310.21855     -41118.82      -3180.4662      1.6516858      3932.1873    
      4600   292.02217     -41104.46      -7442.5133      1.6516858      3932.1873    
      4700   312.37412     -41116.11      -8059.421       1.6516858      3932.1873    
      4800   296.67601     -41093.551     -1210.1014      1.6516858      3932.1873    
      4900   301.61523     -41097.85      -21005.955      1.6516858      3932.1873    
      5000   302.86505     -41107.867     -398.97058      1.6516858      3932.1873    
Loop time of 220.221 on 8 procs for 5000 steps with 350 atoms

Performance: 0.981 ns/day, 24.469 hours/ns, 22.704 timesteps/s, 7.947 katom-step/s
98.9% CPU use with 8 MPI tasks x 1 OpenMP threads

MPI task timing breakdown:
Section |  min time  |  avg time  |  max time  |%varavg| %total
---------------------------------------------------------------
Pair    | 123.73     | 164.4      | 182.23     | 184.8 | 74.65
Bond    | 0.0013721  | 0.0017266  | 0.0019646  |   0.4 |  0.00
Neigh   | 11.247     | 15.467     | 17.809     |  59.5 |  7.02
Comm    | 2.0752     | 19.887     | 60.601     | 531.3 |  9.03
Output  | 0.0026642  | 0.0028997  | 0.0043122  |   1.0 |  0.00
Modify  | 17.958     | 20.36      | 24.629     |  52.2 |  9.25
Other   |            | 0.09836    |            |       |  0.04

Nlocal:          43.75 ave          51 max          37 min
Histogram: 1 1 1 0 0 3 0 0 1 1
Nghost:        3111.25 ave        3161 max        3081 min
Histogram: 2 1 1 1 1 0 0 1 0 1
Neighs:        27209.4 ave       31471 max       23403 min
Histogram: 1 1 1 0 1 2 0 0 1 1

Total # of neighbors = 217675
Ave neighs/atom = 621.92857
Ave special neighs/atom = 0
Neighbor list builds = 500
Dangerous builds not checked
System init for write_data ...
System init for write_restart ...
OMP_NUM_THREADS environment is not set. Defaulting to 1 thread. (src/comm.cpp:98)
  using 1 OpenMP thread(s) per MPI task
Reading restart file ...
  restart file = 2 Aug 2023, LAMMPS = 2 Aug 2023
  restoring atom style full from restart
  triclinic box = (0 0 0) to (15.6782 14.2194 17.6383) with tilt (-7.0409 -1.0144 0.675)
  2 by 2 by 2 MPI processor grid
  pair style reaxff stores no restart info
  350 atoms
Finding 1-2 1-3 1-4 neighbors ...
  special bond factors lj:    0        0        0       
  special bond factors coul:  0        0        0       
     0 = max # of 1-2 neighbors
     0 = max # of 1-3 neighbors
     0 = max # of 1-4 neighbors
     1 = max # of special neighbors
  special bonds CPU = 0.000 seconds
  read_restart CPU = 0.003 seconds
*****debug*****
xy = -7.0408999999999997144, deltaxy = 0.70409
xz = -1.0143999999999999684, deltaxz = 0.10144
yz = 0.67500000000000004441, deltayz = -0.0675
*****
*****Negative-deform 1 starts.*****
Resetting global fix info from restart file:
  fix style: nvt, fix ID: fnvt
All restart file global fix info was re-assigned
Neighbor list info ...
  update: every = 10 steps, delay = 0 steps, check = no
  max neighbors/atom: 2000, page size: 100000
  master list distance cutoff = 12
  ghost atom cutoff = 12
  binsize = 6, bins = 4 3 3
  2 neighbor lists, perpetual/occasional/extra = 2 0 0
  (1) pair reaxff, perpetual
      attributes: half, newton off, ghost
      pair build: half/bin/newtoff/ghost
      stencil: full/ghost/bin/3d
      bin: standard
  (2) fix qeq/reaxff, perpetual, copy from (1)
      attributes: half, newton off
      pair build: copy
      stencil: none
      bin: none
Setting up Verlet run ...
  Unit style    : real
  Current step  : 0
  Time step     : 0.5
Per MPI rank memory allocation (min/avg/max) = 119.9 | 121.3 | 122.8 Mbytes
   Step          Temp          PotEng         Press          Volume           Lx             Ly             Lz      
         0   302.86505     -41107.867     -398.92094      3932.1873      15.6782        14.2194        17.6383      
       100   299.84298     -41118.785     -8204.3729      3924.3229      15.646844      14.2194        17.6383      
       200   290.10149     -41116.389     -5063.2688      3916.4586      15.615487      14.2194        17.6383      
       300   301.23223     -41126.867     -8277.6733      3908.5942      15.584131      14.2194        17.6383      
       400   307.75129     -41124.167      1483.5061      3900.7298      15.552774      14.2194        17.6383      
       500   309.9229      -41126.608     -1819.1021      3892.8654      15.521418      14.2194        17.6383      
       600   310.34251     -41121.772     -3180.8528      3885.0011      15.490062      14.2194        17.6383      
       700   305.88093     -41132.712      299.67361      3877.1367      15.458705      14.2194        17.6383      
       800   286.12899     -41130.122      167.79275      3869.2723      15.427349      14.2194        17.6383      
       900   284.65514     -41123.292     -13213.043      3861.4079      15.395992      14.2194        17.6383      
      1000   300.9685      -41126.179      838.3783       3853.5436      15.364636      14.2194        17.6383      
      1100   307.26498     -41143.767      8517.4719      3845.6792      15.33328       14.2194        17.6383      
      1200   298.55511     -41148.449      5222.156       3837.8148      15.301923      14.2194        17.6383      
      1300   284.54589     -41138.252      116.38694      3829.9504      15.270567      14.2194        17.6383      
      1400   293.15799     -41146.729     -9677.4259      3822.0861      15.23921       14.2194        17.6383      
      1500   321.75601     -41139.32       7949.579       3814.2217      15.207854      14.2194        17.6383      
      1600   322.26711     -41117.198     -3966.9537      3806.3573      15.176498      14.2194        17.6383      
      1700   320.12799     -41134.226     -8437.2795      3798.4929      15.145141      14.2194        17.6383      
      1800   313.7073      -41133.436     -8112.6136      3790.6286      15.113785      14.2194        17.6383      
      1900   288.25271     -41128.974      2414.9393      3782.7642      15.082428      14.2194        17.6383      
      2000   298.80659     -41151.182      912.1239       3774.8998      15.051072      14.2194        17.6383      
      2100   298.13272     -41154.404      4398.6201      3767.0354      15.019716      14.2194        17.6383      
      2200   293.89991     -41157.809      2016.5973      3759.1711      14.988359      14.2194        17.6383      
      2300   279.41315     -41163.589      6782.7947      3751.3067      14.957003      14.2194        17.6383      
      2400   279.97988     -41165.729      5636.2203      3743.4423      14.925646      14.2194        17.6383      
      2500   288.89156     -41139.151     -18348.329      3735.5779      14.89429       14.2194        17.6383      
      2600   320.94987     -41148.202      2080.4006      3727.7136      14.862934      14.2194        17.6383      
      2700   317.08912     -41139.86      -6772.7695      3719.8492      14.831577      14.2194        17.6383      
      2800   316.32637     -41155.924      5129.4133      3711.9848      14.800221      14.2194        17.6383      
      2900   304.83103     -41161.331      2727.0135      3704.1204      14.768864      14.2194        17.6383      
      3000   315.76875     -41168.837      7941.7259      3696.2561      14.737508      14.2194        17.6383      
      3100   303.4614      -41159.632      3642.7596      3688.3917      14.706152      14.2194        17.6383      
      3200   288.18044     -41149.881      5963.6968      3680.5273      14.674795      14.2194        17.6383      
      3300   306.30405     -41167.317      17539.622      3672.6629      14.643439      14.2194        17.6383      
      3400   292.66338     -41152.11       1276.3341      3664.7986      14.612082      14.2194        17.6383      
      3500   279.38774     -41149.46       9871.4436      3656.9342      14.580726      14.2194        17.6383      
      3600   302.18084     -41169.699      6170.2963      3649.0698      14.54937       14.2194        17.6383      
      3700   297.03006     -41164.389      4058.3795      3641.2054      14.518013      14.2194        17.6383      
      3800   303.10675     -41170.622      18193.937      3633.3411      14.486657      14.2194        17.6383      
      3900   300.93392     -41165.287      8298.9539      3625.4767      14.4553        14.2194        17.6383      
      4000   299.49553     -41165.569      25784.321      3617.6123      14.423944      14.2194        17.6383      
      4100   287.05183     -41177.093      13551.06       3609.7479      14.392588      14.2194        17.6383      
      4200   285.96534     -41166.109      26662.711      3601.8836      14.361231      14.2194        17.6383      
      4300   308.5657      -41168.665      15198.602      3594.0192      14.329875      14.2194        17.6383      
      4400   307.60538     -41143.006      18798.538      3586.1548      14.298518      14.2194        17.6383      
      4500   328.94228     -41146.004      33422.221      3578.2904      14.267162      14.2194        17.6383      
      4600   297.7093      -41129.02       16815.856      3570.4261      14.235806      14.2194        17.6383      
      4700   298.68148     -41140.408      22124.931      3562.5617      14.204449      14.2194        17.6383      
      4800   273.2656      -41122.266      21477.616      3554.6973      14.173093      14.2194        17.6383      
      4900   302.59918     -41146.459      16336.572      3546.8329      14.141736      14.2194        17.6383      
      5000   307.97974     -41153.201      19573.455      3538.9686      14.11038       14.2194        17.6383      
Loop time of 246.186 on 8 procs for 5000 steps with 350 atoms

Performance: 0.877 ns/day, 27.354 hours/ns, 20.310 timesteps/s, 7.108 katom-step/s
98.9% CPU use with 8 MPI tasks x 1 OpenMP threads

MPI task timing breakdown:
Section |  min time  |  avg time  |  max time  |%varavg| %total
---------------------------------------------------------------
Pair    | 162.62     | 194.66     | 204.73     |  95.3 | 79.07
Bond    | 0.0014861  | 0.0018828  | 0.0021045  |   0.4 |  0.00
Neigh   | 14.197     | 17.122     | 18.596     |  31.8 |  6.96
Comm    | 2.6833     | 12.732     | 44.77      | 372.8 |  5.17
Output  | 0.016524   | 0.018502   | 0.020404   |   1.0 |  0.01
Modify  | 20.028     | 21.538     | 24.482     |  28.7 |  8.75
Other   |            | 0.1108     |            |       |  0.04

Nlocal:          43.75 ave          48 max          37 min
Histogram: 1 0 1 0 1 0 2 0 0 3
Nghost:        3318.62 ave        3387 max        3273 min
Histogram: 1 2 1 0 2 0 0 1 0 1
Neighs:        30250.8 ave       33028 max       25758 min
Histogram: 1 0 0 1 1 0 2 0 0 3

Total # of neighbors = 242006
Ave neighs/atom = 691.44571
Ave special neighs/atom = 0
Neighbor list builds = 500
Dangerous builds not checked
OMP_NUM_THREADS environment is not set. Defaulting to 1 thread. (src/comm.cpp:98)
  using 1 OpenMP thread(s) per MPI task
Reading restart file ...
  restart file = 2 Aug 2023, LAMMPS = 2 Aug 2023
  restoring atom style full from restart
  triclinic box = (0 0 0) to (15.6782 14.2194 17.6383) with tilt (-7.0409 -1.0144 0.675)
  2 by 2 by 2 MPI processor grid
  pair style reaxff stores no restart info
  350 atoms
Finding 1-2 1-3 1-4 neighbors ...
  special bond factors lj:    0        0        0       
  special bond factors coul:  0        0        0       
     0 = max # of 1-2 neighbors
     0 = max # of 1-3 neighbors
     0 = max # of 1-4 neighbors
     1 = max # of special neighbors
  special bonds CPU = 0.000 seconds
  read_restart CPU = 0.003 seconds
*****Positive-deform 1 starts.*****
Resetting global fix info from restart file:
  fix style: nvt, fix ID: fnvt
All restart file global fix info was re-assigned
Neighbor list info ...
  update: every = 10 steps, delay = 0 steps, check = no
  max neighbors/atom: 2000, page size: 100000
  master list distance cutoff = 12
  ghost atom cutoff = 12
  binsize = 6, bins = 4 3 3
  2 neighbor lists, perpetual/occasional/extra = 2 0 0
  (1) pair reaxff, perpetual
      attributes: half, newton off, ghost
      pair build: half/bin/newtoff/ghost
      stencil: full/ghost/bin/3d
      bin: standard
  (2) fix qeq/reaxff, perpetual, copy from (1)
      attributes: half, newton off
      pair build: copy
      stencil: none
      bin: none
Setting up Verlet run ...
  Unit style    : real
  Current step  : 0
  Time step     : 0.5
Per MPI rank memory allocation (min/avg/max) = 119.9 | 121.3 | 122.8 Mbytes
   Step          Temp          PotEng         Press          Volume           Lx             Ly             Lz      
         0   302.86505     -41107.867     -398.92094      3932.1873      15.6782        14.2194        17.6383      
       100   299.87182     -41119.373     -8268.8191      3940.0517      15.709556      14.2194        17.6383      
       200   284.37992     -41114.276     -4042.0012      3947.9161      15.740913      14.2194        17.6383      
       300   303.88153     -41126.99      -10487.294      3955.7804      15.772269      14.2194        17.6383      
       400   309.02938     -41116.76      -2609.4046      3963.6448      15.803626      14.2194        17.6383      
       500   297.75001     -41098.057      2295.1397      3971.5092      15.834982      14.2194        17.6383      
       600   325.84484     -41122.906      883.47767      3979.3736      15.866338      14.2194        17.6383      
       700   303.45395     -41108.691      742.16428      3987.2379      15.897695      14.2194        17.6383      
       800   288.49195     -41109.362     -16276.99       3995.1023      15.929051      14.2194        17.6383      
       900   291.32823     -41106.33       3556.3888      4002.9667      15.960408      14.2194        17.6383      
      1000   300.34024     -41080.597     -21009.457      4010.831       15.991764      14.2194        17.6383      
      1100   324.99562     -41086.02      -7873.6348      4018.6954      16.02312       14.2194        17.6383      
      1200   295.66487     -41072.286     -2742.62        4026.5598      16.054477      14.2194        17.6383      
      1300   315.89107     -41106.1       -11905.763      4034.4242      16.085833      14.2194        17.6383      
      1400   309.49131     -41106.732     -22115.237      4042.2885      16.11719       14.2194        17.6383      
      1500   288.05419     -41092.552     -26376.237      4050.1529      16.148546      14.2194        17.6383      
      1600   287.09065     -41099.63      -20332.014      4058.0173      16.179902      14.2194        17.6383      
      1700   282.59724     -41109.742     -13129.505      4065.8817      16.211259      14.2194        17.6383      
      1800   279.72308     -41130.362     -16457.071      4073.746       16.242615      14.2194        17.6383      
      1900   278.6138      -41153.813     -8996.982       4081.6104      16.273972      14.2194        17.6383      
      2000   271.79971     -41130.326     -14523.536      4089.4748      16.305328      14.2194        17.6383      
      2100   288.94706     -41117.563     -19916.529      4097.3392      16.336684      14.2194        17.6383      
      2200   292.9202      -41096.944     -19592.146      4105.2035      16.368041      14.2194        17.6383      
      2300   319.33763     -41091.69      -24718.279      4113.0679      16.399397      14.2194        17.6383      
      2400   312.82927     -41076.159     -18361.188      4120.9323      16.430754      14.2194        17.6383      
      2500   303.75479     -41087.906     -11228.953      4128.7967      16.46211       14.2194        17.6383      
      2600   294.96645     -41086.783     -23060.442      4136.661       16.493466      14.2194        17.6383      
      2700   306.12866     -41092.523     -17521.21       4144.5254      16.524823      14.2194        17.6383      
      2800   297.48539     -41072.069     -7705.5276      4152.3898      16.556179      14.2194        17.6383      
      2900   297.74406     -41065.162     -15280.745      4160.2542      16.587536      14.2194        17.6383      
      3000   289.82189     -41049.901     -24444.512      4168.1185      16.618892      14.2194        17.6383      
      3100   299.87421     -41064.023     -13279.677      4175.9829      16.650248      14.2194        17.6383      
      3200   275.08843     -41073.009     -25585.9        4183.8473      16.681605      14.2194        17.6383      
      3300   275.17724     -41071.412     -18457.527      4191.7117      16.712961      14.2194        17.6383      
      3400   299.56583     -41064.519     -21271.356      4199.576       16.744318      14.2194        17.6383      
      3500   307.58355     -41056.216     -24834.089      4207.4404      16.775674      14.2194        17.6383      
      3600   296.65067     -41035.957     -32187.782      4215.3048      16.80703       14.2194        17.6383      
      3700   311.23191     -41051.279     -16702.221      4223.1692      16.838387      14.2194        17.6383      
      3800   291.95236     -41046.859     -23856.814      4231.0335      16.869743      14.2194        17.6383      
      3900   275.59155     -41040.355     -18935.515      4238.8979      16.9011        14.2194        17.6383      
      4000   275.70506     -41021.901     -21330.213      4246.7623      16.932456      14.2194        17.6383      
      4100   287.49299     -40992.766     -16154.372      4254.6267      16.963812      14.2194        17.6383      
      4200   303.47636     -40995.98      -25533.78       4262.491       16.995169      14.2194        17.6383      
      4300   308.20352     -41010.456     -26653.462      4270.3554      17.026525      14.2194        17.6383      
      4400   312.3304      -41025.265     -18410.563      4278.2198      17.057882      14.2194        17.6383      
      4500   309.37006     -41019.34      -29224.371      4286.0842      17.089238      14.2194        17.6383      
      4600   308.19659     -41007.849     -30738.798      4293.9485      17.120594      14.2194        17.6383      
      4700   287.35341     -40974.682     -40539.074      4301.8129      17.151951      14.2194        17.6383      
      4800   316.65618     -40985.797     -30738.299      4309.6773      17.183307      14.2194        17.6383      
      4900   307.60146     -40993.776     -36805.953      4317.5417      17.214664      14.2194        17.6383      
      5000   288.34013     -40988.655     -28223          4325.406       17.24602       14.2194        17.6383      
Loop time of 222.614 on 8 procs for 5000 steps with 350 atoms

Performance: 0.970 ns/day, 24.735 hours/ns, 22.460 timesteps/s, 7.861 katom-step/s
98.9% CPU use with 8 MPI tasks x 1 OpenMP threads

MPI task timing breakdown:
Section |  min time  |  avg time  |  max time  |%varavg| %total
---------------------------------------------------------------
Pair    | 129.92     | 175.3      | 185.95     | 132.0 | 78.75
Bond    | 0.0015833  | 0.0020322  | 0.0025584  |   0.6 |  0.00
Neigh   | 9.8118     | 13.825     | 15.331     |  43.4 |  6.21
Comm    | 2.4971     | 13.139     | 58.501     | 481.9 |  5.90
Output  | 0.016598   | 0.01856    | 0.020501   |   0.9 |  0.01
Modify  | 18.676     | 20.221     | 24.271     |  36.4 |  9.08
Other   |            | 0.1104     |            |       |  0.05

Nlocal:          43.75 ave          50 max          37 min
Histogram: 1 1 0 2 0 0 1 0 2 1
Nghost:        2940.62 ave        2985 max        2914 min
Histogram: 2 1 1 1 1 0 0 1 0 1
Neighs:        24706.5 ave       27883 max       21057 min
Histogram: 1 1 0 2 0 0 0 1 2 1

Total # of neighbors = 197652
Ave neighs/atom = 564.72
Ave special neighs/atom = 0
Neighbor list builds = 500
Dangerous builds not checked
OMP_NUM_THREADS environment is not set. Defaulting to 1 thread. (src/comm.cpp:98)
  using 1 OpenMP thread(s) per MPI task
Reading restart file ...
  restart file = 2 Aug 2023, LAMMPS = 2 Aug 2023
  restoring atom style full from restart
  triclinic box = (0 0 0) to (15.6782 14.2194 17.6383) with tilt (-7.0409 -1.0144 0.675)
  2 by 2 by 2 MPI processor grid
  pair style reaxff stores no restart info
  350 atoms
Finding 1-2 1-3 1-4 neighbors ...
  special bond factors lj:    0        0        0       
  special bond factors coul:  0        0        0       
     0 = max # of 1-2 neighbors
     0 = max # of 1-3 neighbors
     0 = max # of 1-4 neighbors
     1 = max # of special neighbors
  special bonds CPU = 0.000 seconds
  read_restart CPU = 0.003 seconds
*****debug*****
xy = -7.0408999999999997144, deltaxy = 0.70409
xz = -1.0143999999999999684, deltaxz = 0.10144
yz = 0.67500000000000004441, deltayz = -0.0675
*****
*****Negative-deform 2 starts.*****
Resetting global fix info from restart file:
  fix style: nvt, fix ID: fnvt
All restart file global fix info was re-assigned
Neighbor list info ...
  update: every = 10 steps, delay = 0 steps, check = no
  max neighbors/atom: 2000, page size: 100000
  master list distance cutoff = 12
  ghost atom cutoff = 12
  binsize = 6, bins = 4 3 3
  2 neighbor lists, perpetual/occasional/extra = 2 0 0
  (1) pair reaxff, perpetual
      attributes: half, newton off, ghost
      pair build: half/bin/newtoff/ghost
      stencil: full/ghost/bin/3d
      bin: standard
  (2) fix qeq/reaxff, perpetual, copy from (1)
      attributes: half, newton off
      pair build: copy
      stencil: none
      bin: none
Setting up Verlet run ...
  Unit style    : real
  Current step  : 0
  Time step     : 0.5
Per MPI rank memory allocation (min/avg/max) = 119.9 | 121.3 | 122.8 Mbytes
   Step          Temp          PotEng         Press          Volume           Lx             Ly             Lz      
         0   302.86505     -41107.867     -398.92094      3932.1873      15.6782        14.2194        17.6383      
       100   299.92123     -41119.081     -8261.7088      3924.3229      15.6782        14.190961      17.6383      
       200   287.22348     -41120.339     -6084.0922      3916.4586      15.6782        14.162522      17.6383      
       300   301.00487     -41127.448     -1919.9585      3908.5942      15.6782        14.134084      17.6383      
       400   316.75899     -41133.8       -4634.1647      3900.7298      15.6782        14.105645      17.6383      
       500   299.63782     -41115.483     -4590.928       3892.8654      15.6782        14.077206      17.6383      
       600   320.06854     -41133.113      3919.821       3885.0011      15.6782        14.048767      17.6383      
       700   296.03221     -41125.892     -783.59079      3877.1367      15.6782        14.020328      17.6383      
       800   284.41484     -41128.817     -4454.339       3869.2723      15.6782        13.99189       17.6383      
       900   272.73533     -41113.967     -3109.8307      3861.4079      15.6782        13.963451      17.6383      
      1000   312.08828     -41131.331     -7463.8151      3853.5436      15.6782        13.935012      17.6383      
      1100   313.37587     -41112.79      -14458.673      3845.6792      15.6782        13.906573      17.6383      
      1200   297.44382     -41131.488     -16074.451      3837.8148      15.6782        13.878134      17.6383      
      1300   289.40212     -41127.644      11530.483      3829.9504      15.6782        13.849696      17.6383      
      1400   305.88502     -41149.047     -6071.3125      3822.0861      15.6782        13.821257      17.6383      
      1500   292.19464     -41155.345     -5756.5063      3814.2217      15.6782        13.792818      17.6383      
      1600   295.82193     -41162.391      6332.942       3806.3573      15.6782        13.764379      17.6383      
      1700   305.56047     -41168.384     -6061.248       3798.4929      15.6782        13.73594       17.6383      
      1800   312.93622     -41154.547      8178.7825      3790.6286      15.6782        13.707502      17.6383      
      1900   321.63164     -41146.379      6215.4632      3782.7642      15.6782        13.679063      17.6383      
      2000   298.93645     -41136.148     -6526.119       3774.8998      15.6782        13.650624      17.6383      
      2100   283.97905     -41146.393      5216.6766      3767.0354      15.6782        13.622185      17.6383      
      2200   289.44377     -41165.49      -7246.5167      3759.1711      15.6782        13.593746      17.6383      
      2300   271.89471     -41155.529      1862.7284      3751.3067      15.6782        13.565308      17.6383      
      2400   307.39285     -41173.267      10542.739      3743.4423      15.6782        13.536869      17.6383      
      2500   301.81183     -41132.552      2109.9361      3735.5779      15.6782        13.50843       17.6383      
      2600   313.21807     -41148.096      3920.1848      3727.7136      15.6782        13.479991      17.6383      
      2700   310.03887     -41159.055      2208.6443      3719.8492      15.6782        13.451552      17.6383      
      2800   324.41688     -41174.487      14056.478      3711.9848      15.6782        13.423114      17.6383      
      2900   277.20407     -41139.724     -2396.8233      3704.1204      15.6782        13.394675      17.6383      
      3000   285.36527     -41156.435      9380.8097      3696.2561      15.6782        13.366236      17.6383      
      3100   287.10292     -41153.257      12857.737      3688.3917      15.6782        13.337797      17.6383      
      3200   297.52436     -41161.43       2226.3854      3680.5273      15.6782        13.309358      17.6383      
      3300   294.73068     -41178.736      2824.8007      3672.6629      15.6782        13.28092       17.6383      
      3400   268.4025      -41170.262      12917.782      3664.7986      15.6782        13.252481      17.6383      
      3500   275.80438     -41158.276      20434.906      3656.9342      15.6782        13.224042      17.6383      
      3600   310.71454     -41162.236      26594.163      3649.0698      15.6782        13.195603      17.6383      
      3700   324.39608     -41167.721      8136.7991      3641.2054      15.6782        13.167164      17.6383      
      3800   302.39497     -41149.474      11784.533      3633.3411      15.6782        13.138726      17.6383      
      3900   288.13386     -41150.257      6955.0434      3625.4767      15.6782        13.110287      17.6383      
      4000   292.02878     -41164.179      13714.494      3617.6123      15.6782        13.081848      17.6383      
      4100   279.51461     -41155.94       13235.762      3609.7479      15.6782        13.053409      17.6383      
      4200   285.62307     -41165.778      21308.759      3601.8836      15.6782        13.02497       17.6383      
      4300   302.64908     -41178.832      14801.806      3594.0192      15.6782        12.996532      17.6383      
      4400   295.01126     -41156.941      12515.345      3586.1548      15.6782        12.968093      17.6383      
      4500   324.44111     -41173.266      11670.45       3578.2904      15.6782        12.939654      17.6383      
      4600   306.20783     -41172.153      23549.093      3570.4261      15.6782        12.911215      17.6383      
      4700   307.99675     -41185.629      15266.201      3562.5617      15.6782        12.882776      17.6383      
      4800   292.03516     -41165.833      13166.653      3554.6973      15.6782        12.854338      17.6383      
      4900   293.95207     -41166.086      8711.2336      3546.8329      15.6782        12.825899      17.6383      
      5000   288.6627      -41166.938      18403.278      3538.9686      15.6782        12.79746       17.6383      
Loop time of 257.803 on 8 procs for 5000 steps with 350 atoms

Performance: 0.838 ns/day, 28.645 hours/ns, 19.395 timesteps/s, 6.788 katom-step/s
99.0% CPU use with 8 MPI tasks x 1 OpenMP threads

MPI task timing breakdown:
Section |  min time  |  avg time  |  max time  |%varavg| %total
---------------------------------------------------------------
Pair    | 147.6      | 200.36     | 214.48     | 158.3 | 77.72
Bond    | 0.0016826  | 0.0020312  | 0.002533   |   0.5 |  0.00
Neigh   | 12.291     | 17.068     | 18.388     |  46.5 |  6.62
Comm    | 4.6039     | 18.733     | 71.494     | 517.7 |  7.27
Output  | 0.017247   | 0.019307   | 0.021129   |   1.0 |  0.01
Modify  | 20.166     | 21.51      | 26.305     |  41.5 |  8.34
Other   |            | 0.1085     |            |       |  0.04

Nlocal:          43.75 ave          51 max          35 min
Histogram: 1 1 0 0 0 3 1 0 0 2
Nghost:        3443.38 ave        3468 max        3420 min
Histogram: 1 2 0 2 0 0 0 0 2 1
Neighs:        30298.1 ave       35093 max       24519 min
Histogram: 1 1 0 0 0 3 1 0 0 2

Total # of neighbors = 242385
Ave neighs/atom = 692.52857
Ave special neighs/atom = 0
Neighbor list builds = 500
Dangerous builds not checked
OMP_NUM_THREADS environment is not set. Defaulting to 1 thread. (src/comm.cpp:98)
  using 1 OpenMP thread(s) per MPI task
Reading restart file ...
  restart file = 2 Aug 2023, LAMMPS = 2 Aug 2023
  restoring atom style full from restart
  triclinic box = (0 0 0) to (15.6782 14.2194 17.6383) with tilt (-7.0409 -1.0144 0.675)
  2 by 2 by 2 MPI processor grid
  pair style reaxff stores no restart info
  350 atoms
Finding 1-2 1-3 1-4 neighbors ...
  special bond factors lj:    0        0        0       
  special bond factors coul:  0        0        0       
     0 = max # of 1-2 neighbors
     0 = max # of 1-3 neighbors
     0 = max # of 1-4 neighbors
     1 = max # of special neighbors
  special bonds CPU = 0.000 seconds
  read_restart CPU = 0.003 seconds
*****Positive-deform 2 starts.*****
Resetting global fix info from restart file:
  fix style: nvt, fix ID: fnvt
All restart file global fix info was re-assigned
Neighbor list info ...
  update: every = 10 steps, delay = 0 steps, check = no
  max neighbors/atom: 2000, page size: 100000
  master list distance cutoff = 12
  ghost atom cutoff = 12
  binsize = 6, bins = 4 3 3
  2 neighbor lists, perpetual/occasional/extra = 2 0 0
  (1) pair reaxff, perpetual
      attributes: half, newton off, ghost
      pair build: half/bin/newtoff/ghost
      stencil: full/ghost/bin/3d
      bin: standard
  (2) fix qeq/reaxff, perpetual, copy from (1)
      attributes: half, newton off
      pair build: copy
      stencil: none
      bin: none
Setting up Verlet run ...
  Unit style    : real
  Current step  : 0
  Time step     : 0.5
Per MPI rank memory allocation (min/avg/max) = 119.9 | 121.3 | 122.8 Mbytes
   Step          Temp          PotEng         Press          Volume           Lx             Ly             Lz      
         0   302.86505     -41107.867     -398.92094      3932.1873      15.6782        14.2194        17.6383      
       100   299.82497     -41119.098     -8195.7806      3940.0517      15.6782        14.247839      17.6383      
       200   290.16427     -41116.395     -9244.8949      3947.9161      15.6782        14.276278      17.6383      
       300   297.60776     -41119.307     -10612.834      3955.7804      15.6782        14.304716      17.6383      
       400   317.30586     -41122.623     -4840.997       3963.6448      15.6782        14.333155      17.6383      
       500   295.90969     -41086.487     -10878.608      3971.5092      15.6782        14.361594      17.6383      
       600   308.60454     -41100.058     -14160.02       3979.3736      15.6782        14.390033      17.6383      
       700   304.60991     -41109.188     -9160.4317      3987.2379      15.6782        14.418472      17.6383      
       800   277.06917     -41089.949     -5584.1448      3995.1023      15.6782        14.44691       17.6383      
       900   282.09449     -41092.439     -8645.7812      4002.9667      15.6782        14.475349      17.6383      
      1000   306.17718     -41086.367     -18306.804      4010.831       15.6782        14.503788      17.6383      
      1100   316.18635     -41073.768     -14894.795      4018.6954      15.6782        14.532227      17.6383      
      1200   297.33049     -41072.689     -17280.784      4026.5598      15.6782        14.560666      17.6383      
      1300   297.40847     -41084.594     -8110.0188      4034.4242      15.6782        14.589104      17.6383      
      1400   298.2744      -41088.661     -16721.083      4042.2885      15.6782        14.617543      17.6383      
      1500   298.2036      -41086.144     -32644.775      4050.1529      15.6782        14.645982      17.6383      
      1600   298.28465     -41101.071     -18132.684      4058.0173      15.6782        14.674421      17.6383      
      1700   289.55757     -41098.256     -14690.773      4065.8817      15.6782        14.70286       17.6383      
      1800   278.01316     -41089.43      -25120.782      4073.746       15.6782        14.731298      17.6383      
      1900   310.41502     -41091.588     -23815.325      4081.6104      15.6782        14.759737      17.6383      
      2000   299.84918     -41046.474     -17660.884      4089.4748      15.6782        14.788176      17.6383      
      2100   306.87404     -41044.57      -16973.711      4097.3392      15.6782        14.816615      17.6383      
      2200   309.19964     -41042.479     -19681.388      4105.2035      15.6782        14.845054      17.6383      
      2300   282.81261     -41040.39      -21039.964      4113.0679      15.6782        14.873492      17.6383      
      2400   303.73593     -41067.992     -22644.681      4120.9323      15.6782        14.901931      17.6383      
      2500   300.28433     -41051.168     -19820.738      4128.7967      15.6782        14.93037       17.6383      
      2600   314.75463     -41058.735     -23980.679      4136.661       15.6782        14.958809      17.6383      
      2700   277.17042     -41032.115     -12288.395      4144.5254      15.6782        14.987248      17.6383      
      2800   288.83155     -41059.259     -18034.277      4152.3898      15.6782        15.015686      17.6383      
      2900   293.65508     -41059.899     -16189.297      4160.2542      15.6782        15.044125      17.6383      
      3000   311.75997     -41041.058     -14818.626      4168.1185      15.6782        15.072564      17.6383      
      3100   288.21496     -40988.255     -22473.928      4175.9829      15.6782        15.101003      17.6383      
      3200   300.34939     -41010.08      -29349.057      4183.8473      15.6782        15.129442      17.6383      
      3300   284.17416     -41006.857     -25595.693      4191.7117      15.6782        15.15788       17.6383      
      3400   314.82867     -41038.798     -22701.25       4199.576       15.6782        15.186319      17.6383      
      3500   288.21338     -41006.055     -34517.029      4207.4404      15.6782        15.214758      17.6383      
      3600   318.78622     -41030.347     -21310.801      4215.3048      15.6782        15.243197      17.6383      
      3700   297.7054      -41025.506     -19888.162      4223.1692      15.6782        15.271636      17.6383      
      3800   277.18373     -41008.861     -18125.177      4231.0335      15.6782        15.300074      17.6383      
      3900   289.22905     -41024.17      -26762.051      4238.8979      15.6782        15.328513      17.6383      
      4000   305.11103     -41023.489     -33715.501      4246.7623      15.6782        15.356952      17.6383      
      4100   331.15066     -41011.417     -20437.607      4254.6267      15.6782        15.385391      17.6383      
      4200   314.80701     -40993.505     -19874.247      4262.491       15.6782        15.41383       17.6383      
      4300   313.78786     -41015.849     -25151.447      4270.3554      15.6782        15.442268      17.6383      
      4400   308.44706     -41010.282     -35112.088      4278.2198      15.6782        15.470707      17.6383      
      4500   295.52353     -40993.251     -29412.982      4286.0842      15.6782        15.499146      17.6383      
      4600   292.79294     -40996.329     -18045.691      4293.9485      15.6782        15.527585      17.6383      
      4700   284.49778     -40998.571     -26622.922      4301.8129      15.6782        15.556024      17.6383      
      4800   289.67797     -40988.11      -19685.803      4309.6773      15.6782        15.584462      17.6383      
      4900   331.0225      -40983.177     -19932.674      4317.5417      15.6782        15.612901      17.6383      
      5000   298.73651     -40947.285     -31327.566      4325.406       15.6782        15.64134       17.6383      
Loop time of 218.381 on 8 procs for 5000 steps with 350 atoms

Performance: 0.989 ns/day, 24.265 hours/ns, 22.896 timesteps/s, 8.014 katom-step/s
98.8% CPU use with 8 MPI tasks x 1 OpenMP threads

MPI task timing breakdown:
Section |  min time  |  avg time  |  max time  |%varavg| %total
---------------------------------------------------------------
Pair    | 126.66     | 165.94     | 181.64     | 140.6 | 75.98
Bond    | 0.0017523  | 0.0020436  | 0.0024891  |   0.5 |  0.00
Neigh   | 10.477     | 14.397     | 16.078     |  45.9 |  6.59
Comm    | 2.7226     | 18.448     | 57.719     | 421.6 |  8.45
Output  | 0.016196   | 0.01833    | 0.020336   |   1.1 |  0.01
Modify  | 17.803     | 19.476     | 23.41      |  39.6 |  8.92
Other   |            | 0.1037     |            |       |  0.05

Nlocal:          43.75 ave          49 max          37 min
Histogram: 2 0 0 0 0 2 1 1 0 2
Nghost:        2882.75 ave        2922 max        2827 min
Histogram: 1 0 2 0 0 1 0 1 0 3
Neighs:        24694.8 ave       27498 max       21064 min
Histogram: 2 0 0 0 0 1 2 1 0 2

Total # of neighbors = 197558
Ave neighs/atom = 564.45143
Ave special neighs/atom = 0
Neighbor list builds = 500
Dangerous builds not checked
OMP_NUM_THREADS environment is not set. Defaulting to 1 thread. (src/comm.cpp:98)
  using 1 OpenMP thread(s) per MPI task
Reading restart file ...
  restart file = 2 Aug 2023, LAMMPS = 2 Aug 2023
  restoring atom style full from restart
  triclinic box = (0 0 0) to (15.6782 14.2194 17.6383) with tilt (-7.0409 -1.0144 0.675)
  2 by 2 by 2 MPI processor grid
  pair style reaxff stores no restart info
  350 atoms
Finding 1-2 1-3 1-4 neighbors ...
  special bond factors lj:    0        0        0       
  special bond factors coul:  0        0        0       
     0 = max # of 1-2 neighbors
     0 = max # of 1-3 neighbors
     0 = max # of 1-4 neighbors
     1 = max # of special neighbors
  special bonds CPU = 0.000 seconds
  read_restart CPU = 0.003 seconds
*****debug*****
xy = -7.0408999999999997144, deltaxy = 0.70409
xz = -1.0143999999999999684, deltaxz = 0.10144
yz = 0.67500000000000004441, deltayz = -0.0675
*****
*****Negative-deform 3 starts.*****
Resetting global fix info from restart file:
  fix style: nvt, fix ID: fnvt
All restart file global fix info was re-assigned
Neighbor list info ...
  update: every = 10 steps, delay = 0 steps, check = no
  max neighbors/atom: 2000, page size: 100000
  master list distance cutoff = 12
  ghost atom cutoff = 12
  binsize = 6, bins = 4 3 3
  2 neighbor lists, perpetual/occasional/extra = 2 0 0
  (1) pair reaxff, perpetual
      attributes: half, newton off, ghost
      pair build: half/bin/newtoff/ghost
      stencil: full/ghost/bin/3d
      bin: standard
  (2) fix qeq/reaxff, perpetual, copy from (1)
      attributes: half, newton off
      pair build: copy
      stencil: none
      bin: none
Setting up Verlet run ...
  Unit style    : real
  Current step  : 0
  Time step     : 0.5
Per MPI rank memory allocation (min/avg/max) = 119.9 | 121.3 | 122.8 Mbytes
   Step          Temp          PotEng         Press          Volume           Lx             Ly             Lz      
         0   302.86505     -41107.867     -398.92094      3932.1873      15.6782        14.2194        17.6383      
       100   300.1007      -41118.768     -8240.5752      3924.3229      15.6782        14.2194        17.603023    
       200   292.5144      -41120.626     -7768.3158      3916.4586      15.6782        14.2194        17.567747    
       300   298.7208      -41121.971     -13530.679      3908.5942      15.6782        14.2194        17.53247     
       400   313.07714     -41127.763     -5643.3742      3900.7298      15.6782        14.2194        17.497194    
       500   288.50029     -41098.676      369.78772      3892.8654      15.6782        14.2194        17.461917    
       600   311.53793     -41128.366      10287.492      3885.0011      15.6782        14.2194        17.42664     
       700   303.13825     -41127.447     -7605.0231      3877.1367      15.6782        14.2194        17.391364    
       800   293.90201     -41127.402     -7527.4228      3869.2723      15.6782        14.2194        17.356087    
       900   297.39141     -41123.181      3020.3906      3861.4079      15.6782        14.2194        17.320811    
      1000   328.21482     -41125.181      1176.761       3853.5436      15.6782        14.2194        17.285534    
      1100   312.08956     -41082.698      4133.2874      3845.6792      15.6782        14.2194        17.250257    
      1200   316.68784     -41103.965     -3818.2668      3837.8148      15.6782        14.2194        17.214981    
      1300   304.51504     -41109.312     -11398.458      3829.9504      15.6782        14.2194        17.179704    
      1400   307.8625      -41116.524     -8565.4695      3822.0861      15.6782        14.2194        17.144428    
      1500   307.21753     -41128.587      6988.5381      3814.2217      15.6782        14.2194        17.109151    
      1600   302.06426     -41128.839     -8673.4172      3806.3573      15.6782        14.2194        17.073874    
      1700   298.08473     -41116.935      744.20236      3798.4929      15.6782        14.2194        17.038598    
      1800   317.81279     -41100.38      -5800.6351      3790.6286      15.6782        14.2194        17.003321    
      1900   323.00052     -41089.286     -15529.412      3782.7642      15.6782        14.2194        16.968045    
      2000   320.51623     -41103.016      7616.1903      3774.8998      15.6782        14.2194        16.932768    
      2100   305.95334     -41094.302      3798.1348      3767.0354      15.6782        14.2194        16.897491    
      2200   306.87264     -41100.654     -3398.9935      3759.1711      15.6782        14.2194        16.862215    
      2300   294.18921     -41100.387      12210.249      3751.3067      15.6782        14.2194        16.826938    
      2400   295.66768     -41120.094      13536.194      3743.4423      15.6782        14.2194        16.791662    
      2500   293.99646     -41114.763      5803.6553      3735.5779      15.6782        14.2194        16.756385    
      2600   316.21283     -41128.009      11946.228      3727.7136      15.6782        14.2194        16.721108    
      2700   289.11484     -41108.712      8056.7525      3719.8492      15.6782        14.2194        16.685832    
      2800   303.54298     -41139.143      11066.864      3711.9848      15.6782        14.2194        16.650555    
      2900   301.92701     -41128.048      5342.4575      3704.1204      15.6782        14.2194        16.615279    
      3000   309.75181     -41130.003      13075.589      3696.2561      15.6782        14.2194        16.580002    
      3100   302.00836     -41112.803      1443.1063      3688.3917      15.6782        14.2194        16.544725    
      3200   310.47861     -41138.665      7390.1315      3680.5273      15.6782        14.2194        16.509449    
      3300   287.82067     -41127.492      10271.76       3672.6629      15.6782        14.2194        16.474172    
      3400   298.26224     -41129.65       4721.6208      3664.7986      15.6782        14.2194        16.438896    
      3500   298.62734     -41122.658      9852.949       3656.9342      15.6782        14.2194        16.403619    
      3600   285.72592     -41111.866      16867.342      3649.0698      15.6782        14.2194        16.368342    
      3700   280.88038     -41120.958      16190.023      3641.2054      15.6782        14.2194        16.333066    
      3800   282.79698     -41117.492      5894.2086      3633.3411      15.6782        14.2194        16.297789    
      3900   313.69655     -41124.088      10100.609      3625.4767      15.6782        14.2194        16.262513    
      4000   302.99441     -41113.596      16392.59       3617.6123      15.6782        14.2194        16.227236    
      4100   298.04166     -41111.743      29695.089      3609.7479      15.6782        14.2194        16.191959    
      4200   302.59787     -41107.108      19308.024      3601.8836      15.6782        14.2194        16.156683    
      4300   307.92381     -41114.66       12441.113      3594.0192      15.6782        14.2194        16.121406    
      4400   287.45837     -41103.817      6861.7871      3586.1548      15.6782        14.2194        16.08613     
      4500   308.52412     -41126.343      28487.087      3578.2904      15.6782        14.2194        16.050853    
      4600   291.30772     -41094.11       27462.467      3570.4261      15.6782        14.2194        16.015576    
      4700   309.75649     -41129.321      12343.823      3562.5617      15.6782        14.2194        15.9803      
      4800   301.67295     -41120.936      19915.332      3554.6973      15.6782        14.2194        15.945023    
      4900   298.0989      -41108.056      31456.444      3546.8329      15.6782        14.2194        15.909747    
      5000   310.10175     -41115.254      21241.543      3538.9686      15.6782        14.2194        15.87447     
Loop time of 249.197 on 8 procs for 5000 steps with 350 atoms

Performance: 0.867 ns/day, 27.689 hours/ns, 20.064 timesteps/s, 7.023 katom-step/s
99.1% CPU use with 8 MPI tasks x 1 OpenMP threads

MPI task timing breakdown:
Section |  min time  |  avg time  |  max time  |%varavg| %total
---------------------------------------------------------------
Pair    | 146.02     | 184.72     | 209.49     | 207.1 | 74.13
Bond    | 0.0017406  | 0.0019905  | 0.0024481  |   0.5 |  0.00
Neigh   | 11.973     | 15.581     | 18.224     |  62.0 |  6.25
Comm    | 2.7101     | 27.501     | 66.195     | 536.6 | 11.04
Output  | 0.015381   | 0.01743    | 0.019162   |   1.0 |  0.01
Modify  | 18.642     | 21.273     | 24.885     |  53.2 |  8.54
Other   |            | 0.1053     |            |       |  0.04

Nlocal:          43.75 ave          52 max          37 min
Histogram: 1 0 2 1 0 1 2 0 0 1
Nghost:        3349.38 ave        3397 max        3317 min
Histogram: 1 1 2 1 0 1 1 0 0 1
Neighs:        30250.6 ave       35585 max       25779 min
Histogram: 1 0 2 1 0 1 2 0 0 1

Total # of neighbors = 242005
Ave neighs/atom = 691.44286
Ave special neighs/atom = 0
Neighbor list builds = 500
Dangerous builds not checked
OMP_NUM_THREADS environment is not set. Defaulting to 1 thread. (src/comm.cpp:98)
  using 1 OpenMP thread(s) per MPI task
Reading restart file ...
  restart file = 2 Aug 2023, LAMMPS = 2 Aug 2023
  restoring atom style full from restart
  triclinic box = (0 0 0) to (15.6782 14.2194 17.6383) with tilt (-7.0409 -1.0144 0.675)
  2 by 2 by 2 MPI processor grid
  pair style reaxff stores no restart info
  350 atoms
Finding 1-2 1-3 1-4 neighbors ...
  special bond factors lj:    0        0        0       
  special bond factors coul:  0        0        0       
     0 = max # of 1-2 neighbors
     0 = max # of 1-3 neighbors
     0 = max # of 1-4 neighbors
     1 = max # of special neighbors
  special bonds CPU = 0.000 seconds
  read_restart CPU = 0.003 seconds
*****Positive-deform 3 starts.*****
Resetting global fix info from restart file:
  fix style: nvt, fix ID: fnvt
All restart file global fix info was re-assigned
Neighbor list info ...
  update: every = 10 steps, delay = 0 steps, check = no
  max neighbors/atom: 2000, page size: 100000
  master list distance cutoff = 12
  ghost atom cutoff = 12
  binsize = 6, bins = 4 3 3
  2 neighbor lists, perpetual/occasional/extra = 2 0 0
  (1) pair reaxff, perpetual
      attributes: half, newton off, ghost
      pair build: half/bin/newtoff/ghost
      stencil: full/ghost/bin/3d
      bin: standard
  (2) fix qeq/reaxff, perpetual, copy from (1)
      attributes: half, newton off
      pair build: copy
      stencil: none
      bin: none
Setting up Verlet run ...
  Unit style    : real
  Current step  : 0
  Time step     : 0.5
Per MPI rank memory allocation (min/avg/max) = 119.9 | 121.3 | 122.8 Mbytes
   Step          Temp          PotEng         Press          Volume           Lx             Ly             Lz      
         0   302.86505     -41107.867     -398.92094      3932.1873      15.6782        14.2194        17.6383      
       100   299.61841     -41119.218     -8116.3172      3940.0517      15.6782        14.2194        17.673577    
       200   286.67305     -41112.825     -3253.6394      3947.9161      15.6782        14.2194        17.708853    
       300   297.48242     -41122.86      -21424.107      3955.7804      15.6782        14.2194        17.74413     
       400   316.27671     -41128.845      2415.2135      3963.6448      15.6782        14.2194        17.779406    
       500   305.71481     -41116.519     -1499.7752      3971.5092      15.6782        14.2194        17.814683    
       600   295.01309     -41101.325     -9667.3705      3979.3736      15.6782        14.2194        17.84996     
       700   296.2578      -41099.354      1896.1463      3987.2379      15.6782        14.2194        17.885236    
       800   282.91532     -41088.016     -9381.5123      3995.1023      15.6782        14.2194        17.920513    
       900   288.56426     -41072.011     -19162.822      4002.9667      15.6782        14.2194        17.955789    
      1000   309.47267     -41062.387     -11673.978      4010.831       15.6782        14.2194        17.991066    
      1100   311.66555     -41070.319     -10745.709      4018.6954      15.6782        14.2194        18.026343    
      1200   305.75554     -41094.986     -15631.594      4026.5598      15.6782        14.2194        18.061619    
      1300   300.8367      -41097.029     -10118.623      4034.4242      15.6782        14.2194        18.096896    
      1400   295.91122     -41104.778     -16538.027      4042.2885      15.6782        14.2194        18.132172    
      1500   284.31208     -41097.658     -10046.334      4050.1529      15.6782        14.2194        18.167449    
      1600   305.66323     -41112.888     -15840.251      4058.0173      15.6782        14.2194        18.202726    
      1700   315.21308     -41104.313     -12328.661      4065.8817      15.6782        14.2194        18.238002    
      1800   309.3752      -41100.742     -6579.2907      4073.746       15.6782        14.2194        18.273279    
      1900   298.49288     -41100.753     -9721.9981      4081.6104      15.6782        14.2194        18.308555    
      2000   276.22739     -41082.423     -17989.524      4089.4748      15.6782        14.2194        18.343832    
      2100   313.13228     -41091.313     -21711.936      4097.3392      15.6782        14.2194        18.379109    
      2200   326.3239      -41075.259     -9552.8129      4105.2035      15.6782        14.2194        18.414385    
      2300   307.1172      -41076.518     -24696.132      4113.0679      15.6782        14.2194        18.449662    
      2400   286.20457     -41063.241     -26376.26       4120.9323      15.6782        14.2194        18.484938    
      2500   300.31493     -41064.363     -8313.3447      4128.7967      15.6782        14.2194        18.520215    
      2600   299.16381     -41068.955     -10151.84       4136.661       15.6782        14.2194        18.555492    
      2700   293.60205     -41064.169     -22252.078      4144.5254      15.6782        14.2194        18.590768    
      2800   308.25119     -41095.835     -11168.684      4152.3898      15.6782        14.2194        18.626045    
      2900   275.00794     -41065.227     -31265.59       4160.2542      15.6782        14.2194        18.661321    
      3000   304.87169     -41049.526     -23653.459      4168.1185      15.6782        14.2194        18.696598    
      3100   307.34351     -41028.895     -32193.058      4175.9829      15.6782        14.2194        18.731875    
      3200   304.75769     -41026.917     -23366.04       4183.8473      15.6782        14.2194        18.767151    
      3300   311.08755     -41052.475     -30885.993      4191.7117      15.6782        14.2194        18.802428    
      3400   311.22728     -41053.793     -19069.185      4199.576       15.6782        14.2194        18.837704    
      3500   283.71412     -41019.376     -27524.687      4207.4404      15.6782        14.2194        18.872981    
      3600   308.79146     -41054.591     -31034.239      4215.3048      15.6782        14.2194        18.908258    
      3700   280.89485     -41043.026     -21195.706      4223.1692      15.6782        14.2194        18.943534    
      3800   293.4729      -41043.259     -28439.521      4231.0335      15.6782        14.2194        18.978811    
      3900   280.11758     -41014.213     -24725.317      4238.8979      15.6782        14.2194        19.014087    
      4000   299.75354     -41022.152     -26717.799      4246.7623      15.6782        14.2194        19.049364    
      4100   303.24672     -41010.773     -30040.187      4254.6267      15.6782        14.2194        19.084641    
      4200   313.7588      -41026.9       -18133.334      4262.491       15.6782        14.2194        19.119917    
      4300   292.90587     -41037.79      -36563.525      4270.3554      15.6782        14.2194        19.155194    
      4400   294.87949     -41030.099     -30944.965      4278.2198      15.6782        14.2194        19.19047     
      4500   309.19094     -41023.509     -28428.434      4286.0842      15.6782        14.2194        19.225747    
      4600   307.61626     -40995.668     -26273.506      4293.9485      15.6782        14.2194        19.261024    
      4700   308.62159     -40970.476     -34746.149      4301.8129      15.6782        14.2194        19.2963      
      4800   301.19018     -40958.175     -34011.615      4309.6773      15.6782        14.2194        19.331577    
      4900   305.66539     -40991.711     -34661.753      4317.5417      15.6782        14.2194        19.366853    
      5000   290.38848     -40977.844     -10658.803      4325.406       15.6782        14.2194        19.40213     
Loop time of 217.161 on 8 procs for 5000 steps with 350 atoms

Performance: 0.995 ns/day, 24.129 hours/ns, 23.024 timesteps/s, 8.059 katom-step/s
98.9% CPU use with 8 MPI tasks x 1 OpenMP threads

MPI task timing breakdown:
Section |  min time  |  avg time  |  max time  |%varavg| %total
---------------------------------------------------------------
Pair    | 126.68     | 161.53     | 181.78     | 178.5 | 74.38
Bond    | 0.0017136  | 0.001969   | 0.002295   |   0.5 |  0.00
Neigh   | 9.5475     | 12.732     | 14.654     |  54.4 |  5.86
Comm    | 2.9384     | 23.207     | 58.059     | 470.8 | 10.69
Output  | 0.0165     | 0.018631   | 0.020574   |   1.0 |  0.01
Modify  | 17.664     | 19.578     | 22.775     |  44.0 |  9.02
Other   |            | 0.09614    |            |       |  0.04

Nlocal:          43.75 ave          51 max          37 min
Histogram: 1 1 2 0 0 1 0 1 0 2
Nghost:         2920.5 ave        2964 max        2871 min
Histogram: 1 1 0 1 1 0 1 1 0 2
Neighs:        24666.4 ave       28340 max       21065 min
Histogram: 1 1 1 1 0 1 0 1 0 2

Total # of neighbors = 197331
Ave neighs/atom = 563.80286
Ave special neighs/atom = 0
Neighbor list builds = 500
Dangerous builds not checked
OMP_NUM_THREADS environment is not set. Defaulting to 1 thread. (src/comm.cpp:98)
  using 1 OpenMP thread(s) per MPI task
Reading restart file ...
  restart file = 2 Aug 2023, LAMMPS = 2 Aug 2023
  restoring atom style full from restart
  triclinic box = (0 0 0) to (15.6782 14.2194 17.6383) with tilt (-7.0409 -1.0144 0.675)
  2 by 2 by 2 MPI processor grid
  pair style reaxff stores no restart info
  350 atoms
Finding 1-2 1-3 1-4 neighbors ...
  special bond factors lj:    0        0        0       
  special bond factors coul:  0        0        0       
     0 = max # of 1-2 neighbors
     0 = max # of 1-3 neighbors
     0 = max # of 1-4 neighbors
     1 = max # of special neighbors
  special bonds CPU = 0.000 seconds
  read_restart CPU = 0.003 seconds
*****debug*****
xy = -7.0408999999999997144, deltaxy = 0.70409
xz = -1.0143999999999999684, deltaxz = 0.10144
yz = 0.67500000000000004441, deltayz = -0.0675
*****
*****Negative-deform 4 starts.*****
Resetting global fix info from restart file:
  fix style: nvt, fix ID: fnvt
All restart file global fix info was re-assigned
Neighbor list info ...
  update: every = 10 steps, delay = 0 steps, check = no
  max neighbors/atom: 2000, page size: 100000
  master list distance cutoff = 12
  ghost atom cutoff = 12
  binsize = 6, bins = 4 3 3
  2 neighbor lists, perpetual/occasional/extra = 2 0 0
  (1) pair reaxff, perpetual
      attributes: half, newton off, ghost
      pair build: half/bin/newtoff/ghost
      stencil: full/ghost/bin/3d
      bin: standard
  (2) fix qeq/reaxff, perpetual, copy from (1)
      attributes: half, newton off
      pair build: copy
      stencil: none
      bin: none
Setting up Verlet run ...
  Unit style    : real
  Current step  : 0
  Time step     : 0.5
Per MPI rank memory allocation (min/avg/max) = 119.9 | 121.3 | 122.8 Mbytes
   Step          Temp          PotEng         Press          Volume           Lx             Ly             Lz      
         0   302.86505     -41107.867     -398.92094      3932.1873      15.6782        14.2194        17.6383      
       100   300.1         -41119.093     -8326.35        3932.1873      15.6782        14.2194        17.6383      
       200   286.52259     -41117.19      -7580.3442      3932.1873      15.6782        14.2194        17.6383      
       300   299.6943      -41125.001     -16097.057      3932.1873      15.6782        14.2194        17.6383      
       400   320.25115     -41129.844     -4226.0351      3932.1873      15.6782        14.2194        17.6383      
       500   305.21537     -41103.101      1060.2225      3932.1873      15.6782        14.2194        17.6383      
       600   311.43286     -41108.474      1879.9569      3932.1873      15.6782        14.2194        17.6383      
       700   308.75941     -41120.655      3446.5699      3932.1873      15.6782        14.2194        17.6383      
       800   292.25249     -41126.611     -21784.6        3932.1873      15.6782        14.2194        17.6383      
       900   273.42213     -41102.246     -4082.2321      3932.1873      15.6782        14.2194        17.6383      
      1000   313.54887     -41113.351      3657.0688      3932.1873      15.6782        14.2194        17.6383      
      1100   311.66832     -41107.588     -5475.4283      3932.1873      15.6782        14.2194        17.6383      
      1200   305.2704      -41110.539     -18132.353      3932.1873      15.6782        14.2194        17.6383      
      1300   279.38171     -41092.913     -2941.7402      3932.1873      15.6782        14.2194        17.6383      
      1400   298.2095      -41121.212     -8496.7177      3932.1873      15.6782        14.2194        17.6383      
      1500   274.63403     -41116.116     -5989.7833      3932.1873      15.6782        14.2194        17.6383      
      1600   293.51361     -41159.582     -5211.5516      3932.1873      15.6782        14.2194        17.6383      
      1700   285.61926     -41128.985     -21049.684      3932.1873      15.6782        14.2194        17.6383      
      1800   297.77565     -41113.002     -4748.3189      3932.1873      15.6782        14.2194        17.6383      
      1900   292.41168     -41098.527     -10426.244      3932.1873      15.6782        14.2194        17.6383      
      2000   307.10798     -41101.713     -14287.373      3932.1873      15.6782        14.2194        17.6383      
      2100   312.38552     -41093.437     -2933.4139      3932.1873      15.6782        14.2194        17.6383      
      2200   295.21703     -41094.887     -12962.977      3932.1873      15.6782        14.2194        17.6383      
      2300   294.0608      -41116.716     -5438.2896      3932.1873      15.6782        14.2194        17.6383      
      2400   298.42243     -41123.194     -9247.6872      3932.1873      15.6782        14.2194        17.6383      
      2500   297.82117     -41110.097     -10153.942      3932.1873      15.6782        14.2194        17.6383      
      2600   302.06836     -41093.26      -12831.459      3932.1873      15.6782        14.2194        17.6383      
      2700   327.84617     -41076.987      565.63476      3932.1873      15.6782        14.2194        17.6383      
      2800   314.01816     -41072.252     -9339.5877      3932.1873      15.6782        14.2194        17.6383      
      2900   296.59758     -41076.221     -5969.1161      3932.1873      15.6782        14.2194        17.6383      
      3000   304.35792     -41104.087      869.98294      3932.1873      15.6782        14.2194        17.6383      
      3100   302.02669     -41116.055     -5601.3152      3932.1873      15.6782        14.2194        17.6383      
      3200   296.43099     -41110.921     -7913.4221      3932.1873      15.6782        14.2194        17.6383      
      3300   289.06587     -41096.144     -3432.6729      3932.1873      15.6782        14.2194        17.6383      
      3400   302.71446     -41076.584      2117.9061      3932.1873      15.6782        14.2194        17.6383      
      3500   320.92501     -41073.339      2361.6516      3932.1873      15.6782        14.2194        17.6383      
      3600   298.33376     -41067.717     -4321.115       3932.1873      15.6782        14.2194        17.6383      
      3700   294.43202     -41082.579     -4248.9404      3932.1873      15.6782        14.2194        17.6383      
      3800   291.61102     -41090.219     -6123.6792      3932.1873      15.6782        14.2194        17.6383      
      3900   304.81366     -41118.599     -8332.4476      3932.1873      15.6782        14.2194        17.6383      
      4000   281.81894     -41108.844     -19463.414      3932.1873      15.6782        14.2194        17.6383      
      4100   306.34509     -41126.059     -10928.505      3932.1873      15.6782        14.2194        17.6383      
      4200   296.08835     -41113.69      -5531.4811      3932.1873      15.6782        14.2194        17.6383      
      4300   307.89771     -41113.316      606.04562      3932.1873      15.6782        14.2194        17.6383      
      4400   317.09606     -41116.175     -4134.3173      3932.1873      15.6782        14.2194        17.6383      
      4500   301.07892     -41093.424     -3047.496       3932.1873      15.6782        14.2194        17.6383      
      4600   298.97819     -41107.046     -443.3146       3932.1873      15.6782        14.2194        17.6383      
      4700   295.46895     -41128.354     -7446.6149      3932.1873      15.6782        14.2194        17.6383      
      4800   280.42036     -41110.818     -9249.9895      3932.1873      15.6782        14.2194        17.6383      
      4900   304.90754     -41105.236     -4907.2923      3932.1873      15.6782        14.2194        17.6383      
      5000   323.41775     -41115.386     -14591.145      3932.1873      15.6782        14.2194        17.6383      
Loop time of 235.765 on 8 procs for 5000 steps with 350 atoms

Performance: 0.916 ns/day, 26.196 hours/ns, 21.208 timesteps/s, 7.423 katom-step/s
98.9% CPU use with 8 MPI tasks x 1 OpenMP threads

MPI task timing breakdown:
Section |  min time  |  avg time  |  max time  |%varavg| %total
---------------------------------------------------------------
Pair    | 135.26     | 183.16     | 196.08     | 143.2 | 77.69
Bond    | 0.0017507  | 0.0020143  | 0.0025791  |   0.5 |  0.00
Neigh   | 11.199     | 15.501     | 16.897     |  46.0 |  6.57
Comm    | 3.8502     | 16.781     | 64.691     | 473.1 |  7.12
Output  | 0.015802   | 0.017953   | 0.019785   |   1.0 |  0.01
Modify  | 18.807     | 20.198     | 24.51      |  40.4 |  8.57
Other   |            | 0.1048     |            |       |  0.04

Nlocal:          43.75 ave          51 max          35 min
Histogram: 1 0 0 1 0 3 1 0 1 1
Nghost:        3113.75 ave        3157 max        3076 min
Histogram: 1 1 1 1 0 0 2 1 0 1
Neighs:          27212 ave       31262 max       22047 min
Histogram: 1 0 0 0 1 3 1 0 1 1

Total # of neighbors = 217696
Ave neighs/atom = 621.98857
Ave special neighs/atom = 0
Neighbor list builds = 500
Dangerous builds not checked
OMP_NUM_THREADS environment is not set. Defaulting to 1 thread. (src/comm.cpp:98)
  using 1 OpenMP thread(s) per MPI task
Reading restart file ...
  restart file = 2 Aug 2023, LAMMPS = 2 Aug 2023
  restoring atom style full from restart
  triclinic box = (0 0 0) to (15.6782 14.2194 17.6383) with tilt (-7.0409 -1.0144 0.675)
  2 by 2 by 2 MPI processor grid
  pair style reaxff stores no restart info
  350 atoms
Finding 1-2 1-3 1-4 neighbors ...
  special bond factors lj:    0        0        0       
  special bond factors coul:  0        0        0       
     0 = max # of 1-2 neighbors
     0 = max # of 1-3 neighbors
     0 = max # of 1-4 neighbors
     1 = max # of special neighbors
  special bonds CPU = 0.000 seconds
  read_restart CPU = 0.003 seconds
*****Positive-deform 4 starts.*****
Resetting global fix info from restart file:
  fix style: nvt, fix ID: fnvt
All restart file global fix info was re-assigned
Neighbor list info ...
  update: every = 10 steps, delay = 0 steps, check = no
  max neighbors/atom: 2000, page size: 100000
  master list distance cutoff = 12
  ghost atom cutoff = 12
  binsize = 6, bins = 4 3 3
  2 neighbor lists, perpetual/occasional/extra = 2 0 0
  (1) pair reaxff, perpetual
      attributes: half, newton off, ghost
      pair build: half/bin/newtoff/ghost
      stencil: full/ghost/bin/3d
      bin: standard
  (2) fix qeq/reaxff, perpetual, copy from (1)
      attributes: half, newton off
      pair build: copy
      stencil: none
      bin: none
Setting up Verlet run ...
  Unit style    : real
  Current step  : 0
  Time step     : 0.5
Per MPI rank memory allocation (min/avg/max) = 119.9 | 121.3 | 122.8 Mbytes
   Step          Temp          PotEng         Press          Volume           Lx             Ly             Lz      
         0   302.86505     -41107.867     -398.92094      3932.1873      15.6782        14.2194        17.6383      
       100   299.69904     -41119.029     -7982.5615      3932.1873      15.6782        14.2194        17.6383      
       200   284.26683     -41115.014     -7565.5266      3932.1873      15.6782        14.2194        17.6383      
       300   300.33088     -41124.788     -13708.812      3932.1873      15.6782        14.2194        17.6383      
       400   316.08424     -41126.298     -10558.438      3932.1873      15.6782        14.2194        17.6383      
       500   297.35312     -41094.514      4575.0616      3932.1873      15.6782        14.2194        17.6383      
       600   322.14244     -41108.137      5330.5696      3932.1873      15.6782        14.2194        17.6383      
       700   301.2949      -41098.018      13095.382      3932.1873      15.6782        14.2194        17.6383      
       800   296.17252     -41113.294     -18432.62       3932.1873      15.6782        14.2194        17.6383      
       900   292.23541     -41112.768     -3147.2275      3932.1873      15.6782        14.2194        17.6383      
      1000   309.24224     -41098.885     -6462.1155      3932.1873      15.6782        14.2194        17.6383      
      1100   315.90109     -41101.266     -1740.3631      3932.1873      15.6782        14.2194        17.6383      
      1200   300.8097      -41093.839     -7764.7188      3932.1873      15.6782        14.2194        17.6383      
      1300   310.4337      -41104.655     -14748.608      3932.1873      15.6782        14.2194        17.6383      
      1400   305.23254     -41110.138      5923.5235      3932.1873      15.6782        14.2194        17.6383      
      1500   283.45827     -41121.028     -2823.5287      3932.1873      15.6782        14.2194        17.6383      
      1600   286.47082     -41126.799     -7375.2653      3932.1873      15.6782        14.2194        17.6383      
      1700   288.39897     -41107.84      -13697.668      3932.1873      15.6782        14.2194        17.6383      
      1800   304.31573     -41112.735     -436.35975      3932.1873      15.6782        14.2194        17.6383      
      1900   318.81149     -41123.827     -15239.386      3932.1873      15.6782        14.2194        17.6383      
      2000   303.08462     -41111.129     -11748.655      3932.1873      15.6782        14.2194        17.6383      
      2100   323.44484     -41135.24      -10249.369      3932.1873      15.6782        14.2194        17.6383      
      2200   293.43457     -41127.091     -11762.175      3932.1873      15.6782        14.2194        17.6383      
      2300   275.57162     -41120.832     -12733.922      3932.1873      15.6782        14.2194        17.6383      
      2400   294.75292     -41125.238     -2737.767       3932.1873      15.6782        14.2194        17.6383      
      2500   306.55409     -41107.349     -9412.7793      3932.1873      15.6782        14.2194        17.6383      
      2600   318.63054     -41117.02      -9086.5249      3932.1873      15.6782        14.2194        17.6383      
      2700   291.28597     -41099.605     -9877.9426      3932.1873      15.6782        14.2194        17.6383      
      2800   297.75559     -41106.837     -18160.689      3932.1873      15.6782        14.2194        17.6383      
      2900   309.02859     -41120.694     -936.83731      3932.1873      15.6782        14.2194        17.6383      
      3000   292.17361     -41120.562     -6167.0704      3932.1873      15.6782        14.2194        17.6383      
      3100   292.28092     -41125.45      -32871.69       3932.1873      15.6782        14.2194        17.6383      
      3200   300.7119      -41125.447     -29490.734      3932.1873      15.6782        14.2194        17.6383      
      3300   322.02113     -41115.818     -8693.5578      3932.1873      15.6782        14.2194        17.6383      
      3400   311.6734      -41097.16      -8603.6815      3932.1873      15.6782        14.2194        17.6383      
      3500   320.32373     -41125.11      -17470.105      3932.1873      15.6782        14.2194        17.6383      
      3600   289.97062     -41119.275     -12604.691      3932.1873      15.6782        14.2194        17.6383      
      3700   301.88014     -41128.571     -11893.752      3932.1873      15.6782        14.2194        17.6383      
      3800   305.3937      -41114.742     -8218.9416      3932.1873      15.6782        14.2194        17.6383      
      3900   322.07911     -41118.817     -8975.9332      3932.1873      15.6782        14.2194        17.6383      
      4000   291.62339     -41107.351     -18442.222      3932.1873      15.6782        14.2194        17.6383      
[...]
      4600   286.91262     -41107.45      -3732.6905      3932.1873      15.6782        14.2194        17.6383      
      4700   311.30892     -41114.095     -11094.221      3932.1873      15.6782        14.2194        17.6383      
      4800   314.63718     -41103.244     -9472.9014      3932.1873      15.6782        14.2194        17.6383      
      4900   317.60591     -41110.505     -6102.1166      3932.1873      15.6782        14.2194        17.6383      
      5000   290.86359     -41109.471     -23927.527      3932.1873      15.6782        14.2194        17.6383      
Loop time of 230.574 on 8 procs for 5000 steps with 350 atoms

Performance: 0.937 ns/day, 25.619 hours/ns, 21.685 timesteps/s, 7.590 katom-step/s
99.0% CPU use with 8 MPI tasks x 1 OpenMP threads

MPI task timing breakdown:
Section |  min time  |  avg time  |  max time  |%varavg| %total
---------------------------------------------------------------
Pair    | 137.09     | 161.17     | 191.11     | 178.4 | 69.90
Bond    | 0.001664   | 0.0018995  | 0.0020693  |   0.3 |  0.00
Neigh   | 11.182     | 13.744     | 16.489     |  54.5 |  5.96
Comm    | 4.6458     | 34.577     | 58.677     | 385.1 | 15.00
Output  | 0.015636   | 0.017776   | 0.019835   |   1.0 |  0.01
Modify  | 18.196     | 20.965     | 23.514     |  44.3 |  9.09
Other   |            | 0.09604    |            |       |  0.04

Nlocal:          43.75 ave          50 max          38 min
Histogram: 2 1 0 0 1 1 1 0 0 2
Nghost:        3119.38 ave        3172 max        3079 min
Histogram: 1 2 1 0 0 1 1 1 0 1
Neighs:        27190.9 ave       30854 max       23805 min
Histogram: 1 2 0 0 1 0 2 0 1 1

Total # of neighbors = 217527
Ave neighs/atom = 621.50571
Ave special neighs/atom = 0
Neighbor list builds = 500
Dangerous builds not checked
OMP_NUM_THREADS environment is not set. Defaulting to 1 thread. (src/comm.cpp:98)
  using 1 OpenMP thread(s) per MPI task
Reading restart file ...
  restart file = 2 Aug 2023, LAMMPS = 2 Aug 2023
  restoring atom style full from restart
  triclinic box = (0 0 0) to (15.6782 14.2194 17.6383) with tilt (-7.0409 -1.0144 0.675)
  2 by 2 by 2 MPI processor grid
  pair style reaxff stores no restart info
  350 atoms
Finding 1-2 1-3 1-4 neighbors ...
  special bond factors lj:    0        0        0       
  special bond factors coul:  0        0        0       
     0 = max # of 1-2 neighbors
     0 = max # of 1-3 neighbors
     0 = max # of 1-4 neighbors
     1 = max # of special neighbors
  special bonds CPU = 0.000 seconds
  read_restart CPU = 0.003 seconds
*****debug*****
xy = -7.0408999999999997144, deltaxy = 0.70409
xz = -1.0143999999999999684, deltaxz = 0.10144
yz = 0.67500000000000004441, deltayz = -0.0675
*****
*****Negative-deform 6 starts.*****
Resetting global fix info from restart file:
  fix style: nvt, fix ID: fnvt
All restart file global fix info was re-assigned
Neighbor list info ...
  update: every = 10 steps, delay = 0 steps, check = no
  max neighbors/atom: 2000, page size: 100000
  master list distance cutoff = 12
  ghost atom cutoff = 12
  binsize = 6, bins = 4 3 3
  2 neighbor lists, perpetual/occasional/extra = 2 0 0
  (1) pair reaxff, perpetual
      attributes: half, newton off, ghost
      pair build: half/bin/newtoff/ghost
      stencil: full/ghost/bin/3d
      bin: standard
  (2) fix qeq/reaxff, perpetual, copy from (1)
      attributes: half, newton off
      pair build: copy
      stencil: none
      bin: none
Setting up Verlet run ...
  Unit style    : real
  Current step  : 0
  Time step     : 0.5
Per MPI rank memory allocation (min/avg/max) = 119.9 | 121.3 | 122.8 Mbytes
   Step          Temp          PotEng         Press          Volume           Lx             Ly             Lz      
         0   302.86505     -41107.867     -398.92094      3932.1873      15.6782        14.2194        17.6383      
       100   299.87432     -41119.089     -8218.2249      3932.1873      15.6782        14.2194        17.6383      
       200   286.02221     -41116.486     -6805.393       3932.1873      15.6782        14.2194        17.6383      
       300   296.47957     -41121.378     -8685.4775      3932.1873      15.6782        14.2194        17.6383      
       400   322.40091     -41134.964     -4745.8243      3932.1873      15.6782        14.2194        17.6383      
       500   305.07786     -41109.87       1113.7451      3932.1873      15.6782        14.2194        17.6383      
       600   305.99137     -41107.984     -10016.97       3932.1873      15.6782        14.2194        17.6383      
       700   285.93859     -41106.44       488.12016      3932.1873      15.6782        14.2194        17.6383      
       800   287.36745     -41126.502     -15121.021      3932.1873      15.6782        14.2194        17.6383      
       900   306.94186     -41127.65      -28387.651      3932.1873      15.6782        14.2194        17.6383      
      1000   322.73285     -41120.687     -12691.456      3932.1873      15.6782        14.2194        17.6383      
      1100   308.37034     -41106.242     -5204.5076      3932.1873      15.6782        14.2194        17.6383      
      1200   306.70226     -41107.716      5441.6264      3932.1873      15.6782        14.2194        17.6383      
      1300   305.68586     -41113.62      -5127.6544      3932.1873      15.6782        14.2194        17.6383      
      1400   292.37359     -41108.05       3343.2929      3932.1873      15.6782        14.2194        17.6383      
      1500   315.96775     -41105.853      2571.1411      3932.1873      15.6782        14.2194        17.6383      
      1600   324.98998     -41080.036      9802.7951      3932.1873      15.6782        14.2194        17.6383      
      1700   312.71636     -41093.058      4928.5947      3932.1873      15.6782        14.2194        17.6383      
      1800   291.74176     -41092.992      5524.484       3932.1873      15.6782        14.2194        17.6383      
      1900   308.87313     -41124.049     -1276.1819      3932.1873      15.6782        14.2194        17.6383      
      2000   303.41002     -41134.979     -15962.167      3932.1873      15.6782        14.2194        17.6383      
      2100   286.22389     -41117.577     -21229.094      3932.1873      15.6782        14.2194        17.6383      
      2200   288.64196     -41112.666     -7163.3536      3932.1873      15.6782        14.2194        17.6383      
      2300   311.52083     -41120.936     -4119.2563      3932.1873      15.6782        14.2194        17.6383      
      2400   315.90921     -41081.858     -11207.718      3932.1873      15.6782        14.2194        17.6383      
      2500   338.84798     -41120.226     -13213.733      3932.1873      15.6782        14.2194        17.6383      
      2600   293.94366     -41101.176     -16012.915      3932.1873      15.6782        14.2194        17.6383      
      2700   305.15501     -41130.022     -3965.6954      3932.1873      15.6782        14.2194        17.6383      
      2800   294.45724     -41133.049     -12310.985      3932.1873      15.6782        14.2194        17.6383      
      2900   295.67218     -41134.24      -9194.1724      3932.1873      15.6782        14.2194        17.6383      
      3000   300.9175      -41119.473     -6151.7642      3932.1873      15.6782        14.2194        17.6383      
      3100   315.42544     -41096.278      3318.0697      3932.1873      15.6782        14.2194        17.6383      
      3200   298.78878     -41078.886     -22811.832      3932.1873      15.6782        14.2194        17.6383      
      3300   301.63753     -41101.367     -1672.6669      3932.1873      15.6782        14.2194        17.6383      
      3400   306.62941     -41116.066     -2760.6246      3932.1873      15.6782        14.2194        17.6383      
      3500   316.51858     -41135.946      2042.8143      3932.1873      15.6782        14.2194        17.6383      
      3600   304.44124     -41130.151     -2696.5273      3932.1873      15.6782        14.2194        17.6383      
      3700   294.90876     -41120.309     -19744.462      3932.1873      15.6782        14.2194        17.6383      
      3800   284.36614     -41122.186     -2087.4952      3932.1873      15.6782        14.2194        17.6383      
      3900   295.58921     -41141.384     -9308.0941      3932.1873      15.6782        14.2194        17.6383      
      4000   291.72214     -41117.468      2997.0293      3932.1873      15.6782        14.2194        17.6383      
      4100   312.89779     -41104.664     -17122.272      3932.1873      15.6782        14.2194        17.6383      
      4200   329.18339     -41116.121     -13880.289      3932.1873      15.6782        14.2194        17.6383      
      4300   300.49451     -41098.141     -21001.694      3932.1873      15.6782        14.2194        17.6383      
      4400   286.74266     -41093.429     -20657.221      3932.1873      15.6782        14.2194        17.6383      
      4500   299.99563     -41111.006     -11064.252      3932.1873      15.6782        14.2194        17.6383      
      4600   288.65573     -41102.293     -6358.4751      3932.1873      15.6782        14.2194        17.6383      
      4700   290.35104     -41098.404     -4038.559       3932.1873      15.6782        14.2194        17.6383      
      4800   301.4337      -41102.554     -828.06048      3932.1873      15.6782        14.2194        17.6383      
      4900   303.93617     -41098.189     -20672.444      3932.1873      15.6782        14.2194        17.6383      
      5000   295.4135      -41090.415     -4381.5897      3932.1873      15.6782        14.2194        17.6383      
Loop time of 223.729 on 8 procs for 5000 steps with 350 atoms

Performance: 0.965 ns/day, 24.859 hours/ns, 22.348 timesteps/s, 7.822 katom-step/s
99.0% CPU use with 8 MPI tasks x 1 OpenMP threads

MPI task timing breakdown:
Section |  min time  |  avg time  |  max time  |%varavg| %total
---------------------------------------------------------------
Pair    | 132.45     | 156.76     | 187.35     | 192.8 | 70.07
Bond    | 0.0013878  | 0.0017612  | 0.0019386  |   0.4 |  0.00
Neigh   | 10.555     | 12.762     | 15.336     |  55.3 |  5.70
Comm    | 3.458      | 34.037     | 58.336     | 413.7 | 15.21
Output  | 0.015431   | 0.017649   | 0.019671   |   1.1 |  0.01
Modify  | 17.467     | 20.06      | 22.269     |  44.3 |  8.97
Other   |            | 0.09388    |            |       |  0.04

Nlocal:          43.75 ave          52 max          38 min
Histogram: 2 0 2 1 0 1 0 1 0 1
Nghost:           3243 ave        3289 max        3198 min
Histogram: 1 1 1 0 1 2 0 0 1 1
Neighs:        27217.9 ave       32097 max       23758 min
Histogram: 2 0 2 1 0 1 0 1 0 1

Total # of neighbors = 217743
Ave neighs/atom = 622.12286
Ave special neighs/atom = 0
Neighbor list builds = 500
Dangerous builds not checked
OMP_NUM_THREADS environment is not set. Defaulting to 1 thread. (src/comm.cpp:98)
  using 1 OpenMP thread(s) per MPI task
Reading restart file ...
  restart file = 2 Aug 2023, LAMMPS = 2 Aug 2023
  restoring atom style full from restart
  triclinic box = (0 0 0) to (15.6782 14.2194 17.6383) with tilt (-7.0409 -1.0144 0.675)
  2 by 2 by 2 MPI processor grid
  pair style reaxff stores no restart info
  350 atoms
Finding 1-2 1-3 1-4 neighbors ...
  special bond factors lj:    0        0        0       
  special bond factors coul:  0        0        0       
     0 = max # of 1-2 neighbors
     0 = max # of 1-3 neighbors
     0 = max # of 1-4 neighbors
     1 = max # of special neighbors
  special bonds CPU = 0.000 seconds
  read_restart CPU = 0.002 seconds
*****Positive-deform 6 starts.*****
Resetting global fix info from restart file:
  fix style: nvt, fix ID: fnvt
All restart file global fix info was re-assigned
Neighbor list info ...
  update: every = 10 steps, delay = 0 steps, check = no
  max neighbors/atom: 2000, page size: 100000
  master list distance cutoff = 12
  ghost atom cutoff = 12
  binsize = 6, bins = 4 3 3
  2 neighbor lists, perpetual/occasional/extra = 2 0 0
  (1) pair reaxff, perpetual
      attributes: half, newton off, ghost
      pair build: half/bin/newtoff/ghost
      stencil: full/ghost/bin/3d
      bin: standard
  (2) fix qeq/reaxff, perpetual, copy from (1)
      attributes: half, newton off
      pair build: copy
      stencil: none
      bin: none
Setting up Verlet run ...
  Unit style    : real
  Current step  : 0
  Time step     : 0.5
Per MPI rank memory allocation (min/avg/max) = 119.9 | 121.3 | 122.8 Mbytes
   Step          Temp          PotEng         Press          Volume           Lx             Ly             Lz      
         0   302.86505     -41107.867     -398.92094      3932.1873      15.6782        14.2194        17.6383      
       100   299.88684     -41119.076     -8241.686       3932.1873      15.6782        14.2194        17.6383      
       200   285.91298     -41115.775     -6774.4914      3932.1873      15.6782        14.2194        17.6383      
       300   292.07383     -41116         -17277.621      3932.1873      15.6782        14.2194        17.6383      
       400   307.84613     -41117.821     -12672.28       3932.1873      15.6782        14.2194        17.6383      
       500   310.14763     -41108.543     -1231.7657      3932.1873      15.6782        14.2194        17.6383      
       600   307.03757     -41098.873     -6607.8726      3932.1873      15.6782        14.2194        17.6383      
       700   302.20111     -41101.813     -3152.6147      3932.1873      15.6782        14.2194        17.6383      
       800   306.18044     -41129.055     -9500.1442      3932.1873      15.6782        14.2194        17.6383      
       900   304.52389     -41130.229     -3096.5045      3932.1873      15.6782        14.2194        17.6383      
      1000   302.9001      -41113.845     -13325.433      3932.1873      15.6782        14.2194        17.6383      
      1100   327.62839     -41096.236      42.419051      3932.1873      15.6782        14.2194        17.6383      
      1200   318.21384     -41089.938     -2285.2749      3932.1873      15.6782        14.2194        17.6383      
      1300   329.60698     -41120.106     -4179.7582      3932.1873      15.6782        14.2194        17.6383      
      1400   309.89499     -41111.77      -147.17762      3932.1873      15.6782        14.2194        17.6383      
      1500   295.45078     -41111.666     -8087.6318      3932.1873      15.6782        14.2194        17.6383      
      1600   302.0805      -41128.793     -9060.0645      3932.1873      15.6782        14.2194        17.6383      
      1700   292.24022     -41128.293      124.80244      3932.1873      15.6782        14.2194        17.6383      
      1800   297.21537     -41151.761     -13808.767      3932.1873      15.6782        14.2194        17.6383      
      1900   265.99349     -41132.242     -7137.9532      3932.1873      15.6782        14.2194        17.6383      
      2000   293.72429     -41131.804     -16888.092      3932.1873      15.6782        14.2194        17.6383      
      2100   313.29078     -41132.33      -9840.2178      3932.1873      15.6782        14.2194        17.6383      
      2200   294.493       -41107.342     -2664.2936      3932.1873      15.6782        14.2194        17.6383      
      2300   299.81884     -41108.816     -16663.724      3932.1873      15.6782        14.2194        17.6383      
      2400   276.39953     -41103.744     -21690.164      3932.1873      15.6782        14.2194        17.6383      
      2500   276.64989     -41118.037     -3770.0878      3932.1873      15.6782        14.2194        17.6383      
      2600   270.96696     -41108.43      -3500.0716      3932.1873      15.6782        14.2194        17.6383      
      2700   322.51773     -41121.996     -13318.192      3932.1873      15.6782        14.2194        17.6383      
      2800   302.89298     -41088.823     -8395.4513      3932.1873      15.6782        14.2194        17.6383      
      2900   291.59163     -41086.815     -1076.001       3932.1873      15.6782        14.2194        17.6383      
      3000   298.1627      -41112.697     -13963.458      3932.1873      15.6782        14.2194        17.6383      
      3100   283.68982     -41114.461      1395.9569      3932.1873      15.6782        14.2194        17.6383      
      3200   294.73909     -41112.565     -16664.611      3932.1873      15.6782        14.2194        17.6383      
      3300   290.70541     -41061.913      327.2665       3932.1873      15.6782        14.2194        17.6383      
      3400   320.6033      -41099.094     -8126.2788      3932.1873      15.6782        14.2194        17.6383      
      3500   294.25466     -41090.956     -16581.099      3932.1873      15.6782        14.2194        17.6383      
      3600   314.17026     -41132.734     -17556.31       3932.1873      15.6782        14.2194        17.6383      
      3700   284.42812     -41109.734     -8316.5844      3932.1873      15.6782        14.2194        17.6383      
      3800   288.51995     -41099.984     -12658.779      3932.1873      15.6782        14.2194        17.6383      
      3900   300.36844     -41097.288     -8698.2464      3932.1873      15.6782        14.2194        17.6383      
      4000   322.00076     -41100.327     -7277.1256      3932.1873      15.6782        14.2194        17.6383      
      4100   300.50545     -41094.236     -5565.9089      3932.1873      15.6782        14.2194        17.6383      
      4200   298.12801     -41124.957     -15469.948      3932.1873      15.6782        14.2194        17.6383      
      4300   306.30932     -41132.346     -10342.497      3932.1873      15.6782        14.2194        17.6383      
      4400   301.47664     -41113.138     -11767.629      3932.1873      15.6782        14.2194        17.6383      
      4500   296.33245     -41085.626      356.34505      3932.1873      15.6782        14.2194        17.6383      
      4600   310.14513     -41092.648     -3578.3575      3932.1873      15.6782        14.2194        17.6383      
      4700   293.15072     -41096.841     -7071.0023      3932.1873      15.6782        14.2194        17.6383      
      4800   273.50514     -41085.238     -6097.9977      3932.1873      15.6782        14.2194        17.6383      
      4900   313.82862     -41120.857     -4062.4097      3932.1873      15.6782        14.2194        17.6383      
      5000   287.11592     -41105.894     -4504.2407      3932.1873      15.6782        14.2194        17.6383      
Loop time of 204.232 on 8 procs for 5000 steps with 350 atoms

Performance: 1.058 ns/day, 22.692 hours/ns, 24.482 timesteps/s, 8.569 katom-step/s
99.0% CPU use with 8 MPI tasks x 1 OpenMP threads

MPI task timing breakdown:
Section |  min time  |  avg time  |  max time  |%varavg| %total
---------------------------------------------------------------
Pair    | 117.47     | 132.57     | 167.45     | 170.5 | 64.91
Bond    | 0.0011325  | 0.0014486  | 0.0017009  |   0.4 |  0.00
Neigh   | 10.773     | 12.499     | 15.838     |  55.7 |  6.12
Comm    | 3.212      | 38.087     | 53.198     | 317.9 | 18.65
Output  | 0.013436   | 0.014925   | 0.016418   |   0.8 |  0.01
Modify  | 17.622     | 20.98      | 22.729     |  43.3 | 10.27
Other   |            | 0.08273    |            |       |  0.04

Nlocal:          43.75 ave          50 max          37 min
Histogram: 2 0 1 1 0 0 0 1 1 2
Nghost:        2980.25 ave        3006 max        2958 min
Histogram: 2 0 2 0 0 0 2 0 1 1
Neighs:        27198.9 ave       30818 max       23128 min
Histogram: 2 0 1 1 0 0 0 1 1 2

Total # of neighbors = 217591
Ave neighs/atom = 621.68857
Ave special neighs/atom = 0
Neighbor list builds = 500
Dangerous builds not checked
Total wall time: 0:49:50
