ITEM: TIMESTEP
0
ITEM: NUMBER OF ATOMS
243
ITEM: BOX BOUNDS xy xz yz pp pp pp
-7.3456000000000001e+00 1.4691300000000000e+01 -7.3456000000000001e+00
0.0000000000000000e+00 1.2468540000000001e+01 0.0000000000000000e+00
0.0000000000000000e+00 1.5963100000000001e+01 0.0000000000000000e+00
ITEM: ATOMS id type x y z
11 2 -3.62022 6.20192 3.46944
134 1 3.80848 5.4947 1.25781
140 1 3.83201 5.33776 6.52942
6 2 1.15539 2.2233 5.28399
10 2 -0.113058 4.25266 1.80289
13 2 -0.209125 4.30363 7.0508
139 1 2.67489 5.96499 4.17456
29 2 3.69629 1.93851 3.45246
135 1 3.89757 2.93535 7.49257
37 2 4.64283 4.19693 1.65947
38 2 1.27377 6.21139 3.4602
40 2 4.77334 4.1406 7.00511
82 1 1.4032 1.24675 1.13926
83 1 0.322367 1.73956 4.00757
84 1 1.30853 1.09602 6.38342
88 1 -0.918605 3.05137 2.35557
89 1 0.817731 3.74834 0.615539
90 1 -1.06612 5.39828 1.1882
91 1 -1.2461 3.26577 7.70765
92 1 0.699427 3.58649 5.96306
93 1 -2.07517 6.13931 3.94253
94 1 -1.08186 5.38988 6.26831
118 1 3.1134 0.595716 2.84411
119 1 2.65873 2.29372 4.62047
120 1 6.21271 1.25062 1.23551
123 1 5.15749 1.83885 4.06711
124 1 6.27829 1.20501 6.50702
130 1 3.82209 3.00734 2.31509
132 1 0.758326 4.79453 3.06725
28 2 7.17676 0.155917 1.78793
31 2 7.22727 0.0560795 7.09987
4 2 2.26254 0.0654636 7.09327
1 2 2.24452 0.0103461 1.67695
44 2 1.42252 6.14962 14.2336
9 2 1.29719 2.29783 10.5606
16 2 -0.0982279 4.2251 12.4738
32 2 3.76011 2.01453 8.76731
17 2 -3.57131 6.15357 14.2189
35 2 3.75642 2.0861 14.111
147 1 3.81206 5.37663 11.5839
43 2 4.65163 4.24996 12.3532
14 2 -3.5053 6.19126 8.86968
85 1 0.200709 1.88338 14.9028
86 1 0.206372 1.96568 9.47232
87 1 1.38772 1.10579 11.5899
95 1 -1.18901 3.24063 13.1034
96 1 0.879697 3.57516 11.4211
97 1 -2.06838 6.0699 14.8403
98 1 -2.01258 5.87989 9.44141
99 1 -0.951791 5.36096 11.8245
121 1 3.12172 0.630027 8.29891
122 1 2.69575 2.56403 9.85286
125 1 3.24731 0.75898 13.416
126 1 5.18479 1.82342 14.7753
127 1 2.73438 2.45096 15.2483
128 1 5.15536 1.90846 9.46934
129 1 6.41231 1.22657 11.6185
137 1 0.646457 4.89476 8.24081
141 1 3.74314 3.19088 13.0093
143 1 0.828438 4.86672 13.6054
144 1 2.96112 5.95966 14.7449
146 1 2.79284 6.1094 9.37568
7 2 2.30428 0.0542744 12.3838
5 2 -1.24401 2.14081 8.78873
34 2 7.28114 0.0729469 12.2868
3 2 1.29599 2.3539 15.9621
49 2 2.27197 8.35834 7.02279
15 2 -1.08239 6.54118 5.19509
19 2 -2.74382 8.48636 1.76833
161 1 1.37815 9.51972 6.43629
22 2 -2.55715 8.47038 6.98119
24 2 -3.6363 10.6024 5.274
46 2 2.22166 8.35597 1.67095
47 2 -1.18172 10.4229 3.47754
160 1 0.30126 10.1536 4.05334
100 1 -3.59829 7.21238 2.25377
101 1 -1.79108 7.74538 0.717974
102 1 -6.01634 11.3997 2.43256
103 1 -3.39582 9.76714 1.11518
104 1 -4.32456 11.9451 0.409157
105 1 -3.35865 7.22151 7.63746
106 1 -1.67747 7.86683 5.8568
107 1 -5.96189 11.3546 7.68869
108 1 -4.63759 9.95392 4.18465
109 1 -3.57365 9.50041 6.43163
110 1 -4.14756 11.9006 5.91518
133 1 0.326749 6.83361 4.60017
148 1 1.37393 7.14663 2.20259
150 1 -1.88556 9.0548 2.93524
151 1 -1.11823 11.4939 2.29132
152 1 -2.12009 10.8035 4.70026
153 1 1.27264 9.46091 1.03166
155 1 1.27692 7.24469 7.58014
158 1 -1.03405 11.4182 7.71472
12 2 -1.07712 6.51741 0.0302409
18 2 -1.098 6.41702 10.6152
25 2 -2.57492 8.34162 12.4089
27 2 -3.55078 10.5525 10.7075
50 2 -1.0597 10.33 8.85907
52 2 2.39183 8.35435 12.438
53 2 -1.1457 10.4338 14.018
111 1 -3.52946 7.2738 13.0717
112 1 -1.73947 7.70427 11.1841
113 1 -4.66073 9.99093 14.7915
114 1 -5.8113 11.3322 13.0473
115 1 -4.58391 10.1003 9.4591
116 1 -3.47926 9.54234 11.9518
117 1 -4.12326 11.9318 11.2565
138 1 0.333544 6.75822 9.98899
145 1 0.366419 6.66065 15.3488
157 1 -1.53103 9.03029 8.13198
159 1 -2.09228 10.6819 10.0296
163 1 1.50935 7.20435 13.0016
165 1 -1.63819 9.05229 13.5179
166 1 0.276795 10.2427 14.7329
167 1 -1.02837 11.414 12.8243
168 1 -2.22904 10.9229 15.0616
169 1 0.398514 10.1295 9.49533
170 1 1.57787 9.571 11.8401
23 2 -5.9945 10.2413 8.80202
21 2 -3.63586 10.654 15.8066
41 2 1.3208 6.24961 8.82245
65 2 6.16502 5.98769 3.42762
204 1 8.73633 5.30555 6.30555
196 1 8.55337 5.4075 1.13906
33 2 6.2263 2.26578 5.28694
203 1 7.6583 5.89216 3.98043
56 2 8.72066 2.05576 3.53568
197 1 8.77322 3.01681 7.56449
198 1 10.7469 3.76915 5.9861
60 2 11.1958 2.4117 5.30924
64 2 9.43923 4.30079 1.79086
55 2 11.989 0.031078 1.79865
67 2 9.68063 4.28758 7.10334
131 1 5.58307 3.61055 0.531114
136 1 5.6446 3.59481 5.78297
172 1 12.8518 0.608941 3.03696
173 1 8.03286 0.714436 2.99598
174 1 7.6981 2.4443 4.75114
176 1 11.2092 1.3208 1.24001
180 1 12.6881 2.49708 4.67569
181 1 10.2478 2.0121 4.09776
182 1 11.1764 1.26306 6.41896
190 1 8.64544 3.1221 2.41389
191 1 10.3412 3.69529 0.662299
192 1 10.4301 4.87161 2.87273
193 1 5.61567 4.6393 2.84364
58 2 12.0318 0.107482 6.94275
57 2 11.0131 2.40455 0.0784977
2 2 13.5319 1.93067 3.44074
207 1 10.6483 4.78416 13.5794
213 1 8.74973 5.36531 11.7351
212 1 7.85691 5.7656 9.30915
209 1 7.75527 5.90083 14.6801
36 2 6.22814 2.35678 10.6043
59 2 8.60537 2.09092 8.83565
208 1 5.62977 4.78754 13.51
62 2 8.6055 2.01094 14.1777
63 2 11.0707 2.39626 10.6888
68 2 6.34558 5.98689 8.76875
70 2 9.65346 4.26612 12.5079
71 2 6.25261 6.10088 14.1146
142 1 5.58532 3.65039 11.2448
175 1 12.4662 2.63754 15.3805
177 1 12.8619 0.798131 8.16663
178 1 8.09652 0.655966 8.33662
179 1 7.61052 2.74995 9.88953
183 1 12.98 0.760041 13.5471
184 1 8.09913 0.72183 13.4936
185 1 9.99417 1.87584 14.9311
186 1 7.56462 2.53585 15.2978
187 1 12.473 2.51878 9.98448
188 1 9.9747 1.97447 9.64409
189 1 11.1787 1.21907 11.7399
199 1 10.5808 4.86606 8.27941
200 1 5.66739 4.65779 8.25331
205 1 8.75456 3.08707 13.036
206 1 10.5597 3.76135 11.3336
30 2 6.11748 2.24575 15.92
61 2 12.0777 0.0868582 12.3728
8 2 13.3868 2.13029 14.2301
232 1 5.6583 11.9132 5.87666
227 1 3.8244 11.39 7.57311
42 2 3.7107 6.36148 5.34224
231 1 6.30394 9.54674 6.69556
51 2 1.3311 10.597 5.23806
230 1 5.22614 10.0021 4.21821
69 2 8.63076 6.36025 5.15654
73 2 7.04198 8.32727 1.68859
74 2 3.7703 10.2333 3.57388
229 1 7.62838 10.7493 4.73543
76 2 7.21487 8.33315 7.07764
78 2 6.14678 10.4869 5.40209
149 1 3.17994 7.85775 0.526539
154 1 0.707854 11.9835 0.647153
156 1 3.22841 7.7713 5.89542
162 1 0.684206 11.8616 5.88342
194 1 5.19773 6.33071 4.69106
202 1 10.0769 6.73511 4.61178
214 1 6.18225 7.1611 2.33361
215 1 7.87768 7.72559 0.464439
216 1 8.02554 8.99465 2.78863
217 1 3.00384 8.97616 2.8954
218 1 3.80356 11.283 2.39698
219 1 2.78495 10.8688 4.64443
221 1 6.11249 9.60342 1.1675
222 1 5.56665 11.9338 0.63432
20 2 8.59936 10.274 3.52818
224 1 7.93868 7.67041 5.77232
223 1 6.4045 7.1272 7.67213
75 2 6.16545 10.6598 0.0133889
243 1 5.68904 11.8139 11.2502
39 2 3.80675 6.50938 15.9598
45 2 3.84334 6.50919 10.4811
54 2 1.43323 10.6107 10.5834
72 2 8.73818 6.38253 10.5433
77 2 3.77675 10.2854 8.73201
79 2 7.1611 8.34076 12.3391
80 2 3.68184 10.4595 14.1789
81 2 6.14896 10.4689 10.5719
164 1 3.3171 7.77831 11.2699
171 1 0.922595 12.0307 11.1433
195 1 10.1369 6.64575 15.4128
201 1 5.35417 6.51297 9.91098
210 1 5.28958 6.54879 15.3418
211 1 10.2004 6.73194 9.99983
220 1 7.68796 10.7593 15.3987
225 1 8.30387 8.86904 8.15479
226 1 3.10387 8.97935 8.19512
228 1 2.87092 10.7693 9.94246
233 1 6.23366 7.22458 12.9997
234 1 8.04649 7.76057 11.0876
235 1 8.01281 9.04644 13.4276
236 1 3.17377 9.07356 13.651
237 1 5.16254 10.2923 14.7237
238 1 3.75449 11.4943 12.9922
239 1 2.69704 10.9331 15.3652
240 1 7.64145 10.6168 9.96457
241 1 5.27444 9.96443 9.28117
242 1 6.14079 9.30807 11.6235
26 2 8.53485 10.2914 14.1513
66 2 8.61313 6.44347 15.936
48 2 1.20738 10.6496 15.9607
ITEM: TIMESTEP
100
ITEM: NUMBER OF ATOMS
243
ITEM: BOX BOUNDS xy xz yz pp pp pp
-7.3456000000000001e+00 1.4691300000000000e+01 -7.3456000000000001e+00
0.0000000000000000e+00 1.2468540000000001e+01 0.0000000000000000e+00
0.0000000000000000e+00 1.5963100000000001e+01 0.0000000000000000e+00
ITEM: ATOMS id type x y z
38 2 1.4128 6.12133 3.57683
134 1 3.71119 5.39519 1.23658
140 1 3.83283 5.41973 6.57985
6 2 1.30622 2.20682 5.20834
10 2 -0.249098 4.28745 1.75313
13 2 -0.213029 4.1938 7.05151
139 1 2.7684 5.96511 4.36445
29 2 3.81079 1.88675 3.4678
135 1 3.73831 3.06006 7.50801
37 2 4.58072 4.13455 1.69321
1 2 2.24224 0.0815115 1.69737
40 2 4.77023 4.17528 7.00402
82 1 1.24992 1.22895 1.11928
83 1 0.323147 1.69393 4.04466
84 1 1.42026 1.16926 6.38041
88 1 -1.06989 3.07348 2.38295
89 1 0.681131 3.71791 0.572874
90 1 -1.14348 5.50485 1.21876
91 1 -1.24344 3.06448 7.65761
92 1 0.676642 3.5549 5.83761
93 1 -2.23329 5.9758 4.11784
94 1 -0.926414 5.47062 6.31031
118 1 3.25705 0.569066 2.79514
119 1 2.82535 2.36995 4.6451
120 1 6.2877 1.21284 1.09629
123 1 5.33012 1.75318 4.02109
124 1 6.14854 1.29311 6.47423
130 1 3.70257 2.98456 2.31406
132 1 0.679215 4.8353 2.9639
28 2 7.14592 0.0376352 1.77848
31 2 7.12891 0.123401 6.99045
4 2 2.31495 0.068743 7.10867
2 2 -1.1285 1.99761 3.49117
8 2 -1.23612 2.16998 14.2531
9 2 1.38464 2.35723 10.6159
16 2 -0.127325 4.32254 12.3746
32 2 3.76241 2.09236 8.77448
41 2 1.29901 6.16258 8.78559
35 2 3.78711 2.07861 14.1319
147 1 3.73315 5.36596 11.7067
43 2 4.73685 4.27182 12.3142
3 2 1.3057 2.34107 15.9274
85 1 0.255997 1.8561 14.8232
86 1 0.400614 1.96274 9.41003
87 1 1.3721 1.20611 11.7213
95 1 -1.04096 3.14848 12.9974
96 1 0.786931 3.7071 11.2313
97 1 -2.08675 6.14454 14.8563
98 1 -2.08934 5.91145 9.46762
99 1 -1.06154 5.42808 11.7906
121 1 3.18139 0.641548 8.30797
122 1 2.83136 2.62177 9.99094
125 1 3.17224 0.702828 13.5284
126 1 5.3134 1.82485 14.7234
127 1 2.82937 2.52879 15.3063
128 1 5.1782 1.98992 9.48434
129 1 6.3677 1.31928 11.7086
137 1 0.657947 4.80592 8.22226
141 1 3.86704 3.03171 12.9005
143 1 0.790984 4.89467 13.5817
144 1 2.75907 6.05902 14.7616
146 1 2.8217 6.17585 9.3597
7 2 2.30854 0.0941924 12.3357
17 2 -3.59934 6.16128 14.2728
5 2 -1.1261 2.03684 8.88523
34 2 7.1744 0.134186 12.3094
49 2 2.18267 8.36822 6.92377
15 2 -1.1432 6.56986 5.12939
19 2 -2.67102 8.51585 1.7803
161 1 1.23188 9.61299 6.48033
22 2 -2.53927 8.49169 7.04181
24 2 -3.51863 10.6675 5.29737
46 2 2.2705 8.43672 1.68452
47 2 -1.11082 10.3048 3.57115
160 1 0.367192 10.1605 4.18251
100 1 -3.69573 7.33276 2.30671
101 1 -1.64613 7.94919 0.679408
102 1 -6.01969 11.3446 2.2289
103 1 -3.45667 9.7794 1.21357
104 1 -4.25078 12.0457 0.404508
105 1 -3.44651 7.29017 7.60273
106 1 -1.68458 7.97373 5.79354
107 1 -5.76632 11.1858 7.60855
108 1 -4.64262 10.2614 4.19655
109 1 -3.49794 9.70039 6.61493
110 1 -4.06381 11.9795 5.94386
133 1 0.342488 6.7966 4.62304
148 1 1.47725 7.21941 2.39841
150 1 -1.76129 8.95294 3.00384
151 1 -1.15843 11.4122 2.43241
152 1 -2.04299 10.8548 4.73795
153 1 1.29816 9.60581 1.16605
155 1 1.25515 7.19917 7.5438
158 1 -1.04789 11.4935 7.83993
12 2 -1.05576 6.56948 0.0315724
20 2 -6.05691 10.3162 3.46655
18 2 -1.11869 6.51573 10.5829
25 2 -2.6493 8.29663 12.429
27 2 -3.57139 10.5763 10.6532
50 2 -1.03155 10.2827 8.92373
21 2 -3.58258 10.6634 15.8297
53 2 -1.11792 10.3029 14.019
111 1 -3.5783 7.16447 13.0289
112 1 -1.74052 7.76958 11.2171
113 1 -4.63491 9.9845 14.873
114 1 -5.91879 11.4233 13.0687
115 1 -4.67872 10.0287 9.60067
116 1 -3.454 9.55907 11.8926
117 1 -4.05995 11.9859 11.2124
138 1 0.362092 6.66228 10.0178
145 1 0.349199 6.71807 15.3112
157 1 -1.54298 8.93774 8.26236
159 1 -2.04377 10.7343 10.1071
163 1 1.46256 7.3255 12.9545
165 1 -1.70803 8.91909 13.5759
166 1 0.272902 10.2359 14.7571
167 1 -1.00824 11.2921 12.7626
168 1 -2.1352 10.9016 15.0937
169 1 0.46801 10.1447 9.48261
170 1 1.57608 9.49031 11.7562
44 2 1.32142 6.25216 14.1556
14 2 -3.57786 6.25306 8.80746
65 2 6.21467 6.02554 3.44048
204 1 8.68443 5.33056 6.4332
196 1 8.41064 5.40605 1.21294
33 2 6.20961 2.34023 5.27287
203 1 7.65044 5.8366 4.01475
56 2 8.66446 1.98367 3.55052
197 1 8.98054 2.96759 7.57143
198 1 10.7338 3.83308 5.86401
60 2 11.1654 2.43534 5.21648
64 2 9.40506 4.29794 1.8318
55 2 12.0421 0.0617066 1.8058
67 2 9.69955 4.27972 7.01393
131 1 5.47661 3.69483 0.474538
136 1 5.62923 3.73533 5.69551
172 1 12.9383 0.666619 2.99399
173 1 8.10793 0.585748 2.94319
174 1 7.7128 2.43474 4.78675
176 1 11.0744 1.1342 1.21504
180 1 12.69 2.6096 4.66747
181 1 10.177 1.82682 4.0967
182 1 11.2125 1.30045 6.4312
190 1 8.61271 3.05331 2.41239
191 1 10.3772 3.6639 0.714804
192 1 10.4136 4.87678 2.89431
193 1 5.54538 4.69894 2.86387
58 2 12.0686 0.144776 7.0907
57 2 10.9607 2.31795 0.0827915
11 2 11.007 6.20887 3.48774
207 1 10.4135 4.76959 13.8213
213 1 8.89097 5.40943 11.8175
212 1 7.81251 5.85086 9.38084
209 1 7.77662 6.06242 14.6428
36 2 6.25378 2.40341 10.5733
59 2 8.74873 1.97153 8.7545
208 1 5.55437 4.90272 13.5389
62 2 8.643 1.97521 14.1604
63 2 11.088 2.30739 10.6322
68 2 6.29705 5.97688 8.7321
70 2 9.74948 4.2289 12.4785
71 2 6.18711 6.17915 14.2321
142 1 5.75327 3.76694 11.2096
175 1 12.4354 2.64217 15.3848
177 1 12.9825 0.691932 8.32728
178 1 8.19672 0.638476 8.08022
179 1 7.64713 2.50735 9.78332
183 1 12.9077 0.755696 13.7275
184 1 7.99517 0.66282 13.5857
185 1 10.068 1.66435 14.9034
186 1 7.68717 2.6443 15.2967
187 1 12.502 2.5823 9.92947
188 1 10.1173 1.70755 9.54269
189 1 11.3013 1.21288 11.7266
199 1 10.4464 4.9442 8.23886
200 1 5.84434 4.56709 8.1357
205 1 8.95414 2.97389 12.9917
206 1 10.6887 3.72234 11.3056
30 2 6.21922 2.38099 15.9098
61 2 12.2075 0.103697 12.4051
232 1 5.61335 12.0013 5.89121
227 1 3.82115 11.3863 7.54637
42 2 3.86068 6.47707 5.38785
231 1 6.34452 9.57773 6.46921
51 2 1.34579 10.6558 5.28774
230 1 5.12788 10.1486 4.24168
69 2 8.53306 6.41808 5.22117
73 2 7.1456 8.33213 1.71014
74 2 3.73564 10.2581 3.54003
229 1 7.54692 10.747 4.58021
76 2 7.17672 8.30499 7.02908
78 2 6.11499 10.6117 5.37433
149 1 3.18035 7.81887 0.538747
154 1 0.723128 12.0221 0.612881
156 1 3.26496 7.89378 5.89188
162 1 0.71743 12.0032 5.80981
194 1 5.31516 6.66891 4.64088
202 1 10.0657 6.57771 4.72995
214 1 6.21742 7.15684 2.27577
215 1 8.13638 7.80828 0.602935
216 1 8.06208 8.89989 2.88751
217 1 3.18825 8.93392 2.84981
218 1 3.80791 11.3224 2.37215
219 1 2.84397 10.7366 4.75797
221 1 6.16223 9.49344 1.06665
222 1 5.64737 11.984 0.634287
223 1 6.32825 7.11294 7.5928
224 1 8.10434 7.82922 5.79585
243 1 5.79766 11.9822 11.2655
52 2 2.49405 8.38491 12.3962
45 2 3.85254 6.4966 10.5615
54 2 1.43704 10.6978 10.6345
72 2 8.73865 6.38301 10.5789
77 2 3.76904 10.3155 8.73336
79 2 7.08116 8.27234 12.3658
80 2 3.77665 10.333 14.217
81 2 6.19322 10.6405 10.5559
164 1 3.45475 7.87076 11.1779
171 1 0.865316 12.0533 11.2615
195 1 10.173 6.5685 15.5328
201 1 5.30294 6.51396 9.88246
210 1 5.30923 6.6139 15.4715
211 1 10.1447 6.74985 9.93954
220 1 7.5969 10.76 15.2455
225 1 8.19664 8.77599 8.189
226 1 3.156 8.97621 8.0679
228 1 2.87717 10.7684 9.9522
233 1 6.09623 7.16511 12.9802
234 1 7.99928 7.6013 11.2522
235 1 7.96921 8.99551 13.4425
236 1 3.27894 8.95763 13.6511
237 1 5.19418 10.1106 14.8243
238 1 3.92494 11.4008 12.9855
239 1 2.73311 10.7422 15.3085
240 1 7.62123 10.7904 9.76618
241 1 5.22456 10.1352 9.38346
242 1 6.31992 9.48229 11.6437
26 2 8.60795 10.2183 14.1752
66 2 8.58174 6.44225 15.9573
48 2 1.29571 10.6956 15.9208
23 2 8.67873 10.1583 8.79521
75 2 6.20108 10.6252 15.9454
39 2 3.78206 6.44525 15.9407
ITEM: TIMESTEP
200
ITEM: NUMBER OF ATOMS
243
ITEM: BOX BOUNDS xy xz yz pp pp pp
-7.3456000000000001e+00 1.4691300000000000e+01 -7.3456000000000001e+00
0.0000000000000000e+00 1.2468540000000001e+01 0.0000000000000000e+00
0.0000000000000000e+00 1.5963100000000001e+01 0.0000000000000000e+00
ITEM: ATOMS id type x y z
38 2 1.27148 6.20775 3.48865
134 1 3.60071 5.30194 1.09427
140 1 3.93146 5.51345 6.5258
6 2 1.33581 2.2957 5.24332
10 2 -0.183537 4.30141 1.74026
13 2 -0.17038 4.26541 7.01449
139 1 2.67238 5.85094 4.22464
29 2 3.7887 1.89429 3.48074
135 1 3.7143 3.07685 7.56401
37 2 4.60826 4.14539 1.62258
1 2 2.18598 0.0525629 1.59564
40 2 4.66472 4.16767 6.98429
82 1 1.27248 1.28434 1.13444
83 1 0.403913 1.89699 4.00142
84 1 1.32263 1.19261 6.45052
88 1 -1.12409 3.19695 2.44842
89 1 0.719056 3.73598 0.60796
90 1 -1.04544 5.49729 1.1323
91 1 -1.09905 3.05073 7.61258
92 1 0.739157 3.63005 5.8544
93 1 -2.16077 6.09099 4.07201
94 1 -1.08754 5.43278 6.41358
118 1 3.10719 0.572826 2.85725
119 1 2.85555 2.3878 4.66088
120 1 6.31221 1.30515 1.18605
123 1 5.2724 1.66914 4.00673
124 1 6.29175 1.2823 6.4512
130 1 3.88906 2.95432 2.3133
132 1 0.846431 4.80021 2.86865
28 2 7.18527 0.0841712 1.69529
31 2 7.21517 0.0810846 7.0527
4 2 2.29677 0.0808974 7.1098
2 2 -1.10893 2.03463 3.54585
3 2 1.26666 2.40103 0.0205249
17 2 -3.49922 6.14756 14.2018
9 2 1.27985 2.39384 10.5586
16 2 -0.214524 4.29776 12.3837
32 2 3.76834 2.03453 8.80649
41 2 1.32213 6.0936 8.80527
35 2 3.67821 2.03145 14.1025
147 1 3.90692 5.46463 11.8653
34 2 7.20051 0.0942964 12.4091
7 2 2.23345 0.0870843 12.3159
85 1 0.232986 1.90895 14.8288
86 1 0.318017 1.85524 9.40944
87 1 1.37894 1.29622 11.6875
95 1 -1.11784 3.18946 13.0961
96 1 0.667074 3.69695 11.2216
97 1 -2.01973 6.07191 14.8115
98 1 -2.05475 5.98905 9.34942
99 1 -0.978814 5.55888 11.8234
121 1 3.08294 0.640248 8.34647
122 1 2.73983 2.58199 9.91314
125 1 3.0951 0.652333 13.5099
126 1 5.09916 1.7491 14.8494
127 1 2.55933 2.66599 15.0761
128 1 5.30145 1.89625 9.36501
129 1 6.33403 1.24608 11.7683
137 1 0.878002 4.71311 8.10388
141 1 3.94537 3.04156 12.8999
143 1 0.730383 4.92446 13.5426
144 1 2.82263 6.14072 14.68
146 1 2.74407 5.82895 9.42859
14 2 -3.59158 6.23318 8.9305
49 2 2.18624 8.39508 7.06522
15 2 -1.15266 6.51721 5.24069
19 2 -2.65392 8.46865 1.86312
161 1 1.28288 9.55379 6.42187
22 2 -2.62623 8.38665 7.12398
24 2 -3.55352 10.7183 5.33196
11 2 -3.67473 6.25196 3.53203
47 2 -1.20467 10.4252 3.52183
160 1 0.263481 10.1435 4.06979
100 1 -3.69746 7.37281 2.34118
101 1 -1.70185 8.0148 0.65838
102 1 -5.91918 11.2654 2.14804
103 1 -3.37694 9.66722 1.16244
104 1 -4.25629 11.9932 0.431984
105 1 -3.60747 7.28836 7.74085
106 1 -1.72805 7.85411 5.94464
107 1 -5.90926 11.2691 7.59225
108 1 -4.52088 10.1747 4.16225
109 1 -3.51063 9.57634 6.50762
110 1 -3.96732 12.0884 5.95317
133 1 0.231378 6.75546 4.54526
148 1 1.40665 7.15416 2.1867
150 1 -1.85479 9.02933 3.10149
151 1 -1.12285 11.3626 2.23846
152 1 -2.12381 10.8976 4.73319
153 1 1.42967 9.51925 1.13949
155 1 1.36172 7.13592 7.61154
158 1 -1.00242 11.3212 7.55112
12 2 -1.07869 6.61358 0.0417861
20 2 -5.90933 10.3182 3.41464
18 2 -1.11477 6.49622 10.5168
25 2 -2.62447 8.35628 12.39
27 2 -3.57369 10.505 10.5918
50 2 -1.09933 10.3629 8.86622
21 2 -3.5942 10.6596 15.8979
53 2 -1.15077 10.2973 14.1011
111 1 -3.54876 7.1636 12.9189
112 1 -1.69451 7.86974 11.0695
113 1 -4.54223 10.0495 14.8509
114 1 -5.96924 11.3651 12.932
115 1 -4.56123 10.0056 9.46434
116 1 -3.51645 9.50261 11.7907
117 1 -4.22692 11.845 11.1778
138 1 0.341491 6.60018 9.947
145 1 0.351026 6.79364 15.2596
157 1 -1.62421 8.95634 8.26199
159 1 -2.19439 10.9559 9.88965
163 1 1.47064 7.20225 12.8274
165 1 -1.61318 8.86632 13.4884
166 1 0.273829 10.1659 14.7993
167 1 -1.05256 11.3642 12.8752
168 1 -2.24095 10.9244 15.1233
169 1 0.347921 10.2731 9.55364
23 2 -5.99374 10.1774 8.80728
44 2 1.3024 6.26795 14.121
52 2 2.38451 8.3894 12.3213
26 2 -6.00578 10.2804 14.1726
170 1 1.52483 9.64797 11.8677
65 2 6.18167 6.10222 3.46642
204 1 8.57477 5.37346 6.3979
196 1 8.67386 5.34526 1.07526
33 2 6.18648 2.27933 5.1887
203 1 7.6192 5.92418 4.04688
56 2 8.62753 1.971 3.49813
197 1 8.87353 3.092 7.70427
198 1 10.5178 3.8396 5.72605
60 2 11.1307 2.39503 5.22995
64 2 9.5215 4.22091 1.80814
55 2 12.0704 0.0379775 1.80986
67 2 9.59339 4.32281 7.00564
131 1 5.52791 3.66167 0.44831
136 1 5.52679 3.62116 5.76048
172 1 12.9842 0.679093 2.94502
173 1 8.145 0.541259 2.9273
174 1 7.66016 2.50657 4.69423
176 1 11.1638 1.12805 1.16356
180 1 12.6399 2.45092 4.70697
181 1 10.1464 1.89997 4.06071
182 1 11.1556 1.23714 6.40808
190 1 8.55307 3.05126 2.37766
191 1 10.4009 3.59233 0.661702
192 1 10.3704 4.9281 2.95891
193 1 5.59527 4.8011 2.78515
58 2 12.0943 0.0749641 7.05634
57 2 11.0666 2.29505 0.044733
207 1 10.6819 4.71314 13.7185
213 1 8.94183 5.35521 11.7796
212 1 7.7023 5.7743 9.51417
209 1 7.75483 6.06138 14.7222
36 2 6.22831 2.3535 10.5823
59 2 8.6803 2.0263 8.84332
208 1 5.74201 4.82403 13.6003
62 2 8.65558 1.94612 14.2124
63 2 11.1846 2.34009 10.6137
68 2 6.30379 5.94435 8.74322
70 2 9.76203 4.17577 12.517
61 2 12.1628 0.116343 12.3464
142 1 5.85318 3.75499 11.2185
175 1 12.5121 2.65616 15.4214
177 1 12.8699 0.643472 8.29378
178 1 8.13824 0.624525 8.27447
179 1 7.70099 2.57916 10.007
183 1 13.0682 0.69809 13.5259
184 1 8.02752 0.588257 13.6755
185 1 10.1323 1.83501 14.7958
186 1 7.5929 2.56294 15.2287
187 1 12.622 2.51477 10.0037
188 1 10.1124 1.96024 9.4941
189 1 11.1549 1.25624 11.8352
199 1 10.4837 5.01178 8.05966
200 1 5.7262 4.61267 8.01431
205 1 8.67977 3.12105 13.0677
206 1 10.731 3.65934 11.3772
30 2 6.19196 2.30536 15.8822
43 2 4.87394 4.26286 12.3951
71 2 6.21261 6.21713 14.2713
8 2 13.4367 2.11947 14.2156
5 2 13.4905 2.01704 8.79493
232 1 5.75792 12.0397 5.91194
227 1 3.71696 11.4425 7.55109
42 2 3.71513 6.47197 5.2719
231 1 6.35983 9.65499 6.55399
51 2 1.21462 10.6288 5.22546
230 1 5.1862 10.1525 4.32871
69 2 8.52686 6.45371 5.21726
73 2 7.18304 8.46578 1.73833
74 2 3.79886 10.2712 3.59741
229 1 7.65099 10.8566 4.39206
76 2 7.18029 8.35016 7.03805
78 2 6.30462 10.6838 5.29014
149 1 3.35251 7.94177 0.589527
154 1 0.777202 11.9901 0.521357
156 1 3.01586 7.82103 5.84699
162 1 0.695003 11.9749 5.80643
194 1 5.13531 6.6088 4.60296
202 1 9.97262 6.84756 4.59732
214 1 6.25353 7.33029 2.43916
215 1 7.97271 7.79811 0.501726
216 1 8.22187 8.8766 2.88577
217 1 3.20721 8.79999 3.09174
218 1 3.81683 11.2664 2.30048
219 1 2.68295 10.8826 4.64014
221 1 6.25571 9.67532 1.20382
222 1 5.64152 12.0124 0.565183
223 1 6.47135 7.05039 7.61965
224 1 7.96365 7.83518 5.75979
46 2 2.38879 8.42171 1.78708
243 1 5.6893 11.9796 11.1806
75 2 6.22107 10.6095 15.9023
45 2 3.78237 6.38306 10.5639
54 2 1.45707 10.7167 10.6455
72 2 8.61463 6.41707 10.6489
77 2 3.72625 10.3481 8.74026
79 2 7.1772 8.43668 12.393
80 2 3.80354 10.3012 14.1859
81 2 6.19602 10.6434 10.4796
164 1 3.2848 7.81518 11.121
171 1 0.839006 12.1 11.2812
195 1 10.2008 6.70038 15.3835
201 1 5.19217 6.35978 9.81739
210 1 5.3165 6.57887 15.4968
211 1 10.101 6.69552 10.0671
220 1 7.69949 10.7866 15.3279
225 1 8.12631 8.784 8.24228
226 1 3.04256 8.9575 8.27219
228 1 2.87624 10.9477 9.94012
233 1 6.19167 7.35897 13.1268
234 1 7.86931 7.66182 11.2409
235 1 8.12532 8.95507 13.5489
236 1 3.30334 8.89436 13.5327
237 1 5.26025 10.0342 14.7857
238 1 4.02952 11.4017 13.0541
239 1 2.74011 10.7964 15.2163
240 1 7.71239 10.8217 9.895
241 1 5.23248 10.157 9.30663
242 1 6.43753 9.63118 11.6587
39 2 3.78366 6.51998 15.9334
66 2 8.68058 6.47183 15.9262
48 2 1.31222 10.5819 15.9256
ITEM: TIMESTEP
300
ITEM: NUMBER OF ATOMS
243
ITEM: BOX BOUNDS xy xz yz pp pp pp
-7.3456000000000001e+00 1.4691300000000000e+01 -7.3456000000000001e+00
0.0000000000000000e+00 1.2468540000000001e+01 0.0000000000000000e+00
0.0000000000000000e+00 1.5963100000000001e+01 0.0000000000000000e+00
ITEM: ATOMS id type x y z
2 2 -1.0736 1.97136 3.48233
134 1 3.70961 5.3115 0.97833
140 1 3.78037 5.29732 6.25625
6 2 1.40592 2.3328 5.27228
10 2 -0.256191 4.29106 1.73592
13 2 -0.137704 4.17957 7.01848
139 1 2.76561 6.01556 4.04707
29 2 3.88899 1.97058 3.4777
135 1 3.84716 3.01543 7.58704
37 2 4.67357 4.24263 1.62832
1 2 2.30021 0.113 1.67259
40 2 4.72016 4.1834 6.93569
82 1 1.45646 1.33871 1.07166
83 1 0.35254 1.8121 4.13618
84 1 1.34324 1.41306 6.61437
88 1 -1.02703 3.02669 2.26826
89 1 0.648266 3.80167 0.492983
90 1 -1.08912 5.47204 1.12674
91 1 -1.0676 3.08062 7.7155
92 1 0.78474 3.6454 5.86544
93 1 -2.19125 5.91355 4.0576
94 1 -1.05288 5.33706 6.40251
118 1 3.18729 0.689895 2.88005
119 1 2.86472 2.53074 4.5477
120 1 6.19714 1.26433 1.26783
123 1 5.2228 1.52586 4.17629
124 1 6.38811 1.2748 6.57567
130 1 3.92223 2.98839 2.28955
132 1 0.638694 4.87943 2.93924
28 2 7.229 0.0926071 1.69272
31 2 7.22601 0.0500686 7.14332
4 2 2.17517 0.155678 7.12257
17 2 -3.5788 6.23025 14.1964
9 2 1.30843 2.29431 10.5731
16 2 -0.237374 4.3006 12.356
32 2 3.72808 2.05384 8.88239
41 2 1.32173 6.06633 8.77966
35 2 3.7341 2.01329 14.1196
147 1 3.90806 5.46215 11.7684
34 2 7.21887 0.0952904 12.3887
7 2 2.27253 0.0469634 12.428
85 1 0.320297 1.9367 14.7076
86 1 0.369173 1.64511 9.39019
87 1 1.45518 1.19257 11.6865
95 1 -1.24133 3.29971 13.1448
96 1 0.531419 3.53011 11.2007
5 2 -1.10024 1.92039 8.86886
98 1 -2.14594 6.04571 9.40262
99 1 -1.12211 5.34039 11.6022
121 1 3.15739 0.692562 8.29637
122 1 2.77739 2.6218 10.0317
125 1 3.3361 0.57123 13.4902
126 1 5.13898 1.75674 14.8298
127 1 2.76141 2.4309 15.3075
128 1 5.13886 1.83593 9.56054
129 1 6.31711 1.33358 11.8353
137 1 0.672294 4.72379 8.21461
141 1 3.85575 3.09675 12.954
143 1 0.789075 4.91996 13.4472
144 1 2.93378 6.15295 14.5519
146 1 2.82456 5.92983 9.35487
14 2 -3.6069 6.18222 8.82842
8 2 -1.23515 2.13712 14.204
3 2 1.26705 2.42883 15.9044
97 1 -2.12313 6.1002 14.7928
44 2 1.37519 6.20087 14.1011
43 2 4.81288 4.26799 12.3796
49 2 2.12169 8.48047 7.14512
15 2 -1.27623 6.43121 5.26334
19 2 -2.68198 8.42538 1.6776
161 1 1.23769 9.64209 6.44034
22 2 -2.66509 8.40507 7.12513
24 2 -3.56711 10.7613 5.27993
20 2 -5.93549 10.3285 3.44149
47 2 -1.16146 10.3304 3.44384
160 1 0.254034 10.2047 4.05901
100 1 -3.60862 7.19879 2.30305
101 1 -1.64738 7.8216 0.627292
102 1 -5.89609 11.3468 2.22656
103 1 -3.64569 9.52656 1.00166
104 1 -4.02027 12.074 0.515738
105 1 -3.59534 7.22329 7.63448
106 1 -1.84711 7.78611 5.92159
107 1 -6.01965 11.3557 7.60853
108 1 -4.52168 10.1862 4.16932
109 1 -3.37892 9.7356 6.49124
110 1 -4.21399 12.0497 5.9374
133 1 0.179299 6.75328 4.63092
148 1 1.39526 7.27972 2.34836
150 1 -1.81375 9.01886 2.89622
151 1 -0.946192 11.2877 2.20657
152 1 -2.20589 10.9993 4.49144
153 1 1.43371 9.66983 1.11895
155 1 1.32779 7.23061 7.71279
158 1 -1.049 11.4333 7.71474
46 2 2.26375 8.46156 1.74194
38 2 1.25456 6.24443 3.53594
18 2 -1.13447 6.48423 10.4896
25 2 -2.65567 8.39491 12.2411
27 2 -3.61972 10.6086 10.4929
50 2 -1.17611 10.3271 8.88123
21 2 -3.50698 10.664 15.8405
53 2 -1.01223 10.2963 14.1147
111 1 -3.47849 7.12636 12.8365
112 1 -1.72148 7.83901 11.0434
113 1 -4.44417 10.2579 14.6409
114 1 -6.09545 11.4913 13.1
115 1 -4.5125 10.146 9.31097
116 1 -3.63548 9.4828 11.6121
117 1 -4.2739 11.9222 11.1549
138 1 0.310895 6.65755 9.84167
145 1 0.468583 6.75623 15.2725
157 1 -1.65466 8.89161 8.33256
159 1 -2.13998 10.8033 10.0324
163 1 1.40512 7.30275 12.9046
165 1 -1.7506 9.02483 13.3985
166 1 0.450911 10.0593 14.7451
167 1 -1.0334 11.3722 12.9181
168 1 -2.01082 10.726 15.3031
169 1 0.249292 10.2978 9.55679
170 1 1.50582 9.68559 11.6792
26 2 -6.00681 10.2744 14.131
52 2 2.33526 8.42587 12.1884
23 2 -6.02422 10.2553 8.81483
12 2 -1.0198 6.4966 15.8881
65 2 6.07604 6.22795 3.53893
204 1 8.72154 5.4263 6.46679
196 1 8.64741 5.55165 1.19732
33 2 6.22911 2.16278 5.28518
203 1 7.57704 5.97929 4.12227
56 2 8.68141 2.11022 3.48907
197 1 8.6187 3.08028 7.52168
198 1 10.5257 3.69625 5.83688
60 2 11.1316 2.37934 5.19985
64 2 9.52644 4.34739 1.76962
55 2 12.0272 0.0709341 1.70497
67 2 9.66684 4.25326 7.02049
131 1 5.69231 3.67109 0.575668
136 1 5.51081 3.53709 5.71624
172 1 12.9543 0.645752 2.86205
173 1 8.1646 0.700263 2.91901
174 1 7.64335 2.38651 4.64497
176 1 11.1469 1.32162 1.29625
180 1 12.6532 2.4424 4.64588
181 1 10.1637 1.89813 4.02026
182 1 11.1334 1.31943 6.41921
190 1 8.61639 3.16857 2.33006
191 1 10.4648 3.69088 0.701492
192 1 10.3399 4.90598 3.00814
193 1 5.46792 5.00563 2.76564
58 2 12.076 0.119025 6.94054
57 2 11.0721 2.37931 0.0617997
207 1 10.6219 4.79517 13.738
213 1 8.73063 5.40931 12.0055
212 1 7.69771 5.75778 9.49489
209 1 7.72394 6.02696 14.6961
36 2 6.24732 2.34615 10.58
59 2 8.79088 2.05494 8.78544
208 1 5.68775 4.90722 13.536
62 2 8.67521 1.90363 14.2059
63 2 11.231 2.34517 10.6667
68 2 6.28108 6.03407 8.76789
70 2 9.70853 4.23451 12.5074
61 2 12.1198 0.112663 12.3813
142 1 5.73014 3.73658 11.1803
175 1 12.5039 2.58433 15.4146
177 1 12.9281 0.662867 8.12185
178 1 8.28257 0.614717 8.25633
179 1 7.71075 2.48694 9.91455
183 1 12.9477 0.732042 13.5679
184 1 8.16783 0.531938 13.544
185 1 10.1747 1.72562 14.8495
186 1 7.6738 2.24582 15.3662
187 1 12.706 2.38998 10.0638
188 1 10.1826 1.83732 9.54098
189 1 11.2672 1.29569 11.8237
199 1 10.5673 4.75151 8.26534
200 1 5.58321 4.73304 8.06581
205 1 8.79171 3.00899 13.0258
206 1 10.6037 3.69504 11.2997
30 2 6.17141 2.2537 15.9478
232 1 5.70355 12.0552 5.80491
227 1 3.88181 11.3335 7.44613
42 2 3.64986 6.55233 5.26747
231 1 6.34069 9.62338 6.51057
51 2 1.26589 10.6475 5.20999
230 1 5.17682 10.0787 4.19915
69 2 8.57795 6.48654 5.23771
73 2 7.21554 8.4293 1.75114
74 2 3.75088 10.4015 3.52873
229 1 7.68918 10.7013 4.58215
76 2 7.20517 8.38084 7.07692
78 2 6.23128 10.6277 5.2553
149 1 3.20285 7.79676 0.594254
154 1 0.837026 12.0423 0.522041
156 1 3.01725 7.8497 5.96416
162 1 0.744118 11.955 5.90548
194 1 5.13643 6.71423 4.73525
202 1 10.0559 6.63437 4.8076
214 1 6.22511 7.34759 2.3919
215 1 8.0883 7.93549 0.520404
216 1 8.25266 8.90953 2.88088
217 1 3.13681 9.09463 2.85684
218 1 3.75236 11.3815 2.3079
219 1 2.69635 10.9166 4.63519
221 1 6.39152 9.69871 1.2185
222 1 5.52496 11.9871 0.467152
223 1 6.33912 7.18095 7.64297
224 1 8.04967 7.88573 5.79878
11 2 11.005 6.2434 3.5716
243 1 5.68727 11.9983 11.1614
75 2 6.18682 10.6545 15.9088
45 2 3.87115 6.50296 10.4946
54 2 1.38774 10.8167 10.5506
72 2 8.62781 6.34649 10.6611
77 2 3.81563 10.3902 8.69859
79 2 7.14616 8.45007 12.3279
80 2 3.80576 10.3032 14.1297
81 2 6.19691 10.6245 10.5932
164 1 3.32008 7.89459 11.0425
171 1 0.879787 12.1059 11.2752
195 1 10.0991 6.71552 15.3284
201 1 5.33 6.71297 9.89456
210 1 5.36412 6.69701 15.3995
211 1 10.0436 6.60808 9.89094
220 1 7.65282 10.7916 15.2376
225 1 8.2398 8.83841 8.18715
226 1 3.07852 9.05273 8.24683
228 1 2.78446 10.9548 9.76013
233 1 6.15736 7.42759 13.0263
234 1 7.90258 7.65099 11.2023
235 1 8.24346 8.92091 13.412
236 1 3.25199 8.99543 13.4196
237 1 5.1862 10.0695 14.8571
238 1 3.91223 11.3879 12.9774
239 1 2.90078 10.7865 15.3052
240 1 7.67255 10.702 9.98949
241 1 5.20678 10.0931 9.42858
242 1 6.26674 9.65062 11.807