ITEM: TIMESTEP
0
ITEM: NUMBER OF ATOMS
243
ITEM: BOX BOUNDS xy xz yz pp pp pp
-7.3456000000000001e+00 1.4691300000000000e+01 -7.3456000000000001e+00
0.0000000000000000e+00 1.2723000000000001e+01 0.0000000000000000e+00
0.0000000000000000e+00 1.5643838000000001e+01 0.0000000000000000e+00
ITEM: ATOMS id type x y z
11 2 -3.62022 6.32849 3.40005
134 1 3.80848 5.60684 1.23266
140 1 3.83201 5.44669 6.39883
6 2 1.15539 2.26868 5.17831
10 2 -0.113058 4.33944 1.76684
13 2 -0.209125 4.39146 6.90978
139 1 2.67489 6.08672 4.09106
29 2 3.69629 1.97808 3.38341
135 1 3.89757 2.99526 7.34272
37 2 4.64283 4.28258 1.62628
38 2 1.27377 6.33815 3.391
40 2 4.77334 4.2251 6.86501
82 1 1.4032 1.27219 1.11647
83 1 0.322367 1.77507 3.92742
84 1 1.30853 1.11839 6.25575
88 1 -0.918605 3.11365 2.30846
89 1 0.817731 3.82484 0.603228
90 1 -1.06612 5.50845 1.16443
91 1 -1.2461 3.33242 7.5535
92 1 0.699427 3.65968 5.8438
93 1 -2.07517 6.2646 3.86367
94 1 -1.08186 5.49987 6.14295
118 1 3.1134 0.607874 2.78722
119 1 2.65873 2.34053 4.52806
120 1 6.21271 1.27614 1.2108
123 1 5.15749 1.87638 3.98577
124 1 6.27829 1.2296 6.37688
130 1 3.82209 3.06872 2.26879
132 1 0.758326 4.89238 3.00591
28 2 7.17676 0.159098 1.75217
31 2 7.22727 0.057224 6.95787
4 2 2.26254 0.0667996 6.95141
1 2 2.24452 0.0105573 1.64342
44 2 1.42252 6.27512 13.9489
9 2 1.29719 2.34472 10.3494
16 2 -0.0982279 4.31133 12.2243
32 2 3.76011 2.05564 8.59196
17 2 -3.57131 6.27915 13.9345
35 2 3.75642 2.12867 13.8288
147 1 3.81206 5.48636 11.3522
43 2 4.65163 4.33669 12.1062
14 2 -3.5053 6.31761 8.69229
85 1 0.200709 1.92182 14.6048
86 1 0.206372 2.00579 9.28287
87 1 1.38772 1.12836 11.3581
95 1 -1.18901 3.30677 12.8414
96 1 0.879697 3.64812 11.1927
97 1 -2.06838 6.19378 14.5435
98 1 -2.01258 5.99989 9.25258
99 1 -0.951791 5.47037 11.588
121 1 3.12172 0.642885 8.13294
122 1 2.69575 2.61636 9.65581
125 1 3.24731 0.774469 13.1476
126 1 5.18479 1.86064 14.4797
127 1 2.73438 2.50097 14.9434
128 1 5.15536 1.94741 9.27995
129 1 6.41231 1.2516 11.3861
137 1 0.646457 4.99465 8.07599
141 1 3.74314 3.256 12.7491
143 1 0.828438 4.96605 13.3333
144 1 2.96112 6.08128 14.45
146 1 2.79284 6.23408 9.18817
7 2 2.30428 0.055382 12.1361
5 2 -1.24401 2.1845 8.61296
34 2 7.28114 0.0744356 12.041
3 2 1.29599 2.40193 15.6428
49 2 2.27197 8.52892 6.88233
15 2 -1.08239 6.67467 5.09119
19 2 -2.74382 8.65955 1.73296
161 1 1.37815 9.714 6.30757
22 2 -2.55715 8.64324 6.84157
24 2 -3.6363 10.8188 5.16852
46 2 2.22166 8.52649 1.63753
47 2 -1.18172 10.6356 3.40799
160 1 0.30126 10.3608 3.97227
100 1 -3.59829 7.35957 2.2087
101 1 -1.79108 7.90345 0.703614
102 1 -6.01634 11.6324 2.38391
103 1 -3.39582 9.96647 1.09288
104 1 -4.32456 12.1889 0.400974
105 1 -3.35865 7.36889 7.48471
106 1 -1.67747 8.02738 5.73967
107 1 -5.96189 11.5864 7.53491
108 1 -4.63759 10.1571 4.10096
109 1 -3.57365 9.69429 6.30299
110 1 -4.14756 12.1435 5.79687
133 1 0.326749 6.97308 4.50817
148 1 1.37393 7.29248 2.15854
150 1 -1.88556 9.23959 2.87654
151 1 -1.11823 11.7285 2.24549
152 1 -2.12009 11.024 4.60625
153 1 1.27264 9.65399 1.01103
155 1 1.27692 7.39254 7.42854
158 1 -1.03405 11.6513 7.56043
12 2 -1.07712 6.65041 0.0296361
18 2 -1.098 6.54798 10.4029
25 2 -2.57492 8.51186 12.1607
27 2 -3.55078 10.7679 10.4934
50 2 -1.0597 10.5408 8.68189
52 2 2.39183 8.52484 12.1893
53 2 -1.1457 10.6467 13.7376
111 1 -3.52946 7.42224 12.8103
112 1 -1.73947 7.8615 10.9605
113 1 -4.66073 10.1948 14.4957
114 1 -5.8113 11.5635 12.7864
115 1 -4.58391 10.3064 9.26992
116 1 -3.47926 9.73708 11.7128
117 1 -4.12326 12.1753 11.0314
138 1 0.333544 6.89614 9.78921
145 1 0.366419 6.79658 15.0418
157 1 -1.53103 9.21459 7.96934
159 1 -2.09228 10.8999 9.82899
163 1 1.50935 7.35138 12.7415
165 1 -1.63819 9.23703 13.2475
166 1 0.276795 10.4518 14.4382
167 1 -1.02837 11.6469 12.5678
168 1 -2.22904 11.1459 14.7604
169 1 0.398514 10.3362 9.30542
170 1 1.57787 9.76632 11.6033
23 2 -5.9945 10.4503 8.62598
21 2 -3.63586 10.8715 15.4904
41 2 1.3208 6.37715 8.646
65 2 6.16502 6.10989 3.35907
204 1 8.73633 5.41383 6.17944
196 1 8.55337 5.51786 1.11628
33 2 6.2263 2.31202 5.1812
203 1 7.6583 6.0124 3.90082
56 2 8.72066 2.09772 3.46497
197 1 8.77322 3.07837 7.4132
198 1 10.7469 3.84607 5.86638
60 2 11.1958 2.46092 5.20306
64 2 9.43923 4.38856 1.75505
55 2 11.989 0.0317123 1.76268
67 2 9.68063 4.37509 6.96127
131 1 5.58307 3.68424 0.520492
136 1 5.6446 3.66818 5.66731
172 1 12.8518 0.621368 2.97622
173 1 8.03286 0.729016 2.93606
174 1 7.6981 2.49418 4.65611
176 1 11.2092 1.34776 1.21521
180 1 12.6881 2.54804 4.58218
181 1 10.2478 2.05316 4.01581
182 1 11.1764 1.28884 6.29058
190 1 8.64544 3.18581 2.36561
191 1 10.3412 3.77071 0.649053
192 1 10.4301 4.97103 2.81528
193 1 5.61567 4.73398 2.78676
58 2 12.0318 0.109675 6.8039
57 2 11.0131 2.45362 0.0769278
2 2 13.5319 1.97007 3.37192
207 1 10.6483 4.88179 13.3078
213 1 8.74973 5.47481 11.5004
212 1 7.85691 5.88327 9.12296
209 1 7.75527 6.02126 14.3865
36 2 6.22814 2.40488 10.3922
59 2 8.60537 2.13359 8.65894
208 1 5.62977 4.88525 13.2398
62 2 8.6055 2.05198 13.8942
63 2 11.0707 2.44517 10.475
68 2 6.34558 6.10907 8.59337
70 2 9.65346 4.35318 12.2578
71 2 6.25261 6.22539 13.8323
142 1 5.58532 3.72489 11.0199
175 1 12.4662 2.69136 15.0729
177 1 12.8619 0.814419 8.0033
178 1 8.09652 0.669353 8.16989
179 1 7.61052 2.80607 9.69174
183 1 12.98 0.775552 13.2762
184 1 8.09913 0.736561 13.2237
185 1 9.99417 1.91412 14.6325
186 1 7.56462 2.5876 14.9919
187 1 12.473 2.57018 9.78479
188 1 9.9747 2.01476 9.45121
189 1 11.1787 1.24395 11.5051
199 1 10.5808 4.96537 8.11382
200 1 5.66739 4.75285 8.08825
205 1 8.75456 3.15007 12.7752
206 1 10.5597 3.83812 11.1069
30 2 6.11748 2.29158 15.6016
61 2 12.0777 0.0886308 12.1253
8 2 13.3868 2.17377 13.9455
232 1 5.6583 12.1563 5.75912
227 1 3.8244 11.6225 7.42165
42 2 3.7107 6.4913 5.2354
231 1 6.30394 9.74157 6.56165
51 2 1.3311 10.8133 5.1333
230 1 5.22614 10.2062 4.13384
69 2 8.63076 6.49006 5.05341
73 2 7.04198 8.49721 1.65482
74 2 3.7703 10.4421 3.5024
229 1 7.62838 10.9687 4.64072
76 2 7.21487 8.50321 6.93609
78 2 6.14678 10.7009 5.29405
149 1 3.17994 8.01811 0.516008
154 1 0.707854 12.228 0.63421
156 1 3.22841 7.92989 5.77751
162 1 0.684206 12.1037 5.76575
194 1 5.19773 6.45991 4.59724
202 1 10.0769 6.87257 4.51955
214 1 6.18225 7.30725 2.28694
215 1 7.87768 7.88326 0.45515
216 1 8.02554 9.17822 2.73285
217 1 3.00384 9.15934 2.83749
218 1 3.80356 11.5133 2.34904
219 1 2.78495 11.0906 4.55155
221 1 6.11249 9.79941 1.14415
222 1 5.56665 12.1773 0.621634
20 2 8.59936 10.4837 3.45762
224 1 7.93868 7.82695 5.65688
223 1 6.4045 7.27266 7.51869
75 2 6.16545 10.8773 0.0131211
243 1 5.68904 12.055 11.0252
39 2 3.80675 6.64222 15.6406
45 2 3.84334 6.64203 10.2714
54 2 1.43323 10.8272 10.3717
72 2 8.73818 6.51278 10.3324
77 2 3.77675 10.4953 8.55737
79 2 7.1611 8.51098 12.0923
80 2 3.68184 10.6729 13.8953
81 2 6.14896 10.6825 10.3604
164 1 3.3171 7.93705 11.0445
171 1 0.922595 12.2763 10.9205
195 1 10.1369 6.78138 15.1046
201 1 5.35417 6.64588 9.71276
210 1 5.28958 6.68244 15.035
211 1 10.2004 6.86932 9.79983
220 1 7.68796 10.9789 15.0907
225 1 8.30387 9.05004 7.99169
226 1 3.10387 9.1626 8.03122
228 1 2.87092 10.9891 9.74362
233 1 6.23366 7.37202 12.7397
234 1 8.04649 7.91895 10.8658
235 1 8.01281 9.23106 13.159
236 1 3.17377 9.25873 13.378
237 1 5.16254 10.5024 14.4292
238 1 3.75449 11.7289 12.7323
239 1 2.69704 11.1562 15.0579
240 1 7.64145 10.8335 9.76528
241 1 5.27444 10.1678 9.09554
242 1 6.14079 9.49803 11.391
26 2 8.53485 10.5015 13.8683
66 2 8.61313 6.57497 15.6173
48 2 1.20738 10.8669 15.6415
ITEM: TIMESTEP
100
ITEM: NUMBER OF ATOMS
243
ITEM: BOX BOUNDS xy xz yz pp pp pp
-7.3456000000000001e+00 1.4691300000000000e+01 -7.3456000000000001e+00
0.0000000000000000e+00 1.2723000000000001e+01 0.0000000000000000e+00
0.0000000000000000e+00 1.5643838000000001e+01 0.0000000000000000e+00
ITEM: ATOMS id type x y z
38 2 1.34656 6.30012 3.52576
134 1 3.77847 5.55656 1.27739
140 1 3.95288 5.51213 6.36893
6 2 1.30585 2.26422 5.16454
10 2 -0.249265 4.39219 1.77419
13 2 -0.262364 4.3524 6.86046
139 1 2.78119 6.10375 4.17364
29 2 3.79544 1.85492 3.41605
135 1 3.87235 3.04034 7.28595
37 2 4.49068 4.25491 1.78507
1 2 2.22771 0.0556769 1.64058
40 2 4.78083 4.26828 6.82602
82 1 1.2432 1.20931 1.02109
83 1 0.368301 1.74503 3.99255
84 1 1.37177 1.2114 6.38361
88 1 -1.07208 3.16835 2.34287
89 1 0.660052 3.87156 0.58966
90 1 -1.07831 5.61466 1.1619
91 1 -1.33361 3.29613 7.53225
92 1 0.628815 3.58631 5.74143
93 1 -2.1941 6.16437 3.92247
94 1 -1.02366 5.57804 6.10539
118 1 3.19927 0.537747 2.77371
119 1 2.76747 2.38812 4.51742
120 1 6.1381 1.22448 1.11503
123 1 5.27664 1.68972 3.99823
124 1 6.26871 1.24434 6.25912
130 1 3.6795 2.9758 2.31454
132 1 0.706617 4.91772 2.97646
28 2 7.11914 0.116513 1.7044
31 2 7.14068 0.0560997 6.85752
4 2 2.3 0.0771501 7.00998
2 2 -1.09206 2.07567 3.47886
44 2 1.35756 6.32959 13.9065
9 2 1.33995 2.45744 10.379
16 2 -0.111698 4.38391 12.2209
32 2 3.78114 2.11081 8.55683
41 2 1.22139 6.29452 8.61491
35 2 3.77879 2.15417 13.8954
147 1 3.82908 5.56113 11.3977
43 2 4.7657 4.42627 12.1235
8 2 -1.22282 2.13416 13.9831
85 1 0.326194 1.9631 14.396
86 1 0.417461 2.02738 9.20545
87 1 1.36272 1.22815 11.3777
95 1 -1.10578 3.24851 12.8144
96 1 0.801862 3.73414 11.1285
97 1 -2.05497 6.13508 14.5649
98 1 -2.18328 6.14099 9.33633
99 1 -0.921507 5.57257 11.5219
121 1 3.20574 0.718282 8.1155
122 1 2.80884 2.61218 9.77142
125 1 3.2046 0.723893 13.2733
126 1 5.26837 1.93626 14.4235
127 1 2.77973 2.74012 15.0141
128 1 5.18826 1.8725 9.22704
129 1 6.49159 1.3289 11.4054
137 1 0.733337 4.87795 8.00145
141 1 3.84618 3.20594 12.6718
143 1 0.798365 4.9831 13.3867
144 1 2.80585 6.15786 14.6092
17 2 -3.57165 6.21944 14.0028
7 2 2.2774 0.105753 12.1019
5 2 -1.11788 2.13116 8.65061
34 2 7.18665 0.049322 12.1067
3 2 1.26952 2.43252 15.5919
146 1 2.77263 6.32442 9.16814
14 2 -3.60698 6.35355 8.65175
49 2 2.13656 8.54156 6.83513
15 2 -1.19783 6.74222 5.00869
19 2 -2.63616 8.61488 1.78906
161 1 1.28036 9.76975 6.26293
22 2 -2.59367 8.6363 6.87778
24 2 -3.55824 10.8879 5.20134
46 2 2.20641 8.65992 1.67401
47 2 -1.03217 10.5188 3.49911
160 1 0.471405 10.3517 3.98876
100 1 -3.71723 7.44319 2.21114
101 1 -1.60192 8.06086 0.678351
102 1 -6.0443 11.6046 2.25096
103 1 -3.49403 9.83617 1.14029
104 1 -4.25913 12.1905 0.416853
105 1 -3.49258 7.43909 7.48655
106 1 -1.71011 8.15139 5.62846
107 1 -5.78815 11.4665 7.4751
108 1 -4.62261 10.3746 4.11732
109 1 -3.53845 9.94435 6.5146
110 1 -4.07193 12.2447 5.80855
133 1 0.308156 6.95099 4.59094
148 1 1.4256 7.35346 2.29476
150 1 -1.69156 9.1643 2.93432
151 1 -1.0918 11.6638 2.36739
152 1 -2.03305 10.9998 4.64029
153 1 1.33457 9.86135 1.13602
155 1 1.21929 7.33073 7.39794
158 1 -1.00944 11.6732 7.69295
12 2 -1.04933 6.70921 0.00185624
20 2 -6.07531 10.5364 3.46024
18 2 -1.1292 6.67276 10.394
25 2 -2.70625 8.53456 12.1996
27 2 -3.56657 10.797 10.4667
50 2 -1.04937 10.4753 8.72589
21 2 -3.60631 10.8308 15.5143
53 2 -1.14949 10.51 13.7538
111 1 -3.54573 7.28747 12.7849
112 1 -1.74416 7.95422 11.0226
113 1 -4.6072 10.2077 14.4537
114 1 -5.93812 11.6572 12.7188
115 1 -4.68838 10.2766 9.42545
116 1 -3.59908 9.79676 11.6899
117 1 -4.02039 12.2355 11.0129
138 1 0.272332 6.86406 9.71465
145 1 0.364517 6.91141 14.9806
157 1 -1.47695 9.1236 8.01532
159 1 -2.09738 10.8644 9.85208
163 1 1.60739 7.36703 12.666
165 1 -1.72346 9.11415 13.3595
166 1 0.320102 10.5431 14.4162
167 1 -1.08582 11.5226 12.5369
168 1 -2.17873 11.0578 14.8463
169 1 0.412671 10.292 9.41738
170 1 1.5767 9.74611 11.6294
23 2 -5.96645 10.3603 8.57477
65 2 6.23972 6.13948 3.4223
204 1 8.70893 5.45449 6.33998
196 1 8.48865 5.52719 1.0956
33 2 6.255 2.36617 5.1164
203 1 7.67414 5.85944 4.07221
56 2 8.68181 2.05191 3.4116
197 1 9.02842 3.0269 7.46865
198 1 10.6806 3.81042 5.75558
60 2 11.1753 2.44585 5.10638
64 2 9.40187 4.36562 1.71049
55 2 12.1044 0.0452648 1.7742
67 2 9.7045 4.36627 6.88429
131 1 5.33084 3.72593 0.581217
136 1 5.71359 3.75521 5.63397
172 1 12.965 0.690893 3.00463
173 1 8.18809 0.687672 2.72897
174 1 7.71352 2.51096 4.57763
176 1 11.1476 1.27018 1.28696
180 1 12.6885 2.6853 4.59916
181 1 10.2118 1.94747 3.93272
182 1 11.1748 1.25805 6.22574
190 1 8.52269 3.17506 2.27123
191 1 10.312 3.75458 0.538869
192 1 10.3805 4.92929 2.8038
193 1 5.51504 4.80498 2.85198
58 2 12.0071 0.0905443 6.96733
57 2 11.0277 2.36093 0.0960226
11 2 11.0039 6.32657 3.34221
30 2 6.13467 2.39839 0.0291762
207 1 10.5745 4.86155 13.3427
213 1 8.67075 5.42354 11.5784
212 1 7.77245 6.00891 9.22876
209 1 7.7174 6.21742 14.3269
36 2 6.24792 2.40621 10.2826
59 2 8.67685 1.95411 8.57402
208 1 5.66738 4.94374 13.3128
62 2 8.61993 2.01914 13.9624
63 2 11.0999 2.33646 10.3956
68 2 6.33885 6.12925 8.53021
70 2 9.68952 4.26885 12.146
71 2 6.18872 6.30166 13.9045
142 1 5.69419 3.73715 11.02
175 1 12.533 2.70355 15.1321
177 1 12.9487 0.756587 8.12891
178 1 8.21119 0.604792 7.89707
179 1 7.62986 2.63106 9.52003
183 1 12.907 0.654568 13.4968
184 1 8.04115 0.673287 13.3156
185 1 10.0829 1.70248 14.5414
186 1 7.68284 2.62141 15.1311
187 1 12.5919 2.53377 9.86214
188 1 10.0563 1.79436 9.3571
189 1 11.3028 1.253 11.5601
199 1 10.5535 5.06066 8.00352
200 1 5.66572 4.77061 8.03749
205 1 8.89124 3.08874 12.7898
206 1 10.5353 3.74066 10.895
61 2 12.1254 0.0769964 12.1398
232 1 5.58328 12.1444 5.827
227 1 3.80304 11.63 7.55195
42 2 3.83384 6.58854 5.25578
231 1 6.27657 9.69174 6.40302
51 2 1.41763 10.8843 5.10849
230 1 5.27883 10.2369 3.99261
69 2 8.6337 6.53422 5.17182
73 2 7.06332 8.51613 1.66103
74 2 3.81862 10.4108 3.40792
229 1 7.71817 10.9835 4.67442
76 2 7.20896 8.4929 6.87265
78 2 6.18963 10.7743 5.1671
149 1 3.21415 8.10785 0.590428
154 1 0.632187 12.2194 0.53585
156 1 3.34814 8.04699 5.91859
162 1 0.713199 12.2128 5.63786
194 1 5.28114 6.7823 4.51817
202 1 10.0951 6.78795 4.57969
214 1 6.28512 7.32255 2.31442
215 1 8.00084 7.98622 0.454298
216 1 8.02735 9.14249 2.76243
217 1 3.1756 9.0386 2.83746
218 1 3.95793 11.4919 2.27783
219 1 2.90342 11.0687 4.58245
221 1 6.07163 9.63525 1.08464
222 1 5.81964 12.2174 0.697783
39 2 3.76458 6.6848 0.105636
224 1 8.01213 7.94134 5.6512
223 1 6.39174 7.28088 7.44629
75 2 6.13879 10.8277 0.0205855
243 1 5.86741 12.1997 11.1287
66 2 8.58937 6.61321 15.6057
45 2 3.85181 6.70754 10.3185
54 2 1.43186 10.8742 10.4759
72 2 8.69883 6.4883 10.4624
77 2 3.79153 10.4682 8.60896
79 2 7.12564 8.48704 12.1287
80 2 3.76555 10.6172 13.8514
81 2 6.23559 10.8313 10.4017
164 1 3.47175 8.0095 11.03
171 1 0.922498 12.2838 11.057
195 1 10.1478 6.59679 15.2113
201 1 5.30068 6.72203 9.62613
210 1 5.19104 6.69811 15.0898
211 1 10.102 6.81172 9.8216
220 1 7.59677 10.9412 14.902
225 1 8.31175 8.96516 7.90705
226 1 3.02999 9.1803 7.96547
228 1 2.90731 11.022 9.82211
233 1 6.18298 7.36374 12.6736
234 1 8.0669 7.85129 11.0726
235 1 7.99522 9.15972 13.2315
236 1 3.20263 9.16107 13.4105
237 1 5.2302 10.5068 14.4307
238 1 3.8808 11.5847 12.5743
239 1 2.8123 11.1576 15.0219
240 1 7.60236 10.8576 9.60743
241 1 5.25779 10.505 9.21687
242 1 6.23219 9.64477 11.5022
26 2 8.63706 10.48 13.7817
52 2 2.43694 8.55919 12.1322
48 2 1.34474 10.9364 15.5773
ITEM: TIMESTEP
200
ITEM: NUMBER OF ATOMS
243
ITEM: BOX BOUNDS xy xz yz pp pp pp
-7.3456000000000001e+00 1.4691300000000000e+01 -7.3456000000000001e+00
0.0000000000000000e+00 1.2723000000000001e+01 0.0000000000000000e+00
0.0000000000000000e+00 1.5643838000000001e+01 0.0000000000000000e+00
ITEM: ATOMS id type x y z
38 2 1.31238 6.33068 3.46051
134 1 3.74229 5.53396 1.22937
140 1 4.00928 5.54405 6.30117
6 2 1.28452 2.37334 5.12389
10 2 -0.216046 4.32999 1.80229
13 2 -0.211291 4.41727 6.80119
139 1 2.75986 6.15465 4.0439
29 2 3.7568 1.91528 3.47946
135 1 3.79727 3.15618 7.41281
37 2 4.55028 4.33784 1.80685
1 2 2.15705 0.0533376 1.62555
40 2 4.79659 4.30499 6.87834
82 1 1.35363 1.30479 1.08015
83 1 0.287167 1.94233 3.9772
84 1 1.4357 1.21505 6.26651
88 1 -1.24243 3.29797 2.39548
89 1 0.630707 3.72907 0.641286
90 1 -0.930968 5.5617 1.14899
91 1 -1.04996 3.21233 7.37772
92 1 0.730681 3.73171 5.67482
93 1 -2.14793 6.25906 3.92352
94 1 -1.09136 5.60512 6.27112
118 1 3.1056 0.660678 2.76196
119 1 2.77865 2.34463 4.65233
120 1 6.12161 1.33636 1.14596
123 1 5.2645 1.74105 3.94851
124 1 6.25506 1.36048 6.34311
130 1 3.60472 3.13934 2.38878
132 1 0.690089 4.85956 3.01707
28 2 7.00272 0.0911055 1.62771
31 2 7.14067 0.125547 6.84415
4 2 2.34531 0.0551465 6.90987
44 2 1.38276 6.27254 13.8371
9 2 1.32755 2.47468 10.2753
16 2 -0.185598 4.40135 12.1394
32 2 3.77723 2.06654 8.5565
41 2 1.26322 6.34983 8.62527
35 2 3.74334 2.13681 13.8811
147 1 3.91924 5.5493 11.458
43 2 4.80423 4.34692 12.0484
8 2 -1.11272 2.14592 13.9182
85 1 0.416758 1.84657 14.3858
86 1 0.302317 2.02293 9.14932
87 1 1.54186 1.34016 11.3721
95 1 -1.06099 3.25448 12.764
96 1 0.717834 3.77045 11.0142
97 1 -2.15865 6.1479 14.5973
98 1 -2.12427 6.22249 9.26067
99 1 -1.07185 5.60754 11.5762
121 1 3.19193 0.628876 8.19531
122 1 2.77146 2.75272 9.6061
125 1 3.11203 0.787254 13.3026
126 1 5.21227 1.8868 14.5265
127 1 2.76486 2.81176 14.9963
128 1 5.24739 1.85829 9.12392
129 1 6.15007 1.19513 11.4437
137 1 0.632672 4.94558 8.07345
141 1 3.83559 3.24171 12.7059
143 1 0.677896 4.93822 13.3701
144 1 2.88901 6.06089 14.3721
17 2 -3.56473 6.35192 13.9479
7 2 2.28664 0.130508 12.1023
5 2 -1.17317 2.09488 8.59216
34 2 7.12737 0.0952113 12.1045
3 2 1.30316 2.3961 15.6072
146 1 2.73101 6.0931 9.23737
14 2 -3.60206 6.3505 8.76609
49 2 2.19451 8.69535 6.94629
15 2 -1.17526 6.71661 5.06759
19 2 -2.60216 8.60253 1.6854
161 1 1.27414 9.79242 6.25235
22 2 -2.60463 8.62785 6.95802
24 2 -3.48782 10.8348 5.20013
46 2 2.21865 8.60304 1.6743
47 2 -1.151 10.4632 3.45369
160 1 0.414832 10.3137 3.83304
100 1 -3.6687 7.49604 2.20507
101 1 -1.6002 8.07482 0.546636
102 1 -6.02331 11.5352 2.20781
103 1 -3.4261 9.81166 1.09135
104 1 -4.22882 12.2536 0.449373
105 1 -3.54691 7.51119 7.70755
106 1 -1.87292 8.01741 5.6814
107 1 -5.96239 11.6352 7.54106
108 1 -4.46264 10.3929 4.03023
109 1 -3.61606 9.75768 6.39357
110 1 -4.00198 12.2103 5.77447
133 1 0.336922 6.95352 4.59686
148 1 1.3714 7.31327 2.18373
150 1 -1.86234 9.0917 2.98674
151 1 -1.15303 11.5368 2.22929
152 1 -1.95664 10.8882 4.74406
153 1 1.34812 9.77515 1.09474
155 1 1.38363 7.45164 7.5161
158 1 -1.09559 11.6509 7.49327
20 2 -5.97493 10.5248 3.43682
11 2 -3.64946 6.39226 3.36356
18 2 -1.18879 6.71738 10.443
25 2 -2.63843 8.65773 12.2565
27 2 -3.56311 10.7588 10.4215
50 2 -1.06252 10.5979 8.66041
21 2 -3.55351 10.8953 15.5557
53 2 -1.08017 10.5378 13.8848
111 1 -3.60663 7.5032 12.8598
112 1 -1.88581 8.00992 10.9709
113 1 -4.47013 10.2716 14.4132
114 1 -6.01245 11.7095 12.6603
115 1 -4.55903 10.2817 9.27065
116 1 -3.62702 9.80569 11.736
117 1 -4.10722 12.166 11.0179
138 1 0.298663 6.91343 9.80613
145 1 0.351329 6.8611 14.9301
157 1 -1.43257 9.14315 8.02112
159 1 -2.1057 10.9339 9.85925
163 1 1.50868 7.24656 12.5643
165 1 -1.62901 9.1612 13.3482
166 1 0.356092 10.21 14.4567
167 1 -1.04741 11.6003 12.6687
168 1 -2.12296 11.1272 14.9424
169 1 0.401851 10.4676 9.38962
170 1 1.47393 9.74146 11.77
23 2 -5.9764 10.4017 8.62477
26 2 -5.96373 10.5343 13.8383
52 2 2.36071 8.49818 12.1808
12 2 -1.08622 6.68535 15.6425
65 2 6.18128 6.25864 3.51615
204 1 8.78166 5.50433 6.34338
196 1 8.74088 5.59889 1.14852
33 2 6.18924 2.30157 5.09129
203 1 7.69481 5.8894 3.95616
56 2 8.65441 2.00358 3.27585
197 1 8.95448 3.06205 7.41724
198 1 10.5535 3.75967 5.72703
60 2 11.0357 2.37725 5.09288
64 2 9.57085 4.31219 1.63466
55 2 12.1609 0.0519 1.71608
67 2 9.71133 4.40253 6.92574
131 1 5.44387 3.80262 0.63391
136 1 5.67493 3.69923 5.62975
172 1 12.9809 0.674239 2.97398
173 1 8.10779 0.610132 2.65071
174 1 7.65506 2.31239 4.51269
176 1 11.255 1.24358 1.16226
180 1 12.5699 2.63575 4.64823
181 1 10.1221 1.85846 3.90714
182 1 11.239 1.3894 6.35362
190 1 8.59279 3.12971 2.12592
191 1 10.4965 3.68394 0.454099
192 1 10.4927 5.01104 2.77717
193 1 5.48067 4.88139 2.99291
58 2 12.0314 0.0879748 6.93039
2 2 13.4617 2.11114 3.44621
207 1 10.7026 4.87717 13.3192
213 1 8.78218 5.43065 11.6147
212 1 7.69239 6.01704 9.30322
209 1 7.60869 6.11097 14.4925
36 2 6.21939 2.36443 10.298
59 2 8.69158 1.9893 8.57725
208 1 5.59505 4.91502 13.3218
62 2 8.69131 1.98104 14.009
63 2 11.0985 2.28183 10.4312
68 2 6.2672 6.17546 8.61929
70 2 9.72108 4.20887 12.235
71 2 6.14293 6.29108 13.92
142 1 5.67522 3.72365 10.8944
175 1 12.6707 2.56754 15.1247
177 1 13.0603 0.664707 8.08817
178 1 8.0038 0.664996 8.07143
179 1 7.72465 2.42945 9.7768
183 1 13.0756 0.729505 13.3744
184 1 7.9135 0.749017 13.3388
185 1 10.174 1.70972 14.4505
186 1 7.66817 2.66265 15.1013
187 1 12.5423 2.5104 9.81582
188 1 10.136 1.63724 9.31393
189 1 11.3201 1.25594 11.6767
199 1 10.5965 5.01408 8.04326
200 1 5.76873 4.75569 8.02382
205 1 8.84443 3.02669 12.7603
206 1 10.5973 3.73424 10.9687
61 2 12.2233 0.063227 12.1431
57 2 11.1613 2.30555 15.606
30 2 6.15019 2.40638 15.6252
232 1 5.64114 12.0411 5.78017
227 1 3.68032 11.723 7.53673
42 2 3.7882 6.61557 5.18319
231 1 6.43568 9.66414 6.31012
51 2 1.34431 10.8013 5.02436
230 1 5.29907 10.1968 4.05677
69 2 8.63579 6.51454 5.10374
73 2 7.08471 8.49387 1.72384
74 2 3.81837 10.4469 3.39814
229 1 7.72237 11.0735 4.54738
76 2 7.23741 8.46163 6.84145
78 2 6.30933 10.7442 5.18758
149 1 3.21594 8.03556 0.566817
154 1 0.560647 12.3053 0.376179
156 1 3.04883 8.01437 5.7496
162 1 0.708128 12.1829 5.6454
194 1 5.29606 6.9818 4.61634
202 1 10.018 6.86697 4.46048
214 1 6.36997 7.17319 2.20934
215 1 8.11012 8.06624 0.54527
216 1 7.95277 9.19292 2.92341
217 1 3.13429 9.11491 2.85161
218 1 3.931 11.4979 2.15708
219 1 2.82393 10.9986 4.51356
221 1 6.11935 9.62532 1.04216
222 1 5.79485 12.1781 0.606916
39 2 3.70953 6.6353 0.0586841
224 1 8.04104 7.88112 5.66281
223 1 6.38329 7.27858 7.43984
243 1 5.85509 12.2708 10.9436
66 2 8.60787 6.67787 15.6043
45 2 3.76256 6.63378 10.3198
54 2 1.385 10.8359 10.5849
72 2 8.62795 6.56447 10.5236
77 2 3.70859 10.5954 8.67006
79 2 7.07809 8.54417 12.1518
80 2 3.71119 10.6036 13.8516
81 2 6.24424 10.8511 10.3688
164 1 3.23525 7.99923 10.9102
171 1 0.882515 12.2877 11.0835
195 1 10.0603 6.86878 15.0075
201 1 5.23704 6.8005 9.66583
210 1 5.24693 6.77158 15.1636
211 1 10.0667 6.73045 9.89938
220 1 7.76964 11.0095 15.0285
225 1 8.14781 9.01237 8.03607
226 1 3.10439 9.20939 8.15901
228 1 2.82826 10.9764 9.95208
233 1 6.20733 7.4057 12.7603
234 1 8.02356 7.91519 11.036
235 1 8.16647 9.10092 13.2603
236 1 3.22583 9.14643 13.3099
237 1 5.229 10.4781 14.4333
238 1 3.9127 11.655 12.6861
239 1 2.73479 11.2114 14.9668
240 1 7.70795 10.8688 9.76957
241 1 5.14516 10.4133 9.31643
242 1 6.23616 9.76858 11.5338
48 2 1.28327 10.92 15.5721
75 2 6.26839 10.8012 15.6164
ITEM: TIMESTEP
300
ITEM: NUMBER OF ATOMS
243
ITEM: BOX BOUNDS xy xz yz pp pp pp
-7.3456000000000001e+00 1.4691300000000000e+01 -7.3456000000000001e+00
0.0000000000000000e+00 1.2723000000000001e+01 0.0000000000000000e+00
0.0000000000000000e+00 1.5643838000000001e+01 0.0000000000000000e+00
ITEM: ATOMS id type x y z
4 2 2.18479 0.0433528 6.86354
134 1 3.71596 5.51878 1.06248
140 1 3.85386 5.669 6.49374
6 2 1.32062 2.33732 5.16152
10 2 -0.15007 4.39853 1.7738
13 2 -0.176582 4.39885 6.86207
139 1 2.76395 6.26576 3.96855
29 2 3.75896 2.00134 3.38169
135 1 3.92232 3.11257 7.28557
37 2 4.59989 4.34647 1.70014
1 2 2.20955 0.0814469 1.6475
40 2 4.74569 4.37102 6.87424
82 1 1.32903 1.28735 1.03856
83 1 0.315139 2.02283 3.93706
84 1 1.24674 1.29318 6.36253
88 1 -1.17553 3.26483 2.29723
89 1 0.846093 3.68665 0.749341
90 1 -0.955037 5.57639 1.12957
91 1 -0.982777 3.13928 7.29328
92 1 0.947108 3.71419 5.90726
93 1 -2.0767 6.22789 3.83252
94 1 -0.97239 5.44849 6.01794
118 1 3.17245 0.689344 2.76468
119 1 2.76153 2.54207 4.51312
120 1 6.08032 1.27446 1.17798
123 1 5.21054 1.78869 3.96034
124 1 6.21159 1.232 6.24301
130 1 3.73554 3.06819 2.1622
132 1 0.639864 4.99001 3.01116
28 2 6.98606 0.044808 1.62934
31 2 7.18924 0.103962 6.86649
11 2 -3.5998 6.32618 3.34015
44 2 1.40183 6.19428 13.797
9 2 1.31535 2.44764 10.3051
16 2 -0.280377 4.41672 12.1315
32 2 3.74601 2.10315 8.5
146 1 2.70485 6.04295 9.28201
35 2 3.85928 1.99843 13.8843
147 1 3.77154 5.57162 11.5829
43 2 4.69647 4.32088 12.0952
8 2 -1.10382 2.02885 13.8232
85 1 0.424435 2.08234 14.4107
86 1 0.331262 1.85783 9.16466
87 1 1.4622 1.34069 11.48
95 1 -1.21401 3.2017 12.7051
96 1 0.544647 3.79102 10.9231
97 1 -2.10127 6.11623 14.4891
98 1 -2.09456 6.16889 9.35375
99 1 -1.01013 5.80164 11.7195
121 1 3.18218 0.714996 7.93162
122 1 2.73542 2.72006 9.58613
125 1 3.21616 0.640835 13.3431
126 1 5.34044 1.92229 14.4955
127 1 2.93048 2.51643 15.1367
128 1 5.13919 1.94453 9.2438
129 1 6.28902 1.32657 11.4788
137 1 0.539879 5.1638 8.07487
141 1 3.8397 3.07235 12.712
143 1 0.798611 4.83242 13.2594
144 1 2.88797 6.15812 14.3679
17 2 -3.55076 6.29504 13.884
7 2 2.28654 0.141535 12.1422
5 2 -1.07816 2.1059 8.52129
34 2 7.11241 0.180313 12.1948
14 2 -3.59402 6.29282 8.81004
3 2 1.4102 2.41217 15.6043
49 2 2.29894 8.69814 6.9273
15 2 -1.16058 6.69426 5.00041
19 2 -2.75815 8.53409 1.56209
161 1 1.38312 9.81683 6.24008
22 2 -2.64555 8.56626 7.00519
24 2 -3.58587 10.8231 5.12738
46 2 2.22584 8.57723 1.63777
47 2 -1.1728 10.4444 3.33505
160 1 0.303692 10.4306 3.91829
100 1 -3.70337 7.33172 2.08653
101 1 -1.67222 7.92595 0.51312
102 1 -6.00085 11.5325 2.25066
103 1 -3.50403 9.77567 0.996209
104 1 -4.19087 12.2263 0.503651
105 1 -3.54163 7.43914 7.71296
106 1 -1.82651 7.87726 5.82168
107 1 -5.97529 11.5822 7.57331
108 1 -4.49761 10.3154 3.90271
109 1 -3.38038 9.74045 6.28338
110 1 -4.30844 12.1238 5.72226
133 1 0.38806 7.08391 4.53857
148 1 1.33907 7.3306 2.10808
150 1 -1.83756 9.0808 2.76617
151 1 -1.23896 11.5884 2.214
152 1 -2.10327 11.0089 4.49634
153 1 1.31869 9.79061 1.19374
155 1 1.38341 7.6143 7.67119
158 1 -1.0364 11.6901 7.54413
20 2 -6.04242 10.5581 3.47013
38 2 1.29028 6.38779 3.41826
18 2 -1.13125 6.73865 10.4707
25 2 -2.65076 8.61564 12.1569
27 2 -3.53992 10.9099 10.4522
50 2 -1.04677 10.4963 8.63562
21 2 -3.58347 10.8953 15.4666
53 2 -1.10763 10.5196 13.7693
111 1 -3.50153 7.34766 12.6853
112 1 -1.64009 8.17533 10.9327
113 1 -4.52119 10.4081 14.2966
114 1 -6.07412 11.7523 12.5938
115 1 -4.55789 10.2443 9.37184
116 1 -3.51748 9.80737 11.6189
117 1 -4.19567 12.2353 10.9672
138 1 0.3296 7.03367 9.91695
145 1 0.37545 6.81338 14.8169
157 1 -1.57908 9.10583 8.07385
159 1 -2.15236 10.9882 9.674
163 1 1.41801 7.31018 12.6658
165 1 -1.72926 9.14358 13.3372
166 1 0.352665 10.333 14.4448
167 1 -1.08101 11.6061 12.5967
168 1 -2.10894 11.0618 14.9022
169 1 0.387175 10.332 9.32004
170 1 1.40877 9.75187 11.6095
23 2 -6.02621 10.4792 8.6951
26 2 -6.02592 10.6086 13.7884
52 2 2.28034 8.55499 12.1243
12 2 -1.03802 6.60828 15.5838
41 2 1.21251 6.45244 8.74188
65 2 6.17239 6.29593 3.52963
204 1 8.7604 5.44926 6.28503
196 1 8.83485 5.51702 1.13041
33 2 6.26414 2.30511 5.09338
203 1 7.67705 6.09592 4.04666
56 2 8.64901 1.97543 3.35755
197 1 8.70443 3.20626 7.58787
198 1 10.4766 3.67094 5.71493
60 2 11.0883 2.34138 5.12071
64 2 9.72262 4.26743 1.69858
55 2 12.1347 0.0973299 1.62098
67 2 9.70589 4.32815 6.90954
131 1 5.61863 3.83542 0.604081
136 1 5.67042 3.69781 5.71215
172 1 12.9597 0.689988 2.8621
173 1 7.94533 0.740022 2.72264
174 1 7.68411 2.48873 4.49308
176 1 11.2523 1.23634 0.969809
180 1 12.6058 2.50037 4.67657
181 1 10.1391 1.82231 3.97151
182 1 11.017 1.16831 6.22751
190 1 8.71285 3.19723 2.32198
191 1 10.6461 3.63135 0.647813
192 1 10.5614 4.88384 2.9086
193 1 5.4281 4.99912 2.91628
58 2 12.0414 0.101657 6.80299
30 2 6.22101 2.40219 0.043922
2 2 13.4906 2.07625 3.42915
207 1 10.4942 4.94335 13.3145
213 1 8.68681 5.40427 11.6027
212 1 7.75609 6.00032 9.29673
209 1 7.75418 6.23727 14.4212
36 2 6.20997 2.44437 10.3509
59 2 8.7313 2.05802 8.68657
208 1 5.64858 4.96942 13.2255
62 2 8.6523 2.02193 14.0083
63 2 11.2273 2.34298 10.3209
68 2 6.30153 6.13577 8.68905
70 2 9.63995 4.2757 12.1585
71 2 6.24325 6.25834 13.9019
142 1 5.66949 3.77148 11.0047
175 1 12.6856 2.534 15.01
177 1 13.0183 0.788096 7.89636
178 1 8.15718 0.734113 7.95784
179 1 7.72525 2.58052 9.82427
183 1 13.1299 0.559422 13.2766
184 1 7.97935 0.659014 13.4158
185 1 10.1003 1.80459 14.5524
186 1 7.71635 2.48466 15.1656
187 1 12.6463 2.63688 9.67748
188 1 10.2123 1.78095 9.27449
189 1 11.2838 1.38731 11.6458
199 1 10.5857 4.98261 8.0338
200 1 5.70557 4.77036 8.07944
205 1 8.8188 3.06365 12.8157
206 1 10.582 3.68846 11.0028
61 2 12.1168 0.0795277 12.1082
57 2 11.2072 2.37418 15.5264
232 1 5.50648 12.1624 5.63197
227 1 3.83242 11.7358 7.55083
42 2 3.70616 6.63305 5.23011
231 1 6.25471 9.69229 6.26173
51 2 1.38237 10.9354 5.06642
230 1 5.24992 10.2907 4.00808
69 2 8.69866 6.61732 5.16096
73 2 7.1887 8.59803 1.76948
74 2 3.83601 10.5233 3.39255
229 1 7.6973 11.1107 4.59005
76 2 7.11092 8.5113 6.91888
78 2 6.25178 10.8522 5.14751
149 1 3.21804 8.11053 0.460868
154 1 0.613017 12.2338 0.424938
156 1 3.15718 8.01414 5.76804
162 1 0.661284 12.3025 5.59569
194 1 5.18083 6.7982 4.65962
202 1 10.1301 6.81722 4.53962
214 1 6.35735 7.4249 2.33986
215 1 8.17482 8.05865 0.586603
216 1 8.11901 9.13592 3.01692
217 1 3.08916 9.26794 2.83106
218 1 3.95269 11.6865 2.25663
219 1 2.83141 11.1294 4.46539
221 1 6.3456 9.81465 1.1999
222 1 5.72372 12.244 0.495707
223 1 6.36619 7.25019 7.49751
224 1 8.08008 7.93373 5.83488
243 1 5.72082 12.3714 10.8645
75 2 6.23924 10.8427 15.5837
45 2 3.68564 6.62182 10.3869
54 2 1.2831 10.881 10.4952
72 2 8.64256 6.60105 10.5509
77 2 3.78344 10.6738 8.74192
79 2 6.98159 8.59065 12.1317
80 2 3.78216 10.4865 13.7942
81 2 6.22207 10.9113 10.3912
164 1 3.1483 8.01595 10.8658
171 1 0.782269 12.3268 11.0457
195 1 10.1482 6.88283 14.9477
201 1 5.23905 6.68975 9.78277
210 1 5.34645 6.6981 15.1812
211 1 10.1279 6.76414 10.0097
220 1 7.74149 10.9169 15.0062
225 1 8.08752 9.16107 7.98717
226 1 3.23375 9.38311 8.05887
228 1 2.76497 11.1534 9.94406
233 1 6.16494 7.45604 12.8531
234 1 7.95818 7.93566 11.0491
235 1 8.02902 9.2203 13.1987
236 1 3.31483 9.05698 13.1837
237 1 5.24185 10.3206 14.4373
238 1 3.92517 11.5821 12.6059
239 1 2.79352 11.023 14.9404
240 1 7.68803 11.0797 9.82388