ITEM: TIMESTEP
0
ITEM: NUMBER OF ATOMS
243
ITEM: BOX BOUNDS xy xz yz pp pp pp
-7.4925120000000005e+00 1.4985125999999999e+01 -7.4925120000000005e+00
0.0000000000000000e+00 1.2723000000000001e+01 0.0000000000000000e+00
0.0000000000000000e+00 1.5963100000000001e+01 0.0000000000000000e+00
ITEM: ATOMS id type x y z
11 2 -3.69263 6.32849 3.46944
134 1 3.88465 5.60684 1.25781
140 1 3.90865 5.44669 6.52942
6 2 1.1785 2.26868 5.28399
10 2 -0.115319 4.33944 1.80289
13 2 -0.213308 4.39146 7.0508
139 1 2.72839 6.08672 4.17456
29 2 3.77021 1.97808 3.45246
135 1 3.97552 2.99526 7.49257
37 2 4.73569 4.28258 1.65947
38 2 1.29925 6.33815 3.4602
40 2 4.86881 4.2251 7.00511
82 1 1.43127 1.27219 1.13926
83 1 0.328815 1.77507 4.00757
84 1 1.3347 1.11839 6.38342
88 1 -0.936977 3.11365 2.35557
89 1 0.834086 3.82484 0.615539
90 1 -1.08745 5.50845 1.1882
91 1 -1.27103 3.33242 7.70765
92 1 0.713415 3.65968 5.96306
93 1 -2.11668 6.2646 3.94253
94 1 -1.1035 5.49987 6.26831
118 1 3.17566 0.607874 2.84411
119 1 2.71191 2.34053 4.62047
120 1 6.33697 1.27614 1.23551
123 1 5.26064 1.87638 4.06711
124 1 6.40385 1.2296 6.50702
130 1 3.89853 3.06872 2.31509
132 1 0.773493 4.89238 3.06725
28 2 7.3203 0.159098 1.78793
31 2 7.37182 0.057224 7.09987
4 2 2.30779 0.0667996 7.09327
1 2 2.28941 0.0105573 1.67695
44 2 1.45097 6.27512 14.2336
9 2 1.32313 2.34472 10.5606
16 2 -0.100192 4.31133 12.4738
32 2 3.83531 2.05564 8.76731
17 2 -3.64274 6.27915 14.2189
35 2 3.83155 2.12867 14.111
147 1 3.8883 5.48636 11.5839
43 2 4.74466 4.33669 12.3532
14 2 -3.57541 6.31761 8.86968
85 1 0.204723 1.92182 14.9028
86 1 0.210499 2.00579 9.47232
87 1 1.41548 1.12836 11.5899
95 1 -1.21279 3.30677 13.1034
96 1 0.897291 3.64812 11.4211
97 1 -2.10975 6.19378 14.8403
98 1 -2.05283 5.99989 9.44141
99 1 -0.970827 5.47037 11.8245
121 1 3.18416 0.642885 8.29891
122 1 2.74966 2.61636 9.85286
125 1 3.31226 0.774469 13.416
126 1 5.28848 1.86064 14.7753
127 1 2.78906 2.50097 15.2483
128 1 5.25847 1.94741 9.46934
129 1 6.54056 1.2516 11.6185
137 1 0.659387 4.99465 8.24081
141 1 3.818 3.256 13.0093
143 1 0.845007 4.96605 13.6054
144 1 3.02035 6.08128 14.7449
146 1 2.8487 6.23408 9.37568
7 2 2.35036 0.055382 12.3838
5 2 -1.26889 2.1845 8.78873
34 2 7.42676 0.0744356 12.2868
3 2 1.32191 2.40193 15.9621
49 2 2.31741 8.52892 7.02279
15 2 -1.10404 6.67467 5.19509
19 2 -2.7987 8.65955 1.76833
161 1 1.40572 9.714 6.43629
22 2 -2.60829 8.64324 6.98119
24 2 -3.70903 10.8188 5.274
46 2 2.26609 8.52649 1.67095
47 2 -1.20535 10.6356 3.47754
160 1 0.307286 10.3608 4.05334
100 1 -3.67026 7.35957 2.25377
101 1 -1.8269 7.90345 0.717974
102 1 -6.13667 11.6324 2.43256
103 1 -3.46374 9.96647 1.11518
104 1 -4.41105 12.1889 0.409157
105 1 -3.42582 7.36889 7.63746
106 1 -1.71102 8.02738 5.8568
107 1 -6.08113 11.5864 7.68869
108 1 -4.73034 10.1571 4.18465
109 1 -3.64512 9.69429 6.43163
110 1 -4.23051 12.1435 5.91518
133 1 0.333284 6.97308 4.60017
148 1 1.40141 7.29248 2.20259
150 1 -1.92327 9.23959 2.93524
151 1 -1.14059 11.7285 2.29132
152 1 -2.16249 11.024 4.70026
153 1 1.29809 9.65399 1.03166
155 1 1.30246 7.39254 7.58014
158 1 -1.05473 11.6513 7.71472
12 2 -1.09866 6.65041 0.0302409
18 2 -1.11996 6.54798 10.6152
25 2 -2.62642 8.51186 12.4089
27 2 -3.6218 10.7679 10.7075
50 2 -1.0809 10.5408 8.85907
52 2 2.43967 8.52484 12.438
53 2 -1.16861 10.6467 14.018
111 1 -3.60005 7.42224 13.0717
112 1 -1.77426 7.8615 11.1841
113 1 -4.75395 10.1948 14.7915
114 1 -5.92753 11.5635 13.0473
115 1 -4.67559 10.3064 9.4591
116 1 -3.54884 9.73708 11.9518
117 1 -4.20572 12.1753 11.2565
138 1 0.340214 6.89614 9.98899
145 1 0.373747 6.79658 15.3488
157 1 -1.56165 9.21459 8.13198
159 1 -2.13412 10.8999 10.0296
163 1 1.53953 7.35138 13.0016
165 1 -1.67096 9.23703 13.5179
166 1 0.282331 10.4518 14.7329
167 1 -1.04893 11.6469 12.8243
168 1 -2.27362 11.1459 15.0616
169 1 0.406485 10.3362 9.49533
170 1 1.60943 9.76632 11.8401
23 2 -6.11439 10.4503 8.80202
21 2 -3.70858 10.8715 15.8066
41 2 1.34721 6.37715 8.82245
65 2 6.28832 6.10989 3.42762
204 1 8.91106 5.41383 6.30555
196 1 8.72444 5.51786 1.13906
33 2 6.35083 2.31202 5.28694
203 1 7.81147 6.0124 3.98043
56 2 8.89507 2.09772 3.53568
197 1 8.94869 3.07837 7.56449
198 1 10.9618 3.84607 5.9861
60 2 11.4197 2.46092 5.30924
64 2 9.62801 4.38856 1.79086
55 2 12.2288 0.0317123 1.79865
67 2 9.87424 4.37509 7.10334
131 1 5.69473 3.68424 0.531114
136 1 5.75749 3.66818 5.78297
172 1 13.1088 0.621368 3.03696
173 1 8.19352 0.729016 2.99598
174 1 7.85206 2.49418 4.75114
176 1 11.4333 1.34776 1.24001
180 1 12.9419 2.54804 4.67569
181 1 10.4528 2.05316 4.09776
182 1 11.4 1.28884 6.41896
190 1 8.81835 3.18581 2.41389
191 1 10.548 3.77071 0.662299
192 1 10.6387 4.97103 2.87273
193 1 5.72798 4.73398 2.84364
58 2 12.2725 0.109675 6.94275
57 2 11.2333 2.45362 0.0784977
2 2 13.8025 1.97007 3.44074
207 1 10.8613 4.88179 13.5794
213 1 8.92473 5.47481 11.7351
212 1 8.01405 5.88327 9.30915
209 1 7.91038 6.02126 14.6801
36 2 6.3527 2.40488 10.6043
59 2 8.77748 2.13359 8.83565
208 1 5.74236 4.88525 13.51
62 2 8.77761 2.05198 14.1777
63 2 11.2922 2.44517 10.6888
68 2 6.4725 6.10907 8.76875
70 2 9.84653 4.35318 12.5079
71 2 6.37766 6.22539 14.1146
142 1 5.69702 3.72489 11.2448
175 1 12.7155 2.69136 15.3805
177 1 13.1191 0.814419 8.16663
178 1 8.25845 0.669353 8.33662
179 1 7.76274 2.80607 9.88953
183 1 13.2396 0.775552 13.5471
184 1 8.26111 0.736561 13.4936
185 1 10.1941 1.91412 14.9311
186 1 7.71592 2.5876 15.2978
187 1 12.7225 2.57018 9.98448
188 1 10.1742 2.01476 9.64409
189 1 11.4022 1.24395 11.7399
199 1 10.7924 4.96537 8.27941
200 1 5.78074 4.75285 8.25331
205 1 8.92965 3.15007 13.036
206 1 10.7709 3.83812 11.3336
30 2 6.23983 2.29158 15.92
61 2 12.3192 0.0886308 12.3728
8 2 13.6546 2.17377 14.2301
232 1 5.77146 12.1563 5.87666
227 1 3.90089 11.6225 7.57311
42 2 3.78491 6.4913 5.34224
231 1 6.43002 9.74157 6.69556
51 2 1.35772 10.8133 5.23806
230 1 5.33066 10.2062 4.21821
69 2 8.80338 6.49006 5.15654
73 2 7.18282 8.49721 1.68859
74 2 3.84571 10.4421 3.57388
229 1 7.78094 10.9687 4.73543
76 2 7.35917 8.50321 7.07764
78 2 6.26971 10.7009 5.40209
149 1 3.24354 8.01811 0.526539
154 1 0.722011 12.228 0.647153
156 1 3.29298 7.92989 5.89542
162 1 0.697891 12.1037 5.88342
194 1 5.30168 6.45991 4.69106
202 1 10.2785 6.87257 4.61178
214 1 6.30589 7.30725 2.33361
215 1 8.03523 7.88326 0.464439
216 1 8.18605 9.17822 2.78863
217 1 3.06392 9.15934 2.8954
218 1 3.87963 11.5133 2.39698
219 1 2.84065 11.0906 4.64443
221 1 6.23474 9.79941 1.1675
222 1 5.67798 12.1773 0.63432
20 2 8.77135 10.4837 3.52818
224 1 8.09745 7.82695 5.77232
223 1 6.53259 7.27266 7.67213
75 2 6.28875 10.8773 0.0133889
243 1 5.80282 12.055 11.2502
39 2 3.88289 6.64222 15.9598
45 2 3.92021 6.64203 10.4811
54 2 1.46189 10.8272 10.5834
72 2 8.91294 6.51278 10.5433
77 2 3.85228 10.4953 8.73201
79 2 7.30432 8.51098 12.3391
80 2 3.75548 10.6729 14.1789
81 2 6.27194 10.6825 10.5719
164 1 3.38344 7.93705 11.2699
171 1 0.941046 12.2763 11.1433
195 1 10.3397 6.78138 15.4128
201 1 5.46126 6.64588 9.91098
210 1 5.39537 6.68244 15.3418
211 1 10.4044 6.86932 9.99983
220 1 7.84172 10.9789 15.3987
225 1 8.46995 9.05004 8.15479
226 1 3.16595 9.1626 8.19512
228 1 2.92834 10.9891 9.94246
233 1 6.35833 7.37202 12.9997
234 1 8.20742 7.91895 11.0876
235 1 8.17306 9.23106 13.4276
236 1 3.23724 9.25873 13.651
237 1 5.26579 10.5024 14.7237
238 1 3.82958 11.7289 12.9922
239 1 2.75098 11.1562 15.3652
240 1 7.79428 10.8335 9.96457
241 1 5.37993 10.1678 9.28117
242 1 6.26361 9.49803 11.6235
26 2 8.70555 10.5015 14.1513
66 2 8.78539 6.57497 15.936
48 2 1.23153 10.8669 15.9607
ITEM: TIMESTEP
100
ITEM: NUMBER OF ATOMS
243
ITEM: BOX BOUNDS xy xz yz pp pp pp
-7.4925120000000005e+00 1.4985125999999999e+01 -7.4925120000000005e+00
0.0000000000000000e+00 1.2723000000000001e+01 0.0000000000000000e+00
0.0000000000000000e+00 1.5963100000000001e+01 0.0000000000000000e+00
ITEM: ATOMS id type x y z
38 2 1.33971 6.32762 3.58816
134 1 3.83864 5.48012 1.19635
140 1 3.90027 5.44406 6.52045
6 2 1.34215 2.18259 5.2433
10 2 -0.207679 4.31686 1.77329
13 2 -0.201299 4.32799 6.97517
139 1 2.7716 6.17277 4.35439
29 2 3.84233 1.98472 3.48004
135 1 4.09667 3.14983 7.66888
37 2 4.68767 4.25152 1.69573
1 2 2.33807 0.0591833 1.75092
40 2 4.93169 4.31141 7.01458
82 1 1.41195 1.24986 1.09172
83 1 0.27924 1.73266 4.05431
84 1 1.43915 1.1245 6.38181
88 1 -1.16019 3.16768 2.36858
89 1 0.748107 3.73892 0.613488
90 1 -1.01018 5.63452 1.15506
91 1 -1.23601 3.26873 7.64417
92 1 0.726304 3.45983 5.96993
93 1 -2.33075 6.09052 4.04854
94 1 -0.996395 5.49625 6.24549
118 1 3.30947 0.646151 2.85166
119 1 2.7656 2.48427 4.54269
120 1 6.44664 1.18388 1.01867
123 1 5.30971 1.82686 4.19532
124 1 6.30755 1.21282 6.39665
130 1 3.80529 3.10348 2.31537
132 1 0.701755 4.96296 2.91928
28 2 7.38111 0.099526 1.74418
31 2 7.29679 0.108253 7.04309
4 2 2.34642 0.00649883 7.05191
2 2 -1.16292 2.03494 3.44324
3 2 1.33113 2.35827 15.869
9 2 1.37107 2.40591 10.6331
16 2 -0.0350962 4.3826 12.505
32 2 3.82876 2.1152 8.79647
17 2 -3.67565 6.25992 14.2168
35 2 3.84012 2.13098 14.2202
147 1 3.95481 5.48088 11.6428
43 2 4.89296 4.37285 12.3144
14 2 -3.71519 6.33483 8.82572
85 1 0.225938 1.95179 14.8031
86 1 0.282345 2.02822 9.48485
87 1 1.46624 1.22834 11.682
95 1 -1.0782 3.3303 13.1283
96 1 0.769473 3.70985 11.3552
97 1 -2.1902 6.15041 14.9059
98 1 -2.26499 6.19085 9.47991
99 1 -0.885006 5.53515 11.7755
121 1 3.18719 0.813202 8.13322
122 1 2.82513 2.58292 9.97921
125 1 3.37822 0.75438 13.4133
126 1 5.34499 1.82365 14.7555
127 1 2.78594 2.69087 15.2439
128 1 5.25464 1.9735 9.4824
129 1 6.57446 1.32533 11.6586
137 1 0.763751 5.00548 8.04213
141 1 4.02199 3.1609 12.9816
143 1 0.816533 5.02217 13.672
144 1 2.76851 6.19034 14.8917
34 2 7.33904 0.0873209 12.3673
7 2 2.41608 0.0837222 12.3115
5 2 -1.18514 2.15257 8.78887
49 2 2.27305 8.55195 6.92265
15 2 -1.20054 6.62749 5.14295
19 2 -2.66424 8.66288 1.7062
161 1 1.32932 9.79994 6.4352
22 2 -2.52822 8.61189 7.05243
24 2 -3.59557 10.8038 5.31987
46 2 2.25057 8.55104 1.79606
47 2 -1.22043 10.5835 3.54615
160 1 0.230555 10.4379 4.27375
100 1 -3.63879 7.57784 2.44268
101 1 -1.66922 8.07857 0.588869
102 1 -6.11129 11.5713 2.36551
103 1 -3.64515 9.71902 0.990687
104 1 -4.29364 12.2612 0.517717
105 1 -3.39984 7.44249 7.74301
106 1 -1.81944 8.00269 5.77591
107 1 -5.79975 11.4462 7.67957
108 1 -4.76007 10.4946 4.26499
109 1 -3.47716 9.78903 6.54548
110 1 -4.14874 12.1768 5.88821
133 1 0.254837 6.95805 4.62719
148 1 1.40692 7.39343 2.46095
150 1 -1.77517 9.2026 2.87159
151 1 -1.02885 11.703 2.38765
152 1 -2.20026 11.0596 4.6486
153 1 1.50447 9.78211 1.09319
155 1 1.28847 7.47954 7.5522
158 1 -0.959929 11.6997 7.85327
12 2 -1.1081 6.70596 0.00324459
18 2 -1.16632 6.59372 10.6037
25 2 -2.73951 8.52151 12.4705
27 2 -3.62371 10.7521 10.6663
50 2 -1.03273 10.4776 8.86692
41 2 1.25638 6.39135 8.7117
53 2 -1.18279 10.5254 14.0114
111 1 -3.65579 7.35586 13.0695
112 1 -1.73261 7.83885 11.339
113 1 -4.70975 10.2797 14.8292
114 1 -5.97972 11.6681 13.0831
115 1 -4.68161 10.1943 9.58629
116 1 -3.65796 9.72924 11.8824
117 1 -4.08837 12.1996 11.1947
138 1 0.243288 6.87754 9.87549
145 1 0.310231 6.97606 15.2962
157 1 -1.47469 9.17771 8.13565
159 1 -2.12984 10.8093 10.0382
163 1 1.54037 7.5203 12.9878
165 1 -1.71875 9.08406 13.5638
166 1 0.223803 10.5017 14.8105
167 1 -1.02022 11.4936 12.7758
168 1 -2.27306 11.0865 15.1021
169 1 0.365837 10.331 9.6213
170 1 1.61868 9.73697 11.857
23 2 -6.05737 10.3585 8.82774
21 2 -3.71203 10.8862 15.8905
146 1 2.76668 6.39559 9.42753
44 2 1.33386 6.41982 14.2209
65 2 6.29403 6.19134 3.42581
204 1 8.88072 5.33464 6.32543
196 1 8.68213 5.44913 1.13103
33 2 6.36806 2.37866 5.26218
203 1 7.76714 5.97618 4.08321
56 2 8.82607 2.11706 3.57862
197 1 9.22114 3.11994 7.67256
198 1 10.9038 3.76668 5.84761
60 2 11.4153 2.39251 5.19858
64 2 9.63112 4.35086 1.76892
55 2 12.28 0.0571598 1.81786
67 2 9.91136 4.32922 6.94564
131 1 5.55455 3.65198 0.531997
136 1 5.82274 3.76392 5.75591
172 1 13.197 0.659347 2.94448
173 1 8.29519 0.75317 2.87776
174 1 7.87098 2.53171 4.80016
176 1 11.3217 1.25094 1.32415
180 1 12.9137 2.52903 4.65931
181 1 10.3702 1.94582 4.08234
182 1 11.325 1.26265 6.37309
190 1 8.78575 3.1792 2.45244
191 1 10.5672 3.66572 0.703327
192 1 10.6343 5.0303 2.77383
193 1 5.67335 4.80569 2.83799
58 2 12.2743 0.206564 7.00775
57 2 11.1987 2.31145 0.126686
11 2 11.1895 6.36104 3.48728
207 1 10.6645 4.92981 13.6736
213 1 8.95858 5.37738 11.755
212 1 7.83109 5.97113 9.42246
209 1 7.84747 6.12642 14.7179
36 2 6.40198 2.35788 10.532
59 2 8.93596 2.02712 8.7417
208 1 5.6949 4.9536 13.5505
62 2 8.81816 1.99828 14.1938
63 2 11.3466 2.41454 10.621
68 2 6.40403 6.24248 8.75059
70 2 9.88644 4.28481 12.4307
71 2 6.34144 6.28622 14.157
142 1 5.88605 3.7046 11.2772
175 1 12.6534 2.55454 15.4004
177 1 13.2483 0.744941 8.20753
178 1 8.30623 0.686015 8.11445
179 1 7.73085 2.54106 9.69738
183 1 13.1993 0.778647 13.6239
184 1 8.18357 0.651529 13.5526
185 1 10.1736 1.69172 14.9971
186 1 7.7559 2.65469 15.1943
187 1 12.7451 2.64514 9.87928
188 1 10.2605 1.8441 9.59169
189 1 11.5645 1.26049 11.7267
199 1 10.6718 5.04468 8.11161
200 1 5.90838 4.88122 8.11417
205 1 9.10766 3.03491 13.003
206 1 10.8767 3.76732 11.3161
61 2 12.4097 0.0658236 12.396
30 2 6.32843 2.38648 15.8855
8 2 13.6939 2.16516 14.2446
232 1 5.75621 12.2217 5.92562
227 1 4.05838 11.6287 7.62414
42 2 3.927 6.58906 5.4228
231 1 6.44746 9.64507 6.3984
51 2 1.31644 10.8813 5.2946
230 1 5.1974 10.3094 4.24928
69 2 8.71756 6.48868 5.2402
73 2 7.31801 8.51537 1.73795
74 2 3.79111 10.407 3.56363
229 1 7.65708 10.8957 4.62289
76 2 7.40065 8.52637 7.04207
78 2 6.17539 10.8332 5.37571
149 1 3.18622 7.94624 0.657158
154 1 0.767645 12.229 0.569392
156 1 3.3569 8.03603 5.91339
162 1 0.72119 12.18 5.90326
194 1 5.38606 6.74272 4.6096
202 1 10.1958 6.71279 4.69842
214 1 6.42883 7.30924 2.27637
215 1 8.31045 7.91944 0.690342
216 1 8.23047 9.13196 2.91806
217 1 3.26651 9.04794 2.88885
218 1 3.92182 11.6232 2.54859
219 1 2.7711 10.9529 4.73742
221 1 6.44993 9.61316 0.971479
222 1 5.82003 12.1655 0.756539
20 2 8.79284 10.5144 3.53964
224 1 8.23405 7.91491 5.83481
223 1 6.52447 7.35645 7.68107
39 2 3.81819 6.6086 0.0544835
66 2 8.78223 6.58698 0.0212661
243 1 5.9563 12.1286 11.4234
48 2 1.3685 10.908 15.8761
45 2 3.85838 6.66586 10.5778
54 2 1.44487 10.8488 10.6983
72 2 8.83734 6.44576 10.5767
77 2 3.85513 10.5354 8.78317
79 2 7.32196 8.5274 12.3175
80 2 3.88421 10.611 14.1672
81 2 6.36415 10.7855 10.6101
164 1 3.39115 8.02201 11.2195
171 1 0.917701 12.2581 11.3228
195 1 10.2616 6.67642 15.3427
201 1 5.25811 6.69865 9.82431
210 1 5.28807 6.73143 15.3351
211 1 10.2662 6.73928 9.93949
220 1 7.85831 11.0502 15.3494
225 1 8.47996 8.99457 8.13903
226 1 3.26772 9.18451 8.06773
228 1 2.77428 10.9741 9.87113
233 1 6.43806 7.32802 12.9636
234 1 8.22368 7.78631 11.2421
235 1 8.07948 9.18733 13.4935
236 1 3.41546 9.14787 13.5972
237 1 5.3803 10.5869 14.7158
238 1 3.95706 11.6324 12.9149
239 1 2.85386 11.077 15.3134
240 1 7.77139 10.9103 9.87633
241 1 5.28567 10.4254 9.53303
242 1 6.4005 9.63198 11.725
26 2 8.76692 10.4435 14.1379
75 2 6.37337 10.8478 15.9104
52 2 2.50889 8.5902 12.4007
ITEM: TIMESTEP
200
ITEM: NUMBER OF ATOMS
243
ITEM: BOX BOUNDS xy xz yz pp pp pp
-7.4925120000000005e+00 1.4985125999999999e+01 -7.4925120000000005e+00
0.0000000000000000e+00 1.2723000000000001e+01 0.0000000000000000e+00
0.0000000000000000e+00 1.5963100000000001e+01 0.0000000000000000e+00
ITEM: ATOMS id type x y z
4 2 2.33723 0.0896076 7.1449
134 1 3.97049 5.49523 1.09623
140 1 4.10878 5.68722 6.46278
6 2 1.24889 2.35791 5.26197
10 2 -0.0988879 4.42275 1.75407
13 2 -0.155485 4.37386 7.01718
139 1 2.71873 6.25885 4.13117
29 2 3.79645 1.99734 3.51977
135 1 3.94382 3.30585 7.75859
37 2 4.80496 4.24861 1.72904
40 2 4.84191 4.41398 7.06274
2 2 -1.10881 2.14871 3.43971
82 1 1.59526 1.14507 1.06276
83 1 0.36422 1.95176 3.96051
84 1 1.36589 1.15957 6.33362
88 1 -1.13568 3.3604 2.3966
89 1 0.705512 3.58474 0.694759
90 1 -0.995305 5.53692 0.947191
91 1 -0.937487 3.15224 7.67814
92 1 0.759671 3.7116 5.90444
93 1 -2.35892 6.12975 4.10529
94 1 -1.20139 5.35455 6.3001
118 1 3.32224 0.532039 2.96443
119 1 2.81072 2.48134 4.73359
120 1 6.6016 1.34685 1.11071
123 1 5.35822 1.84333 4.093
124 1 6.47207 1.33074 6.38523
130 1 3.88362 3.04065 2.31362
132 1 0.721901 4.96626 2.97787
31 2 7.24301 0.0802268 7.05669
1 2 2.46545 0.000740888 1.72161
3 2 1.34803 2.28329 15.9355
9 2 1.29628 2.42088 10.5958
16 2 -0.181017 4.40085 12.4772
32 2 3.80502 2.1423 8.88114
146 1 2.74322 6.12552 9.42792
35 2 3.82401 2.04809 14.174
147 1 3.9647 5.41989 11.6946
43 2 4.88598 4.33616 12.3674
8 2 -1.14423 2.1363 14.308
85 1 0.3331 1.82804 14.816
86 1 0.251291 1.93912 9.50589
87 1 1.47713 1.24136 11.6299
95 1 -1.02364 3.19669 13.127
96 1 0.741143 3.65544 11.4215
97 1 -2.19385 6.15953 14.7745
98 1 -2.25668 6.03889 9.69796
99 1 -0.906642 5.74994 11.8626
121 1 3.13648 0.870168 8.26825
122 1 2.67099 2.77441 9.87332
125 1 3.29924 0.608507 13.5597
126 1 5.30307 1.84726 14.798
127 1 2.78198 2.54362 15.2651
128 1 5.22219 1.81958 9.49056
129 1 6.33901 1.1531 11.7039
137 1 0.703242 5.03991 8.12777
141 1 4.11418 3.11319 13.0313
143 1 0.67407 5.07072 13.6493
144 1 2.77906 6.12529 14.7724
34 2 7.28748 0.0522618 12.406
7 2 2.32338 0.0881097 12.298
5 2 -1.20303 2.09362 8.82366
14 2 -3.61101 6.26674 8.86232
49 2 2.32172 8.57258 7.00902
15 2 -1.27438 6.53543 5.27724
19 2 -2.73756 8.63481 1.76331
161 1 1.29212 9.74055 6.48565
22 2 -2.60846 8.5543 7.07602
24 2 -3.63676 10.9443 5.3432
46 2 2.26842 8.60834 1.73014
47 2 -1.23505 10.6413 3.52878
160 1 0.185875 10.3268 4.14944
100 1 -3.62824 7.41759 2.27169
101 1 -1.84196 7.94892 0.609732
102 1 -5.98678 11.577 2.29249
103 1 -3.54664 9.86171 1.15375
104 1 -4.13533 12.1492 0.556543
20 2 -6.13128 10.5957 3.50834
106 1 -1.76196 7.89141 5.92046
107 1 -5.99778 11.6394 7.67229
108 1 -4.72642 10.3618 4.34939
109 1 -3.34446 9.86327 6.47075
110 1 -4.10643 12.265 6.07897
133 1 0.20511 6.71112 4.6695
148 1 1.38161 7.40392 2.31618
150 1 -1.90924 9.28693 2.9158
151 1 -0.962042 11.6023 2.22364
152 1 -2.19813 11.2877 4.61399
153 1 1.46473 9.83929 1.17074
155 1 1.59578 7.31715 7.53681
158 1 -1.13609 11.644 7.79679
38 2 1.26494 6.39245 3.52736
18 2 -1.15255 6.69292 10.6462
25 2 -2.65154 8.50723 12.4479
27 2 -3.71269 10.6941 10.7042
50 2 -1.13511 10.4584 8.90088
41 2 1.27937 6.37215 8.77169
53 2 -1.13021 10.495 14.0596
111 1 -3.45412 7.28784 13.0186
112 1 -1.83559 7.96375 11.1881
113 1 -4.65109 10.2957 14.7927
114 1 -6.10934 11.5822 12.8249
115 1 -4.71503 10.2238 9.5418
116 1 -3.57815 9.73215 11.9366
117 1 -4.143 12.2014 11.1585
138 1 0.19106 6.917 9.80656
145 1 0.23481 6.88451 15.2755
157 1 -1.4767 9.10877 8.18752
159 1 -2.28491 10.7574 9.96695
163 1 1.48573 7.41003 12.9527
165 1 -1.81875 9.0922 13.6255
166 1 0.302987 10.3472 14.7328
167 1 -1.02406 11.5008 12.8655
168 1 -2.12229 11.0918 15.2085
169 1 0.32834 10.3944 9.60351
170 1 1.67093 9.81748 11.8356
23 2 -6.0799 10.4929 8.77353
21 2 -3.57347 10.7971 15.8401
44 2 1.30547 6.42574 14.1869
12 2 -1.20955 6.69242 15.9217
26 2 -6.0797 10.6171 14.1012
52 2 2.41164 8.55986 12.4473
105 1 -3.48569 7.57832 7.98982
65 2 6.30894 6.24987 3.46407
204 1 8.90165 5.28723 6.27834
196 1 8.80797 5.29243 0.935377
33 2 6.2644 2.41746 5.25609
203 1 7.85763 6.16034 3.93594
56 2 8.79628 2.01965 3.5445
197 1 9.07499 3.15402 7.69486
198 1 10.6754 3.58569 5.81096
60 2 11.3342 2.30724 5.22241
64 2 9.7291 4.24336 1.66601
28 2 7.45451 0.101176 1.70135
67 2 9.90434 4.27623 6.94149
131 1 5.69021 3.69065 0.489359
136 1 5.66608 3.79051 5.85324
172 1 13.2711 0.800876 2.81918
173 1 8.30244 0.585074 2.97272
174 1 7.73761 2.60787 4.58487
176 1 11.3823 1.08569 1.14936
180 1 12.8263 2.42442 4.61706
181 1 10.2816 1.8092 4.11296
182 1 11.4489 1.26199 6.41853
190 1 8.85401 3.1284 2.39001
191 1 10.567 3.48161 0.535462
192 1 10.5928 5.10439 2.70934
193 1 5.72663 4.85926 2.8674
58 2 12.3575 0.115453 6.94786
199 1 10.9868 5.03288 7.84077
11 2 11.2044 6.35984 3.46382
207 1 10.8091 4.87803 13.6261
213 1 8.97464 5.47855 11.8013
212 1 7.62348 5.98571 9.59329
209 1 7.7521 6.1954 14.7638
36 2 6.27399 2.31294 10.5638
59 2 8.86394 2.0551 8.83763
208 1 5.70876 4.96276 13.5393
62 2 8.85348 1.99359 14.1324
63 2 11.3657 2.40122 10.6846
71 2 6.24495 6.33314 14.2054
70 2 9.90958 4.32995 12.4315
30 2 6.33695 2.36802 15.8907
142 1 5.80498 3.67817 11.2673
175 1 12.7957 2.44435 15.4696
177 1 13.2981 0.677343 8.13729
178 1 8.27534 0.63986 8.14536
179 1 7.72186 2.43174 9.90855
183 1 13.2487 0.833237 13.6278
184 1 8.12707 0.694896 13.5925
185 1 10.3141 1.5988 14.6845
186 1 7.78402 2.54158 15.2108
187 1 12.7112 2.58716 9.85838
188 1 10.2632 1.95715 9.56326
189 1 11.6272 1.27695 11.7935
61 2 12.4805 0.088386 12.4237
200 1 5.81466 4.97518 8.16591
205 1 9.06279 3.05516 12.9146
206 1 10.8601 3.76141 11.3051
17 2 11.2986 6.2421 14.2179
57 2 11.2577 2.15351 15.8962
68 2 6.24325 6.34692 8.82698
232 1 5.79006 12.2044 5.78691
227 1 3.92693 11.6369 7.49111
42 2 3.81458 6.62304 5.20205
231 1 6.62477 9.90426 6.54284
51 2 1.19772 10.7986 5.26479
230 1 5.24121 10.2812 4.28641
69 2 8.7231 6.48779 5.18664
73 2 7.34408 8.50866 1.69766
74 2 3.75412 10.5014 3.63347
229 1 7.78711 11.1412 4.57033
76 2 7.41285 8.56089 7.0778
78 2 6.36996 10.8632 5.28862
149 1 3.1823 8.08237 0.523027
154 1 0.912284 12.2248 0.562192
156 1 3.31162 7.9867 5.88727
162 1 0.594143 12.1623 5.86405
194 1 5.28735 6.73308 4.55312
202 1 10.2148 6.79384 4.63796
214 1 6.33163 7.41186 2.28833
215 1 8.31165 7.8103 0.63527
216 1 8.12832 9.26624 2.89062
217 1 3.21173 9.13335 2.99575
218 1 3.83868 11.5693 2.43901
219 1 2.65054 10.9397 4.71093
221 1 6.51708 9.57781 0.930574
222 1 5.73911 12.0351 0.731604
223 1 6.60655 7.38159 7.70256
224 1 8.08588 7.81914 5.84268
55 2 4.82965 12.6992 1.84994
243 1 6.01223 12.2336 11.3375
48 2 1.35908 10.8451 15.8618
45 2 3.81097 6.5247 10.58
54 2 1.46665 10.9288 10.6425
72 2 8.77202 6.52638 10.5947
77 2 3.83402 10.6131 8.76889
79 2 7.34822 8.59953 12.4181
80 2 3.97799 10.486 14.14
81 2 6.42695 10.8533 10.5809
164 1 3.22153 7.81444 11.2907
171 1 0.851374 12.2716 11.3268
195 1 10.2976 6.66467 15.3333
201 1 5.16667 6.85304 9.8854
210 1 5.24016 6.87005 15.3132
211 1 10.2143 6.66266 9.88581
220 1 7.92567 11.1931 15.2975
225 1 8.41105 9.11048 8.17113
226 1 3.20619 9.22786 8.15737
228 1 2.8794 11.1253 9.944
233 1 6.41407 7.46807 13.0277
234 1 8.24011 7.86775 11.3171
235 1 8.32498 9.28084 13.5399
236 1 3.48811 9.08241 13.5282
237 1 5.43103 10.425 14.7327
238 1 4.10191 11.6048 12.9739
239 1 2.80038 10.8974 15.1396
240 1 7.89323 10.915 9.97244
241 1 5.28464 10.4976 9.44038
242 1 6.5437 9.7447 11.7792
66 2 8.82817 6.51406 15.9034
75 2 6.44847 10.8053 15.9486
39 2 3.75339 6.69614 15.9596
ITEM: TIMESTEP
300
ITEM: NUMBER OF ATOMS
243
ITEM: BOX BOUNDS xy xz yz pp pp pp
-7.4925120000000005e+00 1.4985125999999999e+01 -7.4925120000000005e+00
0.0000000000000000e+00 1.2723000000000001e+01 0.0000000000000000e+00
0.0000000000000000e+00 1.5963100000000001e+01 0.0000000000000000e+00
ITEM: ATOMS id type x y z
4 2 2.15338 0.10849 7.03932
134 1 3.99434 5.61299 1.1584
140 1 3.76291 5.46285 6.32036
6 2 1.32106 2.45849 5.2088
10 2 -0.151403 4.34947 1.73784
13 2 -0.188777 4.27844 7.04553
38 2 1.28533 6.35228 3.44028
29 2 3.91284 2.09266 3.46276
135 1 3.69387 3.2098 7.5851
37 2 4.89663 4.34157 1.64858
40 2 4.69095 4.35311 7.01023
1 2 2.35939 0.106643 1.71047
82 1 1.47783 1.31415 1.14437
83 1 0.214906 2.02908 4.14262
84 1 1.31208 1.26944 6.28816
88 1 -1.10113 3.16838 2.33331
89 1 0.83935 3.75404 0.595099
90 1 -0.971761 5.61803 1.13585
91 1 -1.04654 3.04953 7.54777
92 1 0.904499 3.79257 5.93048
93 1 -2.32109 6.19848 4.10127
94 1 -1.15071 5.38098 6.30121
118 1 3.34293 0.677349 2.84402
119 1 2.82849 2.49878 4.56067
120 1 6.53221 1.2599 1.19399
123 1 5.37539 1.91444 4.14936
124 1 6.3825 1.31248 6.56234
130 1 3.95561 3.18236 2.2835
132 1 0.804491 4.88308 2.8977
31 2 7.33642 0.100483 7.06357
28 2 7.43211 0.0500277 1.70565
3 2 1.4333 2.38827 0.0103441
41 2 1.23913 6.28714 8.728
9 2 1.32418 2.39904 10.6505
16 2 -0.177595 4.3297 12.4853
32 2 3.67054 2.15359 8.82752
146 1 2.58439 6.09859 9.53032
35 2 3.96119 1.99999 14.1216
147 1 3.8227 5.42914 11.7304
43 2 4.79663 4.31308 12.3977
8 2 -1.05024 2.00938 14.1976
85 1 0.500157 1.93165 14.7273
86 1 0.353628 1.87104 9.50496
87 1 1.54789 1.24596 11.7714
95 1 -1.12126 3.18967 13.1426
96 1 0.738842 3.78135 11.2606
97 1 -2.16347 6.02237 14.8932
98 1 -2.19196 6.18395 9.51169
99 1 -1.08554 5.49617 11.7463
121 1 3.02512 0.755282 8.24232
122 1 2.76327 2.62699 10.0954
125 1 3.42544 0.646313 13.476
126 1 5.40851 1.81153 14.8643
127 1 2.9188 2.42616 15.3069
128 1 5.14379 1.93168 9.42218
129 1 6.28971 1.14678 11.6564
137 1 0.602233 4.9016 8.25104
141 1 3.89818 3.18208 13.0394
143 1 0.764252 5.03227 13.5985
144 1 2.73792 6.22618 14.8489
34 2 7.27695 0.0147136 12.3027
7 2 2.45986 0.0150418 12.3482
5 2 -1.12489 2.04509 8.84032
14 2 -3.65783 6.27897 8.84165
17 2 -3.57461 6.27837 14.237
49 2 2.34462 8.54112 7.1449
15 2 -1.21131 6.52567 5.19548
19 2 -2.7889 8.5637 1.79258
161 1 1.37003 9.64668 6.44828
22 2 -2.61183 8.59688 7.08424
24 2 -3.65256 10.9103 5.29365
46 2 2.27448 8.60825 1.73535
47 2 -1.23708 10.5583 3.53751
160 1 0.180943 10.2331 4.24724
100 1 -3.73608 7.37564 2.31151
101 1 -1.77661 7.88816 0.756807
102 1 -5.94639 11.5731 2.31607
103 1 -3.56499 9.74612 1.0618
104 1 -4.1121 12.2936 0.651693
20 2 -6.15685 10.5566 3.50797
106 1 -1.84271 7.84713 5.94243
107 1 -6.18542 11.6326 7.60096
108 1 -4.72358 10.4796 4.23742
109 1 -3.42525 9.85074 6.46181
110 1 -4.33009 12.1982 5.98149
133 1 0.186601 6.77715 4.46485
148 1 1.33129 7.45008 2.27883
150 1 -2.02652 9.23964 3.00042
151 1 -0.910971 11.4756 2.2562
152 1 -2.33323 11.3026 4.42301
153 1 1.42314 9.74287 1.07229
155 1 1.41856 7.28106 7.56119
158 1 -1.16869 11.701 7.72157
105 1 -3.53532 7.43869 7.68725
139 1 2.68585 6.36852 4.17306
21 2 -3.59712 10.9147 0.00519453
18 2 -1.12199 6.68754 10.6224
25 2 -2.65092 8.54556 12.4142
27 2 -3.61491 10.7605 10.544
50 2 -1.09086 10.5805 8.82995
52 2 2.38329 8.60753 12.3646
53 2 -1.04068 10.5182 14.215
111 1 -3.56747 7.31045 13.0033
112 1 -1.64235 8.01097 11.2886
113 1 -4.58671 10.4938 14.771
114 1 -6.04618 11.6862 13.0055
115 1 -4.70714 10.31 9.43606
116 1 -3.5315 9.70072 11.6956
117 1 -4.10451 12.1158 11.2164
138 1 0.293167 6.88679 9.86847
145 1 0.345698 6.93529 15.3139
157 1 -1.64679 9.20391 8.17537
159 1 -2.18773 10.9957 9.9123
163 1 1.41323 7.51671 12.9847
165 1 -1.68291 9.10703 13.6085
166 1 0.45986 10.2893 14.7271
167 1 -1.02404 11.4679 12.8761
168 1 -2.12151 11.0627 15.352
169 1 0.404465 10.541 9.35681
170 1 1.51411 9.87687 11.698
23 2 -6.11465 10.5023 8.75654
26 2 -6.08266 10.6102 14.1786
44 2 1.29934 6.43478 14.1554
12 2 -1.1394 6.66509 15.9273
65 2 6.26503 6.2533 3.46404
204 1 8.87226 5.55075 6.36204
196 1 8.83679 5.32472 1.01153
33 2 6.37779 2.34725 5.33738
203 1 7.71223 5.95846 4.11554
56 2 8.90963 1.97724 3.57471
197 1 9.07027 3.19425 7.71888
198 1 10.7078 3.82017 5.75844
60 2 11.3393 2.35946 5.34123
64 2 9.81046 4.18409 1.57448
2 2 13.7332 2.03758 3.49112
67 2 9.85058 4.36857 6.98126
131 1 5.88057 3.72171 0.511216
136 1 5.69257 3.69832 5.89472
172 1 13.2775 0.783452 2.70336
173 1 8.3134 0.573801 3.00725
174 1 7.92375 2.56979 4.68138
176 1 11.2885 1.01152 0.965446
180 1 12.7074 2.48391 4.59788
181 1 10.3974 1.7215 4.1923
182 1 11.4654 1.32255 6.54483
190 1 9.13933 3.02461 2.42302
191 1 10.602 3.52667 0.354791
192 1 10.7886 4.8869 2.65319
193 1 5.72999 4.88976 2.8436
58 2 12.4329 0.176425 7.04208
11 2 11.1693 6.24274 3.43772
55 2 12.3465 0.0351503 1.66125
207 1 10.8158 4.91495 13.6325
213 1 8.93722 5.52088 11.9233
212 1 7.71116 5.98803 9.62388
209 1 7.77017 6.30447 14.7664
36 2 6.22653 2.3634 10.5499
59 2 8.87632 2.1392 8.88732
208 1 5.78571 5.03087 13.3568
62 2 8.87975 1.92629 14.1125
63 2 11.3517 2.31312 10.622
57 2 11.3247 2.18035 15.81
70 2 9.84882 4.30317 12.4114
30 2 6.42142 2.35812 15.9617
142 1 5.73567 3.74666 11.245
175 1 12.7863 2.44063 15.2136
177 1 13.328 0.680987 8.25239
178 1 8.33977 0.779541 8.15288
179 1 7.64468 2.54802 9.8842
183 1 13.3817 0.698597 13.5469
184 1 8.27628 0.598667 13.4566
185 1 10.3938 1.69447 14.5787
186 1 7.8944 2.50291 15.2278
187 1 12.7779 2.529 9.90627
188 1 10.1505 1.71391 9.68831
189 1 11.5683 1.30731 11.7932
61 2 12.4641 0.121018 12.3328
200 1 5.60964 5.01855 8.16362
205 1 8.94379 3.12379 13.0537
206 1 10.6945 3.64387 11.2342
68 2 6.33169 6.30862 8.87502
199 1 10.7402 4.92448 8.15981
232 1 5.90671 12.3462 5.82992
227 1 4.01376 11.725 7.62553
42 2 3.77539 6.73782 5.24831
231 1 6.56149 9.92534 6.49366
51 2 1.29114 10.7732 5.31021
230 1 5.28134 10.2808 4.33152
69 2 8.73388 6.61799 5.1272
73 2 7.30356 8.5643 1.76515
74 2 3.83507 10.5114 3.70084
229 1 7.77631 11.1641 4.46384
76 2 7.34808 8.59498 6.98092
78 2 6.40602 10.9494 5.25621
149 1 3.29738 8.10371 0.590303
154 1 0.84073 12.2426 0.441523
156 1 3.27864 8.08379 5.89946
162 1 0.711856 12.1123 5.92467
194 1 5.25731 6.70705 4.63489
202 1 10.1731 6.80559 4.5182
214 1 6.35022 7.4496 2.34399
215 1 8.33372 7.79994 0.803797
216 1 8.22177 9.17463 2.94583
217 1 3.16538 9.29439 2.91124
218 1 4.13943 11.5829 2.57512
219 1 2.78184 11.0407 4.786
221 1 6.49273 9.7601 1.08323
222 1 5.76268 12.165 0.5124
223 1 6.40388 7.44499 7.71328
224 1 8.14965 8.03708 5.73941
243 1 5.88413 12.321 11.1141
48 2 1.42099 10.8925 15.8418
45 2 3.73613 6.56884 10.5819
54 2 1.46543 11.0087 10.5239
72 2 8.77302 6.51764 10.6882
77 2 3.86362 10.6444 8.767
79 2 7.26883 8.63092 12.3619
80 2 3.92289 10.5861 14.0864
81 2 6.33066 10.9146 10.5446
164 1 3.31646 7.97892 11.2233
171 1 0.84641 12.4022 11.1232
195 1 10.3381 6.68659 15.3521
201 1 5.1974 6.76926 9.95466
210 1 5.26115 6.80422 15.2469
211 1 10.2186 6.6329 9.97296
220 1 7.85431 11.0573 15.2616
225 1 8.32396 9.1117 8.13356
226 1 3.28715 9.26146 8.23189
228 1 2.89121 11.2535 9.90835
233 1 6.24596 7.56299 12.9594
234 1 8.20229 7.906 11.2233
235 1 8.30272 9.28595 13.5427
236 1 3.3077 9.24647 13.495
237 1 5.38947 10.3671 14.6777
238 1 4.08815 11.6195 12.8492
239 1 2.88339 11.062 15.2315
240 1 7.79519 10.9536 9.85373