ITEM: TIMESTEP
0
ITEM: NUMBER OF ATOMS
366
ITEM: BOX BOUNDS xy xz yz pp pp pp
-7.6516000000000002e+00 1.5037200000000000e+01 -7.4931000000000001e+00
0.0000000000000000e+00 1.3615700000000000e+01 -1.5850000000000000e-01
0.0000000000000000e+00 1.7607399999999998e+01 8.0699999999999994e-02
ITEM: ATOMS id type q x y z
351 2 0.159323 -3.04167 5.7445 0.429154
3 4 1.33548 0.983354 2.01991 0.251912
5 4 1.60061 0.693523 1.68023 5.47928
7 4 1.61661 0.304212 4.23627 2.20955
301 2 0.178152 5.45531 3.4622 1.89767
10 4 1.2321 -0.238956 4.39508 7.17223
339 2 0.221485 3.18417 5.43587 1.66613
24 4 1.48791 3.49582 1.80578 4.28649
297 3 -0.778684 6.68297 0.726212 1.43708
28 4 1.61381 1.57825 6.1199 4.18197
65 3 -0.798206 1.68756 0.602854 0.89928
66 3 -0.810505 -0.166402 1.5067 4.07373
67 3 -0.841357 0.799124 0.376213 6.41415
69 3 -0.857917 -1.10683 3.57743 2.6738
70 3 -0.832553 1.19149 3.13308 1.35404
71 3 -0.855927 -0.0376216 5.48018 1.1387
72 3 -0.834493 0.0247416 2.99962 6.44706
338 1 -0.671131 4.10792 5.58886 1.03512
74 3 -0.856915 -0.77034 5.55915 6.30815
89 3 -0.838966 3.2814 0.832717 3.04027
90 3 -0.847621 2.21715 2.14299 5.12237
91 3 -0.806054 2.19802 0.930274 8.58823
92 3 -0.801428 4.73356 1.56995 5.30705
27 4 1.57433 6.27121 2.05735 5.80832
94 3 -0.878689 1.08552 4.78187 3.44557
9 4 1.37045 -0.735108 6.53386 0.151646
98 3 -0.864357 2.67062 5.60994 5.19209
96 3 -0.794466 4.36106 2.89164 8.58022
172 1 -0.663704 1.49351 4.92147 8.06373
178 1 -0.688475 4.06071 3.51793 3.42134
208 2 0.267409 2.07212 4.67181 7.12418
361 2 0.248519 -0.766655 1.88202 7.77954
210 2 0.181635 1.38769 6.10807 8.3025
225 2 0.263129 3.6041 4.38954 4.08118
226 2 0.20558 3.67512 3.53667 2.38466
227 2 0.171097 5.20916 3.36044 3.44753
93 3 -0.819163 6.84146 0.870871 6.88714
356 2 0.167986 4.23623 4.75634 0.273509
31 4 1.61561 3.89273 6.2229 6.14661
99 3 -0.89702 4.26877 5.1975 7.22766
73 3 -0.8647 -2.24075 6.72296 4.30109
171 1 -0.683599 -1.21397 4.0608 8.74505
321 2 0.200054 -2.05568 4.64474 17.0658
13 4 1.28867 -0.492651 4.54092 13.9985
14 4 1.14206 -1.12211 6.56516 11.6946
26 4 1.14504 3.42359 1.71959 9.30735
68 3 -0.78576 -0.825832 2.1301 17.2496
75 3 -0.795728 -1.31426 3.51595 14.9331
209 2 0.17507 1.78812 4.3103 8.9559
77 3 -0.788697 -1.31756 5.83591 13.0054
100 3 -0.825456 0.82128 5.07872 14.699
330 2 0.165815 5.63248 1.90903 15.3313
173 1 -0.669524 0.102814 3.12154 12.8309
175 1 -0.686311 0.531929 5.69241 11.0049
179 1 -0.647659 4.62343 0.235621 9.78516
180 1 -0.656935 2.77531 2.71261 10.7427
181 1 -0.655723 3.70476 3.64176 14.3627
204 2 0.144107 0.00799169 0.854062 14.9342
206 2 0.152 -0.534496 3.41605 9.37631
207 2 0.227853 -1.58206 4.98854 9.36073
211 2 0.147306 -0.735614 3.22261 12.0566
212 2 0.178664 0.0706367 2.22571 13.4758
213 2 0.175542 1.10067 3.28709 12.4084
217 2 0.169203 0.850314 5.46101 9.93468
218 2 0.1656 0.553086 4.69741 11.6399
314 2 0.215397 2.48007 3.62092 16.8922
328 2 0.13656 4.56377 2.53033 16.8631
230 2 0.22036 5.69429 0.487904 9.93437
231 2 0.167797 1.71623 2.74264 10.4233
232 2 0.162574 3.34675 3.73663 10.8405
233 2 0.13056 3.12595 1.81063 11.5097
234 2 0.178123 4.26587 2.85673 15.0365
235 2 0.164701 3.41827 3.24195 13.3866
236 2 0.244871 2.90679 4.26618 14.8451
241 2 0.143333 3.05597 6.39473 12.5079
76 3 -0.811978 -2.36146 6.66008 10.5219
349 2 0.21759 -2.93964 6.33195 14.499
303 1 -0.67308 5.15814 1.47176 12.678
305 2 0.163363 4.32595 1.33694 13.4569
306 2 0.163077 4.9439 1.06678 11.5849
307 2 0.165397 5.4801 2.56466 12.6554
312 1 -0.690201 1.9944 2.70438 16.5334
313 2 0.172642 2.70224 1.78108 16.6126
282 2 0.194724 3.85916 5.79824 9.52626
315 2 0.188561 1.47991 2.75253 15.5615
320 1 -0.668112 -2.4572 5.72097 17.1481
302 4 1.12288 6.63368 0.320713 13.2298
322 2 0.150884 -3.05693 6.17955 16.1269
327 1 -0.644453 5.27293 1.61964 16.3899
33 4 1.50244 1.24619 6.50364 15.5521
329 2 0.269401 4.81669 0.509447 16.4319
101 3 -0.828298 2.61302 6.21384 16.3834
219 2 0.139984 1.22064 6.43853 11.4529
4 4 1.58502 -5.72515 13.1973 7.49368
8 4 1.63113 -3.7085 7.17162 3.79386
15 4 1.55883 -2.3868 9.16982 1.8315
17 4 1.56709 -3.91362 11.2523 0.34251
18 4 1.63519 -2.48751 8.92047 7.59625
20 4 1.69161 -3.96358 11.199 5.9402
114 3 -0.799321 1.85886 9.91559 6.73135
110 3 -0.858778 -1.36581 9.66472 8.52479
25 4 1.44569 0.0140387 13.2216 7.72432
35 4 1.62652 -1.39818 11.2695 4.04642
37 4 1.23051 2.34611 8.74323 7.59511
78 3 -0.873744 -3.4285 8.32096 2.68679
79 3 -0.813521 -1.34161 7.83792 0.988476
80 3 -0.88956 -2.96889 9.9797 0.596511
81 3 -0.852111 -4.09533 12.1779 1.58104
109 3 -0.798086 3.15348 7.49223 6.93908
83 3 -0.868984 -1.7045 8.0834 6.38637
84 3 -0.882956 -6.49579 12.0847 8.49891
85 3 -0.842484 -5.26185 10.888 5.03134
86 3 -0.839232 -3.46351 10.0297 6.95638
87 3 -0.852955 -4.42597 12.5483 6.77198
95 3 -0.853535 0.388012 7.0522 4.82081
103 3 -0.854529 2.59832 7.12049 3.21925
105 3 -0.851783 -1.51706 10.1627 2.71455
106 3 -0.821847 -0.921359 12.7085 3.51039
107 3 -0.845037 -2.77482 11.5014 4.92642
108 3 -0.841828 0.856056 11.9346 1.41187
111 3 -0.837019 -0.929993 12.3645 8.63611
113 3 -0.861997 -0.17074 10.686 4.93236
34 4 1.4594 2.73104 8.44805 2.43822
184 1 -0.683038 0.864382 8.99239 2.55296
39 4 1.59826 1.17603 11.1696 5.73794
243 2 0.277626 0.639089 8.87375 3.65961
244 2 0.252154 0.04873 8.4823 1.9071
245 2 0.258212 0.846605 10.0542 2.19825
248 2 0.208201 0.216883 7.9248 7.94259
310 3 -0.816987 -6.14515 12.5111 3.23338
364 2 0.245189 -4.72651 8.56064 0.5954
82 3 -0.84229 -3.51541 8.01708 8.50503
1 4 1.61834 -5.09935 13.3334 2.19698
358 2 0.240319 -0.271172 9.17836 0.15549
12 4 1.62602 -1.16558 6.88218 5.44806
357 2 0.25345 1.62207 9.0294 0.0431734
23 4 1.50035 0.078818 13.318 2.38073
22 4 1.21677 -3.77043 10.8686 11.2799
324 2 0.194281 -6.65222 12.4584 14.1033
102 3 -0.84288 0.0225171 7.02976 16.4796
38 4 1.53131 -1.07574 10.8811 9.57894
40 4 1.27499 1.91054 9.22598 13.9183
41 4 1.28637 -1.95855 11.8864 15.6392
42 4 1.22963 0.686396 11.413 11.8341
88 3 -0.810674 -4.94566 10.7884 10.2239
325 2 0.203243 -4.96714 12.6114 14.7782
229 2 0.16385 -3.44478 13.3063 10.8204
112 3 -0.846436 -2.31342 11.0062 10.6356
116 3 -0.825921 1.45639 7.77552 14.5042
117 3 -0.823706 -0.661416 11.9808 16.722
118 3 -0.777113 -1.53766 12.898 14.3454
119 3 -0.768519 -3.33528 12.2982 16.454
120 3 -0.860957 0.26432 10.585 10.4135
121 3 -0.773756 0.73374 10.4246 13.1558
122 3 -0.763203 -0.0791977 13.1213 11.9551
174 1 -0.641942 -0.686707 8.43086 12.2006
176 1 -0.704223 -3.75907 9.19789 12.2775
177 1 -0.675629 -4.14712 12.3645 12.3969
185 1 -0.697735 0.515424 9.6512 17.2632
353 2 0.17923 -3.60407 13.3732 12.5268
189 1 -0.672814 -2.34693 10.1347 15.0864
214 2 0.17241 0.370368 8.30268 11.659
215 2 0.220821 -0.649461 8.55148 13.3234
216 2 0.214568 -1.26871 9.2407 11.6755
220 2 0.173824 -2.65422 8.92145 12.3387
221 2 0.282076 -4.3275 8.44598 11.6624
222 2 0.181242 -4.18036 9.29804 13.3356
223 2 0.14192 -3.96209 11.5828 13.3559
224 2 0.199438 -5.24604 12.4896 12.1084
246 2 0.205686 0.393443 9.43162 16.2043
247 2 0.158829 0.828262 7.14445 9.63638
249 2 0.2444 0.766308 8.99121 9.37893
36 4 1.37798 0.626598 11.529 17.4798
254 2 0.165536 2.52806 7.53432 12.0851
256 2 0.22321 -2.93257 9.75623 15.9591
257 2 0.166969 -1.19085 9.79138 15.0821
258 2 0.152877 -2.93052 9.87986 13.9981
348 2 0.196824 -3.97782 7.75713 13.69
311 3 -0.871771 -5.39383 10.9054 17.1951
323 1 -0.666046 -6.07591 12.5779 15.0142
326 2 0.178069 -6.38072 13.4721 15.6069
345 2 0.162463 -3.95132 7.13165 17.2718
11 4 1.58702 -3.68075 6.8746 9.60207
188 1 -0.653541 2.6087 8.68819 12.2683
253 2 0.171314 2.08771 9.35194 11.4572
228 2 0.263696 -2.96548 13.0155 8.95441
186 1 -0.691117 0.976414 8.03704 8.82675
2 4 1.6205 13.4655 2.26543 3.45863
360 2 0.169758 10.4821 1.20376 1.00404
296 4 0.95677 6.68626 1.86873 0.217997
44 4 1.57615 8.77099 1.99517 3.88846
280 2 0.269831 8.00238 4.36102 7.87368
46 4 1.61875 11.3462 2.26151 5.76141
48 4 1.32363 9.91637 4.72745 2.26607
51 4 1.38674 10.4402 4.79915 7.50271
97 3 -0.858333 6.24665 3.43536 6.62591
300 2 0.224612 7.31985 3.56191 1.58208
123 3 -0.82342 12.7283 1.17199 2.42296
124 3 -0.839803 8.87144 0.676295 3.07679
125 3 -0.852483 7.26427 2.27508 4.53661
126 3 -0.850878 12.4533 2.59168 4.63338
127 3 -0.822828 9.92607 1.96695 5.08536
128 3 -0.847412 11.7761 0.975845 6.68405
129 3 -0.819452 9.26684 3.36835 2.98858
130 3 -0.858335 10.5994 5.86424 3.17541
132 3 -0.813871 8.90183 5.35689 0.982086
133 3 -0.843608 11.2385 3.57457 6.76745
354 2 0.176064 9.19639 1.71647 0.622556
340 2 0.189806 5.07116 5.70409 1.72903
138 3 -0.874945 9.64496 5.86154 6.59279
277 2 0.227208 6.85567 5.84602 2.06848
196 1 -0.664359 11.3388 3.90713 1.3249
197 1 -0.690006 6.56949 5.40541 3.08072
198 1 -0.641967 8.94638 3.72011 8.10244
275 2 0.232226 12.3236 4.54091 1.46712
274 2 0.22921 11.4487 2.84665 1.61163
273 2 0.152968 10.9347 4.01234 0.257736
276 2 0.225209 7.4677 4.8921 3.50889
337 2 0.169567 8.75011 1.7842 8.59758
278 2 0.176701 5.64466 4.69336 3.07187
279 2 0.202922 9.0347 2.84424 7.35756
299 2 0.180537 6.12592 4.31465 0.299524
192 1 -0.686684 13.7491 1.22589 8.5579
298 1 -0.665829 6.29323 3.51329 1.08137
131 3 -0.826856 5.19735 6.69568 5.21945
352 2 0.218914 12.9588 3.49879 8.12142
45 4 1.21559 12.5922 0.0516437 7.59423
191 1 -0.64039 10.8171 0.0386492 0.971242
30 4 1.52184 5.24189 4.05734 7.75097
6 4 1.13045 13.3386 2.25343 15.9132
32 4 0.935665 5.12344 5.08775 13.8439
47 4 0.952033 10.4935 3.02773 11.8572
237 2 0.166722 5.4095 3.87096 11.6558
54 4 1.13421 9.93379 5.34915 13.813
135 3 -0.800501 6.2366 4.88066 8.95776
139 3 -0.730253 10.7654 4.30087 12.8436
140 3 -0.781739 6.09588 5.3867 15.0238
205 2 0.162864 13.4634 0.247647 13.9106
334 1 -0.659361 8.61568 0.622376 8.99456
145 3 -0.808569 8.74121 5.94202 12.8488
182 1 -0.682565 6.09283 4.4462 12.3169
355 2 0.174961 8.00194 1.5177 15.2541
193 1 -0.687255 11.7283 2.93631 10.3864
194 1 -0.66419 8.66426 2.89476 11.3009
195 1 -0.637649 10.8213 1.52188 12.9277
363 2 0.14143 11.2661 0.172917 9.75599
200 1 -0.687879 9.15196 4.25976 15.2133
265 2 0.161514 12.7907 2.89502 10.7132
170 1 -0.662604 13.9004 0.598357 15.0073
238 2 0.177075 6.91817 3.83569 12.8448
239 2 0.278106 6.52838 5.3432 11.7502
263 2 0.169672 13.1267 1.92589 9.26724
264 2 0.138353 11.3286 2.00752 9.88798
183 1 -0.675824 4.01583 6.6231 13.2459
266 2 0.265381 11.5717 3.8847 9.81087
267 2 0.157328 8.23062 2.39632 12.3875
268 2 0.175742 8.54268 2.16661 10.4334
269 2 0.210174 8.3057 4.00497 11.0825
270 2 0.159364 10.1566 0.588987 12.7325
271 2 0.174348 11.0542 1.74993 14.1312
272 2 0.151489 11.9309 1.47905 12.3524
366 2 0.150582 13.5666 0.454549 12.1772
285 2 0.16018 9.61961 4.35921 16.2646
286 2 0.157907 9.31389 3.25471 14.6196
287 2 0.244678 8.05896 4.6069 15.1627
304 1 -0.666137 7.83763 1.48428 14.0688
308 2 0.16283 8.92305 1.53294 13.5881
309 2 0.12083 7.18874 2.44238 13.7358
316 1 -0.67281 11.452 2.11085 16.089
317 2 0.146174 11.1991 1.02141 15.6401
318 2 0.169955 10.6614 2.89576 15.7117
319 2 0.168766 11.5531 2.10741 17.2896
331 1 -0.67551 8.4348 1.81708 17.2221
332 2 0.176924 8.5994 0.839202 16.656
333 2 0.17698 8.68061 2.65934 16.5317
134 3 -0.85218 11.1534 5.46101 8.88263
336 2 0.199268 7.94429 0.493977 9.93333
281 2 0.159188 8.91658 3.41337 9.38628
52 4 1.30828 6.0778 6.45555 9.37203
335 2 0.181423 9.66617 0.0958804 9.0714
284 2 0.154751 4.22203 6.61958 11.263
199 1 -0.673912 4.35663 6.73377 10.0233
144 3 -0.802747 7.23446 6.67367 10.9047
362 2 0.215574 14.4789 0.56223 9.0443
347 1 -0.669113 11.0771 6.83341 14.4614
16 4 1.6715 8.50952 11.1167 4.00127
59 4 1.63458 6.08503 11.1229 0.0157355
43 4 1.46308 4.83401 13.1751 1.98483
49 4 1.42531 6.38168 6.95774 4.19596
50 4 1.35376 8.68415 6.86302 0.299914
53 4 1.67292 9.10548 7.20583 5.9542
57 4 1.6453 7.17459 8.98201 2.08707
58 4 1.65085 3.75303 10.9916 4.09732
60 4 1.58915 7.38945 8.92233 7.9914
61 4 1.64077 6.07017 11.0299 5.99354
262 2 0.283883 2.32661 12.9371 1.2757
250 2 0.222874 4.64307 9.04334 8.7107
343 2 0.182559 3.22224 12.4971 8.36325
115 3 -0.847938 1.01547 12.3442 6.85757
161 3 -0.809191 5.8974 12.4127 6.82193
136 3 -0.798753 10.3704 7.79768 5.04871
146 3 -0.793072 6.0429 8.08824 3.07154
147 3 -0.864149 7.92713 7.79512 1.4442
148 3 -0.851955 8.23673 9.8638 2.95507
149 3 -0.828314 3.4101 9.62372 3.14849
150 3 -0.848965 4.36094 12.1834 3.09689
151 3 -0.806023 2.26634 11.4879 4.57101
153 3 -0.84582 6.43872 9.90563 1.02671
154 3 -0.806421 5.97312 12.5131 0.977124
155 3 -0.83075 6.4043 7.61455 8.33529
156 3 -0.795281 8.70974 8.25449 7.19513
158 3 -0.865705 7.11973 11.2327 4.75967
159 3 -0.841875 4.49057 10.6977 5.41405
160 3 -0.870118 6.57462 9.87005 6.96979
137 3 -0.865288 7.8331 7.06427 5.05083
104 3 -0.841532 3.06545 8.17408 0.775774
187 1 -0.643551 3.62871 9.57363 8.75968
252 2 0.186854 3.74874 10.7726 8.73411
359 2 0.190652 3.58781 13.3265 17.5375
365 2 0.166582 10.7075 7.19035 15.4989
21 4 1.4507 8.58937 10.9449 16.0238
55 4 1.4789 6.36913 7.09194 15.6738
56 4 1.50814 8.54892 7.0898 11.7332
157 3 -0.852473 7.76377 9.6861 9.39009
62 4 1.49507 7.63794 9.14692 13.7355
63 4 1.39249 3.29589 11.2284 15.8828
64 4 1.18909 6.5889 11.4405 11.9686
142 3 -0.78686 5.03283 7.49865 16.5968
143 3 -0.782985 10.0926 7.03111 10.694
152 3 -0.86208 7.16796 11.2118 16.5663
295 2 0.15384 4.7765 13.0526 11.0154
162 3 -0.840129 6.54085 8.18974 14.4573
163 3 -0.855306 8.42793 8.51602 12.4831
164 3 -0.809192 8.8486 9.71437 14.928
165 3 -0.820259 3.02046 10.0109 14.7908
166 3 -0.84967 4.57958 11.0916 16.8682
167 3 -0.857108 2.08813 11.7495 16.7139
168 3 -0.818401 7.83069 11.7335 11.142
169 3 -0.797219 6.82073 10.6133 13.3305
190 1 -0.684771 2.4982 11.8586 11.7446
201 1 -0.663734 3.50452 12.7729 14.6365
202 1 -0.654382 5.32584 10.4113 10.9279
203 1 -0.667116 5.4214 13.0701 12.116
19 4 1.56753 8.56439 11.0871 9.65578
242 2 0.181095 4.85897 7.23878 12.8224
251 2 0.136715 2.99971 9.29528 9.6934
29 4 1.33975 3.62494 7.10774 17.458
255 2 0.171991 3.71735 9.03206 12.451
259 2 0.16744 2.59782 11.5331 10.6058
260 2 0.165578 3.14257 11.233 12.4439
261 2 0.163809 2.7679 12.9632 11.8921
283 2 0.184642 4.01433 7.77939 9.61296
288 2 0.183291 3.1834 12.403 13.6091
289 2 0.161739 4.59904 13.2512 14.7744
240 2 0.235638 3.71148 7.08167 14.2324
291 2 0.182493 5.37151 9.28462 11.2953
292 2 0.195411 5.57855 10.5666 9.83328
293 2 0.150089 4.27995 10.9478 11.2601
294 2 0.180594 4.76509 12.9343 13.0463
350 2 0.211923 6.28734 13.314 15.7281
141 3 -0.851115 7.69346 6.97427 16.5732
341 1 -0.699199 3.98973 12.7697 9.1863
342 2 0.163673 4.40317 11.9006 9.82486
344 1 -0.68174 10.1416 7.87958 17.3301
290 2 0.166384 2.64442 13.4055 15.1266
346 2 0.235492 9.9188 8.41988 16.3698
ITEM: TIMESTEP
100
ITEM: NUMBER OF ATOMS
366
ITEM: BOX BOUNDS xy xz yz pp pp pp
-7.8046320000000007e+00 1.5337944000000000e+01 -7.6429620000000007e+00
0.0000000000000000e+00 1.3615700000000000e+01 -1.6167000000000001e-01
0.0000000000000000e+00 1.7607399999999998e+01 8.0699999999999994e-02
ITEM: ATOMS id type q x y z
73 3 -0.854328 -2.23358 6.6206 4.21341
3 4 1.3516 1.01363 1.9088 0.383091
5 4 1.56852 0.759079 1.70674 5.46661
7 4 1.62072 0.248761 4.32331 2.15656
301 2 0.175493 5.47174 3.57011 1.69414
10 4 1.2113 -0.334433 4.45016 7.17314
339 2 0.220578 3.19779 5.56506 1.61803
24 4 1.47962 3.59797 1.77678 4.21119
297 3 -0.764264 6.6177 0.622268 1.41945
28 4 1.62028 1.67502 6.17944 4.0782
65 3 -0.832644 1.4093 0.411478 0.984103
66 3 -0.828225 -0.217873 1.48293 4.17954
67 3 -0.824814 0.768315 0.280386 6.25862
69 3 -0.854944 -1.0611 3.51058 2.68173
70 3 -0.840479 1.1903 3.14653 1.35383
71 3 -0.875169 -0.122902 5.49896 1.13608
72 3 -0.827477 -0.00205057 2.93986 6.53036
338 1 -0.68075 4.15496 5.58811 0.956349
74 3 -0.832842 -0.936201 5.62254 6.36553
89 3 -0.830762 3.15787 0.702631 3.09132
90 3 -0.847839 2.29116 2.15578 5.01163
91 3 -0.807836 2.27946 1.07068 8.39754
92 3 -0.846241 4.93283 1.64132 5.10443
351 2 0.17426 -3.15925 5.743 0.475233
94 3 -0.883029 1.0885 4.95771 3.32522
9 4 1.41406 -0.824933 6.56812 0.228426
98 3 -0.885655 2.65676 5.72795 5.17794
96 3 -0.8182 4.42281 3.00286 8.48812
172 1 -0.665556 1.3217 5.07122 7.91034
178 1 -0.693334 4.20025 3.38956 3.2593
208 2 0.258455 1.92635 5.12671 6.92795
361 2 0.256846 -0.785036 1.82899 7.77133
210 2 0.16113 1.18773 6.22395 8.35297
225 2 0.224612 3.82991 4.27676 3.82775
226 2 0.194423 3.70794 3.249 2.23823
227 2 0.174926 5.33352 3.30454 3.3233
93 3 -0.825477 6.83661 0.893639 6.88224
356 2 0.159088 4.17868 4.66045 0.265012
31 4 1.61491 3.9242 6.3268 6.12816
99 3 -0.888315 4.38602 5.23215 7.13863
27 4 1.61401 6.3358 2.04525 5.76524
209 2 0.17027 1.78022 4.32382 8.65751
321 2 0.216902 -2.11892 4.68083 17.0294
13 4 1.31815 -0.452171 4.48528 14.0563
14 4 1.08442 -1.06412 6.54999 11.6511
26 4 1.12376 3.3911 1.85797 9.23836
68 3 -0.789343 -0.681376 2.02787 17.0571
75 3 -0.776276 -1.43213 3.61922 15.1108
11 4 1.56604 -3.66779 6.76032 9.58332
77 3 -0.783701 -1.15809 5.49464 13.0931
100 3 -0.803636 0.919967 5.15411 14.7345
330 2 0.16715 5.70864 1.91021 15.5087
173 1 -0.675673 0.221144 3.1226 12.8347
175 1 -0.658524 0.531346 5.71237 10.9782
179 1 -0.643671 4.48371 0.262594 9.65077
180 1 -0.677802 2.44414 2.42666 10.7958
181 1 -0.664789 3.94644 3.48762 14.3678
204 2 0.153883 0.124918 0.819171 14.8063
206 2 0.1438 -0.817215 3.51995 9.43585
207 2 0.270109 -1.66419 5.13258 9.46623
211 2 0.158285 -0.0211778 3.23566 11.7827
212 2 0.166479 -0.149189 2.15225 13.2206
213 2 0.167624 1.35178 3.27766 12.9816
217 2 0.164546 0.760094 5.43799 9.81428
218 2 0.174404 0.602848 4.72006 11.6974
314 2 0.195943 2.38498 3.30635 16.5004
328 2 0.143525 4.65967 2.44221 17.065
230 2 0.18759 5.49101 0.749542 9.84948
231 2 0.18146 1.36245 2.17263 10.6997
232 2 0.147963 2.72692 3.52934 10.7291
233 2 0.149952 2.97542 1.80442 11.5665
234 2 0.187661 4.47129 2.79358 15.154
235 2 0.153639 3.56938 2.89697 13.5029
236 2 0.201136 3.08594 4.19379 14.7366
241 2 0.143431 3.24256 6.42178 12.5656
76 3 -0.812226 -2.24757 6.58678 10.5008
349 2 0.212116 -2.93401 6.24708 14.3934
303 1 -0.66811 5.26056 1.36164 12.6041
305 2 0.171856 4.44687 1.209 13.3649
306 2 0.154912 5.03131 0.97985 11.4726
307 2 0.15019 5.64269 2.50192 12.5955
312 1 -0.671309 2.01705 2.25868 16.504
313 2 0.178006 2.7916 1.41592 16.7836
282 2 0.185198 3.94712 5.90387 9.57669
315 2 0.165184 1.4894 2.07853 15.52
320 1 -0.671432 -2.54308 5.75138 17.2482
302 4 1.12019 6.63367 0.318884 13.4345
322 2 0.164184 -3.05302 6.1819 16.235
327 1 -0.66633 5.37294 1.62509 16.4972
33 4 1.51135 1.12892 6.66444 15.4708
329 2 0.285308 4.9137 0.591149 16.482
101 3 -0.846555 2.54023 6.54372 16.2049
219 2 0.130895 1.24921 6.53965 11.3564
171 1 -0.674253 -1.35097 4.30054 8.82934
4 4 1.5723 -5.74828 13.262 7.4324
8 4 1.5766 -3.74706 7.19999 3.73198
15 4 1.56915 -2.43545 9.15632 1.8371
17 4 1.53092 -3.85058 11.2777 0.247143
18 4 1.67185 -2.54813 8.97929 7.65293
20 4 1.69585 -4.08041 11.2484 5.85658
114 3 -0.796721 1.63641 9.73486 6.68607
110 3 -0.844655 -1.35845 9.71029 8.42467
25 4 1.45026 -0.0366378 13.2657 7.75717
35 4 1.66708 -1.38695 11.1147 4.13614
37 4 1.21266 2.3264 8.73664 7.68527
78 3 -0.852745 -3.62435 8.38026 2.58353
79 3 -0.839819 -1.36732 7.90083 1.0161
80 3 -0.878638 -2.84261 10.0629 0.604551
81 3 -0.835826 -4.14627 12.1231 1.57014
109 3 -0.805084 3.18667 7.66016 6.91996
83 3 -0.808521 -1.72378 8.01797 6.42975
84 3 -0.868828 -6.47713 12.1099 8.39463
85 3 -0.855148 -5.38741 10.825 5.07196
86 3 -0.80638 -3.54338 10.0699 6.9897
87 3 -0.857794 -4.44047 12.5709 6.71744
95 3 -0.79611 0.24244 7.21087 4.70872
103 3 -0.893512 2.39216 7.14068 3.01687
105 3 -0.86739 -1.5984 9.96558 2.97038
106 3 -0.842789 -0.902012 12.5389 3.53506
107 3 -0.834479 -2.87978 11.3813 4.79859
108 3 -0.799892 0.633058 11.8721 1.48188
111 3 -0.818127 -1.00763 12.3749 8.64038
113 3 -0.868143 -0.29627 10.7201 5.22279
34 4 1.45154 2.66037 8.5149 2.3697
184 1 -0.675862 0.895971 9.17976 2.53915
39 4 1.6074 1.15761 11.1311 5.86073
243 2 0.275603 0.531364 9.23518 3.62124
244 2 0.250105 0.0793306 8.61542 2.00282
245 2 0.256846 0.874176 10.2574 2.08657
248 2 0.227108 0.228222 7.94138 8.02071
310 3 -0.847646 -6.2094 12.4336 3.14578
23 4 1.5323 0.00972747 13.274 2.47806
82 3 -0.847916 -3.2671 8.00266 8.61944
1 4 1.65364 -5.22161 13.2191 2.15189
358 2 0.241062 -0.134538 9.10471 0.254144
12 4 1.63391 -1.21141 6.90658 5.36596
357 2 0.260197 1.73405 9.00504 0.0159115
364 2 0.278824 -4.65551 8.56149 0.451936
228 2 0.285495 -2.99849 13.1346 8.79087
22 4 1.22003 -3.74072 10.8023 11.2315
324 2 0.189323 -6.30919 12.2416 13.9056
102 3 -0.845931 -0.113782 6.90084 16.5041
38 4 1.54437 -1.05945 10.8637 9.55673
40 4 1.3008 1.89603 9.33509 13.7964
41 4 1.35891 -2.0113 11.8699 15.6443
42 4 1.27117 0.678209 11.4947 11.9652
88 3 -0.777797 -4.91038 10.8168 10.1482
325 2 0.205679 -4.77257 12.4989 14.888
229 2 0.180795 -3.4964 13.3092 10.625
112 3 -0.846192 -2.26319 10.9232 10.6407
116 3 -0.827823 1.23961 7.94915 14.365
117 3 -0.834617 -0.706652 11.7497 16.5786
118 3 -0.790001 -1.75964 12.8825 14.4148
119 3 -0.81074 -3.27591 12.4103 16.5416
120 3 -0.848919 0.310833 10.6892 10.3436
121 3 -0.778215 0.621402 10.5231 13.2362
122 3 -0.79289 -0.0416843 12.8889 12.3344
174 1 -0.665577 -0.717691 8.3951 12.1232
176 1 -0.692285 -3.77092 9.16654 12.2808
177 1 -0.672664 -4.11388 12.3596 12.266
185 1 -0.702005 0.575525 9.58897 17.2477
353 2 0.191046 -3.41978 13.2684 12.3056
189 1 -0.686659 -2.37756 10.0969 15.0298
214 2 0.180292 0.321629 8.41174 11.7135
215 2 0.21314 -0.718916 8.48722 13.2826
216 2 0.216528 -1.42675 9.14362 11.6106
220 2 0.162947 -2.65181 8.79622 12.4155
221 2 0.269584 -4.35233 8.31361 11.5607
222 2 0.19611 -4.36995 9.27343 13.2251
223 2 0.144951 -4.05863 11.6829 13.2789
224 2 0.195296 -5.15091 12.6743 12.0722
246 2 0.220155 0.399436 9.40237 16.1755
247 2 0.158369 0.912376 7.27035 9.72944
249 2 0.259925 0.732911 9.13224 9.46918
36 4 1.33688 0.591933 11.4194 17.4233
254 2 0.168851 2.93367 7.85998 11.9082
256 2 0.210173 -2.84728 9.61475 15.8779
257 2 0.185435 -1.17941 9.84036 14.9529
258 2 0.166878 -2.89936 9.81525 14.0093
348 2 0.188305 -3.94977 7.64427 13.6528
311 3 -0.84323 -5.36355 10.6826 17.1673
323 1 -0.692886 -5.87244 12.4814 14.8816
326 2 0.172501 -6.30801 13.4967 15.1967
186 1 -0.695564 0.978752 8.15831 8.93352
240 2 0.256311 3.45799 6.93923 14.3538
2 4 1.63021 13.5157 2.12413 3.51095
360 2 0.178422 10.5264 1.21782 1.10058
296 4 0.927013 6.76595 1.91048 0.280808
44 4 1.56025 8.85756 2.03071 3.92115
280 2 0.249824 7.99937 4.3561 7.98074
46 4 1.58464 11.2416 2.27738 5.7879
48 4 1.37994 9.89723 4.5534 2.13744
51 4 1.38481 10.2706 4.80965 7.49585
97 3 -0.865934 6.24381 3.46406 6.6787
300 2 0.211264 7.28564 3.81197 1.2342
123 3 -0.831039 12.8822 0.990581 2.53668
124 3 -0.823401 8.83975 0.575921 2.9705
125 3 -0.858692 7.43789 2.21096 4.62721
126 3 -0.841272 12.3354 2.41387 4.58195
127 3 -0.829909 9.8183 1.91495 5.24549
128 3 -0.791357 11.6561 0.913204 6.81769
129 3 -0.862428 9.19256 3.39535 3.02548
130 3 -0.805267 10.469 5.74693 2.98079
132 3 -0.81283 9.07203 5.21058 0.918392
133 3 -0.826636 11.1743 3.64729 6.64087
354 2 0.178935 9.32011 1.83192 0.738114
340 2 0.181846 5.12056 5.6757 1.68986
138 3 -0.864333 9.59411 5.94216 6.58639
277 2 0.189367 6.66445 6.01432 2.04081
196 1 -0.676667 11.408 3.76137 1.28004
197 1 -0.698675 6.57334 5.61218 3.08961
198 1 -0.679215 8.88402 3.71197 8.28249
275 2 0.240185 12.3527 4.38027 1.51239
274 2 0.204266 11.5043 2.74259 1.67092
273 2 0.159947 10.9366 3.83723 0.200947
276 2 0.225017 7.50417 5.1418 3.51752
191 1 -0.656107 10.855 0.133391 0.941656
278 2 0.158734 5.61896 4.81825 3.20277
279 2 0.204883 8.90718 2.83601 7.60673
337 2 0.173698 8.69734 1.7413 8.77474
192 1 -0.663516 13.676 1.14101 8.52108
298 1 -0.683728 6.25372 3.60489 0.80319
131 3 -0.865312 5.13139 6.76273 5.23038
352 2 0.224504 12.8388 3.75625 8.26103
30 4 1.57007 5.29323 4.07812 7.7114
6 4 1.16789 13.4105 2.18617 15.8951
32 4 0.937946 5.04003 4.98116 13.7861
47 4 0.958377 10.5937 2.94769 11.8657
237 2 0.157021 5.43026 3.95641 11.605
54 4 1.1464 10.011 5.38462 13.7762
135 3 -0.794175 6.19751 4.94489 9.10408
139 3 -0.736643 10.7558 4.23979 12.7989
140 3 -0.755277 5.90143 5.42266 15.0369
205 2 0.163892 13.6326 0.185834 13.8003
334 1 -0.677389 8.54535 0.602483 9.05761
145 3 -0.806173 8.80413 6.12258 13.0127
182 1 -0.676899 6.18207 4.44954 12.3257
355 2 0.173978 8.11362 1.53108 15.3889
193 1 -0.684052 11.8616 2.95364 10.393
194 1 -0.682393 8.77284 2.77887 11.3754
195 1 -0.647591 10.9438 1.46162 13.0002
362 2 0.19396 14.2679 0.275758 9.04875
200 1 -0.675894 9.3467 4.31497 15.3108
265 2 0.168137 12.9339 3.03718 10.6893
170 1 -0.66807 14.0526 0.627465 14.8727
238 2 0.171581 6.90471 3.67506 12.7036
239 2 0.284492 6.66784 5.35867 11.8772
263 2 0.157764 13.0801 1.84259 9.29117
264 2 0.139046 11.636 1.9778 9.85223
183 1 -0.672314 3.97568 6.70364 13.3808
266 2 0.258879 11.5379 3.91385 9.85557
267 2 0.147257 8.3376 2.28975 12.4855
268 2 0.160136 8.69492 1.98084 10.5089
269 2 0.210192 8.25829 3.67477 11.1718
270 2 0.158466 10.2653 0.607053 12.8148
271 2 0.189874 11.1629 1.69883 14.1651
272 2 0.153529 11.9769 1.31368 12.3522
366 2 0.146963 13.8879 0.149283 12.1303
285 2 0.160322 10.0194 4.20136 16.1908
286 2 0.170759 8.88655 3.30349 14.9443
287 2 0.248382 8.50127 5.05032 15.6417
304 1 -0.680126 7.92777 1.49633 14.2569
308 2 0.1631 9.01161 1.47154 13.6991
309 2 0.122576 7.32398 2.43855 13.9111
316 1 -0.672673 11.5615 2.04212 16.1032
317 2 0.144814 11.3681 0.94065 15.618
318 2 0.171648 10.7159 2.89938 15.718
319 2 0.174615 11.648 2.04082 17.2405
331 1 -0.672357 8.59071 1.94116 17.3198
332 2 0.174412 8.54008 0.948031 16.8192
333 2 0.175562 8.81465 2.78014 16.5923
134 3 -0.866971 11.0644 5.38244 8.82536
336 2 0.180588 8.05954 0.399365 10.034
281 2 0.179985 8.82247 3.41595 9.45506
52 4 1.32505 6.21431 6.48033 9.4912
347 1 -0.684522 11.1174 6.80319 14.4378
284 2 0.151158 4.38559 6.74744 11.3577
199 1 -0.662923 4.46259 6.79879 10.1386
335 2 0.178127 9.60502 0.0469796 9.04166
144 3 -0.81039 7.30048 6.7887 11.047
141 3 -0.880075 7.69882 6.74567 16.5261
299 2 0.191216 5.87273 4.42591 17.5317
16 4 1.74557 8.44932 11.1828 4.01642
59 4 1.63315 6.1112 11.0625 0.00324273
43 4 1.48278 4.92545 13.096 1.89472
49 4 1.42067 6.3714 7.06189 4.29268
50 4 1.35198 8.57713 6.84501 0.309266
53 4 1.65432 9.2259 7.37231 5.92959
57 4 1.67984 7.18373 9.02587 2.14002
58 4 1.66729 3.72745 11.1115 4.16653
60 4 1.56874 7.40507 8.86083 7.9118
61 4 1.69815 6.12237 11.0324 6.08562
262 2 0.272445 2.58112 12.9404 1.27992
250 2 0.210424 4.58978 9.10556 8.60066
343 2 0.173069 3.20841 12.3606 8.4996
115 3 -0.835982 0.982716 12.339 6.93278
161 3 -0.844935 5.72504 12.2922 7.05932
136 3 -0.845816 10.524 7.77078 4.95145
146 3 -0.820942 6.26767 8.36798 3.28725
147 3 -0.886004 7.99601 7.94982 1.34103
148 3 -0.844487 8.23014 10.0168 2.90003
149 3 -0.781669 3.30421 9.68319 3.21727
150 3 -0.841639 4.34097 12.1366 3.04834
151 3 -0.834619 2.31518 11.6051 4.77242
153 3 -0.829972 6.23237 9.89472 1.1483
154 3 -0.843427 5.87072 12.4843 0.818971
155 3 -0.868721 6.52729 7.56505 8.39519
156 3 -0.77635 8.9573 8.43752 7.15494
158 3 -0.86253 7.18664 11.4023 4.92667
159 3 -0.847209 4.68055 10.6799 5.24714
160 3 -0.896758 6.58448 9.83093 6.94143
137 3 -0.854262 7.86316 7.20554 5.12566
104 3 -0.776137 3.13057 8.40095 0.796958
45 4 1.25201 4.99775 13.4698 7.7262
253 2 0.153546 2.67558 9.58576 11.5141
365 2 0.161526 10.7677 7.21587 15.5138
21 4 1.39508 8.63562 10.9544 15.9789
55 4 1.52924 6.35272 6.99411 15.723
56 4 1.48181 8.58826 7.2572 11.8242
157 3 -0.835394 7.8662 9.76044 9.27806
62 4 1.50235 7.62773 9.09084 13.8429
63 4 1.39007 3.30694 11.2348 15.8304
64 4 1.19079 6.6338 11.4334 11.8942
142 3 -0.84559 5.11736 7.32373 16.6473
143 3 -0.789876 10.0735 7.15396 10.5338
152 3 -0.847331 7.24374 11.286 16.6358
295 2 0.160914 4.87218 13.0443 11.0039
162 3 -0.843428 6.55211 8.04386 14.375
163 3 -0.860628 8.53075 8.66537 12.546
164 3 -0.840865 8.64441 9.54949 14.9897
165 3 -0.837064 2.81951 10.082 14.8254
166 3 -0.823945 4.699 11.0085 16.6434
167 3 -0.831403 2.09452 11.7797 16.8082
168 3 -0.844454 7.80676 11.917 10.9741
169 3 -0.786696 6.80974 10.7053 13.2687
190 1 -0.685806 2.58213 11.9369 11.8053
201 1 -0.662619 3.56174 12.7773 14.688
202 1 -0.66608 5.26508 10.3915 10.9229
203 1 -0.651257 5.47389 12.9428 12.0883
19 4 1.57799 8.52581 11.1663 9.61318
242 2 0.206804 4.74413 7.41741 13.0207
251 2 0.135263 3.10097 9.18722 9.79346
29 4 1.30134 3.70733 6.98203 17.3092
255 2 0.180459 4.09251 9.1146 12.6428
259 2 0.166825 2.59479 11.5643 10.7205
260 2 0.163641 3.34467 11.373 12.4761
261 2 0.146762 2.55583 13.1431 11.8663
283 2 0.169023 4.2323 7.89988 9.6651
288 2 0.185997 3.18564 12.537 13.6276
289 2 0.154777 4.70254 13.3276 14.7444
345 2 0.165739 10.9408 7.084 17.2844
291 2 0.183129 5.37798 9.34315 11.3352
292 2 0.192091 5.47593 10.4158 9.79833
293 2 0.162777 4.19656 10.8914 11.2069
294 2 0.179234 4.7777 12.8695 13.0939
350 2 0.217496 6.35823 13.4115 15.6965
188 1 -0.687272 2.98234 8.88831 12.3249
341 1 -0.698397 3.98759 12.8125 9.23001
342 2 0.152808 4.5449 11.8905 9.86389
344 1 -0.666498 10.044 7.80463 17.3344
290 2 0.169316 2.71149 13.3546 15.2691
346 2 0.23517 9.75285 8.20233 16.2866
359 2 0.190545 3.53219 13.6005 17.4639
187 1 -0.657668 3.64085 9.6823 8.87446
252 2 0.180188 3.74615 10.8589 9.01286
363 2 0.137926 3.49325 13.5779 9.96963
ITEM: TIMESTEP
200
ITEM: NUMBER OF ATOMS
366
ITEM: BOX BOUNDS xy xz yz pp pp pp
-7.9576640000000003e+00 1.5638688000000000e+01 -7.7928240000000004e+00
0.0000000000000000e+00 1.3615700000000000e+01 -1.6484000000000001e-01
0.0000000000000000e+00 1.7607399999999998e+01 8.0699999999999994e-02
ITEM: ATOMS id type q x y z
361 2 0.221049 -0.430906 1.4749 8.32707
3 4 1.30773 0.984115 1.75818 0.346897
5 4 1.60585 0.775119 1.88523 5.59185
7 4 1.59093 0.176486 4.12787 2.18105
301 2 0.185141 5.64788 3.5373 1.8857
10 4 1.2288 -0.436599 4.39864 7.23374
339 2 0.223383 2.87679 5.54934 1.3595
24 4 1.44529 3.51555 1.84729 4.19424
297 3 -0.751818 6.62745 0.792319 1.45263
28 4 1.55439 1.41895 6.24274 4.15074
65 3 -0.84972 1.47226 0.542572 1.12596
66 3 -0.780778 -0.413009 1.5872 4.5233