ITEM: TIMESTEP
0
ITEM: NUMBER OF ATOMS
366
ITEM: BOX BOUNDS xy xz yz pp pp pp
-7.6516000000000002e+00 1.5037200000000000e+01 -7.4931000000000001e+00
0.0000000000000000e+00 1.3615700000000000e+01 -1.5850000000000000e-01
0.0000000000000000e+00 1.7607399999999998e+01 8.0699999999999994e-02
ITEM: ATOMS id type q x y z
351 2 0.159323 -3.04167 5.7445 0.429154
3 4 1.33548 0.983354 2.01991 0.251912
5 4 1.60061 0.693523 1.68023 5.47928
7 4 1.61661 0.304212 4.23627 2.20955
301 2 0.178152 5.45531 3.4622 1.89767
10 4 1.2321 -0.238956 4.39508 7.17223
339 2 0.221485 3.18417 5.43587 1.66613
24 4 1.48791 3.49582 1.80578 4.28649
297 3 -0.778684 6.68297 0.726212 1.43708
28 4 1.61381 1.57825 6.1199 4.18197
65 3 -0.798206 1.68756 0.602854 0.89928
66 3 -0.810505 -0.166402 1.5067 4.07373
67 3 -0.841357 0.799124 0.376213 6.41415
69 3 -0.857917 -1.10683 3.57743 2.6738
70 3 -0.832553 1.19149 3.13308 1.35404
71 3 -0.855927 -0.0376216 5.48018 1.1387
72 3 -0.834493 0.0247416 2.99962 6.44706
338 1 -0.671131 4.10792 5.58886 1.03512
74 3 -0.856915 -0.77034 5.55915 6.30815
89 3 -0.838966 3.2814 0.832717 3.04027
90 3 -0.847621 2.21715 2.14299 5.12237
91 3 -0.806054 2.19802 0.930274 8.58823
92 3 -0.801428 4.73356 1.56995 5.30705
27 4 1.57433 6.27121 2.05735 5.80832
94 3 -0.878689 1.08552 4.78187 3.44557
9 4 1.37045 -0.735108 6.53386 0.151646
98 3 -0.864357 2.67062 5.60994 5.19209
96 3 -0.794466 4.36106 2.89164 8.58022
172 1 -0.663704 1.49351 4.92147 8.06373
178 1 -0.688475 4.06071 3.51793 3.42134
208 2 0.267409 2.07212 4.67181 7.12418
361 2 0.248519 -0.766655 1.88202 7.77954
210 2 0.181635 1.38769 6.10807 8.3025
225 2 0.263129 3.6041 4.38954 4.08118
226 2 0.20558 3.67512 3.53667 2.38466
227 2 0.171097 5.20916 3.36044 3.44753
93 3 -0.819163 6.84146 0.870871 6.88714
356 2 0.167986 4.23623 4.75634 0.273509
31 4 1.61561 3.89273 6.2229 6.14661
99 3 -0.89702 4.26877 5.1975 7.22766
73 3 -0.8647 -2.24075 6.72296 4.30109
171 1 -0.683599 -1.21397 4.0608 8.74505
321 2 0.200054 -2.05568 4.64474 17.0658
13 4 1.28867 -0.492651 4.54092 13.9985
14 4 1.14206 -1.12211 6.56516 11.6946
26 4 1.14504 3.42359 1.71959 9.30735
68 3 -0.78576 -0.825832 2.1301 17.2496
75 3 -0.795728 -1.31426 3.51595 14.9331
209 2 0.17507 1.78812 4.3103 8.9559
77 3 -0.788697 -1.31756 5.83591 13.0054
100 3 -0.825456 0.82128 5.07872 14.699
330 2 0.165815 5.63248 1.90903 15.3313
173 1 -0.669524 0.102814 3.12154 12.8309
175 1 -0.686311 0.531929 5.69241 11.0049
179 1 -0.647659 4.62343 0.235621 9.78516
180 1 -0.656935 2.77531 2.71261 10.7427
181 1 -0.655723 3.70476 3.64176 14.3627
204 2 0.144107 0.00799169 0.854062 14.9342
206 2 0.152 -0.534496 3.41605 9.37631
207 2 0.227853 -1.58206 4.98854 9.36073
211 2 0.147306 -0.735614 3.22261 12.0566
212 2 0.178664 0.0706367 2.22571 13.4758
213 2 0.175542 1.10067 3.28709 12.4084
217 2 0.169203 0.850314 5.46101 9.93468
218 2 0.1656 0.553086 4.69741 11.6399
314 2 0.215397 2.48007 3.62092 16.8922
328 2 0.13656 4.56377 2.53033 16.8631
230 2 0.22036 5.69429 0.487904 9.93437
231 2 0.167797 1.71623 2.74264 10.4233
232 2 0.162574 3.34675 3.73663 10.8405
233 2 0.13056 3.12595 1.81063 11.5097
234 2 0.178123 4.26587 2.85673 15.0365
235 2 0.164701 3.41827 3.24195 13.3866
236 2 0.244871 2.90679 4.26618 14.8451
241 2 0.143333 3.05597 6.39473 12.5079
76 3 -0.811978 -2.36146 6.66008 10.5219
349 2 0.21759 -2.93964 6.33195 14.499
303 1 -0.67308 5.15814 1.47176 12.678
305 2 0.163363 4.32595 1.33694 13.4569
306 2 0.163077 4.9439 1.06678 11.5849
307 2 0.165397 5.4801 2.56466 12.6554
312 1 -0.690201 1.9944 2.70438 16.5334
313 2 0.172642 2.70224 1.78108 16.6126
282 2 0.194724 3.85916 5.79824 9.52626
315 2 0.188561 1.47991 2.75253 15.5615
320 1 -0.668112 -2.4572 5.72097 17.1481
302 4 1.12288 6.63368 0.320713 13.2298
322 2 0.150884 -3.05693 6.17955 16.1269
327 1 -0.644453 5.27293 1.61964 16.3899
33 4 1.50244 1.24619 6.50364 15.5521
329 2 0.269401 4.81669 0.509447 16.4319
101 3 -0.828298 2.61302 6.21384 16.3834
219 2 0.139984 1.22064 6.43853 11.4529
4 4 1.58502 -5.72515 13.1973 7.49368
8 4 1.63113 -3.7085 7.17162 3.79386
15 4 1.55883 -2.3868 9.16982 1.8315
17 4 1.56709 -3.91362 11.2523 0.34251
18 4 1.63519 -2.48751 8.92047 7.59625
20 4 1.69161 -3.96358 11.199 5.9402
114 3 -0.799321 1.85886 9.91559 6.73135
110 3 -0.858778 -1.36581 9.66472 8.52479
25 4 1.44569 0.0140387 13.2216 7.72432
35 4 1.62652 -1.39818 11.2695 4.04642
37 4 1.23051 2.34611 8.74323 7.59511
78 3 -0.873744 -3.4285 8.32096 2.68679
79 3 -0.813521 -1.34161 7.83792 0.988476
80 3 -0.88956 -2.96889 9.9797 0.596511
81 3 -0.852111 -4.09533 12.1779 1.58104
109 3 -0.798086 3.15348 7.49223 6.93908
83 3 -0.868984 -1.7045 8.0834 6.38637
84 3 -0.882956 -6.49579 12.0847 8.49891
85 3 -0.842484 -5.26185 10.888 5.03134
86 3 -0.839232 -3.46351 10.0297 6.95638
87 3 -0.852955 -4.42597 12.5483 6.77198
95 3 -0.853535 0.388012 7.0522 4.82081
103 3 -0.854529 2.59832 7.12049 3.21925
105 3 -0.851783 -1.51706 10.1627 2.71455
106 3 -0.821847 -0.921359 12.7085 3.51039
107 3 -0.845037 -2.77482 11.5014 4.92642
108 3 -0.841828 0.856056 11.9346 1.41187
111 3 -0.837019 -0.929993 12.3645 8.63611
113 3 -0.861997 -0.17074 10.686 4.93236
34 4 1.4594 2.73104 8.44805 2.43822
184 1 -0.683038 0.864382 8.99239 2.55296
39 4 1.59826 1.17603 11.1696 5.73794
243 2 0.277626 0.639089 8.87375 3.65961
244 2 0.252154 0.04873 8.4823 1.9071
245 2 0.258212 0.846605 10.0542 2.19825
248 2 0.208201 0.216883 7.9248 7.94259
310 3 -0.816987 -6.14515 12.5111 3.23338
364 2 0.245189 -4.72651 8.56064 0.5954
82 3 -0.84229 -3.51541 8.01708 8.50503
1 4 1.61834 -5.09935 13.3334 2.19698
358 2 0.240319 -0.271172 9.17836 0.15549
12 4 1.62602 -1.16558 6.88218 5.44806
357 2 0.25345 1.62207 9.0294 0.0431734
23 4 1.50035 0.078818 13.318 2.38073
22 4 1.21677 -3.77043 10.8686 11.2799
324 2 0.194281 -6.65222 12.4584 14.1033
102 3 -0.84288 0.0225171 7.02976 16.4796
38 4 1.53131 -1.07574 10.8811 9.57894
40 4 1.27499 1.91054 9.22598 13.9183
41 4 1.28637 -1.95855 11.8864 15.6392
42 4 1.22963 0.686396 11.413 11.8341
88 3 -0.810674 -4.94566 10.7884 10.2239
325 2 0.203243 -4.96714 12.6114 14.7782
229 2 0.16385 -3.44478 13.3063 10.8204
112 3 -0.846436 -2.31342 11.0062 10.6356
116 3 -0.825921 1.45639 7.77552 14.5042
117 3 -0.823706 -0.661416 11.9808 16.722
118 3 -0.777113 -1.53766 12.898 14.3454
119 3 -0.768519 -3.33528 12.2982 16.454
120 3 -0.860957 0.26432 10.585 10.4135
121 3 -0.773756 0.73374 10.4246 13.1558
122 3 -0.763203 -0.0791977 13.1213 11.9551
174 1 -0.641942 -0.686707 8.43086 12.2006
176 1 -0.704223 -3.75907 9.19789 12.2775
177 1 -0.675629 -4.14712 12.3645 12.3969
185 1 -0.697735 0.515424 9.6512 17.2632
353 2 0.17923 -3.60407 13.3732 12.5268
189 1 -0.672814 -2.34693 10.1347 15.0864
214 2 0.17241 0.370368 8.30268 11.659
215 2 0.220821 -0.649461 8.55148 13.3234
216 2 0.214568 -1.26871 9.2407 11.6755
220 2 0.173824 -2.65422 8.92145 12.3387
221 2 0.282076 -4.3275 8.44598 11.6624
222 2 0.181242 -4.18036 9.29804 13.3356
223 2 0.14192 -3.96209 11.5828 13.3559
224 2 0.199438 -5.24604 12.4896 12.1084
246 2 0.205686 0.393443 9.43162 16.2043
247 2 0.158829 0.828262 7.14445 9.63638
249 2 0.2444 0.766308 8.99121 9.37893
36 4 1.37798 0.626598 11.529 17.4798
254 2 0.165536 2.52806 7.53432 12.0851
256 2 0.22321 -2.93257 9.75623 15.9591
257 2 0.166969 -1.19085 9.79138 15.0821
258 2 0.152877 -2.93052 9.87986 13.9981
348 2 0.196824 -3.97782 7.75713 13.69
311 3 -0.871771 -5.39383 10.9054 17.1951
323 1 -0.666046 -6.07591 12.5779 15.0142
326 2 0.178069 -6.38072 13.4721 15.6069
345 2 0.162463 -3.95132 7.13165 17.2718
11 4 1.58702 -3.68075 6.8746 9.60207
188 1 -0.653541 2.6087 8.68819 12.2683
253 2 0.171314 2.08771 9.35194 11.4572
228 2 0.263696 -2.96548 13.0155 8.95441
186 1 -0.691117 0.976414 8.03704 8.82675
2 4 1.6205 13.4655 2.26543 3.45863
360 2 0.169758 10.4821 1.20376 1.00404
296 4 0.95677 6.68626 1.86873 0.217997
44 4 1.57615 8.77099 1.99517 3.88846
280 2 0.269831 8.00238 4.36102 7.87368
46 4 1.61875 11.3462 2.26151 5.76141
48 4 1.32363 9.91637 4.72745 2.26607
51 4 1.38674 10.4402 4.79915 7.50271
97 3 -0.858333 6.24665 3.43536 6.62591
300 2 0.224612 7.31985 3.56191 1.58208
123 3 -0.82342 12.7283 1.17199 2.42296
124 3 -0.839803 8.87144 0.676295 3.07679
125 3 -0.852483 7.26427 2.27508 4.53661
126 3 -0.850878 12.4533 2.59168 4.63338
127 3 -0.822828 9.92607 1.96695 5.08536
128 3 -0.847412 11.7761 0.975845 6.68405
129 3 -0.819452 9.26684 3.36835 2.98858
130 3 -0.858335 10.5994 5.86424 3.17541
132 3 -0.813871 8.90183 5.35689 0.982086
133 3 -0.843608 11.2385 3.57457 6.76745
354 2 0.176064 9.19639 1.71647 0.622556
340 2 0.189806 5.07116 5.70409 1.72903
138 3 -0.874945 9.64496 5.86154 6.59279
277 2 0.227208 6.85567 5.84602 2.06848
196 1 -0.664359 11.3388 3.90713 1.3249
197 1 -0.690006 6.56949 5.40541 3.08072
198 1 -0.641967 8.94638 3.72011 8.10244
275 2 0.232226 12.3236 4.54091 1.46712
274 2 0.22921 11.4487 2.84665 1.61163
273 2 0.152968 10.9347 4.01234 0.257736
276 2 0.225209 7.4677 4.8921 3.50889
337 2 0.169567 8.75011 1.7842 8.59758
278 2 0.176701 5.64466 4.69336 3.07187
279 2 0.202922 9.0347 2.84424 7.35756
299 2 0.180537 6.12592 4.31465 0.299524
192 1 -0.686684 13.7491 1.22589 8.5579
298 1 -0.665829 6.29323 3.51329 1.08137
131 3 -0.826856 5.19735 6.69568 5.21945
352 2 0.218914 12.9588 3.49879 8.12142
45 4 1.21559 12.5922 0.0516437 7.59423
191 1 -0.64039 10.8171 0.0386492 0.971242
30 4 1.52184 5.24189 4.05734 7.75097
6 4 1.13045 13.3386 2.25343 15.9132
32 4 0.935665 5.12344 5.08775 13.8439
47 4 0.952033 10.4935 3.02773 11.8572
237 2 0.166722 5.4095 3.87096 11.6558
54 4 1.13421 9.93379 5.34915 13.813
135 3 -0.800501 6.2366 4.88066 8.95776
139 3 -0.730253 10.7654 4.30087 12.8436
140 3 -0.781739 6.09588 5.3867 15.0238
205 2 0.162864 13.4634 0.247647 13.9106
334 1 -0.659361 8.61568 0.622376 8.99456
145 3 -0.808569 8.74121 5.94202 12.8488
182 1 -0.682565 6.09283 4.4462 12.3169
355 2 0.174961 8.00194 1.5177 15.2541
193 1 -0.687255 11.7283 2.93631 10.3864
194 1 -0.66419 8.66426 2.89476 11.3009
195 1 -0.637649 10.8213 1.52188 12.9277
363 2 0.14143 11.2661 0.172917 9.75599
200 1 -0.687879 9.15196 4.25976 15.2133
265 2 0.161514 12.7907 2.89502 10.7132
170 1 -0.662604 13.9004 0.598357 15.0073
238 2 0.177075 6.91817 3.83569 12.8448
239 2 0.278106 6.52838 5.3432 11.7502
263 2 0.169672 13.1267 1.92589 9.26724
264 2 0.138353 11.3286 2.00752 9.88798
183 1 -0.675824 4.01583 6.6231 13.2459
266 2 0.265381 11.5717 3.8847 9.81087
267 2 0.157328 8.23062 2.39632 12.3875
268 2 0.175742 8.54268 2.16661 10.4334
269 2 0.210174 8.3057 4.00497 11.0825
270 2 0.159364 10.1566 0.588987 12.7325
271 2 0.174348 11.0542 1.74993 14.1312
272 2 0.151489 11.9309 1.47905 12.3524
366 2 0.150582 13.5666 0.454549 12.1772
285 2 0.16018 9.61961 4.35921 16.2646
286 2 0.157907 9.31389 3.25471 14.6196
287 2 0.244678 8.05896 4.6069 15.1627
304 1 -0.666137 7.83763 1.48428 14.0688
308 2 0.16283 8.92305 1.53294 13.5881
309 2 0.12083 7.18874 2.44238 13.7358
316 1 -0.67281 11.452 2.11085 16.089
317 2 0.146174 11.1991 1.02141 15.6401
318 2 0.169955 10.6614 2.89576 15.7117
319 2 0.168766 11.5531 2.10741 17.2896
331 1 -0.67551 8.4348 1.81708 17.2221
332 2 0.176924 8.5994 0.839202 16.656
333 2 0.17698 8.68061 2.65934 16.5317
134 3 -0.85218 11.1534 5.46101 8.88263
336 2 0.199268 7.94429 0.493977 9.93333
281 2 0.159188 8.91658 3.41337 9.38628
52 4 1.30828 6.0778 6.45555 9.37203
335 2 0.181423 9.66617 0.0958804 9.0714
284 2 0.154751 4.22203 6.61958 11.263
199 1 -0.673912 4.35663 6.73377 10.0233
144 3 -0.802747 7.23446 6.67367 10.9047
362 2 0.215574 14.4789 0.56223 9.0443
347 1 -0.669113 11.0771 6.83341 14.4614
16 4 1.6715 8.50952 11.1167 4.00127
59 4 1.63458 6.08503 11.1229 0.0157355
43 4 1.46308 4.83401 13.1751 1.98483
49 4 1.42531 6.38168 6.95774 4.19596
50 4 1.35376 8.68415 6.86302 0.299914
53 4 1.67292 9.10548 7.20583 5.9542
57 4 1.6453 7.17459 8.98201 2.08707
58 4 1.65085 3.75303 10.9916 4.09732
60 4 1.58915 7.38945 8.92233 7.9914
61 4 1.64077 6.07017 11.0299 5.99354
262 2 0.283883 2.32661 12.9371 1.2757
250 2 0.222874 4.64307 9.04334 8.7107
343 2 0.182559 3.22224 12.4971 8.36325
115 3 -0.847938 1.01547 12.3442 6.85757
161 3 -0.809191 5.8974 12.4127 6.82193
136 3 -0.798753 10.3704 7.79768 5.04871
146 3 -0.793072 6.0429 8.08824 3.07154
147 3 -0.864149 7.92713 7.79512 1.4442
148 3 -0.851955 8.23673 9.8638 2.95507
149 3 -0.828314 3.4101 9.62372 3.14849
150 3 -0.848965 4.36094 12.1834 3.09689
151 3 -0.806023 2.26634 11.4879 4.57101
153 3 -0.84582 6.43872 9.90563 1.02671
154 3 -0.806421 5.97312 12.5131 0.977124
155 3 -0.83075 6.4043 7.61455 8.33529
156 3 -0.795281 8.70974 8.25449 7.19513
158 3 -0.865705 7.11973 11.2327 4.75967
159 3 -0.841875 4.49057 10.6977 5.41405
160 3 -0.870118 6.57462 9.87005 6.96979
137 3 -0.865288 7.8331 7.06427 5.05083
104 3 -0.841532 3.06545 8.17408 0.775774
187 1 -0.643551 3.62871 9.57363 8.75968
252 2 0.186854 3.74874 10.7726 8.73411
359 2 0.190652 3.58781 13.3265 17.5375
365 2 0.166582 10.7075 7.19035 15.4989
21 4 1.4507 8.58937 10.9449 16.0238
55 4 1.4789 6.36913 7.09194 15.6738
56 4 1.50814 8.54892 7.0898 11.7332
157 3 -0.852473 7.76377 9.6861 9.39009
62 4 1.49507 7.63794 9.14692 13.7355
63 4 1.39249 3.29589 11.2284 15.8828
64 4 1.18909 6.5889 11.4405 11.9686
142 3 -0.78686 5.03283 7.49865 16.5968
143 3 -0.782985 10.0926 7.03111 10.694
152 3 -0.86208 7.16796 11.2118 16.5663
295 2 0.15384 4.7765 13.0526 11.0154
162 3 -0.840129 6.54085 8.18974 14.4573
163 3 -0.855306 8.42793 8.51602 12.4831
164 3 -0.809192 8.8486 9.71437 14.928
165 3 -0.820259 3.02046 10.0109 14.7908
166 3 -0.84967 4.57958 11.0916 16.8682
167 3 -0.857108 2.08813 11.7495 16.7139
168 3 -0.818401 7.83069 11.7335 11.142
169 3 -0.797219 6.82073 10.6133 13.3305
190 1 -0.684771 2.4982 11.8586 11.7446
201 1 -0.663734 3.50452 12.7729 14.6365
202 1 -0.654382 5.32584 10.4113 10.9279
203 1 -0.667116 5.4214 13.0701 12.116
19 4 1.56753 8.56439 11.0871 9.65578
242 2 0.181095 4.85897 7.23878 12.8224
251 2 0.136715 2.99971 9.29528 9.6934
29 4 1.33975 3.62494 7.10774 17.458
255 2 0.171991 3.71735 9.03206 12.451
259 2 0.16744 2.59782 11.5331 10.6058
260 2 0.165578 3.14257 11.233 12.4439
261 2 0.163809 2.7679 12.9632 11.8921
283 2 0.184642 4.01433 7.77939 9.61296
288 2 0.183291 3.1834 12.403 13.6091
289 2 0.161739 4.59904 13.2512 14.7744
240 2 0.235638 3.71148 7.08167 14.2324
291 2 0.182493 5.37151 9.28462 11.2953
292 2 0.195411 5.57855 10.5666 9.83328
293 2 0.150089 4.27995 10.9478 11.2601
294 2 0.180594 4.76509 12.9343 13.0463
350 2 0.211923 6.28734 13.314 15.7281
141 3 -0.851115 7.69346 6.97427 16.5732
341 1 -0.699199 3.98973 12.7697 9.1863
342 2 0.163673 4.40317 11.9006 9.82486
344 1 -0.68174 10.1416 7.87958 17.3301
290 2 0.166384 2.64442 13.4055 15.1266
346 2 0.235492 9.9188 8.41988 16.3698
ITEM: TIMESTEP
100
ITEM: NUMBER OF ATOMS
366
ITEM: BOX BOUNDS xy xz yz pp pp pp
-7.6516000000000002e+00 1.5037200000000000e+01 -7.4931000000000001e+00
0.0000000000000000e+00 1.3615700000000000e+01 -1.5850000000000000e-01
0.0000000000000000e+00 1.7959547999999998e+01 8.0699999999999994e-02
ITEM: ATOMS id type q x y z
73 3 -0.85416 -2.2337 6.62063 4.21326
3 4 1.35183 1.01355 1.90894 0.383049
5 4 1.56862 0.760162 1.706 5.46437
7 4 1.62118 0.247953 4.32239 2.15571
301 2 0.175483 5.47206 3.57013 1.69365
10 4 1.21152 -0.333504 4.45348 7.17374
339 2 0.220632 3.19775 5.56441 1.6183
24 4 1.47994 3.59833 1.77673 4.21113
297 3 -0.764305 6.61769 0.622309 1.41956
28 4 1.61808 1.6757 6.17954 4.07737
65 3 -0.832732 1.40915 0.411606 0.98388
66 3 -0.829413 -0.218549 1.4827 4.17958
67 3 -0.82616 0.769137 0.281906 6.2586
69 3 -0.854959 -1.06126 3.51023 2.68213
70 3 -0.840559 1.19017 3.14654 1.3539
71 3 -0.874972 -0.123068 5.49893 1.13582
72 3 -0.827261 0.00372999 2.94794 6.52618
338 1 -0.680743 4.15506 5.58745 0.956687
74 3 -0.833046 -0.937055 5.625 6.36478
89 3 -0.830923 3.15806 0.702722 3.09136
90 3 -0.847719 2.29173 2.15541 5.01106
91 3 -0.808843 2.27913 1.0708 8.39776
92 3 -0.846208 4.93313 1.64137 5.10444
351 2 0.174129 -3.17407 5.74344 0.470795
94 3 -0.88207 1.08802 4.95656 3.32443
9 4 1.4149 -0.826753 6.56699 0.228101
98 3 -0.884732 2.6576 5.72742 5.17924
96 3 -0.817836 4.42282 3.00287 8.48807
172 1 -0.665798 1.32229 5.07243 7.90943
178 1 -0.693192 4.20025 3.38981 3.25936
208 2 0.259327 1.9285 5.13137 6.93023
361 2 0.255312 -0.777952 1.85619 7.78037
210 2 0.1609 1.18691 6.224 8.35397
225 2 0.224852 3.82838 4.27689 3.82703
226 2 0.194452 3.71022 3.24972 2.23761
227 2 0.174803 5.33321 3.30582 3.32492
93 3 -0.824753 6.8374 0.893796 6.8836
356 2 0.159049 4.17893 4.66025 0.264651
31 4 1.61529 3.92529 6.32676 6.12944
99 3 -0.888753 4.38574 5.23191 7.13876
27 4 1.61367 6.33641 2.04518 5.76507
209 2 0.170284 1.77911 4.32281 8.65649
321 2 0.216551 -2.11936 4.68307 17.035
13 4 1.3179 -0.452175 4.48531 14.0563
14 4 1.08449 -1.06416 6.55 11.6512
26 4 1.12364 3.39105 1.85797 9.23836
68 3 -0.789443 -0.681411 2.02784 17.0569
75 3 -0.776071 -1.43229 3.61946 15.1114
11 4 1.56607 -3.66799 6.76048 9.58322
77 3 -0.783626 -1.15824 5.49464 13.0932
100 3 -0.803503 0.919976 5.15414 14.7346
330 2 0.167344 5.70835 1.91008 15.5088
173 1 -0.675843 0.221074 3.12246 12.8348
175 1 -0.658472 0.531377 5.71231 10.9782
179 1 -0.643674 4.48372 0.262653 9.65074
180 1 -0.677853 2.44395 2.42661 10.7957
181 1 -0.664679 3.94659 3.48779 14.3677
204 2 0.153777 0.12363 0.816475 14.8007
206 2 0.143803 -0.817849 3.52351 9.438
207 2 0.27011 -1.66278 5.13481 9.46513
211 2 0.157859 -0.0214032 3.23549 11.7828
212 2 0.166363 -0.149698 2.15206 13.2215
213 2 0.167718 1.35181 3.27752 12.9817
217 2 0.164315 0.760486 5.43787 9.81357
218 2 0.174443 0.602911 4.71992 11.6975
314 2 0.19592 2.3851 3.30629 16.5004
328 2 0.143426 4.65956 2.44289 17.0651
230 2 0.187758 5.49106 0.749467 9.84954
231 2 0.180149 1.36217 2.17316 10.7
232 2 0.148216 2.727 3.52919 10.7293
233 2 0.14995 2.97517 1.8042 11.5663
234 2 0.187637 4.47113 2.79325 15.1542
235 2 0.153649 3.56937 2.89702 13.5023
236 2 0.201114 3.08584 4.1948 14.7363
241 2 0.143345 3.24203 6.42207 12.565
76 3 -0.812262 -2.24775 6.58713 10.5007
349 2 0.211947 -2.93401 6.24837 14.3933
303 1 -0.668174 5.26061 1.36163 12.6041
305 2 0.171947 4.44698 1.20894 13.3649
306 2 0.154966 5.03123 0.979914 11.4727
307 2 0.150217 5.64265 2.50165 12.5954
312 1 -0.671421 2.01708 2.25869 16.5039
313 2 0.177954 2.79147 1.41596 16.7837
282 2 0.185358 3.94637 5.90681 9.5764
315 2 0.165191 1.48956 2.07851 15.5199
320 1 -0.67072 -2.54413 5.75374 17.2502
302 4 1.11982 6.6339 0.318687 13.4344
322 2 0.163704 -3.05067 6.18527 16.2315
327 1 -0.666387 5.37301 1.62512 16.4973
33 4 1.51135 1.12875 6.66463 15.4707
329 2 0.285282 4.91357 0.592252 16.4829
101 3 -0.846416 2.53999 6.54369 16.2048
219 2 0.130921 1.24921 6.5395 11.3564
171 1 -0.67469 -1.34927 4.30336 8.82863
4 4 1.57266 -5.74809 13.262 7.43212
8 4 1.57706 -3.74724 7.19977 3.73183
15 4 1.56846 -2.43621 9.15649 1.83728
17 4 1.531 -3.85087 11.2775 0.246983
18 4 1.67184 -2.54813 8.97923 7.65296
20 4 1.69562 -4.08002 11.2482 5.85675
114 3 -0.796114 1.63522 9.73434 6.68549
110 3 -0.844697 -1.35839 9.71027 8.42467
25 4 1.45044 -0.0342593 13.2659 7.75795
35 4 1.66706 -1.38719 11.1151 4.13633
37 4 1.21457 2.3262 8.73691 7.6849
78 3 -0.852483 -3.62538 8.37985 2.58312
79 3 -0.839297 -1.36862 7.8989 1.01539
80 3 -0.879153 -2.84398 10.0622 0.603897
81 3 -0.83597 -4.14599 12.1228 1.57009
109 3 -0.804608 3.18675 7.66001 6.92001
83 3 -0.808569 -1.72379 8.01806 6.42982
84 3 -0.868171 -6.47525 12.1109 8.39572
85 3 -0.855226 -5.3866 10.8248 5.07207
86 3 -0.806547 -3.54327 10.0699 6.9899
87 3 -0.857989 -4.44031 12.571 6.71736
95 3 -0.7957 0.240046 7.21295 4.70963
103 3 -0.894261 2.39322 7.14068 3.0164
105 3 -0.867406 -1.59891 9.96548 2.96992
106 3 -0.842849 -0.902161 12.5389 3.5351
107 3 -0.834875 -2.87969 11.3813 4.79839
108 3 -0.800034 0.631121 11.8724 1.48107
111 3 -0.818379 -1.00662 12.3757 8.64072
113 3 -0.868306 -0.296446 10.7201 5.22271
34 4 1.45205 2.66026 8.51455 2.37135
184 1 -0.675629 0.898528 9.17884 2.5388
39 4 1.60964 1.15754 11.1314 5.86129
243 2 0.275214 0.535017 9.23428 3.62392
244 2 0.249855 0.0821345 8.61248 2.00162
245 2 0.256466 0.877348 10.2572 2.08672
248 2 0.227181 0.229172 7.94155 8.02161
310 3 -0.848641 -6.20878 12.4342 3.1451
23 4 1.53222 0.00979231 13.275 2.4789
82 3 -0.847815 -3.26704 8.00271 8.6195
1 4 1.65361 -5.2211 13.2197 2.15135
358 2 0.240875 -0.147793 9.11107 0.252552
12 4 1.63531 -1.21184 6.90685 5.36606
364 2 0.27909 -4.65402 8.57286 0.450505
357 2 0.259873 1.73339 9.01155 0.00677542
228 2 0.285515 -2.9983 13.1347 8.79081
22 4 1.21994 -3.74075 10.8021 11.2317
324 2 0.189245 -6.30859 12.2411 13.9057
102 3 -0.845656 -0.114145 6.9007 16.5043
38 4 1.54338 -1.0593 10.864 9.55688
40 4 1.30031 1.89576 9.33556 13.7966
41 4 1.35904 -2.01103 11.8701 15.6445
42 4 1.27142 0.679853 11.4947 11.9644
88 3 -0.778069 -4.91053 10.8169 10.1482
325 2 0.205693 -4.77242 12.4998 14.8885
229 2 0.180633 -3.49637 13.3091 10.625
112 3 -0.846073 -2.26327 10.9232 10.6407
116 3 -0.828008 1.23938 7.94964 14.3654
117 3 -0.834212 -0.706214 11.7495 16.5789
118 3 -0.789968 -1.75962 12.8826 14.4147
119 3 -0.810748 -3.27579 12.4101 16.5417
120 3 -0.849749 0.311573 10.6902 10.3443
121 3 -0.778308 0.621504 10.5234 13.2357
122 3 -0.792725 -0.0414621 12.8882 12.3342
174 1 -0.665779 -0.717677 8.39478 12.1231
176 1 -0.692323 -3.7707 9.16652 12.2807
177 1 -0.672599 -4.11377 12.3595 12.266
185 1 -0.702319 0.574846 9.59072 17.2464
353 2 0.191053 -3.41961 13.2684 12.3056
189 1 -0.686192 -2.37775 10.0963 15.0297
214 2 0.18025 0.32143 8.41184 11.7136
215 2 0.213175 -0.718839 8.48701 13.2823
216 2 0.216416 -1.42679 9.14325 11.611
220 2 0.163004 -2.65161 8.79649 12.4152
221 2 0.269651 -4.35193 8.31367 11.5606
222 2 0.19618 -4.36953 9.27239 13.225
223 2 0.145077 -4.05875 11.6828 13.2788
224 2 0.195018 -5.15072 12.6742 12.072
246 2 0.220666 0.410675 9.40077 16.176
247 2 0.158404 0.91175 7.27037 9.72957
249 2 0.259546 0.732309 9.13151 9.46892
36 4 1.33697 0.592068 11.4189 17.4242
254 2 0.168877 2.93347 7.86101 11.9086
256 2 0.210254 -2.8472 9.61336 15.878
257 2 0.185649 -1.17868 9.84048 14.9522
258 2 0.16696 -2.89973 9.81492 14.0095
348 2 0.18838 -3.95198 7.64452 13.6525
311 3 -0.843606 -5.36374 10.6825 17.1671
323 1 -0.692768 -5.8725 12.4815 14.8818
326 2 0.172478 -6.309 13.4969 15.1957
186 1 -0.695771 0.978413 8.15825 8.93356
240 2 0.256275 3.45788 6.93933 14.3538
2 4 1.62948 13.5148 2.12388 3.51206
360 2 0.17819 10.5176 1.21939 1.10421
296 4 0.927027 6.76591 1.91051 0.280745
44 4 1.56036 8.85924 2.02976 3.92327
280 2 0.24952 7.9994 4.35579 7.98056
46 4 1.58076 11.2457 2.27035 5.79383
48 4 1.3794 9.89703 4.5535 2.13785
51 4 1.38393 10.2701 4.80808 7.4952
97 3 -0.865936 6.24385 3.46406 6.67859
300 2 0.211095 7.28677 3.81205 1.23443
123 3 -0.830854 12.8819 0.990822 2.53692
124 3 -0.823437 8.83979 0.57699 2.9714
125 3 -0.858957 7.43935 2.21076 4.62737
126 3 -0.841038 12.3343 2.41319 4.5835
127 3 -0.828668 9.82184 1.9115 5.24915
128 3 -0.794863 11.6794 0.896273 6.81998
129 3 -0.861895 9.19281 3.39394 3.02666
130 3 -0.805183 10.469 5.74664 2.98097
132 3 -0.812587 9.07262 5.21015 0.918517
133 3 -0.826748 11.1753 3.64268 6.64172
354 2 0.178155 9.3204 1.83264 0.742184
340 2 0.181846 5.12038 5.67551 1.68967
138 3 -0.864353 9.59452 5.94137 6.58645
277 2 0.189511 6.66473 6.01467 2.04242
196 1 -0.677115 11.4091 3.76243 1.27837
197 1 -0.69897 6.57317 5.61278 3.09005
198 1 -0.679098 8.88461 3.71007 8.28184
275 2 0.240684 12.3547 4.37869 1.51431
274 2 0.204072 11.5023 2.74414 1.67182
273 2 0.160565 10.9416 3.83715 0.202154
276 2 0.224818 7.50384 5.14174 3.51973
191 1 -0.655011 10.8538 0.133393 0.942686
278 2 0.158562 5.61796 4.81832 3.20256
279 2 0.204874 8.90739 2.83396 7.60375
337 2 0.174825 8.70933 1.74523 8.76997
192 1 -0.670091 13.7493 1.16133 8.54937
298 1 -0.683615 6.25367 3.60465 0.802853
131 3 -0.865128 5.1318 6.76276 5.23024
352 2 0.222976 12.8374 3.75706 8.26242
30 4 1.5703 5.29322 4.07797 7.71129
6 4 1.16755 13.4106 2.18564 15.8948
32 4 0.938363 5.03987 4.98082 13.7858
47 4 0.958484 10.5919 2.94863 11.8671
237 2 0.156898 5.42993 3.95624 11.6041
54 4 1.14645 10.0112 5.38488 13.7765
135 3 -0.794461 6.19733 4.94478 9.10404
139 3 -0.737159 10.7556 4.24019 12.7994
140 3 -0.755116 5.90085 5.42211 15.0363
205 2 0.163193 13.6285 0.184162 13.7877
334 1 -0.676116 8.55515 0.606016 9.05179
145 3 -0.806154 8.80425 6.12264 13.0127
182 1 -0.676586 6.18203 4.44958 12.3259
355 2 0.17414 8.11339 1.53093 15.3881
193 1 -0.686131 11.8571 2.96179 10.398
194 1 -0.682977 8.77104 2.77344 11.3726
195 1 -0.648298 10.9446 1.46035 13.0015
362 2 0.198118 14.4382 0.436873 9.13346
200 1 -0.675783 9.3468 4.31466 15.3109
265 2 0.168978 12.9222 3.05888 10.7011
170 1 -0.667029 14.0507 0.626039 14.8663
238 2 0.171563 6.90522 3.67434 12.7029
239 2 0.284477 6.66828 5.35905 11.8769
263 2 0.152389 13.1063 1.86197 9.29925
264 2 0.137668 11.6431 1.99633 9.84913
183 1 -0.672196 3.97575 6.70363 13.3802
266 2 0.258959 11.529 3.92218 9.86461
267 2 0.147422 8.33543 2.28495 12.482
268 2 0.161572 8.69986 1.97902 10.5083
269 2 0.209821 8.2568 3.66881 11.1664
270 2 0.158463 10.2648 0.60644 12.8142
271 2 0.189914 11.1634 1.69808 14.1654
272 2 0.153845 11.9717 1.31326 12.3574
366 2 0.14723 13.867 0.153912 12.1068
285 2 0.160298 10.0197 4.20048 16.1909
286 2 0.170841 8.88626 3.30357 14.9447
287 2 0.248434 8.50138 5.05048 15.6419
304 1 -0.680326 7.92792 1.49659 14.2566
308 2 0.163094 9.01169 1.47189 13.6992
309 2 0.122762 7.32415 2.43834 13.9107
316 1 -0.672034 11.5619 2.04182 16.1035
317 2 0.144408 11.3681 0.938097 15.6168
318 2 0.171616 10.716 2.89963 15.7182
319 2 0.174633 11.6475 2.04038 17.2418
331 1 -0.671787 8.59002 1.94135 17.3194
332 2 0.174723 8.54114 0.947385 16.8207
333 2 0.175751 8.81431 2.77982 16.5919
363 2 0.136654 11.2152 0.0802777 9.96946
336 2 0.179752 8.07396 0.398922 10.0289
281 2 0.179794 8.8219 3.41146 9.4543
52 4 1.32508 6.21418 6.48015 9.49136
134 3 -0.866876 11.0641 5.38278 8.82433
284 2 0.151135 4.3849 6.74796 11.3574
199 1 -0.663477 4.46189 6.79986 10.1386
347 1 -0.684783 11.1165 6.80424 14.4382
144 3 -0.810672 7.3006 6.78874 11.0471
141 3 -0.880465 7.69782 6.74431 16.5257
299 2 0.191273 5.8732 4.42601 17.5318
16 4 1.74705 8.45334 11.1822 4.01267
59 4 1.6331 6.11103 11.0626 0.00341569
43 4 1.48237 4.92524 13.0961 1.89363
49 4 1.42109 6.37145 7.0618 4.29252
50 4 1.35193 8.57479 6.84579 0.309612
53 4 1.65418 9.22628 7.37179 5.92933
57 4 1.68036 7.18339 9.0253 2.13987
58 4 1.66902 3.72356 11.1116 4.16335
60 4 1.56903 7.40793 8.85609 7.91594
61 4 1.69194 6.12107 11.0341 6.08638
262 2 0.272028 2.57968 12.9357 1.27423
250 2 0.21138 4.59161 9.10464 8.60525
45 4 1.26492 5.04867 13.4788 7.7076
115 3 -0.833641 0.979652 12.3387 6.93267
161 3 -0.848565 5.74693 12.294 7.06997
136 3 -0.845828 10.5241 7.77083 4.95128
146 3 -0.820526 6.26763 8.36833 3.28746
147 3 -0.88661 7.99442 7.94915 1.34141
148 3 -0.844654 8.23112 10.0159 2.89857
149 3 -0.782732 3.30377 9.68333 3.21721
150 3 -0.841709 4.34075 12.1368 3.04749
151 3 -0.833806 2.31342 11.6055 4.77089
153 3 -0.830123 6.23215 9.89497 1.14861
154 3 -0.843927 5.87048 12.4845 0.818493
155 3 -0.86953 6.52765 7.56371 8.39582
156 3 -0.776365 8.95823 8.43691 7.15518
158 3 -0.860644 7.18952 11.3982 4.91831
159 3 -0.844471 4.67539 10.6799 5.24505
160 3 -0.89149 6.58343 9.82244 6.94151
137 3 -0.853943 7.863 7.20537 5.12552
104 3 -0.775365 3.13176 8.40002 0.796676
253 2 0.153572 2.67591 9.586 11.514
365 2 0.161447 10.7694 7.21749 15.5126
21 4 1.39523 8.63552 10.9545 15.9788
55 4 1.52909 6.35221 6.99427 15.7226
56 4 1.48178 8.58826 7.25723 11.8242
157 3 -0.836005 7.86639 9.76056 9.27911
62 4 1.50206 7.62765 9.09114 13.8424
63 4 1.38958 3.30659 11.2351 15.8303
64 4 1.19063 6.63507 11.4336 11.8941
142 3 -0.845533 5.11726 7.32385 16.6471
143 3 -0.790076 10.0735 7.15391 10.5337
152 3 -0.847003 7.24376 11.286 16.6359
295 2 0.154653 4.84952 13.0398 10.9873
162 3 -0.843421 6.55196 8.04421 14.3744
163 3 -0.860829 8.53079 8.66549 12.5457
164 3 -0.840948 8.64475 9.54946 14.9893
165 3 -0.837321 2.81945 10.0822 14.8256
166 3 -0.823753 4.69883 11.0085 16.6433
167 3 -0.831605 2.09457 11.7802 16.8089
168 3 -0.845229 7.80667 11.9175 10.9742
169 3 -0.787184 6.80912 10.7057 13.2695
190 1 -0.686809 2.58204 11.9369 11.8021
201 1 -0.662372 3.56232 12.776 14.6841
202 1 -0.666938 5.26813 10.4016 10.9146
203 1 -0.650406 5.46542 12.9468 12.0763
19 4 1.57885 8.52606 11.1664 9.61383
242 2 0.206766 4.74372 7.41827 13.0202
251 2 0.134815 3.10187 9.19364 9.79271
29 4 1.30126 3.70706 6.98223 17.3096
255 2 0.179922 4.0922 9.115 12.6413
259 2 0.163158 2.60901 11.578 10.7225
260 2 0.163905 3.34214 11.3733 12.4752
261 2 0.147648 2.55337 13.1418 11.8677
283 2 0.169362 4.23082 7.89886 9.66639
288 2 0.185872 3.18428 12.5351 13.6251
289 2 0.155252 4.70077 13.326 14.738
345 2 0.166045 10.9267 7.08088 17.2866
291 2 0.181807 5.3713 9.35442 11.3411
292 2 0.193609 5.48454 10.4111 9.79127
293 2 0.163985 4.20949 10.9033 11.1959
294 2 0.178703 4.76889 12.8761 13.0853
350 2 0.217048 6.35326 13.4121 15.6917
188 1 -0.687513 2.98245 8.88862 12.3247
341 1 -0.693098 3.95933 12.7852 9.2384
342 2 0.153697 4.58243 11.9243 9.84244
344 1 -0.665535 10.0397 7.80629 17.3363
290 2 0.168789 2.71031 13.3542 15.2693
346 2 0.234788 9.74273 8.19918 16.2831
359 2 0.189728 3.54378 13.6036 17.4659
343 2 0.174654 3.01267 12.2898 8.919
252 2 0.184671 3.74504 10.8436 9.00803
187 1 -0.658954 3.63885 9.67764 8.86895
335 2 0.180949 2.12146 13.5673 9.02232
ITEM: TIMESTEP
200
ITEM: NUMBER OF ATOMS
366
ITEM: BOX BOUNDS xy xz yz pp pp pp
-7.6516000000000002e+00 1.5037200000000000e+01 -7.4931000000000001e+00
0.0000000000000000e+00 1.3615700000000000e+01 -1.5850000000000000e-01
0.0000000000000000e+00 1.8311695999999998e+01 8.0699999999999994e-02
ITEM: ATOMS id type q x y z
171 1 -0.677936 -1.28872 4.07432 8.90883
3 4 1.38127 1.0082 1.85023 0.26667
5 4 1.62108 0.820984 1.85705 5.51668
7 4 1.55893 0.244835 4.15948 2.03711
99 3 -0.850814 4.36701 5.25809 7.12689
10 4 1.20752 -0.426418 4.40829 7.25251
339 2 0.19302 2.74635 5.53061 0.85851
24 4 1.41848 3.54258 1.82464 4.13172
297 3 -0.785025 6.64382 0.740069 1.25816
28 4 1.55781 1.45201 6.25906 4.10215
65 3 -0.834042 1.41133 0.59993 1.04985
66 3 -0.849416 -0.213665 1.70439 4.36518