LAMMPS (2 Aug 2023 - Update 2)
  using 2 OpenMP thread(s) per MPI task
Reading data file ...
  triclinic box = (0 0 0) to (15.3172 13.8463 18.3222) with tilt (-7.7318 0.2463 -0.1382)
WARNING: Triclinic box skew is large. LAMMPS will run inefficiently. (src/domain.cpp:220)
  2 by 2 by 2 MPI processor grid
  reading atoms ...
  365 atoms
  reading velocities ...
  365 velocities
Finding 1-2 1-3 1-4 neighbors ...
  special bond factors lj:    0        0        0       
  special bond factors coul:  0        0        0       
     0 = max # of 1-2 neighbors
     0 = max # of 1-3 neighbors
     0 = max # of 1-4 neighbors
     1 = max # of special neighbors
  special bonds CPU = 0.001 seconds
  read_data CPU = 0.010 seconds
WARNING: Van der Waals parameters for element SI indicate inner wall+shielding, but earlier atoms indicate a different van der Waals method. This may cause division-by-zero errors. Keeping van der Waals setting for earlier atoms. (src/REAXFF/reaxff_ffield.cpp:251)
System init for write_restart ...
Neighbor list info ...
  update: every = 1 steps, delay = 0 steps, check = yes
  max neighbors/atom: 2000, page size: 100000
  master list distance cutoff = 12
  ghost atom cutoff = 12
  binsize = 6, bins = 4 3 4
  2 neighbor lists, perpetual/occasional/extra = 2 0 0
  (1) pair reaxff, perpetual
      attributes: half, newton off, ghost
      pair build: half/bin/newtoff/ghost
      stencil: full/ghost/bin/3d
      bin: standard
  (2) fix qeq/reaxff, perpetual, copy from (1)
      attributes: half, newton off
      pair build: copy
      stencil: none
      bin: none
  using 2 OpenMP thread(s) per MPI task
Reading restart file ...
  restart file = 2 Aug 2023, LAMMPS = 2 Aug 2023
  restoring atom style full from restart
  triclinic box = (0 0 0) to (15.3172 13.8463 18.3222) with tilt (-7.7318 0.2463 -0.1382)
WARNING: Triclinic box skew is large. LAMMPS will run inefficiently. (src/domain.cpp:220)
  2 by 2 by 2 MPI processor grid
  pair style reaxff stores no restart info
  365 atoms
Finding 1-2 1-3 1-4 neighbors ...
  special bond factors lj:    0        0        0       
  special bond factors coul:  0        0        0       
     0 = max # of 1-2 neighbors
     0 = max # of 1-3 neighbors
     0 = max # of 1-4 neighbors
     1 = max # of special neighbors
  special bonds CPU = 0.000 seconds
  read_restart CPU = 0.004 seconds
*****debug*****
xy = -7.731799999999999784, deltaxy = 0.077318
xz = 0.24629999999999999116, deltaxz = -0.002463
yz = -0.13819999999999998952, deltayz = 0.001382
*****
*****Negative-deform 1 starts.*****
WARNING: Van der Waals parameters for element SI indicate inner wall+shielding, but earlier atoms indicate a different van der Waals method. This may cause division-by-zero errors. Keeping van der Waals setting for earlier atoms. (src/REAXFF/reaxff_ffield.cpp:251)

CITE-CITE-CITE-CITE-CITE-CITE-CITE-CITE-CITE-CITE-CITE-CITE-CITE

Your simulation uses code contributions which should be cited:
- pair reaxff command: doi:10.1016/j.parco.2011.08.005
- fix qeq/reaxff command: doi:10.1016/j.parco.2011.08.005
The log file lists these citations in BibTeX format.

CITE-CITE-CITE-CITE-CITE-CITE-CITE-CITE-CITE-CITE-CITE-CITE-CITE

Neighbor list info ...
  update: every = 10 steps, delay = 0 steps, check = yes
  max neighbors/atom: 2000, page size: 100000
  master list distance cutoff = 12
  ghost atom cutoff = 12
  binsize = 6, bins = 4 3 4
  2 neighbor lists, perpetual/occasional/extra = 2 0 0
  (1) pair reaxff, perpetual
      attributes: half, newton off, ghost
      pair build: half/bin/newtoff/ghost
      stencil: full/ghost/bin/3d
      bin: standard
  (2) fix qeq/reaxff, perpetual, copy from (1)
      attributes: half, newton off
      pair build: copy
      stencil: none
      bin: none
Setting up Verlet run ...
  Unit style    : real
  Current step  : 0
  Time step     : 0.5
Per MPI rank memory allocation (min/avg/max) = 131.1 | 132 | 132.9 Mbytes
   Step          Temp          PotEng         Press          Volume    
         0   313.73092     -37799.655     -3711.9058      3885.8921    
       100   297.01073     -37794.355      3067.0476      3885.1149    
       200   284.88325     -37810.059      1732.519       3884.3378    
       300   276.5001      -37805.266     -6244.6432      3883.5606    
       400   303.79402     -37819.648     -3715.5508      3882.7834    
       500   307.97142     -37822.303      9122.431       3882.0062    
       600   318.0066      -37826.295      5394.7599      3881.229     
       700   322.9381      -37820.85       5762.2616      3880.4519    
       800   315.55071     -37814.432     -13303.76       3879.6747    
       900   281.80602     -37809.619     -11903.22       3878.8975    
      1000   285.71427     -37816.812      7147.1612      3878.1203    
      1100   301.85072     -37817.37       6346.5126      3877.3432    
      1200   309.59982     -37812.145      6852.1404      3876.566     
      1300   311.1228      -37813.988      2882.3176      3875.7888    
      1400   309.5782      -37812.751      12116.317      3875.0116    
      1500   310.72768     -37822.966      733.82526      3874.2344    
      1600   275.4486      -37806.798      8771.2883      3873.4573    
      1700   278.38596     -37830.075      8542.1137      3872.6801    
      1800   278.56684     -37809.061     -1359.2883      3871.9029    
      1900   297.13261     -37804.172      10698.48       3871.1257    
      2000   313.32886     -37811.869     -7007.2996      3870.3486    
      2100   296.58394     -37792.112      5279.2778      3869.5714    
      2200   299.46486     -37794.263      1148.063       3868.7942    
      2300   297.20377     -37802.134     -4637.9651      3868.017     
      2400   284.845       -37812.768      3046.9305      3867.2398    
      2500   278.26251     -37814.467      5962.3062      3866.4627    
      2600   301.94578     -37817.718      6749.2574      3865.6855    
      2700   296.65295     -37781.371      4578.0733      3864.9083    
      2800   309.09552     -37800.377     -6328.2873      3864.1311    
      2900   319.51056     -37836.784      8822.6146      3863.3539    
      3000   299.05104     -37821.503      9006.4074      3862.5768    
      3100   311.68564     -37831.15       4498.134       3861.7996    
      3200   319.03698     -37813.081      23352.281      3861.0224    
      3300   317.70404     -37775.45       5132.7579      3860.2452    
      3400   320.52025     -37791.018      7498.7633      3859.4681    
      3500   306.64662     -37794.276      3849.1038      3858.6909    
      3600   299.15652     -37810.165      3807.8271      3857.9137    
      3700   310.61768     -37833.696      13735.975      3857.1365    
      3800   303.01266     -37829.736      4353.1867      3856.3593    
      3900   297.4976      -37808.795     -152.47688      3855.5822    
      4000   324.23379     -37805.861     -6382.5435      3854.805     
      4100   287.69388     -37777.5        13591.38       3854.0278    
      4200   288.21221     -37798.191     -1666.6389      3853.2506    
      4300   282.03207     -37810.733      13050.813      3852.4734    
      4400   294.83012     -37823.514      1799.9836      3851.6963    
      4500   297.78433     -37819.208      7090.7464      3850.9191    
      4600   297.19019     -37805.543      17082.625      3850.1419    
      4700   299.39903     -37792.179      4939.6881      3849.3647    
      4800   331.05437     -37822.031      11529.26       3848.5876    
      4900   283.14816     -37798.253      9361.7509      3847.8104    
      5000   301.64969     -37834.942      16234.956      3847.0332    
Loop time of 213.547 on 16 procs for 5000 steps with 365 atoms

Performance: 1.011 ns/day, 23.727 hours/ns, 23.414 timesteps/s, 8.546 katom-step/s
99.0% CPU use with 8 MPI tasks x 2 OpenMP threads

MPI task timing breakdown:
Section |  min time  |  avg time  |  max time  |%varavg| %total
---------------------------------------------------------------
Pair    | 126.84     | 164.93     | 190.36     | 216.6 | 77.23
Bond    | 0.013021   | 0.01348    | 0.013858   |   0.3 |  0.01
Neigh   | 1.4782     | 1.9229     | 2.2521     |  24.6 |  0.90
Comm    | 1.8648     | 27.226     | 65.285     | 532.7 | 12.75
Output  | 0.017732   | 0.045978   | 0.10325    |  14.1 |  0.02
Modify  | 18.877     | 19.279     | 19.782     |   8.7 |  9.03
Other   |            | 0.1278     |            |       |  0.06

Nlocal:         45.625 ave          51 max          38 min
Histogram: 1 0 0 0 1 1 3 1 0 1
Nghost:           3403 ave        3421 max        3383 min
Histogram: 2 0 0 0 1 2 1 0 0 2
Neighs:        30222.6 ave       33635 max       25653 min
Histogram: 1 0 0 0 1 3 1 1 0 1

Total # of neighbors = 241781
Ave neighs/atom = 662.4137
Ave special neighs/atom = 0
Neighbor list builds = 69
Dangerous builds = 0
  using 2 OpenMP thread(s) per MPI task
Reading restart file ...
  restart file = 2 Aug 2023, LAMMPS = 2 Aug 2023
  restoring atom style full from restart
  triclinic box = (0 0 0) to (15.3172 13.8463 18.3222) with tilt (-7.7318 0.2463 -0.1382)
WARNING: Triclinic box skew is large. LAMMPS will run inefficiently. (src/domain.cpp:220)
  2 by 2 by 2 MPI processor grid
  pair style reaxff stores no restart info
  365 atoms
Finding 1-2 1-3 1-4 neighbors ...
  special bond factors lj:    0        0        0       
  special bond factors coul:  0        0        0       
     0 = max # of 1-2 neighbors
     0 = max # of 1-3 neighbors
     0 = max # of 1-4 neighbors
     1 = max # of special neighbors
  special bonds CPU = 0.000 seconds
  read_restart CPU = 0.003 seconds
*****Positive-deform 1 starts.*****
WARNING: Van der Waals parameters for element SI indicate inner wall+shielding, but earlier atoms indicate a different van der Waals method. This may cause division-by-zero errors. Keeping van der Waals setting for earlier atoms. (src/REAXFF/reaxff_ffield.cpp:251)
Neighbor list info ...
  update: every = 10 steps, delay = 0 steps, check = yes
  max neighbors/atom: 2000, page size: 100000
  master list distance cutoff = 12
  ghost atom cutoff = 12
  binsize = 6, bins = 4 3 4
  2 neighbor lists, perpetual/occasional/extra = 2 0 0
  (1) pair reaxff, perpetual
      attributes: half, newton off, ghost
      pair build: half/bin/newtoff/ghost
      stencil: full/ghost/bin/3d
      bin: standard
  (2) fix qeq/reaxff, perpetual, copy from (1)
      attributes: half, newton off
      pair build: copy
      stencil: none
      bin: none
Setting up Verlet run ...
  Unit style    : real
  Current step  : 0
  Time step     : 0.5
Per MPI rank memory allocation (min/avg/max) = 131.1 | 132.1 | 132.9 Mbytes
   Step          Temp          PotEng         Press          Volume    
         0   313.73092     -37799.655     -3711.9058      3885.8921    
       100   296.99582     -37794.344      3068.1555      3886.6693    
       200   284.91582     -37809.962      1239.5171      3887.4465    
       300   276.44544     -37805.187     -6504.6342      3888.2237    
       400   301.85664     -37820.952     -4064.827       3889.0008    
       500   305.83751     -37824.434      8876.5356      3889.778     
       600   317.98324     -37825.919      4951.4771      3890.5552    
       700   324.72474     -37817.232      4706.1007      3891.3324    
       800   317.0567      -37808.484     -12185.32       3892.1095    
       900   285.03126     -37812.7       -11158.2        3892.8867    
      1000   289.83847     -37819.969      7549.5239      3893.6639    
      1100   294.93877     -37808.188      1853.4548      3894.4411    
      1200   310.89975     -37807.946      3045.5058      3895.2183    
      1300   303.73182     -37800.557      2264.1637      3895.9954    
      1400   294.681       -37799.254      9938.8184      3896.7726    
      1500   281.16138     -37830.616      379.33905      3897.5498    
      1600   270.12936     -37818.17       15313.149      3898.327     
      1700   310.11241     -37832.601      16024.853      3899.1042    
      1800   307.50012     -37810.857     -5508.4374      3899.8813    
      1900   284.81079     -37780.958      17720.298      3900.6585    
      2000   318.37618     -37810.286      2328.8529      3901.4357    
      2100   286.43102     -37789.85      -7574.6739      3902.2129    
      2200   292.27532     -37821.281      3117.1396      3902.99      
      2300   303.75504     -37836.914     -1115.3852      3903.7672    
      2400   304.63492     -37814.346     -216.48494      3904.5444    
      2500   313.41117     -37793.678     -1927.8065      3905.3216    
      2600   314.87145     -37798.647     -6398.9257      3906.0988    
      2700   294.72584     -37796.232      8910.7373      3906.8759    
      2800   281.73122     -37788.617      3316.3732      3907.6531    
      2900   291.64034     -37803.183      3288.1139      3908.4303    
      3000   295.45872     -37806.212     -10228.188      3909.2075    
      3100   326.60181     -37827.193      2821.8975      3909.9847    
      3200   317.97249     -37826.391      5129.3156      3910.7618    
      3300   290.4067      -37814.115      2649.5444      3911.539     
      3400   286.88352     -37805.011     -4607.4114      3912.3162    
      3500   304.17208     -37792.067     -14891.95       3913.0934    
      3600   310.47492     -37786.542      1166.2456      3913.8705    
      3700   313.78657     -37811.927     -5316.3868      3914.6477    
      3800   304.66629     -37811.294     -3504.4504      3915.4249    
      3900   292.86214     -37803.425      3123.7971      3916.2021    
      4000   298.50594     -37817.009      6144.5851      3916.9793    
      4100   275.15839     -37810.835      4188.3325      3917.7564    
      4200   295.18561     -37842.228      4796.6921      3918.5336    
      4300   292.23547     -37818.296     -978.59636      3919.3108    
      4400   316.07022     -37815.452     -7526.0837      3920.088     
      4500   291.13672     -37784.711     -1135.683       3920.8651    
      4600   299.09598     -37798.443     -4051.4919      3921.6423    
      4700   286.47327     -37822.205      15529.584      3922.4195    
      4800   284.46536     -37828.145     -1691.2971      3923.1967    
      4900   282.48181     -37807.143     -13580.077      3923.9739    
      5000   293.89768     -37799.983     -7157.8202      3924.751     
Loop time of 209.731 on 16 procs for 5000 steps with 365 atoms

Performance: 1.030 ns/day, 23.303 hours/ns, 23.840 timesteps/s, 8.702 katom-step/s
99.0% CPU use with 8 MPI tasks x 2 OpenMP threads

MPI task timing breakdown:
Section |  min time  |  avg time  |  max time  |%varavg| %total
---------------------------------------------------------------
Pair    | 125.16     | 161.08     | 186.28     | 176.7 | 76.80
Bond    | 0.012938   | 0.013687   | 0.014358   |   0.4 |  0.01
Neigh   | 1.6077     | 2.063      | 2.411      |  20.5 |  0.98
Comm    | 2.0532     | 27.24      | 63.151     | 429.3 | 12.99
Output  | 0.017255   | 0.045267   | 0.10284    |  14.2 |  0.02
Modify  | 18.686     | 19.103     | 19.585     |   7.5 |  9.11
Other   |            | 0.1862     |            |       |  0.09

Nlocal:         45.625 ave          52 max          31 min
Histogram: 1 0 0 0 0 1 1 2 0 3
Nghost:           3322 ave        3356 max        3281 min
Histogram: 1 0 1 1 1 0 1 1 0 2
Neighs:        29604.8 ave       33504 max       20515 min
Histogram: 1 0 0 0 0 1 1 2 0 3

Total # of neighbors = 236838
Ave neighs/atom = 648.87123
Ave special neighs/atom = 0
Neighbor list builds = 75
Dangerous builds = 0
  using 2 OpenMP thread(s) per MPI task
Reading restart file ...
  restart file = 2 Aug 2023, LAMMPS = 2 Aug 2023
  restoring atom style full from restart
  triclinic box = (0 0 0) to (15.3172 13.8463 18.3222) with tilt (-7.7318 0.2463 -0.1382)
WARNING: Triclinic box skew is large. LAMMPS will run inefficiently. (src/domain.cpp:220)
  2 by 2 by 2 MPI processor grid
  pair style reaxff stores no restart info
  365 atoms
Finding 1-2 1-3 1-4 neighbors ...
  special bond factors lj:    0        0        0       
  special bond factors coul:  0        0        0       
     0 = max # of 1-2 neighbors
     0 = max # of 1-3 neighbors
     0 = max # of 1-4 neighbors
     1 = max # of special neighbors
  special bonds CPU = 0.000 seconds
  read_restart CPU = 0.003 seconds
*****debug*****
xy = -7.731799999999999784, deltaxy = 0.077318
xz = 0.24629999999999999116, deltaxz = -0.002463
yz = -0.13819999999999998952, deltayz = 0.001382
*****
*****Negative-deform 2 starts.*****
WARNING: Van der Waals parameters for element SI indicate inner wall+shielding, but earlier atoms indicate a different van der Waals method. This may cause division-by-zero errors. Keeping van der Waals setting for earlier atoms. (src/REAXFF/reaxff_ffield.cpp:251)
Neighbor list info ...
  update: every = 10 steps, delay = 0 steps, check = yes
  max neighbors/atom: 2000, page size: 100000
  master list distance cutoff = 12
  ghost atom cutoff = 12
  binsize = 6, bins = 4 3 4
  2 neighbor lists, perpetual/occasional/extra = 2 0 0
  (1) pair reaxff, perpetual
      attributes: half, newton off, ghost
      pair build: half/bin/newtoff/ghost
      stencil: full/ghost/bin/3d
      bin: standard
  (2) fix qeq/reaxff, perpetual, copy from (1)
      attributes: half, newton off
      pair build: copy
      stencil: none
      bin: none
Setting up Verlet run ...
  Unit style    : real
  Current step  : 0
  Time step     : 0.5
Per MPI rank memory allocation (min/avg/max) = 131.1 | 132 | 132.9 Mbytes
   Step          Temp          PotEng         Press          Volume    
         0   313.73092     -37799.655     -3711.9058      3885.8921    
       100   297.00397     -37794.351      3067.4929      3885.1149    
       200   285.01181     -37810.162      1563.6581      3884.3378    
       300   276.43731     -37805.298     -6382.5761      3883.5606    
       400   303.11484     -37820.689     -3672.4589      3882.7834    
       500   306.54243     -37823.269      9275.3085      3882.0062    
       600   319.38618     -37826.982      6703.806       3881.229     
       700   326.47334     -37820.381      7528.8548      3880.4519    
       800   316.17931     -37808.791     -10766.507      3879.6747    
       900   285.86507     -37813.304     -6738.7252      3878.8975    
      1000   288.87839     -37820.076      4687.2171      3878.1203    
      1100   293.93594     -37808.233      5594.3906      3877.3432    
      1200   309.809       -37804.312      4822.4184      3876.566     
      1300   308.23443     -37806.215      3935.5461      3875.7888    
      1400   299.92155     -37802.561      12023.953      3875.0116    
      1500   302.24944     -37808.595      5101.7543      3874.2344    
      1600   293.22605     -37797.146      8982.8381      3873.4573    
      1700   282.57551     -37804.651      10017.153      3872.6801    
      1800   287.6619      -37837.79      -2106.2798      3871.9029    
      1900   289.93577     -37826.934      194.37729      3871.1257    
      2000   315.09865     -37827.296     -2159.3082      3870.3486    
      2100   285.55929     -37787.483     -1117.5293      3869.5714    
      2200   303.45516     -37796.495      9311.794       3868.7942    
      2300   309.47443     -37804.463     -8817.7944      3868.017     
      2400   291.56565     -37821.783      7733.0172      3867.2398    
      2500   288.08494     -37829.101     -850.18753      3866.4627    
      2600   284.60331     -37809.666      9711.983       3865.6855    
      2700   329.45886     -37834.768      17236.376      3864.9083    
      2800   305.17417     -37805.379      11760.109      3864.1311    
      2900   307.63489     -37809.375      11391.861      3863.3539    
      3000   283.01441     -37805.471      5481.8046      3862.5768    
      3100   271.02477     -37819.72       6214.9908      3861.7996    
      3200   268.39164     -37811.03       2402.7053      3861.0224    
      3300   285.2065      -37808.823      4175.1968      3860.2452    
      3400   311.36206     -37827.01       8355.7922      3859.4681    
      3500   315.61243     -37824.17       17781.647      3858.6909    
      3600   318.66175     -37817.806      6397.8212      3857.9137    
      3700   289.15256     -37792.404      5337.4231      3857.1365    
      3800   272.27928     -37801.559      9654.6508      3856.3593    
      3900   304.59163     -37845.698      10004.184      3855.5822    
      4000   295.27172     -37834.532      25981.593      3854.805     
      4100   320.67363     -37823.582      18307.693      3854.0278    
      4200   307.85941     -37792.614      10235.293      3853.2506    
      4300   290.41065     -37782.818      1923.6876      3852.4734    
      4400   310.12089     -37827.578      7883.3571      3851.6963    
      4500   289.0004      -37824.857      3382.1546      3850.9191    
      4600   298.09552     -37828.633      25630.404      3850.1419    
      4700   317.20434     -37837.923      10314.732      3849.3647    
      4800   299.04923     -37809.564      5118.9515      3848.5876    
      4900   296.32456     -37801.689      10387.723      3847.8104    
      5000   293.95831     -37786.431      6588.8366      3847.0332    
Loop time of 212.775 on 16 procs for 5000 steps with 365 atoms

Performance: 1.015 ns/day, 23.642 hours/ns, 23.499 timesteps/s, 8.577 katom-step/s
99.0% CPU use with 8 MPI tasks x 2 OpenMP threads

MPI task timing breakdown:
Section |  min time  |  avg time  |  max time  |%varavg| %total
---------------------------------------------------------------
Pair    | 128.79     | 168.54     | 189.06     | 180.1 | 79.21
Bond    | 0.01269    | 0.013481   | 0.014485   |   0.5 |  0.01
Neigh   | 1.6605     | 2.1605     | 2.4969     |  20.3 |  1.02
Comm    | 2.3694     | 22.853     | 62.568     | 488.7 | 10.74
Output  | 0.016843   | 0.040909   | 0.090202   |  12.8 |  0.02
Modify  | 18.64      | 19.036     | 19.571     |   7.5 |  8.95
Other   |            | 0.1316     |            |       |  0.06

Nlocal:         45.625 ave          51 max          40 min
Histogram: 1 0 0 0 2 4 0 0 0 1
Nghost:        3394.38 ave        3411 max        3375 min
Histogram: 1 0 0 3 1 0 0 0 0 3
Neighs:          30241 ave       33676 max       26905 min
Histogram: 1 0 0 0 3 3 0 0 0 1

Total # of neighbors = 241928
Ave neighs/atom = 662.81644
Ave special neighs/atom = 0
Neighbor list builds = 76
Dangerous builds = 0
  using 2 OpenMP thread(s) per MPI task
Reading restart file ...
  restart file = 2 Aug 2023, LAMMPS = 2 Aug 2023
  restoring atom style full from restart
  triclinic box = (0 0 0) to (15.3172 13.8463 18.3222) with tilt (-7.7318 0.2463 -0.1382)
WARNING: Triclinic box skew is large. LAMMPS will run inefficiently. (src/domain.cpp:220)
  2 by 2 by 2 MPI processor grid
  pair style reaxff stores no restart info
  365 atoms
Finding 1-2 1-3 1-4 neighbors ...
  special bond factors lj:    0        0        0       
  special bond factors coul:  0        0        0       
     0 = max # of 1-2 neighbors
     0 = max # of 1-3 neighbors
     0 = max # of 1-4 neighbors
     1 = max # of special neighbors
  special bonds CPU = 0.000 seconds
  read_restart CPU = 0.003 seconds
*****Positive-deform 2 starts.*****
WARNING: Van der Waals parameters for element SI indicate inner wall+shielding, but earlier atoms indicate a different van der Waals method. This may cause division-by-zero errors. Keeping van der Waals setting for earlier atoms. (src/REAXFF/reaxff_ffield.cpp:251)
Neighbor list info ...
  update: every = 10 steps, delay = 0 steps, check = yes
  max neighbors/atom: 2000, page size: 100000
  master list distance cutoff = 12
  ghost atom cutoff = 12
  binsize = 6, bins = 4 3 4
  2 neighbor lists, perpetual/occasional/extra = 2 0 0
  (1) pair reaxff, perpetual
      attributes: half, newton off, ghost
      pair build: half/bin/newtoff/ghost
      stencil: full/ghost/bin/3d
      bin: standard
  (2) fix qeq/reaxff, perpetual, copy from (1)
      attributes: half, newton off
      pair build: copy
      stencil: none
      bin: none
Setting up Verlet run ...
  Unit style    : real
  Current step  : 0
  Time step     : 0.5
Per MPI rank memory allocation (min/avg/max) = 131.1 | 132.1 | 132.9 Mbytes
   Step          Temp          PotEng         Press          Volume    
         0   313.73092     -37799.655     -3711.9058      3885.8921    
       100   297.00612     -37794.354      3066.2532      3886.6693    
       200   284.72551     -37809.865      1409.2668      3887.4465    
       300   276.64919     -37805.54      -6584.7211      3888.2237    
       400   303.31334     -37820.275     -4430.0096      3889.0008    
       500   306.63474     -37822.447      8581.9889      3889.778     
       600   318.2972      -37826.565      4711.0486      3890.5552    
       700   324.74386     -37819.194      4514.6832      3891.3324    
       800   316.21073     -37807.403     -11530.524      3892.1095    
       900   285.51882     -37810.32      -10076.063      3892.8867    
      1000   291.64004     -37822.154      7883.7613      3893.6639    
      1100   296.06518     -37812.45       2602.5203      3894.4411    
      1200   318.77306     -37818.897      4902.5643      3895.2183    
      1300   299.42278     -37797.03       4513.0975      3895.9954    
      1400   306.044       -37812.157      11518.324      3896.7726    
      1500   269.30788     -37821.133     -5819.9772      3897.5498    
      1600   270.59635     -37817.353      6818.854       3898.327     
      1700   297.97359     -37818.392      14689.57       3899.1042    
      1800   316.08167     -37817.89      -2939.6089      3899.8813    
      1900   298.26002     -37788.556      8382.9885      3900.6585    
      2000   331.33411     -37823.949     -1227.6509      3901.4357    
      2100   281.1895      -37807.88      -4347.9245      3902.2129    
      2200   279.55464     -37806.538     -7123.9776      3902.99      
      2300   299.95891     -37809.634      7278.9752      3903.7672    
      2400   303.45216     -37796.618      2933.4035      3904.5444    
      2500   299.3417      -37794.238      5290.2882      3905.3216    
      2600   309.27036     -37812.837      6400.8768      3906.0988    
      2700   312.4257      -37818.591      5008.1458      3906.8759    
      2800   322.47301     -37829.882      2018.8812      3907.6531    
      2900   306.54803     -37812.582     -3866.6582      3908.4303    
      3000   289.19794     -37790.434     -10260.391      3909.2075    
      3100   291.40745     -37789.965     -4685.5201      3909.9847    
      3200   300.83475     -37804.943      2424.4304      3910.7618    
      3300   286.45547     -37800.631     -10277.065      3911.539     
      3400   270.06431     -37789.614      4422.4954      3912.3162    
      3500   312.48101     -37814.306      5348.7706      3913.0934    
      3600   307.26034     -37788.239      5341.5954      3913.8705    
      3700   308.16265     -37801.825     -9415.5847      3914.6477    
      3800   300.4298      -37827.486      7906.4298      3915.4249    
      3900   313.05071     -37844.147     -12315.481      3916.2021    
      4000   290.00488     -37811.746     -15012.036      3916.9793    
      4100   266.66662     -37779.6       -4833.5127      3917.7564    
      4200   302.82583     -37794.786      1069.1891      3918.5336    
      4300   316.29024     -37781.269      5737.2179      3919.3108    
      4400   306.47665     -37789.871     -3402.6403      3920.088     
      4500   288.80238     -37792.279     -6839.0409      3920.8651    
      4600   310.81204     -37823.404     -1018.472       3921.6423    
      4700   290.33422     -37800.685      3617.1887      3922.4195    
      4800   319.37799     -37809.962      4080.068       3923.1967    
      4900   314.54115     -37783.133     -1339.1436      3923.9739    
      5000   311.7306      -37804.14      -168.21036      3924.751     
Loop time of 208.179 on 16 procs for 5000 steps with 365 atoms

Performance: 1.038 ns/day, 23.131 hours/ns, 24.018 timesteps/s, 8.766 katom-step/s
99.0% CPU use with 8 MPI tasks x 2 OpenMP threads

MPI task timing breakdown:
Section |  min time  |  avg time  |  max time  |%varavg| %total
---------------------------------------------------------------
Pair    | 125.81     | 161.58     | 185.63     | 202.8 | 77.62
Bond    | 0.012458   | 0.013525   | 0.01429    |   0.6 |  0.01
Neigh   | 1.6294     | 2.0985     | 2.4315     |  23.0 |  1.01
Comm    | 1.5253     | 25.558     | 61.314     | 509.9 | 12.28
Output  | 0.015912   | 0.037814   | 0.082657   |  12.1 |  0.02
Modify  | 18.317     | 18.712     | 19.224     |   8.2 |  8.99
Other   |            | 0.1765     |            |       |  0.08

Nlocal:         45.625 ave          51 max          39 min
Histogram: 1 0 0 1 0 2 3 0 0 1
Nghost:        3271.38 ave        3318 max        3235 min
Histogram: 2 0 1 2 0 1 0 0 0 2
Neighs:        29646.9 ave       32860 max       25687 min
Histogram: 1 0 0 1 1 1 3 0 0 1

Total # of neighbors = 237175
Ave neighs/atom = 649.79452
Ave special neighs/atom = 0
Neighbor list builds = 76
Dangerous builds = 0
  using 2 OpenMP thread(s) per MPI task
Reading restart file ...
  restart file = 2 Aug 2023, LAMMPS = 2 Aug 2023
  restoring atom style full from restart
  triclinic box = (0 0 0) to (15.3172 13.8463 18.3222) with tilt (-7.7318 0.2463 -0.1382)
WARNING: Triclinic box skew is large. LAMMPS will run inefficiently. (src/domain.cpp:220)
  2 by 2 by 2 MPI processor grid
  pair style reaxff stores no restart info
  365 atoms
Finding 1-2 1-3 1-4 neighbors ...
  special bond factors lj:    0        0        0       
  special bond factors coul:  0        0        0       
     0 = max # of 1-2 neighbors
     0 = max # of 1-3 neighbors
     0 = max # of 1-4 neighbors
     1 = max # of special neighbors
  special bonds CPU = 0.000 seconds
  read_restart CPU = 0.003 seconds
*****debug*****
xy = -7.731799999999999784, deltaxy = 0.077318
xz = 0.24629999999999999116, deltaxz = -0.002463
yz = -0.13819999999999998952, deltayz = 0.001382
*****
*****Negative-deform 3 starts.*****
WARNING: Van der Waals parameters for element SI indicate inner wall+shielding, but earlier atoms indicate a different van der Waals method. This may cause division-by-zero errors. Keeping van der Waals setting for earlier atoms. (src/REAXFF/reaxff_ffield.cpp:251)
Neighbor list info ...
  update: every = 10 steps, delay = 0 steps, check = yes
  max neighbors/atom: 2000, page size: 100000
  master list distance cutoff = 12
  ghost atom cutoff = 12
  binsize = 6, bins = 4 3 4
  2 neighbor lists, perpetual/occasional/extra = 2 0 0
  (1) pair reaxff, perpetual
      attributes: half, newton off, ghost
      pair build: half/bin/newtoff/ghost
      stencil: full/ghost/bin/3d
      bin: standard
  (2) fix qeq/reaxff, perpetual, copy from (1)
      attributes: half, newton off
      pair build: copy
      stencil: none
      bin: none
Setting up Verlet run ...
  Unit style    : real
  Current step  : 0
  Time step     : 0.5
Per MPI rank memory allocation (min/avg/max) = 131.1 | 132 | 132.9 Mbytes
   Step          Temp          PotEng         Press          Volume    
         0   313.73092     -37799.655     -3711.9058      3885.8921    
       100   297.00767     -37794.344      3069.3995      3885.1149    
       200   284.94242     -37810.278      1829.731       3884.3378    
       300   276.38429     -37805.545     -6117.2749      3883.5606    
       400   304.40277     -37819.275     -3203.7368      3882.7834    
       500   307.75452     -37819.515      9530.295       3882.0062    
       600   319.10197     -37826.908      6582.3552      3881.229     
       700   319.18904     -37820.819      8049.9934      3880.4519    
       800   309.24616     -37816.168     -10682.699      3879.6747    
       900   278.41535     -37810.515     -8116.7818      3878.8975    
      1000   282.30422     -37814.643      6477.6659      3878.1203    
      1100   299.203       -37804.423      3751.2205      3877.3432    
      1200   312.44635     -37805.521      6155.7625      3876.566     
      1300   315.92261     -37817.223      605.38767      3875.7888    
      1400   295.33094     -37811.784      14933.372      3875.0116    
      1500   281.12936     -37808.984     -3326.4494      3874.2344    
      1600   307.28408     -37821.426      1221.0726      3873.4573    
      1700   322.98358     -37803.663      10736.913      3872.6801    
      1800   311.37514     -37802.487      918.22452      3871.9029    
      1900   300.2017      -37805.178      14466.534      3871.1257    
      2000   307.58353     -37821.53      -2181.8268      3870.3486    
      2100   290.35629     -37807.604      5754.0997      3869.5714    
      2200   298.43003     -37811.678      1475.3608      3868.7942    
      2300   300.15689     -37812.456      320.94342      3868.017     
      2400   298.76877     -37811.896      1646.5661      3867.2398    
      2500   281.16437     -37789.415      19134.179      3866.4627    
      2600   322.8615      -37823.457      16580.376      3865.6855    
      2700   312.75277     -37819.244      13448.741      3864.9083    
      2800   301.4991      -37823.888      3469.8468      3864.1311    
      2900   275.20199     -37811.817      6247.4445      3863.3539    
      3000   285.54913     -37808.006     -1018.9724      3862.5768    
      3100   317.36508     -37810.115      5825.2946      3861.7996    
      3200   316.48136     -37807.305      11340.289      3861.0224    
      3300   289.4466      -37792.486      9095.7103      3860.2452    
      3400   291.51089     -37803.341     -2722.4604      3859.4681    
      3500   305.98745     -37822.982     -4105.4556      3858.6909    
      3600   297.99441     -37816.753     -2414.1463      3857.9137    
      3700   277.64791     -37796.423      2790.8547      3857.1365    
      3800   304.54833     -37814.443      3662.2591      3856.3593    
      3900   318.87243     -37805.065      10577.763      3855.5822    
      4000   309.54671     -37781.136      2421.4223      3854.805     
      4100   315.44893     -37814.897     -5560.624       3854.0278    
      4200   289.71775     -37813.208     -8021.0644      3853.2506    
      4300   302.3826      -37818.421     -1720.5846      3852.4734    
      4400   312.39966     -37824.082      3762.0527      3851.6963    
      4500   307.38037     -37797.541      1571.7943      3850.9191    
      4600   325.44772     -37797.077      5545.6368      3850.1419    
      4700   297.13727     -37798.804      9782.5679      3849.3647    
      4800   282.34235     -37803.73       6412.4898      3848.5876    
      4900   282.79011     -37799.978      1334.8998      3847.8104    
      5000   316.68782     -37819.413      10909.246      3847.0332    
Loop time of 213.379 on 16 procs for 5000 steps with 365 atoms

Performance: 1.012 ns/day, 23.709 hours/ns, 23.432 timesteps/s, 8.553 katom-step/s
99.0% CPU use with 8 MPI tasks x 2 OpenMP threads

MPI task timing breakdown:
Section |  min time  |  avg time  |  max time  |%varavg| %total
---------------------------------------------------------------
Pair    | 129.29     | 168.3      | 189.1      | 180.3 | 78.87
Bond    | 0.012735   | 0.013821   | 0.014684   |   0.6 |  0.01
Neigh   | 1.7523     | 2.3246     | 2.6838     |  21.6 |  1.09
Comm    | 2.8147     | 23.559     | 62.52      | 481.6 | 11.04
Output  | 0.017357   | 0.043715   | 0.097725   |  13.6 |  0.02
Modify  | 18.591     | 19.007     | 19.639     |   8.5 |  8.91
Other   |            | 0.131      |            |       |  0.06

Nlocal:         45.625 ave          51 max          38 min
Histogram: 1 0 0 1 1 1 2 0 0 2
Nghost:        3389.25 ave        3414 max        3360 min
Histogram: 1 0 1 0 1 2 1 0 1 1
Neighs:        30223.6 ave       33714 max       25598 min
Histogram: 1 0 0 1 1 1 2 0 0 2

Total # of neighbors = 241789
Ave neighs/atom = 662.43562
Ave special neighs/atom = 0
Neighbor list builds = 82
Dangerous builds = 0
  using 2 OpenMP thread(s) per MPI task
Reading restart file ...
  restart file = 2 Aug 2023, LAMMPS = 2 Aug 2023
  restoring atom style full from restart
  triclinic box = (0 0 0) to (15.3172 13.8463 18.3222) with tilt (-7.7318 0.2463 -0.1382)
WARNING: Triclinic box skew is large. LAMMPS will run inefficiently. (src/domain.cpp:220)
  2 by 2 by 2 MPI processor grid
  pair style reaxff stores no restart info
  365 atoms
Finding 1-2 1-3 1-4 neighbors ...
  special bond factors lj:    0        0        0       
  special bond factors coul:  0        0        0       
     0 = max # of 1-2 neighbors
     0 = max # of 1-3 neighbors
     0 = max # of 1-4 neighbors
     1 = max # of special neighbors
  special bonds CPU = 0.000 seconds
  read_restart CPU = 0.003 seconds
*****Positive-deform 3 starts.*****
WARNING: Van der Waals parameters for element SI indicate inner wall+shielding, but earlier atoms indicate a different van der Waals method. This may cause division-by-zero errors. Keeping van der Waals setting for earlier atoms. (src/REAXFF/reaxff_ffield.cpp:251)
Neighbor list info ...
  update: every = 10 steps, delay = 0 steps, check = yes
  max neighbors/atom: 2000, page size: 100000
  master list distance cutoff = 12
  ghost atom cutoff = 12
  binsize = 6, bins = 4 3 4
  2 neighbor lists, perpetual/occasional/extra = 2 0 0
  (1) pair reaxff, perpetual
      attributes: half, newton off, ghost
      pair build: half/bin/newtoff/ghost
      stencil: full/ghost/bin/3d
      bin: standard
  (2) fix qeq/reaxff, perpetual, copy from (1)
      attributes: half, newton off
      pair build: copy
      stencil: none
      bin: none
Setting up Verlet run ...
  Unit style    : real
  Current step  : 0
  Time step     : 0.5
Per MPI rank memory allocation (min/avg/max) = 131.1 | 132 | 132.9 Mbytes
   Step          Temp          PotEng         Press          Volume    
         0   313.73092     -37799.655     -3711.9058      3885.8921    
       100   297.00256     -37794.361      3064.2705      3886.6693    
       200   284.81795     -37809.703      1162.3288      3887.4465    
       300   276.82541     -37805.22      -6798.9408      3888.2237    
       400   302.33572     -37821.685     -4935.944       3889.0008    
       500   305.94278     -37824.804      8090.2003      3889.778     
       600   317.31867     -37825.127      4244.0064      3890.5552    
       700   322.8812      -37814.037      4205.1745      3891.3324    
       800   318.85522     -37805.301     -10221.983      3892.1095    
       900   289.11797     -37812.87      -12202.692      3892.8867    
      1000   291.41318     -37822.2        6594.0019      3893.6639    
      1100   295.49293     -37810.798     -792.66352      3894.4411    
      1200   312.91        -37808.443      5254.024       3895.2183    
      1300   307.45723     -37802.532      5988.7609      3895.9954    
      1400   298.30185     -37802.234      11088.333      3896.7726    
      1500   301.07262     -37837.059      4193.0716      3897.5498    
      1600   261.64882     -37818.861      10471.46       3898.327     
      1700   286.87757     -37823.085      9491.595       3899.1042    
      1800   293.5795      -37802.847     -9932.2011      3899.8813    
      1900   303.83874     -37803.427      10761.942      3900.6585    
      2000   327.38767     -37835.018     -2558.2546      3901.4357    
      2100   289.56034     -37822.004     -9224.2473      3902.2129    
      2200   272.08764     -37816.242      4021.0549      3902.99      
      2300   298.99936     -37816.901      9802.2847      3903.7672    
      2400   301.61706     -37794.212      5158.5071      3904.5444    
      2500   311.95025     -37809.402      13660.325      3905.3216    
      2600   305.62443     -37822.635      9145.8359      3906.0988    
      2700   306.53021     -37832.758      11507.815      3906.8759    
      2800   288.91746     -37808.424      2552.1497      3907.6531    
      2900   309.62759     -37793.709      3246.1236      3908.4303    
      3000   322.23704     -37805.137      4845.5074      3909.2075    
      3100   297.91265     -37801          626.99511      3909.9847    
      3200   296.79229     -37812.583      2367.0604      3910.7618    
      3300   300.16553     -37815.212      3123.6419      3911.539     
      3400   301.27316     -37814.845     -5750.6073      3912.3162    
      3500   278.1849      -37793.703     -2275.3621      3913.0934    
      3600   300.43311     -37815.059     -5230.0921      3913.8705    
      3700   302.84344     -37813.533     -13573.087      3914.6477    
      3800   316.48578     -37803.976     -6407.6131      3915.4249    
      3900   328.19484     -37795.591     -5239.3024      3916.2021    
      4000   319.65531     -37814.116     -2203.932       3916.9793    
      4100   295.51546     -37812.175     -7331.4979      3917.7564    
      4200   289.78442     -37808.129     -4595.5862      3918.5336    
      4300   295.72452     -37802.929     -11872.524      3919.3108    
      4400   303.83039     -37792.554     -5147.328       3920.088     
      4500   324.75583     -37797.038     -3990.8761      3920.8651    
      4600   319.12012     -37805.614      4699.7305      3921.6423    
      4700   279.20902     -37803.829     -6971.0047      3922.4195    
      4800   289.4972      -37811.911     -14722.059      3923.1967    
      4900   286.26864     -37792.155     -952.32282      3923.9739    
      5000   327.9448      -37820.327      4592.739       3924.751     
Loop time of 211.516 on 16 procs for 5000 steps with 365 atoms

Performance: 1.021 ns/day, 23.502 hours/ns, 23.639 timesteps/s, 8.628 katom-step/s
99.0% CPU use with 8 MPI tasks x 2 OpenMP threads

MPI task timing breakdown:
Section |  min time  |  avg time  |  max time  |%varavg| %total
---------------------------------------------------------------
Pair    | 127.47     | 170.11     | 187.43     | 183.8 | 80.43
Bond    | 0.012039   | 0.013737   | 0.014925   |   0.8 |  0.01
Neigh   | 1.5455     | 2.057      | 2.3264     |  20.0 |  0.97
Comm    | 2.8504     | 20.176     | 62.782     | 533.5 |  9.54
Output  | 0.017801   | 0.044877   | 0.10027    |  13.8 |  0.02
Modify  | 18.66      | 18.979     | 19.528     |   7.2 |  8.97
Other   |            | 0.1315     |            |       |  0.06

Nlocal:         45.625 ave          51 max          38 min
Histogram: 1 0 0 1 1 1 1 1 0 2
Nghost:        3323.12 ave        3341 max        3298 min
Histogram: 1 0 1 1 0 1 0 1 1 2
Neighs:        29614.4 ave       33150 max       25119 min
Histogram: 1 0 0 1 1 2 0 1 1 1

Total # of neighbors = 236915
Ave neighs/atom = 649.08219
Ave special neighs/atom = 0
Neighbor list builds = 72
Dangerous builds = 0
  using 2 OpenMP thread(s) per MPI task
Reading restart file ...
  restart file = 2 Aug 2023, LAMMPS = 2 Aug 2023
  restoring atom style full from restart
  triclinic box = (0 0 0) to (15.3172 13.8463 18.3222) with tilt (-7.7318 0.2463 -0.1382)
WARNING: Triclinic box skew is large. LAMMPS will run inefficiently. (src/domain.cpp:220)
  2 by 2 by 2 MPI processor grid
  pair style reaxff stores no restart info
  365 atoms
Finding 1-2 1-3 1-4 neighbors ...
  special bond factors lj:    0        0        0       
  special bond factors coul:  0        0        0       
     0 = max # of 1-2 neighbors
     0 = max # of 1-3 neighbors
     0 = max # of 1-4 neighbors
     1 = max # of special neighbors
  special bonds CPU = 0.000 seconds
  read_restart CPU = 0.003 seconds
*****debug*****
xy = -7.731799999999999784, deltaxy = 0.077318
xz = 0.24629999999999999116, deltaxz = -0.002463
yz = -0.13819999999999998952, deltayz = 0.001382
*****
*****Negative-deform 4 starts.*****
WARNING: Van der Waals parameters for element SI indicate inner wall+shielding, but earlier atoms indicate a different van der Waals method. This may cause division-by-zero errors. Keeping van der Waals setting for earlier atoms. (src/REAXFF/reaxff_ffield.cpp:251)
Neighbor list info ...
  update: every = 10 steps, delay = 0 steps, check = yes
  max neighbors/atom: 2000, page size: 100000
  master list distance cutoff = 12
  ghost atom cutoff = 12
  binsize = 6, bins = 4 3 4
  2 neighbor lists, perpetual/occasional/extra = 2 0 0
  (1) pair reaxff, perpetual
      attributes: half, newton off, ghost
      pair build: half/bin/newtoff/ghost
      stencil: full/ghost/bin/3d
      bin: standard
  (2) fix qeq/reaxff, perpetual, copy from (1)
      attributes: half, newton off
      pair build: copy
      stencil: none
      bin: none
Setting up Verlet run ...
  Unit style    : real
  Current step  : 0
  Time step     : 0.5
Per MPI rank memory allocation (min/avg/max) = 131.1 | 132 | 132.9 Mbytes
   Step          Temp          PotEng         Press          Volume    
         0   313.73092     -37799.655     -3711.9058      3885.8921    
       100   297.00032     -37794.348      3071.2113      3885.8921    
       200   284.9839      -37809.973      1488.3101      3885.8921    
       300   276.49729     -37805.22      -6503.4115      3885.8921    
       400   303.11886     -37821.255     -4028.5371      3885.8921    
       500   306.56034     -37823.853      8990.8777      3885.8921    
       600   318.15372     -37826.256      4553.7548      3885.8921    
       700   324.71159     -37818.247      5188.9331      3885.8921    
       800   316.62783     -37808.661     -12747.541      3885.8921    
       900   282.66294     -37809.007     -12024.332      3885.8921    
      1000   290.02821     -37821.198      9881.4526      3885.8921    
      1100   293.15831     -37809.083      4268.2887      3885.8921    
      1200   319.99119     -37816.92       6721.8084      3885.8921    
      1300   306.50702     -37806.666      6836.723       3885.8921    
      1400   303.59563     -37807.749      10771.275      3885.8921    
      1500   303.01215     -37816.331      799.25294      3885.8921    
      1600   291.58672     -37800.303      10895.521      3885.8921    
      1700   309.06408     -37812.599      20346.217      3885.8921    
      1800   302.73638     -37796.484     -5389.8008      3885.8921    
      1900   305.41722     -37808.853      9979.8215      3885.8921    
      2000   303.07281     -37826.851     -2386.5635      3885.8921    
      2100   287.6526      -37822.905     -1188.0726      3885.8921    
      2200   294.19615     -37813.93      -1019.8928      3885.8921    
      2300   308.26392     -37795.331      8559.8098      3885.8921    
      2400   318.98686     -37809.177      773.54583      3885.8921    
      2500   293.06604     -37802.695     -2124.9498      3885.8921    
      2600   294.44621     -37812.197     -7186.5716      3885.8921    
      2700   284.48749     -37797.13      -50.827339      3885.8921    
      2800   309.8822      -37816.292     -3452.3838      3885.8921    
      2900   330.86358     -37832.947      4516.4898      3885.8921    
      3000   319.77864     -37830.238      12197.24       3885.8921    
      3100   292.51126     -37804.339     -1765.8478      3885.8921    
      3200   310.64611     -37823.37       6751.5816      3885.8921    
      3300   294.28758     -37801.139      328.20103      3885.8921    
      3400   288.02302     -37790.874      582.99565      3885.8921    
      3500   329.53859     -37812.685      4132.8674      3885.8921    
      3600   326.5201      -37809.355     -1411.1253      3885.8921    
      3700   305.55586     -37820.522     -4441.0981      3885.8921    
      3800   282.38089     -37802.891      5378.0772      3885.8921    
      3900   290.14115     -37796.737      8492.9064      3885.8921    
      4000   295.9417      -37789.189     -8047.6462      3885.8921    
      4100   304.77622     -37798.112      2952.7253      3885.8921    
      4200   312.6403      -37824.877      7725.6266      3885.8921    
      4300   302.66555     -37829.492     -3430.2296      3885.8921    
      4400   287.94165     -37813.021     -4962.2449      3885.8921    
      4500   285.87157     -37787.33       1927.4331      3885.8921    
      4600   317.2312      -37799.51      -5853.7555      3885.8921    
      4700   290.38759     -37781.868      1596.499       3885.8921    
      4800   299.27417     -37812.772      12387.048      3885.8921    
      4900   289.43981     -37806.564      1326.8709      3885.8921    
      5000   284.56414     -37801.555      7579.3116      3885.8921    
Loop time of 213.969 on 16 procs for 5000 steps with 365 atoms

Performance: 1.009 ns/day, 23.774 hours/ns, 23.368 timesteps/s, 8.529 katom-step/s
99.0% CPU use with 8 MPI tasks x 2 OpenMP threads

MPI task timing breakdown:
Section |  min time  |  avg time  |  max time  |%varavg| %total
---------------------------------------------------------------
Pair    | 128.54     | 172.65     | 190.59     | 188.2 | 80.69
Bond    | 0.01223    | 0.013675   | 0.014906   |   0.7 |  0.01
Neigh   | 1.5262     | 2.0903     | 2.3688     |  21.8 |  0.98
Comm    | 1.8653     | 19.846     | 63.965     | 555.1 |  9.28
Output  | 0.017445   | 0.0423     | 0.094078   |  13.1 |  0.02
Modify  | 18.888     | 19.189     | 19.761     |   7.7 |  8.97
Other   |            | 0.1374     |            |       |  0.06

Nlocal:         45.625 ave          51 max          36 min
Histogram: 1 0 0 0 3 0 0 0 1 3
Nghost:        3345.88 ave        3386 max        3306 min
Histogram: 2 0 0 0 1 2 1 1 0 1
Neighs:        29913.9 ave       33246 max       24072 min
Histogram: 1 0 0 0 3 0 0 0 1 3

Total # of neighbors = 239311
Ave neighs/atom = 655.64658
Ave special neighs/atom = 0
Neighbor list builds = 71
Dangerous builds = 0
  using 2 OpenMP thread(s) per MPI task
Reading restart file ...
  restart file = 2 Aug 2023, LAMMPS = 2 Aug 2023
  restoring atom style full from restart
  triclinic box = (0 0 0) to (15.3172 13.8463 18.3222) with tilt (-7.7318 0.2463 -0.1382)
WARNING: Triclinic box skew is large. LAMMPS will run inefficiently. (src/domain.cpp:220)
  2 by 2 by 2 MPI processor grid
  pair style reaxff stores no restart info
  365 atoms
Finding 1-2 1-3 1-4 neighbors ...
  special bond factors lj:    0        0        0       
  special bond factors coul:  0        0        0       
     0 = max # of 1-2 neighbors
     0 = max # of 1-3 neighbors
     0 = max # of 1-4 neighbors
     1 = max # of special neighbors
  special bonds CPU = 0.000 seconds
  read_restart CPU = 0.003 seconds
*****Positive-deform 4 starts.*****
WARNING: Van der Waals parameters for element SI indicate inner wall+shielding, but earlier atoms indicate a different van der Waals method. This may cause division-by-zero errors. Keeping van der Waals setting for earlier atoms. (src/REAXFF/reaxff_ffield.cpp:251)
Neighbor list info ...
  update: every = 10 steps, delay = 0 steps, check = yes
  max neighbors/atom: 2000, page size: 100000
  master list distance cutoff = 12
  ghost atom cutoff = 12
  binsize = 6, bins = 4 3 4
  2 neighbor lists, perpetual/occasional/extra = 2 0 0
  (1) pair reaxff, perpetual
      attributes: half, newton off, ghost
      pair build: half/bin/newtoff/ghost
      stencil: full/ghost/bin/3d
      bin: standard
  (2) fix qeq/reaxff, perpetual, copy from (1)
      attributes: half, newton off
      pair build: copy
      stencil: none
      bin: none
Setting up Verlet run ...
  Unit style    : real
  Current step  : 0
  Time step     : 0.5
Per MPI rank memory allocation (min/avg/max) = 131.1 | 132.1 | 132.9 Mbytes
   Step          Temp          PotEng         Press          Volume    
         0   313.73092     -37799.655     -3711.9058      3885.8921    
       100   297.00981     -37794.357      3062.4409      3885.8921    
       200   284.72505     -37810.052      1481.0641      3885.8921    
       300   276.66331     -37805.645     -6441.218       3885.8921    
       400   303.55217     -37819.71      -4033.4609      3885.8921    
       500   307.14693     -37822.104      8773.9682      3885.8921    
       600   318.56933     -37826.592      4781.7466      3885.8921    
       700   322.3724      -37819.244      4605.2782      3885.8921    
       800   314.51828     -37811.215     -13310.977      3885.8921    
       900   284.99697     -37812.424     -12401.875      3885.8921    
      1000   286.02177     -37817.698      8380.9598      3885.8921    
      1100   300.29103     -37817.575      4990.8377      3885.8921    
      1200   312.40419     -37817.063      5812.5578      3885.8921    
      1300   306.79477     -37810.62       4472.3094      3885.8921    
      1400   306.89665     -37814.045      10516.99       3885.8921    
      1500   297.44247     -37808.346     -2734.4522      3885.8921    
      1600   280.36145     -37789.81       9910.9604      3885.8921    
      1700   304.7662      -37819.736      16534.023      3885.8921    
      1800   300.3974      -37820.382     -11088.238      3885.8921    
      1900   300.52073     -37814.379      1727.4591      3885.8921    
      2000   325.14558     -37833.917      908.67968      3885.8921    
      2100   282.91745     -37783.218      160.35692      3885.8921    
      2200   291.65086     -37774.245      4209.6469      3885.8921    
      2300   319.84105     -37794.517      7121.8435      3885.8921    
      2400   318.56947     -37821.354      5141.0379      3885.8921    
      2500   307.6991      -37832.001      2155.8083      3885.8921    
      2600   277.79092     -37797.577     -1742.884       3885.8921    
      2700   290.11671     -37793.599     -4176.029       3885.8921    
      2800   297.47726     -37770.867     -1827.2463      3885.8921    
      2900   288.47024     -37758.59       5243.2459      3885.8921    
      3000   302.04154     -37790.71       202.82058      3885.8921    
      3100   318.68207     -37825.4        3090.8501      3885.8921    
      3200   296.76061     -37819.405      894.72255      3885.8921    
      3300   302.96362     -37838.318     -7266.0919      3885.8921    
      3400   316.73671     -37837.579     -12023.33       3885.8921    
      3500   284.52844     -37767.5       -6683.3699      3885.8921    
      3600   288.83526     -37772.686     -3913.4435      3885.8921    
      3700   304.95111     -37807.023     -1475.189       3885.8921    
      3800   286.37929     -37817.472      2734.669       3885.8921    
      3900   301.67147     -37837.558     -2446.9513      3885.8921    
      4000   310.50374     -37834.208      9876.4254      3885.8921    
      4100   308.14945     -37812.735     -481.09899      3885.8921    
      4200   300.81408     -37792.38      -1988.1624      3885.8921    
      4300   283.75952     -37779.286      3669.5291      3885.8921    
      4400   271.68333     -37813.743      669.42164      3885.8921    
      4500   289.53582     -37834.615     -2866.1108      3885.8921    
      4600   296.31279     -37816.784      11616.962      3885.8921    
      4700   309.35913     -37812.664      4709.6478      3885.8921    
      4800   319.99947     -37818.905     -9805.6598      3885.8921    
      4900   309.88589     -37819.734     -1623.9138      3885.8921    
      5000   282.68359     -37826.639      4016.1521      3885.8921    
Loop time of 215.311 on 16 procs for 5000 steps with 365 atoms

Performance: 1.003 ns/day, 23.923 hours/ns, 23.222 timesteps/s, 8.476 katom-step/s
98.9% CPU use with 8 MPI tasks x 2 OpenMP threads

MPI task timing breakdown:
Section |  min time  |  avg time  |  max time  |%varavg| %total
---------------------------------------------------------------
Pair    | 127.08     | 171.97     | 192.62     | 189.9 | 79.87
Bond    | 0.012718   | 0.013815   | 0.015108   |   0.8 |  0.01
Neigh   | 1.5423     | 2.0976     | 2.3532     |  21.1 |  0.97
Comm    | 1.4326     | 22.072     | 66.988     | 530.0 | 10.25
Output  | 0.017359   | 0.042863   | 0.095944   |  13.3 |  0.02
Modify  | 18.637     | 18.921     | 19.482     |   7.6 |  8.79
Other   |            | 0.1896     |            |       |  0.09

Nlocal:         45.625 ave          53 max          36 min
Histogram: 1 0 0 1 2 0 1 1 1 1
Nghost:        3329.62 ave        3359 max        3291 min
Histogram: 1 1 0 2 0 0 0 0 1 3
Neighs:          29900 ave       34464 max       24012 min
Histogram: 1 0 0 1 2 0 1 1 1 1

Total # of neighbors = 239200
Ave neighs/atom = 655.34247
Ave special neighs/atom = 0
Neighbor list builds = 72
Dangerous builds = 0
  using 2 OpenMP thread(s) per MPI task
Reading restart file ...
  restart file = 2 Aug 2023, LAMMPS = 2 Aug 2023
  restoring atom style full from restart
  triclinic box = (0 0 0) to (15.3172 13.8463 18.3222) with tilt (-7.7318 0.2463 -0.1382)
WARNING: Triclinic box skew is large. LAMMPS will run inefficiently. (src/domain.cpp:220)
  2 by 2 by 2 MPI processor grid
  pair style reaxff stores no restart info
  365 atoms
Finding 1-2 1-3 1-4 neighbors ...
  special bond factors lj:    0        0        0       
  special bond factors coul:  0        0        0       
     0 = max # of 1-2 neighbors
     0 = max # of 1-3 neighbors
     0 = max # of 1-4 neighbors
     1 = max # of special neighbors
  special bonds CPU = 0.000 seconds
  read_restart CPU = 0.003 seconds
*****debug*****
xy = -7.731799999999999784, deltaxy = 0.077318
xz = 0.24629999999999999116, deltaxz = -0.002463
yz = -0.13819999999999998952, deltayz = 0.001382
*****
*****Negative-deform 5 starts.*****
WARNING: Van der Waals parameters for element SI indicate inner wall+shielding, but earlier atoms indicate a different van der Waals method. This may cause division-by-zero errors. Keeping van der Waals setting for earlier atoms. (src/REAXFF/reaxff_ffield.cpp:251)
Neighbor list info ...
  update: every = 10 steps, delay = 0 steps, check = yes
  max neighbors/atom: 2000, page size: 100000
  master list distance cutoff = 12
  ghost atom cutoff = 12
  binsize = 6, bins = 4 3 4
  2 neighbor lists, perpetual/occasional/extra = 2 0 0
  (1) pair reaxff, perpetual
      attributes: half, newton off, ghost
      pair build: half/bin/newtoff/ghost
      stencil: full/ghost/bin/3d
      bin: standard
  (2) fix qeq/reaxff, perpetual, copy from (1)
      attributes: half, newton off
      pair build: copy
      stencil: none
      bin: none
Setting up Verlet run ...
  Unit style    : real
  Current step  : 0
  Time step     : 0.5
Per MPI rank memory allocation (min/avg/max) = 131.1 | 132 | 132.9 Mbytes
   Step          Temp          PotEng         Press          Volume    
         0   313.73092     -37799.655     -3711.9058      3885.8921    
       100   297.0013      -37794.349      3065.6628      3885.8921    
       200   284.78846     -37810.006      1485.7533      3885.8921    
       300   276.60782     -37805.432     -6527.5976      3885.8921    
       400   304.00236     -37820.156     -4340.906       3885.8921    
       500   306.99525     -37821.443      8730.2454      3885.8921    
       600   318.31023     -37826.363      5050.9867      3885.8921    
       700   323.10317     -37820.108      4689.6285      3885.8921    
       800   315.7983      -37811.907     -12707.454      3885.8921    
       900   282.13061     -37807.962     -10739.645      3885.8921    
      1000   287.8677      -37820.124      9491.5203      3885.8921    
      1100   290.21192     -37808.29       4332.1141      3885.8921    
      1200   308.8467      -37811.364      6316.6041      3885.8921    
      1300   306.70046     -37807.651      5410.0431      3885.8921    
      1400   305.8633      -37810.17       13668.966      3885.8921    
      1500   297.06897     -37812.856      7655.4972      3885.8921    
      1600   289.4969      -37810.092      14273.97       3885.8921    
      1700   283.72558     -37814.417      5133.1872      3885.8921    
      1800   293.6278      -37824.609     -1505.9286      3885.8921    
      1900   291.7384      -37799.376      6129.4153      3885.8921    
      2000   326.46062     -37819.861     -13403.777      3885.8921    
      2100   292.68184     -37787.749     -10811.287      3885.8921    
      2200   299.4143      -37816.98      -6459.0117      3885.8921    
      2300   289.93938     -37832.664      10618.62       3885.8921    
      2400   303.7209      -37835.821      14747.969      3885.8921    
      2500   289.39876     -37794.892      8460.5621      3885.8921    
      2600   310.84865     -37806.157      585.01445      3885.8921    
      2700   285.29738     -37786.048      14550.773      3885.8921    
      2800   313.94278     -37822.324      9283.0535      3885.8921    
      2900   288.43155     -37795.217      20747.9        3885.8921    
      3000   295.86335     -37786.212      16027.992      3885.8921    
      3100   313.42021     -37779.127      5154.2331      3885.8921    
      3200   310.13627     -37792.258      15210.658      3885.8921    
      3300   308.46875     -37816.95      -5273.664       3885.8921    
      3400   308.9565      -37829.141     -5499.9292      3885.8921    
      3500   285.68621     -37805.418     -3301.9547      3885.8921    
      3600   293.44482     -37797.431     -3154.5266      3885.8921    
      3700   306.53787     -37772.961      2056.5899      3885.8921    
      3800   302.07951     -37778.373     -116.22546      3885.8921    
      3900   296.88594     -37792.421     -2457.14        3885.8921    
      4000   297.66077     -37804.843     -2648.8205      3885.8921    
      4100   303.61888     -37809.061      1641.1053      3885.8921    
      4200   315.09588     -37818.198      12955.674      3885.8921    
      4300   303.79412     -37800.041      8785.3004      3885.8921    
      4400   303.50651     -37781.072      24091.143      3885.8921    
      4500   297.66198     -37775.99       1775.2611      3885.8921    
      4600   287.36753     -37789.759      7486.8378      3885.8921    
      4700   297.26776     -37817.844      13671.002      3885.8921    
      4800   290.31386     -37812.035      7147.8691      3885.8921    
      4900   308.66136     -37813.471      2114.5588      3885.8921    
      5000   337.8776      -37804.435     -12051.351      3885.8921    
Loop time of 214.033 on 16 procs for 5000 steps with 365 atoms

Performance: 1.009 ns/day, 23.781 hours/ns, 23.361 timesteps/s, 8.527 katom-step/s
99.0% CPU use with 8 MPI tasks x 2 OpenMP threads

MPI task timing breakdown:
Section |  min time  |  avg time  |  max time  |%varavg| %total
---------------------------------------------------------------
Pair    | 128.33     | 172.64     | 190.85     | 189.1 | 80.66
Bond    | 0.012149   | 0.013533   | 0.015039   |   0.7 |  0.01
Neigh   | 1.5593     | 2.1086     | 2.3635     |  21.2 |  0.99
Comm    | 1.9024     | 20.15      | 64.465     | 553.5 |  9.41
Output  | 0.017482   | 0.042687   | 0.094816   |  13.2 |  0.02
Modify  | 18.656     | 18.942     | 19.507     |   7.6 |  8.85
Other   |            | 0.1376     |            |       |  0.06

Nlocal:         45.625 ave          48 max          39 min
Histogram: 1 0 0 0 1 0 0 2 1 3
Nghost:        3355.38 ave        3379 max        3331 min
Histogram: 2 0 1 0 2 0 0 0 1 2
Neighs:        29916.4 ave       31624 max       26044 min
Histogram: 1 0 0 1 0 0 0 2 1 3

Total # of neighbors = 239331
Ave neighs/atom = 655.70137
Ave special neighs/atom = 0
Neighbor list builds = 72
Dangerous builds = 0
  using 2 OpenMP thread(s) per MPI task
Reading restart file ...
  restart file = 2 Aug 2023, LAMMPS = 2 Aug 2023
  restoring atom style full from restart
  triclinic box = (0 0 0) to (15.3172 13.8463 18.3222) with tilt (-7.7318 0.2463 -0.1382)
WARNING: Triclinic box skew is large. LAMMPS will run inefficiently. (src/domain.cpp:220)
  2 by 2 by 2 MPI processor grid
  pair style reaxff stores no restart info
  365 atoms
Finding 1-2 1-3 1-4 neighbors ...
  special bond factors lj:    0        0        0       
  special bond factors coul:  0        0        0       
     0 = max # of 1-2 neighbors
     0 = max # of 1-3 neighbors
     0 = max # of 1-4 neighbors
     1 = max # of special neighbors
  special bonds CPU = 0.000 seconds
  read_restart CPU = 0.003 seconds
*****Positive-deform 5 starts.*****
WARNING: Van der Waals parameters for element SI indicate inner wall+shielding, but earlier atoms indicate a different van der Waals method. This may cause division-by-zero errors. Keeping van der Waals setting for earlier atoms. (src/REAXFF/reaxff_ffield.cpp:251)
Neighbor list info ...
  update: every = 10 steps, delay = 0 steps, check = yes
  max neighbors/atom: 2000, page size: 100000
  master list distance cutoff = 12
  ghost atom cutoff = 12
  binsize = 6, bins = 4 3 4
  2 neighbor lists, perpetual/occasional/extra = 2 0 0
  (1) pair reaxff, perpetual
      attributes: half, newton off, ghost
      pair build: half/bin/newtoff/ghost
      stencil: full/ghost/bin/3d
      bin: standard
  (2) fix qeq/reaxff, perpetual, copy from (1)
      attributes: half, newton off
      pair build: copy
      stencil: none
      bin: none
Setting up Verlet run ...
  Unit style    : real
  Current step  : 0
  Time step     : 0.5
Per MPI rank memory allocation (min/avg/max) = 131.1 | 132.1 | 132.9 Mbytes
   Step          Temp          PotEng         Press          Volume    
         0   313.73092     -37799.655     -3711.9058      3885.8921    
       100   297.00884     -37794.356      3068.1483      3885.8921    
       200   284.94126     -37810.029      1496.5735      3885.8921    
       300   276.51949     -37805.421     -6416.116       3885.8921    
       400   302.64438     -37820.59      -3760.2367      3885.8921    
       500   306.6518      -37824.163      8997.1781      3885.8921    
       600   318.26852     -37826.67       4671.6119      3885.8921    
       700   322.31984     -37815.878      5640.5163      3885.8921    
       800   321.61682     -37812.112     -12021.369      3885.8921    
       900   283.50337     -37809.138     -12212.809      3885.8921    
      1000   291.3699      -37822.117      8914.3114      3885.8921    
      1100   291.92516     -37808.366      2820.2851      3885.8921    
      1200   319.79691     -37817.01       6637.9122      3885.8921    
      1300   308.9266      -37805.468      4286.135       3885.8921    
      1400   292.05415     -37819.172      14622.985      3885.8921    
      1500   283.07359     -37834.964     -756.95409      3885.8921    
      1600   289.40694     -37819.83       12088.238      3885.8921    
      1700   295.18858     -37803.607      10562.227      3885.8921    
      1800   303.95579     -37805.586     -11871.476      3885.8921    
      1900   312.02838     -37816.064      7723.4778      3885.8921    
      2000   305.862       -37840.67       3727.922       3885.8921    
      2100   272.6229      -37820.823     -4358.6987      3885.8921    
      2200   286.35595     -37811.722     -1755.0787      3885.8921    
      2300   279.89705     -37787.724      6197.2309      3885.8921    
      2400   305.99437     -37807.5        1280.4938      3885.8921    
      2500   288.92363     -37790.927      14336.378      3885.8921    
      2600   305.57642     -37811.967     -748.67968      3885.8921    
      2700   303.83501     -37824.536      19083.36       3885.8921    
      2800   291.07799     -37824.579      5559.4424      3885.8921    
      2900   274.88868     -37800.355      10228.366      3885.8921    
      3000   318.0892      -37817.458      14102.392      3885.8921    
      3100   303.62142     -37787.287      8452.3546      3885.8921    
      3200   324.89331     -37818.449      6440.9256      3885.8921    
      3300   311.62041     -37825.533      4169.0142      3885.8921    
      3400   318.01877     -37837.339     -4549.5715      3885.8921    
      3500   289.54294     -37813.141     -759.33945      3885.8921    
      3600   280.21497     -37797.409     -1734.9431      3885.8921    
      3700   309.16697     -37797.416      8459.4398      3885.8921    
      3800   315.24896     -37792.536     -1944.2843      3885.8921    
      3900   277.56659     -37776.156     -10454.39       3885.8921    
      4000   315.50076     -37828.77      -17662.238      3885.8921    
      4100   293.60526     -37813.986      277.2476       3885.8921    
      4200   300.06547     -37817.978      10292.281      3885.8921    
      4300   324.22974     -37812.193      9932.8422      3885.8921    
      4400   328.83068     -37806.202      14815.429      3885.8921    
      4500   309.44147     -37806.485      635.18036      3885.8921    
      4600   294.94191     -37797.801      3061.8017      3885.8921    
      4700   288.05364     -37790.501     -9499.3101      3885.8921    
      4800   316.31832     -37829.059     -6217.2792      3885.8921    
      4900   308.36366     -37849.464     -837.08611      3885.8921    
      5000   276.13766     -37821.511     -648.25681      3885.8921    
Loop time of 201.168 on 16 procs for 5000 steps with 365 atoms

Performance: 1.074 ns/day, 22.352 hours/ns, 24.855 timesteps/s, 9.072 katom-step/s
99.0% CPU use with 8 MPI tasks x 2 OpenMP threads

MPI task timing breakdown:
Section |  min time  |  avg time  |  max time  |%varavg| %total
---------------------------------------------------------------
Pair    | 120.21     | 142.91     | 178.13     | 172.4 | 71.04
Bond    | 0.011442   | 0.012412   | 0.013291   |   0.5 |  0.01
Neigh   | 1.57       | 1.8529     | 2.3815     |  22.3 |  0.92
Comm    | 2.2324     | 37.422     | 60.119     | 336.6 | 18.60
Output  | 0.015805   | 0.038173   | 0.084225   |  12.3 |  0.02
Modify  | 18.155     | 18.756     | 19.07      |   8.0 |  9.32
Other   |            | 0.173      |            |       |  0.09

Nlocal:         45.625 ave          50 max          34 min
Histogram: 1 0 0 0 0 0 1 2 2 2
Nghost:         3351.5 ave        3410 max        3288 min
Histogram: 1 0 3 0 0 0 1 0 1 2
Neighs:        29947.1 ave       32656 max       22772 min
Histogram: 1 0 0 0 0 0 0 3 2 2

Total # of neighbors = 239577
Ave neighs/atom = 656.37534
Ave special neighs/atom = 0
Neighbor list builds = 73
Dangerous builds = 0
  using 2 OpenMP thread(s) per MPI task
Reading restart file ...
  restart file = 2 Aug 2023, LAMMPS = 2 Aug 2023
  restoring atom style full from restart
  triclinic box = (0 0 0) to (15.3172 13.8463 18.3222) with tilt (-7.7318 0.2463 -0.1382)
WARNING: Triclinic box skew is large. LAMMPS will run inefficiently. (src/domain.cpp:220)
  2 by 2 by 2 MPI processor grid
  pair style reaxff stores no restart info
  365 atoms
Finding 1-2 1-3 1-4 neighbors ...
  special bond factors lj:    0        0        0       
  special bond factors coul:  0        0        0       
     0 = max # of 1-2 neighbors
     0 = max # of 1-3 neighbors
     0 = max # of 1-4 neighbors
     1 = max # of special neighbors
  special bonds CPU = 0.000 seconds
  read_restart CPU = 0.003 seconds
*****debug*****
xy = -7.731799999999999784, deltaxy = 0.077318
xz = 0.24629999999999999116, deltaxz = -0.002463
yz = -0.13819999999999998952, deltayz = 0.001382
*****
*****Negative-deform 6 starts.*****
WARNING: Van der Waals parameters for element SI indicate inner wall+shielding, but earlier atoms indicate a different van der Waals method. This may cause division-by-zero errors. Keeping van der Waals setting for earlier atoms. (src/REAXFF/reaxff_ffield.cpp:251)
Neighbor list info ...
  update: every = 10 steps, delay = 0 steps, check = yes
  max neighbors/atom: 2000, page size: 100000
  master list distance cutoff = 12
  ghost atom cutoff = 12
  binsize = 6, bins = 4 3 4
  2 neighbor lists, perpetual/occasional/extra = 2 0 0
  (1) pair reaxff, perpetual
      attributes: half, newton off, ghost
      pair build: half/bin/newtoff/ghost
      stencil: full/ghost/bin/3d
      bin: standard
  (2) fix qeq/reaxff, perpetual, copy from (1)
      attributes: half, newton off
      pair build: copy
      stencil: none
      bin: none
Setting up Verlet run ...
  Unit style    : real
  Current step  : 0
  Time step     : 0.5
Per MPI rank memory allocation (min/avg/max) = 131.1 | 132 | 132.9 Mbytes
   Step          Temp          PotEng         Press          Volume    
         0   313.73092     -37799.655     -3711.9058      3885.8921    
       100   297.00113     -37794.352      3067.6308      3885.8921    
       200   284.75826     -37810.056      1410.5779      3885.8921    
       300   276.66071     -37805.544     -6605.0496      3885.8921    
       400   303.85074     -37820.398     -4299.5018      3885.8921    
       500   307.10326     -37822.035      8851.2482      3885.8921    
       600   317.98814     -37826.696      6181.2027      3885.8921    
       700   324.4044      -37821.486      6875.41        3885.8921    
       800   312.55276     -37806.95      -11962.322      3885.8921    
       900   286.93823     -37813.111     -7729.1149      3885.8921    
      1000   290.41331     -37824.952      5815.3459      3885.8921    
      1100   300.75924     -37822.824      6878.1924      3885.8921    
      1200   310.93907     -37816.772      8501.2254      3885.8921    
      1300   286.69191     -37790.638      5446.4952      3885.8921    
      1400   302.47897     -37809.328      15102.476      3885.8921    
      1500   312.2572      -37826.764     -1845.2591      3885.8921    
      1600   303.57234     -37820.069      13076.56       3885.8921    
      1700   278.46488     -37817.577      16365.035      3885.8921    
      1800   280.09366     -37824.002     -1482.5174      3885.8921    
      1900   307.2898      -37824.932      15537.491      3885.8921    
      2000   330.18865     -37832.477      10930.959      3885.8921    
      2100   290.54949     -37794.537      4792.7039      3885.8921    
      2200   307.96661     -37809.855      13326.056      3885.8921    
      2300   325.02276     -37813.309     -1806.9595      3885.8921    
      2400   324.79344     -37798.014      6780.1778      3885.8921    
      2500   295.4009      -37799.077     -9407.3541      3885.8921    
      2600   291.96226     -37816.66      -6210.8108      3885.8921    
      2700   299.4148      -37824.912      9379.9609      3885.8921    
      2800   314.42523     -37825.76       1883.6788      3885.8921    
      2900   330.43553     -37810.623      3102.9408      3885.8921    
      3000   296.58173     -37777.519      15060.137      3885.8921    
      3100   314.75738     -37812.198     -10097.533      3885.8921    
      3200   296.87247     -37805.098     -4260.495       3885.8921    
      3300   310.35256     -37828.034      823.20726      3885.8921    
      3400   304.65466     -37826.5       -1286.0074      3885.8921    
      3500   288.64449     -37813.839      5771.6725      3885.8921    
      3600   295.59109     -37819.797      4637.0221      3885.8921    
      3700   302.51999     -37821.457      2674.6312      3885.8921    
      3800   298.44139     -37798.709      15859.72       3885.8921    
      3900   297.49045     -37778.231     -17657.792      3885.8921    
      4000   313.38587     -37799.166     -6259.7832      3885.8921    
      4100   301.58419     -37827.315      5252.3579      3885.8921    
      4200   297.8866      -37832.603      4166.2356      3885.8921    
      4300   284.00142     -37805.524     -2843.1782      3885.8921    
      4400   289.86185     -37787.707     -336.72785      3885.8921    
      4500   298.07285     -37785.268      2205.1591      3885.8921    
      4600   308.83133     -37808.704     -4374.2985      3885.8921    
      4700   293.36159     -37804.291      10516.13       3885.8921    
      4800   312.44043     -37824.333      6655.0156      3885.8921    
      4900   311.21531     -37813.31      -1742.3805      3885.8921    
      5000   281.43854     -37781.333      9861.6003      3885.8921    
Loop time of 199.112 on 16 procs for 5000 steps with 365 atoms

Performance: 1.085 ns/day, 22.124 hours/ns, 25.112 timesteps/s, 9.166 katom-step/s
99.1% CPU use with 8 MPI tasks x 2 OpenMP threads

MPI task timing breakdown:
Section |  min time  |  avg time  |  max time  |%varavg| %total
---------------------------------------------------------------
Pair    | 119.36     | 135.68     | 176.66     | 198.7 | 68.14
Bond    | 0.010788   | 0.012084   | 0.013155   |   0.6 |  0.01
Neigh   | 1.6859     | 1.9355     | 2.6142     |  27.0 |  0.97
Comm    | 1.4079     | 42.35      | 58.64      | 355.3 | 21.27
Output  | 0.015485   | 0.036468   | 0.07928    |  11.7 |  0.02
Modify  | 18.216     | 18.977     | 19.276     |   9.6 |  9.53
Other   |            | 0.1225     |            |       |  0.06

Nlocal:         45.625 ave          51 max          36 min
Histogram: 1 0 0 0 0 1 3 0 1 2
Nghost:           3385 ave        3404 max        3365 min
Histogram: 1 0 0 2 1 1 0 2 0 1
Neighs:        29936.9 ave       33355 max       24105 min
Histogram: 1 0 0 0 0 3 1 1 0 2

Total # of neighbors = 239495
Ave neighs/atom = 656.15068
Ave special neighs/atom = 0
Neighbor list builds = 80
Dangerous builds = 0
  using 2 OpenMP thread(s) per MPI task
Reading restart file ...
  restart file = 2 Aug 2023, LAMMPS = 2 Aug 2023
  restoring atom style full from restart
  triclinic box = (0 0 0) to (15.3172 13.8463 18.3222) with tilt (-7.7318 0.2463 -0.1382)
WARNING: Triclinic box skew is large. LAMMPS will run inefficiently. (src/domain.cpp:220)
  2 by 2 by 2 MPI processor grid
  pair style reaxff stores no restart info
  365 atoms
Finding 1-2 1-3 1-4 neighbors ...
  special bond factors lj:    0        0        0       
  special bond factors coul:  0        0        0       
     0 = max # of 1-2 neighbors
     0 = max # of 1-3 neighbors
     0 = max # of 1-4 neighbors
     1 = max # of special neighbors
  special bonds CPU = 0.000 seconds
  read_restart CPU = 0.003 seconds
*****Positive-deform 6 starts.*****
WARNING: Van der Waals parameters for element SI indicate inner wall+shielding, but earlier atoms indicate a different van der Waals method. This may cause division-by-zero errors. Keeping van der Waals setting for earlier atoms. (src/REAXFF/reaxff_ffield.cpp:251)
Neighbor list info ...
  update: every = 10 steps, delay = 0 steps, check = yes
  max neighbors/atom: 2000, page size: 100000
  master list distance cutoff = 12
  ghost atom cutoff = 12
  binsize = 6, bins = 4 3 4
  2 neighbor lists, perpetual/occasional/extra = 2 0 0
  (1) pair reaxff, perpetual
      attributes: half, newton off, ghost
      pair build: half/bin/newtoff/ghost
      stencil: full/ghost/bin/3d
      bin: standard
  (2) fix qeq/reaxff, perpetual, copy from (1)
      attributes: half, newton off
      pair build: copy
      stencil: none
      bin: none
Setting up Verlet run ...
  Unit style    : real
  Current step  : 0
  Time step     : 0.5
Per MPI rank memory allocation (min/avg/max) = 131.1 | 132.1 | 132.9 Mbytes
   Step          Temp          PotEng         Press          Volume    
         0   313.73092     -37799.655     -3711.9058      3885.8921    
       100   297.00896     -37794.353      3066.0829      3885.8921    
       200   284.9437      -37809.969      1546.2341      3885.8921    
       300   276.48231     -37805.304     -6327.4924      3885.8921    
       400   302.51491     -37820.626     -3878.3317      3885.8921    
       500   306.30259     -37823.925      8982.0494      3885.8921    
       600   317.96825     -37825.691      5126.623       3885.8921    
       700   326.17079     -37818.413      4766.3213      3885.8921    
       800   317.29664     -37807.509     -11863.416      3885.8921    
       900   282.78433     -37808.662     -10716.379      3885.8921    
      1000   286.49025     -37815.627      6910.4049      3885.8921    
      1100   298.05825     -37809.146     -75.343181      3885.8921    
      1200   307.42208     -37802.839      879.9439       3885.8921    
      1300   301.02118     -37797.68       113.49943      3885.8921    
      1400   299.69366     -37810.701      14860.367      3885.8921    
      1500   289.21341     -37838.964     -941.00668      3885.8921    
      1600   282.1259      -37822.797      10754.588      3885.8921    
      1700   291.52762     -37806.034      9637.8332      3885.8921    
      1800   304.56053     -37802.589     -6667.5002      3885.8921    
      1900   296.39179     -37797.574      4001.0257      3885.8921    
      2000   317.61443     -37825.678     -3708.8962      3885.8921    
      2100   286.94674     -37826.056     -11099.059      3885.8921    
      2200   282.11744     -37822.735      2972.3068      3885.8921    
      2300   279.71504     -37795.117      10032.28       3885.8921    
      2400   300.75023     -37804.285      8729.9288      3885.8921    
      2500   290.18006     -37794.05       10657.574      3885.8921    
      2600   287.97261     -37797.257      4341.7133      3885.8921    
      2700   311.18344     -37811.055      6622.9589      3885.8921    
      2800   338.74551     -37820.86      -11402.794      3885.8921    
      2900   320.51734     -37803.384     -1947.2941      3885.8921    
      3000   276.48758     -37787.601      978.72951      3885.8921    
      3100   296.18046     -37815.407      3997.4356      3885.8921    
      3200   290.6923      -37805.064      8851.4433      3885.8921    
      3300   311.0404      -37802.524      9333.7013      3885.8921    
      3400   318.28645     -37774.091      5792.6027      3885.8921    
      3500   310.99708     -37782.404      5551.6945      3885.8921    
      3600   300.92874     -37797.21       10403.536      3885.8921    
      3700   312.24636     -37822.393      7088.4384      3885.8921    
      3800   298.57492     -37820.505      5167.035       3885.8921    
      3900   305.05684     -37821.482      4578.5059      3885.8921    
      4000   314.31159     -37794.308      21815.067      3885.8921    
      4100   309.52676     -37796.177      11469.902      3885.8921    
      4200   277.79851     -37781.602      7594.5502      3885.8921    
      4300   294.20316     -37801.459      8713.6432      3885.8921    
      4400   298.94438     -37805.469     -2753.6556      3885.8921    
      4500   298.17157     -37786.923     -4931.8766      3885.8921    
      4600   325.08116     -37775.469      2835.8046      3885.8921    
      4700   331.44175     -37797.992      10723.238      3885.8921    
      4800   309.28917     -37809.145      1859.5017      3885.8921    
      4900   304.215       -37813.077      10839.371      3885.8921    
      5000   308.97305     -37820.985      12227.837      3885.8921    
Loop time of 157.348 on 16 procs for 5000 steps with 365 atoms

Performance: 1.373 ns/day, 17.483 hours/ns, 31.777 timesteps/s, 11.599 katom-step/s
99.0% CPU use with 8 MPI tasks x 2 OpenMP threads

MPI task timing breakdown:
Section |  min time  |  avg time  |  max time  |%varavg| %total
---------------------------------------------------------------
Pair    | 112.5      | 120.53     | 138.24     |  90.6 | 76.60
Bond    | 0.010879   | 0.011709   | 0.012784   |   0.6 |  0.01
Neigh   | 1.5665     | 1.6938     | 1.9744     |  12.2 |  1.08
Comm    | 1.6711     | 19.362     | 27.4       | 225.9 | 12.30
Output  | 0.012093   | 0.033027   | 0.076262   |  12.4 |  0.02
Modify  | 15.24      | 15.555     | 15.702     |   4.5 |  9.89
Other   |            | 0.1624     |            |       |  0.10

Nlocal:         45.625 ave          51 max          37 min
Histogram: 1 0 0 0 0 1 4 0 1 1
Nghost:        3369.88 ave        3407 max        3333 min
Histogram: 1 1 2 0 0 0 1 1 0 2
Neighs:        29929.8 ave       33211 max       24724 min
Histogram: 1 0 0 0 1 0 4 0 1 1

Total # of neighbors = 239438
Ave neighs/atom = 655.99452
Ave special neighs/atom = 0
Neighbor list builds = 75
Dangerous builds = 0
Total wall time: 0:41:11
