ITEM: TIMESTEP
0
ITEM: NUMBER OF ATOMS
271
ITEM: BOX BOUNDS xy xz yz pp pp pp
-7.2018999999999993e+00 1.4748699999999999e+01 -6.1971999999999996e+00
-1.8606000000000000e+00 1.3431800000000001e+01 -1.0046999999999999e+00
0.0000000000000000e+00 1.6609600000000000e+01 -1.8606000000000000e+00
ITEM: ATOMS id type q x y z
3 4 1.22985 0.918684 1.37658 5.5999
4 4 1.1403 -0.0229973 3.77292 7.48607
214 1 -0.699164 4.66349 2.99694 6.43153
21 4 1.22034 2.76544 5.62105 4.966
41 2 -0.00252945 2.56883 1.46643 5.13062
50 2 0.0174777 3.50097 2.81458 1.76176
52 2 0.00232018 3.15936 4.02029 5.69492
266 2 0.0177665 4.07074 5.12158 0.0847178
69 2 0.136888 -2.05889 5.45183 6.29809
82 2 0.123145 -0.882954 6.06849 1.87388
227 4 0.994709 1.28868 1.97439 0.511212
231 3 -0.805764 -0.174296 2.23066 0.080379
83 2 0.17215 -0.153443 4.34956 1.36133
84 2 0.158997 0.324244 5.83529 0.387976
120 1 -0.677529 -0.97178 5.32242 6.51184
126 1 -0.664855 0.0236897 5.42896 1.4217
138 3 -0.83419 0.0961609 1.3238 4.18125
139 3 -0.784639 0.729671 0.0150083 6.41863
140 3 -0.835747 0.652524 2.68867 6.49862
229 2 0.0349368 1.53359 3.20067 1.79039
14 4 1.35276 6.39561 -0.649807 7.58469
155 3 -0.778538 1.92683 5.33219 3.49752
201 2 0.179346 5.08489 0.596146 3.50158
202 2 0.122477 3.65304 1.79251 3.7357
203 2 0.256035 3.74569 0.0262069 4.8955
206 2 0.15009 3.63516 2.57398 6.31315
213 1 -0.67907 4.27455 0.936159 4.27601
218 3 -0.855444 5.97244 0.491178 6.63202
67 2 0.173966 -0.461075 4.91888 5.57158
193 4 1.12418 5.70929 1.55413 5.50215
230 3 -0.817072 1.89276 0.569299 1.06648
65 2 0.215452 -2.16366 3.04736 7.43824
268 2 0.266585 -0.463015 -0.264965 7.74459
18 4 1.00522 4.75818 4.01529 1.32057
125 1 -0.643271 2.70755 3.79707 0.351419
80 2 0.172095 1.78132 4.53757 0.763326
74 2 0.202437 2.59077 2.61095 8.20096
119 1 -0.663936 -1.42699 2.82344 8.26731
254 2 0.0863552 -1.9802 4.48439 0.388114
19 4 0.975479 1.30391 6.42323 2.45411
246 2 0.0346574 3.64116 -0.255129 2.79515
205 2 0.168648 4.98839 3.06177 7.44808
204 2 0.143139 4.7595 3.96496 5.97986
15 4 1.08304 3.46953 0.722443 9.59045
75 2 0.149515 4.28035 2.81663 9.11804
151 3 -0.791285 5.88253 -0.358239 12.9146
42 2 -0.0186338 -0.515033 4.27498 12.2228
48 2 -0.000549229 2.18558 1.38183 10.5876
71 2 0.165584 2.12024 -0.776155 11.4267
5 4 1.2135 -3.03905 5.57936 9.20137
66 2 0.185019 -1.53797 3.49953 9.19161
149 3 -0.815484 2.853 -0.17919 8.31373
141 3 -0.846993 -2.25331 5.10569 10.5556
76 2 0.211781 2.56788 3.17836 10.0232
153 3 -0.816071 0.857664 4.52346 8.63554
81 2 0.13935 1.9929 2.20433 15.8629
270 2 0.12985 -0.957302 0.19038 9.55149
91 2 0.163124 1.35584 4.88041 15.2768
123 1 -0.659535 3.06105 2.52949 9.26112
228 2 0.0337899 1.32253 0.528374 15.7278
150 3 -0.806064 4.75412 0.445555 10.3743
64 2 0.185791 -1.30037 1.63488 8.5086
167 3 -0.821639 -0.857185 11.713 8.1075
2 4 1.27071 -4.01198 12.4696 7.124
8 4 0.999392 -2.12377 8.7409 6.86919
9 4 1.39527 -2.55507 10.754 4.74866
253 2 0.169738 -1.54573 12.1534 1.03127
260 2 0.248079 -5.94641 12.4899 4.14701
166 3 -0.800326 -1.30832 9.0174 8.12375
25 4 1.34121 0.0372878 11.2172 3.26382
27 4 1.33587 1.74208 7.70796 7.02881
165 3 -0.826759 1.86535 6.378 5.98288
44 2 -0.0315775 -1.99087 7.02218 6.52149
45 2 -0.00980141 -3.71612 8.96944 7.36782
51 2 -0.00188883 0.146202 7.50755 3.08377
1 4 1.09054 -3.71603 12.6307 1.6476
63 2 0.159751 -5.78582 10.9654 7.67008
170 3 -0.796472 1.47586 9.16646 6.31122
93 2 0.165886 -0.832275 8.85611 2.65225
94 2 0.186479 1.04538 9.06739 3.17238
95 2 0.210998 0.446374 9.5925 1.43845
117 1 -0.654104 -2.46044 11.803 0.319168
118 1 -0.698779 -4.70992 10.6934 7.44236
130 1 -0.664706 0.179189 9.42325 2.5504
142 3 -0.828217 -4.54674 11.4547 2.16931
143 3 -0.79974 -4.05657 9.93131 4.34885
144 3 -0.819304 -1.81977 9.57697 5.56671
145 3 -0.820278 -3.20469 12.1953 5.77485
159 3 -0.765482 2.39962 7.21674 1.38216
160 3 -0.849017 0.50631 12.3242 2.10715
161 3 -0.855757 -1.59135 11.2923 3.548
68 2 0.192572 -0.451742 6.25815 6.97914
62 2 0.18318 -4.57768 9.95569 6.55824
169 3 -0.819538 1.07915 11.2445 4.57127
7 4 1.30813 -5.16812 10.4308 3.26189
24 4 1.05185 3.39806 8.07867 0.424431
43 2 -0.00384144 -1.79922 6.06726 8.12414
60 2 0.187359 -2.49322 10.6815 0.135011
238 2 0.0176528 -4.76912 9.16293 15.6476
252 2 0.139577 -3.70882 10.6624 15.9988
10 4 1.2597 -2.68205 7.79302 13.2305
11 4 1.16923 -3.18876 10.181 11.2936
154 3 -0.821045 0.220011 6.22346 10.7416
28 4 1.55269 -1.15074 10.4565 9.10301
30 4 1.29671 -1.00378 9.47049 14.9464
262 2 0.155294 -4.18135 6.87198 15.3893
46 2 0.0113035 -4.23556 7.05076 13.5834
47 2 0.0584856 -4.91698 10.5047 10.9439
129 1 -0.671435 2.17713 5.70127 15.2045
101 2 0.194537 1.71101 8.62506 12.8881
6 4 1.23981 -1.12155 5.66836 11.5153
20 4 1.46612 1.28214 5.87974 9.55738
164 3 -0.776978 1.21942 7.20333 8.5018
267 2 0.19832 1.95008 6.6095 14.6085
99 2 0.228468 1.77822 7.70135 11.2613
100 2 0.243745 0.180467 8.4699 11.7783
55 2 0.0295952 -1.80015 10.5649 16.0124
175 3 -0.825628 0.241 10.3848 10.1164
132 1 -0.67329 1.33225 8.57512 11.8603
72 2 0.161598 -2.98627 11.7614 12.8936
146 3 -0.824592 -1.72999 6.62301 12.645
147 3 -0.850083 -2.9239 8.99777 12.2346
121 1 -0.666376 -4.02485 11.7943 12.0852
180 3 -0.804649 -4.1059 6.76002 9.55541
157 3 -0.828346 2.8226 5.91231 10.1432
168 3 -0.882596 -2.47939 10.5288 9.95044
172 3 -0.836067 -2.14696 8.40475 14.6489
173 3 -0.871668 0.167315 8.92376 15.8052
174 3 -0.82853 -0.562045 10.5195 13.7656
70 2 0.172915 -5.01228 11.3433 12.5414
61 2 0.190104 -4.04226 10.4822 8.31581
211 2 0.164545 7.85356 1.9742 7.89785
113 2 0.159573 8.62715 6.6524 0.288116
256 2 0.160787 10.7176 3.50071 0.977244
73 2 0.150511 9.10191 2.77158 1.17239
105 2 0.181635 7.29943 4.29196 4.03142
257 1 -0.63179 11.9323 3.4868 1.37049
224 3 -0.764306 11.3567 -0.110984 6.65749
111 2 0.158919 8.41125 5.60342 1.87234
33 4 1.22841 5.58404 5.93522 3.76952
106 2 0.158533 6.18325 4.33619 5.67965
222 3 -0.844713 12.269 1.74145 4.91729
152 3 -0.815784 5.95973 3.25138 0.651491
177 3 -0.802481 5.09715 4.87333 2.60848
192 4 1.27648 13.3037 1.40191 3.77508
223 3 -0.83749 9.73365 0.796099 4.63728
194 4 1.26582 8.58701 1.64248 3.90146
196 4 1.49577 10.9073 1.21129 5.62245
197 4 1.0496 9.91314 3.45484 7.75394
56 2 -0.024439 6.5155 5.95603 6.5836
199 2 -0.047711 9.25722 3.11516 3.52833
200 2 0.0323234 8.35064 4.27717 7.20582
107 2 0.128505 7.57179 5.73696 5.24699
255 2 0.141226 11.9368 3.89385 2.46652
225 3 -0.836303 10.4305 2.40105 6.63924
247 2 0.0369401 12.0707 1.66917 1.43935
264 2 0.174632 8.69571 4.68016 0.777181
219 3 -0.814782 12.8516 0.112032 2.98023
220 3 -0.823458 8.32665 0.934261 2.52845
221 3 -0.788009 7.18182 1.96091 4.66026
134 1 -0.653319 6.78977 4.94578 4.85376
195 4 1.04759 11.6092 -0.681419 8.1497
122 1 -0.66299 8.77282 3.56055 0.350992
198 2 -0.00756615 13.1179 2.79945 2.74118
232 4 1.01393 12.9576 2.50629 0.00674294
22 4 0.986481 6.14025 3.84365 11.9938
148 3 -0.8303 6.34097 -0.999588 16.4551
251 2 -0.0194932 13.2892 -0.677006 10.5562
77 2 0.155835 7.76 1.51068 9.87929
49 2 0.0649329 7.3252 -1.37796 15.0588
79 2 0.14212 8.335 0.929218 11.6241
53 2 0.033565 6.39072 4.45975 13.7152
86 2 0.155487 8.6614 4.56608 13.3936
226 3 -0.861469 10.8144 4.51775 8.43745
124 1 -0.680137 7.60965 0.659557 10.7632
127 1 -0.646798 7.85839 4.73726 12.6162
158 3 -0.784788 5.20746 4.92436 11.1533
17 4 1.23418 5.92571 0.7124 11.6123
207 2 0.137836 11.551 1.11713 9.58273
208 2 0.180276 10.2512 -0.216658 10.231
209 2 0.187593 9.90083 0.855408 8.64651
210 2 0.0876221 9.17493 2.54368 9.51866
13 4 1.03327 6.17397 0.584085 16.6027
215 1 -0.681311 10.6468 0.379832 9.33849
249 2 0.0240186 6.78835 0.252998 9.03409
78 2 0.173496 7.78383 -0.424347 10.3925
233 4 1.18334 11.0988 -0.952522 14.0007
234 2 -0.0145101 9.8126 -0.435225 13.0307
235 3 -0.764045 11.2127 0.265887 15.2382
85 2 0.0613319 7.96152 3.90715 11.2618
265 2 0.141457 8.34712 1.57937 15.9666
248 2 0.0107821 6.77008 1.47607 15.2435
156 3 -0.770986 5.66816 2.33195 12.1596
216 1 -0.669273 13.5569 -0.447678 8.61667
236 3 -0.800254 12.4268 -0.994824 13.0416
217 1 -0.664595 8.18847 2.9121 8.4835
212 2 0.156456 7.28809 3.50304 8.85227
108 2 0.233479 5.86886 9.51264 7.92387
54 2 0.117336 5.1015 7.82376 0.926981
32 4 1.05678 5.86608 12.2459 2.20086
36 4 1.19803 7.46418 7.92305 2.10317
136 1 -0.666916 8.65535 6.63939 1.42854
110 2 0.172121 7.76029 9.04363 7.71253
96 2 0.246506 3.95494 11.8352 5.28707
97 2 0.172901 3.87839 9.9261 5.02228
98 2 0.251129 4.2332 10.7307 6.75997
102 2 0.197506 5.98935 10.1077 3.37039
103 2 0.162175 4.29337 10.9752 3.27033
104 2 0.19661 5.65225 11.5107 4.67155
259 2 0.206291 7.33116 11.293 4.20455
109 2 0.139839 6.4821 8.61171 6.33596
261 1 -0.643094 8.45731 11.4631 4.47032
114 2 0.201248 4.21503 7.21369 7.11943
178 3 -0.799618 4.12669 6.34831 4.74625
116 2 0.193458 3.7415 9.11454 6.78314
131 1 -0.671287 3.68104 10.8157 5.70874
133 1 -0.673458 5.41682 11.0732 3.61477
171 3 -0.803171 1.44125 11.9028 7.02509
137 1 -0.630522 3.57445 8.1175 7.44064
163 3 -0.827181 2.9169 12.537 0.781412
250 2 0.104554 4.47184 12.7902 1.32448
182 3 -0.814135 6.4571 7.14932 3.08217
183 3 -0.75316 8.51079 9.17367 2.77899
184 3 -0.812918 6.44739 8.62139 0.602257
185 3 -0.794285 6.49212 11.2868 1.10363
258 2 0.2194 8.75345 11.2578 5.50552
112 2 0.162632 9.66167 7.06968 1.89427
135 1 -0.663184 6.63249 8.78062 7.5129
162 3 -0.811291 3.07161 9.61766 0.617556
34 4 0.935233 6.6244 6.9907 7.97525
37 4 1.50372 6.88348 10.0326 0.00539576
29 4 1.40529 1.7627 10.7973 5.91849
12 4 1.42106 1.64887 13.2373 1.37082
23 4 1.29678 4.36897 6.16914 10.4434
26 4 1.45784 1.67022 9.0659 16.3292
263 2 0.153814 9.3653 6.01152 14.277
239 2 0.175746 9.04665 6.22156 16.1535
35 4 1.20759 9.12774 6.83619 10.0231
38 4 1.26074 4.34136 10.3712 9.92154
39 4 1.18911 7.86228 8.74641 11.9566
40 4 1.2354 6.4026 11.5998 11.6875
58 2 0.0333982 4.95439 8.74088 9.97797
59 2 -0.00545568 6.54273 7.727 11.6998
240 1 -0.685839 9.50723 6.6729 15.2153
88 2 0.132772 3.2137 8.05899 11.6516
89 2 0.146209 5.18877 8.67713 11.664
90 2 0.144997 4.73836 6.99988 12.5513
237 4 1.07972 8.62312 8.32796 15.0922
271 3 -0.788893 7.52129 8.3399 16.1782
128 1 -0.67631 4.53158 7.74674 11.613
176 3 -0.829461 1.62298 11.3734 12.563
245 3 -0.857395 2.61987 9.25154 15.0591
179 3 -0.744247 5.22422 6.67647 9.15295
269 2 0.128753 7.34303 11.819 8.93572
181 3 -0.798769 7.93425 6.76085 8.88815
186 3 -0.802664 4.80713 10.9373 8.48974
187 3 -0.837871 2.76418 10.3581 10.0999
188 3 -0.826034 8.90891 8.20761 10.8557
189 3 -0.814588 8.37373 8.52555 13.4684
190 3 -0.903101 5.08582 11.0341 11.1012
191 3 -0.819412 7.3319 10.2969 11.7452
241 4 1.2693 4.11982 9.4964 14.514
242 2 0.00442196 4.09058 9.21731 12.8785
243 3 -0.822186 5.08437 8.37849 15.1873
244 3 -0.81997 4.57194 11.0232 14.6753
87 2 0.141196 7.70814 5.81759 12.3805
115 2 0.205519 3.49986 8.29151 8.54594
31 4 1.33624 1.47371 10.3176 11.0205
16 4 1.23676 0.501196 11.7515 13.5319
57 2 -0.00385051 8.77326 5.47504 11.0822
92 2 0.137822 3.23689 5.32096 15.0693
ITEM: TIMESTEP
100
ITEM: NUMBER OF ATOMS
271
ITEM: BOX BOUNDS xy xz yz pp pp pp
-7.2018999999999993e+00 1.4748699999999999e+01 -6.1971999999999996e+00
-1.5656260000000000e+00 1.3431800000000001e+01 -1.0046999999999999e+00
0.0000000000000000e+00 1.6609600000000000e+01 -1.5656260000000000e+00
ITEM: ATOMS id type q x y z
3 4 1.202 0.91756 1.37666 5.5398
4 4 1.11672 -0.0294178 3.78808 7.52752
214 1 -0.687561 4.77287 3.18894 6.25239
21 4 1.2178 2.91695 5.68152 4.9097
41 2 -0.0189245 2.60704 1.29568 5.19434
50 2 0.02078 3.63566 2.64938 1.6579
52 2 0.0150263 3.11585 4.10491 5.63962
254 2 0.0798847 -2.07816 4.53823 0.0899731
69 2 0.128529 -2.07287 5.05457 6.90929
82 2 0.141857 -0.811371 5.92528 1.62097
227 4 0.994446 1.32249 1.86261 0.594564
231 3 -0.797585 -0.243074 2.19483 0.280491
83 2 0.163794 0.217458 4.3048 1.84359
84 2 0.157851 0.495993 5.51644 0.285875
120 1 -0.689961 -1.02464 5.42559 6.56535
126 1 -0.658003 0.143258 5.40771 1.40263
138 3 -0.843705 0.0701973 1.37335 4.16083
139 3 -0.779125 0.602418 0.035132 6.38925
140 3 -0.792732 0.71068 2.71295 6.50506
229 2 0.0216571 1.87316 2.95587 1.89385
14 4 1.27655 6.34145 -0.680281 7.67588
155 3 -0.792461 1.96912 5.42156 3.58507
201 2 0.200013 5.25866 0.44565 3.52996
202 2 0.12218 3.57837 1.58988 3.84834
203 2 0.247664 3.80297 -0.0494473 4.8593
206 2 0.151208 3.7431 2.72638 6.51552
213 1 -0.669 4.33213 0.844453 4.2561
218 3 -0.807479 6.01065 0.522942 6.60262
67 2 0.184127 -0.835686 5.44606 5.50936
193 4 1.12706 5.65683 1.61708 5.49309
230 3 -0.816043 1.89538 0.44079 0.938248
65 2 0.175063 -2.1738 3.19746 7.81719
268 2 0.255924 -0.464606 -0.23834 7.83764
18 4 0.983276 4.83267 3.97554 1.26294
125 1 -0.654325 2.7697 3.65349 0.369238
80 2 0.169691 1.8184 4.4272 0.738998
266 2 0.0168131 4.07643 5.03926 0.050998
149 3 -0.766809 2.74556 -0.0997796 8.24968
15 4 1.05903 3.40234 0.718143 9.59693
75 2 0.184278 4.29594 2.92022 9.3173
151 3 -0.794514 5.58627 -0.370296 12.8399
42 2 -0.0335466 -0.824202 4.41923 12.4181
48 2 -0.0174387 2.13926 1.2903 10.5438
71 2 0.132588 1.59078 -1.09069 11.4219
5 4 1.20947 -3.13449 5.60822 9.26809
66 2 0.185434 -1.27481 3.19495 9.5423
150 3 -0.840163 4.70786 0.473408 10.3581
141 3 -0.854187 -2.32234 5.16601 10.5811
76 2 0.170903 2.72356 2.92295 10.4492
153 3 -0.789843 0.890491 4.43192 8.67296
81 2 0.144073 2.12786 1.91558 15.9534
270 2 0.143184 -0.746594 0.134311 9.64955
74 2 0.223558 2.45537 2.79975 8.55524
123 1 -0.655288 3.2033 2.59465 9.4316
228 2 0.0313009 1.16822 0.543581 15.6747
119 1 -0.65185 -1.26354 2.76311 8.51012
64 2 0.192996 -1.19795 1.56149 8.4194
167 3 -0.80588 -1.03887 11.7148 7.93795
2 4 1.2036 -4.15463 12.42 6.9925
8 4 0.956892 -2.24965 8.63267 7.00465
9 4 1.40427 -2.52313 10.5702 4.78441
253 2 0.158674 -1.66268 12.0636 0.995525
260 2 0.230466 -5.78074 12.5034 4.07886
166 3 -0.746716 -1.2965 8.91921 8.23405
25 4 1.35735 0.0467095 11.2245 3.16647
27 4 1.34582 1.8974 7.60939 7.00606
165 3 -0.857163 2.07908 6.37126 5.99281
44 2 -0.0203385 -2.26479 6.98424 6.56192
45 2 -0.0103378 -3.82489 9.03802 7.46668
51 2 -0.00639977 0.259163 7.62882 3.09676
1 4 1.07462 -3.78856 12.5504 1.61668
63 2 0.159001 -5.87113 11.3072 8.04757
170 3 -0.779502 1.3968 9.1769 6.47325
93 2 0.153006 -0.588794 8.93575 2.56198
94 2 0.199307 1.28621 9.045 2.81432
95 2 0.215309 0.520775 9.68276 1.20672
117 1 -0.666843 -2.56044 11.9537 0.177004
118 1 -0.698 -4.90236 10.8119 7.64628
130 1 -0.667533 0.382183 9.49623 2.34825
142 3 -0.755335 -4.79087 11.4474 1.95334
143 3 -0.821995 -3.82371 9.79275 4.04751
144 3 -0.789621 -1.76956 9.46934 5.69655
145 3 -0.805784 -3.17696 11.9781 5.75284
159 3 -0.762626 2.37504 7.09094 1.4807
160 3 -0.881769 0.4246 12.3195 2.00748
161 3 -0.840326 -1.45605 11.2997 3.69853
68 2 0.20881 -0.464754 6.20557 7.12667
62 2 0.15606 -5.24926 9.97514 7.03172
169 3 -0.816058 1.02402 11.0574 4.54276
29 4 1.41127 1.57992 10.709 5.99766
24 4 1.00731 3.50842 8.16989 0.590075
43 2 -0.000863588 -1.8908 6.19114 8.22955
19 4 1.0117 1.32584 6.4562 2.46764
246 2 0.0191984 -2.7892 13.0541 2.94865
238 2 0.0330175 -5.01708 9.90363 15.528
252 2 0.160332 -3.69725 10.9256 15.9989
10 4 1.27152 -2.61195 7.76694 13.2043
11 4 1.1598 -3.40231 10.1096 11.277
154 3 -0.806065 0.197858 6.17999 10.6604
28 4 1.48683 -1.06355 10.4538 9.03428
30 4 1.31198 -1.04559 9.60829 15.0416
262 2 0.131825 -4.07718 6.98568 15.6638
46 2 -0.0172498 -3.86399 6.74129 13.7811
47 2 0.0703371 -5.11453 10.5216 10.9981
129 1 -0.655019 2.21699 5.92487 15.3901
101 2 0.183364 1.78911 8.45126 12.9254
6 4 1.22991 -1.11562 5.68832 11.5036
20 4 1.47377 1.28467 5.97104 9.48892
164 3 -0.797555 1.19332 7.19343 8.41427
267 2 0.194154 2.34861 6.83628 14.7014
99 2 0.225027 1.87657 7.78696 11.1792
100 2 0.268477 0.257784 8.30659 11.9728
55 2 0.0236239 -1.87072 10.8026 16.046
175 3 -0.820421 0.266792 10.4508 10.0945
132 1 -0.694144 1.37058 8.48104 11.8946
72 2 0.195785 -2.92893 11.988 12.5097
146 3 -0.82669 -1.50248 6.80829 12.589
147 3 -0.809823 -3.22513 8.85775 12.1937
121 1 -0.685407 -4.02012 11.651 12.1932
180 3 -0.802194 -4.14255 6.87221 9.55176
157 3 -0.841626 2.81973 5.97717 10.0857
168 3 -0.817975 -2.44532 10.4124 10.0639
172 3 -0.831324 -2.07997 8.58986 14.472
173 3 -0.870455 0.147713 8.97863 15.8374
174 3 -0.830448 -0.53521 10.4081 13.7506
70 2 0.180193 -4.71792 11.22 12.9718
16 4 1.19662 0.332831 11.7167 13.4237
92 2 0.121651 3.11614 5.14999 15.3103
91 2 0.182177 1.24647 5.44665 15.2472
60 2 0.155879 -3.7217 9.03938 16.3691
61 2 0.18201 -4.21323 10.5579 8.5342
13 4 1.05905 7.29595 2.34761 0.0733929
205 2 0.15032 5.35652 3.38858 7.25324
256 2 0.168917 10.8473 3.60159 0.936031
73 2 0.127625 9.13139 2.79985 1.34242
105 2 0.184895 7.14737 4.36706 4.32985
257 1 -0.642772 12.0035 3.64571 1.23841
224 3 -0.769675 11.3686 -0.220573 6.54054
111 2 0.163279 8.70939 5.85313 2.11514
33 4 1.26966 5.65061 6.0942 3.69688
106 2 0.158184 6.19605 4.77772 5.86407
222 3 -0.844652 12.2782 1.57127 4.89909
152 3 -0.813915 6.03462 3.14256 0.644059
177 3 -0.798933 5.27141 4.97167 2.45398
192 4 1.28899 13.3192 1.29267 3.69697
223 3 -0.829171 9.61127 0.912758 4.6809
194 4 1.25173 8.47604 1.67216 3.89607
196 4 1.48794 10.9665 1.15516 5.66283
197 4 0.972442 9.83781 3.37129 7.77082
113 2 0.171712 8.09968 6.21843 0.413019
199 2 -0.0456595 9.08695 3.14766 3.51486
200 2 0.0394937 8.15001 3.97205 7.16573
107 2 0.155898 7.57687 5.99007 5.25457
255 2 0.160461 12.2 4.14252 2.17746
225 3 -0.825302 10.5154 2.34931 6.66602
247 2 0.0272035 11.9771 1.77048 1.28592
264 2 0.172291 8.94036 4.48695 0.3123
219 3 -0.824383 12.9603 0.066152 2.81351
220 3 -0.853081 8.11716 0.92241 2.50937
221 3 -0.787461 7.05678 2.01958 4.62162
134 1 -0.668201 6.78609 5.23292 4.98622
195 4 1.04736 11.6299 -0.607518 8.13069
122 1 -0.679097 8.98599 3.35973 0.210099
198 2 0.0040324 12.9295 2.59264 2.57817
204 2 0.145525 4.8728 4.10008 5.5713
22 4 0.988742 6.23261 3.86953 11.932
148 3 -0.840725 6.33397 -1.05575 16.4613
251 2 0.00676539 13.364 -0.693316 10.6532
77 2 0.16349 7.73963 1.40496 10.0729
49 2 0.0638271 7.04268 -1.3047 15.0018
79 2 0.171845 8.30473 0.775075 11.7111
53 2 0.0361864 6.19867 4.60842 13.597
86 2 0.159586 8.5198 4.43707 13.5429
226 3 -0.839438 10.7442 4.49072 8.53082
124 1 -0.65898 7.60856 0.570687 10.8905
127 1 -0.643421 7.81263 4.78543 12.7655
158 3 -0.801145 5.26827 4.89678 11.1577
17 4 1.31475 5.7975 0.672785 11.5719
207 2 0.147166 11.2379 1.32984 9.31054
208 2 0.199119 10.3263 -0.0570044 10.2378
209 2 0.165337 9.50109 0.544905 8.63846
210 2 0.114882 8.87009 2.31636 9.02912
212 2 0.166627 7.90523 3.93994 9.38085
215 1 -0.675447 10.536 0.395948 9.23495
249 2 0.0028569 6.89958 0.060735 9.10935
78 2 0.196102 7.77792 -0.453859 10.507
233 4 1.25377 11.0259 -0.936795 14.0794
234 2 -0.00379809 9.6884 -0.504194 13.0981
235 3 -0.819537 11.1589 0.150572 15.1996
85 2 0.05341 8.03105 4.07255 11.2302
265 2 0.156382 8.76719 1.11118 16.0759
248 2 0.0168327 6.87243 1.26159 15.2392
156 3 -0.791314 6.04725 2.18554 11.9578
216 1 -0.678482 13.6134 -0.457053 8.77584
236 3 -0.793518 12.3578 -1.02828 13.1004
217 1 -0.676063 7.98876 3.05004 8.72418
232 4 1.02201 11.9607 0.652269 16.5489
211 2 0.16526 7.02637 2.49383 8.58041
108 2 0.22177 5.97528 9.48785 8.01391
54 2 0.0899009 5.10161 8.0879 1.15983
32 4 1.08063 5.90567 12.2433 2.01995
36 4 1.26119 7.5896 8.03983 2.02547
136 1 -0.667836 8.62968 6.61108 1.30845
110 2 0.17263 7.68688 9.04206 7.54914
96 2 0.243772 3.46804 11.9566 5.275
97 2 0.159538 3.84878 10.0571 5.13149
98 2 0.282564 4.05276 11.0117 6.92031
102 2 0.201172 5.93442 10.2547 3.71137
103 2 0.152667 4.22176 11.2106 3.21516
104 2 0.222149 5.54564 11.9648 4.4336
259 2 0.220332 7.38016 11.4173 4.11579
109 2 0.167308 6.26666 8.40331 6.44723
261 1 -0.652768 8.52204 11.4963 4.39182
114 2 0.204301 4.39538 7.27504 6.90021
178 3 -0.812921 4.35871 6.4543 4.618
116 2 0.190364 3.87108 9.2194 6.79
131 1 -0.631268 3.5521 10.9782 5.8396
133 1 -0.673266 5.43527 11.2556 3.57436
171 3 -0.796896 1.43099 11.8023 7.14877
137 1 -0.64954 3.76612 8.10522 7.2885
163 3 -0.847678 2.94831 12.4402 1.00693
250 2 0.100575 4.46778 12.8721 1.30747
182 3 -0.775695 6.51783 7.35847 3.27821
183 3 -0.787702 8.55108 9.11432 2.79714
184 3 -0.79234 6.69622 8.47899 0.670442
185 3 -0.81988 6.5391 11.2945 0.967792
258 2 0.186123 8.77342 11.2613 5.50789
112 2 0.155999 9.66624 7.00603 0.977649
135 1 -0.676648 6.61775 8.74449 7.48588
162 3 -0.805751 3.08726 9.67307 0.714373
34 4 1.01251 6.668 6.94308 8.23272
7 4 1.25777 9.52496 10.3046 3.33204
56 2 -0.00962747 6.46752 6.21493 6.70843
12 4 1.45134 1.62582 13.2043 1.45291
23 4 1.29521 4.37992 6.10918 10.3579
26 4 1.43188 1.63542 9.13529 16.4057
263 2 0.155725 9.53704 6.07673 14.4314
239 2 0.17254 8.84694 6.37699 16.1508
35 4 1.21414 9.09869 6.94277 10.1054
38 4 1.27665 4.32439 10.4714 9.90075
39 4 1.17982 7.69584 8.78066 11.9823
40 4 1.21997 6.333 11.5366 11.7401
58 2 0.0125285 5.0146 8.90901 9.95547
59 2 -0.0129369 6.4806 7.56179 11.7897
240 1 -0.683011 9.56597 6.77155 15.2829
88 2 0.145883 3.29651 8.11355 11.6395
89 2 0.116637 5.21224 8.78354 11.7486
90 2 0.126266 4.8749 6.88825 12.3854
237 4 1.09853 8.75934 8.43343 15.019
271 3 -0.790453 7.50819 8.45005 16.004
128 1 -0.650263 4.55486 7.85434 11.538
176 3 -0.815388 1.50416 11.5111 12.3834
245 3 -0.850237 2.6751 9.30931 15.1335
179 3 -0.807827 5.33002 6.55957 9.18397
269 2 0.142522 7.32598 11.8129 9.02313
181 3 -0.840368 8.02089 6.73622 8.93752
186 3 -0.808973 4.86227 11.034 8.50679
187 3 -0.828126 2.79272 10.2531 10.1978
188 3 -0.821882 8.7962 8.33198 10.8802
189 3 -0.8035 8.29255 8.62184 13.5299
190 3 -0.890687 4.90504 11.3194 11.0287
191 3 -0.85646 7.31118 10.3148 11.6643
241 4 1.26723 4.13459 9.51061 14.5212
242 2 -0.00770239 3.91931 9.19549 12.8328
243 3 -0.839834 5.1842 8.4494 15.1437
244 3 -0.836631 4.55372 11.0649 14.6585
87 2 0.143298 7.85924 5.89927 12.7136
115 2 0.193104 3.88785 8.21394 8.39186
31 4 1.33966 1.4446 10.2174 11.0814
37 4 1.51833 6.00408 8.30043 16.4906
57 2 -0.0158593 8.76236 5.65576 11.3133
ITEM: TIMESTEP
200
ITEM: NUMBER OF ATOMS
271
ITEM: BOX BOUNDS xy xz yz pp pp pp
-7.2018999999999993e+00 1.4748699999999999e+01 -6.1971999999999996e+00
-1.2706520000000001e+00 1.3431800000000001e+01 -1.0046999999999999e+00
0.0000000000000000e+00 1.6609600000000000e+01 -1.2706520000000001e+00
ITEM: ATOMS id type q x y z
3 4 1.22048 0.901744 1.42938 5.51623
4 4 1.14042 0.0036805 3.81306 7.52865
214 1 -0.656529 4.94272 3.0844 5.97052
21 4 1.22953 2.95196 5.67466 4.90988
41 2 -0.0143383 2.54013 1.31101 4.92733
50 2 0.0191057 3.604 3.15047 2.09499
52 2 -0.00434001 3.26203 4.02927 5.45966
149 3 -0.797661 2.68741 -0.0789512 8.29554
69 2 0.136504 -2.05844 5.24428 6.46323
82 2 0.132426 -0.680862 6.16517 1.22142
227 4 0.96736 1.40025 1.82151 0.575002
231 3 -0.796538 -0.1994 1.93797 0.292683
83 2 0.161571 0.201039 4.50957 1.77496
84 2 0.147926 0.750271 5.3996 0.116498
120 1 -0.680791 -0.948755 5.432 6.56917
126 1 -0.666976 0.297601 5.47709 1.19061
138 3 -0.850194 -0.0194077 1.56841 4.23696
139 3 -0.79359 0.594945 0.12522 6.37545
140 3 -0.793686 0.657499 2.78275 6.44666
229 2 0.0248935 1.77483 3.05837 1.81211
43 2 0.00038365 -1.81021 5.93023 8.23142
155 3 -0.786577 1.98246 5.43437 3.58241
201 2 0.175422 5.1611 0.142352 3.61368
202 2 0.129514 3.76434 1.47098 3.57792
203 2 0.240087 3.50402 -0.15963 4.82815
206 2 0.129227 3.88491 2.52495 6.08833
213 1 -0.671708 4.24608 0.686053 4.24921
218 3 -0.851833 5.77066 0.32828 6.67498
67 2 0.197023 -0.399995 5.46651 5.60078
193 4 1.15882 5.72946 1.31729 5.45709
230 3 -0.830481 1.94606 0.468516 1.17048
65 2 0.184729 -2.21977 3.16275 8.25504
268 2 0.273124 -0.571935 -0.125293 7.64681
18 4 0.992896 4.93204 4.02176 1.28355
125 1 -0.669275 2.96673 3.74666 0.40777
80 2 0.173396 2.05775 4.44963 0.666549
198 2 0.0268921 -1.33836 2.68556 2.55492
204 2 0.15687 4.95306 3.89121 5.15538
254 2 0.0820116 -1.63818 4.30544 0.262799
19 4 1.03973 1.44161 6.42719 2.42176
15 4 1.09139 3.32392 0.717335 9.51836
75 2 0.15752 4.17106 2.77149 8.98006
151 3 -0.788349 5.60739 -0.266505 12.7919
42 2 -0.0371964 -0.474554 4.54966 12.562
48 2 -0.00903345 2.19613 1.34032 10.6179
17 4 1.27646 5.79112 0.78425 11.4908
5 4 1.17077 -3.11578 5.60238 9.41537
66 2 0.173569 -0.855588 3.15378 9.61102
150 3 -0.815337 4.63623 0.406516 10.3202
141 3 -0.816976 -2.44686 5.05584 10.7874
76 2 0.213143 2.7008 3.12297 10.1198
153 3 -0.804321 1.01037 4.46691 8.57772
81 2 0.149021 2.24986 2.06939 16.0016
64 2 0.175659 -1.22719 1.57278 8.5282
74 2 0.22792 2.34541 2.62584 8.34025
123 1 -0.671162 3.03275 2.55657 9.23663
228 2 0.00116434 1.39351 0.715943 15.9278
119 1 -0.663006 -1.15759 2.80223 8.56624
266 2 0.042718 3.07278 3.54994 16.6076
167 3 -0.838557 -1.01964 11.6559 8.26602
2 4 1.22357 -4.12792 12.4728 6.99351
8 4 0.990816 -2.30183 8.63725 6.9755
9 4 1.45479 -2.63223 10.4784 4.7194
253 2 0.172294 -1.51905 11.9921 0.914891
260 2 0.220859 -5.99214 12.0686 4.55463
166 3 -0.753837 -1.32884 8.87023 8.18921
25 4 1.33687 0.0417908 11.1393 3.13319
27 4 1.35476 1.88995 7.71022 7.02928
165 3 -0.830383 2.12555 6.54446 5.88353
44 2 -0.015261 -2.1808 6.99029 6.6401
45 2 -0.0131307 -3.92876 8.90619 7.40918
51 2 0.0145879 0.609782 7.71786 3.17653
1 4 1.09141 -3.69882 12.5333 1.61905
60 2 0.153491 -2.69675 10.5187 0.0579197
170 3 -0.754337 1.40155 9.1278 6.37562
93 2 0.165661 -0.546317 8.7311 2.62514
94 2 0.190934 1.3839 9.20776 2.58928
95 2 0.204576 0.174394 9.57491 1.18001
117 1 -0.662047 -2.56716 11.7704 0.26911
118 1 -0.668279 -4.7424 10.822 7.65153
130 1 -0.677295 0.281155 9.44015 2.26587
142 3 -0.805928 -4.67644 11.3141 2.0206
143 3 -0.850801 -3.82 9.89165 3.89443
144 3 -0.823853 -1.94144 9.4008 5.66429
145 3 -0.829874 -3.31176 11.9816 5.71872
159 3 -0.810347 2.63027 7.07721 1.64751
160 3 -0.867666 0.317048 12.3808 2.02446
161 3 -0.821895 -1.51578 11.0013 3.61238
68 2 0.199457 -0.63384 6.21808 7.34975
62 2 0.139555 -4.73234 10.2305 6.57748
169 3 -0.808739 1.02647 11.113 4.4651
29 4 1.35268 1.68528 10.8237 5.92247
246 2 0.0370241 -2.47869 12.8917 2.86654
63 2 0.150946 -5.81807 11.1958 7.96196
14 4 1.32985 0.00772066 12.6848 7.73307
238 2 0.000795518 -4.7628 9.76231 15.3867
252 2 0.147346 -3.82367 10.7508 15.9625
10 4 1.26462 -2.60304 7.79672 13.1848
11 4 1.15312 -3.50479 10.193 11.2981
154 3 -0.821354 0.13773 5.98524 10.5146
28 4 1.54288 -1.14102 10.3463 9.2043
30 4 1.27253 -1.09914 9.61018 14.9753
262 2 0.132033 -4.09285 7.20359 15.3136
46 2 -0.00848041 -3.95936 6.79503 13.6034
47 2 0.062687 -5.21671 10.5336 11.1828
129 1 -0.689577 2.48789 5.97287 15.502
101 2 0.197271 1.3797 8.83686 12.9559
6 4 1.18876 -1.09266 5.70408 11.542
20 4 1.46209 1.34465 5.87177 9.45463
164 3 -0.799227 1.24682 7.14241 8.42838
267 2 0.203818 2.32381 6.9405 14.9947
99 2 0.19505 1.82418 7.59929 11.5953
100 2 0.284879 0.211637 8.3291 11.5402
55 2 0.0228102 -1.92147 10.8202 15.9258
175 3 -0.855931 0.114318 10.2341 10.2045
132 1 -0.66563 1.26071 8.52316 11.802
72 2 0.191096 -3.15714 12.1673 12.5133
146 3 -0.826123 -1.51715 7.00747 12.3873
147 3 -0.799159 -3.19206 8.8975 12.2206
121 1 -0.692327 -4.14919 11.6565 12.3358
180 3 -0.780961 -4.05137 7.02016 9.59305
157 3 -0.808745 2.95971 5.80821 10.1414
168 3 -0.828571 -2.59102 10.4659 10.0712
172 3 -0.840645 -2.10379 8.37036 14.6416
173 3 -0.857108 0.0589479 9.24082 15.9795
174 3 -0.83374 -0.608066 10.5168 13.7248
70 2 0.164295 -4.61104 11.2349 13.3553
16 4 1.22783 0.245299 11.8053 13.3958
31 4 1.33945 1.45749 10.2488 10.9789
91 2 0.167018 1.62755 5.32079 15.4833
71 2 0.143445 -4.80572 12.3219 11.7275
61 2 0.20106 -4.13565 10.3882 8.51433
136 1 -0.678741 8.65308 6.45884 1.59872
205 2 0.156816 5.35876 3.43364 6.94847
256 2 0.169474 10.9283 3.61867 0.816019
73 2 0.141542 9.22176 2.62912 0.876572
105 2 0.169108 7.37445 4.49195 4.14877
257 1 -0.611715 12.0942 3.51474 1.35356
224 3 -0.763849 11.438 -0.231872 6.53361
111 2 0.16392 8.14234 5.54666 2.09456
33 4 1.28261 5.66481 6.1154 3.73359
106 2 0.165929 6.57372 4.68311 5.83808
222 3 -0.84546 12.0078 1.66087 4.57349
152 3 -0.814765 6.11984 3.21047 0.575421
177 3 -0.801582 5.319 5.03054 2.47053
192 4 1.30171 13.2987 1.36992 3.63915
223 3 -0.79344 9.49687 0.827478 4.84919
194 4 1.21429 8.51566 1.68073 3.98956
196 4 1.44669 10.9268 1.15587 5.66628
197 4 0.965153 9.82298 3.29853 7.99147
113 2 0.158273 8.49837 6.36562 0.444988
199 2 -0.0439202 9.13478 3.21935 3.76697
200 2 0.0397358 8.34519 4.1542 7.3455
107 2 0.145892 7.69557 6.10035 5.06693
255 2 0.152461 12.1433 4.08697 2.35872
225 3 -0.805525 10.3714 2.22112 6.85575
247 2 0.039494 11.9206 1.78979 1.4046
264 2 0.174303 8.80388 4.53178 0.349591
219 3 -0.822345 12.985 0.122754 2.76029
220 3 -0.816215 8.30215 0.88509 2.43458
221 3 -0.800723 7.10501 1.87713 4.76868
134 1 -0.66843 6.98182 5.22553 4.91218
195 4 1.04742 11.5733 -0.600807 8.11528
122 1 -0.66249 9.12541 3.47374 0.000529772
211 2 0.162732 7.19075 2.13 8.24837
22 4 0.982387 6.19916 3.94031 11.8603
148 3 -0.815846 6.41301 -0.837725 16.519
251 2 -0.0254749 13.38 -0.921209 10.5344
77 2 0.150893 7.72782 1.42115 10.0424
49 2 0.0548171 6.99409 -1.08097 14.8835
79 2 0.170013 8.23946 0.500694 11.7337
53 2 0.0650043 6.5837 4.37903 13.6765
86 2 0.159429 8.77564 4.50682 13.219
226 3 -0.830628 10.7638 4.46209 8.68451
124 1 -0.671203 7.57387 0.480281 10.845
127 1 -0.646882 7.85116 4.83821 12.702
158 3 -0.801519 5.13825 5.03797 11.2784
57 2 -0.0113045 8.91466 5.63423 11.3247
207 2 0.130717 11.283 1.20876 9.57179
208 2 0.207169 10.0992 -0.290294 10.0905
209 2 0.185819 9.60362 0.912752 8.61936
210 2 0.0983956 8.79812 2.47576 9.36499
212 2 0.156101 7.33645 3.823 9.18961
215 1 -0.668823 10.4593 0.408682 9.2092
249 2 -0.00028469 6.88458 0.155078 9.00775
78 2 0.174137 7.53644 -0.533332 10.3809
233 4 1.27915 11.1271 -0.882451 14.1579
234 2 -0.00485518 9.78668 -0.321778 13.2034
235 3 -0.837568 11.2724 0.247812 15.176
85 2 0.0392895 7.93344 3.99568 11.1192
265 2 0.152989 8.71329 1.5416 15.6746
248 2 0.00808326 6.76694 1.7071 15.1444
156 3 -0.800264 5.88871 2.3131 11.9584
216 1 -0.675553 13.4923 -0.414886 8.60016
236 3 -0.790445 12.3454 -0.951056 13.1285
217 1 -0.663859 7.86402 2.95229 8.68526
13 4 0.967679 6.33257 0.885675 16.5115
232 4 1.01485 12.0019 0.653967 16.5608