LAMMPS (2 Aug 2023 - Update 2)
  using 2 OpenMP thread(s) per MPI task
New timer settings: style=normal  mode=nosync  timeout=00:00:00
Lattice spacing in x,y,z = 5.43 5.43 5.43
Created triclinic box = (0 0 0) to (10.86 16.29 21.72) with tilt (0 0 0)
  1 by 2 by 4 MPI processor grid
Created 192 atoms
  using lattice units in triclinic box = (0 0 0) to (10.86 16.29 21.72) with tilt (0 0 0)
  create_atoms CPU = 0.001 seconds
Reading sw potential file Si.sw with DATE: 2007-06-11
ERROR: Thermo keyword pxx in variable requires thermo to use/init press (src/thermo.cpp:1187)
Last command: variable pxx0 equal ${tmp}
