ITEM: TIMESTEP
0
ITEM: NUMBER OF ATOMS
274
ITEM: BOX BOUNDS xy xz yz pp pp pp
-8.3797999999999995e+00 1.8013900000000000e+01 -8.3797999999999995e+00
0.0000000000000000e+00 1.3273200000000001e+01 1.1950000000000001e+00
0.0000000000000000e+00 1.6075500000000002e+01 4.3120000000000003e-01
ITEM: ATOMS id type q x y z
119 2 0.0075212 7.36786 1.23302 5.28466
12 4 1.305 -0.996022 6.46192 5.30917
7 4 1.10315 0.911585 2.20187 5.17832
9 4 1.25192 -0.331825 4.73166 1.83393
10 4 1.56671 0.284129 4.42106 7.24978
242 1 -0.686867 3.24523 0.490568 3.16246
21 4 0.814618 5.69452 1.43844 5.70759
26 4 1.25083 5.36384 4.37513 6.80933
41 1 -0.674952 0.975833 0.578701 6.19723
44 1 -0.676659 3.74554 4.01791 1.80979
55 3 -0.791999 1.14621 0.948789 1.12899
56 3 -0.824015 -0.492089 2.41387 4.39565
58 3 -0.777028 -1.69111 4.52008 2.71756
59 3 -0.866589 0.0839074 3.45847 1.04043
243 2 0.151715 3.62683 1.57521 3.21231
61 3 -0.752678 1.3402 3.2916 6.21556
62 3 -0.843133 -0.76045 5.34812 6.44103
74 3 -0.834699 5.87503 0.410019 7.37017
78 3 -0.873428 0.601711 5.4251 2.89604
81 3 -0.818381 5.50346 2.96943 5.94714
84 3 -0.821561 2.81668 5.97011 4.18831
85 3 -0.787787 4.79986 5.67672 5.92532
113 2 0.122332 -1.49554 5.51749 4.0014
111 2 0.0135278 2.19167 1.86469 4.04239
112 2 -0.0330261 -0.645857 5.84599 0.591903
24 4 1.18997 4.69154 4.91019 0.49435
118 2 -0.0319866 4.43867 0.733874 4.75732
5 4 1.31823 0.488812 2.12006 0.212754
222 3 -0.778459 6.32365 1.47272 1.27519
223 2 -0.0929722 6.2608 0.937965 4.00027
141 2 0.171832 3.79251 2.91228 1.54849
142 2 0.206282 2.73639 4.5326 1.70543
143 2 0.188166 4.35252 4.19431 2.79125
220 4 1.01473 6.80863 0.400067 2.33219
82 3 -0.806121 1.37606 5.43766 7.84352
135 2 0.236226 0.537175 0.931526 7.19706
197 2 0.202385 4.39156 0.674817 0.0661422
138 2 0.171264 1.72371 0.526045 12.2345
8 4 1.23808 1.78529 2.61143 10.9725
13 4 1.22899 0.453637 4.92252 12.3227
229 2 -0.00332076 3.61719 6.31791 13.2329
20 4 1.27387 4.65265 2.79423 9.33828
23 4 1.25217 6.99196 2.68823 11.2295
99 3 -0.857958 8.34674 1.11071 8.32404
226 4 0.869347 3.40894 6.27301 14.9338
42 1 -0.670603 2.34974 1.47256 12.3467
57 3 -0.830184 0.398015 2.01805 10.4305
63 3 -0.863994 -0.210938 3.73903 13.2405
64 3 -0.813208 1.88749 4.39672 11.8126
65 3 -0.849742 -2.32572 6.52914 9.61285
66 3 -0.893673 -0.489772 5.50684 11.1961
73 3 -0.754317 3.17463 2.38959 9.91973
75 3 -0.854616 5.64409 3.07222 10.5566
76 3 -0.871427 6.96431 1.25537 11.9012
80 3 -0.772682 4.69046 4.03264 8.49468
29 4 0.961379 3.769 6.62451 11.0175
137 2 0.191371 3.44673 1.33267 12.2612
114 2 -0.0600759 0.948239 6.10766 13.4103
248 2 0.188632 3.77267 3.96156 15.4325
124 2 0.0811498 3.4234 5.11793 11.6822
136 2 0.168818 2.03312 2.10788 13.2542
179 4 1.25347 7.35907 2.5767 15.77
183 1 -0.674001 5.84863 1.64569 15.1456
77 3 -0.747212 7.10068 4.06814 15.8366
60 3 -0.841228 -0.378435 3.49205 8.40343
196 2 0.173207 5.14896 2.52584 14.9174
117 2 0.0801768 5.17463 1.49 8.38122
227 3 -0.818377 4.7773 5.78464 15.5541
195 2 0.213426 6.05351 0.925039 14.2914
245 1 -0.697499 3.03229 3.21119 15.0628
246 2 0.151299 2.46611 3.55493 14.1387
247 2 0.16276 3.52187 2.13002 14.901
262 3 -0.809086 0.379699 1.92245 15.3754
228 2 -0.0245856 2.31341 5.02895 15.2794
266 2 0.0706208 -1.7984 5.164 15.8799
149 2 0.147947 2.35844 9.1946 7.74408
3 3 -0.812518 -5.86273 11.4344 0.92128
268 2 0.165345 -4.71804 8.04023 0.376345
16 4 1.45048 -3.23698 8.18113 6.68801
17 4 1.26904 -4.67138 9.95873 4.75513
154 2 0.188289 1.07849 9.56764 7.40196
161 2 0.188901 -1.08057 10.0526 0.269279
31 4 1.22381 -2.07733 10.3181 3.06329
33 4 1.18558 0.0334129 11.0061 5.5341
48 1 -0.652648 -1.34925 8.97516 1.97632
49 1 -0.6586 0.199523 9.52836 6.68769
122 2 -0.00316891 3.61067 7.95718 5.85314
68 3 -0.832384 -2.03586 7.52347 5.73167
28 4 1.2512 4.10433 6.66027 4.90082
70 3 -0.813178 -4.49552 8.78502 5.80856
79 3 -0.849063 0.440008 7.25918 4.80613
87 3 -0.788869 1.7875 7.71687 2.31779
30 4 1.01154 2.35031 8.25257 0.928859
89 3 -0.757979 -2.21666 11.8225 2.06656
90 3 -0.835646 -3.49483 10.0351 3.6935
93 3 -0.814457 -0.828124 10.7025 4.3199
94 3 -0.827627 -0.298749 12.3079 6.363
115 2 -0.0480396 -4.582 11.3456 5.65336
147 2 0.180671 2.06975 7.70458 6.50523
151 2 0.175528 -0.127962 9.38472 1.54332
152 2 0.177245 -2.16556 8.8821 1.21215
153 2 0.18372 -1.31472 8.11586 2.72868
272 2 0.175119 0.657763 10.276 0.334311
155 2 0.271799 0.243406 8.62417 5.8465
156 2 0.27284 -0.859635 9.50689 7.24184
46 1 -0.664502 2.56186 8.06013 7.47571
148 2 0.169685 3.67649 7.78185 7.54135
271 2 0.162555 1.61594 10.3246 1.98657
19 4 1.39037 -1.00946 12.8219 7.72627
1 4 1.29094 -6.59505 12.5888 2.04898
69 3 -0.841261 -6.07141 9.92282 4.00622
91 3 -0.847432 -2.49921 9.45089 7.82009
265 2 0.198957 -4.31674 12.6763 2.63654
47 1 -0.671046 1.63793 10.0303 0.889911
252 2 0.21683 -5.55387 9.0644 1.80629
244 2 0.129353 -5.51883 12.9054 4.18333
25 4 1.45339 1.45828 6.54935 3.61456
251 1 -0.664431 -5.57429 8.72751 0.689969
133 2 0.146747 -6.35546 12.9992 6.28341
159 2 0.199441 1.43993 10.7554 13.3523
18 4 1.1999 -2.15607 8.20443 12.8027
22 4 1.25716 -0.601027 12.755 11.9942
32 4 0.961218 -2.06159 10.421 8.97513
35 4 1.27447 -1.39557 10.7068 14.2119
43 1 -0.650828 -5.83661 11.1923 14.1677
15 4 1.10914 -4.14393 10.9071 15.9356
157 2 0.213309 1.00717 9.15792 12.4226
51 1 -0.647921 0.134144 11.1188 15.3405
162 2 0.205993 -0.0947966 12.1977 15.5593
72 3 -0.806953 -1.44596 8.30223 11.4292
83 3 -0.800667 0.138217 7.33087 9.30313
158 2 0.166897 1.99667 10.5148 11.5739
92 3 -0.83067 -0.844548 11.3651 8.9508
95 3 -0.834609 3.58315 7.80567 12.0581
96 3 -0.75729 -1.14553 9.08925 13.8612
97 3 -0.835337 -1.30211 11.6318 12.8109
98 3 -0.812002 -2.75814 10.8519 15.1156
116 2 -0.0229162 -3.63971 8.86694 12.7458
120 2 0.0763073 -0.593565 12.103 10.4187
126 2 0.126858 -1.47492 9.40533 10.1766
127 2 -0.0468831 -3.42629 11.1853 9.47775
128 2 0.0726867 2.60797 9.25189 14.2379
140 2 0.169154 -6.05753 12.0576 14.9455
50 1 -0.67201 1.78556 10.0035 12.6091
139 2 0.161035 -5.03117 11.4964 13.4232
160 2 0.16066 1.0733 10.9582 14.7286
88 3 -0.781993 3.17302 7.80479 15.6221
187 3 -0.785829 0.93222 12.909 12.4945
27 4 1.37759 1.68242 6.79413 8.67054
71 3 -0.840538 -2.64064 6.80287 13.4758
14 4 1.52027 -0.908176 6.71623 10.3425
86 3 -0.809613 2.76232 6.77564 9.79324
235 2 0.158058 11.4337 1.4577 3.10554
37 4 1.23805 13.0566 1.96974 5.72219
230 4 1.12617 13.7095 0.197552 2.45872
39 4 1.27536 11.3668 3.93211 7.58946
45 1 -0.67338 7.18251 4.85936 7.03333
54 1 -0.665595 10.4709 5.24548 6.66061
101 3 -0.757505 13.9421 3.11263 4.78181
102 3 -0.862747 13.8525 1.10518 6.7348
221 1 -0.66991 8.68411 0.259341 1.95736
4 4 1.44475 14.9906 2.80804 3.57123
106 3 -0.784379 12.0877 2.92316 6.5626
232 3 -0.824104 14.4076 1.58157 2.65044
129 2 -0.0218593 12.1916 0.8933 4.69625
130 2 0.0812895 7.74545 5.91273 3.07248
169 2 0.22884 10.856 6.25645 7.00033
250 2 0.180021 11.5539 4.82325 0.507261
146 2 0.178401 7.76822 3.97277 6.67848
231 1 -0.667613 11.7398 0.396546 2.84689
145 2 0.173031 7.28541 5.73931 6.34932
170 2 0.176873 9.28331 5.15672 6.78823
171 2 0.189426 10.82 5.0172 5.59456
234 2 0.169427 11.5042 0.0932524 1.75206
224 2 0.176685 8.74918 1.19326 1.2714
249 1 -0.620394 12.4172 5.44491 0.0239366
103 3 -0.758629 5.6399 6.34505 1.24297
225 2 0.134673 9.01081 0.46828 3.041
273 2 0.176621 9.37513 0.121567 0.0409424
207 4 1.30062 14.5558 0.222033 7.75237
11 4 1.51525 13.1002 6.27677 8.97895
36 4 1.32419 9.20947 2.07413 9.20719
52 1 -0.670037 10.5078 0.824795 9.96944
188 3 -0.757304 8.7602 2.01182 14.6576
100 3 -0.829584 8.40475 2.90056 10.3895
107 3 -0.791802 12.6332 4.71835 8.87444
110 2 0.0243404 14.756 2.96031 10.2949
204 2 0.156792 8.04412 6.20945 10.7137
202 2 0.179121 14.0585 3.63861 11.9081
163 2 0.16809 11.4654 1.46368 10.0179
6 4 1.31352 16.052 2.30067 9.37429
165 2 0.238365 10.1282 0.455379 10.9928
172 4 1.00383 16.2384 2.50744 14.1913
173 1 -0.661423 14.6523 1.48832 13.5787
174 2 0.0584674 14.6201 2.7733 14.9585
175 2 0.0911062 15.7238 0.828914 13.1187
176 2 0.162784 14.1128 2.03249 12.6791
144 2 0.17852 7.33768 5.10506 8.14687
178 4 1.10036 13.6239 5.6007 14.3863
180 4 1.26253 9.94502 1.44883 13.8322
181 4 1.28897 11.8989 3.82276 12.6931
205 2 0.171591 9.33953 5.08852 9.42519
185 1 -0.699528 13.1152 3.2049 11.3321
186 1 -0.660991 8.90318 6.27684 9.99764
189 3 -0.778679 10.846 2.64626 13.2283
190 3 -0.826398 12.8753 4.34571 13.846
192 3 -0.757734 11.0315 5.19682 11.9574
263 3 -0.865622 15.4669 1.00842 8.6759
199 2 0.176441 11.9904 1.01605 14.8128
200 2 0.265412 12.958 3.78523 10.2839
201 2 0.132265 12.969 2.0738 11.4168
182 4 1.06008 10.6518 6.25666 10.807
105 3 -0.798022 10.1727 3.09681 8.32524
177 2 0.179664 13.9507 0.748763 14.1335
123 2 -0.0354889 5.33483 6.3418 10.5606
184 1 -0.663932 10.9943 0.518213 14.9637
121 2 0.013438 7.03767 3.86014 12.4876
237 1 -0.676151 7.32248 10.1791 0.0756026
256 2 0.147923 1.42641 11.2738 3.79024
167 2 0.175789 9.1306 7.41726 2.38626
53 1 -0.648571 8.18602 7.40501 2.94133
104 3 -0.823398 5.11818 7.25676 3.85161
233 2 0.158209 2.85059 12.5205 3.62419
125 2 0.0130141 4.04292 8.16502 1.11147
150 2 0.147311 2.55989 10.4664 0.360704
166 2 0.0210685 6.91324 8.54316 2.0737
168 2 0.180877 8.4117 7.80649 3.86983
206 4 1.21358 9.29102 10.3926 3.66099
215 2 0.14992 7.01663 7.96584 6.87726
208 4 1.04635 7.70336 10.2398 6.4366
209 1 -0.653159 6.33796 8.85906 6.51178
255 2 0.159608 2.36677 12.2049 5.24619
211 3 -0.798874 8.25383 10.3519 4.97753
212 3 -0.760654 6.8724 11.7796 7.14293
213 2 -0.00603309 8.65824 9.27742 2.49973
254 1 -0.661064 1.88399 11.2353 4.95497
216 2 0.18943 5.97443 8.75728 5.40645
217 2 0.15211 5.51725 9.24387 7.20793
219 2 0.205995 9.88103 9.10662 7.02271
253 2 0.146463 10.3213 8.33721 0.2707
270 2 0.186384 0.700964 12.2012 1.55158
238 3 -0.791967 5.59665 12.2693 1.00897
240 2 0.159256 8.0283 10.27 0.942034
239 2 0.143871 6.47895 9.36334 0.31222
257 2 0.155108 2.5121 10.3596 5.11208
258 1 -0.673273 5.96888 11.836 3.89103
259 2 0.214656 6.62324 11.1237 3.47107
260 2 0.136933 4.92811 11.4777 4.22537
261 2 0.218149 6.39839 12.5359 4.61252
38 4 0.978302 6.18056 7.00313 2.56063
210 1 -0.663878 9.12898 9.62526 7.65588
134 2 0.229368 8.73204 12.7769 5.60757
2 3 -0.82547 9.21349 11.8641 3.0437
267 2 0.159786 12.4919 6.61898 0.273766
67 3 -0.811584 12.939 6.88688 7.51401
198 2 0.168228 2.58019 12.3083 14.5684
40 4 0.903475 5.97197 11.2766 13.0529
108 3 -0.816609 4.74504 10.2867 12.9053
109 3 -0.826391 6.50931 11.5466 14.4785
214 2 -0.0358408 4.97265 12.4823 8.76916
132 2 -0.0464446 7.42411 10.799 12.3017
236 4 1.07043 7.29875 11.9893 15.774
34 4 1.03043 3.53221 9.27307 12.7385
131 2 -0.0228302 5.66022 12.754 12.4738
193 2 0.0757865 11.1774 9.89394 14.9136
218 2 0.170681 9.55141 10.5542 8.13625
194 2 0.0132871 9.56757 7.47183 11.4225
241 2 0.164096 9.04844 10.2819 15.2272
191 3 -0.783348 11.7987 7.02597 10.0829
264 2 0.0607132 8.93634 12.3924 15.4167
274 2 0.149816 8.64201 8.97193 8.39053
164 2 0.178689 2.05797 12.8339 9.19271
269 2 0.152325 10.0503 11.0331 13.6635
203 2 0.151242 8.67039 7.10564 9.27015
ITEM: TIMESTEP
100
ITEM: NUMBER OF ATOMS
274
ITEM: BOX BOUNDS xy xz yz pp pp pp
-8.3797999999999995e+00 1.8009619333333333e+01 -8.3797999999999995e+00
0.0000000000000000e+00 1.3273200000000001e+01 1.1907193333333339e+00
0.0000000000000000e+00 1.6075500000000002e+01 4.3120000000000003e-01
ITEM: ATOMS id type q x y z
119 2 0.00374634 7.41357 1.18828 5.3044
12 4 1.29628 -1.07048 6.39563 5.27712
7 4 1.12648 0.923048 2.22348 5.15436
9 4 1.21954 -0.510435 4.81099 1.92315
10 4 1.59422 0.341965 4.47631 7.14719
242 1 -0.675464 3.28936 0.559013 3.185
21 4 0.796635 5.71936 1.36028 5.8007
26 4 1.32291 5.33033 4.47482 6.89072
41 1 -0.696397 1.17792 0.590275 6.11188
44 1 -0.675094 3.72511 3.85572 1.83354
55 3 -0.787156 1.18022 1.08421 1.07727
56 3 -0.824392 -0.362734 2.29691 4.21134
58 3 -0.779623 -1.90045 4.54538 2.77671
59 3 -0.821825 -0.111088 3.51172 1.09168
243 2 0.15732 3.48743 1.73183 3.03059
61 3 -0.825011 1.06049 3.52439 6.06427
62 3 -0.831981 -0.860873 5.34523 6.42994
74 3 -0.794669 5.6512 0.370723 7.5311
78 3 -0.869486 0.639358 5.21944 2.92912
81 3 -0.794618 5.38811 2.85276 6.0916
84 3 -0.843625 2.82089 6.14845 4.234
85 3 -0.810562 4.62692 5.59152 6.06522
113 2 0.110895 -1.74307 5.48003 3.99933
111 2 0.0173044 2.41131 1.98488 4.17306
112 2 -0.0162313 -0.682227 6.12896 0.852176
24 4 1.26575 4.7292 4.82039 0.509949
118 2 -0.0209038 4.49614 0.653264 4.7131
5 4 1.30393 0.37414 2.17701 0.208893
222 3 -0.781168 6.26049 1.37415 1.21287
223 2 -0.0982436 6.24121 0.81655 4.00545
141 2 0.180032 4.149 2.77424 1.76196
142 2 0.187923 2.67635 3.93719 1.46669
143 2 0.205071 3.97151 4.55933 2.7744
220 4 1.00957 6.71708 0.320077 2.34417
82 3 -0.784777 1.43723 5.47068 7.92671
135 2 0.217058 0.681799 0.972322 7.10042
244 2 0.130528 2.79892 0.233466 4.21882
133 2 0.151937 2.2864 0.335458 6.27831
25 4 1.49363 1.42741 6.43818 3.65029
138 2 0.162973 1.13774 0.750481 12.3359
8 4 1.2903 1.97871 2.59006 10.8738
13 4 1.26159 0.545536 4.80207 12.2602
229 2 -0.0427751 3.55743 6.53462 13.4465
20 4 1.31632 4.72975 3.00104 9.36079
23 4 1.25876 7.03417 2.71154 11.3458
99 3 -0.833271 8.18195 1.15396 8.33376
226 4 0.879128 3.50012 6.3208 15.0694
42 1 -0.676786 2.10857 1.28017 12.2962
57 3 -0.825246 0.526141 2.33446 10.2656
63 3 -0.867558 -0.238935 3.69607 13.1077
64 3 -0.811012 2.03024 4.22778 11.7881
65 3 -0.79412 -2.24845 6.34372 9.56193
66 3 -0.890531 -0.310927 5.61204 11.2671
73 3 -0.7991 3.29934 2.55467 9.85719
75 3 -0.853254 5.66239 3.10377 10.62
76 3 -0.865235 6.97827 1.24231 11.8853
80 3 -0.818474 4.82138 4.22816 8.38154
29 4 0.984597 3.84484 6.56658 11.1258
137 2 0.173017 2.95602 0.652148 11.9836
114 2 -0.0466408 1.16029 6.0083 13.3439
248 2 0.160867 3.56654 3.71199 15.7087
124 2 0.0512974 3.29896 5.34347 12.0658
136 2 0.185464 2.30143 1.98453 13.2152
179 4 1.24861 7.2691 2.39266 15.7433
183 1 -0.674126 5.87585 1.32973 15.0845
77 3 -0.755832 6.7543 4.126 15.8132
60 3 -0.802712 -0.379806 3.54997 8.34702
196 2 0.172937 4.88617 1.9176 15.205
117 2 0.125074 5.23797 1.58605 8.41067
227 3 -0.839307 4.8836 5.93547 15.5979
195 2 0.214103 6.13718 1.18698 13.9814
245 1 -0.685315 2.91339 3.1394 15.0074
246 2 0.163516 2.42159 3.68147 14.1563
247 2 0.170929 3.40644 2.18564 14.6928
262 3 -0.796127 0.371721 2.1033 15.1351
228 2 -0.0267276 2.40473 5.04121 15.1883
123 2 -0.0319018 5.39426 6.03565 10.8547
86 3 -0.78108 3.01585 6.68379 9.85171
149 2 0.159674 2.22373 9.18863 7.46447
3 3 -0.779735 -5.86335 11.5493 0.928455
268 2 0.186333 -4.13509 8.43292 0.299131
16 4 1.48071 -3.25368 8.17518 6.5758
17 4 1.27051 -4.60051 9.94764 4.65277
154 2 0.184923 0.748186 9.57717 7.50416
161 2 0.194289 -1.04908 10.1668 0.199262
31 4 1.25266 -1.99619 10.2408 3.07334
33 4 1.14593 0.157009 10.9438 5.46677
48 1 -0.635362 -1.32886 8.95104 1.79132
49 1 -0.650816 -0.0383471 9.45623 6.6377
67 3 -0.821073 -3.81195 7.00553 7.54944
68 3 -0.857679 -2.05151 7.53418 5.66765
28 4 1.27465 4.15073 6.63969 4.98616
70 3 -0.826028 -4.48711 8.85605 5.83005
79 3 -0.85269 0.448276 7.09699 4.81908
87 3 -0.795979 1.835 7.6124 2.41089
30 4 0.980868 2.30586 8.07671 0.980894
89 3 -0.764553 -2.08127 11.6428 2.02528
90 3 -0.852768 -3.4406 9.85003 3.59508
93 3 -0.803592 -0.768265 10.5706 4.22922
94 3 -0.805537 -0.328897 12.255 6.22754
115 2 -0.0416855 -4.43789 11.4938 5.40719
147 2 0.202235 1.99226 7.57381 6.54976
151 2 0.187665 -0.16503 9.27077 1.45666
152 2 0.178605 -2.13113 8.94487 0.941279
153 2 0.158004 -1.34877 8.04911 2.5518
272 2 0.186626 0.711247 10.2005 0.197165
155 2 0.266724 0.232728 8.47413 6.01478
156 2 0.280789 -1.13628 9.53799 7.0513
46 1 -0.672389 2.47025 8.09216 7.41683
148 2 0.167742 3.62578 7.93861 7.59117
271 2 0.160351 1.65487 10.1683 1.84794
19 4 1.26182 -1.09598 12.7588 7.76357
1 4 1.29909 -6.52685 12.6595 1.95756
69 3 -0.835892 -6.02432 9.97107 3.95337
91 3 -0.815823 -2.62733 9.55628 7.75214
265 2 0.175081 -4.33869 12.605 2.70387
47 1 -0.657457 1.66885 9.87638 0.747165
252 2 0.221343 -5.10946 8.91754 1.82759
251 1 -0.680654 -5.17122 8.64003 0.716805
159 2 0.194068 1.33209 10.9414 13.1858
18 4 1.23814 -2.15568 8.23015 12.8517
22 4 1.27667 -0.556263 12.7525 12.0139
32 4 0.959431 -2.15067 10.4722 8.9779
35 4 1.21269 -1.35244 10.8441 14.2505
43 1 -0.650706 -5.62186 11.0525 14.0026
15 4 1.05065 -4.13637 10.8131 15.9022
157 2 0.225367 0.905536 9.36127 12.2112
51 1 -0.653865 0.212604 11.2661 15.2499
162 2 0.213345 0.0172881 12.3534 15.3871
72 3 -0.835556 -1.2714 8.00225 11.4664
83 3 -0.785652 0.526735 7.4958 9.45912
158 2 0.158083 2.13691 10.6167 11.3445
92 3 -0.811834 -0.854287 11.321 9.04107
95 3 -0.812978 3.65876 7.96495 11.8728
96 3 -0.750139 -1.27339 8.99407 13.8549
97 3 -0.845188 -1.27067 11.6252 12.7961
98 3 -0.8018 -2.75402 11.0123 15.1608
116 2 -0.0391864 -3.32647 9.25629 12.3236
120 2 0.09846 -0.425348 12.0447 10.4546
126 2 0.0239718 -2.17853 9.59943 10.4017
127 2 -0.0380864 -3.36317 11.2922 9.74967
128 2 0.0563023 2.23369 9.16747 14.0625
140 2 0.178422 -5.88699 11.9688 14.5334
50 1 -0.660946 1.71881 10.1163 12.4117
139 2 0.167146 -4.60415 11.1792 13.5353
160 2 0.149604 1.18249 11.0988 14.5716
88 3 -0.77497 2.73553 7.67508 15.6995
187 3 -0.801918 0.897158 13.0421 12.5982
27 4 1.39623 1.77119 6.85799 8.78938
71 3 -0.840304 -2.73955 6.9446 13.5679
14 4 1.5119 -0.853779 6.81985 10.4666
34 4 1.0295 3.38948 9.29393 12.7076
197 2 0.235363 -2.40492 13.2477 15.7982
235 2 0.167858 11.4993 1.48984 2.86333
37 4 1.20263 13.0322 2.06163 5.76553
230 4 1.09918 13.708 0.220243 2.44023
39 4 1.30944 11.3094 3.9811 7.49274
45 1 -0.672505 7.13656 5.2028 6.99927
54 1 -0.664933 10.4172 5.37946 6.55017
101 3 -0.78098 14.0355 3.16085 4.97156
102 3 -0.834703 13.8483 1.04726 6.80774
221 1 -0.638241 8.59248 0.361717 2.18001
4 4 1.44146 15.0121 2.81149 3.71518
106 3 -0.812997 11.9187 3.01394 6.46508
232 3 -0.813097 14.3677 1.64689 2.76831
129 2 -0.0081181 12.1796 1.13304 4.57797
130 2 0.0836517 7.95587 5.81236 2.95995
169 2 0.220417 10.9211 6.35312 6.94284
250 2 0.178061 11.4566 4.647 0.306888
146 2 0.15832 7.7432 4.4122 6.49305
231 1 -0.659141 11.8176 0.436369 2.7776
145 2 0.178867 7.10484 6.21048 6.46971
170 2 0.184007 9.27167 5.37994 6.6451
171 2 0.182544 10.8245 5.10635 5.49195
273 2 0.184905 9.16124 0.208018 0.234365
224 2 0.175292 8.92736 1.19015 1.49862
225 2 0.112179 8.67155 0.694193 3.39503
103 3 -0.777744 5.67395 6.10136 1.42734
207 4 1.24597 14.6839 0.248413 7.85699
267 2 0.182913 12.2612 6.39326 0.335479
234 2 0.167568 11.4836 0.114649 1.69405
11 4 1.4993 13.0658 6.12591 8.87788
36 4 1.31919 9.20921 2.17497 9.10975
52 1 -0.662998 10.5107 1.0802 9.97867
188 3 -0.794212 8.57327 1.9984 14.8502
100 3 -0.811146 8.32633 2.8188 10.3731
107 3 -0.802154 12.7155 4.57425 8.66178
110 2 0.00492024 14.7873 3.06373 10.4336
204 2 0.164934 8.11721 5.86696 10.8685
202 2 0.158576 13.9827 3.60288 11.8271
163 2 0.171798 11.5775 1.44275 9.95596
6 4 1.34867 16.0301 2.47168 9.37569
165 2 0.242114 10.1299 0.8173 11.0301
172 4 1.01374 16.1418 2.4156 13.9659
173 1 -0.654595 14.3873 1.50712 13.5885
174 2 0.0583255 14.5539 2.80875 14.827
175 2 0.0397717 15.602 0.765916 12.9226
176 2 0.161805 13.8008 2.03927 12.6894
144 2 0.172949 7.41516 5.32576 8.11282
178 4 1.10841 13.7696 5.56823 14.317
180 4 1.23352 9.87006 1.47131 13.8931
181 4 1.33383 11.7857 3.89234 12.655
205 2 0.214578 9.34528 5.02699 9.6197
185 1 -0.677067 12.9945 3.24131 11.2791
186 1 -0.664719 8.99383 6.0065 10.2014
189 3 -0.781357 10.8561 2.51379 13.1227
190 3 -0.830648 12.8047 4.48609 13.763
192 3 -0.826882 10.9853 5.05491 11.9645
263 3 -0.877694 15.5542 1.16413 8.76602
199 2 0.171693 11.836 1.21604 15.1447
200 2 0.258972 12.8542 3.78467 10.1762
201 2 0.136503 12.9185 2.11053 11.1475
182 4 1.07865 10.8008 6.22408 10.9291
105 3 -0.826938 10.1599 3.25416 8.35823
177 2 0.185992 13.7431 0.810327 14.1897
249 1 -0.629481 13.5396 5.75644 15.9776
184 1 -0.652607 10.8802 0.621962 15.1859
121 2 -0.00326124 7.26742 3.71732 12.686
266 2 0.0853588 14.8616 5.10099 16.0536
237 1 -0.671487 7.45843 10.131 0.124269
256 2 0.156548 1.67081 11.3749 3.77691
167 2 0.167243 9.09845 7.56746 2.32699
53 1 -0.629326 8.12315 7.41256 2.87028
104 3 -0.8226 5.35411 7.04188 4.04793
233 2 0.160602 2.9168 12.5845 3.59962
125 2 -0.00675956 3.96844 7.93223 0.901822
150 2 0.149974 2.60338 10.3339 0.213364
166 2 0.0254669 6.99193 8.54668 2.07172
168 2 0.159949 8.16234 7.90603 4.0079
206 4 1.25355 9.31286 10.4317 3.71672
215 2 0.142983 6.32118 8.32673 7.54553
208 4 1.03734 7.68125 10.3575 6.64172
209 1 -0.657441 6.20215 9.03099 6.61091
255 2 0.158602 2.31025 12.2236 5.37001
211 3 -0.785378 8.41103 10.2818 4.9526
212 3 -0.796877 7.02899 11.7191 7.26962
213 2 0.00157073 8.59944 9.35374 2.59192
254 1 -0.675431 1.956 11.2566 4.90544
216 2 0.195139 6.27629 8.57517 5.60193
217 2 0.147687 5.36583 9.87054 6.76108
219 2 0.221948 10.0876 9.41548 7.15904
253 2 0.159894 10.8709 7.91177 0.576933
122 2 0.00606158 3.77929 8.0632 5.93205
238 3 -0.752666 5.52609 12.1993 0.941912
240 2 0.170407 8.03878 10.342 1.05554
239 2 0.131778 6.64598 9.2483 0.300927
257 2 0.141161 2.73087 10.4195 5.0282
258 1 -0.651638 5.94716 11.8318 3.84894
259 2 0.182953 6.60107 11.0981 3.29997
260 2 0.147135 5.0601 11.2914 4.33392
261 2 0.205219 6.55069 12.61 4.48888
38 4 0.995869 6.27688 6.89837 2.62615
210 1 -0.632861 9.18333 9.79625 7.69714
134 2 0.22184 9.0411 12.6847 5.58281
2 3 -0.814605 9.2639 11.8445 2.92146
270 2 0.172427 0.71583 12.1963 1.95536
198 2 0.165128 2.61135 12.423 14.7237
40 4 0.909767 5.73093 11.3668 12.9794
108 3 -0.808992 4.59736 10.3408 12.892
109 3 -0.806541 6.47424 11.4917 14.3869
214 2 -0.038333 5.18391 12.518 8.8781
132 2 -0.0493891 6.81876 10.9852 11.8651
236 4 1.00555 7.32913 11.8191 15.6876
203 2 0.151685 8.89258 6.85091 9.5019
131 2 -0.0243117 5.46501 12.9402 12.3234
193 2 0.061856 11.1993 9.83187 15.0004
218 2 0.169665 9.40416 10.6569 8.43187
194 2 0.000216412 9.64372 7.39421 11.4903
241 2 0.159651 9.33744 10.359 15.2719
191 3 -0.821049 11.7903 6.82146 9.92787
264 2 0.0445271 9.00308 12.2608 15.2915
274 2 0.12464 8.49285 8.89872 8.17303
164 2 0.157353 2.0635 13.0134 9.29612
269 2 0.140664 10.3819 10.9068 13.1777
ITEM: TIMESTEP
200
ITEM: NUMBER OF ATOMS
274
ITEM: BOX BOUNDS xy xz yz pp pp pp
-8.3797999999999995e+00 1.8005338666666667e+01 -8.3797999999999995e+00
0.0000000000000000e+00 1.3273200000000001e+01 1.1864386666666675e+00
0.0000000000000000e+00 1.6075500000000002e+01 4.3120000000000003e-01
ITEM: ATOMS id type q x y z
119 2 -0.00386603 7.31685 1.33544 5.39472
12 4 1.35189 -1.15129 6.47446 5.30609
7 4 1.1445 0.984219 2.34165 4.94953
9 4 1.24386 -0.438565 4.69575 1.88793
10 4 1.61775 0.285088 4.65694 7.22063
242 1 -0.676667 3.34814 0.51575 2.96249
21 4 0.791407 5.68143 1.44463 5.74355
26 4 1.28224 5.41771 4.53669 6.97915
41 1 -0.689278 0.980204 0.733705 5.88218
44 1 -0.649633 3.81421 3.8105 1.85075
55 3 -0.790008 1.00119 1.09834 1.18961
56 3 -0.850122 -0.331355 2.30284 4.11674
58 3 -0.806629 -1.75584 4.40489 2.90562
59 3 -0.847358 -0.13689 3.6456 0.740476
243 2 0.147515 3.58004 1.64047 3.12389
61 3 -0.762048 1.1397 3.51314 6.02522
62 3 -0.856724 -0.724201 5.6199 6.50492
74 3 -0.772392 5.69268 0.368801 7.38678
78 3 -0.836955 0.83697 5.06537 2.68257
81 3 -0.777487 5.42865 2.98385 6.08382
84 3 -0.830639 2.82394 6.03766 4.22421
85 3 -0.791339 4.76112 5.7684 6.12684
113 2 0.0868467 -1.89363 5.47614 4.11577
111 2 0.00405073 2.45112 1.96788 3.97123
112 2 -0.00935879 -0.943911 6.04549 1.02646
24 4 1.24364 4.74667 4.82247 0.564754
118 2 -0.0304376 4.42482 0.964974 4.60047
5 4 1.35443 0.294877 2.16043 0.152006
222 3 -0.773793 6.31733 1.31244 1.29101
223 2 -0.0967301 6.28963 0.853642 4.04361
141 2 0.185363 4.39624 2.82535 1.83663
142 2 0.216622 2.70445 3.81852 1.56565
143 2 0.211381 4.0953 4.43446 2.80086
220 4 1.0062 6.79627 0.325044 2.4027
82 3 -0.843621 1.35921 5.50267 7.98315
135 2 0.258564 0.221615 0.793916 6.66584
25 4 1.454 1.40481 6.4311 3.56722
133 2 0.166715 1.9662 0.5302 6.26774
138 2 0.171575 1.33273 0.591489 11.6947
8 4 1.26827 2.05677 2.6573 10.8841
13 4 1.22237 0.509072 4.83579 12.4376
229 2 -0.0438021 3.61765 6.37416 13.382
20 4 1.30172 4.79434 2.91686 9.42607
23 4 1.24282 7.10199 2.71654 11.4868
99 3 -0.820962 8.10536 1.14017 8.44763
226 4 0.90029 3.34047 6.2349 15.0626
42 1 -0.662428 2.27733 1.09914 11.986
57 3 -0.803819 0.656932 2.39027 10.1264
63 3 -0.864264 -0.391982 3.6334 13.002
64 3 -0.8166 2.00769 4.17263 12.085
65 3 -0.85029 -2.16598 6.32852 9.56141
66 3 -0.852789 -0.0525116 5.59767 11.194
73 3 -0.81239 3.36295 2.47897 9.89925
75 3 -0.817697 5.77098 3.20075 10.6462
76 3 -0.85324 6.91342 1.1833 11.8931
80 3 -0.805037 4.91893 4.17872 8.49717
29 4 0.949002 3.82767 6.59011 11.1062
137 2 0.182653 3.23657 0.631019 11.5858
114 2 -0.0468559 0.603836 5.92585 13.7396
248 2 0.165978 3.47979 3.91043 15.6608
124 2 0.0739871 3.29316 5.1455 11.7803
136 2 0.162038 2.37657 1.35683 13.1276
179 4 1.2739 7.21315 2.30931 15.6815
183 1 -0.670299 5.77272 1.41421 15.002
77 3 -0.745539 6.64768 3.86114 15.7168
60 3 -0.810989 -0.611724 3.69579 8.13806
196 2 0.175332 4.97606 2.23743 14.6508
117 2 0.113722 5.31017 1.564 8.41518
227 3 -0.818671 4.69238 5.8136 15.8029
195 2 0.243884 6.16922 0.692076 14.2104
245 1 -0.658778 2.89728 3.02365 15.0319
246 2 0.187185 2.41989 3.38694 14.0614
247 2 0.163653 3.61764 2.09702 14.8071
262 3 -0.832232 0.336363 2.13423 15.2056
228 2 -0.0123163 2.28648 4.88065 14.861
197 2 0.212119 5.44722 0.797884 15.897
6 4 1.30442 -0.718756 2.52464 9.24749
149 2 0.155449 2.22004 9.25263 7.8296
3 3 -0.797124 -5.94715 11.6626 0.898765
268 2 0.163378 -3.8829 8.5881 0.415217
16 4 1.5118 -3.26555 8.20436 6.61031
17 4 1.25464 -4.57129 9.88017 4.58244
154 2 0.184422 0.964954 9.6383 7.38552
161 2 0.189152 -1.00095 9.94064 0.151078
31 4 1.26418 -1.9423 10.1202 2.85006
33 4 1.12663 0.133238 10.9256 5.30752
48 1 -0.675333 -1.11719 8.74553 1.79961
49 1 -0.642952 0.166523 9.50427 6.58717
67 3 -0.827175 -3.764 6.99037 7.52808
68 3 -0.850084 -2.05052 7.67552 5.72231
28 4 1.22561 4.08176 6.67948 4.95581
70 3 -0.839447 -4.4278 8.80993 5.77545
79 3 -0.845477 0.244397 7.01904 4.74638
87 3 -0.819973 1.58229 7.60271 2.49781
30 4 0.963294 2.17493 8.12299 1.09123
89 3 -0.777209 -1.92622 11.5709 2.06
90 3 -0.836297 -3.40615 9.7104 3.50178
93 3 -0.779659 -0.732355 10.5099 4.03046
94 3 -0.818445 -0.440208 12.1239 6.26959
115 2 -0.0373358 -4.23643 11.4338 5.29475
147 2 0.183899 2.10091 7.67545 6.71235
151 2 0.207907 -0.0977469 9.21746 1.49835
152 2 0.162068 -1.83157 8.36926 1.00147
153 2 0.188628 -0.94336 7.94388 2.5811
272 2 0.169792 0.640656 10.1936 0.233091
155 2 0.259524 0.361665 8.57244 5.9055
156 2 0.29397 -0.888425 9.50072 7.11811
46 1 -0.661362 2.52535 8.13856 7.58807
148 2 0.185214 3.60935 7.89321 7.70473
271 2 0.165122 1.57804 10.1858 1.98714
19 4 1.28039 -1.08115 12.6663 7.73574
1 4 1.34036 -6.57253 12.6733 1.92613
69 3 -0.827255 -6.06736 9.9872 4.01396
91 3 -0.838994 -2.51334 9.53238 7.78215
265 2 0.184707 -4.27625 12.8432 2.23399
47 1 -0.670954 1.65128 9.91104 0.867682
252 2 0.230756 -4.91883 9.02109 2.0341
251 1 -0.665476 -4.94243 8.83197 0.849852
134 2 0.24465 -7.69254 12.7461 5.15114
244 2 0.131677 -5.23334 12.787 3.98017
122 2 -0.000249129 3.62929 8.04311 5.88553
2 3 -0.811246 -7.50756 11.9531 3.03131
270 2 0.174164 0.492704 12.2565 1.82901
159 2 0.18548 1.19562 10.7308 13.1881
18 4 1.19361 -2.08612 8.22028 12.8601
22 4 1.2651 -0.552998 12.7526 12.0141
32 4 1.00547 -2.21649 10.4069 8.96027
35 4 1.27875 -1.36839 10.7261 14.2307
43 1 -0.642395 -5.57729 10.8316 13.9615
15 4 1.04912 -4.02102 10.8485 15.9462
157 2 0.22023 0.875006 9.05214 12.148
51 1 -0.644786 0.147329 11.1769 15.369
162 2 0.220766 0.0142854 12.2351 15.7168
72 3 -0.854739 -1.39832 7.97712 11.448
83 3 -0.772452 0.204029 7.54009 9.44636
158 2 0.147643 1.86773 10.5602 11.2361
92 3 -0.817277 -0.96461 11.288 9.08717
95 3 -0.778471 3.69291 7.97483 11.932
96 3 -0.799796 -1.12197 9.19085 13.9097
97 3 -0.836639 -1.2783 11.7028 12.9174
98 3 -0.80106 -2.73764 11.1849 15.1573
116 2 -0.0486274 -3.65813 8.93222 12.7238
120 2 0.0945664 -0.46808 12.024 10.4692
126 2 0.0260181 -2.35124 9.38887 10.3237
127 2 -0.0481037 -3.59447 11.1654 9.54796
128 2 0.0378728 2.28885 9.46399 14.0533
140 2 0.159249 -5.98541 11.8763 14.3099
50 1 -0.649294 1.55559 9.98027 12.3493
139 2 0.160337 -4.68137 10.9967 13.3187
160 2 0.151183 1.03074 11.0662 14.6728
88 3 -0.754153 2.71835 7.53621 15.7383
187 3 -0.797562 0.91431 13.0734 12.5845
27 4 1.37896 1.76299 6.79231 8.85298
71 3 -0.852754 -2.46555 6.85941 13.6089
14 4 1.56099 -0.862043 6.83565 10.3985
34 4 1.00203 3.33586 9.53218 12.6155
86 3 -0.825277 2.95515 6.7031 9.82242
235 2 0.168337 11.5117 1.62069 3.18877
37 4 1.26985 13.0379 2.01085 5.82745
230 4 1.10166 13.6117 0.114734 2.46746
39 4 1.26799 11.2406 3.96318 7.45171
45 1 -0.660603 7.2656 5.05423 7.02132
54 1 -0.63756 10.5141 5.50089 6.62043
101 3 -0.806377 14.078 2.91207 5.02459
102 3 -0.845459 13.7699 1.10551 6.84764
221 1 -0.64583 8.673 0.494613 2.31717
4 4 1.46382 15.0256 2.68008 3.68196
106 3 -0.811539 11.7293 2.86913 6.35648
232 3 -0.811968 14.259 1.55641 2.76696
129 2 0.00527831 12.214 0.988183 4.65371
130 2 0.0230152 7.66054 5.60694 3.57084
169 2 0.228193 10.979 6.36907 7.2097
250 2 0.176211 11.5215 4.68723 0.259167
146 2 0.165871 7.88054 4.22502 6.46831
231 1 -0.654996 11.7024 0.542109 2.83603
145 2 0.158277 7.4148 6.09597 6.51123
170 2 0.176745 9.26401 5.35686 6.72731
171 2 0.176601 10.9334 5.26919 5.5496
273 2 0.18152 9.20627 0.308741 0.321873
224 2 0.171181 9.16586 1.38651 1.80687
225 2 0.136572 8.92466 0.441775 3.46248
103 3 -0.799783 5.68092 5.78382 1.58196
207 4 1.26038 14.7138 0.283388 7.89179
234 2 0.177534 11.3612 0.368433 1.82371
267 2 0.181334 12.3688 6.41091 0.418985
11 4 1.5417 13.21 6.1571 8.95691
36 4 1.26506 9.08314 2.19476 9.24207
52 1 -0.688759 10.3871 1.10374 10.0099
188 3 -0.810068 8.47001 2.02058 14.728
100 3 -0.822435 8.3051 2.93143 10.4713
107 3 -0.769038 12.6903 4.60237 8.5927
110 2 0.0103505 14.6985 2.946 10.1911
204 2 0.17267 7.90577 5.94962 10.5462
202 2 0.178719 14.0313 3.4689 11.6945
163 2 0.165787 11.3845 1.57046 9.92252