ITEM: TIMESTEP
0
ITEM: NUMBER OF ATOMS
274
ITEM: BOX BOUNDS xy xz yz pp pp pp
-8.3797999999999995e+00 1.8013900000000000e+01 -8.3797999999999995e+00
0.0000000000000000e+00 1.3273200000000001e+01 1.1950000000000001e+00
0.0000000000000000e+00 1.6075500000000002e+01 4.3120000000000003e-01
ITEM: ATOMS id type q x y z
119 2 -0.00430576 7.37526 1.23518 5.25322
12 4 1.32239 -0.870909 6.3079 5.31647
7 4 1.14708 0.920894 2.09119 5.10743
9 4 1.24686 -0.422304 4.69065 1.86353
10 4 1.60781 0.372093 4.30644 7.31615
242 1 -0.676458 3.2936 0.584475 2.89345
21 4 0.808633 5.74105 1.46597 5.6585
26 4 1.26594 5.45717 4.55075 6.8884
41 1 -0.651264 0.754564 0.419044 5.99651
44 1 -0.66675 4.14965 3.77198 1.7531
55 3 -0.811344 1.11186 0.899791 1.07573
56 3 -0.843998 -0.36477 2.34832 4.32122
58 3 -0.78699 -1.75035 4.45071 2.76404
59 3 -0.831363 -0.0398458 3.36975 1.10913
243 2 0.159851 3.44574 1.7237 2.84851
61 3 -0.780314 1.19579 3.06768 6.2823
62 3 -0.852736 -0.624353 5.22379 6.42569
74 3 -0.790243 5.49457 0.393369 7.29962
78 3 -0.859426 0.74192 5.4181 2.67125
81 3 -0.777132 5.78223 2.98415 5.98138
84 3 -0.80825 2.99553 5.82697 4.14497
85 3 -0.832046 5.02397 5.78172 5.95211
113 2 0.110628 -1.45835 5.38447 3.98952
111 2 -0.00472518 2.27113 1.88708 4.0131
112 2 -0.0212 -0.962387 5.56263 0.529897
5 4 1.35853 0.371247 2.02738 0.227848
118 2 -0.0308404 4.53757 1.07611 4.32878
24 4 1.29593 4.95359 4.93586 0.439556
222 3 -0.787215 6.2497 1.35716 1.11943
223 2 -0.0992495 6.22703 0.867697 3.89463
141 2 0.194712 4.46764 2.69365 1.65969
142 2 0.190067 3.02201 3.93733 1.66115
143 2 0.189232 4.56617 4.30483 2.68781
220 4 1.01825 6.72519 0.241763 2.22281
135 2 0.244275 0.578529 0.594354 7.0986
82 3 -0.822993 1.51881 5.26651 7.92498
267 2 0.171267 -3.66096 6.26892 0.406547
244 2 0.12263 3.0248 0.174358 3.94263
138 2 0.172251 1.56067 0.744134 12.3912
8 4 1.2567 1.85377 2.68574 10.9737
13 4 1.23629 0.404794 4.95639 12.3105
229 2 -0.0378213 3.61064 6.37989 13.4966
20 4 1.29109 4.44144 2.89803 9.20296
23 4 1.2533 6.9386 2.93318 11.1909
99 3 -0.821677 7.9036 1.25761 8.40017
226 4 0.913724 3.52429 6.38263 15.1746
42 1 -0.658868 2.32239 1.5448 12.4098
57 3 -0.822094 0.43769 2.07572 10.382
63 3 -0.86395 -0.340257 3.91674 13.3556
64 3 -0.830473 1.83622 4.3766 11.9884
65 3 -0.827254 -2.38818 6.30293 9.54181
66 3 -0.878427 -0.515562 5.3899 11.0602
73 3 -0.829271 3.12022 2.56812 9.96057
75 3 -0.860841 5.69766 2.92454 10.2184
76 3 -0.841993 7.08537 1.60524 12.0438
80 3 -0.793973 4.48281 4.12681 8.18656
123 2 -0.0526674 5.1666 6.00262 10.8331
137 2 0.172914 3.33331 1.13195 12.0166
114 2 -0.0295307 0.789442 6.32667 13.2582
248 2 0.169683 3.52164 3.94964 15.8902
124 2 0.0582283 3.25893 5.21513 12.0746
136 2 0.177232 2.5007 2.16767 13.451
179 4 1.25595 7.24098 2.43971 15.6814
183 1 -0.669144 5.86945 1.49881 14.809
77 3 -0.747637 6.92659 4.16882 15.6921
60 3 -0.846417 -0.474363 3.49288 8.35773
196 2 0.181042 5.35728 2.21835 14.2122
117 2 0.110626 4.85345 1.45918 8.31862
227 3 -0.835922 4.90589 5.95077 15.7567
195 2 0.287801 6.39802 0.598733 14.2062
245 1 -0.679701 2.99421 3.21647 15.1884
246 2 0.158066 2.64565 3.7133 14.2363
247 2 0.171234 3.73742 2.39459 14.9381
262 3 -0.829843 0.332272 2.03789 15.369
228 2 -0.0227955 2.42613 5.11969 15.2886
14 4 1.56157 -0.990419 6.61829 10.2676
29 4 0.954947 3.65172 6.58993 11.1706
266 2 0.0937312 -1.59069 4.8253 15.8203
121 2 -0.0213482 6.74854 4.2489 12.2576
197 2 0.192265 5.29069 1.16496 15.7809
86 3 -0.829045 2.73407 6.60447 9.92363
27 4 1.36733 1.78263 6.64227 8.69417
15 4 1.03115 -5.17511 10.1581 0.0284757
3 3 -0.786448 -5.74092 11.5133 0.967686
268 2 0.23355 -4.38982 8.65074 1.56036
16 4 1.50821 -3.09373 7.97488 6.56486
17 4 1.24248 -4.49623 9.87467 4.72632
154 2 0.17109 1.07727 9.54171 7.27848
161 2 0.189033 -0.983851 10.0789 0.503756
31 4 1.21456 -2.0736 10.2075 2.97162
33 4 1.16018 -0.0589194 11.071 5.50767
48 1 -0.655185 -0.99241 8.88163 2.07454
49 1 -0.633345 0.1378 9.46859 6.57262
272 2 0.175223 0.800239 10.3225 0.346656
68 3 -0.863699 -1.87127 7.40807 5.65391
28 4 1.28497 4.21536 6.56153 4.91333
70 3 -0.825578 -4.22226 8.71352 5.73358
79 3 -0.847523 0.567658 7.09686 4.86674
87 3 -0.815838 1.97382 7.83524 2.62123
30 4 1.02412 2.31539 8.2206 1.10573
89 3 -0.763424 -2.06047 11.6222 1.88737
90 3 -0.812149 -3.55359 9.73837 3.3139
93 3 -0.81485 -1.01775 10.6692 4.29481
94 3 -0.808952 -0.539052 12.1423 6.54333
115 2 -0.0378913 -4.03097 11.2986 5.50983
147 2 0.185 2.05724 7.52188 6.52288
151 2 0.185696 0.00644404 9.38375 1.56015
152 2 0.161086 -1.62503 8.42768 1.25377
153 2 0.194907 -0.817708 8.20562 3.01825
251 1 -0.670879 -5.32591 8.5341 0.951386
155 2 0.280244 0.23433 8.54924 5.85781
156 2 0.29817 -0.926382 9.3979 7.12251
46 1 -0.671346 2.59995 7.95251 7.48116
148 2 0.167353 3.69692 7.67343 7.58859
265 2 0.193436 -4.25197 12.8225 2.43286
19 4 1.3601 -1.33312 12.8326 7.85669
1 4 1.29541 -6.53924 12.526 1.9059
69 3 -0.802784 -6.01343 9.93971 4.32228
91 3 -0.820738 -2.41525 9.32328 7.81287
271 2 0.17154 1.75564 10.434 1.98743
47 1 -0.667403 1.77714 10.0502 0.958638
25 4 1.42154 1.58706 6.55171 3.57003
122 2 0.0109183 3.57705 7.92472 5.791
149 2 0.144146 2.38553 9.10864 7.61191
133 2 0.140556 -6.54265 12.8413 5.82168
270 2 0.183806 0.588865 12.115 1.71841
159 2 0.193034 1.10828 9.70949 11.5158
18 4 1.22621 -1.93069 8.33392 12.8931
22 4 1.18641 -0.668922 12.9684 12.183
32 4 0.95538 -2.25361 10.2485 9.042
35 4 1.18736 -1.21026 10.6867 14.5043
50 1 -0.650687 2.00582 10.3963 11.7131
160 2 0.153101 1.09091 10.8936 14.7839
158 2 0.241033 1.60032 11.4479 12.0722
51 1 -0.633025 0.252588 11.2309 15.5242
162 2 0.227345 0.167233 12.3564 15.638
72 3 -0.828669 -1.46252 7.96864 11.3902
83 3 -0.783009 0.116057 7.14801 9.21939
88 3 -0.785431 2.93055 7.71824 15.8671
92 3 -0.802013 -1.20242 11.3939 8.96965
95 3 -0.797621 3.64879 7.95372 12.0081
96 3 -0.794265 -0.889657 9.08144 13.7778
97 3 -0.794685 -1.49396 12.0601 13.2221
98 3 -0.784038 -2.5003 10.7594 15.4083
116 2 -0.046248 -3.40839 9.14672 12.6924
120 2 0.0297379 -0.695721 12.1967 10.6843
126 2 0.0711295 -1.91684 9.20631 10.3753
127 2 -0.0468747 -3.81161 10.752 9.42328
128 2 0.0402822 2.14943 9.85413 13.5357
139 2 0.164998 -4.3952 10.995 13.6586
187 3 -0.79573 0.91779 12.955 12.651
43 1 -0.662525 -5.41795 10.9178 14.1418
71 3 -0.846104 -2.37068 7.02219 13.6579
140 2 0.180322 -5.63558 11.8355 14.7133
235 2 0.163432 11.5676 1.3061 2.88034
37 4 1.27457 12.9885 1.99468 5.6344
221 1 -0.651448 8.60957 0.273993 2.04274
39 4 1.26378 11.2397 3.94265 7.48412
45 1 -0.660942 7.13351 5.12681 7.57796
54 1 -0.662012 10.5205 5.38327 6.55
101 3 -0.815263 13.9003 2.96946 4.79713
102 3 -0.850864 13.8235 1.08148 6.59441
250 2 0.180121 11.9338 4.65367 0.458325
4 4 1.45879 14.996 2.72619 3.67788
106 3 -0.789745 11.8742 2.93601 6.37502
232 3 -0.802769 14.429 1.4913 2.72362
129 2 -0.00842532 11.9848 1.07481 4.53978
130 2 0.0746833 7.65181 5.85509 3.35369
169 2 0.249807 10.9994 6.37438 6.78828
207 4 1.24693 14.4695 0.326107 7.83836
146 2 0.193647 7.84856 4.44923 7.05703
103 3 -0.798855 5.89096 6.18144 1.21274
145 2 0.158414 7.36935 6.24593 7.38403
170 2 0.178357 9.4157 5.34081 6.81183
171 2 0.189239 10.7804 4.96578 5.45187
225 2 0.115101 8.80617 0.522978 3.21792
224 2 0.177192 9.0413 1.07162 1.38943
231 1 -0.648771 11.7726 0.229141 2.77737
273 2 0.180715 9.33075 0.202628 0.0969628
11 4 1.48473 13.059 6.02134 8.74315
36 4 1.24569 8.99666 2.25869 9.22474
52 1 -0.689425 10.2968 1.21043 10.0875
186 1 -0.665773 8.82034 6.15137 9.86454
100 3 -0.801482 8.30757 3.27637 10.3817
107 3 -0.789432 12.7101 4.40815 8.65194
110 2 0.0102344 14.7519 2.79914 10.4789
105 3 -0.795935 9.93635 3.29466 8.14665
202 2 0.172834 14.0062 3.7096 11.8234
163 2 0.176088 11.1359 2.00546 10.1445
144 2 0.194458 7.04349 4.89791 8.7352
165 2 0.231629 9.94449 0.805367 11.0756
172 4 0.999875 16.1065 2.61629 14.1679
173 1 -0.662027 14.3795 1.6926 13.6759
174 2 0.062673 14.4365 2.94138 14.9724
175 2 0.0592569 15.6567 1.20306 13.0235
176 2 0.167885 13.8598 2.23922 12.8778
184 1 -0.658062 10.9617 0.662469 15.0693
178 4 1.10899 13.9335 5.74588 14.3687
180 4 1.24546 9.88992 1.58895 13.881
181 4 1.30155 11.8601 3.98023 12.6702
205 2 0.203378 9.22065 5.15999 9.11705
185 1 -0.686971 13.0581 3.23796 11.3086
177 2 0.175278 13.7208 0.840721 14.0923
189 3 -0.777309 10.808 2.79762 13.2885
190 3 -0.802927 12.8158 4.73603 13.7555
192 3 -0.763518 11.1102 5.08758 11.7305
263 3 -0.845918 15.577 1.01732 8.69487
199 2 0.173557 11.9609 1.19628 14.9621
200 2 0.267531 12.8562 3.62254 10.2188
201 2 0.124221 12.8977 2.09896 11.5485
182 4 1.02492 10.5621 6.2237 10.6024
204 2 0.168597 8.23047 5.76705 10.7453
6 4 1.32517 16.0381 2.35191 9.3862
164 2 0.154056 10.3966 0.391481 9.23915
188 3 -0.75985 8.61372 2.09225 14.724
249 1 -0.645848 14.066 5.66186 16.0516
237 1 -0.668663 7.75062 10.6967 0.173139
257 2 0.158755 2.33971 10.9715 5.85662
167 2 0.172494 8.89989 7.07153 1.83891
53 1 -0.645377 8.23918 7.33349 2.67975
104 3 -0.789864 5.16134 7.1535 3.85553
134 2 0.247777 8.42772 12.6953 5.46272
125 2 -0.00944633 3.97307 8.37229 0.815038
2 3 -0.82117 9.32754 11.7866 3.13735
166 2 0.0314642 7.3248 8.53641 2.06848
168 2 0.169082 8.89749 7.70984 3.53288
206 4 1.22369 9.32321 10.3809 3.85789
215 2 0.162267 4.94886 9.60844 6.98421
208 4 1.02964 7.41474 10.3722 6.64907
209 1 -0.664496 5.85962 9.18903 6.47797
255 2 0.150005 1.61427 12.5205 4.98746
211 3 -0.767279 8.40852 10.3397 5.13367
212 3 -0.7672 6.68925 11.7902 7.29092
213 2 -0.0112923 8.97652 9.1741 2.7066
254 1 -0.678825 1.74339 11.3948 5.03264
216 2 0.160257 6.17969 8.25624 6.95547
217 2 0.180139 5.70786 9.03182 5.33656
230 4 1.09948 5.35446 12.8695 2.599
234 2 0.185519 3.16243 12.7158 1.67722
253 2 0.154247 11.5074 7.64138 0.230441
238 3 -0.792758 5.42968 12.0943 1.09009
240 2 0.168113 8.05037 10.9622 1.25345
38 4 0.966091 6.3458 6.95343 2.46496
233 2 0.155227 2.83369 12.4003 3.66321
258 1 -0.695958 5.78035 11.7157 4.08908
259 2 0.166554 6.58995 11.0245 3.64565
260 2 0.157904 4.81466 11.2182 4.30107
261 2 0.223189 6.21782 12.2654 4.93941
274 2 0.199575 9.50277 9.60744 7.70546
150 2 0.149656 2.75872 10.4087 0.388518
252 2 0.151726 10.4573 8.67628 1.51989
256 2 0.150156 2.02139 10.9326 3.97623
239 2 0.0984941 7.03245 9.52679 0.0611419
67 3 -0.836249 13.0757 6.7471 7.2725
198 2 0.173462 2.61682 12.4514 14.6111
40 4 0.92241 5.92209 11.4907 12.9209
108 3 -0.839401 4.69135 10.6065 12.8154
109 3 -0.780903 6.63939 11.6211 14.3111
214 2 -0.0505913 4.89377 12.6989 8.90337
132 2 -0.0445662 6.88582 11.0506 11.6505
236 4 0.992835 7.33205 11.941 15.8866
203 2 0.163274 8.34992 6.93033 9.24635
131 2 -0.0218271 5.60355 13.0574 12.4133
193 2 0.0581133 11.3192 9.66496 15.12
218 2 0.125598 7.77601 8.7584 8.23918
194 2 0.00281063 9.44303 7.32232 11.3151
241 2 0.1726 9.88346 10.9953 15.4963
269 2 0.161316 10.5837 10.7866 13.4498
264 2 0.116653 8.76239 12.9772 15.7122
219 2 0.182261 8.43222 10.5683 8.86539
34 4 1.00253 3.55508 9.62049 12.4888
191 3 -0.780697 11.6663 6.81354 9.6142
157 2 0.120326 2.70845 10.4495 10.5719
210 1 -0.644787 8.49221 9.75091 8.0876
ITEM: TIMESTEP
100
ITEM: NUMBER OF ATOMS
274
ITEM: BOX BOUNDS xy xz yz pp pp pp
-8.3797999999999995e+00 1.8013900000000000e+01 -8.3797999999999995e+00
0.0000000000000000e+00 1.3273200000000001e+01 1.1950000000000001e+00
0.0000000000000000e+00 1.6397010000000002e+01 4.3120000000000003e-01
ITEM: ATOMS id type q x y z
119 2 -0.00180636 7.42464 1.10168 5.22323
12 4 1.32072 -0.871063 6.39478 5.25817
7 4 1.13818 0.844793 2.12148 5.06203
9 4 1.25411 -0.461419 4.6783 1.79312
10 4 1.60113 0.42611 4.34043 7.17421
242 1 -0.693211 3.34937 0.521704 3.04853
21 4 0.835762 5.83996 1.3676 5.6654
26 4 1.19093 5.42795 4.38293 6.89962
41 1 -0.664141 0.751613 0.458187 5.99428
44 1 -0.683677 3.97519 4.03217 1.97758
55 3 -0.837762 1.1084 0.878893 1.20659
56 3 -0.853089 -0.509058 2.28513 4.32227
58 3 -0.804208 -1.71833 4.46546 2.74207
59 3 -0.860937 0.0985758 3.38522 1.06076
243 2 0.165002 3.57937 1.58183 3.01623
61 3 -0.808175 1.14624 3.27857 6.08924
62 3 -0.859965 -0.539369 5.37755 6.41689
74 3 -0.780294 5.60943 0.280836 7.30352
78 3 -0.877916 0.707107 5.35136 2.63962
81 3 -0.789419 5.60738 2.82303 5.95154
84 3 -0.817268 2.9748 5.93425 4.09151
85 3 -0.785911 4.80643 5.62729 5.78464
113 2 0.113737 -1.43264 5.40435 3.96872
111 2 0.00192094 2.24 1.85918 4.04144
112 2 -0.0143066 -0.825947 5.96837 0.744554
5 4 1.39296 0.505526 2.04483 0.320024
118 2 -0.0175195 4.6781 0.937437 4.46293
24 4 1.25336 4.72516 4.87666 0.431793
222 3 -0.764508 6.2637 1.47402 1.06166
223 2 -0.0806123 6.32754 0.773197 3.82328
141 2 0.179418 4.28831 2.99857 1.96487
142 2 0.190594 2.79516 4.1535 1.8676
143 2 0.225534 4.44609 4.63 2.77169
220 4 1.01521 6.81492 0.369845 2.11884
135 2 0.221704 0.813248 0.739839 7.08627
25 4 1.45798 1.58306 6.41932 3.44682
267 2 0.176346 -3.50658 6.2539 0.253873
248 2 0.162136 2.24436 3.52607 0.0725842
138 2 0.151468 1.14011 0.89212 12.7006
8 4 1.18141 1.85357 2.65672 11.1799
13 4 1.27656 0.354851 4.93899 12.4196
229 2 -0.0348487 3.49583 6.44539 13.3303
20 4 1.31718 4.56683 2.7757 9.30838
23 4 1.28987 7.00099 2.96813 11.2072
99 3 -0.810638 7.8607 1.15481 8.55349
226 4 0.935644 3.41122 6.34089 15.1037
42 1 -0.663446 2.12266 1.53241 12.6047
57 3 -0.781899 0.291015 2.26002 10.5095
63 3 -0.851927 -0.360254 3.89306 13.3967
64 3 -0.82833 1.77976 4.41827 11.94
65 3 -0.863496 -2.28658 6.24114 9.57182
66 3 -0.849879 -0.683705 5.36746 11.373
73 3 -0.769085 3.23361 2.39755 10.0113
75 3 -0.859298 5.6703 2.9936 10.3648
76 3 -0.843601 7.00438 1.57745 11.9165
80 3 -0.759081 4.55257 4.04683 8.35308
86 3 -0.795614 2.81736 6.58479 9.99168
137 2 0.167672 3.03098 0.935031 12.1935
114 2 -0.0319729 0.746378 6.33382 13.3682
197 2 0.164094 5.27679 1.31983 15.468
124 2 0.0650098 3.28198 5.18448 11.9927
136 2 0.187792 2.4673 2.14 13.6468
179 4 1.27047 7.32383 2.55871 15.472
183 1 -0.675924 5.90637 1.68362 14.5682
77 3 -0.742525 6.91365 4.10251 15.5654
60 3 -0.819258 -0.409954 3.52056 8.2946
196 2 0.173618 5.42071 2.47116 13.9325
117 2 0.109182 5.0641 1.374 8.42285
227 3 -0.844545 4.76852 5.84695 15.5806
195 2 0.252353 6.173 0.715406 13.9898
245 1 -0.655192 3.08511 3.25297 15.2393
246 2 0.152101 2.64034 3.77507 14.3543
247 2 0.156517 4.10222 2.58816 14.9658
262 3 -0.798206 0.613287 2.09591 15.3318
228 2 -0.0205899 2.21477 5.12081 15.3011
14 4 1.46792 -0.943723 6.58979 10.2856
29 4 0.906225 3.79135 6.6173 11.261
266 2 0.0718264 -1.55299 4.63969 15.4987
27 4 1.42295 1.68315 6.53783 8.89028
121 2 -0.0131317 6.85396 4.10226 12.4422
82 3 -0.78494 1.59258 5.15464 8.04679
270 2 0.170083 0.41407 12.123 1.39279
3 3 -0.767851 -5.82274 11.255 1.058
268 2 0.226358 -4.81357 8.63332 1.92223
16 4 1.46342 -3.18724 7.91845 6.52661
17 4 1.23905 -4.48557 9.83957 4.74472
154 2 0.165292 0.825205 9.32204 7.55043
161 2 0.186767 -1.03394 10.13 0.340247
31 4 1.26118 -1.98422 10.3304 3.00322
33 4 1.09668 0.115962 10.9842 5.56707
48 1 -0.649024 -1.09805 8.93843 1.98731
49 1 -0.663033 0.043771 9.37312 6.65276
272 2 0.174567 0.809345 10.2789 0.271431
68 3 -0.852485 -1.90623 7.5132 5.57765
28 4 1.23056 4.18555 6.63714 4.84207
70 3 -0.815463 -4.39296 8.57052 5.66105
79 3 -0.825929 0.552584 7.06351 4.84132
87 3 -0.796618 1.93309 7.71842 2.51713
30 4 0.951541 2.55595 8.2945 1.14386
89 3 -0.785668 -2.13292 11.7468 2.00595
90 3 -0.827846 -3.36248 9.79645 3.55589
93 3 -0.781228 -0.852327 10.7063 4.22136
94 3 -0.818881 -0.384693 12.2087 6.50616
115 2 -0.0190414 -4.11973 11.1778 5.7403
147 2 0.224823 1.77931 7.50542 6.52148
151 2 0.197822 -0.0907729 9.34535 1.55464
152 2 0.173229 -1.87786 8.71153 1.18361
153 2 0.189195 -1.06307 8.13851 2.87708
251 1 -0.655874 -5.40665 8.47129 0.995056
155 2 0.273141 0.21461 8.55717 5.87009
156 2 0.273848 -1.07732 9.29185 7.08859
46 1 -0.656007 2.36094 7.78184 7.45447
148 2 0.167775 3.45956 7.4556 7.53973
133 2 0.176303 -6.73144 12.7029 5.57774
19 4 1.36535 -1.30448 12.6425 7.85861
1 4 1.29444 -6.57666 12.5671 2.06807
69 3 -0.809607 -6.0504 10.1966 4.32882
91 3 -0.849153 -2.59217 9.28206 7.79916
122 2 0.00651083 3.55149 7.85178 5.85365
47 1 -0.650538 1.77475 9.97303 0.905282
149 2 0.146087 2.13615 8.85795 7.82053
244 2 0.141096 -5.32809 12.8362 4.05183
253 2 0.163564 -4.96703 7.68016 0.294105
265 2 0.204246 -4.26552 12.6926 2.50911
271 2 0.165138 1.59138 10.1653 2.03965
159 2 0.204409 1.0061 9.82921 12.0211
18 4 1.22295 -1.97396 8.32042 12.8798
22 4 1.21263 -0.593974 13.0371 12.0433
32 4 0.969682 -2.37993 10.1506 9.02369
35 4 1.22971 -1.25258 10.8006 14.3183
50 1 -0.66362 1.89422 10.5785 11.878
160 2 0.159559 1.09545 11.0268 14.7539
158 2 0.237665 1.58451 11.7016 12.0964
51 1 -0.642014 0.218932 11.2799 15.4581
162 2 0.202982 0.0998448 12.3758 15.7475
72 3 -0.800035 -1.32839 8.12504 11.4913
83 3 -0.86039 0.333051 7.14857 9.37896
88 3 -0.733254 2.93921 7.6641 15.8036
92 3 -0.846311 -1.54996 11.4834 9.15688
95 3 -0.786401 3.6164 8.09688 12.008
96 3 -0.780698 -0.946959 9.24912 13.7206
97 3 -0.828029 -1.25683 12.0248 13.1207
98 3 -0.771349 -2.62752 10.6757 15.309
116 2 -0.0413079 -3.24349 9.34839 12.6139
120 2 0.0785937 -0.832224 12.2662 10.5583
126 2 0.0893834 -1.73345 9.07621 10.2043
127 2 -0.0331577 -3.84602 10.5959 9.812
128 2 0.0374837 2.3335 10.0311 13.6824
139 2 0.170023 -4.18614 11.0715 13.6632
140 2 0.169918 -5.51153 12.0475 14.549
43 1 -0.647163 -5.25636 11.0863 14.0479
71 3 -0.823171 -2.47123 6.94479 13.6052
157 2 0.122142 2.36634 10.5757 10.6776
269 2 0.146047 -5.93054 11.0432 13.1017
15 4 1.04623 -4.11634 10.6104 16.0729
235 2 0.166989 11.5158 1.39408 3.05602
37 4 1.29813 13.0178 2.06429 5.70662
221 1 -0.674489 8.69738 0.216353 2.11316
39 4 1.26576 11.2497 3.94 7.39145
45 1 -0.666479 7.03818 4.96744 7.6107
54 1 -0.674055 10.4965 5.49244 6.59671
101 3 -0.813664 13.9596 3.0508 4.84569
102 3 -0.858348 13.7141 1.16835 6.79298
250 2 0.187083 12.0959 4.86776 0.527119
4 4 1.45633 14.9534 2.73425 3.64954
106 3 -0.80969 11.8472 2.90944 6.29488
232 3 -0.79653 14.2838 1.50245 2.74265
129 2 -0.00311879 12.0993 1.04753 4.56091
130 2 0.0282113 7.60742 5.731 3.33277
169 2 0.197941 10.6634 6.27599 7.3767
207 4 1.22711 14.5665 0.310541 7.80575
146 2 0.158608 7.78097 4.34574 6.93154
103 3 -0.789566 5.6663 6.0243 1.2881
145 2 0.148158 7.15953 6.13857 7.52122
170 2 0.166037 9.41727 5.2416 6.4445
171 2 0.211942 11.0363 5.71426 5.65321
273 2 0.177234 9.44744 0.365374 0.139036
224 2 0.165542 9.10164 1.19757 1.764
231 1 -0.673529 11.6704 0.307968 2.79908
11 4 1.50681 13.1149 6.0228 8.88309
36 4 1.27609 8.97764 2.28909 9.07875
52 1 -0.676766 10.2618 1.12339 9.7174
186 1 -0.665203 8.87939 6.10489 9.86202
100 3 -0.814531 8.27328 3.28943 10.3341
107 3 -0.791196 12.5241 4.42936 8.74089
110 2 0.0167995 14.4737 2.94456 10.115
105 3 -0.804057 9.95538 3.20378 8.11398
202 2 0.183135 13.8787 3.76159 11.9324
163 2 0.183399 11.2523 1.59478 9.63559
144 2 0.20945 7.00391 4.62069 8.72897
165 2 0.230257 9.97591 0.841203 10.7757
172 4 0.966206 16.1415 2.51729 14.1495
173 1 -0.63936 14.3877 1.67634 13.7748
174 2 0.0760431 14.4527 2.59339 15.1476
175 2 0.0165414 15.9087 1.09818 12.9529
176 2 0.170993 13.7474 2.25032 12.9128
184 1 -0.664877 11.0581 0.780946 15.1128
178 4 1.07748 13.9181 5.57226 14.3459
180 4 1.29719 9.97877 1.69813 13.9044
181 4 1.35775 11.6874 3.9946 12.6657
205 2 0.201878 9.22811 5.17056 9.12647
185 1 -0.69083 12.9741 3.30074 11.3118
177 2 0.170776 13.7366 0.743328 14.1712
189 3 -0.817988 10.9112 2.76249 13.1625
190 3 -0.791749 12.7295 4.5604 13.8081
192 3 -0.781682 10.8476 5.22504 11.9267
263 3 -0.855131 15.6365 1.07781 8.7216
199 2 0.182217 12.0953 1.17729 15.0541
200 2 0.27145 12.7669 3.74501 10.2787
201 2 0.138981 12.8996 2.16278 11.3454
182 4 1.02824 10.6167 6.16719 10.6282
204 2 0.17211 8.06601 5.83712 10.6255
6 4 1.30702 15.9691 2.4217 9.38193
249 1 -0.644995 14.1939 5.65299 16.0605
188 3 -0.80279 8.77175 2.26993 14.6861
187 3 -0.791248 9.36748 0.461058 12.4602
123 2 -0.046728 5.40265 6.31358 10.8117
237 1 -0.654043 7.8308 10.3919 0.0198038
257 2 0.128644 2.21214 10.3945 5.9537
167 2 0.17527 8.96466 6.99956 2.06168
53 1 -0.648815 8.13542 7.39192 2.6694
104 3 -0.804979 5.26725 7.32765 3.68441
134 2 0.265592 8.2438 12.8469 5.71274
125 2 -0.00740362 4.2498 8.26049 1.27663
225 2 0.171815 0.701735 12.779 3.15892
166 2 0.0733295 7.39061 8.51561 1.98158
168 2 0.148879 8.39389 7.65542 3.74452
206 4 1.27208 9.26809 10.5218 3.98698
215 2 0.155934 5.0987 9.25769 7.02277
208 4 1.04793 7.37755 10.31 6.67721
209 1 -0.684412 5.86047 9.16875 6.25984
255 2 0.148614 2.36539 12.2336 5.2965
211 3 -0.778184 8.36821 10.563 5.26408
212 3 -0.782376 6.72285 11.7808 7.09217
213 2 -0.00526836 8.6741 9.20427 3.06249
254 1 -0.667368 1.94363 11.1678 5.02587
216 2 0.155664 6.31254 8.14847 6.23413
217 2 0.182433 5.46834 9.45225 5.25789
230 4 1.08219 5.23794 12.8658 2.50862
234 2 0.173796 3.02373 12.8354 1.7487
67 3 -0.822722 13.122 6.64601 7.30559
238 3 -0.77516 5.68794 12.1061 1.02409
240 2 0.166406 8.08562 10.4268 1.08614
38 4 1.00793 6.27849 6.75688 2.57372
233 2 0.158512 2.81759 12.4871 3.63192
258 1 -0.64585 6.00066 11.8318 3.90729
259 2 0.166317 6.59996 10.9345 3.48564
260 2 0.11694 4.85546 11.4766 4.24516
261 2 0.231325 6.49744 12.3994 4.70598
274 2 0.176967 9.31436 9.05076 7.62886
150 2 0.144293 2.74648 10.5353 0.54523
252 2 0.160264 10.3075 8.45695 1.13515
256 2 0.165887 2.1807 10.7611 4.05207
2 3 -0.82424 9.36184 11.8611 3.21538
198 2 0.154029 2.58331 12.5453 14.6058
40 4 0.917137 6.01901 11.5389 12.9797
108 3 -0.800706 4.78589 10.6617 12.6584
109 3 -0.79509 6.50029 11.5599 14.4403
214 2 -0.0388285 4.9497 12.6576 8.88208
132 2 -0.048502 7.29724 11.1592 12.0869
236 4 0.994191 7.47497 11.8825 15.7968
203 2 0.142501 8.56728 7.02636 9.24262
131 2 -0.0178825 5.75362 13.1503 12.4038
193 2 0.0518323 11.4114 9.68143 14.9749
218 2 0.135353 7.78327 9.12174 8.77739
194 2 0.0082068 9.72491 7.57835 10.9434
241 2 0.170398 9.9951 10.9997 15.3536
239 2 0.11106 8.15076 9.80364 15.8681
264 2 0.0543672 9.01244 12.553 15.2399
219 2 0.176307 8.81107 10.7297 8.60498
34 4 0.995982 3.48916 9.67746 12.395
191 3 -0.81771 11.9807 6.73966 9.80272
210 1 -0.65726 8.51484 9.68838 8.14704
164 2 0.160384 1.8482 12.9993 9.08345
ITEM: TIMESTEP
200
ITEM: NUMBER OF ATOMS
274
ITEM: BOX BOUNDS xy xz yz pp pp pp
-8.3797999999999995e+00 1.8013900000000000e+01 -8.3797999999999995e+00
0.0000000000000000e+00 1.3273200000000001e+01 1.1950000000000001e+00
0.0000000000000000e+00 1.6718520000000002e+01 4.3120000000000003e-01
ITEM: ATOMS id type q x y z
119 2 -0.0202886 7.46133 1.12796 5.17807
12 4 1.31137 -0.826867 6.34827 5.28829
7 4 1.08098 0.916149 2.14171 5.00576
9 4 1.27252 -0.398447 4.53672 1.82734
10 4 1.58844 0.383202 4.34395 7.24592
242 1 -0.677678 3.33066 0.239783 3.19646
21 4 0.832353 5.83189 1.40333 5.62965
26 4 1.28188 5.29977 4.24006 6.83689
41 1 -0.665683 0.676409 0.665483 6.12938
44 1 -0.641762 3.73956 3.70079 1.59036
55 3 -0.797997 1.42606 0.952543 1.00078
56 3 -0.806304 -0.433904 2.29248 3.98458
58 3 -0.796056 -1.7639 4.51 2.69111
59 3 -0.871577 0.0249739 3.27014 0.850491
243 2 0.143152 3.71339 1.29614 3.11078
61 3 -0.787451 1.13228 3.32538 5.98337
62 3 -0.874842 -0.459646 5.43113 6.50565
74 3 -0.792522 5.65951 0.365781 7.25098
78 3 -0.879908 0.737518 5.21937 2.60114
81 3 -0.823171 5.65076 2.8894 5.99316
84 3 -0.810777 2.93237 5.90477 3.93802
85 3 -0.783041 4.65747 5.50498 5.95723
113 2 0.110555 -1.43473 5.3468 4.00607
111 2 -0.00751565 2.40799 1.75698 4.17237
112 2 -0.000663019 -0.915507 5.54545 0.581616
5 4 1.3845 0.586918 2.0693 0.139368
118 2 -0.0230197 4.49395 0.862788 4.65652
24 4 1.34728 4.86606 4.89242 0.359941
222 3 -0.773526 6.39222 1.31258 0.787094
223 2 -0.0884359 6.25954 0.939273 3.75153
141 2 0.189841 3.6992 2.66781 1.24587
142 2 0.212336 2.75745 4.24631 1.51561
143 2 0.183656 4.24363 3.86016 2.59836
220 4 1.06736 6.8282 0.479429 1.99042
135 2 0.235429 0.610821 0.946875 7.21827
25 4 1.44254 1.51241 6.45768 3.2884
82 3 -0.777451 1.55671 5.1009 8.14597
267 2 0.161551 -3.95811 6.26177 0.183113
28 4 1.20626 4.08158 6.54603 4.85193
138 2 0.141471 1.33579 0.889631 12.7173
8 4 1.27399 1.8518 2.60879 11.2054
13 4 1.25203 0.384709 4.93809 12.6152
229 2 -0.0731348 3.5914 6.40366 13.5018
20 4 1.27045 4.50524 2.72046 9.36559
23 4 1.25863 6.95158 2.89681 11.2066
99 3 -0.811744 7.98895 1.15826 8.32333
226 4 0.85225 3.51668 6.27786 15.2148
42 1 -0.672434 2.30234 1.54728 12.6386
57 3 -0.816627 0.410011 2.29704 10.4944
63 3 -0.888744 -0.245173 3.85945 13.5669
64 3 -0.7831 1.84126 4.35783 12.1624
65 3 -0.848333 -2.32528 6.16274 9.54189
66 3 -0.831779 -0.425909 5.36047 11.3739
73 3 -0.781785 3.08651 2.48137 10.1833
75 3 -0.848562 5.58043 3.17832 10.4339
76 3 -0.846968 7.00604 1.50836 12.0226
80 3 -0.748992 4.38189 3.83025 8.27886
27 4 1.37258 1.72144 6.55782 8.81336
137 2 0.156473 3.21049 0.913173 12.2541
114 2 -0.0441509 0.688452 6.32565 13.4879
197 2 0.178806 5.34152 1.33352 16.0865
124 2 0.0695981 2.99538 5.51183 12.1321
136 2 0.192978 2.53016 2.1166 13.6348
179 4 1.29944 7.36935 2.64001 15.7227
183 1 -0.641456 5.86961 1.65458 14.9953
77 3 -0.834471 6.87127 4.11571 16.1955
60 3 -0.831854 -0.511853 3.46303 8.26093
196 2 0.171398 5.15644 2.21743 14.3837
117 2 0.0701124 5.04752 1.34835 8.52928
227 3 -0.847408 4.8436 5.92471 15.9298
195 2 0.238525 6.33106 0.758182 14.4349
245 1 -0.692831 3.02066 3.23845 15.2189
246 2 0.174644 2.54682 3.68849 14.3305
247 2 0.169757 3.55938 2.307 14.947
262 3 -0.781139 0.717077 1.78127 15.5592
228 2 -0.0204282 2.28285 5.06834 15.2016
14 4 1.51162 -1.04163 6.64451 10.3947
248 2 0.170525 3.66009 3.97059 15.8302
266 2 0.0669884 -1.354 4.88391 15.5501
123 2 -0.0354422 5.32064 6.16786 11.0708
161 2 0.189213 -1.1182 9.98288 0.0897833
3 3 -0.798561 -6.00847 11.4323 0.91788
268 2 0.19482 -5.23174 8.4452 1.54958
16 4 1.46798 -3.22025 7.91542 6.56617
17 4 1.25665 -4.53277 9.89614 4.88985
154 2 0.177337 0.902101 9.33493 7.5813
244 2 0.150086 -5.19363 12.7987 4.28883
31 4 1.27769 -1.91858 10.3893 3.13512
33 4 1.10837 0.252945 10.8811 5.60405
48 1 -0.658485 -1.31842 9.05275 1.88935
49 1 -0.64766 0.107098 9.28455 6.73602
265 2 0.201808 -4.34062 12.2685 2.54422
68 3 -0.834057 -1.9301 7.43878 5.6459
272 2 0.19591 0.690355 10.2013 0.188008
70 3 -0.814995 -4.42387 8.46208 5.61776
79 3 -0.831783 0.453439 7.11092 4.64825
87 3 -0.810625 1.73789 7.60748 2.20456
30 4 0.949433 2.3988 8.22329 0.864397
89 3 -0.769543 -1.97805 11.84 2.07004
90 3 -0.815766 -3.38651 10.1385 3.74569
93 3 -0.790544 -0.827133 10.6218 4.25454
94 3 -0.809007 -0.259528 11.96 6.60796
115 2 -0.0120865 -4.12696 11.0402 6.08872
147 2 0.191777 1.84658 7.38597 6.46492
151 2 0.202444 -0.304684 9.39074 1.45287
152 2 0.186801 -2.15211 9.04525 1.15374
153 2 0.190189 -1.34013 8.20404 2.68696
271 2 0.155229 1.6274 10.0952 2.02597
155 2 0.263845 0.201141 8.44358 5.96571
156 2 0.272824 -0.963929 9.33475 7.11239
46 1 -0.670815 2.38988 7.72279 7.42177
148 2 0.177562 3.48069 7.45817 7.38175
133 2 0.153496 -6.78375 12.9122 5.87643
19 4 1.34784 -1.2564 12.6208 7.81043
1 4 1.27368 -6.51972 12.5548 1.99245
69 3 -0.852963 -5.91756 10.3347 4.33902
91 3 -0.820216 -2.74189 9.37926 7.70785
122 2 -0.00563215 3.35077 7.87591 5.7112
47 1 -0.642741 1.62796 9.98288 0.767781
149 2 0.15419 2.18771 8.83557 7.6577
159 2 0.207718 1.04141 9.72869 12.0548
18 4 1.27086 -1.94663 8.27904 12.8781
22 4 1.23003 -0.617656 12.9833 12.1045
32 4 0.933913 -2.57514 10.3227 8.96486
35 4 1.24173 -1.32558 10.9105 14.3605
50 1 -0.677467 1.88429 10.432 11.9415
160 2 0.169908 1.11938 10.5003 14.8237
158 2 0.241444 1.65073 11.5297 12.3145
51 1 -0.618931 0.279544 11.0266 15.4239
162 2 0.190324 0.448847 12.152 15.2902
72 3 -0.848185 -1.44249 7.93884 11.4283
83 3 -0.788627 0.250209 7.0843 9.44031
88 3 -0.708174 2.81451 7.79995 15.7632
92 3 -0.824438 -1.44355 11.4232 9.11896
95 3 -0.814015 3.85864 8.25611 11.828
96 3 -0.797637 -1.07591 9.33254 13.6866
97 3 -0.858949 -1.17741 12.0094 13.2116
98 3 -0.781951 -2.63881 10.8931 15.5403
116 2 -0.0340834 -3.43689 8.93223 12.58
120 2 0.0577718 -0.709981 12.2417 10.6001
126 2 0.0351835 -2.33028 9.28157 10.2503
127 2 -0.0584374 -4.0504 11.0317 9.41161
128 2 0.0316399 2.30833 9.49279 13.6319
139 2 0.142956 -4.77898 11.3772 13.6922
140 2 0.185281 -5.89374 11.9664 15.0608
43 1 -0.654683 -5.56349 11.054 14.4621
71 3 -0.874664 -2.40673 7.01192 13.5914
157 2 0.145664 2.22735 10.4682 10.7459
15 4 1.06166 -4.07191 10.8611 16.2551
29 4 0.94376 3.77693 6.77321 11.289
86 3 -0.770443 2.91721 6.75997 9.97148
253 2 0.176744 -3.70176 8.35496 16.2432
235 2 0.170262 11.4229 1.33482 2.99147
37 4 1.28618 12.9964 2.14137 5.73927
221 1 -0.634563 8.63633 0.528779 1.69776
39 4 1.25344 11.1406 3.91271 7.39674
45 1 -0.653258 7.10294 4.74818 7.27106
54 1 -0.671731 10.6741 5.52199 6.54782
101 3 -0.837295 13.9416 3.06029 4.81613
102 3 -0.852942 13.782 1.23578 6.82353
250 2 0.202343 12.1421 4.6648 0.093902
4 4 1.43711 14.8681 2.77077 3.57134
106 3 -0.827855 11.7852 2.88788 6.36285
232 3 -0.819285 14.1822 1.62712 2.64121
129 2 0.0042491 12.2874 1.03873 4.56318
130 2 0.0468654 7.62282 5.66919 2.99672
169 2 0.204844 10.708 6.31232 7.33365
207 4 1.28235 14.5134 0.341096 7.8575
146 2 0.219534 7.70805 3.78024 7.08814
103 3 -0.813999 5.5729 6.00099 1.28134
145 2 0.158073 7.45645 5.64287 6.63084
170 2 0.164709 9.63333 5.3555 6.16342
171 2 0.225273 11.3501 5.80863 5.72366
105 3 -0.814413 9.7252 3.25714 8.03239
224 2 0.16815 8.97671 1.30291 0.872981
231 1 -0.663474 11.7952 0.310999 2.79523
225 2 0.0995726 8.86457 0.989329 2.85999
230 4 1.10432 13.6755 0.147971 2.30739
134 2 0.222885 16.4877 0.236841 5.73358
234 2 0.157784 11.4937 0.0863683 1.64823
11 4 1.48597 13.0762 5.99006 8.87033
36 4 1.34145 8.9997 2.19702 9.01316
52 1 -0.67218 10.3772 1.04744 9.70152
186 1 -0.674716 9.06641 6.26468 9.85604
100 3 -0.832155 8.21197 2.87874 10.2854
107 3 -0.774206 12.5182 4.33689 8.71719
110 2 0.0172359 14.6203 2.87763 10.2332
121 2 -0.0182464 7.23325 4.17825 12.2634
202 2 0.163815 14.0508 3.66238 11.9335
163 2 0.174789 11.3573 1.53092 9.62595
144 2 0.181956 7.04598 4.96842 8.39239
165 2 0.237544 9.96849 0.795261 10.824
172 4 0.931397 16.1796 2.5289 14.2501
173 1 -0.652889 14.6421 1.57895 13.7045