ITEM: TIMESTEP
0
ITEM: NUMBER OF ATOMS
386
ITEM: BOX BOUNDS xy xz yz pp pp pp
-9.8217629042873114e+00 1.6492609739224015e+01 -8.5944045806504832e+00
-1.0598672932473274e-01 1.3719649956819472e+01 -1.3425485844128109e+00
4.2510623655953594e-03 1.7345948937634574e+01 1.6346322749467529e-01
ITEM: ATOMS id type x y z
13 4 -3.99299 6.56715 3.8112
206 2 -2.48891 4.8322 7.97938
12 4 0.0157983 3.72931 2.2015
34 4 1.28853 6.23642 3.39968
70 1 -0.0403888 3.39964 6.67623
134 2 1.36536 4.4408 5.83334
233 3 -0.938248 3.32949 3.44885
235 3 -0.926018 4.50421 1.03562
254 3 1.15474 4.79973 2.6527
111 2 2.213 2.28086 4.24774
258 3 1.88398 6.38878 4.91495
320 2 0.896507 2.87069 6.36691
15 4 0.368262 5.0963 7.13325
107 2 -0.833915 3.4851 5.80973
237 3 -0.841694 6.00486 6.69608
177 2 2.70217 3.71656 1.19228
8 4 0.332391 1.11958 0.626214
234 3 0.670871 2.31057 1.61768
104 2 -0.361089 0.8172 4.54409
132 2 -0.782117 2.33116 7.96951
170 2 -1.04502 5.92226 3.22163
176 2 3.112 5.498 1.46748
38 4 3.28462 6.57267 5.79812
247 3 4.41312 0.920282 4.68979
245 3 7.14874 1.1046 0.524697
256 3 5.88248 2.99499 6.00124
248 3 6.30268 0.366728 6.34926
255 3 3.28805 2.91222 7.20256
252 3 4.55884 2.74601 2.87646
244 3 3.1727 0.4402 2.34778
85 1 3.4956 4.45134 1.03307
25 4 3.59097 1.58206 3.50698
259 3 4.12797 5.3364 6.15257
24 4 7.70476 0.244446 1.72712
29 4 5.86122 1.45018 5.3443
33 4 5.00427 3.99181 2.03865
36 4 4.6519 3.78547 6.8005
246 3 1.63211 1.13502 8.57996
318 4 0.134831 0.840733 8.55064
257 3 1.22812 5.41175 8.46822
236 3 -3.11176 6.64415 5.23037
28 4 2.77233 2.24856 8.64343
378 2 2.9875 0.00742186 6.45188
148 2 4.3903 0.0945866 7.51712
138 2 -4.08577 5.0017 15.7431
158 2 3.75974 5.40262 13.7565
250 3 4.47188 2.51999 15.973
357 2 1.48936 1.80763 16.2993
183 2 0.875633 6.48164 11.2925
356 2 0.371056 3.22808 16.6297
125 2 4.65426 4.52608 9.11172
105 2 1.78963 3.43736 15.3868
108 2 -3.03667 5.51745 14.0705
140 2 -2.72417 3.61565 16.0335
340 2 -0.411437 0.894031 10.2238
112 2 1.99248 3.32425 9.75258
72 1 -2.93591 4.73645 15.8277
10 4 1.90184 1.35226 12.6299
11 4 -0.102278 3.50625 11.6348
17 4 -1.29727 5.19855 14.0743
78 1 1.53667 4.41093 11.3502
79 1 3.06248 4.78209 14.5565
155 2 1.41704 5.11437 12.2785
157 2 2.46619 3.79973 11.388
231 3 -1.10291 3.28231 10.1961
232 3 0.468414 1.94267 12.1778
238 3 -0.88567 4.28978 12.7695
249 3 2.9218 2.19025 13.5066
139 2 -1.08846 4.2172 15.5345
106 2 2.95209 1.0514 11.1676
37 4 2.01695 5.81228 9.95356
137 2 -0.866388 1.9654 16.2354
354 1 0.959547 2.68645 15.8158
355 2 0.292813 2.34985 14.9527
160 2 1.98542 4.93997 14.2987
161 2 4.847 0.896599 15.4376
159 2 3.35588 5.10499 15.5884
145 2 -1.80535 5.9681 9.725
205 2 -3.53185 5.19718 10.0017
262 3 -0.492409 6.62393 14.1819
251 3 4.15379 1.70955 9.31623
178 2 2.48545 4.66248 17.3225
30 4 6.67176 0.343077 13.8437
117 2 6.87369 0.394025 12.0998
265 3 3.53291 5.92989 10.2953
5 2 2.98606 0.762691 17.1405
31 4 4.03274 3.17446 14.2866
32 4 5.64849 2.50136 9.53507
14 4 -2.5517 5.80619 17.2656
270 3 -1.78918 12.4821 8.66857
147 2 -4.19837 12.5381 6.17446
185 2 -6.01597 10.1678 8.26692
175 2 -6.723 11.8365 8.50981
311 3 -7.75688 12.7468 5.71975
1 4 -5.83739 13.081 1.27827
189 2 1.03317 10.5269 3.23995
19 4 -3.3591 7.8477 1.15711
341 1 -5.73125 10.5153 4.49833
343 2 -4.60159 9.57447 3.89522
75 1 -4.8501 13.063 6.95173
239 3 -3.77703 7.67309 2.71163
6 3 -5.462 11.5891 1.82464
20 4 -6.05984 10.3863 2.7811
377 2 -5.45827 11.5876 4.73284
141 2 -4.21562 9.14576 0.264194
272 3 -0.112142 12.3544 6.42425
230 3 -7.6735 13.2886 0.7398
188 2 0.169715 8.88434 2.75744
201 2 -4.65477 7.81892 7.61333
240 3 -2.70126 6.79881 0.199559
144 2 -5.349 12.2979 7.66435
114 2 1.32272 9.82135 1.44614
171 2 -0.511777 7.36908 2.09533
16 4 -2.04562 7.0159 6.39063
191 2 -2.1994 9.64293 2.11367
172 2 -0.771108 7.66238 4.10324
83 1 -0.423248 6.9058 3.19363
345 2 -2.54614 11.924 1.584
90 1 -2.47989 9.45453 0.985065
200 2 2.23683 7.31301 7.65204
241 3 -2.93068 7.48889 8.00434
174 2 -1.57867 9.11269 4.90581
347 2 -2.06038 12.3133 3.28061
27 4 -1.12296 13.2582 7.24231
84 1 -1.25526 8.62624 5.82722
173 2 -1.50506 9.20821 6.81442
187 2 -0.154396 8.20872 5.88297
267 3 2.4074 7.49534 2.53024
89 1 0.48303 9.9344 2.35328
344 1 -2.32458 12.7482 2.324
381 2 -0.395661 10.573 1.93304
223 2 1.15123 9.78202 7.31446
342 2 -6.57063 10.0354 5.08758
382 2 -3.29313 10.7606 0.207315
109 2 -1.00932 8.66911 0.290545
190 2 0.622427 11.784 1.60732
202 2 -6.12312 9.02615 7.42731
346 2 -3.13695 13.5657 2.25344
186 2 -5.06942 11.2897 9.32927
322 2 -7.75218 11.952 9.42372
372 2 -6.69007 10.696 9.99873
88 1 -6.08903 11.0041 9.04349
152 2 -6.99252 13.3357 13.4866
271 3 -4.80221 12.9215 14.6485
133 2 -2.00498 6.85046 11.4488
371 2 -4.66668 13.2782 11.1816
77 1 -6.31353 13.1173 11.9227
22 4 -4.26775 9.26178 13.6633
23 4 -4.87288 12.2247 12.6866
153 2 -7.15101 12.9718 11.0731
243 3 -4.9861 10.6637 12.7266
274 3 -3.79544 9.64472 15.2053
103 1 -4.74056 9.17032 10.1263
227 2 -5.12908 8.7634 9.0891
228 2 -3.90792 8.10931 10.866
229 2 -4.20224 10.1196 10.0283
337 2 -7.97788 11.3218 15.5356
224 2 -5.66912 9.45268 10.785
332 2 -7.07028 11.2641 11.7962
242 3 -5.29517 8.06705 13.7813
80 1 -3.60433 13.4277 14.9382
263 3 1.38119 7.01921 16.0591
364 2 -1.38252 12.3858 14.2808
46 4 -3.11535 10.1387 16.5322
110 2 -3.25665 12.3638 12.1031
156 2 0.763141 8.18445 9.42657
163 2 -2.76394 12.5916 15.6542
151 2 -2.93933 7.56131 12.2661
277 3 0.00625646 10.3299 12.8682
146 2 -0.454406 7.33706 10.2933
76 1 -2.73873 8.56057 12.8366
150 2 -2.53093 9.45063 12.0415
21 4 -2.58353 8.18966 9.39775
350 2 -1.06395 10.8163 16.1544
275 3 -1.84451 11.5709 16.3978
184 2 1.18377 8.76368 11.137
149 2 -1.96097 8.48136 13.671
74 1 -1.63701 6.94085 10.3145
87 1 1.42546 7.98568 10.2949
40 4 -0.151574 7.40731 15.6448
43 4 -1.35129 11.246 9.57732
45 4 0.776467 9.81803 14.2005
47 4 -0.390426 11.5179 11.8923
269 3 -1.75293 9.70579 9.35595
273 3 -0.261129 9.14551 15.2464
276 3 -1.98017 11.6423 11.3858
2 1 -6.27114 13.5392 16.9568
4 2 -5.64941 12.531 16.892
370 2 -5.01758 6.8948 16.1733
264 3 -1.46687 6.93595 16.7128
3 2 -7.12387 13.574 16.0894
92 1 7.92335 5.5138 3.41208
118 2 8.93792 2.37179 6.21045
73 1 10.198 5.86567 1.17186
195 2 8.68349 5.66118 2.50491
358 1 5.34074 6.55323 0.0562731
278 3 8.41517 1.44069 3.21567
291 3 5.34522 5.45875 3.14278
196 2 8.38015 5.93118 4.51577
351 1 8.56496 1.14712 7.7854
352 2 9.38588 0.880029 7.00246
193 2 7.9865 3.60492 5.18301
198 2 7.49428 4.43607 3.5349
165 2 8.03919 2.10313 7.4003
82 1 5.55982 4.06452 8.46209
91 1 9.02219 3.18397 5.34842
192 2 9.78716 3.97817 5.55984
48 4 9.51868 2.4781 3.74821
168 2 7.10666 6.22327 6.96
359 2 5.16353 6.52304 1.17982
56 4 6.40259 6.48695 3.54794
143 2 9.10785 5.42174 0.894332
288 3 10.0472 3.62885 2.77546
135 2 14.5005 0.662303 0.410216
142 2 10.8716 5.96081 0.300252
369 2 11.3979 6.08697 7.17482
7 4 14.6968 1.85338 3.98006
280 3 13.8082 1.96189 5.24029
51 4 12.26 2.04391 5.70471
55 4 11.2157 4.40344 2.00314
58 4 12.0301 4.5275 7.49357
281 3 11.2632 1.49203 4.0816
289 3 11.8818 3.62042 0.50049
290 3 12.4538 5.08745 3.02929
293 3 11.9334 3.50367 6.28816
325 3 13.9865 0.852058 3.0549
326 3 11.9453 0.926389 1.37468
324 4 12.4577 0.409684 2.82727
49 4 11.7872 2.04355 0.306399
282 3 11.8759 0.974404 6.81409
50 4 12.8008 0.329985 8.03473
59 4 6.81499 5.38366 8.56845
194 2 7.13212 1.41518 4.13519
253 3 6.18927 3.6918 0.923745
376 2 10.2928 6.29063 4.94954
379 2 10.1575 -0.062483 1.56058
361 2 3.93319 5.69084 16.9212
52 4 13.4924 0.59771 15.033
380 2 9.00636 1.19114 8.82721
353 2 7.01956 1.65538 8.90795
368 2 6.21902 5.47342 16.6771
383 2 7.18435 5.18537 14.9966
366 1 6.34814 5.75558 15.537
367 2 5.37918 5.51939 14.996
26 4 5.53423 2.73483 17.125
39 4 6.16515 4.0796 12.278
53 4 8.12205 2.62854 15.6084
127 2 7.81901 4.17657 12.602
18 4 10.4331 6.81744 14.7802
261 3 5.96278 3.0961 10.9449
266 3 5.74097 5.5839 11.9911
283 3 7.36078 1.42353 14.7188
285 3 6.94159 3.32068 16.6412
295 3 8.78027 3.65617 14.5531
301 3 9.23904 4.42763 11.8497
41 4 5.15221 6.41229 10.8341
300 3 8.25405 4.81003 9.08763
284 3 9.13308 1.86647 16.6396
62 4 9.197 5.02868 10.4072
136 2 13.4988 2.53163 16.9552
294 3 6.12402 6.52279 9.57069
81 1 9.75459 1.35934 10.7698
169 2 10.015 1.5438 11.8426
162 2 10.5831 0.837519 10.1868
166 2 9.5943 2.35855 10.3099
60 4 9.98319 4.14542 13.6376
164 2 8.78683 0.711951 10.6699
71 1 13.776 1.44093 16.9578
95 1 12.8907 4.35683 9.19726
204 2 11.2259 3.76575 9.03526
119 2 11.9094 2.04809 16.732
121 2 11.8094 0.557241 12.4492
9 4 13.6991 2.88588 9.96372
54 4 12.2668 2.20217 12.8403
279 3 13.5357 1.48645 9.10012
286 3 12.9804 2.62322 11.4439
287 3 13.3227 1.83152 14.11
296 3 11.0375 2.97274 13.3394
297 3 10.7215 5.46631 14.0433
128 2 10.7851 5.8084 10.1575
260 3 5.39172 3.54876 13.517
365 2 9.01377 0.225262 12.2161
120 2 15.0622 0.114334 15.602
333 2 13.3711 0.087933 11.8276
213 2 8.90961 6.81237 11.819
308 3 7.19139 7.01574 6.16337
203 2 10.4883 7.57264 6.14597
44 4 1.15758 11.2847 6.14867
101 1 2.3645 11.0047 7.37873
307 3 1.82431 11.2424 4.6657
348 1 0.661618 12.946 1.19189
42 4 2.82923 8.93834 2.06657
384 2 2.53182 12.1316 0.698356
199 2 3.01308 9.05251 7.20102
375 2 10.4157 8.12101 4.55183
94 1 10.6083 7.92258 7.38006
69 1 10.5301 7.0752 4.15048
93 1 3.21945 7.91237 7.19446
64 4 3.53038 11.3053 3.96078
124 2 10.0015 7.26367 8.05488
374 2 7.61479 12.9297 7.81709
268 3 3.48491 8.79318 0.629511
113 2 4.12661 7.67212 7.78986
122 2 4.20139 8.05696 5.50698
306 3 3.54076 12.5408 2.97034
339 2 6.82803 12.7231 4.2636
338 1 7.44401 12.7287 5.37404
222 2 3.38147 10.9665 6.8916
305 3 3.65525 9.96763 3.11395
63 4 7.7718 8.6607 1.54011
65 4 6.63649 9.40588 7.74989
67 4 5.77249 12.0235 6.19637
99 1 6.62707 10.0552 1.10186
217 2 6.96566 11.0409 1.42092
302 3 7.01645 7.75257 2.52987
304 3 9.12924 9.43512 2.22506
312 3 4.63744 11.6142 5.04092
313 3 6.24217 10.6812 6.95385
314 3 5.30522 13.1448 7.29055
126 2 7.12409 7.91033 6.74013
218 2 5.69614 9.71771 1.62077
225 2 4.45807 12.2886 0.509988
123 2 10.0573 6.8724 1.75448
102 1 3.50593 11.7543 0.177009
131 2 9.88041 6.93231 3.17356
197 2 6.14083 7.14597 5.33464
226 2 3.57872 10.5788 0.362337
216 2 6.54091 9.93556 0.0142932
66 4 2.37412 11.5999 9.11425
373 2 0.934961 13.0444 16.4413
362 1 -0.193922 13.1598 12.9713
35 4 2.65949 7.88047 16.7091
68 4 2.23805 12.2198 15.6607
319 1 7.59683 12.6792 9.73006
310 3 0.63009 11.6416 10.0953
315 3 1.65173 11.0019 14.8101
363 2 0.407426 12.9558 13.8736
181 2 2.9665 10.4266 10.948
209 2 2.76651 8.21683 11.8437
309 3 3.04002 13.0719 8.99233
321 2 7.47259 12.8391 10.8468
336 2 7.46832 11.9984 17.0474
116 2 1.90764 8.64968 13.6422
179 2 3.44754 9.55542 9.30588
86 1 3.63949 10.4676 9.99729
219 2 8.11087 9.64921 8.98263
303 3 6.96093 7.87951 17.3024
386 2 7.72437 10.2037 16.7425
360 2 4.98795 7.24447 17.1708
154 2 7.95624 9.96621 10.9637
323 2 6.65401 12.3213 9.24946
130 2 6.54874 11.0276 15.5128
330 1 7.55324 11.1561 16.1867
215 2 10.2455 7.78554 10.4418
334 2 3.8626 12.6918 13.1961
316 3 3.46037 13.1846 15.322
129 2 6.57119 8.60072 10.3949
100 1 6.50573 9.43325 9.6336
220 2 6.17787 10.4019 10.0786
317 3 6.50436 13.3001 14.1009
214 2 8.47283 7.1911 9.9413
208 2 4.18277 9.36073 12.3153
335 2 4.14938 11.9147 11.3726
329 1 4.46061 12.7588 12.2411
331 2 7.40583 11.5287 12.2923
167 2 8.25544 10.0002 12.8902
328 1 8.80279 10.1316 11.8171
207 2 4.15966 7.45004 12.8853
180 2 4.75868 10.7458 10.0897
96 1 3.54624 8.4615 12.6519
115 2 5.08696 8.05484 11.5104
57 4 7.08733 7.41453 15.6648
61 4 4.59381 8.94088 14.4617
97 1 4.84126 10.8535 14.4713
210 2 6.45235 10.4429 13.8062
211 2 4.69693 11.2613 15.5321
212 2 3.88257 10.9142 13.7289
292 3 8.8382 7.07718 15.2456
298 3 6.09211 8.27006 14.5731
299 3 3.59947 8.56577 15.5711
327 4 6.05596 12.1285 13.1817
98 1 9.34997 6.95639 10.6554
385 2 9.61879 9.34682 11.7096
182 2 2.52534 8.05784 9.97716
221 2 5.16428 8.67887 8.70411
349 2 -0.90105 13.2849 17.3352
ITEM: TIMESTEP
100
ITEM: NUMBER OF ATOMS
386
ITEM: BOX BOUNDS xy xz yz pp pp pp
-9.8167944277047816e+00 1.6484421029484793e+01 -8.5901073783601589e+00
-1.0598672932473274e-01 1.3719649956819472e+01 -1.3418773101206045e+00
4.2510623655953594e-03 1.7345948937634574e+01 1.6346322749467529e-01
ITEM: ATOMS id type x y z
13 4 -3.96931 6.58305 3.80623
206 2 -2.58485 4.66503 8.13984
12 4 0.084173 3.6603 2.15307
34 4 1.33909 6.19795 3.36989
70 1 0.306492 3.24892 6.81531
134 2 1.56853 4.28803 5.81772
233 3 -1.00716 3.07377 3.28067
235 3 -0.704643 4.622 1.01677
254 3 1.28625 4.66658 2.9439
111 2 2.15212 2.085 4.01816
258 3 1.86667 6.33795 4.92016
320 2 1.27345 2.69439 6.58597
15 4 0.50642 4.94066 7.12834
107 2 -0.531312 3.14912 5.98175
237 3 -0.723373 6.00066 6.588
177 2 2.51528 3.82127 1.28124
8 4 0.293323 1.18288 0.615356
234 3 0.65459 2.40725 1.5057
104 2 -0.435759 0.881851 4.96019
132 2 -0.679602 2.32859 8.09339
170 2 -1.12678 5.99233 3.29445
176 2 3.11762 5.5887 1.25693
38 4 3.22286 6.53307 5.76948
247 3 4.54203 0.961688 4.6271
245 3 6.97165 1.26419 0.672058
256 3 5.59342 3.01458 5.92709
248 3 6.53795 0.427598 6.35967
255 3 3.18571 3.1019 7.38752
252 3 4.37388 2.75985 2.71581
244 3 3.1815 0.404423 2.34586
85 1 3.37101 4.5039 1.03864
25 4 3.6617 1.53408 3.42736
259 3 4.21468 5.37991 6.22033
24 4 7.54684 0.32291 1.90599
29 4 5.79598 1.46066 5.44624
33 4 4.9359 3.98815 1.91926
36 4 4.53586 3.86466 6.80249
246 3 1.80732 1.12064 8.56315
148 2 4.14815 0.366179 7.52394
138 2 -3.87238 5.23466 15.4117
264 3 -1.21619 6.78357 16.8044
250 3 4.44224 2.58954 15.9753
357 2 1.3302 1.77705 16.2108
183 2 0.881151 6.79435 11.2985
356 2 0.195663 3.26847 16.5921
28 4 2.91475 2.23314 8.73126
105 2 1.73296 3.56086 15.4876
108 2 -3.09617 5.50904 13.8711
140 2 -2.70235 3.66786 15.803
340 2 -0.320573 1.00805 10.4077
112 2 2.34401 3.42044 9.84861
72 1 -2.78091 4.81395 15.6521
10 4 1.88602 1.40988 12.5626
11 4 -0.0890116 3.51946 11.5229
17 4 -1.35033 5.24113 13.9768
78 1 1.58882 4.49064 11.3064
79 1 3.14963 4.85378 14.7695
155 2 1.35851 5.1673 12.2113
157 2 2.51355 3.89055 11.5663
231 3 -1.00751 3.40896 10.1418
232 3 0.469202 1.97728 12.1604
238 3 -0.901939 4.34946 12.6454
249 3 2.89115 2.28751 13.4128
139 2 -0.937585 4.22363 15.4127
106 2 2.95936 0.869043 11.1651
37 4 1.96601 5.99005 10.0456
137 2 -0.883601 1.96382 16.3186
354 1 0.855315 2.77348 15.8206
355 2 0.226557 2.55483 14.9051
160 2 2.09737 4.98138 14.5039
161 2 4.8549 1.12003 15.3626
159 2 3.36561 5.18504 15.8956
145 2 -1.48486 5.92684 9.71496
205 2 -3.77456 4.98729 10.1865
262 3 -0.579691 6.58217 14.2918
251 3 4.4239 1.68781 9.40823
136 2 -2.84787 2.70684 16.8504
30 4 6.70002 0.435548 13.7957
133 2 -2.07078 6.80534 11.1824
265 3 3.57791 6.19437 10.3024
5 2 2.75389 1.19344 17.3438
31 4 3.97242 3.19476 14.2696
32 4 5.7794 2.55476 9.54597
14 4 -2.45244 5.84915 17.0972
318 4 0.278383 0.880924 8.71153
2 1 2.36586 0.108274 17.0692
178 2 2.25707 4.60126 17.2415
3 2 1.58299 0.119313 16.312
257 3 1.29998 5.50957 8.67644
202 2 -5.97245 9.09551 7.54351
147 2 -3.98245 12.6387 6.38672
185 2 -5.95172 10.2815 8.28767
175 2 -6.65918 12.0603 8.6047
311 3 -7.88005 12.7137 5.50561
1 4 -5.89729 13.0394 1.23202
189 2 1.01023 10.3758 3.25115
19 4 -3.26984 7.86844 1.1406
341 1 -5.7535 10.2405 4.37067
343 2 -4.4204 9.51875 3.61701
75 1 -4.83608 13.1426 6.99223
239 3 -3.62306 7.62636 2.66998
6 3 -5.60225 11.5037 1.61354
20 4 -5.97005 10.2232 2.60869
377 2 -5.71371 11.291 4.70966
141 2 -4.13359 9.19472 0.321364
272 3 -0.0784566 12.1944 6.57045
230 3 -7.73017 13.43 0.719864
188 2 0.216073 8.73869 2.62998
201 2 -4.58577 7.75609 7.6991
270 3 -1.85133 12.4515 8.54052
144 2 -5.24975 12.3831 7.75194
114 2 1.55983 9.98924 1.00361
171 2 -0.65837 7.37695 2.23217
16 4 -1.85182 7.18641 6.23317
191 2 -2.00966 9.63603 2.0198
172 2 -0.598168 7.57814 4.0202
83 1 -0.445968 6.86927 3.14573
345 2 -2.10592 11.7659 2.00152
90 1 -2.32935 9.41124 0.935233
200 2 1.97245 7.23382 7.50698
241 3 -2.79404 7.549 7.86943
174 2 -1.37155 9.37866 4.90189
347 2 -2.22574 12.6566 3.77535
27 4 -1.04169 13.2116 7.30668
84 1 -1.00965 8.75485 5.72841
173 2 -1.02632 9.34886 6.72212
187 2 0.0228187 8.24372 5.50892
267 3 2.1988 7.40195 2.46108
89 1 0.530603 9.8171 2.28445
344 1 -2.27534 12.7622 2.60611
381 2 -0.380089 10.4207 2.03788
223 2 1.0873 9.70788 7.05307
346 2 -3.25478 13.192 2.43055
382 2 -3.24169 10.8186 0.210646
109 2 -1.04844 8.70812 0.183724
190 2 0.580952 11.8317 1.71943
378 2 -5.67502 13.3961 6.34991
236 3 -2.90959 6.82066 5.05028
240 3 -2.6881 6.74493 0.129436
186 2 -5.04763 11.4914 9.42814
322 2 -7.79567 12.0832 9.55418
372 2 -6.6819 10.7871 9.99041
88 1 -6.11906 11.123 9.07432
152 2 -6.90742 13.4517 13.5406
271 3 -4.70037 13.0543 14.5041
321 2 -8.81873 12.8572 11.0625
371 2 -4.82297 12.9995 10.9223
77 1 -6.29828 13.0411 11.9758
22 4 -4.31654 9.14302 13.7271
23 4 -4.79801 12.119 12.6
153 2 -7.20198 12.9253 11.2507
243 3 -5.04807 10.5375 12.6732
274 3 -3.78406 9.75326 15.2174
103 1 -4.44767 8.86193 10.2962
227 2 -4.99572 8.54614 9.21467
228 2 -3.69596 7.73818 10.8742
229 2 -3.68761 9.83959 10.2161
337 2 -7.94666 11.1465 15.7013
224 2 -5.30985 9.13584 11.0461
332 2 -7.1343 11.2333 11.7449
242 3 -5.39677 7.92646 13.6312
80 1 -3.54179 13.5511 14.896
263 3 1.41652 6.9994 16.1101
364 2 -1.56269 12.328 14.1227
46 4 -3.14638 10.3867 16.54
110 2 -3.21465 12.2279 11.9236
156 2 0.728415 8.18059 9.34037
163 2 -2.80203 12.8599 15.6338
151 2 -2.85197 7.47644 12.8955
277 3 -0.0364028 10.1934 12.7651
146 2 -0.456228 7.38419 10.3104
76 1 -2.72672 8.57606 12.968
150 2 -2.64223 9.07958 11.8877
21 4 -2.43119 8.26503 9.20675
350 2 -1.2392 11.2804 15.8903
275 3 -1.79817 11.8258 16.5884
184 2 1.04065 9.06771 10.8918
149 2 -1.81648 8.82765 13.569
74 1 -1.56206 6.93473 10.1916
87 1 1.34684 8.17617 10.2859
40 4 -0.0452366 7.51117 15.5794
43 4 -1.1963 11.2236 9.49323
45 4 0.821171 9.91552 14.1573
47 4 -0.493109 11.4197 11.9018
269 3 -1.55995 9.69793 9.17589
273 3 -0.140158 9.08925 15.224
276 3 -2.00389 11.4259 11.2944
370 2 -5.13416 6.92007 16.1837
4 2 -5.38861 12.9907 16.9267
92 1 7.91627 5.18079 3.58199
118 2 8.9114 2.18176 6.23132
73 1 10.0772 5.86767 1.24071
195 2 8.65799 5.51182 2.7241
358 1 5.32585 6.71988 0.0581334
278 3 8.27433 1.539 3.27485
291 3 5.4181 5.51091 2.95008
196 2 8.36761 5.35897 4.61903
351 1 8.63087 1.04852 7.96131
352 2 9.52753 0.928955 7.25822
193 2 7.78519 3.25811 5.06763
198 2 7.47458 4.13144 3.40196
165 2 7.93284 1.91118 7.70561
82 1 5.51815 4.06576 8.4476
91 1 8.87295 2.94606 5.36153
192 2 9.47245 3.83663 5.62916
48 4 9.53142 2.39267 3.75831
168 2 7.03376 6.19271 6.82758
376 2 10.2735 6.40095 5.18611
56 4 6.50182 6.33285 3.6096
143 2 9.13035 5.48499 0.944822
288 3 10.0349 3.50102 2.77314
135 2 14.5005 0.90123 0.65819
142 2 10.6959 5.97387 0.283818
369 2 11.2993 6.08182 7.30287
7 4 14.637 1.76498 4.10638
280 3 13.8001 2.17988 5.35918
51 4 12.1987 2.08845 5.77647
55 4 11.1257 4.4218 1.98887
58 4 11.9603 4.50311 7.57673
281 3 11.1762 1.23132 4.22426
289 3 11.9827 3.47077 0.82472
290 3 12.1408 5.10248 3.20438
293 3 11.6782 3.53534 6.22736
325 3 13.906 0.758753 3.12223
326 3 12.0587 1.05806 1.38866
324 4 12.3768 0.470554 2.83485
49 4 11.9328 2.09094 0.149584
282 3 11.7772 0.988049 6.91422
50 4 12.8751 0.356732 8.0464
59 4 6.78901 5.43038 8.55907
194 2 7.02776 1.54884 4.27939
253 3 6.12466 3.76713 0.85081
379 2 9.91455 -0.0294712 1.96321
361 2 3.9016 5.77195 17.0364
52 4 13.4225 0.464464 15.2649
380 2 9.07304 1.23129 9.06767
353 2 7.16041 1.5194 9.22576
368 2 6.20699 5.32544 16.6406
383 2 7.38527 5.07971 15.0712
366 1 6.42729 5.60504 15.5301
367 2 5.46801 5.52107 14.8839
26 4 5.47627 2.80891 17.2454
39 4 6.03429 4.00702 12.1912
53 4 8.15548 2.58958 15.6947
127 2 7.7358 4.07335 12.6058
125 2 4.76413 4.70111 9.09916
261 3 5.87202 3.09444 10.9872
266 3 5.56133 5.56486 12.016
283 3 7.41357 1.41299 14.7374
285 3 6.99188 3.27646 16.6904
295 3 8.84142 3.59856 14.5778
301 3 9.13893 4.35481 11.863
41 4 5.13807 6.45007 10.7856
300 3 8.16049 4.82394 9.13642
284 3 9.23034 1.84693 16.5569
62 4 9.15717 5.22103 10.4388
333 2 13.4328 0.106388 11.9039
294 3 6.12032 6.54253 9.53392
81 1 9.81543 1.59143 10.8842
169 2 9.61448 1.7057 12.0198
162 2 10.931 1.59283 10.7905
166 2 9.3802 2.49818 10.3121
60 4 9.989 4.06591 13.5784
164 2 9.39516 0.652472 10.4985
71 1 13.6694 1.56636 16.9726
95 1 12.6294 4.21698 9.34757
204 2 11.1279 3.58476 9.04034
119 2 11.9627 2.21593 16.4607
121 2 11.7454 0.407181 12.7059
9 4 13.6684 2.82536 10.0408
54 4 12.2828 2.05139 12.9346
279 3 13.4798 1.63247 8.86997
286 3 12.9847 2.40987 11.4589
287 3 13.3336 1.90081 14.0978
296 3 11.0636 2.99801 13.2974
297 3 10.5739 5.4108 14.176
128 2 10.6875 5.92711 9.99024
260 3 5.22991 3.45119 13.4038
365 2 8.84421 0.369436 12.1043
158 2 3.85965 5.45888 13.9564
18 4 10.309 6.83565 14.7268
117 2 6.96547 0.695153 12.1004
308 3 7.18047 6.96827 6.1091
203 2 10.6287 7.65096 6.16958
44 4 1.1435 11.2756 6.12705
101 1 2.34677 10.9929 7.36977
307 3 1.83778 11.136 4.67907
348 1 0.548839 12.9901 1.38258
42 4 2.68162 8.94252 2.16314
384 2 2.30237 12.2093 0.638026
199 2 2.7772 8.98622 7.17359
375 2 10.6426 8.1816 4.50087
94 1 10.6631 7.97896 7.36771
69 1 10.5806 7.0181 4.24196
93 1 3.01574 7.87431 7.13592
64 4 3.30899 11.3559 3.86241
124 2 9.95577 7.30328 7.92852
131 2 9.78548 6.87974 3.36932
268 3 3.52488 8.70532 0.512786
113 2 3.88288 7.58303 7.79528
122 2 4.00225 8.11507 5.52413
306 3 3.31364 12.5726 2.74362
339 2 6.88681 12.0728 4.08848
338 1 7.33435 12.6349 5.09994
222 2 3.3662 10.8122 6.98533
305 3 3.55118 9.85236 3.10637
63 4 7.72346 8.5734 1.57035
65 4 6.64933 9.49257 7.72245
67 4 5.68003 11.9791 6.08699
99 1 6.53316 10.0078 1.23802
217 2 7.25874 10.8529 1.42722
302 3 7.00392 7.64089 2.68266
304 3 9.10843 9.27994 2.17861
312 3 4.56861 11.6872 4.99771
313 3 6.1536 10.7042 6.92575
314 3 5.39609 13.1386 7.15029
126 2 7.03145 7.92411 6.67797
218 2 5.74282 9.91467 2.02863
225 2 4.24806 12.1661 0.653243
349 2 0.587686 13.1354 0.273233
102 1 3.27743 11.8197 0.144468
216 2 6.14688 10.0159 0.234847
197 2 5.98878 6.77795 5.36573
226 2 3.20236 10.6725 0.161174
342 2 9.7784 9.62422 4.82712
123 2 10.0386 6.76623 1.97861
374 2 7.51334 13.0785 7.97286
359 2 4.94398 6.84321 1.15673
66 4 2.41743 11.6754 9.11341
373 2 1.02534 13.4045 16.4091
362 1 -0.347536 13.1231 12.8939
35 4 2.65216 7.97756 16.6731
68 4 2.18248 12.3463 15.668
319 1 7.55264 12.8038 9.95247
310 3 0.630003 11.5299 10.0984
315 3 1.51032 11.1942 14.8386
363 2 0.253883 12.9626 13.845
181 2 2.85446 10.4123 11.0416
209 2 2.78086 8.27554 11.6864
309 3 3.37075 13.0192 9.07792
120 2 6.37666 13.5692 15.8363
336 2 7.46248 11.9889 17.0181
182 2 2.4744 8.29005 9.96068
179 2 3.52036 9.68646 9.3839
86 1 3.52526 10.5302 10.0954
219 2 8.00949 9.91404 8.88526
303 3 6.77721 7.9478 17.3347
386 2 7.68121 10.1286 17.0267
360 2 5.03789 7.28718 17.3168
154 2 7.82526 9.95704 10.9179
323 2 6.59394 12.392 9.56952
130 2 6.63142 10.8335 15.5968
330 1 7.53384 11.0116 16.3341
215 2 10.2564 7.72526 10.658
334 2 3.88755 12.693 13.1205
316 3 3.59146 13.1429 15.463
129 2 6.45147 9.1854 10.6311
100 1 6.34069 9.66941 9.63884
220 2 5.82984 10.7467 9.81988
317 3 6.32823 12.9605 14.3698
214 2 8.36106 7.37848 10.0258
208 2 4.39062 9.35306 12.2782
335 2 4.1881 11.9368 11.3745
329 1 4.479 12.7536 12.18
331 2 7.59703 11.5523 12.4414
167 2 8.48061 9.75255 12.7555
328 1 8.77933 10.0934 11.7595
207 2 4.19783 7.4025 12.7676
180 2 4.57953 10.8453 10.3601
96 1 3.6184 8.41878 12.5826
115 2 5.20678 8.03299 11.5205
57 4 7.12457 7.31994 15.7902
61 4 4.67243 8.831 14.4003
97 1 4.99315 10.7163 14.3549
210 2 6.57252 10.2708 13.5239
211 2 5.02673 11.257 15.3529
212 2 3.94858 10.8359 13.7928
292 3 8.7835 7.23847 15.3561
298 3 6.21536 8.25197 14.6463
299 3 3.57356 8.65612 15.4604
327 4 6.11632 12.0241 13.1558
98 1 9.27327 7.06925 10.7404
213 2 9.03131 7.09307 11.841
116 2 2.16905 8.92886 13.6818
221 2 5.45287 8.75641 8.90163
385 2 9.65831 9.37409 11.3945
ITEM: TIMESTEP
200
ITEM: NUMBER OF ATOMS
386
ITEM: BOX BOUNDS xy xz yz pp pp pp
-1.2260157750524154e+00 2.4251464202645316e+01 7.7752318828997513e+00
-1.0598672932473274e-01 1.3719649956819472e+01 -1.3412060358283977e+00
4.2510623655953594e-03 1.7345948937634574e+01 1.6346322749467529e-01
ITEM: ATOMS id type x y z
148 2 4.04223 0.361859 7.76859
123 2 9.91053 6.6711 1.88286
36 4 4.59354 3.82627 6.8363
33 4 4.82425 3.97814 1.75349
29 4 5.78734 1.43649 5.32203
24 4 7.46082 0.321512 1.98112
259 3 4.17616 5.41067 6.23693
25 4 3.56983 1.49155 3.4693
85 1 3.41786 4.53375 0.6535
111 2 2.3124 2.1163 4.39148
244 3 3.16631 0.522783 2.38927
369 2 10.9404 6.08702 7.38479
252 3 4.3233 2.74322 2.61403
255 3 3.07931 3.1003 7.45641
248 3 6.46951 0.511941 6.44873
177 2 2.68365 3.68662 0.935953
256 3 5.35161 2.82106 5.88117
245 3 6.77035 1.13904 0.766149
247 3 4.46909 0.724685 4.6133
92 1 7.85471 5.05467 3.55755
118 2 8.93542 2.18492 6.39805
253 3 6.14694 3.7948 0.759946
194 2 6.90243 1.86473 4.09344
59 4 6.96399 5.41431 8.55449
73 1 10.0908 5.78044 1.22102
195 2 8.67114 5.40841 2.7096
358 1 5.2555 6.6584 0.0507996
278 3 8.29777 1.41679 3.3571
291 3 5.2459 5.32942 3.08009
196 2 8.16819 5.07758 4.64908
193 2 7.86586 3.31369 5.2906
198 2 7.34001 4.04708 3.36014
165 2 8.00375 1.93493 7.8064
82 1 5.62566 4.06869 8.38525
91 1 8.92498 2.97303 5.51634
192 2 9.55584 3.8852 5.75086
168 2 7.35841 6.31632 7.05101
376 2 10.4302 6.55202 5.10016
56 4 6.44701 6.15178 3.56295
143 2 9.08113 5.36324 0.863039
142 2 10.7715 5.98557 0.388107
288 3 9.96069 3.36022 2.91533
359 2 4.82603 6.64796 1.11331
197 2 6.48791 6.55179 5.39562
3 2 1.77414 0.200702 15.9835
178 2 2.30051 4.66005 16.8781
250 3 4.53104 2.50769 15.9735
357 2 1.41538 1.85465 16.3397
2 1 2.40759 0.151177 16.9601
318 4 0.275979 0.88277 8.74117
28 4 2.92414 2.28184 8.83716
105 2 1.70962 3.5843 15.502
32 4 5.8241 2.5344 9.52134
31 4 4.02552 3.26281 14.3207
265 3 3.62547 6.16994 10.1478
112 2 2.37557 3.38766 10.1061
30 4 6.67952 0.418876 13.7662
10 4 1.9543 1.27887 12.6977
251 3 4.46087 1.69651 9.21826
159 2 3.20422 5.28139 15.6649
161 2 4.82595 0.908602 15.2789
79 1 3.07203 4.86144 14.6527
160 2 1.94875 4.7234 14.3557
157 2 2.36371 3.86005 11.7195
354 1 0.88473 2.86925 15.955
232 3 0.675286 2.19278 12.0261
106 2 3.08414 0.674547 11.2594
249 3 2.97569 2.14378 13.5962
361 2 3.76598 5.78578 16.8328
117 2 6.93678 0.619256 12.0544
18 4 10.2441 6.77665 14.8103
158 2 3.67291 5.51658 13.9018
353 2 7.16377 1.46019 9.25161
260 3 5.25461 3.61707 13.466
128 2 10.5617 5.98782 10.0519
368 2 6.02493 5.32819 16.6007
383 2 7.50125 5.12019 15.5461
366 1 6.57823 5.72813 15.7389
367 2 5.92217 5.84426 14.7533
26 4 5.47267 2.76142 17.2751
39 4 5.96548 4.08247 12.1552
53 4 8.09201 2.52395 15.711
127 2 7.57616 4.08036 12.7717
125 2 4.88513 4.7519 9.01341
261 3 6.06801 3.13526 10.9144
266 3 5.57547 5.5423 11.7898
283 3 7.46444 1.45528 14.6465
285 3 6.95711 3.17749 16.7552
295 3 8.7573 3.62514 14.6773
301 3 9.15185 4.48933 12.0756
41 4 5.12989 6.55622 10.6421
300 3 8.21273 4.81756 9.31317
62 4 9.06682 5.22206 10.6491
294 3 6.14782 6.56661 9.40072
5 2 2.99756 1.03523 17.2005
246 3 1.79465 1.14128 8.785
202 2 10.5979 9.23647 7.36576
147 2 12.2063 12.8715 6.37787
185 2 10.471 10.0899 8.45175
175 2 9.46762 11.6762 8.50506
311 3 8.34127 12.2165 5.37325
1 4 10.5924 13.1234 1.16025
378 2 10.5374 13.6295 6.40936
382 2 13.1521 10.7908 0.268545
341 1 10.4136 10.3366 4.09819
343 2 11.7527 9.41724 3.52411
75 1 11.4228 13.2313 7.03483
346 2 12.9638 13.2196 2.69864
6 3 10.848 11.4692 1.60717
20 4 10.3959 10.1484 2.34896
377 2 10.5683 11.4944 4.22363
141 2 12.2304 9.17795 0.37535
344 1 14.0619 12.9346 3.00577
230 3 8.76118 13.4189 0.707159
347 2 14.2486 12.8121 4.112
201 2 11.9469 7.82476 7.52027
217 2 7.14157 10.7386 1.80001
144 2 10.9899 12.3973 7.68453
345 2 14.3318 11.9175 2.48521
308 3 7.47313 7.03363 6.20793
338 1 7.23552 12.6205 4.99966
374 2 7.71513 13.0904 7.83141
65 4 6.55989 9.4697 7.70294
342 2 9.37111 9.88486 4.38932
203 2 10.5678 7.7403 6.13503
216 2 6.40833 9.85411 0.16331
375 2 10.572 8.33876 4.21029
94 1 10.7652 8.08129 7.22655
69 1 10.5656 7.11578 4.10806
99 1 6.51809 9.82624 1.33338
126 2 7.14394 7.98765 6.64485
124 2 10.0871 7.58073 7.96485
313 3 6.06909 10.73 6.91634
63 4 7.80817 8.5265 1.56069
304 3 9.13423 9.22535 2.03477
302 3 6.97814 7.37277 2.65146
131 2 9.77492 6.83292 3.34592
186 2 11.1337 11.5508 9.30381
322 2 8.58996 12.0997 9.60558
372 2 9.70763 10.7131 9.99511
88 1 10.1863 11.0208 9.03527
152 2 9.29027 13.326 13.5615
271 3 11.6275 13.0398 14.3376
321 2 7.28659 12.8577 10.8897
371 2 11.4982 12.7074 10.7855
77 1 9.99764 13.1289 11.9226
22 4 11.8558 9.2795 13.7459
23 4 11.6257 12.1515 12.4915
153 2 9.10567 12.9985 11.0922
243 3 11.3422 10.6224 12.6776
274 3 12.5207 9.78714 15.1869
103 1 11.7225 9.03475 10.1193
227 2 11.3129 8.64778 9.09764
4 2 10.909 12.8768 16.8808
229 2 12.395 9.95371 10.0571
337 2 8.43343 11.2003 15.7752
224 2 10.8353 9.32434 10.7872
332 2 9.24302 11.3003 11.8336
242 3 10.8523 8.10365 13.9346
80 1 12.8085 13.5109 14.7782
163 2 13.5116 12.66 15.5021
110 2 13.2268 12.19 11.9321
319 1 7.54175 12.7449 9.79506
385 2 9.68648 9.45474 11.5562
100 1 6.49619 9.7784 9.56963
336 2 7.4788 12.004 17.1459
213 2 8.92986 7.18596 11.9666
98 1 9.146 7.08111 10.8062
327 4 6.1326 11.9799 13.2249
219 2 8.06104 9.81382 8.74318
298 3 6.12443 8.16601 14.4523
292 3 8.80487 7.23039 15.3374
303 3 6.6194 7.93342 17.1818
386 2 7.62941 10.1408 17.1006
210 2 6.70447 10.3852 13.831
317 3 6.50697 13.146 14.1994
61 4 4.66897 8.91937 14.4592
57 4 7.25128 7.46848 15.7801
115 2 4.93832 8.11654 11.3271
154 2 7.96343 10.0587 10.9112
323 2 6.68165 12.2948 9.27226
207 2 4.17087 7.5258 12.809
328 1 8.7677 10.1447 11.7856
167 2 8.33019 9.8775 12.7909
331 2 7.40713 11.5296 12.1331
130 2 6.6094 10.8628 15.76
330 1 7.53516 11.0326 16.4551
215 2 10.1264 7.60007 10.456
214 2 8.27496 7.4948 10.1598
129 2 6.7499 9.31697 10.5633
220 2 6.08452 10.8458 9.75048
360 2 4.97199 7.28141 17.2631
221 2 5.28592 8.77416 8.98167
170 2 15.3683 6.04611 3.50265
50 4 12.8892 0.415668 7.94308
282 3 11.7867 1.09587 6.99011
49 4 11.8442 2.19762 0.224397
324 4 12.3775 0.296555 2.76438
326 3 12.1055 1.09767 1.34117
325 3 13.8965 0.613874 3.19441
293 3 11.7259 3.48056 6.52551