ITEM: TIMESTEP
0
ITEM: NUMBER OF ATOMS
386
ITEM: BOX BOUNDS xy xz yz pp pp pp
-9.8217629042873114e+00 1.6492609739224015e+01 -8.5944045806504832e+00
-1.0598672932473274e-01 1.3719649956819472e+01 -1.3425485844128109e+00
4.2510623655953594e-03 1.7345948937634574e+01 1.6346322749467529e-01
ITEM: ATOMS id type x y z
13 4 -3.99299 6.56715 3.8112
206 2 -2.48891 4.8322 7.97938
12 4 0.0157983 3.72931 2.2015
34 4 1.28853 6.23642 3.39968
70 1 -0.0403888 3.39964 6.67623
134 2 1.36536 4.4408 5.83334
233 3 -0.938248 3.32949 3.44885
235 3 -0.926018 4.50421 1.03562
254 3 1.15474 4.79973 2.6527
111 2 2.213 2.28086 4.24774
258 3 1.88398 6.38878 4.91495
320 2 0.896507 2.87069 6.36691
15 4 0.368262 5.0963 7.13325
107 2 -0.833915 3.4851 5.80973
237 3 -0.841694 6.00486 6.69608
177 2 2.70217 3.71656 1.19228
8 4 0.332391 1.11958 0.626214
234 3 0.670871 2.31057 1.61768
104 2 -0.361089 0.8172 4.54409
132 2 -0.782117 2.33116 7.96951
170 2 -1.04502 5.92226 3.22163
176 2 3.112 5.498 1.46748
38 4 3.28462 6.57267 5.79812
247 3 4.41312 0.920282 4.68979
245 3 7.14874 1.1046 0.524697
256 3 5.88248 2.99499 6.00124
248 3 6.30268 0.366728 6.34926
255 3 3.28805 2.91222 7.20256
252 3 4.55884 2.74601 2.87646
244 3 3.1727 0.4402 2.34778
85 1 3.4956 4.45134 1.03307
25 4 3.59097 1.58206 3.50698
259 3 4.12797 5.3364 6.15257
24 4 7.70476 0.244446 1.72712
29 4 5.86122 1.45018 5.3443
33 4 5.00427 3.99181 2.03865
36 4 4.6519 3.78547 6.8005
246 3 1.63211 1.13502 8.57996
318 4 0.134831 0.840733 8.55064
257 3 1.22812 5.41175 8.46822
236 3 -3.11176 6.64415 5.23037
28 4 2.77233 2.24856 8.64343
378 2 2.9875 0.00742186 6.45188
148 2 4.3903 0.0945866 7.51712
138 2 -4.08577 5.0017 15.7431
158 2 3.75974 5.40262 13.7565
250 3 4.47188 2.51999 15.973
357 2 1.48936 1.80763 16.2993
183 2 0.875633 6.48164 11.2925
356 2 0.371056 3.22808 16.6297
125 2 4.65426 4.52608 9.11172
105 2 1.78963 3.43736 15.3868
108 2 -3.03667 5.51745 14.0705
140 2 -2.72417 3.61565 16.0335
340 2 -0.411437 0.894031 10.2238
112 2 1.99248 3.32425 9.75258
72 1 -2.93591 4.73645 15.8277
10 4 1.90184 1.35226 12.6299
11 4 -0.102278 3.50625 11.6348
17 4 -1.29727 5.19855 14.0743
78 1 1.53667 4.41093 11.3502
79 1 3.06248 4.78209 14.5565
155 2 1.41704 5.11437 12.2785
157 2 2.46619 3.79973 11.388
231 3 -1.10291 3.28231 10.1961
232 3 0.468414 1.94267 12.1778
238 3 -0.88567 4.28978 12.7695
249 3 2.9218 2.19025 13.5066
139 2 -1.08846 4.2172 15.5345
106 2 2.95209 1.0514 11.1676
37 4 2.01695 5.81228 9.95356
137 2 -0.866388 1.9654 16.2354
354 1 0.959547 2.68645 15.8158
355 2 0.292813 2.34985 14.9527
160 2 1.98542 4.93997 14.2987
161 2 4.847 0.896599 15.4376
159 2 3.35588 5.10499 15.5884
145 2 -1.80535 5.9681 9.725
205 2 -3.53185 5.19718 10.0017
262 3 -0.492409 6.62393 14.1819
251 3 4.15379 1.70955 9.31623
178 2 2.48545 4.66248 17.3225
30 4 6.67176 0.343077 13.8437
117 2 6.87369 0.394025 12.0998
265 3 3.53291 5.92989 10.2953
5 2 2.98606 0.762691 17.1405
31 4 4.03274 3.17446 14.2866
32 4 5.64849 2.50136 9.53507
14 4 -2.5517 5.80619 17.2656
270 3 -1.78918 12.4821 8.66857
147 2 -4.19837 12.5381 6.17446
185 2 -6.01597 10.1678 8.26692
175 2 -6.723 11.8365 8.50981
311 3 -7.75688 12.7468 5.71975
1 4 -5.83739 13.081 1.27827
189 2 1.03317 10.5269 3.23995
19 4 -3.3591 7.8477 1.15711
341 1 -5.73125 10.5153 4.49833
343 2 -4.60159 9.57447 3.89522
75 1 -4.8501 13.063 6.95173
239 3 -3.77703 7.67309 2.71163
6 3 -5.462 11.5891 1.82464
20 4 -6.05984 10.3863 2.7811
377 2 -5.45827 11.5876 4.73284
141 2 -4.21562 9.14576 0.264194
272 3 -0.112142 12.3544 6.42425
230 3 -7.6735 13.2886 0.7398
188 2 0.169715 8.88434 2.75744
201 2 -4.65477 7.81892 7.61333
240 3 -2.70126 6.79881 0.199559
144 2 -5.349 12.2979 7.66435
114 2 1.32272 9.82135 1.44614
171 2 -0.511777 7.36908 2.09533
16 4 -2.04562 7.0159 6.39063
191 2 -2.1994 9.64293 2.11367
172 2 -0.771108 7.66238 4.10324
83 1 -0.423248 6.9058 3.19363
345 2 -2.54614 11.924 1.584
90 1 -2.47989 9.45453 0.985065
200 2 2.23683 7.31301 7.65204
241 3 -2.93068 7.48889 8.00434
174 2 -1.57867 9.11269 4.90581
347 2 -2.06038 12.3133 3.28061
27 4 -1.12296 13.2582 7.24231
84 1 -1.25526 8.62624 5.82722
173 2 -1.50506 9.20821 6.81442
187 2 -0.154396 8.20872 5.88297
267 3 2.4074 7.49534 2.53024
89 1 0.48303 9.9344 2.35328
344 1 -2.32458 12.7482 2.324
381 2 -0.395661 10.573 1.93304
223 2 1.15123 9.78202 7.31446
342 2 -6.57063 10.0354 5.08758
382 2 -3.29313 10.7606 0.207315
109 2 -1.00932 8.66911 0.290545
190 2 0.622427 11.784 1.60732
202 2 -6.12312 9.02615 7.42731
346 2 -3.13695 13.5657 2.25344
186 2 -5.06942 11.2897 9.32927
322 2 -7.75218 11.952 9.42372
372 2 -6.69007 10.696 9.99873
88 1 -6.08903 11.0041 9.04349
152 2 -6.99252 13.3357 13.4866
271 3 -4.80221 12.9215 14.6485
133 2 -2.00498 6.85046 11.4488
371 2 -4.66668 13.2782 11.1816
77 1 -6.31353 13.1173 11.9227
22 4 -4.26775 9.26178 13.6633
23 4 -4.87288 12.2247 12.6866
153 2 -7.15101 12.9718 11.0731
243 3 -4.9861 10.6637 12.7266
274 3 -3.79544 9.64472 15.2053
103 1 -4.74056 9.17032 10.1263
227 2 -5.12908 8.7634 9.0891
228 2 -3.90792 8.10931 10.866
229 2 -4.20224 10.1196 10.0283
337 2 -7.97788 11.3218 15.5356
224 2 -5.66912 9.45268 10.785
332 2 -7.07028 11.2641 11.7962
242 3 -5.29517 8.06705 13.7813
80 1 -3.60433 13.4277 14.9382
263 3 1.38119 7.01921 16.0591
364 2 -1.38252 12.3858 14.2808
46 4 -3.11535 10.1387 16.5322
110 2 -3.25665 12.3638 12.1031
156 2 0.763141 8.18445 9.42657
163 2 -2.76394 12.5916 15.6542
151 2 -2.93933 7.56131 12.2661
277 3 0.00625646 10.3299 12.8682
146 2 -0.454406 7.33706 10.2933
76 1 -2.73873 8.56057 12.8366
150 2 -2.53093 9.45063 12.0415
21 4 -2.58353 8.18966 9.39775
350 2 -1.06395 10.8163 16.1544
275 3 -1.84451 11.5709 16.3978
184 2 1.18377 8.76368 11.137
149 2 -1.96097 8.48136 13.671
74 1 -1.63701 6.94085 10.3145
87 1 1.42546 7.98568 10.2949
40 4 -0.151574 7.40731 15.6448
43 4 -1.35129 11.246 9.57732
45 4 0.776467 9.81803 14.2005
47 4 -0.390426 11.5179 11.8923
269 3 -1.75293 9.70579 9.35595
273 3 -0.261129 9.14551 15.2464
276 3 -1.98017 11.6423 11.3858
2 1 -6.27114 13.5392 16.9568
4 2 -5.64941 12.531 16.892
370 2 -5.01758 6.8948 16.1733
264 3 -1.46687 6.93595 16.7128
3 2 -7.12387 13.574 16.0894
92 1 7.92335 5.5138 3.41208
118 2 8.93792 2.37179 6.21045
73 1 10.198 5.86567 1.17186
195 2 8.68349 5.66118 2.50491
358 1 5.34074 6.55323 0.0562731
278 3 8.41517 1.44069 3.21567
291 3 5.34522 5.45875 3.14278
196 2 8.38015 5.93118 4.51577
351 1 8.56496 1.14712 7.7854
352 2 9.38588 0.880029 7.00246
193 2 7.9865 3.60492 5.18301
198 2 7.49428 4.43607 3.5349
165 2 8.03919 2.10313 7.4003
82 1 5.55982 4.06452 8.46209
91 1 9.02219 3.18397 5.34842
192 2 9.78716 3.97817 5.55984
48 4 9.51868 2.4781 3.74821
168 2 7.10666 6.22327 6.96
359 2 5.16353 6.52304 1.17982
56 4 6.40259 6.48695 3.54794
143 2 9.10785 5.42174 0.894332
288 3 10.0472 3.62885 2.77546
135 2 14.5005 0.662303 0.410216
142 2 10.8716 5.96081 0.300252
369 2 11.3979 6.08697 7.17482
7 4 14.6968 1.85338 3.98006
280 3 13.8082 1.96189 5.24029
51 4 12.26 2.04391 5.70471
55 4 11.2157 4.40344 2.00314
58 4 12.0301 4.5275 7.49357
281 3 11.2632 1.49203 4.0816
289 3 11.8818 3.62042 0.50049
290 3 12.4538 5.08745 3.02929
293 3 11.9334 3.50367 6.28816
325 3 13.9865 0.852058 3.0549
326 3 11.9453 0.926389 1.37468
324 4 12.4577 0.409684 2.82727
49 4 11.7872 2.04355 0.306399
282 3 11.8759 0.974404 6.81409
50 4 12.8008 0.329985 8.03473
59 4 6.81499 5.38366 8.56845
194 2 7.13212 1.41518 4.13519
253 3 6.18927 3.6918 0.923745
376 2 10.2928 6.29063 4.94954
379 2 10.1575 -0.062483 1.56058
361 2 3.93319 5.69084 16.9212
52 4 13.4924 0.59771 15.033
380 2 9.00636 1.19114 8.82721
353 2 7.01956 1.65538 8.90795
368 2 6.21902 5.47342 16.6771
383 2 7.18435 5.18537 14.9966
366 1 6.34814 5.75558 15.537
367 2 5.37918 5.51939 14.996
26 4 5.53423 2.73483 17.125
39 4 6.16515 4.0796 12.278
53 4 8.12205 2.62854 15.6084
127 2 7.81901 4.17657 12.602
18 4 10.4331 6.81744 14.7802
261 3 5.96278 3.0961 10.9449
266 3 5.74097 5.5839 11.9911
283 3 7.36078 1.42353 14.7188
285 3 6.94159 3.32068 16.6412
295 3 8.78027 3.65617 14.5531
301 3 9.23904 4.42763 11.8497
41 4 5.15221 6.41229 10.8341
300 3 8.25405 4.81003 9.08763
284 3 9.13308 1.86647 16.6396
62 4 9.197 5.02868 10.4072
136 2 13.4988 2.53163 16.9552
294 3 6.12402 6.52279 9.57069
81 1 9.75459 1.35934 10.7698
169 2 10.015 1.5438 11.8426
162 2 10.5831 0.837519 10.1868
166 2 9.5943 2.35855 10.3099
60 4 9.98319 4.14542 13.6376
164 2 8.78683 0.711951 10.6699
71 1 13.776 1.44093 16.9578
95 1 12.8907 4.35683 9.19726
204 2 11.2259 3.76575 9.03526
119 2 11.9094 2.04809 16.732
121 2 11.8094 0.557241 12.4492
9 4 13.6991 2.88588 9.96372
54 4 12.2668 2.20217 12.8403
279 3 13.5357 1.48645 9.10012
286 3 12.9804 2.62322 11.4439
287 3 13.3227 1.83152 14.11
296 3 11.0375 2.97274 13.3394
297 3 10.7215 5.46631 14.0433
128 2 10.7851 5.8084 10.1575
260 3 5.39172 3.54876 13.517
365 2 9.01377 0.225262 12.2161
120 2 15.0622 0.114334 15.602
333 2 13.3711 0.087933 11.8276
213 2 8.90961 6.81237 11.819
308 3 7.19139 7.01574 6.16337
203 2 10.4883 7.57264 6.14597
44 4 1.15758 11.2847 6.14867
101 1 2.3645 11.0047 7.37873
307 3 1.82431 11.2424 4.6657
348 1 0.661618 12.946 1.19189
42 4 2.82923 8.93834 2.06657
384 2 2.53182 12.1316 0.698356
199 2 3.01308 9.05251 7.20102
375 2 10.4157 8.12101 4.55183
94 1 10.6083 7.92258 7.38006
69 1 10.5301 7.0752 4.15048
93 1 3.21945 7.91237 7.19446
64 4 3.53038 11.3053 3.96078
124 2 10.0015 7.26367 8.05488
374 2 7.61479 12.9297 7.81709
268 3 3.48491 8.79318 0.629511
113 2 4.12661 7.67212 7.78986
122 2 4.20139 8.05696 5.50698
306 3 3.54076 12.5408 2.97034
339 2 6.82803 12.7231 4.2636
338 1 7.44401 12.7287 5.37404
222 2 3.38147 10.9665 6.8916
305 3 3.65525 9.96763 3.11395
63 4 7.7718 8.6607 1.54011
65 4 6.63649 9.40588 7.74989
67 4 5.77249 12.0235 6.19637
99 1 6.62707 10.0552 1.10186
217 2 6.96566 11.0409 1.42092
302 3 7.01645 7.75257 2.52987
304 3 9.12924 9.43512 2.22506
312 3 4.63744 11.6142 5.04092
313 3 6.24217 10.6812 6.95385
314 3 5.30522 13.1448 7.29055
126 2 7.12409 7.91033 6.74013
218 2 5.69614 9.71771 1.62077
225 2 4.45807 12.2886 0.509988
123 2 10.0573 6.8724 1.75448
102 1 3.50593 11.7543 0.177009
131 2 9.88041 6.93231 3.17356
197 2 6.14083 7.14597 5.33464
226 2 3.57872 10.5788 0.362337
216 2 6.54091 9.93556 0.0142932
66 4 2.37412 11.5999 9.11425
373 2 0.934961 13.0444 16.4413
362 1 -0.193922 13.1598 12.9713
35 4 2.65949 7.88047 16.7091
68 4 2.23805 12.2198 15.6607
319 1 7.59683 12.6792 9.73006
310 3 0.63009 11.6416 10.0953
315 3 1.65173 11.0019 14.8101
363 2 0.407426 12.9558 13.8736
181 2 2.9665 10.4266 10.948
209 2 2.76651 8.21683 11.8437
309 3 3.04002 13.0719 8.99233
321 2 7.47259 12.8391 10.8468
336 2 7.46832 11.9984 17.0474
116 2 1.90764 8.64968 13.6422
179 2 3.44754 9.55542 9.30588
86 1 3.63949 10.4676 9.99729
219 2 8.11087 9.64921 8.98263
303 3 6.96093 7.87951 17.3024
386 2 7.72437 10.2037 16.7425
360 2 4.98795 7.24447 17.1708
154 2 7.95624 9.96621 10.9637
323 2 6.65401 12.3213 9.24946
130 2 6.54874 11.0276 15.5128
330 1 7.55324 11.1561 16.1867
215 2 10.2455 7.78554 10.4418
334 2 3.8626 12.6918 13.1961
316 3 3.46037 13.1846 15.322
129 2 6.57119 8.60072 10.3949
100 1 6.50573 9.43325 9.6336
220 2 6.17787 10.4019 10.0786
317 3 6.50436 13.3001 14.1009
214 2 8.47283 7.1911 9.9413
208 2 4.18277 9.36073 12.3153
335 2 4.14938 11.9147 11.3726
329 1 4.46061 12.7588 12.2411
331 2 7.40583 11.5287 12.2923
167 2 8.25544 10.0002 12.8902
328 1 8.80279 10.1316 11.8171
207 2 4.15966 7.45004 12.8853
180 2 4.75868 10.7458 10.0897
96 1 3.54624 8.4615 12.6519
115 2 5.08696 8.05484 11.5104
57 4 7.08733 7.41453 15.6648
61 4 4.59381 8.94088 14.4617
97 1 4.84126 10.8535 14.4713
210 2 6.45235 10.4429 13.8062
211 2 4.69693 11.2613 15.5321
212 2 3.88257 10.9142 13.7289
292 3 8.8382 7.07718 15.2456
298 3 6.09211 8.27006 14.5731
299 3 3.59947 8.56577 15.5711
327 4 6.05596 12.1285 13.1817
98 1 9.34997 6.95639 10.6554
385 2 9.61879 9.34682 11.7096
182 2 2.52534 8.05784 9.97716
221 2 5.16428 8.67887 8.70411
349 2 -0.90105 13.2849 17.3352
ITEM: TIMESTEP
100
ITEM: NUMBER OF ATOMS
386
ITEM: BOX BOUNDS xy xz yz pp pp pp
-9.8149318175579872e+00 1.6492609739224015e+01 -8.5875734939211590e+00
-1.0598672932473274e-01 1.3719649956819472e+01 -1.3425485844128109e+00
4.2510623655953594e-03 1.7345948937634574e+01 1.6346322749467529e-01
ITEM: ATOMS id type x y z
13 4 -3.96802 6.58305 3.80623
206 2 -2.58386 4.66503 8.13984
12 4 0.0860305 3.6603 2.15307
34 4 1.34284 6.19795 3.36989
70 1 0.308233 3.24892 6.81531
134 2 1.57143 4.28803 5.81772
233 3 -1.00615 3.07377 3.28067
235 3 -0.702694 4.622 1.01677
254 3 1.28921 4.66658 2.9439
111 2 2.15421 2.085 4.01816
258 3 1.87074 6.33795 4.92016
320 2 1.2754 2.69439 6.58597
15 4 0.509106 4.94066 7.12834
107 2 -0.530036 3.14912 5.98175
237 3 -0.72077 6.00066 6.588
177 2 2.51843 3.82127 1.28124
8 4 0.294054 1.18288 0.615356
234 3 0.65611 2.40725 1.5057
104 2 -0.435564 0.881851 4.96019
132 2 -0.67882 2.32859 8.09339
170 2 -1.12437 5.99233 3.29445
176 2 3.12196 5.5887 1.25693
38 4 3.2277 6.53307 5.76948
247 3 4.54476 0.961688 4.6271
245 3 6.97576 1.26419 0.672058
256 3 5.59769 3.01458 5.92709
248 3 6.5414 0.427598 6.35967
255 3 3.18882 3.1019 7.38752
252 3 4.37743 2.75985 2.71581
244 3 3.18327 0.404423 2.34586
85 1 3.37494 4.5039 1.03864
25 4 3.66427 1.53408 3.42736
259 3 4.21944 5.37991 6.22033
24 4 7.55076 0.32291 1.90599
29 4 5.79958 1.46066 5.44624
33 4 4.94035 3.98815 1.91926
36 4 4.54002 3.86466 6.80249
246 3 1.80874 1.12064 8.56315
148 2 4.15037 0.366179 7.52394
138 2 -3.87177 5.23466 15.4117
264 3 -1.21349 6.78357 16.8044
250 3 4.44568 2.58954 15.9753
357 2 1.33167 1.77705 16.2108
183 2 0.884931 6.79435 11.2985
356 2 0.197313 3.26847 16.5921
28 4 2.91728 2.23314 8.73126
105 2 1.73553 3.56086 15.4876
108 2 -3.09504 5.50904 13.8711
140 2 -2.70194 3.66786 15.803
340 2 -0.320283 1.00805 10.4077
112 2 2.34684 3.42044 9.84861
72 1 -2.77998 4.81395 15.6521
10 4 1.88761 1.40988 12.5626
11 4 -0.0873553 3.51946 11.5229
17 4 -1.34846 5.24113 13.9768
78 1 1.59181 4.49064 11.3064
79 1 3.15356 4.85378 14.7695
155 2 1.36171 5.1673 12.2113
157 2 2.51669 3.89055 11.5663
231 3 -1.00636 3.40896 10.1418
232 3 0.470364 1.97728 12.1604
238 3 -0.90028 4.34946 12.6454
249 3 2.89368 2.28751 13.4128
139 2 -0.936019 4.22363 15.4127
106 2 2.96122 0.869043 11.1651
37 4 1.96994 5.99005 10.0456
137 2 -0.883143 1.96382 16.3186
354 1 0.857051 2.77348 15.8206
355 2 0.227873 2.55483 14.9051
160 2 2.10083 4.98138 14.5039
161 2 4.85781 1.12003 15.3626
159 2 3.3698 5.18504 15.8956
145 2 -1.48269 5.92684 9.71496
205 2 -3.77401 4.98729 10.1865
262 3 -0.576762 6.58217 14.2918
251 3 4.4269 1.68781 9.40823
136 2 -2.84802 2.70684 16.8504
30 4 6.70352 0.435548 13.7957
133 2 -2.06847 6.80534 11.1824
265 3 3.58275 6.19437 10.3024
5 2 2.75578 1.19344 17.3438
31 4 3.97593 3.19476 14.2696
32 4 5.78352 2.55476 9.54597
14 4 -2.45083 5.84915 17.0972
318 4 0.278917 0.880924 8.71153
2 1 2.36701 0.108274 17.0692
178 2 2.26041 4.60126 17.2415
3 2 1.58376 0.119313 16.312
257 3 1.30334 5.50957 8.67644
202 2 -5.97093 9.09551 7.54351
147 2 -3.97816 12.6387 6.38672
185 2 -5.9496 10.2815 8.28767
175 2 -6.65652 12.0603 8.6047
311 3 -7.87766 12.7137 5.50561
1 4 -5.89373 13.0394 1.23202
189 2 1.01591 10.3758 3.25115
19 4 -3.26755 7.86844 1.1406
341 1 -5.75128 10.2405 4.37067
343 2 -4.41787 9.51875 3.61701
75 1 -4.83197 13.1426 6.99223
239 3 -3.62107 7.62636 2.66998
6 3 -5.59931 11.5037 1.61354
20 4 -5.96794 10.2232 2.60869
377 2 -5.71095 11.291 4.70966
141 2 -4.13107 9.19472 0.321364
272 3 -0.0724343 12.1944 6.57045
230 3 -7.72733 13.43 0.719864
188 2 0.220533 8.73869 2.62998
201 2 -4.58422 7.75609 7.6991
270 3 -1.84608 12.4515 8.54052
144 2 -5.24623 12.3831 7.75194
114 2 1.56559 9.98924 1.00361
171 2 -0.655026 7.37695 2.23217
16 4 -1.84918 7.18641 6.23317
191 2 -2.00586 9.63603 2.0198
172 2 -0.594702 7.57814 4.0202
83 1 -0.442776 6.86927 3.14573
345 2 -2.1011 11.7659 2.00152
90 1 -2.32582 9.41124 0.935233
200 2 1.97701 7.23382 7.50698
241 3 -2.79171 7.549 7.86943
174 2 -1.36758 9.37866 4.90189
347 2 -2.22055 12.6566 3.77535
27 4 -1.03564 13.2116 7.30668
84 1 -1.00581 8.75485 5.72841
173 2 -1.02219 9.34886 6.72212
187 2 0.0269214 8.24372 5.50892
267 3 2.20359 7.40195 2.46108
89 1 0.535761 9.8171 2.28445
344 1 -2.27011 12.7622 2.60611
381 2 -0.375084 10.4207 2.03788
223 2 1.09266 9.70788 7.05307
346 2 -3.24983 13.192 2.43055
382 2 -3.23791 10.8186 0.210646
109 2 -1.04462 8.70812 0.183724
190 2 0.587146 11.8317 1.71943
378 2 -5.6712 13.3961 6.34991
236 3 -2.90767 6.82066 5.05028
240 3 -2.68607 6.74493 0.129436
186 2 -5.04446 11.4914 9.42814
322 2 -7.79358 12.0832 9.55418
372 2 -6.6799 10.7871 9.99041
88 1 -6.11661 11.123 9.07432
152 2 -6.90422 13.4517 13.5406
271 3 -4.69626 13.0543 14.5041
321 2 -8.81677 12.8572 11.0625
371 2 -4.81894 12.9995 10.9223
77 1 -6.29497 13.0411 11.9758
22 4 -4.31419 9.14302 13.7271
23 4 -4.79442 12.119 12.6
153 2 -7.19917 12.9253 11.2507
243 3 -5.04539 10.5375 12.6732
274 3 -3.78115 9.75326 15.2174
103 1 -4.44552 8.86193 10.2962
227 2 -4.99399 8.54614 9.21467
228 2 -3.69399 7.73818 10.8742
229 2 -3.68459 9.83959 10.2161
337 2 -7.94514 11.1465 15.7013
224 2 -5.308 9.13584 11.0461
332 2 -7.13231 11.2333 11.7449
242 3 -5.39557 7.92646 13.6312
80 1 -3.53687 13.5511 14.896
263 3 1.42065 6.9994 16.1101
364 2 -1.55738 12.328 14.1227
46 4 -3.14284 10.3867 16.54
110 2 -3.21021 12.2279 11.9236
156 2 0.732821 8.18059 9.34037
163 2 -2.79708 12.8599 15.6338
151 2 -2.84972 7.47644 12.8955
277 3 -0.0313891 10.1934 12.7651
146 2 -0.452817 7.38419 10.3104
76 1 -2.72387 8.57606 12.968
150 2 -2.63907 9.07958 11.8877
21 4 -2.42832 8.26503 9.20675
350 2 -1.23426 11.2804 15.8903
275 3 -1.79324 11.8258 16.5884
184 2 1.04565 9.06771 10.8918
149 2 -1.81305 8.82765 13.569
74 1 -1.55942 6.93473 10.1916
87 1 1.35155 8.17617 10.2859
40 4 -0.0415817 7.51117 15.5794
43 4 -1.19134 11.2236 9.49323
45 4 0.826468 9.91552 14.1573
47 4 -0.487706 11.4197 11.9018
269 3 -1.55592 9.69793 9.17589
273 3 -0.13576 9.08925 15.224
276 3 -1.99924 11.4259 11.2944
370 2 -5.13335 6.92007 16.1837
4 2 -5.3849 12.9907 16.9267
92 1 7.92279 5.18079 3.58199
118 2 8.91691 2.18176 6.23132
73 1 10.0851 5.86767 1.24071
195 2 8.66506 5.51182 2.7241
358 1 5.33187 6.71988 0.0581334
278 3 8.27922 1.539 3.27485
291 3 5.42354 5.51091 2.95008
196 2 8.37445 5.35897 4.61903
351 1 8.63567 1.04852 7.96131
352 2 9.53272 0.928955 7.25822
193 2 7.79069 3.25811 5.06763
198 2 7.48036 4.13144 3.40196
165 2 7.93773 1.91118 7.70561
82 1 5.5229 4.06576 8.4476
91 1 8.87883 2.94606 5.36153
192 2 9.47907 3.83663 5.62916
48 4 9.53736 2.39267 3.75831
168 2 7.04033 6.19271 6.82758
376 2 10.2818 6.40095 5.18611
56 4 6.50821 6.33285 3.6096
143 2 9.13765 5.48499 0.944822
288 3 10.0417 3.50102 2.77314
135 2 14.5082 0.90123 0.65819
142 2 10.7042 5.97387 0.283818
369 2 11.308 6.08182 7.30287
7 4 14.6452 1.76498 4.10638
280 3 13.8081 2.17988 5.35918
51 4 12.2059 2.08845 5.77647
55 4 11.1334 4.4218 1.98887
58 4 11.9685 4.50311 7.57673
281 3 11.1824 1.23132 4.22426
289 3 11.9904 3.47077 0.82472
290 3 12.1494 5.10248 3.20438
293 3 11.6858 3.53534 6.22736
325 3 13.9133 0.758753 3.12223
326 3 12.0652 1.05806 1.38866
324 4 12.3832 0.470554 2.83485
49 4 11.9398 2.09094 0.149584
282 3 11.7835 0.988049 6.91422
50 4 12.8817 0.356732 8.0464
59 4 6.79507 5.43038 8.55907
194 2 7.03202 1.54884 4.27939
253 3 6.12959 3.76713 0.85081
379 2 9.91948 -0.0294712 1.96321
361 2 3.90636 5.77195 17.0364
52 4 13.4294 0.464464 15.2649
380 2 9.07815 1.23129 9.06767
353 2 7.1647 1.5194 9.22576
368 2 6.21267 5.32544 16.6406
383 2 7.39143 5.07971 15.0712
366 1 6.43323 5.60504 15.5301
367 2 5.47343 5.52107 14.8839
26 4 5.48033 2.80891 17.2454
39 4 6.03925 4.00702 12.1912
53 4 8.16078 2.58958 15.6947
127 2 7.74164 4.07335 12.6058
125 2 4.76881 4.70111 9.09916
261 3 5.87645 3.09444 10.9872
266 3 5.56683 5.56486 12.016
283 3 7.41791 1.41299 14.7374
285 3 6.99693 3.27646 16.6904
295 3 8.84757 3.59856 14.5778
301 3 9.14562 4.35481 11.863
41 4 5.14381 6.45007 10.7856
300 3 8.16694 4.82394 9.13642
284 3 9.2358 1.84693 16.5569
62 4 9.1643 5.22103 10.4388
333 2 13.4395 0.106388 11.9039
294 3 6.1266 6.54253 9.53392
81 1 9.82108 1.59143 10.8842
169 2 9.62008 1.7057 12.0198
162 2 10.9372 1.59283 10.7905
166 2 9.38609 2.49818 10.3121
60 4 9.99596 4.06591 13.5784
164 2 9.40013 0.652472 10.4985
71 1 13.677 1.56636 16.9726
95 1 12.6378 4.21698 9.34757
204 2 11.1352 3.58476 9.04034
119 2 11.9697 2.21593 16.4607
121 2 11.7514 0.407181 12.7059
9 4 13.6766 2.82536 10.0408
54 4 12.29 2.05139 12.9346
279 3 13.4873 1.63247 8.86997
286 3 12.9923 2.40987 11.4589
287 3 13.3412 1.90081 14.0978
296 3 11.0706 2.99801 13.2974
297 3 10.5818 5.4108 14.176
128 2 10.6957 5.92711 9.99024
260 3 5.23419 3.45119 13.4038
365 2 8.84876 0.369436 12.1043
158 2 3.86424 5.45888 13.9564
18 4 10.3175 6.83565 14.7268
117 2 6.96924 0.695153 12.1004
308 3 7.18752 6.96827 6.1091
203 2 10.6378 7.65096 6.16958
44 4 1.14968 11.2756 6.12705
101 1 2.3534 10.9929 7.36977
307 3 1.84424 11.136 4.67907
348 1 0.555598 12.9901 1.38258
42 4 2.68741 8.94252 2.16314
384 2 2.30961 12.2093 0.638026
199 2 2.78304 8.98622 7.17359
375 2 10.652 8.1816 4.50087
94 1 10.6723 7.97896 7.36771
69 1 10.5894 7.0181 4.24196
93 1 3.02115 7.87431 7.13592
64 4 3.3163 11.3559 3.86241
124 2 9.96436 7.30328 7.92852
131 2 9.79379 6.87974 3.36932
268 3 3.53099 8.70532 0.512786
113 2 3.88858 7.58303 7.79528
122 2 4.00828 8.11507 5.52413
306 3 3.32157 12.5726 2.74362
339 2 6.89626 12.0728 4.08848
338 1 7.34431 12.6349 5.09994
222 2 3.37326 10.8122 6.98533
305 3 3.55787 9.85236 3.10637
63 4 7.7316 8.5734 1.57035
65 4 6.65736 9.49257 7.72245
67 4 5.68883 11.9791 6.08699
99 1 6.54142 10.0078 1.23802
217 2 7.26778 10.8529 1.42722
302 3 7.01123 7.64089 2.68266
304 3 9.11761 9.27994 2.17861
312 3 4.57671 11.6872 4.99771
313 3 6.16199 10.7042 6.92575
314 3 5.40532 13.1386 7.15029
126 2 7.03889 7.92411 6.67797
218 2 5.75064 9.91467 2.02863
225 2 4.25626 12.1661 0.653243
349 2 0.594542 13.1354 0.273233
102 1 3.28497 11.8197 0.144468
216 2 6.15495 10.0159 0.234847
197 2 5.99513 6.77795 5.36573
226 2 3.2093 10.6725 0.161174
342 2 9.78808 9.62422 4.82712
123 2 10.047 6.76623 1.97861
374 2 7.5236 13.0785 7.97286
359 2 4.94986 6.84321 1.15673
66 4 2.42443 11.6754 9.11341
373 2 1.03247 13.4045 16.4091
362 1 -0.341213 13.1231 12.8939
35 4 2.65739 7.97756 16.6731
68 4 2.18967 12.3463 15.668
319 1 7.56276 12.8038 9.95247
310 3 0.636031 11.5299 10.0984
315 3 1.5166 11.1942 14.8386
363 2 0.260421 12.9626 13.845
181 2 2.86103 10.4123 11.0416
209 2 2.78633 8.27554 11.6864
309 3 3.3789 13.0192 9.07792
120 2 6.38655 13.5692 15.8363
336 2 7.47212 11.9889 17.0181
182 2 2.47973 8.29005 9.96068
179 2 3.52692 9.68646 9.3839
86 1 3.53224 10.5302 10.0954
219 2 8.01841 9.91404 8.88526
303 3 6.78449 7.9478 17.3347
386 2 7.69004 10.1286 17.0267
360 2 5.04397 7.28718 17.3168
154 2 7.83409 9.95704 10.9179
323 2 6.60339 12.392 9.56952
130 2 6.64008 10.8335 15.5968
330 1 7.54303 11.0116 16.3341
215 2 10.2654 7.72526 10.658
334 2 3.89577 12.693 13.1205
316 3 3.59975 13.1429 15.463
129 2 6.45924 9.1854 10.6311
100 1 6.34865 9.66941 9.63884
220 2 5.83808 10.7467 9.81988
317 3 6.33781 12.9605 14.3698
214 2 8.36888 7.37848 10.0258
208 2 4.39743 9.35306 12.2782
335 2 4.19611 11.9368 11.3745
329 1 4.48756 12.7536 12.18
331 2 7.60654 11.5523 12.4414
167 2 8.48967 9.75255 12.7555
328 1 8.78871 10.0934 11.7595
207 2 4.20356 7.4025 12.7676
180 2 4.58719 10.8453 10.3601
96 1 3.62435 8.41878 12.5826
115 2 5.21334 8.03299 11.5205
57 4 7.13171 7.31994 15.7902
61 4 4.67911 8.831 14.4003
97 1 5.00094 10.7163 14.3549
210 2 6.58088 10.2708 13.5239
211 2 5.0348 11.257 15.3529
212 2 3.9559 10.8359 13.7928
292 3 8.79144 7.23847 15.3561
298 3 6.22252 8.25197 14.6463
299 3 3.5796 8.65612 15.4604
327 4 6.12533 12.0241 13.1558
98 1 9.28139 7.06925 10.7404
213 2 9.03931 7.09307 11.841
116 2 2.17454 8.92886 13.6818
221 2 5.45993 8.75641 8.90163
385 2 9.66777 9.37409 11.3945
ITEM: TIMESTEP
200
ITEM: NUMBER OF ATOMS
386
ITEM: BOX BOUNDS xy xz yz pp pp pp
-1.2273583236368286e+00 2.4289286810480213e+01 7.7966770712561999e+00
-1.0598672932473274e-01 1.3719649956819472e+01 -1.3425485844128109e+00
4.2510623655953594e-03 1.7345948937634574e+01 1.6346322749467529e-01
ITEM: ATOMS id type x y z
148 2 4.04426 0.362123 7.76524
123 2 9.92665 6.67203 1.8828
36 4 4.60237 3.82651 6.83657
33 4 4.83402 3.9784 1.7535
29 4 5.79566 1.43709 5.32142
24 4 7.47008 0.322109 1.98093
259 3 4.18426 5.40978 6.23739
25 4 3.57609 1.49159 3.4689
85 1 3.42681 4.53589 0.654277
111 2 2.31973 2.11752 4.39198
244 3 3.17059 0.522944 2.38985
369 2 10.9603 6.08747 7.38497
252 3 4.33098 2.74343 2.614
255 3 3.08607 3.1003 7.45716
248 3 6.47744 0.511725 6.44716
177 2 2.69177 3.68964 0.936435
256 3 5.3585 2.82066 5.88098
245 3 6.7804 1.1402 0.766172
247 3 4.47642 0.724144 4.61158
92 1 7.86746 5.05392 3.55669
118 2 8.94362 2.18718 6.39608
253 3 6.15695 3.79485 0.759031
194 2 6.91154 1.87102 4.09115
59 4 6.97471 5.41344 8.55513
73 1 10.1057 5.78072 1.22197
195 2 8.68449 5.40632 2.70941
358 1 5.26755 6.65882 0.0505828
278 3 8.30667 1.41602 3.3573
291 3 5.25756 5.32953 3.07951
196 2 8.18105 5.07632 4.64903
193 2 7.87681 3.31306 5.29136
198 2 7.35293 4.04644 3.36068
165 2 8.00475 1.92608 7.80254
82 1 5.63564 4.06632 8.3842
91 1 8.93659 2.97113 5.51773
192 2 9.57167 3.88306 5.74943
168 2 7.36984 6.31355 7.05096
376 2 10.4498 6.5532 5.10053
56 4 6.46021 6.15181 3.56214
143 2 9.09625 5.36537 0.863948
142 2 10.7867 5.98498 0.388879
288 3 9.97475 3.36051 2.91607
359 2 4.84171 6.6473 1.11219
197 2 6.49985 6.55273 5.39424
3 2 1.77611 0.19544 15.9838
178 2 2.31001 4.66267 16.881
250 3 4.53872 2.50744 15.9731
357 2 1.41925 1.85018 16.3403
2 1 2.40751 0.151687 16.9597
318 4 0.279228 0.884494 8.74131
28 4 2.93015 2.28246 8.83778
105 2 1.71617 3.58177 15.503
32 4 5.83316 2.53368 9.52055
31 4 4.03201 3.26249 14.3191
265 3 3.63529 6.16897 10.1483
112 2 2.37931 3.38864 10.1057
30 4 6.68807 0.419349 13.7664
10 4 1.95787 1.2793 12.6975
251 3 4.46726 1.69663 9.21946
159 2 3.21262 5.28168 15.6656
161 2 4.83253 0.909613 15.2781
79 1 3.07895 4.86074 14.652
160 2 1.95444 4.72233 14.3555
157 2 2.3662 3.86111 11.7211
354 1 0.888565 2.86808 15.9552
232 3 0.678692 2.19376 12.0268
106 2 3.08511 0.672822 11.2557
249 3 2.98225 2.14445 13.5946
361 2 3.77692 5.78337 16.8308
117 2 6.94427 0.621447 12.0545
18 4 10.2601 6.77564 14.8118
158 2 3.67878 5.51486 13.9012
353 2 7.17151 1.46025 9.2542
260 3 5.26172 3.61686 13.4654
128 2 10.5777 5.9832 10.0537
368 2 6.04109 5.32638 16.6026
383 2 7.51242 5.1195 15.5449
366 1 6.59118 5.7272 15.7398
367 2 5.93253 5.83992 14.7563
26 4 5.48135 2.76165 17.2744
39 4 5.9743 4.08201 12.155
53 4 8.10278 2.52427 15.7111
127 2 7.58595 4.07953 12.7728
125 2 4.89628 4.75144 9.01426
261 3 6.07528 3.1359 10.9137
266 3 5.58582 5.5428 11.7906
283 3 7.47509 1.45554 14.6467
285 3 6.96703 3.17743 16.755
295 3 8.76898 3.62561 14.6781
301 3 9.16308 4.49045 12.0774
41 4 5.13984 6.55576 10.6424
300 3 8.22349 4.81798 9.31503
62 4 9.08017 5.22104 10.6498
294 3 6.15874 6.56632 9.4016
5 2 2.99704 1.03573 17.1956
246 3 1.79936 1.14087 8.78616
202 2 10.6202 9.23729 7.36545
147 2 12.2329 12.8723 6.37582
185 2 10.4918 10.0881 8.45292
175 2 9.48987 11.6766 8.50351
311 3 8.36006 12.2164 5.37418
1 4 10.6157 13.1235 1.16137
378 2 10.5607 13.6247 6.40658
382 2 13.1791 10.7924 0.26772
341 1 10.4339 10.3369 4.09819
343 2 11.7731 9.41602 3.5238
75 1 11.4483 13.2299 7.03257
346 2 12.9931 13.22 2.69816
6 3 10.8691 11.4686 1.60743
20 4 10.415 10.1479 2.34813
377 2 10.5884 11.4947 4.2239
141 2 12.2524 9.17573 0.377268
344 1 14.0903 12.9351 3.00486
230 3 8.78447 13.4201 0.70713
347 2 14.2754 12.8084 4.11225
201 2 11.9728 7.82409 7.52099
217 2 7.16018 10.7383 1.80066
144 2 11.017 12.3952 7.68241
345 2 14.3596 11.919 2.48232
308 3 7.48603 7.03249 6.20833
338 1 7.25395 12.6195 5.00023
374 2 7.73355 13.0942 7.83098
65 4 6.57562 9.47007 7.70361
342 2 9.3912 9.88455 4.3896
203 2 10.5879 7.74164 6.13813
216 2 6.42431 9.85443 0.161962
375 2 10.5911 8.33788 4.20993
94 1 10.7863 8.08258 7.2273
69 1 10.5846 7.11606 4.10878
99 1 6.53512 9.82624 1.33312
126 2 7.15825 7.98662 6.64654
124 2 10.106 7.58366 7.96434
313 3 6.08498 10.7299 6.91652
63 4 7.82469 8.52653 1.56064
304 3 9.15206 9.22521 2.03496
302 3 6.99295 7.37215 2.65032
131 2 9.79329 6.83248 3.34745
186 2 11.1568 11.5501 9.30305
322 2 8.61108 12.1002 9.60367
372 2 9.72887 10.7141 9.99478
88 1 10.2078 11.0207 9.03477
152 2 9.31403 13.3238 13.563
271 3 11.6538 13.0412 14.3375
321 2 7.30925 12.8604 10.8885
371 2 11.5202 12.7094 10.7845
77 1 10.0199 13.1293 11.9217
22 4 11.8766 9.28042 13.7464
23 4 11.65 12.1504 12.4907
153 2 9.12765 12.9985 11.0923
243 3 11.3622 10.6222 12.6782
274 3 12.5424 9.78754 15.187
103 1 11.7446 9.0336 10.1199
227 2 11.3327 8.64745 9.09923
4 2 10.9328 12.8763 16.8851
229 2 12.4185 9.95322 10.0559
337 2 8.45132 11.1986 15.7764
224 2 10.857 9.32448 10.7904
332 2 9.26213 11.3012 11.8334
242 3 10.8719 8.10315 13.9365
80 1 12.8352 13.511 14.7784
163 2 13.5379 12.6581 15.5028
110 2 13.2504 12.1886 11.9336
319 1 7.56347 12.746 9.79422
385 2 9.70765 9.4568 11.5541
100 1 6.5142 9.78043 9.57007
336 2 7.49787 12.0052 17.147
213 2 8.94659 7.18725 11.9656
98 1 9.1627 7.08038 10.8051
327 4 6.15068 11.9785 13.2249
219 2 8.07862 9.81575 8.74482
298 3 6.13657 8.16562 14.4524
292 3 8.82001 7.23014 15.3369
303 3 6.63229 7.93301 17.1812
386 2 7.64434 10.1411 17.1019
210 2 6.72038 10.384 13.8333
317 3 6.52392 13.1449 14.1997
61 4 4.68141 8.91981 14.4603
57 4 7.2652 7.46875 15.7797
115 2 4.94943 8.11697 11.3266
154 2 7.98168 10.0602 10.9116
323 2 6.70209 12.2958 9.27337
207 2 4.1835 7.52466 12.81
328 1 8.78698 10.1464 11.7857
167 2 8.34972 9.87796 12.7911
331 2 7.42747 11.5314 12.1331
130 2 6.6249 10.8633 15.76
330 1 7.55217 11.0325 16.4562
215 2 10.1478 7.60026 10.4533
214 2 8.29151 7.49121 10.1574
129 2 6.76738 9.31939 10.5639
220 2 6.1107 10.8473 9.74524
360 2 4.98331 7.2828 17.2624
221 2 5.30148 8.77681 8.98341
170 2 15.3912 6.04551 3.50782
50 4 12.9019 0.415057 7.94315
282 3 11.8001 1.09601 6.99026
49 4 11.8588 2.19777 0.225237
324 4 12.3894 0.29722 2.76507
326 3 12.1182 1.09763 1.3413
325 3 13.9096 0.613941 3.19444