ITEM: TIMESTEP
0
ITEM: NUMBER OF ATOMS
386
ITEM: BOX BOUNDS xy xz yz pp pp pp
-9.8217629042873114e+00 1.6492609739224015e+01 -8.5944045806504832e+00
-1.0598672932473274e-01 1.3719649956819472e+01 -1.3425485844128109e+00
4.2510623655953594e-03 1.7345948937634574e+01 1.6346322749467529e-01
ITEM: ATOMS id type x y z
13 4 -3.99299 6.56715 3.8112
206 2 -2.48891 4.8322 7.97938
12 4 0.0157983 3.72931 2.2015
34 4 1.28853 6.23642 3.39968
70 1 -0.0403888 3.39964 6.67623
134 2 1.36536 4.4408 5.83334
233 3 -0.938248 3.32949 3.44885
235 3 -0.926018 4.50421 1.03562
254 3 1.15474 4.79973 2.6527
111 2 2.213 2.28086 4.24774
258 3 1.88398 6.38878 4.91495
320 2 0.896507 2.87069 6.36691
15 4 0.368262 5.0963 7.13325
107 2 -0.833915 3.4851 5.80973
237 3 -0.841694 6.00486 6.69608
177 2 2.70217 3.71656 1.19228
8 4 0.332391 1.11958 0.626214
234 3 0.670871 2.31057 1.61768
104 2 -0.361089 0.8172 4.54409
132 2 -0.782117 2.33116 7.96951
170 2 -1.04502 5.92226 3.22163
176 2 3.112 5.498 1.46748
38 4 3.28462 6.57267 5.79812
247 3 4.41312 0.920282 4.68979
245 3 7.14874 1.1046 0.524697
256 3 5.88248 2.99499 6.00124
248 3 6.30268 0.366728 6.34926
255 3 3.28805 2.91222 7.20256
252 3 4.55884 2.74601 2.87646
244 3 3.1727 0.4402 2.34778
85 1 3.4956 4.45134 1.03307
25 4 3.59097 1.58206 3.50698
259 3 4.12797 5.3364 6.15257
24 4 7.70476 0.244446 1.72712
29 4 5.86122 1.45018 5.3443
33 4 5.00427 3.99181 2.03865
36 4 4.6519 3.78547 6.8005
246 3 1.63211 1.13502 8.57996
318 4 0.134831 0.840733 8.55064
257 3 1.22812 5.41175 8.46822
236 3 -3.11176 6.64415 5.23037
28 4 2.77233 2.24856 8.64343
378 2 2.9875 0.00742186 6.45188
148 2 4.3903 0.0945866 7.51712
138 2 -4.08577 5.0017 15.7431
158 2 3.75974 5.40262 13.7565
250 3 4.47188 2.51999 15.973
357 2 1.48936 1.80763 16.2993
183 2 0.875633 6.48164 11.2925
356 2 0.371056 3.22808 16.6297
125 2 4.65426 4.52608 9.11172
105 2 1.78963 3.43736 15.3868
108 2 -3.03667 5.51745 14.0705
140 2 -2.72417 3.61565 16.0335
340 2 -0.411437 0.894031 10.2238
112 2 1.99248 3.32425 9.75258
72 1 -2.93591 4.73645 15.8277
10 4 1.90184 1.35226 12.6299
11 4 -0.102278 3.50625 11.6348
17 4 -1.29727 5.19855 14.0743
78 1 1.53667 4.41093 11.3502
79 1 3.06248 4.78209 14.5565
155 2 1.41704 5.11437 12.2785
157 2 2.46619 3.79973 11.388
231 3 -1.10291 3.28231 10.1961
232 3 0.468414 1.94267 12.1778
238 3 -0.88567 4.28978 12.7695
249 3 2.9218 2.19025 13.5066
139 2 -1.08846 4.2172 15.5345
106 2 2.95209 1.0514 11.1676
37 4 2.01695 5.81228 9.95356
137 2 -0.866388 1.9654 16.2354
354 1 0.959547 2.68645 15.8158
355 2 0.292813 2.34985 14.9527
160 2 1.98542 4.93997 14.2987
161 2 4.847 0.896599 15.4376
159 2 3.35588 5.10499 15.5884
145 2 -1.80535 5.9681 9.725
205 2 -3.53185 5.19718 10.0017
262 3 -0.492409 6.62393 14.1819
251 3 4.15379 1.70955 9.31623
178 2 2.48545 4.66248 17.3225
30 4 6.67176 0.343077 13.8437
117 2 6.87369 0.394025 12.0998
265 3 3.53291 5.92989 10.2953
5 2 2.98606 0.762691 17.1405
31 4 4.03274 3.17446 14.2866
32 4 5.64849 2.50136 9.53507
14 4 -2.5517 5.80619 17.2656
270 3 -1.78918 12.4821 8.66857
147 2 -4.19837 12.5381 6.17446
185 2 -6.01597 10.1678 8.26692
175 2 -6.723 11.8365 8.50981
311 3 -7.75688 12.7468 5.71975
1 4 -5.83739 13.081 1.27827
189 2 1.03317 10.5269 3.23995
19 4 -3.3591 7.8477 1.15711
341 1 -5.73125 10.5153 4.49833
343 2 -4.60159 9.57447 3.89522
75 1 -4.8501 13.063 6.95173
239 3 -3.77703 7.67309 2.71163
6 3 -5.462 11.5891 1.82464
20 4 -6.05984 10.3863 2.7811
377 2 -5.45827 11.5876 4.73284
141 2 -4.21562 9.14576 0.264194
272 3 -0.112142 12.3544 6.42425
230 3 -7.6735 13.2886 0.7398
188 2 0.169715 8.88434 2.75744
201 2 -4.65477 7.81892 7.61333
240 3 -2.70126 6.79881 0.199559
144 2 -5.349 12.2979 7.66435
114 2 1.32272 9.82135 1.44614
171 2 -0.511777 7.36908 2.09533
16 4 -2.04562 7.0159 6.39063
191 2 -2.1994 9.64293 2.11367
172 2 -0.771108 7.66238 4.10324
83 1 -0.423248 6.9058 3.19363
345 2 -2.54614 11.924 1.584
90 1 -2.47989 9.45453 0.985065
200 2 2.23683 7.31301 7.65204
241 3 -2.93068 7.48889 8.00434
174 2 -1.57867 9.11269 4.90581
347 2 -2.06038 12.3133 3.28061
27 4 -1.12296 13.2582 7.24231
84 1 -1.25526 8.62624 5.82722
173 2 -1.50506 9.20821 6.81442
187 2 -0.154396 8.20872 5.88297
267 3 2.4074 7.49534 2.53024
89 1 0.48303 9.9344 2.35328
344 1 -2.32458 12.7482 2.324
381 2 -0.395661 10.573 1.93304
223 2 1.15123 9.78202 7.31446
342 2 -6.57063 10.0354 5.08758
382 2 -3.29313 10.7606 0.207315
109 2 -1.00932 8.66911 0.290545
190 2 0.622427 11.784 1.60732
202 2 -6.12312 9.02615 7.42731
346 2 -3.13695 13.5657 2.25344
186 2 -5.06942 11.2897 9.32927
322 2 -7.75218 11.952 9.42372
372 2 -6.69007 10.696 9.99873
88 1 -6.08903 11.0041 9.04349
152 2 -6.99252 13.3357 13.4866
271 3 -4.80221 12.9215 14.6485
133 2 -2.00498 6.85046 11.4488
371 2 -4.66668 13.2782 11.1816
77 1 -6.31353 13.1173 11.9227
22 4 -4.26775 9.26178 13.6633
23 4 -4.87288 12.2247 12.6866
153 2 -7.15101 12.9718 11.0731
243 3 -4.9861 10.6637 12.7266
274 3 -3.79544 9.64472 15.2053
103 1 -4.74056 9.17032 10.1263
227 2 -5.12908 8.7634 9.0891
228 2 -3.90792 8.10931 10.866
229 2 -4.20224 10.1196 10.0283
337 2 -7.97788 11.3218 15.5356
224 2 -5.66912 9.45268 10.785
332 2 -7.07028 11.2641 11.7962
242 3 -5.29517 8.06705 13.7813
80 1 -3.60433 13.4277 14.9382
263 3 1.38119 7.01921 16.0591
364 2 -1.38252 12.3858 14.2808
46 4 -3.11535 10.1387 16.5322
110 2 -3.25665 12.3638 12.1031
156 2 0.763141 8.18445 9.42657
163 2 -2.76394 12.5916 15.6542
151 2 -2.93933 7.56131 12.2661
277 3 0.00625646 10.3299 12.8682
146 2 -0.454406 7.33706 10.2933
76 1 -2.73873 8.56057 12.8366
150 2 -2.53093 9.45063 12.0415
21 4 -2.58353 8.18966 9.39775
350 2 -1.06395 10.8163 16.1544
275 3 -1.84451 11.5709 16.3978
184 2 1.18377 8.76368 11.137
149 2 -1.96097 8.48136 13.671
74 1 -1.63701 6.94085 10.3145
87 1 1.42546 7.98568 10.2949
40 4 -0.151574 7.40731 15.6448
43 4 -1.35129 11.246 9.57732
45 4 0.776467 9.81803 14.2005
47 4 -0.390426 11.5179 11.8923
269 3 -1.75293 9.70579 9.35595
273 3 -0.261129 9.14551 15.2464
276 3 -1.98017 11.6423 11.3858
2 1 -6.27114 13.5392 16.9568
4 2 -5.64941 12.531 16.892
370 2 -5.01758 6.8948 16.1733
264 3 -1.46687 6.93595 16.7128
3 2 -7.12387 13.574 16.0894
92 1 7.92335 5.5138 3.41208
118 2 8.93792 2.37179 6.21045
73 1 10.198 5.86567 1.17186
195 2 8.68349 5.66118 2.50491
358 1 5.34074 6.55323 0.0562731
278 3 8.41517 1.44069 3.21567
291 3 5.34522 5.45875 3.14278
196 2 8.38015 5.93118 4.51577
351 1 8.56496 1.14712 7.7854
352 2 9.38588 0.880029 7.00246
193 2 7.9865 3.60492 5.18301
198 2 7.49428 4.43607 3.5349
165 2 8.03919 2.10313 7.4003
82 1 5.55982 4.06452 8.46209
91 1 9.02219 3.18397 5.34842
192 2 9.78716 3.97817 5.55984
48 4 9.51868 2.4781 3.74821
168 2 7.10666 6.22327 6.96
359 2 5.16353 6.52304 1.17982
56 4 6.40259 6.48695 3.54794
143 2 9.10785 5.42174 0.894332
288 3 10.0472 3.62885 2.77546
135 2 14.5005 0.662303 0.410216
142 2 10.8716 5.96081 0.300252
369 2 11.3979 6.08697 7.17482
7 4 14.6968 1.85338 3.98006
280 3 13.8082 1.96189 5.24029
51 4 12.26 2.04391 5.70471
55 4 11.2157 4.40344 2.00314
58 4 12.0301 4.5275 7.49357
281 3 11.2632 1.49203 4.0816
289 3 11.8818 3.62042 0.50049
290 3 12.4538 5.08745 3.02929
293 3 11.9334 3.50367 6.28816
325 3 13.9865 0.852058 3.0549
326 3 11.9453 0.926389 1.37468
324 4 12.4577 0.409684 2.82727
49 4 11.7872 2.04355 0.306399
282 3 11.8759 0.974404 6.81409
50 4 12.8008 0.329985 8.03473
59 4 6.81499 5.38366 8.56845
194 2 7.13212 1.41518 4.13519
253 3 6.18927 3.6918 0.923745
376 2 10.2928 6.29063 4.94954
379 2 10.1575 -0.062483 1.56058
361 2 3.93319 5.69084 16.9212
52 4 13.4924 0.59771 15.033
380 2 9.00636 1.19114 8.82721
353 2 7.01956 1.65538 8.90795
368 2 6.21902 5.47342 16.6771
383 2 7.18435 5.18537 14.9966
366 1 6.34814 5.75558 15.537
367 2 5.37918 5.51939 14.996
26 4 5.53423 2.73483 17.125
39 4 6.16515 4.0796 12.278
53 4 8.12205 2.62854 15.6084
127 2 7.81901 4.17657 12.602
18 4 10.4331 6.81744 14.7802
261 3 5.96278 3.0961 10.9449
266 3 5.74097 5.5839 11.9911
283 3 7.36078 1.42353 14.7188
285 3 6.94159 3.32068 16.6412
295 3 8.78027 3.65617 14.5531
301 3 9.23904 4.42763 11.8497
41 4 5.15221 6.41229 10.8341
300 3 8.25405 4.81003 9.08763
284 3 9.13308 1.86647 16.6396
62 4 9.197 5.02868 10.4072
136 2 13.4988 2.53163 16.9552
294 3 6.12402 6.52279 9.57069
81 1 9.75459 1.35934 10.7698
169 2 10.015 1.5438 11.8426
162 2 10.5831 0.837519 10.1868
166 2 9.5943 2.35855 10.3099
60 4 9.98319 4.14542 13.6376
164 2 8.78683 0.711951 10.6699
71 1 13.776 1.44093 16.9578
95 1 12.8907 4.35683 9.19726
204 2 11.2259 3.76575 9.03526
119 2 11.9094 2.04809 16.732
121 2 11.8094 0.557241 12.4492
9 4 13.6991 2.88588 9.96372
54 4 12.2668 2.20217 12.8403
279 3 13.5357 1.48645 9.10012
286 3 12.9804 2.62322 11.4439
287 3 13.3227 1.83152 14.11
296 3 11.0375 2.97274 13.3394
297 3 10.7215 5.46631 14.0433
128 2 10.7851 5.8084 10.1575
260 3 5.39172 3.54876 13.517
365 2 9.01377 0.225262 12.2161
120 2 15.0622 0.114334 15.602
333 2 13.3711 0.087933 11.8276
213 2 8.90961 6.81237 11.819
308 3 7.19139 7.01574 6.16337
203 2 10.4883 7.57264 6.14597
44 4 1.15758 11.2847 6.14867
101 1 2.3645 11.0047 7.37873
307 3 1.82431 11.2424 4.6657
348 1 0.661618 12.946 1.19189
42 4 2.82923 8.93834 2.06657
384 2 2.53182 12.1316 0.698356
199 2 3.01308 9.05251 7.20102
375 2 10.4157 8.12101 4.55183
94 1 10.6083 7.92258 7.38006
69 1 10.5301 7.0752 4.15048
93 1 3.21945 7.91237 7.19446
64 4 3.53038 11.3053 3.96078
124 2 10.0015 7.26367 8.05488
374 2 7.61479 12.9297 7.81709
268 3 3.48491 8.79318 0.629511
113 2 4.12661 7.67212 7.78986
122 2 4.20139 8.05696 5.50698
306 3 3.54076 12.5408 2.97034
339 2 6.82803 12.7231 4.2636
338 1 7.44401 12.7287 5.37404
222 2 3.38147 10.9665 6.8916
305 3 3.65525 9.96763 3.11395
63 4 7.7718 8.6607 1.54011
65 4 6.63649 9.40588 7.74989
67 4 5.77249 12.0235 6.19637
99 1 6.62707 10.0552 1.10186
217 2 6.96566 11.0409 1.42092
302 3 7.01645 7.75257 2.52987
304 3 9.12924 9.43512 2.22506
312 3 4.63744 11.6142 5.04092
313 3 6.24217 10.6812 6.95385
314 3 5.30522 13.1448 7.29055
126 2 7.12409 7.91033 6.74013
218 2 5.69614 9.71771 1.62077
225 2 4.45807 12.2886 0.509988
123 2 10.0573 6.8724 1.75448
102 1 3.50593 11.7543 0.177009
131 2 9.88041 6.93231 3.17356
197 2 6.14083 7.14597 5.33464
226 2 3.57872 10.5788 0.362337
216 2 6.54091 9.93556 0.0142932
66 4 2.37412 11.5999 9.11425
373 2 0.934961 13.0444 16.4413
362 1 -0.193922 13.1598 12.9713
35 4 2.65949 7.88047 16.7091
68 4 2.23805 12.2198 15.6607
319 1 7.59683 12.6792 9.73006
310 3 0.63009 11.6416 10.0953
315 3 1.65173 11.0019 14.8101
363 2 0.407426 12.9558 13.8736
181 2 2.9665 10.4266 10.948
209 2 2.76651 8.21683 11.8437
309 3 3.04002 13.0719 8.99233
321 2 7.47259 12.8391 10.8468
336 2 7.46832 11.9984 17.0474
116 2 1.90764 8.64968 13.6422
179 2 3.44754 9.55542 9.30588
86 1 3.63949 10.4676 9.99729
219 2 8.11087 9.64921 8.98263
303 3 6.96093 7.87951 17.3024
386 2 7.72437 10.2037 16.7425
360 2 4.98795 7.24447 17.1708
154 2 7.95624 9.96621 10.9637
323 2 6.65401 12.3213 9.24946
130 2 6.54874 11.0276 15.5128
330 1 7.55324 11.1561 16.1867
215 2 10.2455 7.78554 10.4418
334 2 3.8626 12.6918 13.1961
316 3 3.46037 13.1846 15.322
129 2 6.57119 8.60072 10.3949
100 1 6.50573 9.43325 9.6336
220 2 6.17787 10.4019 10.0786
317 3 6.50436 13.3001 14.1009
214 2 8.47283 7.1911 9.9413
208 2 4.18277 9.36073 12.3153
335 2 4.14938 11.9147 11.3726
329 1 4.46061 12.7588 12.2411
331 2 7.40583 11.5287 12.2923
167 2 8.25544 10.0002 12.8902
328 1 8.80279 10.1316 11.8171
207 2 4.15966 7.45004 12.8853
180 2 4.75868 10.7458 10.0897
96 1 3.54624 8.4615 12.6519
115 2 5.08696 8.05484 11.5104
57 4 7.08733 7.41453 15.6648
61 4 4.59381 8.94088 14.4617
97 1 4.84126 10.8535 14.4713
210 2 6.45235 10.4429 13.8062
211 2 4.69693 11.2613 15.5321
212 2 3.88257 10.9142 13.7289
292 3 8.8382 7.07718 15.2456
298 3 6.09211 8.27006 14.5731
299 3 3.59947 8.56577 15.5711
327 4 6.05596 12.1285 13.1817
98 1 9.34997 6.95639 10.6554
385 2 9.61879 9.34682 11.7096
182 2 2.52534 8.05784 9.97716
221 2 5.16428 8.67887 8.70411
349 2 -0.90105 13.2849 17.3352
ITEM: TIMESTEP
100
ITEM: NUMBER OF ATOMS
386
ITEM: BOX BOUNDS xy xz yz pp pp pp
-9.8217629042873114e+00 1.6492609739224015e+01 -8.5944045806504832e+00
-1.0598672932473274e-01 1.3719649956819472e+01 -1.3425485844128109e+00
4.2510623655953594e-03 1.7354619786572208e+01 1.6346322749467529e-01
ITEM: ATOMS id type x y z
13 4 -3.97135 6.58305 3.80813
206 2 -2.5862 4.66503 8.1439
12 4 0.0841575 3.6603 2.15414
34 4 1.3397 6.19795 3.37157
70 1 0.306588 3.24892 6.81871
134 2 1.56926 4.28803 5.82063
233 3 -1.00772 3.07377 3.28231
235 3 -0.705053 4.622 1.01728
254 3 1.28684 4.66658 2.94537
111 2 2.15314 2.085 4.02016
258 3 1.86754 6.33795 4.92262
320 2 1.27403 2.69439 6.58926
15 4 0.506616 4.94066 7.1319
107 2 -0.531635 3.14912 5.98474
237 3 -0.723792 6.00066 6.59129
177 2 2.51648 3.82127 1.28188
8 4 0.293412 1.18288 0.615662
234 3 0.65486 2.40725 1.50645
104 2 -0.436035 0.881851 4.96267
132 2 -0.68 2.32859 8.09744
170 2 -1.1274 5.99233 3.2961
176 2 3.11912 5.5887 1.25756
38 4 3.22441 6.53307 5.77236
247 3 4.54425 0.961688 4.62941
245 3 6.97508 1.26419 0.672392
256 3 5.59616 3.01458 5.93005
248 3 6.54116 0.427598 6.36285
255 3 3.18725 3.1019 7.39121
252 3 4.37601 2.75985 2.71717
244 3 3.18303 0.404423 2.34703
85 1 3.37264 4.5039 1.03915
25 4 3.66347 1.53408 3.42907
259 3 4.21673 5.37991 6.22344
24 4 7.55056 0.32291 1.90694
29 4 5.79882 1.46066 5.44896
33 4 4.93831 3.98815 1.92022
36 4 4.53807 3.86466 6.80588
246 3 1.80817 1.12064 8.56743
148 2 4.15017 0.366179 7.5277
138 2 -3.87437 5.23466 15.4194
264 3 -1.21686 6.78357 16.8128
250 3 4.44441 2.58954 15.9833
357 2 1.33081 1.77705 16.2189
183 2 0.881534 6.79435 11.3041
356 2 0.195704 3.26847 16.6004
28 4 2.91615 2.23314 8.73562
105 2 1.73377 3.56086 15.4953
108 2 -3.09778 5.50904 13.878
140 2 -2.70376 3.66786 15.8109
340 2 -0.320791 1.00805 10.4129
112 2 2.34512 3.42044 9.85353
72 1 -2.78236 4.81395 15.6599
10 4 1.88691 1.40988 12.5688
11 4 -0.0891137 3.51946 11.5287
17 4 -1.35107 5.24113 13.9837
78 1 1.58956 4.49064 11.312
79 1 3.15115 4.85378 14.7769
155 2 1.35913 5.1673 12.2174
157 2 2.51475 3.89055 11.5721
231 3 -1.00807 3.40896 10.1468
232 3 0.469379 1.97728 12.1665
238 3 -0.902448 4.34946 12.6518
249 3 2.89254 2.28751 13.4195
139 2 -0.938111 4.22363 15.4204
106 2 2.96078 0.869043 11.1707
37 4 1.96694 5.99005 10.0506
137 2 -0.884101 1.96382 16.3268
354 1 0.855686 2.77348 15.8285
355 2 0.226612 2.55483 14.9125
160 2 2.09836 4.98138 14.5111
161 2 4.85727 1.12003 15.3703
159 2 3.36723 5.18504 15.9036
145 2 -1.48566 5.92684 9.71981
205 2 -3.77651 4.98729 10.1916
262 3 -0.580038 6.58217 14.299
251 3 4.42605 1.68781 9.41293
136 2 -2.84935 2.70684 16.8588
30 4 6.70331 0.435548 13.8026
133 2 -2.07188 6.80534 11.188
265 3 3.57965 6.19437 10.3075
5 2 2.75521 1.19344 17.3525
31 4 3.97435 3.19476 14.2767
32 4 5.78224 2.55476 9.55074
14 4 -2.45373 5.84915 17.1057
318 4 0.278465 0.880924 8.71589
2 1 2.36698 0.108274 17.0777
178 2 2.25814 4.60126 17.2501
3 2 1.58373 0.119313 16.3202
257 3 1.30057 5.50957 8.68078
202 2 -5.9755 9.09551 7.54728
147 2 -3.9845 12.6387 6.38991
185 2 -5.95476 10.2815 8.29181
175 2 -6.66257 12.0603 8.609
311 3 -7.88405 12.7137 5.50836
1 4 -5.9003 13.0394 1.23264
189 2 1.01068 10.3758 3.25278
19 4 -3.27153 7.86844 1.14117
341 1 -5.75643 10.2405 4.37285
343 2 -4.42267 9.51875 3.61882
75 1 -4.83856 13.1426 6.99572
239 3 -3.62493 7.62636 2.67131
6 3 -5.60511 11.5037 1.61434
20 4 -5.97309 10.2232 2.61
377 2 -5.71663 11.291 4.71201
141 2 -4.13572 9.19472 0.321522
272 3 -0.0785535 12.1944 6.57373
230 3 -7.73409 13.43 0.720221
188 2 0.216123 8.73869 2.6313
201 2 -4.58812 7.75609 7.70295
270 3 -1.85231 12.4515 8.54479
144 2 -5.25243 12.3831 7.75581
114 2 1.56055 9.98924 1.00411
171 2 -0.658757 7.37695 2.23329
16 4 -1.8528 7.18641 6.23628
191 2 -2.01072 9.63603 2.02081
172 2 -0.598525 7.57814 4.02221
83 1 -0.446249 6.86927 3.1473
345 2 -2.10703 11.7659 2.00252
90 1 -2.33057 9.41124 0.935698
200 2 1.97338 7.23382 7.51073
241 3 -2.7955 7.549 7.87337
174 2 -1.3723 9.37866 4.90434
347 2 -2.22691 12.6566 3.77723
27 4 -1.04227 13.2116 7.31033
84 1 -1.01021 8.75485 5.73127
173 2 -1.02689 9.34886 6.72548
187 2 0.0227724 8.24372 5.51167
267 3 2.19984 7.40195 2.46231
89 1 0.53081 9.8171 2.28559
344 1 -2.27654 12.7622 2.60741
381 2 -0.380337 10.4207 2.0389
223 2 1.08779 9.70788 7.0566
346 2 -3.25647 13.192 2.43177
382 2 -3.24337 10.8186 0.21075
109 2 -1.04902 8.70812 0.183814
190 2 0.581185 11.8317 1.72029
378 2 -5.67792 13.3961 6.35308
236 3 -2.91111 6.82066 5.0528
240 3 -2.6895 6.74493 0.129499
186 2 -5.05022 11.4914 9.43286
322 2 -7.79963 12.0832 9.55895
372 2 -6.6853 10.7871 9.99541
88 1 -6.12218 11.123 9.07885
152 2 -6.91093 13.4517 13.5474
271 3 -4.70278 13.0543 14.5113
321 2 -8.8232 12.8572 11.0681
371 2 -4.82544 12.9995 10.9277
77 1 -6.30148 13.0411 11.9818
22 4 -4.31875 9.14302 13.734
23 4 -4.80047 12.119 12.6063
153 2 -7.20564 12.9253 11.2563
243 3 -5.05065 10.5375 12.6796
274 3 -3.78601 9.75326 15.2251
103 1 -4.44995 8.86193 10.3013
227 2 -4.99827 8.54614 9.21927
228 2 -3.69786 7.73818 10.8797
229 2 -3.68951 9.83959 10.2212
337 2 -7.9507 11.1465 15.7091
224 2 -5.31257 9.13584 11.0516
332 2 -7.13793 11.2333 11.7508
242 3 -5.39953 7.92646 13.638
80 1 -3.54362 13.5511 14.9034
263 3 1.41717 6.9994 16.1182
364 2 -1.56353 12.328 14.1297
46 4 -3.14801 10.3867 16.5483
110 2 -3.21632 12.2279 11.9296
156 2 0.728721 8.18059 9.34503
163 2 -2.80349 12.8599 15.6416
151 2 -2.85345 7.47644 12.902
277 3 -0.0364786 10.1934 12.7715
146 2 -0.456514 7.38419 10.3156
76 1 -2.72815 8.57606 12.9744
150 2 -2.64361 9.07958 11.8936
21 4 -2.43247 8.26503 9.21135
350 2 -1.23988 11.2804 15.8983
275 3 -1.79913 11.8258 16.5967
184 2 1.04111 9.06771 10.8973
149 2 -1.81745 8.82765 13.5757
74 1 -1.5629 6.93473 10.1967
87 1 1.34746 8.17617 10.2911
40 4 -0.0453169 7.51117 15.5872
43 4 -1.19696 11.2236 9.49797
45 4 0.821524 9.91552 14.1644
47 4 -0.493413 11.4197 11.9078
269 3 -1.56078 9.69793 9.18048
273 3 -0.140286 9.08925 15.2316
276 3 -2.00495 11.4259 11.3
370 2 -5.13679 6.92007 16.1918
4 2 -5.39136 12.9907 16.9352
92 1 7.92017 5.18079 3.58378
118 2 8.9158 2.18176 6.23443
73 1 10.0821 5.86767 1.24132
195 2 8.66227 5.51182 2.72546
358 1 5.32846 6.71988 0.0581604
278 3 8.27841 1.539 3.27649
291 3 5.42075 5.51091 2.95155
196 2 8.37174 5.35897 4.62133
351 1 8.63513 1.04852 7.96529
352 2 9.53224 0.928955 7.26185
193 2 7.78903 3.25811 5.07016
198 2 7.47826 4.13144 3.40366
165 2 7.93675 1.91118 7.70946
82 1 5.52085 4.06576 8.45182
91 1 8.87733 2.94606 5.36421
192 2 9.47713 3.83663 5.63198
48 4 9.53613 2.39267 3.76019
168 2 7.03722 6.19271 6.831
376 2 10.2786 6.40095 5.1887
56 4 6.50501 6.33285 3.6114
143 2 9.13486 5.48499 0.945292
288 3 10.0399 3.50102 2.77453
135 2 14.5077 0.90123 0.658517
142 2 10.7012 5.97387 0.283958
369 2 11.3049 6.08182 7.30652
7 4 14.6443 1.76498 4.10843
280 3 13.807 2.17988 5.36185
51 4 12.2048 2.08845 5.77936
55 4 11.1312 4.4218 1.98986
58 4 11.9662 4.50311 7.58051
281 3 11.1817 1.23132 4.22637
289 3 11.9886 3.47077 0.82513
290 3 12.1469 5.10248 3.20598
293 3 11.684 3.53534 6.23048
325 3 13.9129 0.758753 3.12379
326 3 12.0646 1.05806 1.38935
324 4 12.383 0.470554 2.83627
49 4 11.9387 2.09094 0.149657
282 3 11.783 0.988049 6.91767
50 4 12.8815 0.356732 8.05042
59 4 6.79235 5.43038 8.56335
194 2 7.03122 1.54884 4.28153
253 3 6.12766 3.76713 0.851234
379 2 9.91945 -0.0294712 1.96419
361 2 3.9035 5.77195 17.0449
52 4 13.4292 0.464464 15.2725
380 2 9.07752 1.23129 9.0722
353 2 7.16393 1.5194 9.23037
368 2 6.21003 5.32544 16.6489
383 2 7.38891 5.07971 15.0787
366 1 6.43045 5.60504 15.5379
367 2 5.47069 5.52107 14.8914
26 4 5.47895 2.80891 17.254
39 4 6.03725 4.00702 12.1973
53 4 8.15951 2.58958 15.7025
127 2 7.73961 4.07335 12.6121
125 2 4.76645 4.70111 9.10371
261 3 5.8749 3.09444 10.9927
266 3 5.56405 5.56486 12.022
283 3 7.41722 1.41299 14.7448
285 3 6.99532 3.27646 16.6987
295 3 8.84579 3.59856 14.5851
301 3 9.14344 4.35481 11.869
41 4 5.14058 6.45007 10.791
300 3 8.16452 4.82394 9.14098
284 3 9.2349 1.84693 16.5652
62 4 9.16169 5.22103 10.444
333 2 13.4394 0.106388 11.9099
294 3 6.12332 6.54253 9.53869
81 1 9.82028 1.59143 10.8897
169 2 9.61923 1.7057 12.0259
162 2 10.9364 1.59283 10.7959
166 2 9.38484 2.49818 10.3173
60 4 9.99394 4.06591 13.5852
164 2 9.39981 0.652472 10.5038
71 1 13.6762 1.56636 16.9811
95 1 12.6357 4.21698 9.35224
204 2 11.1334 3.58476 9.04486
119 2 11.9686 2.21593 16.469
121 2 11.7512 0.407181 12.7122
9 4 13.6752 2.82536 10.0458
54 4 12.2889 2.05139 12.941
279 3 13.4865 1.63247 8.8744
286 3 12.9911 2.40987 11.4646
287 3 13.3402 1.90081 14.1049
296 3 11.0691 2.99801 13.304
297 3 10.5791 5.4108 14.1831
128 2 10.6928 5.92711 9.99524
260 3 5.23247 3.45119 13.4105
365 2 8.84858 0.369436 12.1103
158 2 3.86152 5.45888 13.9634
18 4 10.3141 6.83565 14.7341
117 2 6.9689 0.695153 12.1065
308 3 7.18401 6.96827 6.11215
203 2 10.6339 7.65096 6.17266
44 4 1.14402 11.2756 6.13011
101 1 2.34788 10.9929 7.37345
307 3 1.83864 11.136 4.68141
348 1 0.549056 12.9901 1.38327
42 4 2.6829 8.94252 2.16422
384 2 2.30346 12.2093 0.638343
199 2 2.77853 8.98622 7.17718
375 2 10.6479 8.1816 4.50311
94 1 10.6683 7.97896 7.37139
69 1 10.5859 7.0181 4.24408
93 1 3.01719 7.87431 7.13948
64 4 3.31059 11.3559 3.86434
124 2 9.96069 7.30328 7.93249
131 2 9.79031 6.87974 3.37101
268 3 3.52659 8.70532 0.51304
113 2 3.88477 7.58303 7.79918
122 2 4.00419 8.11507 5.52689
306 3 3.31524 12.5726 2.74499
339 2 6.89019 12.0728 4.09053
338 1 7.33796 12.6349 5.10248
222 2 3.36783 10.8122 6.98882
305 3 3.5529 9.85236 3.10793
63 4 7.72727 8.5734 1.57113
65 4 6.6526 9.49257 7.72631
67 4 5.68281 11.9791 6.09003
99 1 6.53637 10.0078 1.23864
217 2 7.26231 10.8529 1.42793
302 3 7.00736 7.64089 2.684
304 3 9.11293 9.27994 2.1797
312 3 4.57084 11.6872 5.00021
313 3 6.15662 10.7042 6.92921
314 3 5.39874 13.1386 7.15386
126 2 7.03491 7.92411 6.6813
218 2 5.74564 9.91467 2.02964
225 2 4.25013 12.1661 0.653568
349 2 0.587922 13.1354 0.273368
102 1 3.27901 11.8197 0.144538
216 2 6.14989 10.0159 0.234962
197 2 5.99171 6.77795 5.36841
226 2 3.20391 10.6725 0.161252
342 2 9.78323 9.62422 4.82953
123 2 10.0436 6.76623 1.97959
374 2 7.51705 13.0785 7.97685
359 2 4.94639 6.84321 1.15731
66 4 2.41858 11.6754 9.11797
373 2 1.0258 13.4045 16.4173
362 1 -0.347767 13.1231 12.9003
35 4 2.65343 7.97756 16.6814
68 4 2.18351 12.3463 15.6759
319 1 7.55636 12.8038 9.95744
310 3 0.63026 11.5299 10.1034
315 3 1.51102 11.1942 14.846
363 2 0.253952 12.9626 13.852
181 2 2.85583 10.4123 11.0471
209 2 2.78219 8.27554 11.6922
309 3 3.37238 13.0192 9.08246
120 2 6.37979 13.5692 15.8442
336 2 7.46615 11.9889 17.0266
182 2 2.47558 8.29005 9.96565
179 2 3.52206 9.68646 9.38859
86 1 3.52697 10.5302 10.1004
219 2 8.01344 9.91404 8.8897
303 3 6.78054 7.9478 17.3434
386 2 7.685 10.1286 17.0352
360 2 5.04036 7.28718 17.3255
154 2 7.82911 9.95704 10.9234
323 2 6.59718 12.392 9.5743
130 2 6.63468 10.8335 15.6046
330 1 7.53755 11.0116 16.3423
215 2 10.2615 7.72526 10.6634
334 2 3.88943 12.693 13.127
316 3 3.5932 13.1429 15.4708
129 2 6.45464 9.1854 10.6364
100 1 6.3438 9.66941 9.64365
220 2 5.8327 10.7467 9.82479
317 3 6.33134 12.9605 14.377
214 2 8.36518 7.37848 10.0308
208 2 4.39276 9.35306 12.2843
335 2 4.19014 11.9368 11.3802
329 1 4.48119 12.7536 12.1861
331 2 7.60077 11.5523 12.4476
167 2 8.4848 9.75255 12.7619
328 1 8.78366 10.0934 11.7654
207 2 4.19987 7.4025 12.774
180 2 4.58176 10.8453 10.3653
96 1 3.62015 8.41878 12.5889
115 2 5.20933 8.03299 11.5263
57 4 7.12807 7.31994 15.7981
61 4 4.67471 8.831 14.4075
97 1 4.99559 10.7163 14.3621
210 2 6.57575 10.2708 13.5307
211 2 5.02919 11.257 15.3605
212 2 3.9505 10.8359 13.7997
292 3 8.78784 7.23847 15.3637
298 3 6.21841 8.25197 14.6536
299 3 3.57529 8.65612 15.4682
327 4 6.11933 12.0241 13.1624
98 1 9.27785 7.06925 10.7458
213 2 9.03577 7.09307 11.8469
116 2 2.17008 8.92886 13.6886
221 2 5.45554 8.75641 8.90608
385 2 9.66308 9.37409 11.4002
ITEM: TIMESTEP
200
ITEM: NUMBER OF ATOMS
386
ITEM: BOX BOUNDS xy xz yz pp pp pp
-9.8217629042873114e+00 1.6492609739224015e+01 -8.5944045806504832e+00
-1.0598672932473274e-01 1.3719649956819472e+01 -1.3425485844128109e+00
4.2510623655953594e-03 1.7363290635509845e+01 1.6346322749467529e-01
ITEM: ATOMS id type x y z
13 4 -4.00307 6.53703 3.8078
206 2 -2.76005 4.87896 8.08745
12 4 -0.0948586 3.62746 2.18073
34 4 1.38673 6.22871 3.36284
70 1 0.0463824 3.33386 6.8156
134 2 1.58918 4.42234 6.29887
233 3 -1.28824 3.10448 3.24846
235 3 -0.610442 4.70134 1.12669
254 3 1.05912 4.62857 3.01722
111 2 2.31821 2.11737 4.39514
258 3 1.97982 6.493 4.89741
320 2 1.01767 2.79969 6.57976
15 4 0.397399 4.95448 7.45243
107 2 -0.633346 3.46821 5.96342
237 3 -0.662561 6.01668 6.77689
177 2 2.68973 3.68747 0.936612
8 4 0.309263 1.10908 0.588649
234 3 0.604148 2.37177 1.53065
104 2 -0.430311 0.814121 4.76291
132 2 -0.710153 2.34571 8.05556
170 2 -0.992296 6.04479 3.51398
176 2 3.05986 5.51433 1.08935
38 4 3.24037 6.62618 5.86912
247 3 4.47619 0.723409 4.61601
245 3 6.78041 1.14143 0.76826
256 3 5.35542 2.82032 5.8883
248 3 6.47593 0.512124 6.45263
255 3 3.08394 3.1007 7.46535
252 3 4.3293 2.74308 2.61658
244 3 3.16969 0.523542 2.39257
85 1 3.42237 4.53513 0.655693
25 4 3.57522 1.49127 3.47238
259 3 4.17819 5.40884 6.24502
24 4 7.47024 0.322573 1.98347
29 4 5.79413 1.43649 5.3272
33 4 4.83086 3.97816 1.75466
36 4 4.59943 3.8276 6.84539
148 2 4.04172 0.362377 7.77373
378 2 2.7633 -0.0385274 6.414
138 2 -3.74531 5.04276 15.5763
117 2 6.9441 0.623004 12.0668
250 3 4.53791 2.50536 15.9897
357 2 1.41849 1.84761 16.3575
3 2 1.77948 0.196382 15.9983
356 2 0.431684 3.48572 16.8216
28 4 2.92803 2.28313 8.84688
105 2 1.71357 3.57872 15.5216
108 2 -2.98619 5.61745 14.0183
140 2 -2.36352 3.57839 15.7904
340 2 -0.467735 0.909429 10.3583
112 2 2.37535 3.38973 10.1139
72 1 -2.57952 4.75138 15.6947
10 4 1.95735 1.2796 12.7105
11 4 -0.0493711 3.56224 11.5451
17 4 -1.2384 5.27295 13.9333
78 1 1.5064 4.58141 11.4369
79 1 3.07754 4.86032 14.667
155 2 1.26188 5.32667 12.2967
157 2 2.3618 3.86014 11.7331
231 3 -1.12475 3.34386 10.1366
232 3 0.676376 2.19298 12.0387
238 3 -0.823654 4.3383 12.6321
249 3 2.97937 2.14513 13.6085
139 2 -0.779074 4.21051 15.2842
106 2 3.0866 0.671609 11.269
37 4 1.97956 5.93133 10.0378
137 2 -0.737789 1.8099 16.3141
354 1 0.887095 2.86669 15.9733
355 2 0.147567 2.61871 15.1678
160 2 1.9543 4.71699 14.3679
161 2 4.83326 0.911576 15.2932
159 2 3.20689 5.27329 15.6816
145 2 -1.58614 5.97491 9.55963
205 2 -3.62374 4.96535 10.2569
262 3 -0.426427 6.64043 14.0225
251 3 4.46538 1.69739 9.2293
257 3 1.19244 5.38475 8.73551
30 4 6.68919 0.418467 13.7809
158 2 3.6767 5.51839 13.9207
183 2 0.883507 6.82078 11.3422
5 2 2.9946 1.03813 17.2153
31 4 4.02911 3.26254 14.3322
32 4 5.83084 2.53446 9.52957
14 4 -2.27159 5.89229 17.1196
318 4 0.277678 0.883721 8.75131
2 1 2.40653 0.15295 16.9774
178 2 2.3028 4.66878 16.898
370 2 -5.17072 6.86435 16.2321
246 3 1.79808 1.13998 8.79471
136 2 -2.72986 2.56758 16.6911
265 3 3.6284 6.16826 10.1576
202 2 -5.764 9.23637 7.37413
147 2 -4.15924 12.8717 6.38249
185 2 -5.89735 10.0856 8.4631
175 2 -6.90064 11.6739 8.5103
109 2 -0.898388 8.80427 0.179526
1 4 -5.77546 13.1242 1.16305
189 2 0.9445 10.5537 3.09188
19 4 -3.16688 7.86111 1.02112
341 1 -5.95306 10.3371 4.1024
343 2 -4.61156 9.41763 3.52678
75 1 -4.94324 13.2294 7.04
239 3 -3.69357 7.31281 2.38219
6 3 -5.52089 11.4693 1.60965
20 4 -5.97321 10.148 2.34907
377 2 -5.79995 11.4942 4.22857
141 2 -4.13797 9.17117 0.37863
236 3 -2.79962 6.82429 5.01641
230 3 -7.60666 13.4205 0.708019
188 2 0.162398 8.84083 2.62268
201 2 -4.40806 7.82297 7.52815
270 3 -1.60865 12.4462 8.54298
144 2 -5.37357 12.3941 7.68995
114 2 1.57937 9.89627 0.936225
171 2 -0.499595 7.22147 2.04391
16 4 -1.72977 7.11089 6.23952
191 2 -2.02433 9.64703 2.08042
172 2 -0.594609 7.89116 3.93403
83 1 -0.367617 6.98947 3.21078
345 2 -2.02873 11.9203 2.48317
90 1 -2.28517 9.4238 0.978399
200 2 1.88079 7.25201 7.57435
241 3 -2.75849 7.55199 7.8426
174 2 -1.16104 9.20037 4.76107
347 2 -2.1152 12.8082 4.11385
27 4 -1.02369 13.2395 7.32628
84 1 -0.905343 8.66642 5.83019
173 2 -1.32937 9.29193 6.80477
187 2 0.229412 8.41812 5.93608
267 3 2.18005 7.3022 2.52604
89 1 0.514554 9.95351 2.19965
344 1 -2.30057 12.9364 3.00669
381 2 -0.399042 10.5145 1.78739
223 2 1.12713 9.72231 7.14364
346 2 -3.3983 13.2188 2.70017
382 2 -3.21091 10.7905 0.265081
374 2 -8.65823 13.0947 7.84021
190 2 0.549652 11.943 1.70374
186 2 -5.23323 11.5489 9.31068
322 2 -7.77787 12.0993 9.61193
372 2 -6.65997 10.7144 10.0033
88 1 -6.18191 11.0187 9.04227
152 2 -7.07993 13.324 13.575
271 3 -4.73657 13.0419 14.3508
240 3 -3.91315 6.92835 17.3521
371 2 -4.87043 12.7101 10.7958
77 1 -6.36989 13.1295 11.9344
22 4 -4.5111 9.28082 13.7608
23 4 -4.73891 12.1502 12.5035
153 2 -7.26432 12.9955 11.1004
243 3 -5.02803 10.6226 12.6913
274 3 -3.84516 9.78727 15.201
103 1 -4.64216 9.0341 10.1275
227 2 -5.05196 8.64602 9.1088
228 2 -3.91797 8.06708 10.7056
229 2 -3.96827 9.95332 10.0605
337 2 -7.93716 11.2004 15.7931
224 2 -5.53096 9.32245 10.8002
332 2 -7.12625 11.3027 11.8448
242 3 -5.51308 8.10305 13.9516
80 1 -3.55526 13.5111 14.7923
263 3 1.43904 7.04836 16.1099
364 2 -1.53943 12.3751 14.1996
46 4 -3.15772 10.3474 16.5094
110 2 -3.13744 12.1872 11.9466
156 2 0.983282 7.9945 9.29935
163 2 -2.85231 12.6586 15.5168
151 2 -3.1056 7.61396 12.8219
277 3 0.0773579 10.2981 12.8653
146 2 -0.335604 7.36055 10.2538
76 1 -2.85458 8.66981 13.1203
150 2 -2.49136 9.31547 12.2378
21 4 -2.39658 8.27829 9.13895
350 2 -1.24138 11.2232 15.873
275 3 -1.89491 11.7785 16.4425
184 2 1.19465 9.12972 10.7486
149 2 -2.09497 8.71652 14.0282
74 1 -1.50548 6.9819 10.1053
87 1 1.48869 8.11612 10.3399
40 4 -0.0994648 7.50719 15.6374
43 4 -1.18098 11.1429 9.48351
45 4 0.807182 9.88391 14.2448
47 4 -0.439017 11.4217 11.8814
269 3 -1.49005 9.60386 8.9958
273 3 -0.151449 9.20614 15.3884
276 3 -1.87473 11.2972 11.2916
4 2 -5.45822 12.8797 16.9048
133 2 -2.02534 6.96116 11.0964
264 3 -1.18278 7.00762 16.7251
385 2 -6.67987 9.45802 11.5619
92 1 7.8625 5.05336 3.5607
118 2 8.94112 2.18841 6.40248
73 1 10.1003 5.77965 1.22495
195 2 8.67741 5.40668 2.71264
358 1 5.25957 6.65883 0.0498799
278 3 8.30477 1.41497 3.36188