ITEM: TIMESTEP
0
ITEM: NUMBER OF ATOMS
274
ITEM: BOX BOUNDS xy xz yz pp pp pp
-8.3797999999999995e+00 1.8013900000000000e+01 -8.3797999999999995e+00
0.0000000000000000e+00 1.3273200000000001e+01 1.1950000000000001e+00
0.0000000000000000e+00 1.6075500000000002e+01 4.3120000000000003e-01
ITEM: ATOMS id type q x y z
119 2 -0.0174607 7.34145 1.32042 5.33647
12 4 1.34557 -0.973659 6.39364 5.12925
7 4 1.12624 1.06214 2.10968 5.34334
9 4 1.25937 -0.476125 4.49134 1.63436
10 4 1.64195 0.356164 4.44461 7.26315
242 1 -0.677045 3.2678 0.631386 3.18319
21 4 0.784756 5.68924 1.66658 5.73648
26 4 1.26722 5.37456 4.63651 7.02243
41 1 -0.682424 1.15825 0.418536 6.19468
44 1 -0.694329 3.53452 3.88563 1.48567
55 3 -0.800867 1.07217 0.822796 1.12233
56 3 -0.831681 -0.180732 2.16045 4.41451
58 3 -0.794998 -1.62533 4.24828 2.7228
59 3 -0.875552 -0.0505369 3.18197 0.843174
243 2 0.164838 2.82594 1.60103 2.60814
61 3 -0.7955 1.17797 3.37178 6.36963
62 3 -0.845557 -0.427961 5.36633 6.17613
74 3 -0.808951 5.58677 0.473855 7.32063
78 3 -0.866884 0.646515 5.29316 2.34761
81 3 -0.79818 5.61274 3.21303 6.09237
84 3 -0.803151 2.80512 5.59777 4.17961
85 3 -0.79521 4.58083 5.87514 6.16019
113 2 0.121611 -1.54883 5.40784 3.84348
111 2 0.00595524 2.46714 1.98402 4.38085
112 2 -0.0212744 -1.27033 5.48909 0.489489
135 2 0.205891 1.1595 0.795764 7.29523
118 2 0.00211184 4.36385 1.17813 4.58964
24 4 1.26302 4.80139 4.8091 0.339366
222 3 -0.786679 6.20971 1.36104 1.23332
223 2 -0.0958759 6.21014 1.11953 4.04496
141 2 0.173157 3.91339 2.82546 1.37483
142 2 0.208681 2.44383 3.97538 1.38791
143 2 0.202956 3.94497 4.40255 2.45797
220 4 1.0624 6.77746 0.518275 2.36012
25 4 1.39604 1.50762 6.274 3.33253
28 4 1.25225 3.92039 6.53341 4.89983
5 4 1.32646 0.3586 1.89908 0.0560255
244 2 0.137156 2.62334 0.246181 4.05027
138 2 0.176536 1.65785 0.758717 12.3453
8 4 1.25376 1.84589 2.83638 10.9642
13 4 1.27063 0.54057 5.1591 12.5235
123 2 -0.0330854 5.18563 6.25045 10.5257
20 4 1.25718 4.51966 2.84743 9.37971
23 4 1.26452 6.90966 2.97972 11.4096
99 3 -0.82265 7.99194 1.2943 8.551
226 4 0.92959 3.52918 6.29907 14.924
42 1 -0.668665 2.38856 1.53901 12.1826
57 3 -0.803972 0.301393 2.53878 10.4535
63 3 -0.831806 -0.183022 4.0933 13.4279
64 3 -0.813538 1.97026 4.43466 12.1726
65 3 -0.806918 -2.15325 5.8248 9.61475
66 3 -0.857546 -0.260645 5.79951 11.3883
73 3 -0.809457 3.01884 2.80041 9.83302
75 3 -0.85098 5.54693 2.83379 10.5497
76 3 -0.808948 7.01606 1.65035 12.3003
80 3 -0.771944 4.70022 4.24195 8.46994
228 2 -0.0156482 2.46113 4.96556 15.0912
137 2 0.167649 3.32937 1.09289 11.6497
114 2 -0.0335284 0.924856 6.34447 13.6903
229 2 -0.0221984 3.57184 6.58006 13.2098
124 2 0.069492 3.15247 5.45503 11.9152
136 2 0.181317 2.58911 2.09383 13.2664
179 4 1.23956 7.33717 2.33497 15.6623
183 1 -0.664733 5.9714 1.33787 14.9346
77 3 -0.744029 6.94758 4.06419 15.7581
262 3 -0.832388 0.537485 1.71589 14.9101
196 2 0.170372 5.41182 2.23108 14.3811
117 2 0.0889418 4.94255 1.62169 8.29294
227 3 -0.799361 4.98708 5.95809 15.3315
195 2 0.291463 6.26935 0.45468 14.2136
245 1 -0.66533 3.0261 3.0254 15.1039
246 2 0.178425 2.7627 3.54336 14.1465
247 2 0.162248 3.55457 2.03611 14.845
60 3 -0.822157 -0.646326 3.565 8.15914
197 2 0.189347 5.46989 0.941306 15.9188
82 3 -0.835145 1.3316 5.48824 8.11035
248 2 0.164084 3.68481 3.62531 15.9801
121 2 -0.00657872 6.66417 4.2057 12.5281
133 2 0.148451 -6.31011 12.6766 5.98713
3 3 -0.793848 -5.90711 11.4217 1.1033
268 2 0.246441 -4.77425 9.21157 2.06334
16 4 1.47204 -3.12534 8.03064 6.6972
17 4 1.21568 -4.67535 9.81931 4.9634
154 2 0.180421 0.920008 9.41879 7.23152
161 2 0.188275 -1.03101 10.0952 0.460261
31 4 1.24657 -1.98093 10.5044 3.22167
33 4 1.0909 0.210644 11.1473 5.54383
48 1 -0.654376 -1.17122 9.08629 2.20417
49 1 -0.657659 0.121358 9.46915 6.43834
122 2 0.00432719 3.11559 7.9319 5.5457
68 3 -0.84625 -2.03454 7.39259 5.59733
271 2 0.172131 1.49668 9.84872 2.09229
70 3 -0.786961 -4.45118 8.53878 5.95671
79 3 -0.831569 0.344519 7.06235 4.50006
87 3 -0.783912 2.09595 7.54649 2.32783
30 4 1.00616 2.5294 8.12992 0.901931
89 3 -0.796331 -2.03144 11.8882 2.24074
90 3 -0.785777 -3.50537 9.83384 3.8047
93 3 -0.810705 -0.853184 10.791 4.2825
94 3 -0.815021 -0.393962 12.2175 6.64002
115 2 -0.043111 -4.70963 11.1464 5.93969
147 2 0.193978 1.81919 7.23812 6.46392
151 2 0.184885 -0.126882 9.3449 1.66802
152 2 0.174752 -2.04017 8.84253 1.52024
153 2 0.217455 -1.02933 8.35315 3.03119
265 2 0.191787 -4.36046 12.8435 2.61957
155 2 0.255609 0.221153 8.63179 5.66787
156 2 0.280382 -0.941433 9.55642 6.8634
46 1 -0.655298 2.33653 7.83773 7.32554
148 2 0.192912 3.468 7.64048 7.35259
272 2 0.18442 0.773814 10.1465 0.342053
19 4 1.33206 -1.28078 12.8245 7.80487
1 4 1.29037 -6.63312 12.4777 2.00186
67 3 -0.825881 -3.57718 6.82298 7.61879
91 3 -0.834805 -2.52398 9.53305 7.69966
149 2 0.142289 2.21285 9.00413 7.2877
47 1 -0.658332 1.6973 9.83417 0.930134
251 1 -0.662089 -5.18031 8.65958 1.12957
253 2 0.158896 -4.49751 7.83262 0.763595
267 2 0.164304 -4.15879 6.59978 0.217274
15 4 1.00736 -5.09437 10.2022 0.0239124
270 2 0.180274 0.523284 12.3591 2.06529
159 2 0.1979 1.45851 9.86373 11.0545
18 4 1.23102 -2.09069 8.28955 12.9109
22 4 1.22456 -0.687768 12.9904 12.1603
32 4 0.964882 -2.37031 10.4424 8.961
35 4 1.16552 -1.22053 10.7873 14.3537
43 1 -0.657875 -5.33598 10.6229 14.2985
160 2 0.14721 1.07144 10.6336 14.8015
50 1 -0.667101 2.18873 10.6651 11.477
51 1 -0.639813 0.231149 11.1468 15.4569
162 2 0.197442 0.344846 12.2866 15.5696
72 3 -0.827286 -1.74005 8.18144 11.3688
83 3 -0.810182 -0.0698618 7.48275 9.36561
88 3 -0.770903 3.0569 7.58756 15.6658
92 3 -0.800726 -1.2401 11.4671 9.17449
95 3 -0.788211 3.80398 8.2011 11.9268
96 3 -0.752768 -0.868077 9.05229 13.5732
97 3 -0.826075 -1.55662 12.0666 13.1056
98 3 -0.803367 -2.42742 10.7281 15.3612
116 2 -0.0352487 -3.39598 9.39829 12.7396
120 2 0.0822858 -0.822152 12.4364 10.5216
126 2 0.0841452 -2.15246 9.43298 10.2475
127 2 -0.0583112 -3.80981 11.0261 9.54943
128 2 0.0193343 2.05708 9.948 13.3189
139 2 0.161952 -4.40103 11.0732 13.8337
71 3 -0.859283 -2.56807 6.9066 13.5401
158 2 0.235018 1.67166 11.6489 11.8532
140 2 0.16009 -5.89682 11.4671 14.8868
187 3 -0.820524 0.850854 13.1292 12.4822
86 3 -0.809496 2.65113 6.99844 9.82369
29 4 0.908715 3.7102 6.79752 11.0163
27 4 1.40579 1.50927 6.85231 8.77309
14 4 1.51534 -1.03309 6.8351 10.3919
235 2 0.167054 11.8434 1.58411 3.05574
37 4 1.28853 13.2724 2.04558 5.69237
225 2 0.127032 8.82883 1.09441 3.19403
39 4 1.30498 11.3737 3.7578 7.34534
45 1 -0.669089 7.1366 5.33718 7.34076
54 1 -0.675213 10.7936 5.27631 6.30095
101 3 -0.810564 14.1609 2.96023 4.78554
102 3 -0.850124 14.0348 1.14272 6.8296
250 2 0.169992 11.4696 5.05392 0.414732
4 4 1.45987 15.2708 2.53621 3.62345
106 3 -0.83817 11.9951 2.73185 6.30845
232 3 -0.826538 14.7145 1.2677 2.84085
129 2 0.000739101 12.4664 0.964174 4.61842
130 2 0.0544242 7.42472 5.59643 3.27888
234 2 0.174953 11.3269 0.289496 1.79199
169 2 0.204586 11.2353 5.12986 5.32609
146 2 0.18789 7.81216 4.47307 6.99525
103 3 -0.768617 5.63687 6.01712 1.24687
145 2 0.170342 7.23596 6.30091 6.75562
170 2 0.242154 11.1582 6.20503 6.77175
171 2 0.179462 9.6923 5.14372 6.35293
231 1 -0.663975 11.8102 0.49926 2.8253
224 2 0.176127 9.0735 1.27455 1.25467
221 1 -0.648548 8.67701 0.62344 2.16059
11 4 1.4317 13.1561 5.93464 8.96458
36 4 1.27391 9.03617 2.27236 9.14423
52 1 -0.666713 10.5556 1.39011 9.79602
177 2 0.171802 13.9642 0.652146 14.0923
100 3 -0.769743 8.12797 3.27058 10.5261
107 3 -0.786597 12.4432 4.20946 8.55294
110 2 0.0131741 14.598 3.00879 10.2776
188 3 -0.785912 8.77627 2.04157 14.7822
202 2 0.165278 13.8468 3.39914 11.7461
163 2 0.19473 11.3609 2.05863 10.3183
172 4 0.980678 16.3048 2.48055 13.9953
165 2 0.197758 10.1319 0.619343 10.4829
6 4 1.24489 15.9136 2.48507 9.29975
173 1 -0.654005 14.4412 1.6571 13.695
174 2 0.082954 14.6804 2.55408 14.8376
175 2 0.0375098 15.8719 1.33105 12.6018
176 2 0.182536 13.7565 2.21111 13.0167
164 2 0.1671 10.9981 0.980622 8.82378
178 4 1.0772 13.6494 5.68869 14.307
180 4 1.2788 9.87055 1.57122 13.743
181 4 1.3609 11.694 3.93621 12.5602
205 2 0.175247 9.2973 5.79577 9.11164
185 1 -0.690868 12.8627 3.03443 11.2832
144 2 0.183197 7.11342 5.45147 8.45912
189 3 -0.795225 10.6927 2.80723 13.0475
190 3 -0.822942 12.7159 4.46992 13.6371
192 3 -0.799532 10.8617 5.08979 11.7252
263 3 -0.810808 15.7519 0.899517 8.72217
199 2 0.163589 12.0204 0.998507 14.7102
200 2 0.239064 12.7148 3.4151 10.1352
201 2 0.135065 12.6492 1.89193 11.4718
182 4 1.07845 10.7817 6.32291 10.7364
249 1 -0.633241 13.6368 5.94783 16.0332
105 3 -0.775522 9.89625 3.21685 8.09595
184 1 -0.657946 10.9828 0.448967 14.8256
273 2 0.184069 10.4961 0.508439 15.8211
266 2 0.0683494 14.879 4.9265 15.8273
204 2 0.15801 8.25763 6.58645 10.5177
233 2 0.167316 2.91075 12.6729 3.62755
255 2 0.162003 1.70963 12.7978 5.26025
167 2 0.164322 9.0992 7.23247 2.6517
53 1 -0.628024 8.00243 7.28062 3.07307
104 3 -0.832639 4.99799 6.99147 3.79648
237 1 -0.685139 7.82556 10.1743 0.248282
125 2 -0.00475116 4.19612 8.22199 0.697694
150 2 0.151207 2.6609 10.4228 0.619962
166 2 0.0436193 7.13294 8.41484 2.28041
168 2 0.16426 7.99419 7.63418 4.14968
206 4 1.2054 9.28717 10.2609 3.81566
215 2 0.154935 4.82047 9.81968 6.44088
208 4 1.07057 7.28977 10.1815 6.54095
209 1 -0.660678 5.69622 9.09155 6.25364
261 2 0.220803 6.65588 11.6487 4.19051
211 3 -0.773373 8.30501 10.2229 5.1247
212 3 -0.790387 6.79887 11.5884 7.19809
213 2 0.00314799 8.67968 9.06461 2.7323
256 2 0.158827 2.34579 11.2811 4.28773
216 2 0.175075 5.73816 8.20562 6.92174
217 2 0.172295 5.97657 8.90139 5.12812
219 2 0.17261 8.93946 8.45159 7.62599
252 2 0.155272 10.5917 8.20865 1.27884
257 2 0.141272 2.71249 11.4564 6.16199
238 3 -0.773471 5.52319 11.8857 1.13813
240 2 0.163117 8.21581 10.3162 1.30172
38 4 0.987128 6.09405 6.75203 2.66708
2 3 -0.79984 9.19446 11.7459 3.12029
258 1 -0.676589 5.61143 11.4398 3.81586
259 2 0.161103 5.47578 10.4314 3.3046
260 2 0.149116 4.7832 11.7545 4.50291
134 2 0.245174 8.65224 12.729 5.87243
230 4 1.09427 5.36513 12.7883 2.52078
254 1 -0.686588 2.03194 11.6822 5.21175
210 1 -0.645416 8.22219 9.28406 7.96485
239 2 0.12917 7.08448 9.17146 0.122945
207 4 1.24641 6.29134 13.0343 7.84136
69 3 -0.808711 10.7371 9.74918 4.17871
198 2 0.171807 2.52417 12.2552 14.313
40 4 0.918745 6.11367 11.4834 13.1148
108 3 -0.792856 4.81852 10.6369 12.8807
109 3 -0.806355 6.82763 11.577 14.5058
214 2 -0.0445728 5.16611 12.5985 9.01777
132 2 -0.0416998 7.23371 11.3504 11.8914
264 2 0.0792195 9.13318 12.4539 15.6782
203 2 0.170277 8.83259 7.76104 9.15384
269 2 0.146002 10.8685 10.2605 13.4202
193 2 0.0609672 11.7595 9.27332 15.2398
274 2 0.142506 7.42637 8.94483 8.75436
194 2 0.00973088 9.83141 7.77581 11.3031
157 2 0.135568 3.0431 10.9754 10.6609
34 4 0.993356 3.50175 9.69669 12.4446
241 2 0.178358 9.9731 10.5911 15.628
218 2 0.169208 8.82275 10.1919 8.34107
236 4 1.02548 7.56965 11.7053 15.9217
191 3 -0.838624 11.9949 6.74516 9.89559
186 1 -0.652507 9.11501 6.78101 9.83574
131 2 -0.0173702 5.85018 13.03 12.3967
ITEM: TIMESTEP
100
ITEM: NUMBER OF ATOMS
274
ITEM: BOX BOUNDS xy xz yz pp pp pp
-8.3789620199999995e+00 1.8012098609999999e+01 -8.3789620199999995e+00
0.0000000000000000e+00 1.3273200000000001e+01 1.1948805000000000e+00
0.0000000000000000e+00 1.6075500000000002e+01 4.3120000000000003e-01
ITEM: ATOMS id type q x y z
119 2 -0.0118263 7.4256 1.40776 5.59246
12 4 1.34086 -1.0016 6.20789 5.16531
7 4 1.07769 1.27654 2.19325 5.34875
9 4 1.21795 -0.414707 4.43912 1.75393
10 4 1.62568 0.360632 4.35201 7.30585
242 1 -0.655899 3.35415 0.459439 3.30012
21 4 0.788445 5.76506 1.55403 5.76919
26 4 1.26608 5.42531 4.60598 6.89608
41 1 -0.68805 1.34827 0.513897 6.19609
44 1 -0.678543 3.70439 4.07046 1.49108
55 3 -0.793522 1.05986 0.700241 1.13036
56 3 -0.788472 -0.158387 2.37206 4.47597
58 3 -0.814352 -1.68606 4.05096 2.67599
59 3 -0.849215 0.0380837 3.27227 0.751075
243 2 0.152516 3.02382 1.35185 2.62429
61 3 -0.775705 1.48143 3.27593 6.50105
62 3 -0.850615 -0.552391 5.18163 6.25834
74 3 -0.779491 5.48599 0.442816 7.43105
78 3 -0.829637 0.865648 4.99956 2.5602
81 3 -0.801361 5.52394 3.08671 6.08946
84 3 -0.811739 2.7638 5.8729 4.234
85 3 -0.818662 4.63112 5.67676 5.99295
113 2 0.0791247 -1.67744 5.21837 3.94536
111 2 0.010445 2.69248 1.94611 4.37388
112 2 -0.0336158 -0.89429 5.80681 0.842932
135 2 0.251606 0.735586 0.841902 7.13909
118 2 0.0230146 4.45578 1.0925 4.56046
24 4 1.28268 4.90307 4.82927 0.20578
222 3 -0.778703 6.29738 1.39982 1.36612
223 2 -0.0939093 6.32214 0.962083 4.05591
141 2 0.167249 4.04479 2.97014 1.43486
142 2 0.205613 2.60601 4.20858 1.26929
143 2 0.226193 3.95578 4.53435 2.46402
220 4 1.02266 6.80511 0.44456 2.44251
25 4 1.44363 1.42414 6.36813 3.39869
5 4 1.34737 0.457643 1.9609 0.0466109
248 2 0.163609 2.64631 3.14802 0.0493796
138 2 0.15175 1.37827 1.22269 12.4519
8 4 1.2594 1.80295 3.0025 10.9793
13 4 1.24077 0.494391 5.13338 12.6402
82 3 -0.853396 1.1704 5.44822 8.14756
20 4 1.26437 4.42912 2.96193 9.29855
23 4 1.28631 6.84444 2.95005 11.1675
99 3 -0.848621 7.99965 1.24874 8.45225
226 4 0.944193 3.65479 6.2912 14.8723
42 1 -0.667244 2.34943 1.8719 12.3435
57 3 -0.798265 0.178403 2.57646 10.5453
63 3 -0.86632 -0.27277 3.96394 13.3198
64 3 -0.798239 1.93475 4.66459 11.9661
65 3 -0.803438 -2.22782 5.89922 9.63095
66 3 -0.824043 -0.302555 5.86685 11.4565
73 3 -0.804059 2.93204 2.77473 9.82037
75 3 -0.861206 5.42733 2.95448 10.5234
76 3 -0.805611 7.00609 1.65032 12.0848
80 3 -0.774067 4.81244 4.3515 8.49432
228 2 -0.0128899 2.62545 4.97934 15.1435
137 2 0.175923 3.24601 1.2742 11.9573
114 2 -0.0396472 0.789129 6.41027 13.7354
229 2 -0.0171277 3.60458 6.58644 13.1335
124 2 0.0473993 3.57295 5.28766 11.8779
136 2 0.183523 2.59257 2.41173 13.3695
179 4 1.25093 7.31026 2.43626 15.7647
183 1 -0.671411 5.95004 1.38561 15.0991
77 3 -0.805042 6.86445 3.98697 15.6925
262 3 -0.826001 0.50582 1.9454 15.1487
196 2 0.177293 5.38413 2.20995 14.5004
117 2 0.0982424 4.88869 1.71752 8.25309
227 3 -0.834868 5.06973 5.93467 15.2136
195 2 0.254801 6.33219 0.561325 14.4821
245 1 -0.668138 3.20822 3.05859 15.1927
246 2 0.139955 3.22398 3.69193 14.2415
247 2 0.155615 3.73268 2.06299 14.9346
60 3 -0.82486 -0.667428 3.53262 8.24709
197 2 0.191797 5.32331 1.03751 15.9858
15 4 1.06382 -5.18312 10.144 0.265795
3 3 -0.81669 -5.81326 11.3721 1.2318
268 2 0.218115 -4.73493 9.06004 2.21314
16 4 1.42603 -3.11643 8.00764 6.47917
17 4 1.2155 -4.68937 9.91109 4.89184
154 2 0.183346 0.935782 9.36419 7.399
161 2 0.190045 -1.01036 10.0788 0.427775
31 4 1.20857 -1.76046 10.3675 3.16924
33 4 1.12457 0.160789 11.0926 5.63685
48 1 -0.663574 -0.98167 8.96211 2.12566
49 1 -0.662489 0.0851468 9.40087 6.60048
122 2 0.00822816 3.59865 7.97433 5.813
68 3 -0.845388 -1.94482 7.32969 5.54847
28 4 1.29811 4.01613 6.56695 4.8878
70 3 -0.794942 -4.45756 8.52114 5.67586
79 3 -0.849566 0.274284 6.99483 4.47191
87 3 -0.817058 1.84786 7.47176 2.27932
30 4 1.02377 2.39411 8.02148 0.861799
89 3 -0.744722 -1.88751 11.6837 2.07756
90 3 -0.794205 -3.30154 10.1562 4.0048
93 3 -0.793978 -0.501834 10.8154 4.21403
94 3 -0.833459 -0.568442 12.178 6.64483
115 2 -0.0274961 -4.70013 11.1957 5.96008
147 2 0.173256 1.67611 7.73387 6.48702
151 2 0.190375 0.0843843 9.33944 1.56193
152 2 0.155275 -1.88706 8.81957 1.42794
153 2 0.216652 -0.866303 8.17255 2.84857
265 2 0.20123 -4.40551 12.5034 2.64641
155 2 0.246867 0.181408 8.62364 5.79206
156 2 0.281487 -0.978012 9.45104 7.09177
46 1 -0.664161 2.40483 8.01059 7.39165
148 2 0.17819 3.43159 7.57991 7.35159
272 2 0.182793 0.864026 10.124 0.0903455
19 4 1.34922 -1.28958 12.8391 7.86771
1 4 1.29301 -6.67751 12.3913 2.05157
67 3 -0.816604 -3.51988 6.65208 7.33389
91 3 -0.837164 -2.56805 9.37143 7.71651
149 2 0.146621 2.34383 9.12973 7.6914
47 1 -0.672681 1.80218 9.85531 0.701087
251 1 -0.670417 -5.03358 8.53392 1.24821
253 2 0.160399 -4.19121 7.83245 0.847842
267 2 0.166474 -4.22245 6.6426 0.195471
271 2 0.167887 1.73871 10.1105 1.79262
133 2 0.163563 -6.03435 12.9287 6.42065
134 2 0.217328 -7.70045 12.7542 5.49876
270 2 0.179672 0.509702 12.3834 2.20335
244 2 0.14076 -5.80246 12.799 4.11044
159 2 0.210279 1.34403 9.82002 11.0787
18 4 1.23542 -2.23111 8.34562 12.8601
22 4 1.21353 -0.653039 12.9547 12.1577
32 4 0.967743 -2.39916 10.3576 8.95916
35 4 1.22965 -1.24822 10.8002 14.3951
43 1 -0.649328 -5.40677 10.9015 14.3883
160 2 0.151399 1.03023 10.8142 14.7453
50 1 -0.663335 2.11122 10.516 11.3991
51 1 -0.637869 0.223138 11.2156 15.4589
162 2 0.204709 0.272964 12.3723 15.609
72 3 -0.845048 -1.86745 7.98891 11.3095
83 3 -0.82677 0.114111 7.54265 9.25557
88 3 -0.806377 3.11654 7.57522 15.6185
92 3 -0.824862 -1.38752 11.4409 9.20481
95 3 -0.80627 3.64158 8.20839 11.8542
96 3 -0.782178 -1.15471 9.21487 13.7438
97 3 -0.845855 -1.31221 11.9187 13.1997
98 3 -0.758949 -2.65283 10.7868 15.5173
116 2 -0.0312134 -3.61305 9.20054 12.8179
120 2 0.0873657 -0.991618 12.22 10.625
126 2 0.0798529 -2.08249 9.29892 10.2515
127 2 -0.0455091 -3.86194 11.0047 9.36844
128 2 0.0281714 2.17775 9.93724 13.2764
139 2 0.172609 -4.45399 11.0522 13.861
71 3 -0.842701 -2.64296 7.09772 13.6746
158 2 0.236268 1.68306 11.5034 11.8795
140 2 0.170785 -5.66949 11.8607 14.896
187 3 -0.796812 0.914245 13.0474 12.3707
86 3 -0.79175 2.62165 6.83057 9.88911
29 4 0.957595 3.675 6.75463 11.0085
27 4 1.43598 1.45354 6.82815 8.74811
14 4 1.48888 -0.986542 6.84185 10.382
235 2 0.155964 11.9548 1.65887 2.97069
37 4 1.27081 13.1418 1.85363 5.72477
225 2 0.14279 8.95987 1.02245 3.45159
39 4 1.28381 11.2889 3.95683 7.43155
45 1 -0.679451 7.19898 5.28562 7.17023
54 1 -0.669857 10.9146 5.36933 6.20069
101 3 -0.817229 14.0492 2.71983 4.84214
102 3 -0.831905 13.9824 1.03741 6.73461
250 2 0.193698 11.5038 5.00837 0.35162
4 4 1.45125 15.1773 2.51797 3.67878
106 3 -0.791445 12.0441 2.75547 6.65791
232 3 -0.808343 14.6304 1.21608 2.82425
129 2 -0.0134412 12.2781 0.788534 4.65923
130 2 0.0650189 7.57823 5.6012 3.4733
234 2 0.185204 11.2526 0.366082 1.82673
169 2 0.213441 11.7729 5.31799 5.50219
146 2 0.2057 7.8886 4.39466 7.00841
103 3 -0.779395 5.71857 5.93189 1.35132
145 2 0.162163 7.3348 6.09303 6.39966
170 2 0.222658 10.8777 6.31237 6.74206
171 2 0.167897 9.9918 5.04597 5.75755
231 1 -0.65603 11.8064 0.490224 2.78138
224 2 0.178503 8.97045 1.43464 1.62157
221 1 -0.662397 8.68256 0.709416 2.45057
11 4 1.47277 13.2244 6.10395 8.82823
36 4 1.37171 8.92175 2.416 9.06292
52 1 -0.644591 10.4639 1.46737 9.74621
177 2 0.165875 13.8879 0.710975 13.7669
100 3 -0.838144 8.12718 3.11459 10.2378
107 3 -0.795999 12.2331 4.54586 8.56279
110 2 0.00708407 14.378 2.72406 9.95952
188 3 -0.773084 8.65193 1.93417 14.6902
202 2 0.169218 13.8576 3.68093 11.5783
163 2 0.177145 11.3261 2.19884 10.265
172 4 0.99882 16.2154 2.54693 14.033
165 2 0.20987 10.0954 0.686991 10.5347
6 4 1.27364 15.9274 2.46411 9.31672
173 1 -0.648654 14.5211 1.60661 13.3683
174 2 0.0501721 14.5411 2.75186 14.8005
175 2 0.0506913 15.9318 1.05074 12.7183
176 2 0.179199 14.0069 2.15909 12.5823
164 2 0.157028 10.896 0.850153 8.8947
178 4 1.08972 13.7559 5.72911 14.3043
180 4 1.23074 9.86642 1.44794 13.8021
181 4 1.27702 11.7491 3.98784 12.5114
205 2 0.185419 9.19346 5.66861 9.13908
185 1 -0.701651 12.8594 3.17831 11.1369
144 2 0.181475 7.16674 5.65191 8.22816
189 3 -0.743585 10.7873 2.71873 13.1398
190 3 -0.777849 12.6822 4.62853 13.6907
192 3 -0.760224 10.9425 5.32845 11.817
263 3 -0.82109 15.8988 0.957926 8.5489
199 2 0.182915 11.8241 1.29391 15.0343
200 2 0.252163 12.5612 3.70406 10.0605
201 2 0.140545 12.7251 2.06319 11.2276
182 4 1.07857 10.7782 6.35589 10.5893
249 1 -0.6314 13.5958 5.90562 16.0157
204 2 0.169556 8.06435 6.17458 10.5501
184 1 -0.670693 11.0835 0.472941 14.8363
123 2 -0.0292931 5.22054 6.65231 10.2795
266 2 0.0733192 14.8369 5.0746 15.9327
186 1 -0.679335 8.95894 6.51723 9.95434
105 3 -0.792562 9.6171 3.48893 8.10218
121 2 -0.00570004 6.87872 4.36823 12.1119
233 2 0.158776 2.90396 12.6831 3.61411
255 2 0.154373 1.60933 12.7508 4.79036
167 2 0.184395 9.08545 7.24472 2.97873
53 1 -0.641773 8.07232 7.17975 3.23821
104 3 -0.839242 5.05731 7.03604 3.82197
237 1 -0.684219 7.66024 10.2164 0.199841
125 2 -0.00571349 4.12892 8.04265 1.01678
150 2 0.163458 2.73334 10.2547 0.222997
166 2 0.0223399 7.13441 8.25218 2.1672
168 2 0.147719 7.94324 7.63943 4.29543
206 4 1.23282 9.17153 10.3219 4.03638
215 2 0.152596 4.94218 9.76092 6.15266
208 4 1.13049 7.41986 10.2209 6.65706
209 1 -0.637314 5.94699 9.1708 5.97844
261 2 0.210492 6.46604 11.8784 4.4989
211 3 -0.836875 8.29537 10.3353 5.3807
212 3 -0.808005 6.8086 11.5429 7.31806
213 2 -0.00605929 8.4445 9.06634 3.11517
256 2 0.138163 2.35855 11.0216 4.31386
216 2 0.143132 6.16695 8.23987 6.67935
217 2 0.179323 6.30005 9.12339 4.88025
219 2 0.175803 9.01283 8.35163 7.64045
252 2 0.158995 10.7497 8.12456 1.33763
257 2 0.152156 2.64515 11.7044 5.99708
238 3 -0.768828 5.49533 12.0743 1.04338
240 2 0.158962 7.93276 10.2872 1.30634
38 4 0.99555 6.165 6.7105 2.69538
2 3 -0.819911 9.16737 11.6752 3.18752
258 1 -0.671475 5.58396 11.4558 3.85424
259 2 0.150673 5.8194 10.4467 3.3954
260 2 0.139555 4.5218 11.5114 4.33802
207 4 1.22767 6.35576 13.0177 7.8466
230 4 1.13741 5.33595 12.7702 2.50767
254 1 -0.668875 1.93843 11.7201 5.19833
69 3 -0.82752 10.6951 9.90715 4.1711
239 2 0.131595 7.0817 9.16729 0.012726
198 2 0.178214 3.10293 12.4117 14.3032
40 4 0.945706 6.09516 11.3559 13.0514
108 3 -0.84752 4.81695 10.5778 12.7648
109 3 -0.840835 6.72723 11.4659 14.4294
214 2 -0.0500719 5.0655 12.743 8.82837
132 2 -0.0474671 7.10573 10.8424 11.7996
264 2 0.0674919 9.02838 12.4356 15.5003
203 2 0.161257 8.70052 7.47923 9.32069
269 2 0.142703 10.5383 10.7267 13.6812
193 2 0.0561067 11.4813 9.535 15.3633
274 2 0.143723 7.59155 8.60553 8.75722
194 2 0.0203581 9.81791 7.73993 11.1497
157 2 0.118349 2.89608 10.7723 10.4
34 4 1.04409 3.60309 9.70416 12.2946
241 2 0.175719 9.80428 10.7255 15.5811
218 2 0.156959 8.88962 9.91527 8.65805
236 4 1.03187 7.41929 11.7438 15.8038
191 3 -0.822509 12.0734 6.86068 9.8503
210 1 -0.669637 8.35582 9.06438 8.12051
131 2 -0.0230221 6.08801 12.8453 12.3101
273 2 0.168788 1.97611 13.0961 15.7267
ITEM: TIMESTEP
200
ITEM: NUMBER OF ATOMS
274
ITEM: BOX BOUNDS xy xz yz pp pp pp
-8.3781240399999994e+00 1.8010297219999998e+01 -8.3781240399999994e+00
0.0000000000000000e+00 1.3273200000000001e+01 1.1947610000000000e+00
0.0000000000000000e+00 1.6075500000000002e+01 4.3120000000000003e-01
ITEM: ATOMS id type q x y z
119 2 -0.00926479 7.4603 1.26994 5.34733
12 4 1.30241 -1.04596 6.20005 5.09713
7 4 1.13532 1.1024 2.23241 5.24359
9 4 1.22704 -0.423534 4.42209 1.94341
10 4 1.62029 0.302743 4.39283 7.24024
242 1 -0.669097 3.30787 0.3911 3.43204
21 4 0.825793 5.87248 1.52891 5.85404
26 4 1.28324 5.41647 4.56374 6.79592
41 1 -0.683579 1.18706 0.553253 6.2076
44 1 -0.679413 3.66108 3.94238 1.38687
55 3 -0.780636 1.0209 0.788919 1.12456
56 3 -0.858558 -0.229408 2.24466 4.39238
58 3 -0.794925 -1.73182 4.08491 2.81972
59 3 -0.816536 0.0139767 3.25297 0.97065
243 2 0.150019 3.12473 1.31387 2.74956
61 3 -0.795338 1.31942 3.3369 6.34022
62 3 -0.867804 -0.639441 5.19005 6.22731
74 3 -0.781613 5.47602 0.515803 7.48775
78 3 -0.85426 0.863361 4.90147 2.85339
81 3 -0.818745 5.53409 3.04146 6.14989
84 3 -0.841696 2.88244 6.17135 4.23299
85 3 -0.813664 4.76904 5.66223 5.88569
113 2 0.0825263 -1.89733 5.2199 3.98272
111 2 0.00957128 2.51079 1.98694 4.23219
112 2 -0.0406209 -1.04111 5.60281 0.968936
135 2 0.252063 0.507124 0.86334 7.076
118 2 0.0219278 4.56005 0.971624 4.66861
24 4 1.24709 4.92466 4.88329 0.345589
222 3 -0.760739 6.36395 1.45587 1.22037
223 2 -0.0827526 6.36301 0.979473 4.02431
141 2 0.163588 3.941 2.82738 1.16462
142 2 0.185775 2.5344 4.12567 1.16372
143 2 0.183914 3.97738 4.24948 2.47627
220 4 1.00942 6.9082 0.497907 2.40596
25 4 1.48257 1.43933 6.2685 3.4387
5 4 1.3046 0.444912 1.92585 0.112792
133 2 0.179663 2.1396 0.270265 6.58659
138 2 0.16974 1.27201 1.03002 12.403
8 4 1.27424 1.82149 2.92413 11.02
13 4 1.25191 0.500227 5.21998 12.5644
197 2 0.185292 5.39774 1.16647 15.9296
20 4 1.28534 4.4978 3.07771 9.35079
23 4 1.21669 6.80652 2.81025 11.2664
99 3 -0.793555 7.96373 1.05591 8.27277
226 4 0.89164 3.68451 6.3362 14.8768
42 1 -0.662761 2.21111 1.6301 12.3492
57 3 -0.818038 0.412833 2.36986 10.3953
63 3 -0.870017 -0.275125 4.08412 13.3116
64 3 -0.815777 1.93558 4.60595 12.0027
65 3 -0.833365 -2.39123 6.10582 9.65736
66 3 -0.850897 -0.436549 5.87242 11.5003
73 3 -0.790055 3.01655 2.96871 9.94372
75 3 -0.868708 5.46327 3.14024 10.5414
76 3 -0.838784 6.85704 1.2918 11.9043
80 3 -0.754721 4.63588 4.3914 8.39331
228 2 -0.018634 2.76979 4.98668 15.3348
137 2 0.160523 3.12353 1.0717 11.811
114 2 -0.0468746 0.882541 6.24648 13.8096
229 2 -0.0126605 3.61041 6.54096 13.1574
124 2 0.0870997 3.41327 5.24428 11.715
136 2 0.179492 2.55359 2.20165 13.3537
179 4 1.30216 7.4833 2.41218 15.6599
183 1 -0.665591 6.02486 1.46357 14.9956
77 3 -0.748228 7.14115 3.98305 15.6984
262 3 -0.787313 0.391328 1.96587 15.0448
196 2 0.167314 5.56795 2.28639 14.3077
117 2 0.105234 4.90316 1.75632 8.38652
227 3 -0.801797 5.19914 5.98179 15.2926
195 2 0.273149 6.4655 0.568287 14.3787
245 1 -0.666629 3.09565 2.9988 15.174
246 2 0.144928 2.86368 3.62681 14.2151
247 2 0.153672 3.54093 1.87806 14.9422
60 3 -0.814724 -0.613674 3.52923 8.3408
121 2 -0.0120438 6.92575 3.91443 12.5583
248 2 0.166759 3.80789 3.52993 15.986
82 3 -0.819645 1.20972 5.39419 8.06424
266 2 0.071283 -1.86485 5.27495 16.028
15 4 1.06109 -5.26967 10.1238 0.242751
3 3 -0.797035 -5.89998 11.2177 1.17507
268 2 0.203693 -4.99058 8.90057 2.2012
16 4 1.44831 -3.07608 7.9508 6.45558
17 4 1.23156 -4.46842 9.93575 4.83152
154 2 0.171639 0.903032 9.45088 7.5893
161 2 0.183896 -1.08426 9.98786 0.354555
31 4 1.27511 -1.80304 10.3032 3.03425
33 4 1.13607 0.190465 11.0076 5.58831
48 1 -0.666584 -1.03566 8.87177 2.07808
49 1 -0.669202 0.187568 9.54269 6.67731
69 3 -0.843368 -5.91875 10.1654 4.27393
68 3 -0.85864 -1.86166 7.48917 5.53664
28 4 1.28774 4.1355 6.72537 4.86076
70 3 -0.788835 -4.41646 8.44202 5.62312
79 3 -0.839286 0.334475 6.85031 4.40168
87 3 -0.79365 1.59905 7.46032 2.14819
30 4 1.01808 2.33369 8.01938 0.855457
89 3 -0.771471 -1.73308 11.691 2.21076
90 3 -0.821211 -3.31289 10.1826 3.73226
93 3 -0.767198 -0.661055 10.5878 4.31265
94 3 -0.7931 -0.618987 12.1203 6.43408
115 2 -0.0138571 -4.29357 11.1582 6.01727
147 2 0.193449 1.92542 7.3401 6.47469
151 2 0.206622 0.00517384 9.22317 1.5583
152 2 0.142348 -1.93377 8.74085 1.32953
153 2 0.21395 -0.903759 8.0364 2.86725
265 2 0.199212 -4.58904 12.2268 2.9688
155 2 0.230265 0.351327 8.767 5.8678
156 2 0.298427 -0.895298 9.54873 7.04837
46 1 -0.647257 2.43779 7.84473 7.38878
148 2 0.185543 3.50026 7.43365 7.5882
272 2 0.183649 0.847424 10.1893 0.147576
19 4 1.33156 -1.38277 12.713 7.86692
1 4 1.23971 -6.70998 12.4508 2.16443
67 3 -0.842801 -3.64146 6.81039 7.46512
91 3 -0.837326 -2.55681 9.45159 7.55608
149 2 0.144708 2.22082 8.98671 7.49364
47 1 -0.663196 1.7568 9.84701 0.767378
251 1 -0.67528 -4.94742 8.38236 1.17901
253 2 0.173323 -3.93906 8.03652 0.971548
134 2 0.242067 -7.62774 12.5886 5.52529
271 2 0.161057 1.69005 10.1693 1.83856
270 2 0.173376 0.578066 12.3415 2.70319
244 2 0.150221 -5.85636 12.9392 4.2473
159 2 0.195445 1.30244 9.82881 11.1362
18 4 1.2338 -2.35336 8.38565 12.8733
22 4 1.25006 -0.64722 12.864 12.0837
32 4 0.98183 -2.65801 10.2921 8.82784
35 4 1.31351 -1.38498 10.8099 14.3959
43 1 -0.648402 -5.50504 10.8114 14.5476
160 2 0.160865 0.92761 10.6021 14.7185
50 1 -0.676003 2.10461 10.5475 11.4011
51 1 -0.63923 0.193129 11.0849 15.4513
162 2 0.214062 0.459714 12.1847 15.7224
72 3 -0.827573 -1.95239 8.18315 11.3352
83 3 -0.82792 -0.00634197 7.424 9.39253
88 3 -0.797779 3.12356 7.66643 15.5295
92 3 -0.817226 -1.59588 11.3673 9.16734
95 3 -0.830519 3.66269 8.08315 11.7898
96 3 -0.793512 -1.22684 9.40897 13.5849
97 3 -0.823597 -1.33095 12.023 13.3028
98 3 -0.790455 -2.62992 10.7392 15.4145
116 2 -0.038028 -3.70547 9.2494 12.7578
120 2 0.0706128 -0.797782 11.8215 10.7378
126 2 0.0924759 -2.58926 9.16872 10.1446
127 2 -0.0425064 -4.22854 10.8384 9.0315
128 2 0.0328164 2.1931 9.96169 13.2477
139 2 0.158685 -4.61763 10.9965 13.8591
71 3 -0.857025 -2.71055 7.08842 13.6532
158 2 0.22721 1.60296 11.5212 11.7849
140 2 0.178271 -5.81441 11.79 15.0965
187 3 -0.801353 0.882395 13.1493 12.3722
86 3 -0.800011 2.6464 6.83939 9.83933
29 4 0.963457 3.75966 6.72894 10.921
27 4 1.39662 1.41394 6.79506 8.82545
14 4 1.51746 -1.15971 6.84867 10.4243
235 2 0.162438 11.9264 1.56444 3.01796
37 4 1.21964 13.0862 1.80432 5.82324
225 2 0.140505 8.84605 1.21217 3.67166
39 4 1.26789 11.2528 4.02554 7.37633
45 1 -0.669858 7.20529 5.227 6.9789
54 1 -0.658116 11.0303 5.40793 6.123
101 3 -0.815587 14.0349 2.87179 5.10635
102 3 -0.857819 13.7929 0.745991 6.789
250 2 0.180679 11.4753 4.51261 0.240549
4 4 1.46953 15.1454 2.50365 3.94365
106 3 -0.768039 11.9553 2.84103 6.52043
232 3 -0.792126 14.5836 1.25887 2.98179
129 2 -0.0105787 12.1622 0.939715 4.65557
130 2 0.042405 7.58101 5.56284 3.44811
234 2 0.186546 11.3081 0.234145 1.85693
169 2 0.203216 11.8627 5.06782 5.38828
146 2 0.198083 7.85195 4.42036 6.53493
103 3 -0.784298 5.81196 5.966 1.25556
145 2 0.163664 7.28842 6.21396 6.42179
170 2 0.237665 11.1502 6.44087 6.56588
171 2 0.167915 9.97186 5.26513 5.72822
231 1 -0.659457 11.7794 0.436067 2.8051
224 2 0.183665 9.3081 1.14013 1.84033
221 1 -0.665744 8.75184 0.691427 2.65825
105 3 -0.78627 9.68439 3.45504 7.77044
11 4 1.47369 13.0178 6.17023 8.8959
36 4 1.23139 8.92831 2.48309 8.93345
52 1 -0.664206 10.3233 1.79617 9.97717
177 2 0.172543 14.0503 0.613924 13.6831
100 3 -0.798708 8.0442 3.1177 10.1841
107 3 -0.796148 12.3364 4.51514 8.67914
110 2 -0.00573603 14.4604 2.74152 10.105
188 3 -0.792339 8.77722 1.85674 14.8965
202 2 0.181331 13.9327 3.64936 11.6425
163 2 0.198301 11.134 2.48574 10.4459
172 4 1.01072 16.142 2.69754 13.9681
165 2 0.236099 9.79378 1.247 10.815
6 4 1.28074 15.9831 2.41277 9.40058
173 1 -0.649503 14.6044 1.60464 13.3035
174 2 0.0610858 14.4665 2.66311 14.7423
175 2 0.0590026 16.0194 1.20966 12.6098