ITEM: TIMESTEP
0
ITEM: NUMBER OF ATOMS
274
ITEM: BOX BOUNDS xy xz yz pp pp pp
-8.3797999999999995e+00 1.8013900000000000e+01 -8.3797999999999995e+00
0.0000000000000000e+00 1.3273200000000001e+01 1.1950000000000001e+00
0.0000000000000000e+00 1.6075500000000002e+01 4.3120000000000003e-01
ITEM: ATOMS id type q x y z
119 2 -0.0174607 7.34145 1.32042 5.33647
12 4 1.34557 -0.973659 6.39364 5.12925
7 4 1.12624 1.06214 2.10968 5.34334
9 4 1.25937 -0.476125 4.49134 1.63436
10 4 1.64195 0.356164 4.44461 7.26315
242 1 -0.677045 3.2678 0.631386 3.18319
21 4 0.784756 5.68924 1.66658 5.73648
26 4 1.26722 5.37456 4.63651 7.02243
41 1 -0.682424 1.15825 0.418536 6.19468
44 1 -0.694329 3.53452 3.88563 1.48567
55 3 -0.800867 1.07217 0.822796 1.12233
56 3 -0.831681 -0.180732 2.16045 4.41451
58 3 -0.794998 -1.62533 4.24828 2.7228
59 3 -0.875552 -0.0505369 3.18197 0.843174
243 2 0.164838 2.82594 1.60103 2.60814
61 3 -0.7955 1.17797 3.37178 6.36963
62 3 -0.845557 -0.427961 5.36633 6.17613
74 3 -0.808951 5.58677 0.473855 7.32063
78 3 -0.866884 0.646515 5.29316 2.34761
81 3 -0.79818 5.61274 3.21303 6.09237
84 3 -0.803151 2.80512 5.59777 4.17961
85 3 -0.79521 4.58083 5.87514 6.16019
113 2 0.121611 -1.54883 5.40784 3.84348
111 2 0.00595524 2.46714 1.98402 4.38085
112 2 -0.0212744 -1.27033 5.48909 0.489489
135 2 0.205891 1.1595 0.795764 7.29523
118 2 0.00211184 4.36385 1.17813 4.58964
24 4 1.26302 4.80139 4.8091 0.339366
222 3 -0.786679 6.20971 1.36104 1.23332
223 2 -0.0958759 6.21014 1.11953 4.04496
141 2 0.173157 3.91339 2.82546 1.37483
142 2 0.208681 2.44383 3.97538 1.38791
143 2 0.202956 3.94497 4.40255 2.45797
220 4 1.0624 6.77746 0.518275 2.36012
25 4 1.39604 1.50762 6.274 3.33253
28 4 1.25225 3.92039 6.53341 4.89983
5 4 1.32646 0.3586 1.89908 0.0560255
244 2 0.137156 2.62334 0.246181 4.05027
138 2 0.176536 1.65785 0.758717 12.3453
8 4 1.25376 1.84589 2.83638 10.9642
13 4 1.27063 0.54057 5.1591 12.5235
123 2 -0.0330854 5.18563 6.25045 10.5257
20 4 1.25718 4.51966 2.84743 9.37971
23 4 1.26452 6.90966 2.97972 11.4096
99 3 -0.82265 7.99194 1.2943 8.551
226 4 0.92959 3.52918 6.29907 14.924
42 1 -0.668665 2.38856 1.53901 12.1826
57 3 -0.803972 0.301393 2.53878 10.4535
63 3 -0.831806 -0.183022 4.0933 13.4279
64 3 -0.813538 1.97026 4.43466 12.1726
65 3 -0.806918 -2.15325 5.8248 9.61475
66 3 -0.857546 -0.260645 5.79951 11.3883
73 3 -0.809457 3.01884 2.80041 9.83302
75 3 -0.85098 5.54693 2.83379 10.5497
76 3 -0.808948 7.01606 1.65035 12.3003
80 3 -0.771944 4.70022 4.24195 8.46994
228 2 -0.0156482 2.46113 4.96556 15.0912
137 2 0.167649 3.32937 1.09289 11.6497
114 2 -0.0335284 0.924856 6.34447 13.6903
229 2 -0.0221984 3.57184 6.58006 13.2098
124 2 0.069492 3.15247 5.45503 11.9152
136 2 0.181317 2.58911 2.09383 13.2664
179 4 1.23956 7.33717 2.33497 15.6623
183 1 -0.664733 5.9714 1.33787 14.9346
77 3 -0.744029 6.94758 4.06419 15.7581
262 3 -0.832388 0.537485 1.71589 14.9101
196 2 0.170372 5.41182 2.23108 14.3811
117 2 0.0889418 4.94255 1.62169 8.29294
227 3 -0.799361 4.98708 5.95809 15.3315
195 2 0.291463 6.26935 0.45468 14.2136
245 1 -0.66533 3.0261 3.0254 15.1039
246 2 0.178425 2.7627 3.54336 14.1465
247 2 0.162248 3.55457 2.03611 14.845
60 3 -0.822157 -0.646326 3.565 8.15914
197 2 0.189347 5.46989 0.941306 15.9188
82 3 -0.835145 1.3316 5.48824 8.11035
248 2 0.164084 3.68481 3.62531 15.9801
121 2 -0.00657872 6.66417 4.2057 12.5281
133 2 0.148451 -6.31011 12.6766 5.98713
3 3 -0.793848 -5.90711 11.4217 1.1033
268 2 0.246441 -4.77425 9.21157 2.06334
16 4 1.47204 -3.12534 8.03064 6.6972
17 4 1.21568 -4.67535 9.81931 4.9634
154 2 0.180421 0.920008 9.41879 7.23152
161 2 0.188275 -1.03101 10.0952 0.460261
31 4 1.24657 -1.98093 10.5044 3.22167
33 4 1.0909 0.210644 11.1473 5.54383
48 1 -0.654376 -1.17122 9.08629 2.20417
49 1 -0.657659 0.121358 9.46915 6.43834
122 2 0.00432719 3.11559 7.9319 5.5457
68 3 -0.84625 -2.03454 7.39259 5.59733
271 2 0.172131 1.49668 9.84872 2.09229
70 3 -0.786961 -4.45118 8.53878 5.95671
79 3 -0.831569 0.344519 7.06235 4.50006
87 3 -0.783912 2.09595 7.54649 2.32783
30 4 1.00616 2.5294 8.12992 0.901931
89 3 -0.796331 -2.03144 11.8882 2.24074
90 3 -0.785777 -3.50537 9.83384 3.8047
93 3 -0.810705 -0.853184 10.791 4.2825
94 3 -0.815021 -0.393962 12.2175 6.64002
115 2 -0.043111 -4.70963 11.1464 5.93969
147 2 0.193978 1.81919 7.23812 6.46392
151 2 0.184885 -0.126882 9.3449 1.66802
152 2 0.174752 -2.04017 8.84253 1.52024
153 2 0.217455 -1.02933 8.35315 3.03119
265 2 0.191787 -4.36046 12.8435 2.61957
155 2 0.255609 0.221153 8.63179 5.66787
156 2 0.280382 -0.941433 9.55642 6.8634
46 1 -0.655298 2.33653 7.83773 7.32554
148 2 0.192912 3.468 7.64048 7.35259
272 2 0.18442 0.773814 10.1465 0.342053
19 4 1.33206 -1.28078 12.8245 7.80487
1 4 1.29037 -6.63312 12.4777 2.00186
67 3 -0.825881 -3.57718 6.82298 7.61879
91 3 -0.834805 -2.52398 9.53305 7.69966
149 2 0.142289 2.21285 9.00413 7.2877
47 1 -0.658332 1.6973 9.83417 0.930134
251 1 -0.662089 -5.18031 8.65958 1.12957
253 2 0.158896 -4.49751 7.83262 0.763595
267 2 0.164304 -4.15879 6.59978 0.217274
15 4 1.00736 -5.09437 10.2022 0.0239124
270 2 0.180274 0.523284 12.3591 2.06529
159 2 0.1979 1.45851 9.86373 11.0545
18 4 1.23102 -2.09069 8.28955 12.9109
22 4 1.22456 -0.687768 12.9904 12.1603
32 4 0.964882 -2.37031 10.4424 8.961
35 4 1.16552 -1.22053 10.7873 14.3537
43 1 -0.657875 -5.33598 10.6229 14.2985
160 2 0.14721 1.07144 10.6336 14.8015
50 1 -0.667101 2.18873 10.6651 11.477
51 1 -0.639813 0.231149 11.1468 15.4569
162 2 0.197442 0.344846 12.2866 15.5696
72 3 -0.827286 -1.74005 8.18144 11.3688
83 3 -0.810182 -0.0698618 7.48275 9.36561
88 3 -0.770903 3.0569 7.58756 15.6658
92 3 -0.800726 -1.2401 11.4671 9.17449
95 3 -0.788211 3.80398 8.2011 11.9268
96 3 -0.752768 -0.868077 9.05229 13.5732
97 3 -0.826075 -1.55662 12.0666 13.1056
98 3 -0.803367 -2.42742 10.7281 15.3612
116 2 -0.0352487 -3.39598 9.39829 12.7396
120 2 0.0822858 -0.822152 12.4364 10.5216
126 2 0.0841452 -2.15246 9.43298 10.2475
127 2 -0.0583112 -3.80981 11.0261 9.54943
128 2 0.0193343 2.05708 9.948 13.3189
139 2 0.161952 -4.40103 11.0732 13.8337
71 3 -0.859283 -2.56807 6.9066 13.5401
158 2 0.235018 1.67166 11.6489 11.8532
140 2 0.16009 -5.89682 11.4671 14.8868
187 3 -0.820524 0.850854 13.1292 12.4822
86 3 -0.809496 2.65113 6.99844 9.82369
29 4 0.908715 3.7102 6.79752 11.0163
27 4 1.40579 1.50927 6.85231 8.77309
14 4 1.51534 -1.03309 6.8351 10.3919
235 2 0.167054 11.8434 1.58411 3.05574
37 4 1.28853 13.2724 2.04558 5.69237
225 2 0.127032 8.82883 1.09441 3.19403
39 4 1.30498 11.3737 3.7578 7.34534
45 1 -0.669089 7.1366 5.33718 7.34076
54 1 -0.675213 10.7936 5.27631 6.30095
101 3 -0.810564 14.1609 2.96023 4.78554
102 3 -0.850124 14.0348 1.14272 6.8296
250 2 0.169992 11.4696 5.05392 0.414732
4 4 1.45987 15.2708 2.53621 3.62345
106 3 -0.83817 11.9951 2.73185 6.30845
232 3 -0.826538 14.7145 1.2677 2.84085
129 2 0.000739101 12.4664 0.964174 4.61842
130 2 0.0544242 7.42472 5.59643 3.27888
234 2 0.174953 11.3269 0.289496 1.79199
169 2 0.204586 11.2353 5.12986 5.32609
146 2 0.18789 7.81216 4.47307 6.99525
103 3 -0.768617 5.63687 6.01712 1.24687
145 2 0.170342 7.23596 6.30091 6.75562
170 2 0.242154 11.1582 6.20503 6.77175
171 2 0.179462 9.6923 5.14372 6.35293
231 1 -0.663975 11.8102 0.49926 2.8253
224 2 0.176127 9.0735 1.27455 1.25467
221 1 -0.648548 8.67701 0.62344 2.16059
11 4 1.4317 13.1561 5.93464 8.96458
36 4 1.27391 9.03617 2.27236 9.14423
52 1 -0.666713 10.5556 1.39011 9.79602
177 2 0.171802 13.9642 0.652146 14.0923
100 3 -0.769743 8.12797 3.27058 10.5261
107 3 -0.786597 12.4432 4.20946 8.55294
110 2 0.0131741 14.598 3.00879 10.2776
188 3 -0.785912 8.77627 2.04157 14.7822
202 2 0.165278 13.8468 3.39914 11.7461
163 2 0.19473 11.3609 2.05863 10.3183
172 4 0.980678 16.3048 2.48055 13.9953
165 2 0.197758 10.1319 0.619343 10.4829
6 4 1.24489 15.9136 2.48507 9.29975
173 1 -0.654005 14.4412 1.6571 13.695
174 2 0.082954 14.6804 2.55408 14.8376
175 2 0.0375098 15.8719 1.33105 12.6018
176 2 0.182536 13.7565 2.21111 13.0167
164 2 0.1671 10.9981 0.980622 8.82378
178 4 1.0772 13.6494 5.68869 14.307
180 4 1.2788 9.87055 1.57122 13.743
181 4 1.3609 11.694 3.93621 12.5602
205 2 0.175247 9.2973 5.79577 9.11164
185 1 -0.690868 12.8627 3.03443 11.2832
144 2 0.183197 7.11342 5.45147 8.45912
189 3 -0.795225 10.6927 2.80723 13.0475
190 3 -0.822942 12.7159 4.46992 13.6371
192 3 -0.799532 10.8617 5.08979 11.7252
263 3 -0.810808 15.7519 0.899517 8.72217
199 2 0.163589 12.0204 0.998507 14.7102
200 2 0.239064 12.7148 3.4151 10.1352
201 2 0.135065 12.6492 1.89193 11.4718
182 4 1.07845 10.7817 6.32291 10.7364
249 1 -0.633241 13.6368 5.94783 16.0332
105 3 -0.775522 9.89625 3.21685 8.09595
184 1 -0.657946 10.9828 0.448967 14.8256
273 2 0.184069 10.4961 0.508439 15.8211
266 2 0.0683494 14.879 4.9265 15.8273
204 2 0.15801 8.25763 6.58645 10.5177
233 2 0.167316 2.91075 12.6729 3.62755
255 2 0.162003 1.70963 12.7978 5.26025
167 2 0.164322 9.0992 7.23247 2.6517
53 1 -0.628024 8.00243 7.28062 3.07307
104 3 -0.832639 4.99799 6.99147 3.79648
237 1 -0.685139 7.82556 10.1743 0.248282
125 2 -0.00475116 4.19612 8.22199 0.697694
150 2 0.151207 2.6609 10.4228 0.619962
166 2 0.0436193 7.13294 8.41484 2.28041
168 2 0.16426 7.99419 7.63418 4.14968
206 4 1.2054 9.28717 10.2609 3.81566
215 2 0.154935 4.82047 9.81968 6.44088
208 4 1.07057 7.28977 10.1815 6.54095
209 1 -0.660678 5.69622 9.09155 6.25364
261 2 0.220803 6.65588 11.6487 4.19051
211 3 -0.773373 8.30501 10.2229 5.1247
212 3 -0.790387 6.79887 11.5884 7.19809
213 2 0.00314799 8.67968 9.06461 2.7323
256 2 0.158827 2.34579 11.2811 4.28773
216 2 0.175075 5.73816 8.20562 6.92174
217 2 0.172295 5.97657 8.90139 5.12812
219 2 0.17261 8.93946 8.45159 7.62599
252 2 0.155272 10.5917 8.20865 1.27884
257 2 0.141272 2.71249 11.4564 6.16199
238 3 -0.773471 5.52319 11.8857 1.13813
240 2 0.163117 8.21581 10.3162 1.30172
38 4 0.987128 6.09405 6.75203 2.66708
2 3 -0.79984 9.19446 11.7459 3.12029
258 1 -0.676589 5.61143 11.4398 3.81586
259 2 0.161103 5.47578 10.4314 3.3046
260 2 0.149116 4.7832 11.7545 4.50291
134 2 0.245174 8.65224 12.729 5.87243
230 4 1.09427 5.36513 12.7883 2.52078
254 1 -0.686588 2.03194 11.6822 5.21175
210 1 -0.645416 8.22219 9.28406 7.96485
239 2 0.12917 7.08448 9.17146 0.122945
207 4 1.24641 6.29134 13.0343 7.84136
69 3 -0.808711 10.7371 9.74918 4.17871
198 2 0.171807 2.52417 12.2552 14.313
40 4 0.918745 6.11367 11.4834 13.1148
108 3 -0.792856 4.81852 10.6369 12.8807
109 3 -0.806355 6.82763 11.577 14.5058
214 2 -0.0445728 5.16611 12.5985 9.01777
132 2 -0.0416998 7.23371 11.3504 11.8914
264 2 0.0792195 9.13318 12.4539 15.6782
203 2 0.170277 8.83259 7.76104 9.15384
269 2 0.146002 10.8685 10.2605 13.4202
193 2 0.0609672 11.7595 9.27332 15.2398
274 2 0.142506 7.42637 8.94483 8.75436
194 2 0.00973088 9.83141 7.77581 11.3031
157 2 0.135568 3.0431 10.9754 10.6609
34 4 0.993356 3.50175 9.69669 12.4446
241 2 0.178358 9.9731 10.5911 15.628
218 2 0.169208 8.82275 10.1919 8.34107
236 4 1.02548 7.56965 11.7053 15.9217
191 3 -0.838624 11.9949 6.74516 9.89559
186 1 -0.652507 9.11501 6.78101 9.83574
131 2 -0.0173702 5.85018 13.03 12.3967
ITEM: TIMESTEP
100
ITEM: NUMBER OF ATOMS
274
ITEM: BOX BOUNDS xy xz yz pp pp pp
-8.3781924500000002e+00 1.8013900000000000e+01 -8.3781924500000002e+00
0.0000000000000000e+00 1.3273200000000001e+01 1.1950000000000001e+00
0.0000000000000000e+00 1.6075500000000002e+01 4.3120000000000003e-01
ITEM: ATOMS id type q x y z
119 2 -0.011828 7.42558 1.40775 5.59244
12 4 1.34086 -1.0016 6.20789 5.16531
7 4 1.0777 1.27653 2.19325 5.34875
9 4 1.21795 -0.414706 4.43911 1.75393
10 4 1.62569 0.360633 4.352 7.30585
242 1 -0.655859 3.35414 0.459447 3.30013
21 4 0.788446 5.76506 1.55403 5.76919
26 4 1.26608 5.42531 4.60598 6.89608
41 1 -0.688057 1.34824 0.513896 6.19607
44 1 -0.678543 3.70438 4.07046 1.49108
55 3 -0.793498 1.05986 0.700242 1.13036
56 3 -0.788473 -0.158375 2.37207 4.47596
58 3 -0.814353 -1.68606 4.05096 2.676
59 3 -0.849218 0.038084 3.27227 0.751074
243 2 0.1525 3.02376 1.35195 2.62423
61 3 -0.775714 1.48143 3.27593 6.50106
62 3 -0.850616 -0.552389 5.18163 6.25834
74 3 -0.779492 5.48599 0.442817 7.43105
78 3 -0.829636 0.865648 4.99956 2.5602
81 3 -0.801362 5.52394 3.08671 6.08946
84 3 -0.811739 2.7638 5.8729 4.234
85 3 -0.818662 4.63112 5.67676 5.99295
113 2 0.0791246 -1.67745 5.21837 3.94537
111 2 0.010452 2.69254 1.94612 4.37385
112 2 -0.0336166 -0.894304 5.80681 0.842939
135 2 0.251594 0.735722 0.842111 7.13917
118 2 0.0230191 4.45579 1.0925 4.56044
24 4 1.28267 4.90308 4.82927 0.20578
222 3 -0.778701 6.29738 1.39982 1.36612
223 2 -0.0939079 6.32211 0.962082 4.05592
141 2 0.167249 4.04478 2.97013 1.43486
142 2 0.205613 2.60601 4.20859 1.26929
143 2 0.226193 3.95578 4.53435 2.46402
220 4 1.02266 6.80511 0.444558 2.44251
25 4 1.44363 1.42414 6.36813 3.39869
5 4 1.34737 0.457638 1.96093 0.0465889
248 2 0.163608 2.64631 3.14801 0.0494022
138 2 0.15175 1.37827 1.22269 12.4519
8 4 1.2594 1.80295 3.0025 10.9793
13 4 1.24077 0.494391 5.13338 12.6402
82 3 -0.853397 1.1704 5.44822 8.14756
20 4 1.26437 4.42912 2.96193 9.29855
23 4 1.28631 6.84444 2.95005 11.1675
99 3 -0.848621 7.99965 1.24874 8.45225
226 4 0.944193 3.65479 6.2912 14.8723
42 1 -0.667244 2.34943 1.8719 12.3435
57 3 -0.798266 0.178403 2.57646 10.5453
63 3 -0.866321 -0.27277 3.96394 13.3198
64 3 -0.798239 1.93475 4.66459 11.9661
65 3 -0.803438 -2.22782 5.89922 9.63095
66 3 -0.824043 -0.302555 5.86686 11.4565
73 3 -0.80406 2.93204 2.77473 9.82038
75 3 -0.861206 5.42733 2.95448 10.5234
76 3 -0.805611 7.00609 1.65032 12.0848
80 3 -0.774067 4.81244 4.3515 8.49432
228 2 -0.0128909 2.62545 4.97934 15.1435
137 2 0.175923 3.24601 1.2742 11.9573
114 2 -0.0396474 0.789129 6.41027 13.7354
229 2 -0.0171276 3.60458 6.58644 13.1335
124 2 0.0473994 3.57295 5.28766 11.8779
136 2 0.183522 2.59257 2.41173 13.3695
179 4 1.25093 7.31026 2.43626 15.7647
183 1 -0.67141 5.95003 1.3856 15.0991
77 3 -0.805042 6.86445 3.98697 15.6925
262 3 -0.826005 0.505821 1.94541 15.1487
196 2 0.177294 5.38413 2.20994 14.5004
117 2 0.0982417 4.88869 1.71752 8.25309
227 3 -0.834867 5.06973 5.93467 15.2136
195 2 0.254801 6.33219 0.561324 14.4821
245 1 -0.668141 3.20821 3.05859 15.1927
246 2 0.139955 3.22398 3.69192 14.2415
247 2 0.155617 3.73263 2.06297 14.9346
60 3 -0.824863 -0.667424 3.53262 8.24709
197 2 0.191797 5.3233 1.03751 15.9858
15 4 1.06382 -5.18312 10.144 0.265796
3 3 -0.816701 -5.81325 11.3721 1.23181
268 2 0.218115 -4.73493 9.06005 2.21314
16 4 1.42603 -3.11643 8.00764 6.47917
17 4 1.2155 -4.68937 9.91109 4.89184
154 2 0.183347 0.935782 9.36419 7.399
161 2 0.190045 -1.01036 10.0788 0.427774
31 4 1.20857 -1.76046 10.3675 3.16924
33 4 1.12457 0.160789 11.0926 5.63685
48 1 -0.663575 -0.98167 8.96211 2.12566
49 1 -0.662489 0.0851463 9.40087 6.60048
122 2 0.00822757 3.59865 7.97433 5.813
68 3 -0.845388 -1.94482 7.32969 5.54847
28 4 1.29811 4.01613 6.56695 4.8878
70 3 -0.794942 -4.45756 8.52114 5.67586
79 3 -0.849566 0.274283 6.99483 4.47191
87 3 -0.817058 1.84786 7.47176 2.27932
30 4 1.02377 2.39411 8.02148 0.861799
89 3 -0.744722 -1.88751 11.6837 2.07756
90 3 -0.794204 -3.30154 10.1562 4.0048
93 3 -0.793978 -0.501834 10.8154 4.21403
94 3 -0.833458 -0.568442 12.178 6.64483
115 2 -0.0274967 -4.70012 11.1957 5.96008
147 2 0.173255 1.67612 7.73388 6.487
151 2 0.190375 0.0843826 9.33944 1.56193
152 2 0.155275 -1.88706 8.81957 1.42794
153 2 0.216653 -0.866301 8.17255 2.84856
265 2 0.201226 -4.40568 12.5033 2.64627
155 2 0.246867 0.181408 8.62364 5.79206
156 2 0.281487 -0.978013 9.45104 7.09177
46 1 -0.664159 2.40483 8.01059 7.39165
148 2 0.17819 3.4316 7.57992 7.35158
272 2 0.182793 0.864027 10.124 0.0903455
19 4 1.34922 -1.28958 12.8391 7.86771
1 4 1.29301 -6.6775 12.3912 2.0516
67 3 -0.816605 -3.51988 6.65208 7.33389
91 3 -0.837164 -2.56805 9.37143 7.71651
149 2 0.14662 2.34383 9.12974 7.6914
47 1 -0.672682 1.80218 9.85531 0.701087
251 1 -0.670418 -5.03358 8.53392 1.24821
253 2 0.1604 -4.19121 7.83246 0.847839
267 2 0.166474 -4.22245 6.6426 0.195469
271 2 0.167887 1.73871 10.1105 1.79262
133 2 0.163561 -6.03443 12.9285 6.4206
134 2 0.217344 -7.70054 12.7543 5.49885
270 2 0.179673 0.509711 12.3834 2.20336
244 2 0.14074 -5.80259 12.799 4.11058
159 2 0.210279 1.34404 9.82002 11.0787
18 4 1.23542 -2.23111 8.34562 12.8601
22 4 1.21353 -0.653035 12.9547 12.1577
32 4 0.967743 -2.39916 10.3576 8.95916
35 4 1.22965 -1.24822 10.8002 14.3951
43 1 -0.649328 -5.40677 10.9015 14.3883
160 2 0.151399 1.03023 10.8142 14.7453
50 1 -0.663335 2.11122 10.516 11.3991
51 1 -0.637869 0.223141 11.2156 15.4589
162 2 0.204708 0.272964 12.3723 15.609
72 3 -0.845048 -1.86744 7.98891 11.3095
83 3 -0.82677 0.114112 7.54266 9.25557
88 3 -0.806377 3.11654 7.57522 15.6185
92 3 -0.824861 -1.38752 11.4409 9.20481
95 3 -0.80627 3.64158 8.20839 11.8542
96 3 -0.782178 -1.15471 9.21487 13.7438
97 3 -0.845854 -1.31221 11.9187 13.1997
98 3 -0.758949 -2.65283 10.7868 15.5173
116 2 -0.0312133 -3.61305 9.20054 12.8179
120 2 0.0873658 -0.991612 12.22 10.625
126 2 0.0798528 -2.08249 9.29892 10.2515
127 2 -0.0455091 -3.86194 11.0047 9.36843
128 2 0.0281711 2.17775 9.93724 13.2764
139 2 0.172609 -4.45399 11.0522 13.8611
71 3 -0.842701 -2.64296 7.09772 13.6746
158 2 0.236267 1.68305 11.5034 11.8795
140 2 0.170786 -5.66949 11.8607 14.896
187 3 -0.796815 0.914244 13.0474 12.3707
86 3 -0.791749 2.62165 6.83057 9.88911
29 4 0.957595 3.675 6.75463 11.0085
27 4 1.43598 1.45353 6.82815 8.7481
14 4 1.48888 -0.986542 6.84185 10.382
235 2 0.155963 11.9548 1.65886 2.97069
37 4 1.27081 13.1418 1.85363 5.72476
225 2 0.142789 8.95986 1.02245 3.45159
39 4 1.28381 11.2889 3.95683 7.43155
45 1 -0.67945 7.19898 5.28562 7.17023
54 1 -0.669856 10.9146 5.36934 6.20069
101 3 -0.817232 14.0492 2.71982 4.84214
102 3 -0.831906 13.9824 1.03741 6.73461
250 2 0.193698 11.5038 5.00837 0.351619
4 4 1.45125 15.1773 2.51798 3.67878
106 3 -0.791444 12.0441 2.75547 6.65791
232 3 -0.808342 14.6304 1.21608 2.82425
129 2 -0.0134416 12.2781 0.788546 4.65922
130 2 0.0650186 7.57823 5.6012 3.4733
234 2 0.185205 11.2526 0.366083 1.82673
169 2 0.213441 11.7729 5.31799 5.50219
146 2 0.2057 7.8886 4.39465 7.00841
103 3 -0.779395 5.71857 5.93189 1.35132
145 2 0.162163 7.3348 6.09304 6.39966
170 2 0.222658 10.8777 6.31237 6.74206
171 2 0.167897 9.9918 5.04597 5.75754
231 1 -0.656031 11.8064 0.490224 2.78138
224 2 0.178504 8.97047 1.43464 1.62157
221 1 -0.662397 8.68256 0.709416 2.45057
11 4 1.47277 13.2244 6.10395 8.82823
36 4 1.37171 8.92175 2.416 9.06292
52 1 -0.644591 10.4639 1.46737 9.74621
177 2 0.165874 13.8879 0.710974 13.7669
100 3 -0.838144 8.12718 3.11459 10.2378
107 3 -0.795999 12.2331 4.54586 8.56279
110 2 0.00708454 14.378 2.72406 9.95952
188 3 -0.773083 8.65194 1.93417 14.6902
202 2 0.169218 13.8576 3.68093 11.5783
163 2 0.177145 11.3261 2.19884 10.265
172 4 0.99882 16.2154 2.54693 14.033
165 2 0.20987 10.0954 0.68699 10.5347
6 4 1.27364 15.9274 2.46411 9.31672
173 1 -0.648654 14.5211 1.60661 13.3683
174 2 0.0501719 14.5411 2.75186 14.8005
175 2 0.0506917 15.9318 1.05074 12.7183
176 2 0.179199 14.0069 2.15909 12.5823
164 2 0.157028 10.896 0.850152 8.8947
178 4 1.08972 13.7559 5.72911 14.3043
180 4 1.23074 9.86643 1.44794 13.8021
181 4 1.27702 11.7491 3.98784 12.5114
205 2 0.185419 9.19346 5.66861 9.13908
185 1 -0.701651 12.8594 3.1783 11.1369
144 2 0.181475 7.16674 5.65191 8.22816
189 3 -0.743584 10.7873 2.71873 13.1398
190 3 -0.777848 12.6822 4.62853 13.6907
192 3 -0.760224 10.9425 5.32845 11.817
263 3 -0.821088 15.8988 0.957924 8.5489
199 2 0.182918 11.8241 1.29388 15.0342
200 2 0.252162 12.5612 3.70406 10.0605
201 2 0.140545 12.7251 2.06319 11.2276
182 4 1.07857 10.7782 6.35589 10.5893
249 1 -0.6314 13.5958 5.90562 16.0157
204 2 0.169556 8.06435 6.17458 10.5501
184 1 -0.670695 11.0835 0.472948 14.8363
123 2 -0.029293 5.22054 6.65231 10.2795
266 2 0.0733185 14.8369 5.07461 15.9327
186 1 -0.679335 8.95893 6.51723 9.95434
105 3 -0.792562 9.6171 3.48893 8.10218
121 2 -0.00569969 6.87872 4.36823 12.1119
233 2 0.158777 2.90396 12.6831 3.61411
255 2 0.154373 1.60933 12.7508 4.79036
167 2 0.184396 9.08545 7.24472 2.97873
53 1 -0.641774 8.07232 7.17975 3.23821
104 3 -0.839242 5.05731 7.03604 3.82197
237 1 -0.68422 7.66024 10.2164 0.19984
125 2 -0.00571347 4.12892 8.04265 1.01678
150 2 0.163459 2.73334 10.2547 0.222998
166 2 0.0223403 7.13441 8.25218 2.1672
168 2 0.14772 7.94324 7.63944 4.29543
206 4 1.23282 9.17154 10.3219 4.03637
215 2 0.152595 4.94218 9.76092 6.15266
208 4 1.13049 7.41986 10.2209 6.65706
209 1 -0.637313 5.94699 9.1708 5.97844
261 2 0.210492 6.46604 11.8784 4.4989
211 3 -0.836871 8.29537 10.3353 5.38069
212 3 -0.808003 6.8086 11.5429 7.31806
213 2 -0.00605948 8.44451 9.06635 3.11518
256 2 0.138163 2.35855 11.0216 4.31386
216 2 0.143133 6.16695 8.23987 6.67935
217 2 0.179323 6.30005 9.12339 4.88025
219 2 0.175804 9.01283 8.35163 7.64045
252 2 0.158995 10.7497 8.12457 1.33763
257 2 0.152157 2.64515 11.7044 5.99708
238 3 -0.768827 5.49533 12.0743 1.04338
240 2 0.158962 7.93276 10.2872 1.30634
38 4 0.99555 6.165 6.7105 2.69539
2 3 -0.81992 9.16737 11.6752 3.18752
258 1 -0.671476 5.58396 11.4558 3.85424
259 2 0.150673 5.8194 10.4467 3.3954
260 2 0.139556 4.52181 11.5113 4.33803
207 4 1.22768 6.35576 13.0177 7.8466
230 4 1.13741 5.33595 12.7702 2.50767
254 1 -0.668875 1.93844 11.7201 5.19833
69 3 -0.827523 10.6951 9.90715 4.1711
239 2 0.131596 7.0817 9.16729 0.0127251
198 2 0.178217 3.10289 12.4117 14.3032
40 4 0.945706 6.09516 11.3559 13.0514
108 3 -0.847519 4.81695 10.5778 12.7648
109 3 -0.840834 6.72723 11.4659 14.4294
214 2 -0.0500719 5.06549 12.743 8.82837
132 2 -0.0474669 7.10573 10.8424 11.7996
264 2 0.0674932 9.02838 12.4356 15.5003
203 2 0.161257 8.70052 7.47923 9.32069
269 2 0.142703 10.5383 10.7267 13.6812
193 2 0.0561063 11.4813 9.53501 15.3634
274 2 0.143724 7.59155 8.60553 8.75722
194 2 0.0203581 9.81791 7.73993 11.1497
157 2 0.118349 2.89608 10.7723 10.4
34 4 1.04409 3.60309 9.70416 12.2946
241 2 0.175719 9.80428 10.7255 15.5811
218 2 0.156959 8.88962 9.91527 8.65805
236 4 1.03187 7.41929 11.7438 15.8038
191 3 -0.822509 12.0734 6.86068 9.8503
210 1 -0.669636 8.35582 9.06438 8.12051
131 2 -0.023022 6.08801 12.8453 12.3101
273 2 0.168785 1.97612 13.0961 15.7267
ITEM: TIMESTEP
200
ITEM: NUMBER OF ATOMS
274
ITEM: BOX BOUNDS xy xz yz pp pp pp
-8.3765848999999974e+00 1.8013900000000000e+01 -8.3765848999999974e+00
0.0000000000000000e+00 1.3273200000000001e+01 1.1950000000000001e+00
0.0000000000000000e+00 1.6075500000000002e+01 4.3120000000000003e-01
ITEM: ATOMS id type q x y z
119 2 -0.00922543 7.46 1.2689 5.34749
12 4 1.30256 -1.04609 6.2 5.09728
7 4 1.13555 1.10108 2.23241 5.24344
9 4 1.22703 -0.423935 4.42179 1.94378
10 4 1.62015 0.302329 4.39305 7.24022
242 1 -0.669198 3.30665 0.3905 3.43294
21 4 0.825852 5.87204 1.52878 5.85385
26 4 1.28313 5.41655 4.56377 6.79588
41 1 -0.683389 1.18859 0.552626 6.20681
44 1 -0.679454 3.66076 3.94222 1.38651
55 3 -0.780713 1.0201 0.788628 1.12438
56 3 -0.858786 -0.230527 2.24422 4.39291
58 3 -0.794996 -1.73228 4.08515 2.81995
59 3 -0.816627 0.0136307 3.25296 0.970626
243 2 0.150041 3.12573 1.31281 2.75025
61 3 -0.795395 1.31894 3.33653 6.34031
62 3 -0.867918 -0.639695 5.19021 6.2275
74 3 -0.78173 5.47599 0.515788 7.48771
78 3 -0.854284 0.862995 4.90126 2.85373
81 3 -0.818666 5.53386 3.04123 6.14936
84 3 -0.841672 2.88232 6.17129 4.23296
85 3 -0.813656 4.76896 5.66218 5.8857
113 2 0.0826498 -1.89718 5.2194 3.98289
111 2 0.00967178 2.50951 1.98653 4.23065
112 2 -0.0406367 -1.04013 5.6029 0.968866
135 2 0.25167 0.514698 0.866107 7.0789
118 2 0.0219048 4.55896 0.971162 4.66927
24 4 1.24703 4.9245 4.8833 0.345645
222 3 -0.760794 6.36378 1.45586 1.22047
223 2 -0.0827871 6.36248 0.979302 4.02404
141 2 0.163593 3.94083 2.82743 1.16435
142 2 0.185753 2.53417 4.1254 1.16323
143 2 0.183886 3.9769 4.24952 2.47598
220 4 1.00934 6.90783 0.497871 2.40605
25 4 1.48249 1.43902 6.26838 3.43882
5 4 1.30458 0.44429 1.92584 0.112824
133 2 0.179391 2.14316 0.267357 6.58051
138 2 0.169747 1.27198 1.0294 12.403
8 4 1.27436 1.82067 2.92396 11.0196
13 4 1.25203 0.499427 5.21959 12.5642
197 2 0.185299 5.39813 1.16705 15.9302
20 4 1.28531 4.49768 3.07781 9.35071
23 4 1.21671 6.80631 2.8102 11.2664
99 3 -0.793475 7.96318 1.05585 8.27263
226 4 0.89164 3.68455 6.33626 14.8767
42 1 -0.662718 2.21062 1.62994 12.349
57 3 -0.818192 0.412792 2.36937 10.3949
63 3 -0.870219 -0.27575 4.0838 13.311
64 3 -0.815726 1.93485 4.60564 12.0027
65 3 -0.833286 -2.39189 6.10626 9.65834
66 3 -0.850884 -0.437118 5.87193 11.4999
73 3 -0.789986 3.01626 2.96893 9.94366
75 3 -0.868695 5.46327 3.14041 10.5412
76 3 -0.838824 6.85671 1.29192 11.9043
80 3 -0.754705 4.6358 4.39137 8.39324
228 2 -0.0186341 2.76964 4.98676 15.3346
137 2 0.160538 3.12291 1.07193 11.8105
114 2 -0.0469099 0.881498 6.24606 13.8096
229 2 -0.0126848 3.61037 6.54096 13.1575
124 2 0.0870752 3.41269 5.24428 11.715
136 2 0.179473 2.55315 2.20164 13.3536
179 4 1.30209 7.48332 2.41215 15.66
183 1 -0.665564 6.02471 1.46364 14.9959
77 3 -0.748195 7.14116 3.98305 15.6984
262 3 -0.787321 0.390775 1.96576 15.0449
196 2 0.167325 5.56817 2.28681 14.3084
117 2 0.105235 4.90313 1.75645 8.38633
227 3 -0.801745 5.19922 5.98184 15.2926
195 2 0.273149 6.46505 0.567949 14.3786
245 1 -0.666587 3.09513 2.99881 15.1737
246 2 0.144946 2.86346 3.62667 14.2148
247 2 0.153676 3.54041 1.87799 14.942
60 3 -0.814584 -0.614616 3.52938 8.34071
121 2 -0.0120251 6.92531 3.91417 12.5585
248 2 0.166725 3.8075 3.52999 15.986
82 3 -0.819641 1.20952 5.39389 8.0648
266 2 0.0714653 -1.86894 5.27479 16.0287
15 4 1.0611 -5.2699 10.1236 0.242691
3 3 -0.797003 -5.90002 11.2171 1.17547
268 2 0.203998 -4.99096 8.90026 2.19919
16 4 1.44826 -3.07645 7.95085 6.45541
17 4 1.23142 -4.46892 9.93575 4.83198
154 2 0.171609 0.90292 9.451 7.58925
161 2 0.183922 -1.08464 9.98785 0.354365
31 4 1.27481 -1.8031 10.3032 3.03412
33 4 1.13601 0.190515 11.0075 5.58824
48 1 -0.666563 -1.0357 8.872 2.07823
49 1 -0.669171 0.187495 9.54276 6.67723
69 3 -0.843234 -5.91939 10.1652 4.27504
68 3 -0.858706 -1.86182 7.48888 5.53728
28 4 1.28771 4.13539 6.72528 4.86077
70 3 -0.788739 -4.41684 8.44134 5.62275
79 3 -0.839382 0.334215 6.85017 4.40184
87 3 -0.793634 1.59896 7.46022 2.14819
30 4 1.01812 2.33355 8.01937 0.855524
89 3 -0.771476 -1.73269 11.6908 2.21081
90 3 -0.820968 -3.31439 10.1829 3.73179
93 3 -0.767208 -0.661493 10.5877 4.31274
94 3 -0.793093 -0.618716 12.12 6.43411
115 2 -0.013933 -4.29298 11.1579 6.01799
147 2 0.19343 1.92519 7.33993 6.47492
151 2 0.206618 0.00516405 9.22339 1.55831
152 2 0.142281 -1.93388 8.74088 1.32944
153 2 0.213923 -0.903778 8.03676 2.86739
265 2 0.199294 -4.58894 12.2257 2.97076
155 2 0.230248 0.35123 8.76666 5.86798
156 2 0.298451 -0.895454 9.54881 7.04837
46 1 -0.647309 2.4375 7.84448 7.38889
148 2 0.18556 3.49997 7.43349 7.58823
272 2 0.183674 0.847273 10.1893 0.147437
19 4 1.3317 -1.38262 12.7131 7.86694
1 4 1.23996 -6.71009 12.4508 2.16431
67 3 -0.842686 -3.64261 6.8106 7.4649
91 3 -0.837373 -2.55682 9.45166 7.55613
149 2 0.144708 2.22063 8.98649 7.4937
47 1 -0.663179 1.75668 9.847 0.767206
251 1 -0.675649 -4.94726 8.38233 1.17945
253 2 0.173321 -3.93819 8.03786 0.971997
134 2 0.242381 -7.63112 12.5878 5.52765
271 2 0.161046 1.68995 10.1693 1.83841
270 2 0.173361 0.578089 12.3406 2.70294
244 2 0.150488 -5.85713 12.9399 4.24823
159 2 0.195422 1.30254 9.82831 11.1363
18 4 1.2338 -2.3535 8.38545 12.8733
22 4 1.25005 -0.646806 12.8641 12.0837
32 4 0.981873 -2.65789 10.2921 8.82783
35 4 1.31334 -1.38509 10.8097 14.3959
43 1 -0.648631 -5.50574 10.8116 14.5482
160 2 0.160871 0.927436 10.6016 14.7185
50 1 -0.676008 2.10476 10.5472 11.4009
51 1 -0.639223 0.192981 11.0846 15.4511
162 2 0.21405 0.459716 12.1846 15.722
72 3 -0.827665 -1.95218 8.18309 11.3353
83 3 -0.827868 -0.00702447 7.42349 9.39235
88 3 -0.797771 3.12367 7.66646 15.5295
92 3 -0.817239 -1.59586 11.3673 9.16738
95 3 -0.830516 3.66275 8.08321 11.7898
96 3 -0.793531 -1.22693 9.4085 13.585
97 3 -0.82355 -1.33059 12.0231 13.3028
98 3 -0.790463 -2.63014 10.7392 15.4144
116 2 -0.0380096 -3.70532 9.24959 12.7572
120 2 0.0706272 -0.797756 11.8217 10.7378
126 2 0.0924821 -2.58884 9.16864 10.1445
127 2 -0.0425065 -4.22844 10.8383 9.03148
128 2 0.0327997 2.19314 9.96154 13.2476
139 2 0.158638 -4.61816 10.9966 13.8596
71 3 -0.857048 -2.71152 7.08849 13.6535
158 2 0.227209 1.60322 11.5208 11.7847
140 2 0.178397 -5.81516 11.7893 15.0969
187 3 -0.801359 0.882826 13.1492 12.3719
86 3 -0.800043 2.64617 6.8394 9.8394
29 4 0.963428 3.75948 6.7289 10.9211
27 4 1.39659 1.4138 6.79489 8.82554
14 4 1.51778 -1.16041 6.84862 10.4242
235 2 0.162467 11.9262 1.56444 3.01749
37 4 1.21982 13.0867 1.80478 5.8232
225 2 0.140397 8.84585 1.21163 3.67211
39 4 1.26735 11.2527 4.02548 7.37569
45 1 -0.670069 7.20523 5.22677 6.97915
54 1 -0.658162 11.0302 5.40775 6.12291
101 3 -0.815544 14.0356 2.87207 5.10654
102 3 -0.857882 13.7929 0.746495 6.78889
250 2 0.180762 11.4745 4.51414 0.240823
4 4 1.46937 15.1461 2.50332 3.94402
106 3 -0.768126 11.9558 2.84171 6.52022
232 3 -0.792088 14.5839 1.25866 2.98192
129 2 -0.0105881 12.1622 0.940225 4.65538
130 2 0.0423612 7.58146 5.56303 3.4484
267 2 0.165905 12.1051 6.43112 0.437996
169 2 0.203239 11.8622 5.06818 5.38739
146 2 0.198132 7.85206 4.42054 6.53583
103 3 -0.784222 5.81197 5.96616 1.2556
145 2 0.16365 7.28828 6.21332 6.4214
170 2 0.237659 11.1506 6.44053 6.56613
171 2 0.167897 9.97166 5.2652 5.72864
231 1 -0.659865 11.7792 0.43643 2.80478
224 2 0.183678 9.30786 1.13975 1.84034
221 1 -0.665622 8.75162 0.690944 2.65812
105 3 -0.786389 9.68489 3.45499 7.77047
234 2 0.186846 11.3088 0.234516 1.85832
11 4 1.47377 13.0185 6.16997 8.89563
36 4 1.2312 8.92846 2.4831 8.9334
52 1 -0.664404 10.3229 1.79609 9.97732
177 2 0.172655 14.0527 0.61571 13.6841
100 3 -0.798615 8.04428 3.11763 10.1841
107 3 -0.795949 12.3386 4.51632 8.68004
110 2 -0.00565538 14.4626 2.74367 10.106
188 3 -0.792314 8.77716 1.85659 14.8963
202 2 0.18144 13.9337 3.64925 11.6437
163 2 0.198347 11.1317 2.48664 10.4457
172 4 1.01083 16.1434 2.69778 13.968
165 2 0.23615 9.79378 1.24695 10.8152
6 4 1.28075 15.9841 2.41303 9.40082
173 1 -0.649868 14.6055 1.60556 13.3039
174 2 0.0610937 14.4677 2.66464 14.7418