LAMMPS (2 Aug 2023 - Update 2)
OMP_NUM_THREADS environment is not set. Defaulting to 1 thread. (src/comm.cpp:98)
  using 1 OpenMP thread(s) per MPI task
Reading data file ...
  triclinic box = (0 0 0) to (19.0492 14.0575 17.55) with tilt (-10.7944 1.3894 -3.3406)
WARNING: Triclinic box skew is large. LAMMPS will run inefficiently. (src/domain.cpp:220)
  1 by 1 by 1 MPI processor grid
  reading atoms ...
  373 atoms
Finding 1-2 1-3 1-4 neighbors ...
  special bond factors lj:    0        0        0       
  special bond factors coul:  0        0        0       
     0 = max # of 1-2 neighbors
     0 = max # of 1-3 neighbors
     0 = max # of 1-4 neighbors
     1 = max # of special neighbors
  special bonds CPU = 0.000 seconds
  read_data CPU = 0.005 seconds
*****Minimization starts.*****

CITE-CITE-CITE-CITE-CITE-CITE-CITE-CITE-CITE-CITE-CITE-CITE-CITE

Your simulation uses code contributions which should be cited:
- pair reaxff command: doi:10.1016/j.parco.2011.08.005
- fix qeq/reaxff command: doi:10.1016/j.parco.2011.08.005
The log file lists these citations in BibTeX format.

CITE-CITE-CITE-CITE-CITE-CITE-CITE-CITE-CITE-CITE-CITE-CITE-CITE

Switching to 'neigh_modify every 1 delay 0 check yes' setting during minimization
WARNING: Fix qeq/reaxff group is not charge neutral, net charge = 39.36 (src/REAXFF/fix_qeq_reaxff.cpp:392)
Neighbor list info ...
  update: every = 1 steps, delay = 0 steps, check = yes
  max neighbors/atom: 2000, page size: 100000
  master list distance cutoff = 12
  ghost atom cutoff = 12
  binsize = 6, bins = 6 3 3
  2 neighbor lists, perpetual/occasional/extra = 2 0 0
  (1) pair reaxff, perpetual
      attributes: half, newton off, ghost
      pair build: half/bin/newtoff/ghost
      stencil: full/ghost/bin/3d
      bin: standard
  (2) fix qeq/reaxff, perpetual, copy from (1)
      attributes: half, newton off
      pair build: copy
      stencil: none
      bin: none
Setting up cg style minimization ...
  Unit style    : real
  Current step  : 0
Per MPI rank memory allocation (min/avg/max) = 246.2 | 246.2 | 246.2 Mbytes
   Step          Temp          Press         Density         PotEng         TotEng    
         0   0              117174.54      1.1428982     -37805.726     -37805.726    
        59   0             -994.01621      1.1428982     -40134.671     -40134.671    
Loop time of 7.08563 on 1 procs for 59 steps with 373 atoms

99.6% CPU use with 1 MPI tasks x 1 OpenMP threads

Minimization stats:
  Stopping criterion = energy tolerance
  Energy initial, next-to-last, final = 
     -37805.7262335729  -40134.6691095644  -40134.6706418239
  Force two-norm initial, final = 2431.5363 180.45314
  Force max component initial, final = 745.91392 99.01531
  Final line search alpha, max atom move = 0.00063010681 0.062390221
  Iterations, force evaluations = 59 143

MPI task timing breakdown:
Section |  min time  |  avg time  |  max time  |%varavg| %total
---------------------------------------------------------------
Pair    | 5.2229     | 5.2229     | 5.2229     |   0.0 | 73.71
Bond    | 2.071e-05  | 2.071e-05  | 2.071e-05  |   0.0 |  0.00
Neigh   | 0.041151   | 0.041151   | 0.041151   |   0.0 |  0.58
Comm    | 0.0042877  | 0.0042877  | 0.0042877  |   0.0 |  0.06
Output  | 0          | 0          | 0          |   0.0 |  0.00
Modify  | 1.8149     | 1.8149     | 1.8149     |   0.0 | 25.61
Other   |            | 0.002344   |            |       |  0.03

Nlocal:            373 ave         373 max         373 min
Histogram: 1 0 0 0 0 0 0 0 0 0
Nghost:           5955 ave        5955 max        5955 min
Histogram: 1 0 0 0 0 0 0 0 0 0
Neighs:         176161 ave      176161 max      176161 min
Histogram: 1 0 0 0 0 0 0 0 0 0

Total # of neighbors = 176161
Ave neighs/atom = 472.2815
Ave special neighs/atom = 0
Neighbor list builds = 1
Dangerous builds not checked
System init for write_data ...
*****Equilibration starts.*****
Setting up Verlet run ...
  Unit style    : real
  Current step  : 0
  Time step     : 0.5
Per MPI rank memory allocation (min/avg/max) = 244.6 | 244.6 | 244.6 Mbytes
   Step          Temp          Press         Density         PotEng         TotEng    
         0   300            2241.7648      1.1428982     -40134.671     -39802.012    
       100   261.15393      322.22605      1.1414989     -40054.867     -39765.284    
       200   335.45542     -6082.7592      1.1606606     -40096.677     -39724.704    
       300   343.39234     -1421.8706      1.1755856     -40139.577     -39758.802    
       400   355.12013     -66.555093      1.1909742     -40232.51      -39838.731    
       500   320.22637     -7154.0983      1.2047817     -40268.122     -39913.035    
       600   318.03314     -4135.4582      1.2195289     -40328.371     -39975.717    
       700   307.12254     -8393.0807      1.2269216     -40359.818     -40019.262    
       800   310.03192      1267.8464      1.2366386     -40401.235     -40057.453    
       900   299.87164     -9388.1254      1.2444496     -40424.48      -40091.964    
      1000   319.59493     -4026.5735      1.2609418     -40480.494     -40126.107    
      1100   294.11663      3568.0442      1.2736639     -40488.772     -40162.638    
      1200   307.43837      9991.6915      1.2824666     -40525.256     -40184.349    
      1300   295.95741     -9596.2175      1.2925249     -40537.047     -40208.872    
      1400   304.55636     -3502.6646      1.2896759     -40558.283     -40220.572    
      1500   304.58358     -5084.4971      1.2876905     -40580.406     -40242.666    
      1600   296.49915     -506.92602      1.2945659     -40601.457     -40272.681    
      1700   299.6925      -8048.277       1.3029736     -40604.709     -40272.392    
      1800   309.24837     -688.48031      1.3150103     -40603.71      -40260.797    
      1900   311.02601     -4980.0305      1.3271667     -40608.176     -40263.292    
      2000   288.11689     -2506.3816      1.3380099     -40605.055     -40285.574    
      2100   296.73453     -10316.712      1.3314151     -40649.695     -40320.657    
      2200   268.99167      1462.663       1.3399612     -40614.451     -40316.177    
      2300   295.80854      4084.7516      1.3529922     -40623.48      -40295.469    
      2400   303.75007      880.90871      1.3498219     -40621.419     -40284.603    
      2500   303.2093      -1535.887       1.358201      -40636.826     -40300.609    
      2600   295.01342     -1454.7512      1.372626      -40669.983     -40342.855    
      2700   288.36101      2011.629       1.3834588     -40662.427     -40342.674    
      2800   297.85612     -3469.9419      1.376059      -40662.552     -40332.271    
      2900   321.13577     -9633.3865      1.3505403     -40671.191     -40315.096    
      3000   334.41716     -4040.2103      1.3487107     -40662.413     -40291.591    
      3100   297.84897     -4524.6476      1.3455232     -40623.271     -40292.997    
      3200   309.04424     -319.09464      1.3364204     -40670.895     -40328.208    
      3300   304.35831     -7604.6327      1.3393221     -40685.604     -40348.113    
      3400   314.54019     -7606.5347      1.3612696     -40695.317     -40346.536    
      3500   305.88523     -4895.1518      1.3884119     -40707.62      -40368.435    
      3600   283.26728      264.74834      1.3955271     -40706.862     -40392.758    
      3700   275.68581     -5304.1151      1.3988777     -40690.42      -40384.723    
      3800   302.43007      4526.4448      1.3874114     -40708.389     -40373.036    
      3900   297.59667      1502.3238      1.3619527     -40694.205     -40364.212    
      4000   296.34663     -8660.7328      1.357205      -40688.31      -40359.703    
      4100   298.55592      7051.73        1.3669853     -40688.236     -40357.179    
      4200   290.64384      11404.597      1.3628449     -40680.47      -40358.186    
      4300   297.02925      5974.0262      1.3566047     -40672.139     -40342.775    
      4400   300.47861      1353.7228      1.3669714     -40682.66      -40349.471    
      4500   276.68406      4412.8203      1.3716187     -40688.403     -40381.599    
      4600   305.7327       8497.4887      1.3862142     -40722.075     -40383.06     
      4700   306.29951      6873.3416      1.3994042     -40715.672     -40376.028    
      4800   320.14666     -3575.0883      1.3942158     -40709.18      -40354.182    
      4900   312.89275     -10300.562      1.3804641     -40662.608     -40315.653    
      5000   326.72974     -6751.3115      1.3901237     -40685.811     -40323.513    
Loop time of 295.891 on 1 procs for 5000 steps with 373 atoms

Performance: 0.730 ns/day, 32.877 hours/ns, 16.898 timesteps/s, 6.303 katom-step/s
99.9% CPU use with 1 MPI tasks x 1 OpenMP threads

MPI task timing breakdown:
Section |  min time  |  avg time  |  max time  |%varavg| %total
---------------------------------------------------------------
Pair    | 226.74     | 226.74     | 226.74     |   0.0 | 76.63
Bond    | 0.00089648 | 0.00089648 | 0.00089648 |   0.0 |  0.00
Neigh   | 24.993     | 24.993     | 24.993     |   0.0 |  8.45
Comm    | 0.22042    | 0.22042    | 0.22042    |   0.0 |  0.07
Output  | 0.038124   | 0.038124   | 0.038124   |   0.0 |  0.01
Modify  | 43.852     | 43.852     | 43.852     |   0.0 | 14.82
Other   |            | 0.04149    |            |       |  0.01

Nlocal:            373 ave         373 max         373 min
Histogram: 1 0 0 0 0 0 0 0 0 0
Nghost:           6211 ave        6211 max        6211 min
Histogram: 1 0 0 0 0 0 0 0 0 0
Neighs:         219059 ave      219059 max      219059 min
Histogram: 1 0 0 0 0 0 0 0 0 0

Total # of neighbors = 219059
Ave neighs/atom = 587.28954
Ave special neighs/atom = 0
Neighbor list builds = 500
Dangerous builds not checked
*****Heat starts.*****
Setting up Verlet run ...
  Unit style    : real
  Current step  : 5000
  Time step     : 0.5
Per MPI rank memory allocation (min/avg/max) = 250.3 | 250.3 | 250.3 Mbytes
   Step          Temp          Press         Density         PotEng         TotEng    
      5000   326.72974     -6751.3136      1.3901237     -40685.811     -40323.513    
      5100   341.93096      10844.877      1.3901237     -40693.734     -40314.58     
      5200   352.6265       2922.286       1.3901237     -40638.529     -40247.515    
      5300   380.92669     -6677.0032      1.3901237     -40566.385     -40143.99     
      5400   440.95204     -1579.0219      1.3901237     -40492.936     -40003.982    
      5500   519.97163      4139.1301      1.3901237     -40406.317     -39829.741    
      5600   611.66224     -2063.0885      1.3901237     -40294.442     -39616.193    
      5700   737.36403      626.77999      1.3901237     -40185.211     -39367.576    
      5800   875.03062      6652.1095      1.3901237     -40055.003     -39084.716    
      5900   896.507       -1904.3345      1.3901237     -39764.279     -38770.178    
      6000   1053.0104      4117.9016      1.3901237     -39603.408     -38435.765    
      6100   1231.3763      17222.638      1.3901237     -39453.954     -38088.528    
      6200   1334.4756      10683.591      1.3901237     -39227.394     -37747.645    
      6300   1480.1758      33989.529      1.3901237     -39063.284     -37421.975    
      6400   1626.9667      21462.281      1.3901237     -38938.545     -37134.465    
      6500   1752.0339      1640.544       1.3901237     -38802.461     -36859.698    
      6600   1825.3981      18248.322      1.3901237     -38702.27      -36678.157    
      6700   1796.3893      41819.725      1.3901237     -38453.004     -36461.057    
      6800   1991.9163     -687.09304      1.3901237     -38428.651     -36219.892    
      6900   2027.4883      33319.87       1.3901237     -38252.47      -36004.267    
      7000   2134.2222      29814.616      1.3901237     -38094.947     -35728.39     
Loop time of 130.007 on 1 procs for 2000 steps with 373 atoms

Performance: 0.665 ns/day, 36.113 hours/ns, 15.384 timesteps/s, 5.738 katom-step/s
100.0% CPU use with 1 MPI tasks x 1 OpenMP threads

MPI task timing breakdown:
Section |  min time  |  avg time  |  max time  |%varavg| %total
---------------------------------------------------------------
Pair    | 98.934     | 98.934     | 98.934     |   0.0 | 76.10
Bond    | 0.0003831  | 0.0003831  | 0.0003831  |   0.0 |  0.00
Neigh   | 10.493     | 10.493     | 10.493     |   0.0 |  8.07
Comm    | 0.10851    | 0.10851    | 0.10851    |   0.0 |  0.08
Output  | 0.016907   | 0.016907   | 0.016907   |   0.0 |  0.01
Modify  | 20.437     | 20.437     | 20.437     |   0.0 | 15.72
Other   |            | 0.01727    |            |       |  0.01

Nlocal:            373 ave         373 max         373 min
Histogram: 1 0 0 0 0 0 0 0 0 0
Nghost:           6312 ave        6312 max        6312 min
Histogram: 1 0 0 0 0 0 0 0 0 0
Neighs:         217973 ave      217973 max      217973 min
Histogram: 1 0 0 0 0 0 0 0 0 0

Total # of neighbors = 217973
Ave neighs/atom = 584.37802
Ave special neighs/atom = 0
Neighbor list builds = 200
Dangerous builds not checked
*****Middle equilibration starts.*****
*****Cool starts.*****
Setting up Verlet run ...
  Unit style    : real
  Current step  : 7000
  Time step     : 0.5
Per MPI rank memory allocation (min/avg/max) = 250.3 | 250.3 | 250.3 Mbytes
   Step          Temp          Press         Density         PotEng         TotEng    
      7000   300            5751.8251      1.3901237     -38094.947     -37762.288    
      7100   1386.3224      16704.208      1.3901237     -38996.449     -37459.21     
      7200   1611.3506      22792.21       1.3901237     -38794.345     -37007.58     
      7300   1812.2569      19999.99       1.3901237     -38580.851     -36571.309    
      7400   1944.4568      26414.308      1.3901237     -38430.796     -36274.663    
      7500   1893.349       54465.151      1.3901237     -38404.704     -36305.242    
      7600   1659.062       30183.637      1.3901237     -38481.652     -36641.982    
      7700   1553.376       20897.692      1.3901237     -38640.716     -36918.237    
      7800   1529.6135      27469.087      1.3901237     -38882.989     -37186.859    
      7900   1411.2841      18834.001      1.3901237     -38999.748     -37434.83     
      8000   1275.997       12618.021      1.3901237     -39052.558     -37637.654    
      8100   1279.4406     -20552.665      1.3901237     -39257.569     -37838.847    
      8200   1169.731       7791.8647      1.3901237     -39378.143     -38081.073    
      8300   1036.1387      8988.0171      1.3901237     -39463.18      -38314.246    
      8400   1033.5002      8831.9795      1.3901237     -39693.094     -38547.085    
      8500   960.57935      841.43447      1.3901237     -39830.226     -38765.077    
      8600   851.79424      14473.425      1.3901237     -39938.517     -38993.995    
      8700   731.57122      9656.1959      1.3901237     -40023.802     -39212.591    
      8800   650.7035       17212.726      1.3901237     -40147.048     -39425.508    
      8900   537.07929     -1780.6373      1.3901237     -40233.347     -39637.801    
      9000   491.45019      1928.25        1.3901237     -40392.157     -39847.207    
Loop time of 129.702 on 1 procs for 2000 steps with 373 atoms

Performance: 0.666 ns/day, 36.028 hours/ns, 15.420 timesteps/s, 5.752 katom-step/s
100.0% CPU use with 1 MPI tasks x 1 OpenMP threads

MPI task timing breakdown:
Section |  min time  |  avg time  |  max time  |%varavg| %total
---------------------------------------------------------------
Pair    | 98.216     | 98.216     | 98.216     |   0.0 | 75.72
Bond    | 0.0003757  | 0.0003757  | 0.0003757  |   0.0 |  0.00
Neigh   | 10.507     | 10.507     | 10.507     |   0.0 |  8.10
Comm    | 0.10742    | 0.10742    | 0.10742    |   0.0 |  0.08
Output  | 0.015902   | 0.015902   | 0.015902   |   0.0 |  0.01
Modify  | 20.838     | 20.838     | 20.838     |   0.0 | 16.07
Other   |            | 0.01695    |            |       |  0.01

Nlocal:            373 ave         373 max         373 min
Histogram: 1 0 0 0 0 0 0 0 0 0
Nghost:           6238 ave        6238 max        6238 min
Histogram: 1 0 0 0 0 0 0 0 0 0
Neighs:         218652 ave      218652 max      218652 min
Histogram: 1 0 0 0 0 0 0 0 0 0

Total # of neighbors = 218652
Ave neighs/atom = 586.19839
Ave special neighs/atom = 0
Neighbor list builds = 200
Dangerous builds not checked
*****final equilibration starts.*****
Setting up Verlet run ...
  Unit style    : real
  Current step  : 9000
  Time step     : 0.5
Per MPI rank memory allocation (min/avg/max) = 250.4 | 250.4 | 250.4 Mbytes
   Step          Temp          Press         Density         PotEng         TotEng    
      9000   491.45019      1928.1454      1.3901237     -40392.157     -39847.207    
      9100   407.20996     -4386.7958      1.3835664     -40416.095     -39964.556    
      9200   360.2727      -12577.011      1.3948218     -40488.486     -40088.994    
      9300   344.26232      7321.0274      1.3864254     -40572.682     -40190.943    
      9400   295.50875     -1876.9931      1.3896758     -40602.358     -40274.679    
      9500   290.92958      10749.655      1.4111496     -40633.465     -40310.864    
      9600   288.6867       63.855214      1.415509      -40649.726     -40329.612    
      9700   294.0729       11467.016      1.4062689     -40656.456     -40330.37     
      9800   297.21828      2527.3069      1.4040102     -40644.915     -40315.341    
      9900   322.56983      4662.4956      1.4066505     -40667.354     -40309.669    
     10000   292.97216     -92.955224      1.3947034     -40657.412     -40332.547    
     10100   291.79608      3126.8297      1.3780497     -40676.409     -40352.847    
     10200   298.06573     -1747.6653      1.3738165     -40681.034     -40350.52     
     10300   305.22237      1655.2227      1.3842378     -40664.778     -40326.328    
     10400   310.46701      4167.1041      1.3978996     -40659.365     -40315.1      
     10500   310.61041      315.39601      1.4089305     -40683.825     -40339.401    
     10600   298.2307      -8282.4884      1.4212815     -40699.137     -40368.44     
     10700   298.53192      2433.8147      1.4289752     -40711.41      -40380.38     
     10800   299.6276       2370.3739      1.4325953     -40713.711     -40381.466    
     10900   310.7507       4630.3876      1.4291985     -40706.861     -40362.282    
     11000   316.40063     -4543.1009      1.424782      -40686.819     -40335.975    
     11100   326.93679     -79.754006      1.4118916     -40696.917     -40334.39     
     11200   323.47719      12890.759      1.4117121     -40723.188     -40364.496    
     11300   304.78833     -8333.0663      1.4064286     -40719.493     -40381.525    
     11400   295.25522     -10703.585      1.4064488     -40702.158     -40374.761    
     11500   294.05877      1732.2979      1.4247775     -40693.332     -40367.262    
     11600   310.31083     -10612.466      1.4370724     -40693.042     -40348.95     
     11700   311.59887     -2118.86        1.4368266     -40676.655     -40331.135    
     11800   308.0788      -4073.8628      1.4259193     -40693.674     -40352.057    
     11900   309.67766     -4892.6751      1.3998474     -40724.753     -40381.363    
     12000   289.23745      2386.9732      1.3958557     -40700.028     -40379.304    
     12100   295.74381     -4844.778       1.4154316     -40691.819     -40363.88     
     12200   318.62248      12234.833      1.419737      -40695.827     -40342.519    
     12300   297.45088      6530.282       1.4083954     -40694.523     -40364.691    
     12400   268.86734      10327.453      1.4020788     -40695.94      -40397.803    
     12500   288.48324     -10383.084      1.3840331     -40710.839     -40390.951    
     12600   291.58011     -10652.68       1.3855753     -40684.179     -40360.857    
     12700   311.31723     -7533.6939      1.3975531     -40696.832     -40351.624    
     12800   279.44264      1462.1083      1.4252302     -40669.539     -40359.676    
     12900   288.92339      5595.1149      1.4157602     -40692.874     -40372.498    
     13000   289.64369      2261.8733      1.4074374     -40720.138     -40398.964    
     13100   273.76504      1397.9746      1.4053173     -40723.873     -40420.306    
     13200   280.57635     -22043.061      1.3985974     -40707.731     -40396.611    
     13300   295.71906     -13575.973      1.3962959     -40700.836     -40372.925    
     13400   300.3685       4927.4167      1.4036037     -40695.188     -40362.121    
     13500   284.5715       35.70315       1.4012838     -40681.133     -40365.583    
     13600   299.00278     -5407.2086      1.3835286     -40705.54      -40373.987    
     13700   291.17201     -6189.1656      1.3782502     -40698.653     -40375.783    
     13800   302.79015     -658.73569      1.3833868     -40688.951     -40353.199    
     13900   300.90613      2892.8066      1.3791504     -40662.588     -40328.925    
     14000   309.18097      8606.3931      1.3760349     -40675.025     -40332.186    
Loop time of 317.808 on 1 procs for 5000 steps with 373 atoms

Performance: 0.680 ns/day, 35.312 hours/ns, 15.733 timesteps/s, 5.868 katom-step/s
100.0% CPU use with 1 MPI tasks x 1 OpenMP threads

MPI task timing breakdown:
Section |  min time  |  avg time  |  max time  |%varavg| %total
---------------------------------------------------------------
Pair    | 243.46     | 243.46     | 243.46     |   0.0 | 76.60
Bond    | 0.00091994 | 0.00091994 | 0.00091994 |   0.0 |  0.00
Neigh   | 26.404     | 26.404     | 26.404     |   0.0 |  8.31
Comm    | 0.22336    | 0.22336    | 0.22336    |   0.0 |  0.07
Output  | 0.036843   | 0.036843   | 0.036843   |   0.0 |  0.01
Modify  | 47.644     | 47.644     | 47.644     |   0.0 | 14.99
Other   |            | 0.04221    |            |       |  0.01

Nlocal:            373 ave         373 max         373 min
Histogram: 1 0 0 0 0 0 0 0 0 0
Nghost:           6164 ave        6164 max        6164 min
Histogram: 1 0 0 0 0 0 0 0 0 0
Neighs:         216595 ave      216595 max      216595 min
Histogram: 1 0 0 0 0 0 0 0 0 0

Total # of neighbors = 216595
Ave neighs/atom = 580.68365
Ave special neighs/atom = 0
Neighbor list builds = 500
Dangerous builds not checked
System init for write_data ...
Total wall time: 0:14:41
