LAMMPS (2 Aug 2023 - Update 2)
  using 1 OpenMP thread(s) per MPI task
Reading data file ...
  triclinic box = (0 0 0) to (15.6782 14.2194 17.6383) with tilt (-7.0409 -1.0144 0.675)
  1 by 2 by 2 MPI processor grid
  reading atoms ...
  350 atoms
Finding 1-2 1-3 1-4 neighbors ...
  special bond factors lj:    0        0        0       
  special bond factors coul:  0        0        0       
     0 = max # of 1-2 neighbors
     0 = max # of 1-3 neighbors
     0 = max # of 1-4 neighbors
     1 = max # of special neighbors
  special bonds CPU = 0.000 seconds
  read_data CPU = 0.007 seconds
WARNING: Van der Waals parameters for element SI indicate inner wall+shielding, but earlier atoms indicate a different van der Waals method. This may cause division-by-zero errors. Keeping van der Waals setting for earlier atoms. (src/REAXFF/reaxff_ffield.cpp:251)
*****Minimization starts.*****

CITE-CITE-CITE-CITE-CITE-CITE-CITE-CITE-CITE-CITE-CITE-CITE-CITE

Your simulation uses code contributions which should be cited:
- pair reaxff command: doi:10.1016/j.parco.2011.08.005
- fix qeq/reaxff command: doi:10.1016/j.parco.2011.08.005
The log file lists these citations in BibTeX format.

CITE-CITE-CITE-CITE-CITE-CITE-CITE-CITE-CITE-CITE-CITE-CITE-CITE

Switching to 'neigh_modify every 1 delay 0 check yes' setting during minimization
WARNING: Fix qeq/reaxff group is not charge neutral, net charge = -10.66 (src/REAXFF/fix_qeq_reaxff.cpp:392)
Neighbor list info ...
  update: every = 1 steps, delay = 0 steps, check = yes
  max neighbors/atom: 2000, page size: 100000
  master list distance cutoff = 12
  ghost atom cutoff = 12
  binsize = 6, bins = 4 3 3
  2 neighbor lists, perpetual/occasional/extra = 2 0 0
  (1) pair reaxff, perpetual
      attributes: half, newton off, ghost
      pair build: half/bin/newtoff/ghost
      stencil: full/ghost/bin/3d
      bin: standard
  (2) fix qeq/reaxff, perpetual, copy from (1)
      attributes: half, newton off
      pair build: copy
      stencil: none
      bin: none
Setting up cg style minimization ...
  Unit style    : real
  Current step  : 0
Per MPI rank memory allocation (min/avg/max) = 151.3 | 151.6 | 152 Mbytes
   Step          Temp          Press         Density         Volume         PotEng         TotEng    
         0   0              172158.12      1.6516858      3932.1873     -30535.512     -30535.512    
        41   0             -6200.5954      1.6516858      3932.1873     -33879.276     -33879.276    
Loop time of 10.38 on 4 procs for 41 steps with 350 atoms

91.1% CPU use with 4 MPI tasks x 1 OpenMP threads

Minimization stats:
  Stopping criterion = energy tolerance
  Energy initial, next-to-last, final = 
     -30535.5124557108  -33879.2574405008  -33879.2757483609
  Force two-norm initial, final = 4613.0821 562.9946
  Force max component initial, final = 555.68586 316.74259
  Final line search alpha, max atom move = 0.00012560726 0.03978517
  Iterations, force evaluations = 41 149

MPI task timing breakdown:
Section |  min time  |  avg time  |  max time  |%varavg| %total
---------------------------------------------------------------
Pair    | 6.0925     | 6.7098     | 7.3576     |  18.0 | 64.64
Bond    | 0.00044573 | 0.00046736 | 0.00049344 |   0.0 |  0.00
Neigh   | 0          | 0          | 0          |   0.0 |  0.00
Comm    | 0.73568    | 1.2909     | 1.8157     |  34.1 | 12.44
Output  | 0.015808   | 0.018568   | 0.020239   |   1.2 |  0.18
Modify  | 2.2562     | 2.2571     | 2.258      |   0.0 | 21.74
Other   |            | 0.103      |            |       |  0.99

Nlocal:           87.5 ave          95 max          77 min
Histogram: 1 0 0 0 0 1 0 1 0 1
Nghost:           3837 ave        3861 max        3816 min
Histogram: 1 0 0 1 0 1 0 0 0 1
Neighs:        52771.8 ave       57133 max       46728 min
Histogram: 1 0 0 0 0 1 0 1 0 1

Total # of neighbors = 211087
Ave neighs/atom = 603.10571
Ave special neighs/atom = 0
Neighbor list builds = 0
Dangerous builds = 0
System init for write_data ...
##### Equilibration starts.##### 
WARNING: Compute rdf cutoff less than neighbor cutoff - forcing a needless neighbor list build (src/compute_rdf.cpp:179)
Neighbor list info ...
  update: every = 10 steps, delay = 0 steps, check = yes
  max neighbors/atom: 2000, page size: 100000
  master list distance cutoff = 12
  ghost atom cutoff = 12
  binsize = 6, bins = 4 3 3
  3 neighbor lists, perpetual/occasional/extra = 2 1 0
  (1) pair reaxff, perpetual
      attributes: half, newton off, ghost
      pair build: half/bin/newtoff/ghost
      stencil: full/ghost/bin/3d
      bin: standard
  (2) compute rdf, occasional
      attributes: half, newton on, cut 7
      pair build: half/bin/newton/tri
      stencil: half/bin/3d/tri
      bin: standard
  (3) fix qeq/reaxff, perpetual, copy from (1)
      attributes: half, newton off
      pair build: copy
      stencil: none
      bin: none
Setting up Verlet run ...
  Unit style    : real
  Current step  : 0
  Time step     : 0.5
Per MPI rank memory allocation (min/avg/max) = 156.1 | 156.5 | 156.8 Mbytes
   Step          Temp          Press          PotEng         TotEng    
         0   300           -2571.765      -33879.275     -33567.185    
       100   235.10097     -7237.1994     -33773.525     -33528.949    
Loop time of 3.06101 on 4 procs for 100 steps with 350 atoms

Performance: 1.411 ns/day, 17.006 hours/ns, 32.669 timesteps/s, 11.434 katom-step/s
98.9% CPU use with 4 MPI tasks x 1 OpenMP threads

MPI task timing breakdown:
Section |  min time  |  avg time  |  max time  |%varavg| %total
---------------------------------------------------------------
Pair    | 2.5614     | 2.5939     | 2.6263     |   1.5 | 84.74
Bond    | 0.00020555 | 0.0002219  | 0.00023313 |   0.0 |  0.01
Neigh   | 0.028813   | 0.029338   | 0.029859   |   0.3 |  0.96
Comm    | 0.046347   | 0.079116   | 0.11166    |   8.7 |  2.58
Output  | 0.00034865 | 0.00071835 | 0.0013197  |   0.0 |  0.02
Modify  | 0.35434    | 0.35479    | 0.35528    |   0.1 | 11.59
Other   |            | 0.002949   |            |       |  0.10

Nlocal:           87.5 ave          96 max          79 min
Histogram: 1 0 1 0 0 0 0 1 0 1
Nghost:        3811.75 ave        3842 max        3777 min
Histogram: 1 0 1 0 0 0 0 0 1 1
Neighs:        52837.2 ave       57837 max       47911 min
Histogram: 1 0 1 0 0 0 0 1 0 1

Total # of neighbors = 211349
Ave neighs/atom = 603.85429
Ave special neighs/atom = 0
Neighbor list builds = 1
Dangerous builds = 0
System init for write_data ...
WARNING: Compute rdf cutoff less than neighbor cutoff - forcing a needless neighbor list build (src/compute_rdf.cpp:179)
Total wall time: 0:00:14
