ITEM: TIMESTEP
0
ITEM: NUMBER OF ATOMS
365
ITEM: BOX BOUNDS xy xz yz pp pp pp
-6.9345999999999997e+00 1.9702400000000001e+01 -6.9345999999999997e+00
0.0000000000000000e+00 1.5863300000000001e+01 2.0880000000000001e+00
0.0000000000000000e+00 1.7464200000000002e+01 8.7949999999999995e-01
ITEM: ATOMS id type q x y z
224 2 0.112289 -1.60583 6.01711 4.37789
2 4 1.2443 1.09776 2.05543 0.821746
4 4 1.00267 2.69664 4.15371 5.45913
8 4 0.784988 -0.929912 4.46745 2.08996
10 4 1.35315 1.28942 5.41212 7.89449
256 2 0.147807 3.7378 4.90561 2.46915
21 4 1.4267 4.73164 2.20839 4.63061
22 4 1.49535 6.40667 2.19466 0.191909
25 4 1.12691 6.96746 2.99677 6.43685
29 4 1.27213 6.04278 4.41516 2.83846
32 4 1.52599 5.90759 5.46805 7.98113
34 4 1.51632 5.05972 7.51747 5.92678
68 1 -0.678299 -0.931229 6.29722 5.41029
74 1 -0.648521 8.02586 0.681511 3.84258
78 1 -0.663501 1.61453 6.67381 2.91239
79 1 -0.685892 4.56355 5.66353 2.81497
102 3 -0.78212 1.92158 1.13132 1.9715
105 3 -0.758009 0.0693379 3.25516 1.48595
107 3 -0.859253 2.01501 4.85401 6.6885
353 2 0.147064 -1.51986 6.63512 0.644247
255 2 0.262873 4.19642 6.40199 3.66696
119 3 -0.802394 4.04805 1.02047 3.71383
120 3 -0.786721 3.40896 2.81453 5.70314
121 3 -0.789258 6.74922 0.820204 1.07316
123 3 -0.815549 6.05989 1.92507 5.71101
129 3 -0.865316 5.28704 3.32613 3.6428
130 3 -0.769835 6.63035 3.63823 1.23279
133 3 -0.870158 6.4563 4.29445 7.04615
240 2 0.218448 7.38785 1.59499 3.73411
136 3 -0.829548 4.87172 6.49966 7.18005
191 2 0.029862 3.69084 5.19468 4.55313
192 2 -0.0446149 1.55828 4.00113 4.23864
257 2 0.145945 4.99236 6.21586 1.84837
204 2 0.0142555 8.03267 2.15483 7.4518
206 2 -0.00760963 0.119534 5.45231 3.09422
135 3 -0.843083 3.46657 7.42136 4.82192
67 1 -0.664787 -1.74123 5.55722 0.665293
342 2 -0.0134722 -2.73378 6.7906 1.87757
225 2 0.145347 -1.60365 6.18131 6.38459
226 2 0.139971 0.151069 5.86089 5.46504
1 4 1.37621 3.04516 0.238699 2.65852
260 2 0.163833 3.54208 5.77973 1.03995
195 2 0.00953948 -0.187145 6.01611 7.25633
252 2 0.113771 1.66132 5.84758 3.74543
253 2 0.172699 2.08951 6.35101 1.87719
254 2 0.150496 0.560458 7.06512 2.75216
259 2 0.143968 1.72934 5.89284 0.255735
80 1 -0.65763 2.87318 5.96971 0.0236519
134 3 -0.854142 1.75574 6.68673 8.63276
349 2 0.270854 5.14544 0.157278 1.12625
3 4 1.26081 1.0083 2.91351 9.77807
5 4 1.31757 4.45463 1.16481 14.0295
7 4 1.49491 3.0176 3.36388 12.1643
12 4 1.03555 1.6698 5.42774 14.2467
345 2 0.104921 0.178192 4.81229 14.8522
24 4 1.29923 5.53478 3.54071 10.4738
216 2 0.0046111 6.32458 7.08432 13.4347
27 4 1.32984 5.58613 3.17415 16.1624
28 4 1.2342 8.46281 2.65417 11.3661
258 2 0.187523 5.33816 6.15368 16.7294
265 2 0.147439 4.45846 7.27704 13.5119
69 1 -0.642674 2.82419 5.59941 15.6943
77 1 -0.6881 5.85 4.66934 14.9606
106 3 -0.823988 0.906936 4.24211 8.87893
82 1 -0.658598 4.55672 6.6125 12.5665
103 3 -0.839394 2.01193 3.03872 10.9651
104 3 -0.793356 3.40749 1.96247 13.0569
358 2 0.204256 5.96126 0.888762 12.0732
295 2 0.135624 7.71007 6.1083 15.4432
110 3 -0.808085 2.3646 4.3721 13.2615
111 3 -0.791087 1.53479 6.94753 13.6115
122 3 -0.833156 4.47422 3.90243 11.5662
124 3 -0.807016 5.22185 1.96639 15.2046
125 3 -0.810656 7.0843 2.9901 16.9491
126 3 -0.781698 4.35316 3.53502 17.2044
127 3 -0.847674 7.00522 3.12488 10.9618
128 3 -0.789844 8.21324 1.43919 12.4383
132 3 -0.813094 5.60883 4.73788 9.44042
330 1 -0.65968 2.13443 1.65285 17.3944
157 3 -0.818147 10.055 1.55532 14.3716
264 2 0.24469 3.53427 6.17613 12.2488
203 2 -0.0399322 4.97659 2.2236 9.60234
263 2 0.223639 5.32367 5.81088 12.5742
227 2 0.161728 2.76822 6.73202 15.8481
228 2 0.20221 3.94894 5.19604 15.421
229 2 0.18591 2.39428 4.96757 16.5438
332 2 0.192973 2.45605 1.79236 16.2449
249 2 0.167944 6.91173 4.46778 14.5899
250 2 0.137009 5.699 5.73383 15.4571
251 2 0.193978 5.06 4.40516 14.1934
223 2 0.18041 0.754597 5.97178 17.2447
169 3 -0.815504 6.15527 7.62573 10.6417
35 4 1.32352 4.70247 8.0192 11.2759
137 3 -0.866823 3.42584 7.88183 10.3601
301 2 0.14256 8.2085 5.04857 12.7053
159 3 -0.833137 9.58738 3.18712 16.5071
57 4 0.972336 6.97534 8.13294 14.6162
190 2 -0.0267277 1.53655 1.75143 8.74919
11 4 1.20381 -0.65812 8.12577 5.22117
14 4 1.11381 -4.90624 12.4706 3.84583
15 4 1.00906 -1.36888 9.81361 7.94902
17 4 1.24954 -2.46417 12.1816 5.82161
23 4 1.05751 2.07216 13.6378 7.93763
30 4 1.33299 2.26501 8.10824 4.08179
36 4 1.28137 3.6298 9.78062 1.77518
37 4 1.25195 0.233807 12.1885 3.99087
39 4 1.51942 4.02661 9.86626 7.3149
40 4 1.56431 2.93768 12.1557 5.43678
112 3 -0.81333 -4.49941 13.883 3.34228
72 1 -0.663586 -2.76642 14.0091 6.23034
75 1 -0.652544 0.431792 14.3142 7.23964
113 3 -0.758522 -1.1483 8.77884 6.79187
114 3 -0.714568 -3.93648 11.6002 4.83717
115 3 -0.759815 -2.40743 11.361 7.24221
131 3 -0.80051 0.847123 8.52889 4.85944
138 3 -0.800956 2.64864 9.38427 3.03739
139 3 -0.832424 3.61444 8.5563 0.814607
140 3 -0.807064 0.139336 13.2784 2.7126
141 3 -0.807318 -1.10318 12.2138 4.93376
142 3 -0.848886 3.24359 11.1088 1.01421
143 3 -0.873024 3.02765 8.95814 8.02041
144 3 -0.819767 5.33567 8.98699 6.48268
145 3 -0.869495 1.59023 12.3895 4.78587
146 3 -0.855788 3.22076 10.8084 6.30468
147 3 -0.789211 2.90919 13.344 6.6821
338 2 0.225159 2.79105 13.0847 1.5709
245 2 0.200369 0.53813 14.4102 6.04095
209 2 0.0385846 0.286618 10.6247 3.33623
356 2 0.215629 -1.73903 14.4081 5.8582
108 3 -0.737813 -1.7959 8.51967 3.81395
235 2 0.116921 -2.74521 13.8748 7.39616
236 2 0.215472 -3.58613 14.6462 5.92744
181 3 -0.802465 4.81581 10.8754 8.59449
197 2 0.0718482 -3.02886 12.0925 8.50113
232 2 0.215784 1.13944 10.1135 7.88434
9 4 0.601989 -3.02655 8.01821 3.00797
329 2 0.16548 -2.75206 13.4501 1.57922
327 1 -0.663451 -2.86632 14.56 1.19579
20 4 1.09379 0.718667 14.6875 2.27402
341 2 -0.00193422 1.82484 13.102 0.12056
328 2 0.204403 -3.35943 14.5576 0.211474
331 2 0.176322 -6.69092 14.7271 0.326579
325 2 0.146756 -5.36379 12.9122 0.358171
234 2 0.119079 0.103071 11.6226 8.26761
244 2 0.119436 -0.236596 13.4478 7.66435
242 2 0.193366 0.796513 15.1048 4.8822
243 2 0.157514 0.280586 15.2704 7.76349
359 2 0.141154 0.794008 9.33623 0.0689316
16 4 0.574921 -3.60761 12.9745 9.90705
18 4 1.19669 -0.397502 10.6378 14.3198
19 4 0.869547 -1.8789 11.1758 11.352
31 4 1.05109 4.9294 8.70309 17.1455
324 2 0.172561 -1.83378 12.9136 16.6701
38 4 0.96144 4.74138 12.5594 17.1319
41 4 1.23673 4.79077 10.8442 13.1775
42 4 0.969764 1.5781 13.1344 15.0965
43 4 1.21376 2.90522 12.8463 11.9033
73 1 -0.632903 -1.84006 10.2485 15.4888
81 1 -0.675134 3.18507 9.59056 16.6573
83 1 -0.687816 1.12025 12.5331 11.5376
116 3 -0.805165 0.487188 9.2753 14.1913
117 3 -0.762344 -3.07287 12.3182 11.1926
118 3 -0.759618 -1.22546 10.9652 12.7685
238 2 0.169582 -1.44852 9.45464 16.2006
148 3 -0.827715 4.82888 9.572 12.2253
149 3 -0.789415 0.445861 12.0367 14.9685
150 3 -0.800843 1.23729 14.5406 14.5104
151 3 -0.825427 3.37049 11.6279 13.3244
152 3 -0.819686 3.09086 14.4873 12.5311
320 4 0.909613 -3.89488 13.6337 15.6405
173 3 -0.775656 5.77517 8.77787 15.4382
182 3 -0.816952 3.85626 12.4879 10.5764
334 2 0.189352 -1.90698 14.3381 12.5755
26 4 1.46051 2.2737 15.5052 13.4339
321 1 -0.6498 -2.93318 12.8548 17.0437
200 2 -0.0270802 -0.703807 11.421 10.1123
335 2 0.284348 -0.355088 14.9082 13.5673
201 2 0.0493837 -2.26524 9.59284 10.6678
208 2 -0.00161324 2.90532 9.16178 13.0414
210 2 0.0954139 5.00724 10.0504 14.7311
211 2 0.06335 3.11992 12.508 14.708
212 2 -0.0427265 3.49352 11.5556 16.5987
213 2 -0.0607065 1.96243 13.298 16.6624
13 4 0.950697 1.40607 8.46638 13.2387
237 2 0.175986 -2.23468 11.2364 16.0427
33 4 1.34375 2.41226 8.02809 9.15096
207 2 -0.0139991 1.073 8.96646 9.62849
262 2 0.166303 2.9038 10.0215 15.6682
266 2 0.125192 0.859151 11.5613 10.8435
267 2 0.151199 0.90032 13.5231 10.9147
268 2 0.2033 0.564033 12.5101 12.587
198 2 -0.061218 -2.96642 14.4948 9.62051
154 3 -0.770964 2.69887 14.7339 9.01144
323 3 -0.753275 -3.2966 14.8676 14.9153
333 1 -0.669185 -1.27115 15.2247 12.9167
261 2 0.125575 2.67654 8.5407 16.7992
196 2 -0.050335 0.91745 8.59535 11.6901
70 1 -0.635623 -2.24959 9.01022 9.20611
233 2 0.125183 1.14862 10.8049 9.74059
202 2 0.000858557 1.62671 12.2465 8.83121
231 2 0.157517 -1.64878 7.98618 9.25079
71 1 -0.676545 0.509605 10.6202 8.73498
354 2 0.235422 14.7179 5.3154 0.690233
47 4 0.718899 13.8899 3.76818 5.70874
51 4 1.14112 11.1513 4.15466 1.26302
52 4 1.44886 7.42724 6.84545 3.96909
54 4 0.947143 11.7376 5.75759 7.08354
361 2 0.15167 14.6848 0.869643 1.53838
66 1 -0.634166 15.1075 3.88564 2.79696
76 1 -0.673069 8.84457 3.07563 5.85602
85 1 -0.621827 13.4679 2.1425 5.75926
89 1 -0.662105 10.7456 4.47115 3.12251
90 1 -0.652564 11.0998 1.71878 7.7686
91 1 -0.642973 10.2972 4.83141 8.20195
162 3 -0.784449 11.0151 2.46743 0.92099
163 3 -0.762829 12.9892 4.67478 0.954141
164 3 -0.794669 7.31737 5.01617 3.63976
166 3 -0.806585 10.021 5.10959 0.450209
176 3 -0.832535 8.46463 7.30275 0.0942798
167 3 -0.767546 12.8121 4.77935 6.38273
352 2 0.293417 13.0779 4.05974 0.118361
222 2 0.152725 15.3692 2.73211 2.83498
171 3 -0.805164 9.04451 7.03425 4.72928
172 3 -0.747195 11.9559 7.06656 8.08205
285 2 0.167683 11.6351 0.78968 7.35442
214 2 0.0484345 10.0308 5.57664 6.46969
343 2 0.0234329 15.0438 4.53256 4.34443
246 2 0.175453 9.38035 2.11917 5.50156
247 2 0.158521 9.40307 3.6799 6.71083
248 2 0.219152 8.54149 3.7787 4.95862
270 2 -0.00339497 14.9202 2.93448 6.85979
271 2 0.136355 13.0877 2.05865 4.50779
272 2 0.187862 12.6617 1.92588 6.53293
282 2 0.170606 11.1546 3.50956 3.5182
283 2 0.220807 9.58299 4.57648 3.26218
284 2 0.20465 11.29 5.38916 3.44722
165 3 -0.873717 6.24323 7.15567 4.95736
286 2 0.146627 11.8116 2.54218 8.15643
287 2 0.174724 10.2195 2.18785 7.13683
346 2 0.0769484 7.36167 4.89491 0.356353
289 2 0.165525 10.5463 3.66363 7.97879
351 2 0.242734 14.205 4.25248 2.10137
219 2 0.0434807 14.7758 0.979289 5.94782
290 2 0.226372 9.24259 5.0982 8.05185
168 3 -0.779656 7.30948 6.4668 8.43581
241 2 0.159293 9.16617 0.870048 3.70291
355 2 0.264004 12.3708 7.61212 7.26023
339 3 -0.78498 12.3143 0.281985 0.24165
193 2 0.147208 16.582 1.18872 0.270992
170 3 -0.74558 11.6042 7.65772 4.56971
6 4 1.24284 15.5617 2.88415 15.3443
296 2 0.175638 7.98299 7.32688 16.9001
46 4 1.11579 10.505 1.08833 9.55531
350 2 0.193729 16.6932 3.43156 16.7407
49 4 1.35226 10.6617 2.42776 15.5951
50 4 1.06452 15.7648 2.13412 11.0215
277 2 0.174809 12.911 1.73867 10.5197
55 4 1.30331 7.43612 7.41251 9.7032
58 4 1.08728 9.7733 6.6103 11.6371
86 1 -0.665447 11.4807 3.66903 14.3969
45 4 1.41944 13.4857 2.37138 17.1425
88 1 -0.631847 14.4264 3.21982 10.663
94 1 -0.644014 11.4971 6.25312 10.9269
95 1 -0.688003 9.14151 5.61613 13.1368
153 3 -0.874916 14.0873 3.10508 15.8091
156 3 -0.838761 15.9231 1.41177 14.6906
302 2 0.172773 8.82215 6.19676 13.9966
288 2 0.1891 10.7437 5.25625 9.28293
158 3 -0.7541 11.8197 1.62702 16.5393
161 3 -0.804981 15.437 1.17264 12.2465
160 3 -0.813361 17.168 2.44459 10.3305
300 2 0.143684 9.98532 4.78854 13.5208
174 3 -0.797545 8.70677 6.89391 10.4668
205 2 -0.0134691 9.31006 3.95282 12.0824
273 2 0.229831 12.5808 3.69299 14.5393
274 2 0.138597 11.0767 4.70791 14.7173
275 2 0.163435 11.1897 3.37534 13.2915
93 1 -0.676997 8.07964 7.18057 15.7579
279 2 0.162981 13.5721 3.25165 11.4903
280 2 0.048654 14.4786 1.98465 9.59171
281 2 0.171366 14.7561 4.18822 10.2126
347 2 -0.0252669 10.7638 6.56724 15.7381
109 3 -0.794353 16.6699 3.96003 15.6767
294 2 0.165565 9.09594 7.56751 15.3959
297 2 0.269346 11.6841 6.55498 9.79707
298 2 0.125689 11.3712 5.11807 11.0819
299 2 0.191638 12.2356 6.7427 11.6201
155 3 -0.811557 9.58671 2.24102 10.2803
53 4 0.986905 10.8414 6.65293 17.3788
87 1 -0.650688 12.1574 0.821503 10.4792
44 4 1.32414 6.31219 13.8691 1.02841
59 4 1.29504 8.12761 8.32885 1.36281
60 4 1.32223 5.72997 12.518 3.83993
310 2 0.201956 5.91816 10.0022 4.17912
63 4 0.873913 7.70904 14.0498 6.00025
340 3 -0.73037 9.30062 11.5054 0.274904
362 2 0.198324 8.25255 14.2667 2.57851
92 1 -0.651208 9.82071 9.58536 5.23155
96 1 -0.663906 9.81746 9.19739 1.93464
97 1 -0.618143 11.4515 11.6715 3.16263
98 1 -0.674075 6.53087 10.7692 3.65186
306 2 0.164723 11.778 11.1594 2.13465
177 3 -0.793899 5.73296 13.2353 2.31623
363 2 0.250248 9.01443 12.6873 6.31156
179 3 -0.776585 7.36365 9.72389 1.00513
311 2 0.140544 7.35893 12.71 8.55785
183 3 -0.735056 9.2432 13.6911 6.09818
184 3 -0.779405 6.72984 13.3951 4.91228
217 2 0.0394632 5.21273 10.0497 2.38147
178 3 -0.817252 4.31309 12.381 4.49167
360 2 0.192858 3.16867 14.716 2.42902
220 2 -0.0169303 7.01812 14.0462 7.54625
336 1 -0.660205 2.52217 14.2064 1.60474
291 2 0.180691 10.4832 10.4977 4.35889
292 2 0.147473 10.0671 9.6841 6.3669
293 2 0.16636 8.67213 9.48527 5.02065
303 2 0.258958 9.72081 10.148 1.26475
304 2 0.169817 10.5441 8.40623 1.57813
305 2 0.194465 9.80333 9.37232 3.04579
218 2 0.0536462 5.23798 13.6759 8.47872
307 2 0.181581 10.4261 12.2587 3.23227
308 2 0.163886 7.49343 11.0378 4.26661
309 2 0.262506 6.87035 10.3509 2.52642
180 3 -0.769475 6.9176 12.681 0.169056
269 2 0.184765 8.55491 14.4099 0.740499
337 2 0.263751 2.58237 14.8269 0.568704
194 2 0.109414 13.0815 7.74932 3.91261
56 4 1.13453 10.3071 7.87216 5.03463
175 3 -0.869483 7.42957 7.68135 2.64822
84 1 -0.654947 7.90765 14.7082 1.57336
230 2 0.184116 14.2915 8.98508 8.67381
319 2 0.209178 7.89615 12.0654 16.1627
48 4 1.2793 8.57887 15.3783 13.6438
64 4 0.995612 9.62664 9.44123 13.0962
65 4 1.19516 6.6456 12.9376 14.3735
187 3 -0.785837 5.94172 11.9646 13.1257
99 1 -0.656916 6.74972 13.1963 9.32865
100 1 -0.667953 10.3738 11.1224 12.6109
101 1 -0.678179 8.12391 11.9695 15.0581
186 3 -0.7378 10.1853 8.14676 12.3697
185 3 -0.772348 8.1773 9.22321 13.8203
62 4 1.07806 4.97113 12.1474 9.51577
364 2 0.124651 11.5374 13.4274 15.2009
188 3 -0.754229 7.24759 14.5329 13.8368
199 2 -0.0428917 12.3559 13.1055 9.8598
326 2 0.166365 12.5398 11.618 14.9395
348 2 0.00270582 9.9425 11.7182 15.8088
365 2 0.180795 12.7718 12.9578 13.5932
221 2 0.0102811 10.8397 10.0321 14.1944
239 2 0.177915 15.0183 9.7776 14.7982
344 2 -0.030065 9.89159 14.325 13.5597
278 2 0.172914 5.77978 14.8093 9.98809
215 2 -0.00422428 7.72697 8.90361 8.9762
322 1 -0.647618 12.4777 12.7116 14.7136
318 2 0.234728 8.16592 10.819 14.6671
312 2 0.0889295 6.61254 11.9486 10.4556
313 2 0.16937 7.33215 14.0009 9.81895
314 2 0.160881 10.3293 11.8203 13.4834
315 2 0.132057 9.38766 11.2672 11.8075
316 2 0.172706 11.3535 11.1113 12.0571
317 2 0.1259 8.9445 12.7483 14.6152
189 3 -0.792194 5.58233 12.859 15.851
357 2 0.16095 14.2439 11.821 17.346
276 2 0.238347 4.74394 15.4957 11.5491
61 4 1.11371 10.0578 12.1164 17.4572
ITEM: TIMESTEP
100
ITEM: NUMBER OF ATOMS
365
ITEM: BOX BOUNDS xy xz yz pp pp pp
-6.9345999999999997e+00 1.9672432399999998e+01 -6.9345999999999997e+00
0.0000000000000000e+00 1.5863300000000001e+01 2.0580323999999983e+00
0.0000000000000000e+00 1.7464200000000002e+01 8.7949999999999995e-01
ITEM: ATOMS id type q x y z
224 2 0.128603 -1.26901 5.83166 4.40001
2 4 1.23954 1.0197 2.03923 0.846074
4 4 0.995279 2.78892 4.14241 5.4277
8 4 0.814847 -0.953286 4.3226 2.07592
10 4 1.2682 1.31398 5.31725 7.917
256 2 0.14912 3.67736 5.00592 2.49752
21 4 1.39366 4.69755 2.12457 4.60025
22 4 1.46922 6.40009 2.27145 0.0964786
25 4 1.06269 6.95295 2.84181 6.39638
29 4 1.25799 5.98996 4.39811 2.80783
32 4 1.51001 5.92594 5.49815 7.96472
34 4 1.50715 5.01241 7.54364 5.93735
68 1 -0.679255 -0.919898 6.21044 5.47861
74 1 -0.647377 7.75975 0.924937 3.83197
78 1 -0.665306 1.54857 6.87913 2.85574
79 1 -0.69327 4.56711 5.686 2.77174
102 3 -0.761285 1.8351 1.32725 1.94769
105 3 -0.782758 -0.0600169 3.19022 1.49811
107 3 -0.841647 2.03985 4.73021 6.61434
353 2 0.131386 -1.55575 6.67797 0.936665
255 2 0.242526 4.22509 6.45156 3.55333
119 3 -0.79415 4.22078 0.884854 3.62736
120 3 -0.759626 3.25589 2.60982 5.60006
121 3 -0.758894 6.69689 0.851673 1.05473
123 3 -0.79409 6.05056 1.69892 5.80412
129 3 -0.877485 5.284 3.2913 3.75226
130 3 -0.763828 6.29791 3.6445 1.07674
133 3 -0.831434 6.46858 4.2872 7.04176
240 2 0.224364 7.19485 1.88686 3.63032
136 3 -0.83677 4.90794 6.43329 7.03046
191 2 0.0186273 3.86685 5.18717 4.55363
192 2 -0.0418163 1.819 4.1744 4.08829
257 2 0.159845 5.02272 6.3205 1.89084
204 2 0.0334178 8.13659 2.17341 7.51279
206 2 -0.00802986 0.138892 5.52791 2.77515
135 3 -0.811778 3.56975 7.66485 4.73747
67 1 -0.651042 -1.84684 5.55788 0.790379
134 3 -0.829588 1.98662 6.57187 8.65746
225 2 0.148889 -1.62448 5.96191 6.32462
226 2 0.153219 0.1649 5.86861 5.57487
1 4 1.3207 3.06466 0.202099 2.75234
260 2 0.179794 3.48163 5.95439 1.0728
195 2 -0.00644261 -0.198141 5.85022 7.31642
252 2 0.126946 1.6525 5.96434 3.55718
253 2 0.176719 2.01153 6.62101 1.83212
254 2 0.168447 0.509422 7.26456 2.70052
259 2 0.163075 1.73365 5.7658 0.238773
80 1 -0.660191 2.82923 6.01809 0.0922354
242 2 0.208148 7.51078 0.395235 4.86066
349 2 0.294734 5.0983 0.201855 1.06889
330 1 -0.660628 -0.0382223 0.776477 0.00852714
3 4 1.2656 0.937573 2.96499 9.92274
5 4 1.35081 4.40784 1.08158 14.1152
7 4 1.44579 3.14351 3.17752 12.2236
12 4 1.06823 1.68207 5.42853 14.1963
345 2 0.111115 0.381061 4.65639 15.037
24 4 1.26392 5.49605 3.61302 10.5113
216 2 0.00417186 6.37455 7.05014 13.3539
27 4 1.35268 5.61768 3.27168 16.1741
28 4 1.22802 8.39808 2.6827 11.4552
258 2 0.175449 5.37564 6.2215 16.7192
265 2 0.14583 4.38778 7.34414 13.4111
69 1 -0.619927 2.92502 5.73929 15.5875
77 1 -0.681331 5.94371 4.76654 15.0163
106 3 -0.82987 0.864388 4.18622 9.00023
82 1 -0.650635 4.62959 6.73741 12.4767
103 3 -0.836247 2.13472 2.89908 10.9451
104 3 -0.817594 3.38737 1.88212 13.1511
358 2 0.194643 5.85776 1.00937 12.2569
295 2 0.169887 7.63466 5.90607 15.709
110 3 -0.771284 2.44395 4.36135 13.2333
111 3 -0.825968 1.39436 6.86619 13.7554
122 3 -0.788376 4.70561 3.90497 11.85
124 3 -0.799416 5.26857 2.15969 15.0553
125 3 -0.811704 6.97187 3.09456 17.0901
126 3 -0.759716 4.32342 3.5892 17.049
127 3 -0.832858 7.00829 3.29324 10.981
128 3 -0.818116 8.20606 1.53054 12.5936
132 3 -0.799144 5.23426 4.70579 9.33317
301 2 0.16801 8.24276 4.85757 12.4392
157 3 -0.816212 10.07 1.41394 14.4928
264 2 0.250033 3.66569 6.19549 12.0321
203 2 -0.0359788 4.90043 2.22396 9.91228
263 2 0.201673 5.52576 6.01177 12.6882
227 2 0.165847 2.79043 6.89691 15.6124
228 2 0.201103 4.07286 5.34237 15.3308
229 2 0.172343 2.45881 5.17225 16.4724
332 2 0.184034 2.57076 1.63034 16.4666
249 2 0.169702 7.05762 4.53868 14.7059
250 2 0.150884 5.82937 5.79199 15.3881
251 2 0.220331 5.11958 4.4522 14.2217
223 2 0.166765 0.816164 6.02194 17.3618
169 3 -0.802974 6.30269 7.83029 10.4961
190 2 -0.0200042 1.28539 1.65438 9.00428
137 3 -0.818434 3.42528 7.94113 10.4006
296 2 0.167912 7.52072 7.65516 16.5367
231 2 0.149822 -1.60158 7.94129 9.43572
11 4 1.2741 -0.684675 8.06 5.22858
14 4 1.09407 -4.89841 12.449 3.91366
15 4 1.03732 -1.37262 9.80123 7.91403
17 4 1.29296 -2.34149 12.2461 5.89172
23 4 1.0422 1.98883 13.6084 7.97095
30 4 1.36556 2.28588 8.29471 3.95336
36 4 1.27173 3.60982 9.88931 1.76112
37 4 1.27955 0.123726 12.2574 3.8909
39 4 1.51748 4.08068 9.96539 7.35932
40 4 1.49848 2.95686 12.1904 5.545
112 3 -0.804148 -4.51552 13.8962 3.51215
72 1 -0.661743 -2.71898 14.0479 6.12351
75 1 -0.66779 0.479532 14.4451 7.15122
113 3 -0.770268 -1.02366 8.98579 6.65338
114 3 -0.707377 -3.80868 11.6753 4.93872
115 3 -0.782368 -2.2247 11.4886 7.30469
131 3 -0.798684 0.818283 8.27532 4.7802
138 3 -0.811163 2.66364 9.59926 3.1185
139 3 -0.833325 3.51505 8.61942 0.820945
140 3 -0.80634 -0.11044 13.4488 2.79657
141 3 -0.810274 -1.11939 12.2686 4.87248
142 3 -0.850956 3.38435 11.1678 0.880712
143 3 -0.869334 3.14659 8.94148 8.16889
144 3 -0.80242 5.19615 9.1621 6.48405
145 3 -0.813131 1.50914 12.2595 4.63233
146 3 -0.799648 3.02146 10.737 6.21372
147 3 -0.799804 3.04918 13.2811 6.83349
338 2 0.220372 2.7288 13.2661 1.54015
245 2 0.204388 0.516175 14.6717 6.04408
209 2 0.00556904 0.10743 10.8385 2.97817
356 2 0.26009 -2.00759 14.6415 5.49751
108 3 -0.762209 -1.92496 8.22377 4.06895
235 2 0.124442 -2.39232 14.1697 7.21941
236 2 0.204123 -3.78025 14.4237 6.04579
181 3 -0.838606 4.78509 11.06 8.48103
197 2 0.0667128 -2.92922 12.2223 8.51068
232 2 0.202332 1.26567 10.2802 8.03994
9 4 0.601542 -3.17239 7.90794 3.17173
329 2 0.161315 -2.85543 13.4991 1.43098
327 1 -0.651333 -2.92227 14.6283 1.22495
20 4 1.06987 0.673815 14.7597 2.35262
359 2 0.141164 0.704641 9.47887 0.0737408
244 2 0.129137 -0.255753 13.612 7.37452
234 2 0.114974 -0.118589 11.6492 8.45123
243 2 0.165812 0.435322 15.3563 7.79088
328 2 0.18644 -3.58825 14.936 0.354076
324 2 0.151619 -4.24307 11.9043 0.109334
16 4 0.548391 -3.45518 13.0302 9.96764
18 4 1.20187 -0.640333 10.507 14.3242
19 4 0.87309 -1.70777 11.3041 11.2543
31 4 1.01485 4.95814 8.77817 17.0705
35 4 1.29013 4.82617 8.11797 11.241
38 4 0.993765 4.87514 12.553 16.9968
41 4 1.24548 4.8691 10.9026 13.1664
42 4 1.00144 1.39883 13.0782 15.0687
43 4 1.24474 3.06557 12.9305 11.9414
73 1 -0.641241 -2.03267 10.2439 15.496
81 1 -0.666658 3.21863 9.54492 16.9042
83 1 -0.704439 1.25133 12.6347 11.4945
116 3 -0.806418 0.182582 9.16851 14.3041
117 3 -0.749308 -2.93418 12.3076 11.2935
118 3 -0.751469 -1.22386 10.9483 12.7283
238 2 0.173789 -1.5549 9.39285 16.1457
148 3 -0.812785 4.9577 9.68056 12.1815
149 3 -0.777153 0.445054 11.9795 14.8803
150 3 -0.81284 1.04517 14.4373 14.4205
151 3 -0.82241 3.41979 11.6171 13.2961
152 3 -0.816559 3.16952 14.4293 12.6456
320 4 0.926854 -3.86232 13.6063 15.6347
173 3 -0.783497 5.91076 8.99185 15.2949
182 3 -0.837222 3.93839 12.6145 10.5327
334 2 0.196366 -1.76383 14.2694 12.3513
26 4 1.42385 2.19297 15.5158 13.5216
321 1 -0.642201 -3.20496 12.7581 17.1837
200 2 -0.0399012 -0.541205 11.7389 10.1352
335 2 0.296406 -0.370884 14.7949 13.4947
201 2 0.0758367 -2.04002 9.73652 10.4142
208 2 -0.0151181 2.54531 9.08752 12.9643
210 2 0.0909303 5.06731 10.1888 14.6884
211 2 0.0651788 2.90203 12.4796 14.616
212 2 -0.0344556 3.73417 11.3684 16.4306
213 2 -0.0680625 1.83279 13.2107 16.7095
13 4 0.951678 1.09818 8.33223 13.3329
237 2 0.171084 -2.40067 11.1876 16.1293
33 4 1.34437 2.44495 7.99561 9.10418
207 2 -0.0218068 0.99158 8.85173 9.5345
262 2 0.14095 3.05927 9.77251 15.8037
266 2 0.138327 1.21919 11.7017 10.8431
267 2 0.156418 0.999073 13.5931 10.957
268 2 0.209277 0.624164 12.5304 12.4367
198 2 -0.0619182 -2.83339 14.5198 9.86805
154 3 -0.749031 2.62654 14.7545 8.88039
323 3 -0.795473 -3.22319 14.8032 14.9093
333 1 -0.660415 -1.33972 15.1344 12.9136
261 2 0.116987 2.68339 8.4328 17.164
196 2 -0.0427556 0.406075 8.30702 11.837
70 1 -0.675593 -2.14414 8.97956 9.30048
233 2 0.108925 0.799367 10.5887 9.89993
202 2 -0.00393778 1.65171 12.1466 8.84658
71 1 -0.668012 0.389238 10.5918 8.7855
341 2 -0.00960467 4.00433 13.9903 17.3835
354 2 0.244644 14.6006 5.29854 0.810708
47 4 0.710069 14.105 3.74079 5.77648
51 4 1.20149 11.1473 4.1495 1.08995
52 4 1.4546 7.56594 6.70721 4.0672
54 4 0.9187 11.8208 5.77344 7.24745
361 2 0.147648 14.722 0.751106 1.05288
66 1 -0.660379 15.156 3.69456 2.97837
76 1 -0.65955 8.78366 2.94989 5.84343
85 1 -0.605083 13.5349 2.11203 5.8385
89 1 -0.644416 10.7426 4.56521 2.8732
90 1 -0.643234 11.0751 1.73906 7.87299
91 1 -0.656472 10.2117 4.80167 8.17075
162 3 -0.751417 10.8808 2.54464 0.974457
163 3 -0.774583 12.932 4.76479 1.00366
164 3 -0.818612 7.27685 5.10464 3.48477
166 3 -0.790115 9.95696 5.0066 0.294068
176 3 -0.834616 8.49998 7.19743 0.21775
167 3 -0.724174 13.0363 4.74587 6.45985
342 2 -0.00350171 14.7504 6.58526 2.14513
222 2 0.1738 15.3837 2.61137 2.96631
171 3 -0.836011 9.11727 6.82136 4.67017
172 3 -0.754243 12.0913 7.16974 8.04187
285 2 0.164638 11.7613 1.01857 7.32417
214 2 0.0757447 10.1667 5.67187 6.52044
343 2 0.0597452 15.1002 4.29642 4.22359
246 2 0.170687 9.47733 2.12471 5.5369
247 2 0.156106 9.33447 3.70405 6.75743
248 2 0.19465 8.44553 3.60133 4.87483
270 2 -0.000903701 15.1366 2.71299 6.7248
271 2 0.137716 13.0623 2.05042 4.65155
272 2 0.176183 12.5922 2.02364 6.52996
282 2 0.194453 9.93804 3.80806 3.13642
283 2 0.216312 10.3948 5.64358 2.96127
284 2 0.17858 11.7237 4.34288 3.33416
165 3 -0.81803 6.33533 7.30865 5.04423
286 2 0.136831 11.7859 2.55594 8.3458
287 2 0.175233 10.332 2.20291 7.11705
346 2 0.0807935 7.17985 4.89146 0.334005
289 2 0.171806 10.4322 3.62983 8.13403
351 2 0.21638 14.3098 4.02 2.25192
219 2 0.0398215 14.8266 0.875072 6.09039
290 2 0.21844 9.05962 4.92156 8.21939
168 3 -0.813778 7.24734 6.54344 8.38465
241 2 0.135347 8.93212 1.06963 3.73917
355 2 0.293428 12.2234 7.6012 7.05399
339 3 -0.799063 12.0996 0.0413267 0.240869
175 3 -0.809738 7.50898 7.60672 2.69849
170 3 -0.762658 11.6561 7.46632 4.90511
352 2 0.314814 13.1015 4.36639 0.0772741
6 4 1.24436 15.5919 2.82209 15.4888
159 3 -0.829562 9.60504 3.44208 16.3758
46 4 1.07768 10.4679 1.0481 9.55358
350 2 0.182234 17.0747 3.13586 16.521
49 4 1.30227 10.72 2.58703 15.4583
50 4 1.06847 15.6596 2.05827 10.9902
277 2 0.182603 12.9201 1.54487 10.5863
55 4 1.27535 7.61257 7.26858 9.73737
58 4 1.10893 9.87236 6.61435 11.641
86 1 -0.687916 11.566 3.93013 14.4006
45 4 1.41365 13.3942 2.20455 17.1589
88 1 -0.629381 14.2391 3.07049 10.7523
94 1 -0.652373 11.5409 6.07795 10.8266
95 1 -0.678124 9.10974 5.49265 13.0488
153 3 -0.828442 14.2034 3.27935 16.0604
156 3 -0.84694 15.9151 1.49506 14.7268
302 2 0.167022 8.71089 6.06897 13.9144
288 2 0.178371 10.7109 5.30785 9.17588
158 3 -0.780803 12.0084 1.85493 16.3335
161 3 -0.814993 15.3505 1.05389 12.1939
160 3 -0.810504 17.0426 2.61774 10.5927
300 2 0.147577 9.87456 4.75941 13.4848
174 3 -0.826305 8.69123 6.46447 10.6409
205 2 -0.00899238 9.50586 3.87292 12.0046
273 2 0.232013 12.6327 4.00688 14.6773
274 2 0.147466 11.0076 4.93107 14.6995
275 2 0.152069 11.4576 3.71914 13.3456
93 1 -0.694266 7.90855 7.04256 15.5856
279 2 0.162809 13.3452 3.00995 11.488
280 2 0.0278545 14.4353 1.86444 9.51928
281 2 0.171604 14.5143 4.09509 10.4699
347 2 -0.0291595 10.5808 6.53193 15.7406
109 3 -0.767035 16.7493 3.93873 15.7103
294 2 0.132633 9.00284 7.1734 15.319
297 2 0.245912 11.7953 6.55183 9.69473
298 2 0.145398 11.4933 4.98798 10.8519
299 2 0.175339 12.3269 6.48946 11.5702
155 3 -0.786935 9.35913 2.15632 10.2624
53 4 1.00136 10.701 6.58585 17.3599
87 1 -0.668138 12.1743 0.678674 10.4313
193 2 0.139703 18.6297 2.31975 17.4549
44 4 1.31849 6.27562 13.7777 0.934095
59 4 1.22289 8.19727 8.31768 1.39084
60 4 1.28815 5.67923 12.5832 3.88776
310 2 0.211544 5.78167 10.2144 4.21302
63 4 0.858104 7.89354 13.9914 6.03787
340 3 -0.73685 9.36548 11.5078 0.0961223
362 2 0.20196 7.41421 14.9506 2.63244
92 1 -0.676526 9.88552 9.56065 5.19722
96 1 -0.668397 9.84932 9.13649 1.76552
97 1 -0.637709 11.4561 11.6688 3.1926
98 1 -0.648776 6.50503 10.8933 3.65611
306 2 0.170461 11.6557 11.7014 2.01265
177 3 -0.771308 5.63524 13.2228 2.30911
363 2 0.254857 9.28077 12.7161 6.34746
179 3 -0.765724 7.43244 9.97605 0.992253
311 2 0.131604 7.45264 12.5062 8.5618
183 3 -0.737762 9.45123 13.7074 6.15474
184 3 -0.766103 6.91805 13.4219 4.87786
217 2 0.0434742 5.20417 10.0245 2.43337
178 3 -0.822018 4.28559 12.4033 4.55089
360 2 0.17843 2.97666 14.8814 2.27725
220 2 -0.013324 7.10969 13.9215 7.65448
336 1 -0.686586 2.40542 14.3041 1.45986
291 2 0.176322 10.5401 10.3588 4.41708
292 2 0.142544 10.2004 9.52981 6.4022
293 2 0.171935 8.80614 9.63859 5.07996
303 2 0.257858 9.73843 10.1436 1.14689
304 2 0.164032 10.6355 8.44427 1.37929
305 2 0.162423 9.94009 9.33075 2.9138
218 2 0.0672132 5.38486 13.6589 8.40592
307 2 0.178169 10.4514 12.0694 3.62286
308 2 0.167545 7.43658 11.1233 4.40306
309 2 0.267852 6.85167 10.5783 2.4698
325 2 0.125799 11.4639 12.8337 0.348396
269 2 0.193117 8.63557 14.1014 1.50697
337 2 0.242615 2.48948 14.7471 0.435661
84 1 -0.672497 7.75121 14.7611 1.5863
56 4 1.12907 10.3058 7.81394 4.88193
331 2 0.158899 10.5896 14.6966 0.578056
194 2 0.117233 12.9308 7.77548 4.07414
319 2 0.211324 7.97607 11.989 16.0376
48 4 1.26101 8.46398 15.3872 13.6609
64 4 0.976274 9.60577 9.36639 13.0062
65 4 1.29893 6.6093 13.0362 14.4623
187 3 -0.769434 5.97695 12.0638 12.989
99 1 -0.649327 6.81094 13.0856 9.33796
100 1 -0.641914 10.3309 11.0092 12.4415
101 1 -0.684851 8.23011 12.0143 14.9582
230 2 0.196452 14.4401 8.83995 8.97225
185 3 -0.811704 8.02338 9.24639 13.6393
62 4 1.1408 4.99972 12.182 9.52367
364 2 0.122529 11.6407 13.1609 15.1188
188 3 -0.800358 7.22555 14.4798 14.16
199 2 -0.0425929 12.5162 13.1972 9.90773
326 2 0.161115 12.9396 11.5532 14.8003
348 2 0.00160126 9.88278 11.3593 15.7073
365 2 0.201466 12.699 12.9195 13.4421
221 2 0.00898047 10.7156 10.1525 14.1498
239 2 0.170708 14.7538 9.87185 14.7558
344 2 -0.0214411 9.72564 14.3192 13.6043
278 2 0.178455 5.7898 14.6964 9.93726
215 2 -0.00657927 8.5123 8.64256 9.36747
322 1 -0.631232 12.6622 12.6532 14.5083
318 2 0.2268 8.14433 11.0021 14.4271
312 2 0.100793 6.62017 11.8417 10.5526
313 2 0.161651 7.41903 13.9317 9.7378
314 2 0.151215 10.3115 11.8625 13.216
315 2 0.127606 9.28645 11.0484 11.585
316 2 0.170932 11.3777 10.9888 11.9276
317 2 0.142783 9.09613 12.6959 14.5822
189 3 -0.867566 5.68945 12.8471 15.7326
61 4 1.13713 10.09 12.1129 17.3651
276 2 0.228005 4.68081 15.4105 11.4328
357 2 0.167983 13.9959 11.7099 17.2347
180 3 -0.769102 8.9987 13.5559 17.4574
57 4 1.02687 7.05651 8.28574 14.4056
186 3 -0.787602 10.2364 8.12152 12.2636
ITEM: TIMESTEP
200
ITEM: NUMBER OF ATOMS
365
ITEM: BOX BOUNDS xy xz yz pp pp pp
-6.9345999999999997e+00 1.9642464799999999e+01 -6.9345999999999997e+00
0.0000000000000000e+00 1.5863300000000001e+01 2.0280647999999992e+00
0.0000000000000000e+00 1.7464200000000002e+01 8.7949999999999995e-01
ITEM: ATOMS id type q x y z
224 2 0.135246 -1.3018 5.74927 5.0275
2 4 1.18601 1.08458 2.13715 0.799051
4 4 0.978519 2.56323 4.07589 5.34548
8 4 0.750488 -1.02556 4.51865 2.09343
10 4 1.31837 1.51336 5.34264 8.0982
256 2 0.13004 3.58127 4.94852 2.55944
21 4 1.45861 4.71726 2.1316 4.69894
22 4 1.51925 6.31189 2.39258 0.0905782
25 4 1.1043 7.00208 2.78697 6.60448
29 4 1.29788 5.89019 4.35047 2.84326
32 4 1.53249 5.89737 5.39449 7.95746
34 4 1.53918 5.14871 7.54785 5.84128
68 1 -0.682099 -0.74619 6.23699 5.90258
74 1 -0.654672 7.98559 0.809005 3.83626