ITEM: TIMESTEP
0
ITEM: NUMBER OF ATOMS
365
ITEM: BOX BOUNDS xy xz yz pp pp pp
-6.9345999999999997e+00 1.9702400000000001e+01 -6.9345999999999997e+00
0.0000000000000000e+00 1.5863300000000001e+01 2.0880000000000001e+00
0.0000000000000000e+00 1.7464200000000002e+01 8.7949999999999995e-01
ITEM: ATOMS id type q x y z
4 4 1.04443 2.56991 4.38373 5.83618
8 4 0.718224 -0.884917 4.05366 1.39487
10 4 1.2669 1.2927 5.17737 8.51312
68 1 -0.668082 -1.52536 6.57242 6.81269
78 1 -0.648715 1.45186 6.2325 3.15176
102 3 -0.764386 2.06116 1.21058 1.42622
105 3 -0.755602 0.229822 3.13547 0.832641
107 3 -0.863966 1.81376 4.61728 7.13186
192 2 -0.0335594 1.54495 4.82491 4.58424
206 2 -0.00544933 -0.0968607 5.41722 2.19323
226 2 0.145312 -0.54339 6.02818 6.52761
252 2 0.132114 0.46674 5.91706 3.77808
253 2 0.135506 2.37604 5.48997 3.20737
254 2 0.180324 1.31903 6.94306 2.17967
195 2 0.00357064 -0.256417 5.83107 8.22541
225 2 0.172663 -1.59983 7.1696 7.83561
2 4 1.1617 1.40707 1.99138 0.223684
354 2 0.139914 -1.64646 5.77022 0.134353
190 2 -0.0157638 1.45208 1.50353 8.29992
1 4 1.27476 3.26521 0.415081 2.50907
356 2 0.257712 4.82946 0.31594 6.08933
120 3 -0.850597 3.34827 3.10186 5.56369
260 2 0.199422 3.46406 5.78071 0.900295
349 2 0.270905 5.41175 0.275588 1.19684
257 2 0.217886 5.0075 6.84696 3.08412
123 3 -0.783976 5.94111 1.93656 5.75446
121 3 -0.801701 6.98574 1.07422 1.12443
79 1 -0.658215 4.74823 5.957 2.43905
129 3 -0.880761 5.21945 3.79968 3.92837
136 3 -0.810881 5.0205 6.42325 7.04178
135 3 -0.75498 3.45508 7.31203 4.99577
191 2 0.116514 3.45597 5.79195 5.29946
255 2 0.167924 3.62161 5.60389 2.57824
240 2 0.200183 7.2848 1.78596 3.9269
130 3 -0.761751 6.30721 3.67679 1.10376
204 2 0.03663 8.37586 2.18096 7.1012
133 3 -0.883155 6.58911 4.17293 7.30062
256 2 0.155414 5.06583 6.07453 1.29626
21 4 1.44665 4.57624 2.57527 4.65989
119 3 -0.786322 4.03495 1.41136 3.52867
25 4 1.0952 7.03637 3.00316 6.38891
29 4 1.27153 6.01381 4.59577 2.83023
32 4 1.55245 6.11417 5.43621 8.0673
34 4 1.511 5.17371 7.47569 5.87398
74 1 -0.653785 7.96396 0.877385 4.1427
22 4 1.52899 6.58196 2.22861 0.121653
3 4 1.13733 1.27964 2.28215 9.85343
7 4 1.46044 3.31662 2.91327 12.1967
12 4 1.26843 1.76547 5.08771 13.9215
353 2 0.290636 0.388002 5.2245 16.1913
69 1 -0.64776 3.16647 5.34715 15.1556
103 3 -0.796849 3.08105 2.25983 10.7409
104 3 -0.78601 3.50806 1.66055 13.1991
106 3 -0.760012 0.988436 4.00933 9.52826
110 3 -0.79709 2.34238 4.01846 12.8094
111 3 -0.746611 1.7242 7.11989 13.4098
227 2 0.161856 3.18722 6.50919 15.1547
229 2 0.227227 2.7375 4.89844 16.051
193 2 -0.0188736 2.73842 1.69946 16.7139
109 3 -0.725308 0.654968 4.63188 14.6905
33 4 1.3511 2.79851 7.82495 9.21683
134 3 -0.843159 2.13828 6.50551 8.90618
137 3 -0.862334 3.97861 7.7511 10.3086
67 1 -0.623829 0.221632 5.5465 17.4376
261 2 0.14622 2.49601 8.28448 16.873
259 2 0.181134 3.84785 6.43655 17.4219
216 2 0.0279522 6.80199 7.8931 13.2737
124 3 -0.775539 5.58858 1.66616 15.0904
126 3 -0.767217 4.65676 3.6481 16.7764
80 1 -0.63739 4.92519 6.77609 17.337
127 3 -0.818922 6.91939 2.76873 10.4168
228 2 0.203413 4.27138 4.92506 14.9455
132 3 -0.81574 5.3969 4.82047 9.46966
203 2 0.0891974 4.37335 2.26875 9.80322
128 3 -0.8529 8.35573 1.37603 12.0386
249 2 0.166346 7.27076 4.362 14.5479
296 2 0.176975 7.59769 7.47323 16.4631
250 2 0.145782 5.67292 5.40867 14.9829
265 2 0.140811 5.1761 6.99993 13.0448
258 2 0.176468 5.42306 6.4004 16.4152
251 2 0.260837 5.689 4.15644 13.4924
301 2 0.160387 8.04241 5.33323 11.9419
295 2 0.148002 7.10157 6.12279 15.082
263 2 0.15919 6.9619 6.30852 12.3796
264 2 0.264851 5.22662 5.93651 11.4107
24 4 1.26183 5.48473 3.4878 10.3614
27 4 1.31964 5.90693 2.97782 15.8519
28 4 1.2354 8.41297 2.53195 11.0061
77 1 -0.681433 6.1379 4.42467 14.5646
125 3 -0.800993 7.31839 2.89159 16.7454
82 1 -0.636577 5.75547 6.75928 12.0694
122 3 -0.799552 5.02517 3.75361 11.9103
26 4 1.39364 9.31397 0.69669 13.225
14 4 1.07554 -4.62378 12.5793 3.94163
15 4 1.06534 -1.60094 10.3261 8.0241
17 4 1.22715 -2.33174 12.7771 6.16479
72 1 -0.678407 -2.79475 14.5394 6.55394
113 3 -0.788174 -1.32124 9.25346 6.90892
114 3 -0.729064 -3.84762 12.1712 5.37203
115 3 -0.775113 -1.90698 11.8566 7.65123
141 3 -0.809732 -1.22928 12.9077 4.97979
209 2 -0.0278435 -0.821163 11.1323 3.0371
235 2 0.155539 -2.67188 14.5023 7.67709
236 2 0.186366 -3.8688 14.5864 6.18519
327 1 -0.661694 -2.59018 14.716 1.22668
329 2 0.161358 -2.56907 13.6 1.56741
112 3 -0.781283 -4.2178 13.923 3.30987
11 4 1.19385 -1.26608 8.07429 5.69458
328 2 0.192524 -3.25195 14.8264 0.291386
306 2 0.148708 -4.50191 11.091 2.14016
245 2 0.216 -0.473944 14.3238 7.17495
108 3 -0.778747 -2.70715 8.01081 4.61784
37 4 1.29292 -0.190109 12.3815 3.94049
341 2 6.49914e-05 1.72693 13.0353 0.63013
142 3 -0.823259 3.06871 10.9493 1.43594
232 2 0.194887 0.575571 9.65105 8.35198
75 1 -0.663924 -0.0109947 14.2938 8.17501
154 3 -0.767729 2.71537 14.8943 8.61535
138 3 -0.798239 2.12161 8.86056 3.12051
147 3 -0.834045 1.95751 12.9308 6.85955
146 3 -0.7819 3.19655 10.5631 6.1146
178 3 -0.844062 3.503 12.8403 4.66014
145 3 -0.814056 1.07159 11.8068 4.54802
139 3 -0.782127 3.38987 8.36385 0.889285
144 3 -0.843229 5.31965 8.90959 6.442
20 4 1.04545 0.906957 14.9876 2.43198
181 3 -0.842878 4.62195 10.9873 8.25715
23 4 1.08169 1.72264 13.5918 8.22825
36 4 1.20331 3.32226 9.44121 2.10921
39 4 1.55484 4.07504 9.78702 7.22334
40 4 1.51275 2.41163 12.136 5.52695
140 3 -0.793406 0.170074 13.604 2.86369
143 3 -0.849954 3.14302 8.73974 7.97715
131 3 -0.791925 0.346237 7.8349 5.06309
30 4 1.26114 1.76927 7.79849 4.24535
38 4 0.937212 2.37649 11.4848 0.177277
359 2 0.155467 0.578693 8.76256 0.669795
217 2 0.0163965 4.86188 9.30063 2.92504
338 2 0.240732 2.85501 13.1576 2.06955
242 2 0.238676 0.59207 15.1661 4.85837
243 2 0.176884 0.140667 15.3822 8.59943
18 4 1.18784 0.00359035 10.7301 14.6137
19 4 0.922349 -1.85056 10.4216 12.0128
73 1 -0.662286 -0.398722 10.1882 16.3948
118 3 -0.75607 -1.30093 10.7116 13.431
149 3 -0.813791 0.649912 12.2593 14.7227
200 2 -0.0247427 -0.765918 10.9854 10.7992
234 2 0.129153 0.64041 10.796 9.87155
237 2 0.14118 -0.215486 10.9954 17.1693
239 2 0.164366 -1.53934 9.95071 16.2891
321 1 -0.652687 -2.72805 12.3694 17.0306
323 3 -0.772408 -3.03783 14.3411 14.8303
324 2 0.162382 -1.86595 11.5133 16.8697
231 2 0.0888263 -2.53076 9.54674 9.51302
71 1 -0.686294 -0.00380539 10.0245 9.30105
335 2 0.191663 -1.17282 13.8716 12.9197
333 1 -0.670534 -1.24619 14.986 12.5669
233 2 0.110997 -0.253337 9.13794 9.94588
238 2 0.178995 0.258914 9.24066 16.4536
201 2 -0.0346771 -1.58457 8.81578 11.5891
320 4 0.888316 -3.58878 12.9157 15.514
198 2 0.0499454 -3.97577 11.4138 8.8912
334 2 0.173872 -1.86726 15.1108 11.6562
358 2 0.290724 -0.240365 15.4725 12.4332
5 4 1.25319 -2.35575 15.6011 13.9773
244 2 0.151979 -0.505542 13.6296 8.96438
325 2 0.168017 -2.32647 13.3524 17.3989
35 4 1.29948 5.26753 8.27638 11.0239
267 2 0.120883 0.892451 11.8748 10.7393
182 3 -0.829732 4.06718 12.5253 10.502
173 3 -0.782375 5.76544 9.1794 15.4261
208 2 0.0457014 3.49336 9.00326 12.827
210 2 0.0823512 4.63921 10.2136 14.8165
202 2 0.00704776 1.79108 12.4929 9.52168
116 3 -0.801168 1.14255 9.52669 14.0137
266 2 0.210734 0.979289 12.5831 12.5521
212 2 -0.0345713 3.21181 11.2604 17.2371
211 2 0.0736635 3.15866 13.0289 14.4925
189 3 -0.80639 5.24372 12.6184 16.2221
13 4 0.980782 1.86238 8.52864 13.1091
196 2 -0.0538223 1.28287 8.74974 11.5344
207 2 -0.0136295 1.42815 8.7929 9.80403
213 2 -0.0609141 1.87033 13.7423 16.5632
262 2 0.154191 2.7021 9.93849 16.2544
268 2 0.158541 1.14416 13.8638 11.0497
31 4 1.02819 4.84509 8.67976 16.9932
41 4 1.28244 4.78924 10.9774 13.2717
42 4 0.989249 1.60833 13.4769 14.9463
43 4 1.27005 3.21305 13.0933 11.7651
81 1 -0.688437 2.97113 9.2431 17.0808
83 1 -0.679215 1.36604 12.7364 11.4417
152 3 -0.806514 3.39451 14.5966 12.3674
148 3 -0.829448 4.9029 9.70566 12.369
150 3 -0.800334 1.35419 14.8203 14.1802
151 3 -0.832848 3.53209 11.9124 13.1886
51 4 1.24983 11.5254 4.31552 1.31129
52 4 1.42273 7.79119 6.79437 3.76961
76 1 -0.677922 8.72086 3.29376 5.51495
89 1 -0.65877 10.584 4.05435 2.93825
90 1 -0.647283 11.0732 1.7154 7.07397
162 3 -0.775873 11.6733 2.8574 0.457174
164 3 -0.8584 7.43654 5.2525 3.21513
171 3 -0.795396 9.26126 6.79868 4.47256
285 2 0.194175 11.4281 0.783149 6.55858
214 2 0.0341489 10.6971 5.90487 6.49739
246 2 0.157182 9.32124 2.39469 4.99009
247 2 0.174436 9.35276 3.86623 6.3238
248 2 0.214995 8.21269 4.03965 4.66621
282 2 0.194871 11.1568 4.47811 3.82194
283 2 0.156483 10.5405 2.89971 2.94209
284 2 0.24169 9.56334 4.49305 2.80531
241 2 0.138227 9.1318 1.20099 4.35499
287 2 0.161083 10.1161 2.27197 6.53622
289 2 0.169402 10.5866 3.61229 7.64758
168 3 -0.827212 7.26802 6.37584 8.59344
290 2 0.213837 9.23915 4.97052 7.8607
91 1 -0.665832 10.3423 4.7069 7.92756
165 3 -0.851398 6.3782 7.16736 4.86086
166 3 -0.761014 9.88851 5.19271 0.479892
346 2 0.0985256 7.3367 4.71807 0.564224
286 2 0.154253 11.9442 2.42751 7.2951
339 3 -0.792741 11.88 0.117443 0.423645
224 2 0.186961 15.165 5.95139 6.59387
54 4 0.91865 12.2314 5.58971 7.33303
170 3 -0.816558 12.1907 7.46949 4.37418
84 1 -0.679273 14.0955 0.421712 2.28845
355 2 0.252827 12.6449 7.40248 7.67363
352 2 -0.0141397 15.4302 4.99437 4.49167
194 2 0.039264 13.7272 5.69784 3.68159
9 4 0.957797 13.6254 7.41997 3.86436
361 2 0.172942 13.5327 1.38612 2.06057
351 2 0.146261 13.7518 2.64334 3.71693
223 2 0.199413 14.6765 4.38497 0.418764
272 2 0.250071 14.8071 1.34046 5.79347
47 4 0.756465 14.4484 3.87658 5.44175
66 1 -0.633472 14.1978 3.79942 3.6071
85 1 -0.643554 14.8957 2.32212 6.51249
163 3 -0.73918 12.6864 5.05479 1.61495
167 3 -0.752722 13.3223 4.76785 6.41662
343 2 0.168045 14.5418 2.33668 7.59551
270 2 0.12061 16.0278 2.65277 6.50318
271 2 0.256237 13.529 4.34018 2.77347
222 2 0.0105028 15.8617 3.59555 2.99757
172 3 -0.769388 12.5762 6.70058 8.44357
269 2 0.160937 14.9532 0.216412 1.6316
362 2 0.297304 14.2726 0.216911 3.49763
46 4 1.06506 10.5418 1.268 8.94147
49 4 1.34105 10.9126 2.7505 15.5336
278 2 0.0319302 12.9485 2.30187 9.71198
55 4 1.24825 7.79468 7.72837 9.41616
58 4 1.06641 9.9436 6.96009 11.5868
86 1 -0.655531 11.3056 4.43707 14.6596
94 1 -0.680985 11.5039 5.96311 11.1061
95 1 -0.674213 8.81582 5.70944 12.675
155 3 -0.785582 9.54384 2.41256 9.79452
158 3 -0.763951 12.3691 2.38162 16.1645
174 3 -0.809705 9.08545 7.33764 10.3459
273 2 0.145324 10.3496 5.01833 14.442
274 2 0.162122 11.7821 4.14053 13.6527
275 2 0.187514 12.0169 4.96176 15.4828
288 2 0.182928 10.6 4.93234 8.98238
159 3 -0.859041 9.89542 3.2361 16.6409
297 2 0.256971 11.9805 6.31457 10.1331
298 2 0.12734 10.951 4.97281 10.9711
299 2 0.167849 12.1559 6.01505 12.0118
300 2 0.137908 9.53174 4.92433 13.0633
294 2 0.154324 8.83118 7.20852 15.0382
347 2 -0.000132638 10.5577 5.82745 15.8543
281 2 -0.00911189 12.4803 4.30462 11.6278
302 2 0.152533 8.34451 6.26042 13.6394
157 3 -0.764565 10.3766 1.65645 14.3322
93 1 -0.678394 7.72373 7.17909 15.3847
277 2 0.210223 11.6955 0.84577 10.8656
205 2 -0.0203458 8.99405 3.87963 11.824
53 4 0.994157 10.7236 6.54828 17.4189
176 3 -0.796072 10.4261 8.14072 17.3985
87 1 -0.643131 12.0983 0.870207 9.79808
279 2 0.253968 15.7304 3.70329 12.3752
332 2 0.303195 18.0511 3.03355 14.9731
161 3 -0.76439 13.7492 1.83825 12.4249
280 2 0.172474 15.1018 4.89809 10.821
6 4 1.02324 16.1243 1.18903 15.4499
50 4 0.770985 13.6691 3.06924 11.3835
160 3 -0.635703 17.9048 1.66381 10.5933
45 4 1.45491 13.8522 2.39345 16.9957
345 2 0.209061 18.078 1.29682 14.0666
330 1 -0.651222 17.8308 1.82391 15.0376
331 2 0.109712 18.3946 1.32081 15.918
88 1 -0.568667 15.0703 4.0077 11.4657
153 3 -0.741671 15.2318 2.46322 16.0042
44 4 1.21841 5.91857 14.19 1.57672
60 4 1.30127 4.93758 12.6859 4.06499
363 2 0.256106 6.77696 10.1279 2.53964
63 4 0.973449 7.14934 13.872 5.84032
98 1 -0.62275 6.49861 10.1349 3.66947
175 3 -0.850592 7.81452 7.83331 2.52112
177 3 -0.843507 5.21558 13.462 2.70967
179 3 -0.741281 7.46296 9.98461 0.788126
180 3 -0.719554 6.97835 12.9939 0.362353
184 3 -0.809444 5.87104 13.2043 5.27727
310 2 0.0728788 5.33797 10.9104 3.75711
308 2 0.152294 7.30701 10.6859 4.28149
309 2 0.234122 6.4088 9.00341 4.13341
215 2 -0.0230397 8.44921 8.80433 8.28251
218 2 0.0531072 5.30283 13.7497 8.24418
220 2 -0.0403242 8.28757 12.7045 6.22736
59 4 1.27436 8.2283 8.46738 1.14358
337 2 0.223458 2.82904 14.6508 0.832217
219 2 0.00636839 6.85744 14.3738 7.49583
336 1 -0.655156 2.62051 14.275 1.87488
311 2 0.11676 7.44597 12.5826 8.2491
183 3 -0.738661 7.69813 14.8904 5.0076
360 2 0.190444 3.17909 14.9028 2.67891
97 1 -0.61106 12.3245 11.3469 3.04745
357 2 0.184065 11.8571 11.0936 0.199143
340 3 -0.740471 9.42593 11.6454 0.00948992
292 2 0.155071 9.16963 9.91835 4.4586
293 2 0.189635 11.1002 10.1701 4.11394
56 4 1.01853 10.6098 7.82751 4.73257
303 2 0.267937 9.87235 10.3333 0.759335
342 2 -0.0103575 13.6172 7.72276 2.26552
96 1 -0.629127 9.93022 9.24227 1.40193
304 2 0.177966 10.6568 8.47163 0.954867
305 2 0.177995 10.0138 9.44968 2.65038
230 2 0.184077 13.908 9.20628 8.02278
291 2 0.039499 10.549 8.96424 6.26744
307 2 0.152774 11.1617 11.5833 2.90901
92 1 -0.640358 10.2416 9.51841 4.68967
57 4 1.03444 7.24199 8.85936 14.6605
65 4 1.13362 6.20074 12.9818 14.792
99 1 -0.651576 6.82179 13.1803 9.04453
101 1 -0.684007 7.89972 12.4194 15.2675
185 3 -0.799663 8.47235 9.74185 14.3216
187 3 -0.779423 6.06147 11.8891 13.3154
188 3 -0.743873 6.1756 14.7803 14.1579
62 4 1.06529 5.0144 12.1638 9.22922
312 2 0.0711284 6.66505 11.7637 9.96187
313 2 0.169051 7.46815 13.8052 9.71688
317 2 0.156446 8.49518 13.362 14.8338
318 2 0.264927 8.10257 11.3079 14.8015
319 2 0.199908 7.67675 12.3931 16.4294
344 2 0.0107866 7.69368 14.4213 12.0053
350 2 0.0920255 9.26798 14.768 16.6956
276 2 0.184454 5.84605 14.937 9.54152
314 2 0.182655 8.80328 11.2685 12.3628
169 3 -0.830305 6.58387 8.46785 10.1648
48 4 1.30151 7.19205 15.4797 13.2598
156 3 -0.798611 8.53707 15.5753 14.0608
186 3 -0.744666 10.4982 8.33642 12.6782
326 2 0.186957 13.1921 11.5237 13.9232
348 2 0.00325911 9.76966 11.9815 15.6664
315 2 0.173743 10.0418 10.3972 11.1448
365 2 0.135515 11.8447 12.6602 14.9552
364 2 0.171759 12.4612 10.8873 15.6029
16 4 0.667595 13.2334 10.5943 10.5789
322 1 -0.667824 12.6766 11.7971 14.9563
199 2 -0.0197396 11.6182 11.089 10.9644
64 4 0.914387 10.1069 9.73387 13.3761
221 2 0.00265181 11.4145 10.3134 14.3655
100 1 -0.668117 9.97031 11.0225 12.0346
316 2 0.144108 10.6721 11.8997 12.2285
70 1 -0.641003 13.9716 9.66706 9.04539
197 2 0.0726563 12.887 8.79259 10.2102
117 3 -0.78185 14.2719 10.7469 11.7988
61 4 1.06846 10.1382 12.3558 17.3152
ITEM: TIMESTEP
100
ITEM: NUMBER OF ATOMS
365
ITEM: BOX BOUNDS xy xz yz pp pp pp
-6.9345999999999997e+00 1.9702400000000001e+01 -6.9345999999999997e+00
0.0000000000000000e+00 1.5863300000000001e+01 2.0880000000000001e+00
0.0000000000000000e+00 1.7429271600000003e+01 8.7949999999999995e-01
ITEM: ATOMS id type q x y z
4 4 1.0065 2.42736 4.31242 5.69067
8 4 0.733888 -0.715341 4.11646 1.29977
10 4 1.25749 1.26151 5.16414 8.40558
68 1 -0.655747 -1.52516 6.67428 6.81705
78 1 -0.681669 1.52527 6.03029 3.1508
102 3 -0.79039 2.07417 1.26246 1.50499
105 3 -0.799821 0.297677 3.08155 0.827041
107 3 -0.851607 1.75771 4.51414 7.05189
192 2 -0.0372571 1.32056 4.48916 4.39668
206 2 -0.00844046 0.103167 5.46834 1.99885
226 2 0.128821 -0.661309 6.04119 6.36814
252 2 0.122647 0.491248 5.73091 3.60224
253 2 0.137581 2.35856 5.21846 3.08803
254 2 0.155986 1.41974 6.58912 2.07739
195 2 -0.00531681 -0.298217 5.77404 8.13371
225 2 0.140168 -1.29937 7.17746 7.87107
2 4 1.21876 1.30675 1.92161 0.284263
354 2 0.132155 -1.44965 5.88617 0.0449556
190 2 -0.00781714 1.34381 1.37578 8.36767
1 4 1.33292 3.1485 0.500653 2.53336
356 2 0.286911 4.89713 0.336238 6.33219
120 3 -0.828009 3.37737 3.08383 5.57794
260 2 0.193762 3.36948 5.73808 0.719356
349 2 0.285489 5.42912 0.280124 1.30297
257 2 0.208664 4.53993 6.52213 3.22684
123 3 -0.778522 5.88506 1.70153 5.70681
121 3 -0.790923 6.99738 0.969801 1.16546
79 1 -0.684271 4.5453 5.74145 2.40281
129 3 -0.855131 5.33972 3.54825 3.70655
136 3 -0.815043 5.06039 6.22716 6.93057
135 3 -0.77363 3.45175 7.26211 4.95452
191 2 0.11909 3.34386 5.75426 5.38642
255 2 0.158749 3.52492 5.0947 2.39092
240 2 0.205039 7.54273 1.85312 3.45338
130 3 -0.78045 6.37319 3.59993 1.15082
204 2 0.0281514 8.27316 2.05964 7.17653
133 3 -0.830578 6.64928 4.14294 7.15859
256 2 0.174286 4.87129 6.21704 1.42707
21 4 1.44763 4.59125 2.50475 4.6779
119 3 -0.781875 3.86996 1.38856 3.64304
25 4 1.04558 7.02753 2.85027 6.3804
29 4 1.30252 6.00664 4.56827 2.72499
32 4 1.49254 6.18252 5.51568 7.99668
34 4 1.48401 5.169 7.40205 5.83982
74 1 -0.660849 8.12101 0.920798 3.89656
22 4 1.52763 6.57257 2.25022 0.210666
243 2 0.183157 7.23846 0.478357 8.70592
242 2 0.208496 7.57257 0.368149 4.77861
67 1 -0.614211 -1.81257 4.72306 0.0089548
3 4 1.13697 1.31274 2.33042 9.83674
7 4 1.46464 3.35906 2.78208 12.1183
12 4 1.20364 1.74005 5.05485 14.0139
353 2 0.297003 0.420322 5.08422 16.2878
69 1 -0.654569 3.16763 5.34291 15.1775
103 3 -0.778982 3.21168 2.26315 10.5313
104 3 -0.81762 3.58684 1.57018 13.1745
106 3 -0.750293 0.96259 4.06801 9.49629
110 3 -0.73586 2.36387 3.86353 12.6416
111 3 -0.736936 1.6518 7.00551 13.4191
227 2 0.174205 3.20288 6.47375 15.1853
229 2 0.224389 2.74913 4.91009 16.1105
193 2 -0.0303886 2.3415 1.68723 17.007
109 3 -0.730941 0.663561 4.57552 14.8148
358 2 0.258103 6.81639 0.695938 12.8329
134 3 -0.812492 2.10043 6.43789 8.86288
122 3 -0.795669 4.95958 3.70244 11.9129
301 2 0.168748 7.78871 5.54683 11.8817
26 4 1.43884 9.36257 0.712652 13.3727
259 2 0.163764 3.75296 6.45718 17.2309
82 1 -0.673233 5.56409 6.88055 12.0759
124 3 -0.806935 5.48911 1.70667 15.0737
126 3 -0.778216 4.51826 3.39769 16.717
80 1 -0.643212 4.8656 6.78545 17.1756
127 3 -0.86084 7.01534 2.84326 10.3617
228 2 0.203317 4.21846 4.89163 14.9055
132 3 -0.806248 5.49712 4.86506 9.50795
203 2 0.0955126 4.51285 2.43987 9.51486
128 3 -0.817924 8.52961 1.63578 12.1682
249 2 0.168887 7.31112 4.35748 14.5343
296 2 0.179455 7.7415 7.38407 16.5334
250 2 0.149226 5.72385 5.35048 15.0621
265 2 0.14801 4.98318 7.09257 13.0638
258 2 0.163389 5.4657 6.33419 16.2704
251 2 0.249596 5.71072 4.13227 13.5259
5 4 1.28144 4.63027 0.71932 14.0013
295 2 0.147645 7.25893 6.04535 15.1219
263 2 0.168614 6.73596 6.5476 12.256
264 2 0.233096 4.94377 6.03625 11.4956
24 4 1.26008 5.55299 3.5293 10.3687
27 4 1.32649 5.89238 2.98391 15.8857
28 4 1.25668 8.44226 2.62133 10.9262
77 1 -0.690371 6.16351 4.40907 14.6177
125 3 -0.794355 7.27198 2.89816 16.9178
216 2 0.00641625 6.75849 8.07677 13.1388
14 4 1.12323 -4.45762 12.6774 3.92681
15 4 1.0486 -1.65105 10.3891 8.13416
17 4 1.23376 -2.44506 12.783 6.34362
72 1 -0.68013 -2.64595 14.5698 6.82603
113 3 -0.762272 -1.45497 9.46539 6.82104
114 3 -0.743689 -3.96846 12.3105 5.38725
115 3 -0.780778 -2.11264 11.8675 7.72413
141 3 -0.785432 -1.23193 12.7899 5.16405
209 2 -0.00647487 -1.03539 11.1496 3.19867
235 2 0.168058 -2.33542 14.4255 7.92407
236 2 0.173804 -3.77845 14.7034 6.68643
327 1 -0.661149 -2.53003 14.7186 1.36203
329 2 0.167433 -2.42658 13.6847 1.91664
112 3 -0.793866 -4.42088 14.0777 3.29963
11 4 1.1759 -1.18266 8.17673 5.73422
338 2 0.221619 2.86761 12.9967 1.93354
306 2 0.154189 -4.52197 10.8524 2.49297
245 2 0.201351 -0.066351 14.5887 7.01194
108 3 -0.755819 -2.67485 7.88635 4.71452
37 4 1.30342 -0.21418 12.3838 4.01365
341 2 -0.0156935 1.40881 12.7105 0.696396
142 3 -0.819856 3.22226 10.8162 1.41332
232 2 0.165614 0.615768 10.2321 8.43846
75 1 -0.680792 0.167549 14.493 8.14186
154 3 -0.789641 2.89506 14.7922 8.68522
138 3 -0.772904 1.95434 8.92448 3.09662
147 3 -0.824028 2.14689 12.823 6.86944
146 3 -0.850527 3.35777 10.6573 5.97393
178 3 -0.840522 3.36901 12.8877 4.462
145 3 -0.804277 0.97271 11.6729 4.62459
139 3 -0.774879 3.54113 8.28656 0.967764
144 3 -0.835908 5.20573 8.90302 6.45999
20 4 1.04861 0.847444 14.7449 2.43322
181 3 -0.766422 4.80646 10.934 8.46143
23 4 1.0783 1.87352 13.6909 8.19493
36 4 1.18161 3.35738 9.38192 2.19003
39 4 1.53755 4.07858 9.81535 7.11337
40 4 1.49494 2.44168 11.9578 5.50643
140 3 -0.845794 -0.0583611 13.4991 2.87745
143 3 -0.833117 2.96726 8.78263 7.78046
131 3 -0.760557 0.384349 7.97746 4.9612
328 2 0.183681 -3.05237 14.6984 0.333361
38 4 0.973356 2.50539 11.4597 0.182524
359 2 0.166738 0.548651 8.9279 0.450022
217 2 0.0146753 4.69295 9.33064 3.29731
244 2 0.156216 -0.406139 13.6382 8.67629
336 1 -0.652361 2.52612 14.0566 1.57301
30 4 1.22235 1.81409 7.70065 4.11302
18 4 1.1818 0.0231949 10.7032 14.5141
19 4 0.922574 -1.8226 10.554 12.1366
73 1 -0.643292 -0.646727 9.98411 16.1568
118 3 -0.796191 -1.32462 10.9773 13.542
149 3 -0.78757 0.891953 12.1435 15.0482
200 2 0.00314232 -0.738283 11.2219 10.9852
234 2 0.120218 0.865048 10.6756 10.1994
237 2 0.155938 -0.338293 10.687 16.9676
239 2 0.172854 -1.7836 9.7843 16.0074
321 1 -0.643545 -2.64178 12.4742 16.9913
323 3 -0.736946 -3.0941 14.2162 14.7661
324 2 0.168594 -1.92161 11.4784 16.7278
231 2 0.0933851 -2.5891 9.43447 9.50841
71 1 -0.683531 0.0302485 10.3242 9.44575
335 2 0.218347 -0.7768 13.9019 13.1918
333 1 -0.651642 -1.02696 14.944 12.8199
233 2 0.0946873 -0.40383 9.34458 9.73163
238 2 0.196778 -0.0365102 9.03974 16.1896
201 2 -0.0382046 -1.43118 8.92149 12.0788
320 4 0.898842 -3.64708 12.9308 15.5467
151 3 -0.8086 3.43482 11.8802 13.3029
334 2 0.161074 -1.68879 14.9745 11.8349
150 3 -0.826239 1.48287 14.6918 14.2943
325 2 0.160829 -2.05017 13.455 17.2709
117 3 -0.80351 -3.2457 10.7958 11.5792
137 3 -0.829042 3.86401 8.0896 10.0365
35 4 1.28015 5.16626 8.26891 10.8872
267 2 0.132199 1.37027 11.7396 10.9801
182 3 -0.803867 4.16252 12.8306 10.5368
173 3 -0.758508 5.87583 9.14671 15.4931
208 2 0.0676636 3.16669 8.90774 12.4256
210 2 0.064528 4.70907 10.1657 14.8341
202 2 0.0141743 1.7355 12.6348 9.54282
116 3 -0.786225 1.06128 9.41406 14.0108
266 2 0.196875 0.944363 12.8326 12.6071
212 2 -0.0312995 3.38431 11.293 17.1704
211 2 0.0727869 3.37156 12.7946 14.7656
148 3 -0.774738 4.60057 9.66767 12.1372
13 4 0.939092 1.61948 8.36604 12.9252
196 2 -0.0595812 0.624594 8.38152 11.578
207 2 -0.0346853 1.22004 8.79301 9.7424
213 2 -0.0496493 2.19166 13.9045 16.649
262 2 0.155111 2.93039 9.99698 16.1299
268 2 0.152986 1.14641 13.7591 10.8862
31 4 1.03059 4.91131 8.69859 17.0486
41 4 1.18822 4.74387 10.9128 13.3443
42 4 1.00535 1.84084 13.4126 15.0931
43 4 1.26792 3.29813 13.1406 11.8972
81 1 -0.695377 3.06286 9.3168 17.0349
83 1 -0.665482 1.43799 12.7861 11.5284
152 3 -0.803381 3.46649 14.6368 12.4939
33 4 1.29397 2.61456 7.99368 9.02862
261 2 0.150889 2.59955 8.34413 16.8211
51 4 1.22537 11.4169 4.35048 1.35994
52 4 1.4509 7.62109 6.80975 3.94337
76 1 -0.657471 8.74643 3.15973 5.63513
89 1 -0.652361 10.837 3.77249 3.12995
90 1 -0.665133 11.2616 1.84538 7.18743
162 3 -0.763626 11.8224 2.8442 0.53616
164 3 -0.846502 7.34144 5.25565 3.25041
171 3 -0.791834 9.2605 6.93604 4.63703
285 2 0.166888 11.6718 0.972835 6.58918
214 2 0.0514004 10.5148 6.04668 6.40287
246 2 0.155823 9.29711 2.1669 5.18736
247 2 0.170744 9.42599 3.80588 6.45368
248 2 0.199832 8.25294 3.86805 4.76972
282 2 0.182606 11.7611 3.90326 3.84465
283 2 0.16763 10.6319 2.66527 2.89694
284 2 0.208414 9.9361 4.35001 3.4672
241 2 0.149898 9.22559 1.20497 4.15117
287 2 0.172797 10.3819 2.35676 6.60854
289 2 0.172219 10.7421 3.75754 7.71435
168 3 -0.828639 7.38812 6.52085 8.35942
290 2 0.207049 9.30926 5.01151 7.8312
91 1 -0.66663 10.4639 4.88699 7.86239
165 3 -0.895735 6.46178 7.19981 4.86774
166 3 -0.768188 9.86655 5.28283 0.517026
346 2 0.0947587 7.38166 4.72132 0.455228
286 2 0.162441 12.0488 2.55472 7.49738
339 3 -0.810974 11.9101 0.204357 0.43017
224 2 0.20079 14.9963 6.29254 6.67819
54 4 0.948467 12.1868 5.77336 7.1097
170 3 -0.764027 12.1658 7.57887 4.2774
84 1 -0.668272 14.2074 0.428492 2.13709
355 2 0.243977 12.8379 7.54948 7.5171
352 2 -0.00826889 15.6037 4.78562 4.67854
194 2 0.0313483 13.962 5.64006 3.57094
9 4 0.899712 13.7987 7.33784 3.79007
361 2 0.189204 13.8246 1.41082 1.8263
351 2 0.152977 13.9139 2.75419 3.60121
223 2 0.184084 14.7588 4.32187 0.630243
272 2 0.247628 14.8643 1.42417 5.84961
47 4 0.730584 14.4227 3.80125 5.54059
66 1 -0.626375 14.4368 3.79293 3.47486
85 1 -0.642039 14.824 2.35851 6.58388
163 3 -0.708431 12.6132 5.06535 1.57877
167 3 -0.750771 13.1527 4.78441 6.33928
343 2 0.16176 14.1177 2.27999 7.49516
270 2 0.101485 16.0841 2.85571 6.72028
271 2 0.238156 13.6917 4.30856 2.62929
222 2 0.0446843 15.9136 3.49348 2.91113
172 3 -0.75776 12.6884 6.79684 8.27343
362 2 0.281547 14.3745 0.286094 3.34545
46 4 1.06996 10.7038 1.1866 9.03005
49 4 1.30279 10.8296 2.97529 15.5382
278 2 0.0289694 13.1107 2.30734 9.99399
55 4 1.21486 7.8252 7.82498 9.30157
58 4 1.05743 9.9889 6.98587 11.656
86 1 -0.667021 11.1807 4.48736 14.4626
94 1 -0.661997 11.5504 6.11994 10.9476
95 1 -0.664673 8.63042 5.85372 12.5874
155 3 -0.783671 9.6655 2.27437 9.8821
158 3 -0.741271 12.2434 2.31537 16.1873
174 3 -0.777383 9.0048 7.44962 10.4277
273 2 0.150985 10.4324 5.35237 14.334
274 2 0.160157 11.3111 3.84391 13.43
275 2 0.17262 12.2471 4.76586 14.8509
288 2 0.176078 10.8074 5.23736 8.88475
159 3 -0.854641 9.79807 3.4997 16.5861
297 2 0.252827 11.9441 6.40422 9.88013
298 2 0.105304 10.9472 5.04085 10.9139
299 2 0.160958 12.344 6.05815 11.7438
300 2 0.125201 9.51837 5.12217 12.8333
294 2 0.165246 8.96489 7.05382 15.0995
347 2 0.00438745 10.5814 5.88753 15.7527
281 2 -0.0114067 12.4898 4.43803 11.5022
302 2 0.167576 8.24498 6.32467 13.5267
157 3 -0.757474 10.142 1.80894 14.3307
153 3 -0.765634 15.0816 2.29593 15.996
277 2 0.230688 11.8037 0.732867 10.9983
205 2 -0.00111789 8.79207 4.19335 11.5606
53 4 0.999641 10.6944 6.57395 17.3355
176 3 -0.814403 10.3281 8.10068 17.4125
87 1 -0.64551 12.2284 0.860056 9.98681
279 2 0.255785 15.8528 3.49062 12.5247
332 2 0.298979 17.894 2.95972 15.0124
161 3 -0.711744 13.4777 2.05225 12.8641
280 2 0.1667 15.4323 4.53415 10.7732
6 4 1.05457 16.012 1.14599 15.4239
50 4 0.741933 13.6106 3.13392 11.6454
160 3 -0.640017 18.1053 1.6486 10.7152
45 4 1.47547 13.8041 2.3853 17.055
345 2 0.209792 17.9755 1.31186 14.0618
330 1 -0.675963 17.7301 1.78233 15.0938
331 2 0.133347 18.3644 1.36095 15.867
88 1 -0.560128 15.2091 3.85774 11.6888
93 1 -0.675398 7.88531 7.08018 15.4081
44 4 1.20941 6.03395 14.2432 1.4221
60 4 1.2795 4.85934 12.7406 4.00392
363 2 0.259661 6.72136 10.1976 2.54171
63 4 0.934526 7.28762 13.9326 5.71289
98 1 -0.635216 6.38796 10.3217 3.67045
175 3 -0.811262 7.65021 7.87775 2.66687
177 3 -0.805695 5.32186 13.4628 2.61201
179 3 -0.726242 7.36465 10.04 0.722425
180 3 -0.728363 7.17215 13.0315 0.327963
184 3 -0.789593 6.02402 12.9531 5.10452
310 2 0.091358 5.1128 11.001 3.68109
308 2 0.190695 7.19583 10.8597 4.17873
309 2 0.239788 6.29083 9.37196 4.1303
215 2 -0.016358 8.46228 8.96837 8.27322
218 2 0.0640171 5.2839 13.7168 8.20848
220 2 -0.0149719 8.60486 12.9781 6.14684
59 4 1.20567 8.21249 8.34306 1.18329
337 2 0.199869 2.42793 14.2746 0.449476
219 2 -0.00450229 6.98029 14.5611 7.31682
340 3 -0.732026 9.38681 11.5503 0.12645
311 2 0.141663 7.25371 12.6359 8.03141
183 3 -0.72951 7.84872 14.9878 4.96951
360 2 0.199543 3.18614 14.8737 2.12474
97 1 -0.622157 12.3656 11.4376 3.13869
357 2 0.175144 11.947 11.4212 0.251579
92 1 -0.646383 10.1406 9.54252 4.63089
292 2 0.178968 9.06374 9.67859 4.43858
293 2 0.199553 10.8891 10.3103 4.10785
56 4 1.03654 10.5615 7.8815 4.67666
303 2 0.274084 9.77671 10.1778 0.819224
342 2 -0.0148005 13.9628 7.65405 2.14778
96 1 -0.653755 9.90874 9.1621 1.45142
304 2 0.176627 10.5913 8.35512 0.976785
305 2 0.189095 10.0267 9.37993 2.63176
230 2 0.195757 13.8834 9.2238 7.95466
291 2 0.0453439 10.3772 9.0356 6.2592
307 2 0.1777 11.3383 11.7651 2.76753
269 2 0.155872 8.2233 14.9805 1.49873
57 4 1.01117 7.29662 8.65858 14.6532
65 4 1.24148 6.12004 13.0836 14.7953
99 1 -0.673233 6.81978 13.2417 8.81901
101 1 -0.672219 7.92859 12.5877 15.33
185 3 -0.760309 8.5508 9.61461 14.5573
187 3 -0.803508 5.93176 11.902 13.419
188 3 -0.778333 6.06055 14.5889 14.3332
62 4 1.0459 5.14518 12.2467 9.308
312 2 0.0696031 6.88599 12.1431 10.1391
313 2 0.153596 7.50741 14.1055 9.05819
317 2 0.168198 8.73491 13.2468 14.9808
318 2 0.235015 8.14599 11.4244 15.016
319 2 0.202309 7.70966 12.6972 16.497
344 2 -0.00677222 7.05176 14.4709 11.902
350 2 0.09491 9.30708 14.7972 16.6397
276 2 0.176258 5.87204 14.8861 9.55745
314 2 0.181015 8.75665 11.0679 12.1205
169 3 -0.780126 6.54721 8.56286 9.95139
48 4 1.18279 7.07658 15.4018 13.2957
156 3 -0.782113 8.53814 15.4397 13.9896
186 3 -0.760678 10.4135 8.21427 12.7528
326 2 0.161869 13.2972 11.4298 13.9946
348 2 0.000537446 9.81405 12.0657 15.7357
315 2 0.170394 9.97403 10.4027 10.9189
365 2 0.135902 11.8412 12.86 14.6579
364 2 0.167835 12.0978 11.1519 15.7092
16 4 0.683731 13.2178 10.6619 10.5401
322 1 -0.648419 12.5423 11.9087 14.944
199 2 -0.0234353 11.6486 10.8531 11.1984
64 4 0.911162 10.0418 9.65695 13.4183
221 2 -0.00111608 11.362 10.3865 14.3299
100 1 -0.66594 9.8019 10.7489 11.9319
316 2 0.120638 10.5531 11.6163 12.2634
70 1 -0.626229 13.9868 9.7106 8.95925
197 2 0.058087 12.8164 8.88796 10.1557
198 2 0.0696776 13.5333 11.3982 8.83012
61 4 1.13856 10.0957 12.2468 17.4034
189 3 -0.831406 5.25891 12.7368 16.2819
ITEM: TIMESTEP
200
ITEM: NUMBER OF ATOMS
365
ITEM: BOX BOUNDS xy xz yz pp pp pp
-6.9345999999999997e+00 1.9702400000000001e+01 -6.9345999999999997e+00
0.0000000000000000e+00 1.5863300000000001e+01 2.0880000000000001e+00
0.0000000000000000e+00 1.7394343200000002e+01 8.7949999999999995e-01
ITEM: ATOMS id type q x y z
4 4 1.00928 2.5489 4.39781 5.77003
8 4 0.705649 -0.781569 4.21778 1.30656
10 4 1.26856 1.19202 5.21414 8.31808
68 1 -0.680319 -1.37496 6.6216 6.84583
78 1 -0.667879 1.6169 6.02194 3.14301
102 3 -0.790805 2.06501 1.29829 1.70103
105 3 -0.749803 0.0919361 3.01428 0.787643
107 3 -0.868075 1.5241 4.53858 6.96403
192 2 -0.0194326 1.53397 4.44061 4.37346
206 2 -0.0144046 0.0918207 5.5228 2.02359
226 2 0.138429 -0.39657 6.05147 6.37301
252 2 0.121736 0.580414 5.80991 3.71284
253 2 0.131962 2.45224 5.14197 3.13299
254 2 0.16372 1.60844 6.74832 2.1082