ITEM: TIMESTEP
0
ITEM: NUMBER OF ATOMS
365
ITEM: BOX BOUNDS xy xz yz pp pp pp
-6.9345999999999997e+00 1.9702400000000001e+01 -6.9345999999999997e+00
0.0000000000000000e+00 1.5863300000000001e+01 2.0880000000000001e+00
0.0000000000000000e+00 1.7464200000000002e+01 8.7949999999999995e-01
ITEM: ATOMS id type x y z
1 4 3.41058 0.555281 2.48913
2 4 1.90434 2.34943 0.235456
4 4 2.44383 4.1686 5.41898
8 4 -0.48015 4.29628 1.50091
10 4 1.43042 5.33588 8.14441
255 2 3.69372 4.83525 1.79554
21 4 4.69477 2.44809 4.68156
22 4 6.89522 2.0625 0.037517
25 4 7.26177 2.77516 6.46498
29 4 6.02462 4.41641 2.50231
32 4 6.2368 5.49153 8.10483
34 4 4.81604 7.43045 6.12431
68 1 -1.2336 6.23579 6.10175
74 1 8.39686 0.928491 3.75786
78 1 2.14109 6.28172 2.95587
79 1 4.75868 5.3327 1.58218
102 3 2.80053 1.70526 1.4336
105 3 0.668234 3.45818 0.791747
107 3 1.96702 4.74658 6.76364
108 3 -2.3387 7.3902 3.58503
256 2 5.17039 5.15113 0.462709
119 3 4.23436 1.16921 3.72951
120 3 3.38561 2.91456 5.65613
121 3 7.14964 0.810272 1.11948
123 3 6.03037 2.09096 5.74023
129 3 5.17228 3.53875 3.61795
130 3 6.87638 3.33495 1.14092
133 3 6.82595 3.91998 7.46375
135 3 3.31628 7.41553 5.28513
136 3 5.01863 6.11685 7.21536
191 2 3.16012 5.29439 4.32614
192 2 1.15491 3.76385 4.37283
242 2 7.49268 0.658658 4.39307
204 2 8.08487 1.52782 7.42197
206 2 0.0840672 5.93177 1.78149
195 2 -0.222134 5.58429 7.77855
254 2 1.63276 6.85696 2.05051
165 3 5.98737 7.16407 4.98227
225 2 -1.64784 6.68106 7.13893
226 2 -0.0502454 5.92817 6.06473
223 2 -2.00518 6.45261 1.39326
257 2 4.71337 6.46071 1.7868
260 2 2.51982 5.35131 0.377804
252 2 1.48927 5.41465 3.32904
253 2 3.17049 5.93506 2.63943
243 2 6.59581 0.782105 7.88887
353 2 -2.10842 4.85952 0.0249858
67 1 -1.39522 5.64829 0.506054
352 2 -0.973328 3.5802 3.56859
134 3 2.08864 6.60961 8.7214
332 2 -0.0954964 0.930602 0.210047
246 2 7.86782 3.22089 3.94908
356 2 5.06796 0.425859 6.3904
3 4 1.09803 3.00152 10.1893
295 2 7.7464 5.84711 14.8374
7 4 3.26915 2.70196 12.1603
12 4 1.28278 4.6169 13.8262
13 4 0.971563 7.78686 13.1412
24 4 5.73636 3.55517 10.3092
264 2 4.40266 6.17074 12.0327
27 4 6.27296 2.94014 15.7037
28 4 8.63476 2.67325 11.4876
345 2 -0.00787542 3.76402 11.5834
354 2 1.23938 7.13305 17.1574
69 1 1.98952 4.76261 15.5372
77 1 6.7593 4.09751 14.2744
80 1 4.49941 6.84888 16.8661
82 1 5.32105 6.89249 12.3775
103 3 2.18365 2.13641 10.9311
104 3 3.57862 1.49272 13.2024
106 3 1.49916 4.22798 9.22224
331 2 2.76597 1.78303 15.9588
110 3 2.368 3.77708 12.9896
111 3 1.09919 6.27417 13.4223
122 3 4.61637 3.48325 11.4598
124 3 5.5279 1.60111 14.9651
125 3 7.54723 2.77391 16.6722
126 3 4.91946 3.74185 16.4738
127 3 7.17221 3.06805 10.8742
128 3 8.62337 1.57436 12.656
132 3 5.78497 5.04605 9.82612
196 2 -0.437668 8.00544 12.1216
216 2 6.95409 7.71303 13.1484
330 1 2.9091 1.76559 17.1084
203 2 5.36919 2.43979 9.10129
231 2 -0.595286 7.91842 10.3583
227 2 2.13983 5.84686 15.7946
228 2 3.0712 4.22914 15.2118
229 2 1.28179 4.13472 16.1546
334 2 5.30715 0.756581 11.4677
249 2 7.89735 4.27959 14.2626
250 2 6.11849 5.02854 14.4496
251 2 6.37918 3.46593 13.3681
258 2 5.28577 6.43934 16.0197
265 2 5.18829 7.37306 13.3959
263 2 6.35175 6.38526 12.2234
259 2 3.41416 6.89287 16.4963
358 2 6.85737 0.703777 12.51
244 2 -0.411785 13.8808 7.97901
14 4 -5.08445 13.2053 4.00471
15 4 -1.36518 10.2251 7.398
17 4 -2.49187 13.0158 5.73471
23 4 1.85405 13.7756 7.80843
30 4 2.23599 7.74727 4.16458
36 4 3.48668 9.49699 1.87291
37 4 -0.0123904 12.5118 3.94383
39 4 3.82812 9.94048 7.32311
40 4 2.79371 12.2559 5.3622
71 1 0.310151 10.9382 7.71267
72 1 -2.69691 14.6474 6.55945
75 1 0.21984 14.8126 7.53636
113 3 -1.30561 9.07702 6.21895
114 3 -3.78397 12.6296 4.83971
115 3 -2.29674 11.5504 7.06607
131 3 0.571806 7.78927 4.69092
138 3 2.7172 8.96226 3.11223
139 3 3.37532 8.34479 0.725287
140 3 0.168016 13.5327 2.62742
141 3 -1.05592 13.1636 4.92711
142 3 3.26483 11.0429 1.21351
143 3 2.63666 9.17387 8.1256
144 3 5.23172 8.81657 6.72103
145 3 1.34378 11.9728 4.51997
146 3 3.2697 10.8883 6.15166
147 3 2.43984 13.505 6.3549
181 3 4.55977 10.8896 8.34204
341 2 1.45171 12.8774 0.611265
209 2 -0.742747 11.168 3.34707
232 2 -0.0715513 12.096 7.37665
112 3 -4.90541 14.4295 3.1041
235 2 -2.87818 14.3673 7.66816
236 2 -3.70592 15.0565 6.10949
245 2 0.25103 14.6838 6.391
202 2 1.53639 12.1948 8.53629
327 1 -2.53123 14.3034 1.56474
20 4 0.99964 14.8619 2.2152
329 2 -3.18942 13.3661 1.28023
38 4 2.37992 11.5674 0.0939524
349 2 -1.5167 13.9522 2.0699
11 4 -1.06427 7.78234 5.14103
197 2 -2.38039 12.4754 8.43368
233 2 0.8143 10.2481 6.82684
328 2 -2.31943 14.9807 0.547996
212 2 0.943695 10.5889 0.0584554
16 4 -2.51148 12.8407 10.1043
18 4 0.254347 10.3538 14.5948
19 4 -1.194 10.4457 11.6221
31 4 5.04006 8.62302 16.819
35 4 4.99884 8.3028 11.1948
154 3 2.5385 14.8072 8.75071
41 4 4.81403 10.909 13.193
42 4 1.92464 13.2439 15.3008
43 4 3.19568 13.0086 11.9066
73 1 -0.946393 10.1368 16.005
81 1 3.34553 9.8703 16.2683
83 1 1.31686 12.8105 11.7285
116 3 1.09657 8.87489 14.2611
117 3 -1.84868 11.6257 10.8563
118 3 -0.679251 10.6108 13.0949
26 4 2.61731 15.469 13.6329
148 3 5.2461 9.71548 12.1353
149 3 1.23443 11.8593 15.0232
150 3 1.53285 14.519 14.4793
151 3 3.46953 11.7081 12.7794
152 3 3.45321 14.5846 12.5621
201 2 -2.17471 8.78681 11.6685
173 3 6.10334 8.63755 15.5782
182 3 4.13445 12.7517 10.2797
137 3 3.17051 8.04566 10.6298
198 2 -1.77145 14.297 10.6947
70 1 -0.921702 8.92227 10.4724
200 2 0.368704 9.89263 10.4794
230 2 -1.80633 9.37001 9.11543
207 2 0.905059 8.4335 9.77713
335 2 -1.07838 14.1099 12.2984
210 2 4.39515 9.97171 14.5428
211 2 3.58435 13.0754 15.2041
33 4 2.41493 8.03382 9.21798
213 2 1.55206 13.8258 16.7963
325 2 -2.9565 13.638 17.3031
237 2 -0.680093 10.8999 16.7748
239 2 -2.01739 10.1229 15.6605
169 3 6.11971 8.12928 10.1397
262 2 3.62869 10.901 16.0036
266 2 1.17695 12.1592 10.8424
267 2 0.908351 13.8338 11.6128
268 2 0.976635 12.3223 12.7251
320 4 -3.35136 12.7641 15.1324
234 2 0.449009 10.6371 8.79363
323 3 -2.70343 14.1927 14.6075
333 1 -1.10464 15.2468 12.3224
238 2 -0.563799 9.06813 16.3595
261 2 2.81299 9.33186 15.4819
359 2 2.74036 9.80541 17.2388
189 3 5.05812 12.7279 16.0635
5 4 -2.20853 15.548 13.895
199 2 -4.10602 12.9432 10.5942
208 2 2.20581 8.18347 12.0535
193 2 -3.40388 15.8207 17.3802
9 4 14.049 7.00131 2.27677
47 4 13.4575 2.87998 5.53515
51 4 11.5967 4.70728 1.5715
52 4 7.26875 6.94824 4.08322
54 4 11.1773 5.11218 6.49929
56 4 10.0593 7.5045 5.22288
362 2 14.8831 1.21291 1.19831
76 1 8.26571 3.48076 4.99647
85 1 14.5327 2.68853 6.80521
89 1 11.2137 4.10915 3.2296
90 1 10.8698 2.24816 7.89673
91 1 11.5506 4.99793 8.30744
162 3 12.1253 3.23051 0.697682
163 3 12.9617 6.0063 1.98884
164 3 6.97356 5.59402 3.09101
53 4 8.8411 5.82965 0.323336
166 3 10.2806 5.417 0.827867
167 3 12.3635 3.96685 5.96687
224 2 15.7392 5.51417 5.50793
342 2 13.9819 7.60809 4.09554
171 3 8.61696 6.80517 5.06036
172 3 11.2333 6.57909 5.96601
241 2 9.36762 0.435929 4.04661
214 2 9.62878 4.47058 6.06525
168 3 7.42733 6.63597 8.26411
288 2 12.2103 5.9702 8.4752
247 2 9.33149 3.00755 5.1653
248 2 8.15216 4.57913 5.25653
270 2 15.2485 3.15124 5.79422
271 2 13.4097 1.33482 6.58684
272 2 14.3396 3.40166 7.69899
282 2 11.4404 2.94555 3.24107
283 2 10.1444 4.40621 3.42036
284 2 12.0364 4.72694 3.79911
285 2 10.9972 1.5595 7.02585
286 2 11.864 2.70938 8.22187
287 2 10.0445 3.00411 7.83092
346 2 7.90541 4.42495 0.540665
339 3 12.4275 0.451785 0.553782
351 2 14.9057 3.94098 2.81524
84 1 15.0745 0.12659 1.60832
176 3 8.22859 7.12799 0.75504
66 1 15.8971 3.41184 2.64232
222 2 15.7386 2.32782 2.39976
240 2 8.49463 2.08339 3.53463
290 2 10.4081 5.06286 8.6286
360 2 10.2714 0.214468 1.38094
6 4 16.1428 2.59223 14.8257
157 3 10.7636 1.36752 14.5908
46 4 10.2335 1.16308 9.44326
343 2 15.9518 3.57203 11.3191
49 4 11.1961 2.75708 15.4442
50 4 14.3203 2.72439 11.3747
301 2 8.49513 5.84098 11.6628
55 4 7.51639 7.90999 9.20161
58 4 10.0371 7.66441 11.2219
86 1 11.6049 4.01258 14.144
174 3 8.81998 7.85562 10.1013
88 1 12.7524 3.32403 11.2119
94 1 11.7206 7.31316 10.4163
95 1 9.41335 6.12192 12.2356
153 3 15.4998 2.94739 16.2075
87 1 12.0255 0.548622 10.0109
156 3 16.0132 1.03594 14.4311
109 3 17.1141 3.64636 14.066
158 3 12.9161 2.6065 16.3196
159 3 10.154 3.30467 16.4809
160 3 16.8874 4.13032 11.0039
161 3 14.2609 1.3886 12.364
299 2 12.5162 7.86613 11.0721
205 2 9.30311 4.1596 12.0672
273 2 12.0133 3.78799 12.9856
274 2 12.4883 4.48726 14.7089
275 2 10.667 4.68804 14.1672
276 2 12.3224 1.03132 10.9542
279 2 11.8249 2.76769 11.6664
280 2 13.4958 2.42267 9.75332
281 2 12.9787 4.49747 11.7362
277 2 12.6408 0.863036 9.10483
350 2 15.5725 3.70767 13.5953
347 2 10.921 6.61389 16.0897
297 2 11.7281 7.63976 9.268
298 2 11.6957 6.19431 10.4944
45 4 14.2105 2.72943 17.1905
300 2 10.2517 5.32366 12.4059
294 2 9.32522 6.92534 14.835
302 2 8.92114 6.43362 13.3586
93 1 8.24082 6.83831 15.2058
155 3 9.65637 2.15689 10.5002
190 2 17.7093 1.94129 9.37396
296 2 8.12422 7.03485 16.3714
289 2 12.0495 4.00214 8.77508
44 4 6.47368 14.2668 1.3145
59 4 8.01014 8.64532 1.73208
60 4 5.59335 12.5454 4.08044
61 4 7.8434 11.4374 0.209383
63 4 7.88246 12.7841 6.23727
337 2 2.55286 14.1616 0.180398
215 2 7.61566 9.27398 8.15091
92 1 7.93062 9.85481 6.27452
96 1 9.79556 9.29399 1.89848
97 1 11.3136 12.1159 3.96102
98 1 6.06776 10.7262 3.77456
175 3 7.484 8.36469 3.1611
177 3 6.06794 13.5475 2.80516
338 2 3.09645 13.3819 1.74285
179 3 7.11279 9.96378 1.05238
180 3 7.04434 12.9278 0.422966
183 3 9.1324 13.0904 5.69656
184 3 6.56103 12.8629 5.32601
217 2 5.11065 9.56852 2.38801
170 3 10.331 8.82106 5.09589
219 2 7.63276 13.5591 7.81774
220 2 8.10395 11.1056 7.02807
269 2 8.43908 14.9797 2.66795
291 2 12.4959 10.5867 5.25771
292 2 6.8672 9.43263 6.34881
293 2 8.63276 9.11482 6.66086
303 2 9.66777 10.4229 1.37267
304 2 10.4955 8.57681 1.25317
305 2 10.0944 9.33327 3.02921
306 2 10.3453 12.5286 4.68506
307 2 11.1344 11.6948 2.90267
308 2 6.804 10.4469 4.65886
309 2 6.53667 10.5041 2.76232
310 2 5.0525 10.2657 3.91344
355 2 8.25573 10.0114 5.13805
363 2 11.6959 10.7032 5.46579
361 2 8.87943 14.4777 0.925418
194 2 13.5818 8.41443 1.43124
178 3 3.97521 12.6561 4.47011
218 2 5.85757 13.2974 8.25519
336 1 2.6744 14.2898 1.23287
340 3 9.20336 11.6834 0.4487
311 2 7.94746 12.0244 8.6899
57 4 7.42627 8.44144 14.6777
62 4 5.13607 11.9888 9.27167
64 4 9.82822 10.1599 13.4013
65 4 6.28296 12.9867 14.826
326 2 13.4493 11.3559 13.6137
99 1 7.11598 12.4467 9.32845
100 1 8.90094 11.4667 12.5209
101 1 7.78184 12.0899 15.5945
319 2 7.41662 12.037 16.703
185 3 8.62046 9.50154 14.4888
186 3 10.2433 8.95896 12.4042
344 2 8.5971 14.1942 12.601
188 3 6.7967 14.5117 14.4427
322 1 12.6855 12.2725 14.2445
357 2 12.9287 12.706 17.3347
364 2 12.2483 13.0613 13.5665
365 2 12.0966 11.8846 15.1814
221 2 11.2534 10.9091 14.1259
187 3 6.11904 11.8384 13.3831
317 2 8.56654 12.9791 15.4148
278 2 4.97878 14.4367 10.1511
48 4 7.80234 15.3762 13.5733
318 2 8.09778 11.1164 15.1873
348 2 9.67828 11.8667 15.9808
312 2 6.64575 11.2403 10.3292
313 2 7.53591 13.2396 9.96923
314 2 7.81828 11.6648 12.8161
315 2 8.96385 11.0012 11.4136
316 2 9.59196 12.3258 12.788
324 2 14.6064 11.638 17.07
321 1 14.0246 12.7676 16.9166
ITEM: TIMESTEP
100
ITEM: NUMBER OF ATOMS
365
ITEM: BOX BOUNDS xy xz yz pp pp pp
-6.9345999999999997e+00 1.9702400000000001e+01 -6.9345999999999997e+00
0.0000000000000000e+00 1.5855368350000001e+01 2.0880000000000001e+00
0.0000000000000000e+00 1.7464200000000002e+01 8.7906025000000021e-01
ITEM: ATOMS id type x y z
1 4 3.23643 0.586253 2.56052
2 4 1.67282 2.25644 0.268764
4 4 2.41012 4.11494 5.33362
8 4 -0.54201 4.31536 1.51182
10 4 1.50938 5.266 8.12648
255 2 3.75293 4.62785 1.38844
21 4 4.86459 2.48362 4.51247
22 4 6.78032 2.07398 0.102652
25 4 7.33238 2.86443 6.45568
29 4 6.01812 4.53359 2.50681
32 4 6.30259 5.54271 8.11012
34 4 4.74705 7.29394 6.15197
68 1 -1.14259 6.2344 6.26835
74 1 8.56166 0.913168 3.63878
78 1 2.20915 6.34045 3.05431
79 1 4.68534 5.3387 1.3871
102 3 2.72693 1.60988 1.3861
105 3 0.642061 3.52548 0.96605
107 3 1.99358 4.69954 6.74608
108 3 -2.27465 7.3481 3.6775
256 2 5.08352 5.3494 0.370857
119 3 4.27289 1.17051 3.73255
120 3 3.53751 3.0266 5.38753
121 3 7.11613 0.90438 1.12906
123 3 6.10032 2.17957 5.57861
129 3 5.30161 3.61405 3.5955
130 3 6.70891 3.46947 1.11021
133 3 7.05567 4.13972 7.44721
135 3 3.30349 7.37106 5.28096
136 3 4.99454 5.98123 7.15854
191 2 3.26092 5.30113 4.38989
192 2 1.15506 3.65732 4.33248
242 2 7.6656 0.72619 4.32282
204 2 8.09166 1.53627 7.23363
206 2 -0.189264 6.11012 1.87491
195 2 -0.0870684 5.70474 7.93705
254 2 1.48461 6.79894 2.2391
165 3 5.79457 7.18466 4.82188
225 2 -1.31083 6.71668 7.29744
226 2 0.0304308 5.7612 6.04646
223 2 -2.05539 6.83349 1.08201
257 2 4.52655 6.36171 1.79449
260 2 2.07529 5.98549 0.866946
252 2 1.59606 5.56276 3.66231
253 2 3.20344 5.93519 2.59771
243 2 6.62433 0.586458 7.94294
328 2 4.82919 0.115992 0.665139
67 1 -1.40225 5.96333 0.525445
352 2 -1.13282 3.83111 3.63321
134 3 2.18086 6.57604 8.65259
11 4 -0.935917 7.70988 5.20829
353 2 -2.18585 4.97022 0.133611
193 2 0.966271 0.0422442 0.118017
3 4 0.889418 3.00698 10.1154
295 2 7.87115 5.68686 14.9279
7 4 3.15284 2.75729 12.0464
12 4 1.24108 4.68669 13.7774
13 4 1.07582 7.74731 13.1179
24 4 5.86254 3.57888 10.3756
264 2 4.33273 6.38306 12.0417
27 4 6.21524 2.83851 15.6386
28 4 8.61171 2.53111 11.5224
358 2 6.75834 0.764546 12.4333
354 2 1.24603 7.2549 17.1441
69 1 1.93744 4.7282 15.4911
77 1 6.8148 4.02052 14.2797
80 1 4.4372 7.06381 17.2382
82 1 5.35274 6.95958 12.3088
103 3 2.13071 2.2197 10.8099
104 3 3.555 1.58423 13.114
106 3 1.38356 4.13826 9.17556
331 2 2.85086 1.88511 15.969
110 3 2.24979 3.94126 12.755
111 3 1.14217 6.24588 13.41
122 3 4.64785 3.29676 11.4353
124 3 5.71707 1.63971 14.7525
125 3 7.53049 2.59723 16.6447
126 3 4.80329 3.70352 16.3902
127 3 7.26507 3.07241 10.9787
128 3 8.60701 1.60415 12.8413
132 3 5.88078 5.05792 9.82285
196 2 -0.384828 8.03731 12.315
216 2 7.02982 7.77183 13.0077
330 1 2.62302 1.87969 17.0385
203 2 5.51419 2.60069 9.04431
231 2 -0.806887 7.73067 10.3605
227 2 1.81059 5.7473 15.9853
228 2 3.00121 4.32451 15.3813
229 2 1.2515 3.93122 15.9679
334 2 5.1586 0.810862 11.3716
249 2 7.94498 3.75045 14.3377
250 2 6.38719 4.96504 14.8096
251 2 6.25998 3.75149 13.3713
258 2 5.10719 6.24361 16.8613
265 2 5.41714 7.11536 13.4087
263 2 6.35875 6.51979 11.7619
259 2 3.4529 7.14874 16.546
345 2 -0.0256919 3.74586 11.569
332 2 1.54446 2.03858 17.2707
244 2 -0.399183 13.6652 7.51855
14 4 -4.95605 13.1781 3.92913
15 4 -1.37428 10.2088 7.42417
17 4 -2.39347 12.8472 5.76704
23 4 1.86513 13.8259 7.77219
30 4 2.18 7.91181 4.15653
36 4 3.54798 9.57346 1.96537
37 4 0.00324761 12.484 3.98029
39 4 3.82407 9.94485 7.34011
40 4 2.77523 12.1453 5.39442
71 1 0.342533 10.92 7.54723
72 1 -2.83511 14.369 6.71852
75 1 0.177949 14.7864 7.38226
113 3 -1.22742 9.03507 6.32428
114 3 -3.76576 12.5668 4.71389
115 3 -2.21301 11.556 7.22439
131 3 0.658503 7.85192 4.69829
138 3 2.64292 9.19426 3.24194
139 3 3.48528 8.43055 0.647499
140 3 0.290624 13.4262 2.65406
141 3 -1.06602 13.0372 4.93413
142 3 3.13232 10.8694 1.27283
143 3 2.63841 9.22789 8.2267
144 3 4.97422 8.66742 6.85086
145 3 1.28002 11.9753 4.7289
146 3 3.09521 10.7244 6.12901
147 3 2.6328 13.4483 6.4471
181 3 4.65421 11.0419 8.24422
341 2 1.51484 12.8766 0.664407
209 2 -0.637003 11.1217 3.34657
232 2 0.107319 12.0019 7.0789
112 3 -4.88331 14.4611 3.09031
235 2 -2.78894 14.3537 7.89067
236 2 -3.89344 14.5622 6.27515
245 2 0.224429 15.0491 6.32066
202 2 1.14203 12.4783 8.43983
327 1 -2.45178 14.5113 1.52537
20 4 1.04931 14.9727 2.08321
329 2 -3.07168 13.6087 1.17923
38 4 2.23128 11.3638 0.101556
349 2 -1.62709 14.1961 2.20354
356 2 -2.06457 15.1477 6.29989
197 2 -2.38487 12.7054 8.44693
233 2 0.911347 10.1035 6.91954
212 2 0.889731 10.3861 0.00166029
16 4 -2.63385 12.7546 10.1204
18 4 0.198269 10.4249 14.5935
19 4 -1.04483 10.478 11.7084
31 4 5.04724 8.73622 16.7387
35 4 5.09975 8.41242 11.1386
154 3 2.48898 14.8332 8.82449
41 4 4.82534 10.7776 13.1366
42 4 1.92564 13.2808 15.2427
43 4 3.22142 12.9623 11.9324
73 1 -0.938195 10.1126 15.9864
81 1 3.29776 9.7025 16.2226
83 1 1.40065 13.05 11.5676
116 3 1.2275 8.75166 14.3369
117 3 -1.87831 11.6806 10.9155
118 3 -0.587278 10.4464 13.231
26 4 2.67654 15.6084 13.6231
148 3 5.17763 9.64481 12.1048
149 3 1.11371 11.9769 15.0807
150 3 1.69785 14.6239 14.5493
151 3 3.48567 11.6665 12.8249
152 3 3.51439 14.451 12.5846
201 2 -2.31825 8.84849 11.1384
173 3 6.25448 8.66436 15.4853
182 3 4.34391 12.7093 10.3464
137 3 3.19747 8.17264 10.5667
198 2 -2.15465 14.2431 10.7587
70 1 -1.01792 8.84587 10.6963
200 2 0.406076 9.99375 10.7119
230 2 -1.60063 9.5317 9.05261
207 2 0.631094 8.49158 9.70859
335 2 -1.46322 14.0717 12.3632
210 2 4.47155 10.1047 14.6414
211 2 3.61079 12.8741 15.2082
33 4 2.23401 8.04038 9.2259
213 2 1.82852 13.7971 16.8305
321 1 -3.49906 12.9723 17.0198
237 2 -0.737184 11.0117 16.7419
239 2 -2.00722 10.148 15.6812
169 3 6.253 8.23969 10.0997
262 2 3.69147 10.7086 15.9738
266 2 1.20574 12.5287 10.5631
267 2 1.12795 14.1236 11.613
268 2 0.947641 12.4304 12.4376
320 4 -3.51721 12.8552 15.2514
208 2 2.231 8.11702 11.894
323 3 -2.85033 14.1995 14.5288
333 1 -1.23828 15.2868 12.2099
238 2 -0.542696 9.05379 16.3148
261 2 2.49965 9.38849 15.3886
359 2 2.82661 9.55733 17.2308
189 3 4.87469 12.6237 16.1429
5 4 -2.28123 15.6504 13.7854
199 2 -4.28043 12.7244 10.2394
324 2 -2.77254 11.8153 17.0196
234 2 0.411849 10.785 8.74617
325 2 -2.81791 13.7734 17.4569
9 4 14.1528 6.92246 2.21654
47 4 13.2775 2.86493 5.72424
51 4 11.7403 4.62012 1.61223
52 4 7.1813 6.95975 3.98399
54 4 11.0937 5.16811 6.61871
56 4 9.94088 7.56047 5.29182
362 2 14.7753 1.22332 1.14549
76 1 8.60842 3.55011 5.19787
85 1 14.6806 2.99704 6.54171
89 1 11.0927 4.12889 3.25588
90 1 10.7763 2.24471 7.79947
91 1 11.3098 5.36343 8.47019
162 3 12.0449 3.17059 0.866767
163 3 13.0203 5.83868 1.9492
164 3 7.03108 5.62502 3.04217
53 4 8.90869 5.74405 0.23449
166 3 10.1859 5.31705 0.859616
167 3 12.1936 4.02382 6.08964
224 2 15.5648 5.63937 5.84074
246 2 8.24219 3.26468 4.15029
171 3 8.70325 6.74406 4.96061
172 3 11.0282 6.58525 5.86921
241 2 9.47679 0.482792 4.07886
214 2 9.49905 4.49811 6.70433
168 3 7.38514 6.75809 8.14658
360 2 10.4456 0.184631 1.38266
247 2 9.44916 2.81855 5.54924
248 2 8.80772 4.64862 5.13369
270 2 15.0128 3.49105 5.46882
271 2 13.7647 1.47584 6.85111
272 2 14.6498 3.74477 7.44805
282 2 11.2014 3.06442 3.42153
283 2 10.0136 4.45729 3.12636
284 2 11.6545 4.83957 4.03783
285 2 10.9827 1.63755 6.88145
286 2 11.6212 2.92032 8.15539
287 2 9.75224 2.68757 7.73102
346 2 7.73438 4.54152 0.388061
339 3 12.4274 0.435588 0.520741
351 2 14.9502 3.36154 2.42772
84 1 14.9275 0.225387 1.61614
176 3 8.49877 7.12522 0.759181
66 1 16.0516 3.2822 2.61825
222 2 16.4684 2.15314 2.42565
240 2 8.69388 2.03588 3.47819
269 2 14.9974 0.318259 2.73348
288 2 11.6805 6.39165 8.67807
6 4 16.0967 2.51774 14.8304
157 3 10.7228 1.46719 14.6561
46 4 10.4461 1.16575 9.36055
343 2 15.8957 3.55829 10.992
49 4 11.2739 2.68537 15.4868
50 4 14.2874 2.67445 11.3672
301 2 8.67651 5.6093 11.4655
296 2 8.09595 7.05045 16.3765
58 4 9.95852 7.66723 11.275
86 1 11.5723 4.07949 14.2345
174 3 8.87491 7.75913 10.0955
88 1 12.7966 3.36929 11.1583
94 1 11.6978 7.64895 10.5512
95 1 9.44148 5.92708 12.274
153 3 15.6414 2.96398 16.2343
289 2 12.1039 4.68073 8.8761
156 3 15.9644 1.01685 14.2576
109 3 17.2825 3.43332 14.1593
158 3 12.955 2.63544 16.3803
159 3 10.049 3.27835 16.5224
160 3 16.7982 4.21404 10.8868
161 3 14.3667 1.39496 12.4064
190 2 17.603 1.87719 9.21795
205 2 9.23394 4.05268 12.2327
273 2 12.0525 3.66095 13.2368
274 2 12.1652 4.85961 14.8535
275 2 10.5701 4.53194 13.9807
276 2 12.1815 0.959629 11.1811
279 2 11.8818 2.76254 11.6262
280 2 13.337 2.59238 9.6755
281 2 12.8469 4.48674 11.2631
155 3 9.6913 2.17347 10.4006
350 2 15.796 3.79555 13.6838
347 2 11.2329 6.72587 16.0453
297 2 11.6298 7.78046 9.42552
298 2 11.9425 6.55321 10.8912
45 4 14.3308 2.70687 17.2196
300 2 10.4209 5.28508 12.2555
294 2 9.37891 6.90667 15.0329
302 2 8.99666 6.18118 13.4049
93 1 8.27157 6.77557 15.2229
290 2 10.1548 5.21991 8.73481
44 4 6.51342 14.0829 1.30583
59 4 8.17071 8.61221 1.7896
60 4 5.54958 12.579 4.03748
61 4 7.84967 11.4292 0.251056
63 4 7.90328 12.7994 6.28918
194 2 13.611 8.34845 1.50635
215 2 7.66683 9.44595 8.21347
92 1 7.71827 9.71848 6.25538
96 1 9.84582 9.38628 2.04489
97 1 11.3155 12.2426 4.00512
98 1 6.06562 10.7873 3.83206
175 3 7.53918 8.30455 3.16915
177 3 5.98533 13.4299 2.67738
338 2 3.02166 13.389 1.39355
179 3 7.21546 9.98061 1.12993
180 3 6.85877 12.8427 0.350119
183 3 9.14539 13.1292 5.73109
184 3 6.53832 12.9318 5.47224
217 2 5.1889 9.80237 2.35237
170 3 10.187 8.86655 4.978
219 2 7.72761 13.5093 7.87013
220 2 8.01772 11.0153 6.74695
311 2 7.88187 11.9847 8.62336
291 2 11.8695 10.364 4.49532
292 2 6.69228 9.3835 6.51945
293 2 8.48004 9.02839 6.72982
303 2 9.72732 10.4384 1.36339
304 2 10.4568 8.54503 1.50409
305 2 10.1411 9.57107 3.13642
306 2 10.3621 12.6145 4.7384
307 2 11.1625 11.7372 2.92734
308 2 6.7382 10.4799 4.79644
309 2 6.58538 10.5325 2.77684
310 2 4.92241 10.3563 3.96819
355 2 7.86553 9.81207 5.12056
363 2 11.6221 10.5613 5.24009
361 2 8.83057 14.6035 1.11802
340 3 9.23449 11.6516 0.389386
178 3 3.97983 12.4295 4.38189
218 2 6.0398 13.4083 8.35555
336 1 2.68001 14.4189 1.12675
342 2 14.1906 7.92902 3.9859
357 2 10.8954 11.9757 0.0274669
57 4 7.50629 8.3568 14.5691
62 4 5.17509 12.045 9.26909
64 4 9.77503 10.1728 13.3645
65 4 6.22399 12.9965 14.7288
326 2 13.1329 10.9954 14.4472
99 1 7.1425 12.4258 9.35965
100 1 8.8823 11.3444 12.213
101 1 7.68506 12.2734 15.678
319 2 7.29251 12.1878 16.7898
185 3 8.59851 9.68767 14.5503
186 3 10.0865 8.80776 12.376
344 2 8.6871 13.9408 12.6652
188 3 6.68978 14.4572 14.284
322 1 12.5466 12.1826 14.3878
299 2 12.432 8.37154 10.978
364 2 12.1564 12.3798 13.3707
365 2 11.8698 12.4251 15.4344
221 2 11.1383 10.7559 14.1857
187 3 6.15803 11.9689 13.5212
317 2 8.3997 13.166 15.5269
278 2 4.77287 14.3573 10.4714
48 4 7.91726 15.1764 13.4579
318 2 8.06025 11.2276 15.1883
348 2 9.6153 11.905 16.0259
312 2 6.66047 11.1631 10.3145
313 2 7.67643 13.1832 9.95079
314 2 7.8166 11.54 12.678
315 2 8.91041 10.8578 11.2049
316 2 9.60967 12.2687 12.2932
55 4 7.51489 7.98162 9.12942
87 1 5.13819 15.4031 10.2176
277 2 6.11461 15.3876 9.63234
337 2 4.45379 15.3342 17.4119
ITEM: TIMESTEP
200
ITEM: NUMBER OF ATOMS
365
ITEM: BOX BOUNDS xy xz yz pp pp pp
-6.9345999999999997e+00 1.9702400000000001e+01 -6.9345999999999997e+00
0.0000000000000000e+00 1.5847436700000001e+01 2.0880000000000001e+00
0.0000000000000000e+00 1.7464200000000002e+01 8.7862050000000025e-01
ITEM: ATOMS id type x y z
1 4 3.39331 0.559499 2.42091
2 4 1.72185 2.3682 0.287877
4 4 2.53633 4.17204 5.36951
8 4 -0.629969 4.40492 1.67227
10 4 1.51339 5.29272 8.11226
255 2 3.6449 5.17453 1.57453
21 4 4.83198 2.57714 4.53283
22 4 6.76214 2.03208 0.267108
25 4 7.40845 2.87833 6.42
29 4 5.94874 4.58699 2.36055
32 4 6.28473 5.51105 8.15154
34 4 4.69774 7.37905 6.04292
68 1 -1.04762 6.34658 6.1842
74 1 8.74387 1.04852 3.64082
78 1 2.04774 6.49437 2.97002
79 1 4.67384 5.54432 1.36625
102 3 2.5835 1.61725 1.54247
105 3 0.613186 3.61972 0.913671
107 3 2.06011 4.80336 6.7161
108 3 -2.2657 7.20489 3.59846
256 2 5.08183 5.47861 0.268968
119 3 4.39208 1.18192 3.63263
120 3 3.57429 3.01894 5.49979
121 3 6.96034 0.86226 1.26482
123 3 6.0947 2.38084 5.50234
129 3 5.15158 3.69333 3.34041
130 3 6.79198 3.53851 0.878517
133 3 7.00152 4.08339 7.3653
135 3 3.32923 7.41137 5.26643
136 3 5.04507 6.01352 7.19755
191 2 3.07256 5.31984 4.22134
192 2 1.15542 3.61837 4.55515
242 2 7.85236 0.789121 4.3539
204 2 8.07993 1.45256 7.09524
206 2 -0.533345 6.29878 2.04748
195 2 -0.0867932 5.88056 7.91504
254 2 1.61259 7.0463 1.97524
165 3 5.90656 7.13995 4.97915
225 2 -1.35736 6.91831 7.2775
226 2 -0.177654 5.60632 6.15061
223 2 -2.24943 7.09271 0.480373
257 2 4.75794 6.54785 1.81809
260 2 1.96275 5.89007 0.896319
252 2 1.2689 5.82156 3.48343
253 2 2.9942 5.91631 2.66374
243 2 7.01741 0.474874 8.16939
134 3 2.19655 6.5974 8.72997
67 1 -1.57723 6.16171 0.627606
193 2 0.813623 0.209517 0.310875
3 4 0.827219 2.98971 10.1604
295 2 7.78287 5.80211 14.7512
7 4 3.18879 2.86158 12.0621
12 4 1.21866 4.74172 13.8316
13 4 1.14938 7.72867 13.2474
24 4 5.74177 3.48561 10.3207
264 2 4.3117 6.46189 11.9848
27 4 6.1698 2.82747 15.7571
28 4 8.57804 2.60392 11.6166
196 2 -0.28653 8.07141 12.2684
354 2 1.21911 6.98969 17.1298
69 1 2.08356 4.62821 15.477
77 1 6.80005 3.92602 14.3341
80 1 4.34062 6.87828 17.2464
82 1 5.24571 7.04316 12.2489
103 3 2.08101 2.14055 10.7972
104 3 3.29414 1.49405 13.1066
106 3 1.34667 4.05089 9.09517
331 2 2.70692 1.82604 16.0844
110 3 2.36404 4.04589 12.8258
111 3 1.00079 6.23462 13.6088
122 3 4.56816 3.41415 11.4726
124 3 5.40862 1.50266 14.78
125 3 7.41104 2.63261 16.7817
126 3 4.84397 3.55147 16.4913
127 3 7.12679 3.05973 10.9549
128 3 8.59084 1.48342 12.7816
132 3 5.7732 4.90415 9.5618
259 2 3.43729 6.80351 16.4962
332 2 1.46628 2.3461 17.4478
330 1 2.55852 1.96396 17.1614
203 2 5.36787 2.36128 9.1049
231 2 -0.677634 7.79457 10.6374
227 2 2.21591 5.65848 15.9323
228 2 3.05801 4.19141 15.2963
229 2 1.24202 3.92564 16.0111
334 2 5.32005 0.69372 11.0971
249 2 7.93304 3.9517 14.7066
250 2 6.32765 4.94575 14.1847
251 2 6.59341 3.15107 13.5117
258 2 5.16587 6.16464 16.9065
265 2 5.35868 7.31077 13.3744
263 2 6.20601 6.55955 11.7605
5 4 4.58015 0.766211 13.6589
216 2 6.96524 7.69653 12.9301
208 2 2.24402 7.94336 11.9536
244 2 -0.337484 13.6739 7.43398
14 4 -4.8558 13.0798 3.81725
15 4 -1.35896 10.2041 7.3543
17 4 -2.39875 12.7618 5.76779
23 4 1.92825 13.816 7.79295
30 4 2.18292 7.91788 4.28782
36 4 3.45715 9.49139 1.89203
37 4 0.0470758 12.4681 4.00388
39 4 3.71267 9.91227 7.35128
40 4 2.78658 12.1235 5.34137
71 1 0.417065 10.7218 7.55827
72 1 -2.72094 14.4498 6.49038
75 1 0.244987 14.7011 7.30635
113 3 -1.42319 9.11474 6.16853
114 3 -3.7376 12.4544 4.74578
115 3 -2.38747 11.5499 7.25868
131 3 0.546192 7.84467 4.83218
138 3 2.65135 9.04136 3.2394
139 3 3.51204 8.20794 0.754518
140 3 0.217992 13.5542 2.82018
141 3 -1.00447 12.9016 5.06789
142 3 3.12913 10.8914 1.24055
143 3 2.67266 9.16648 8.3396
144 3 5.00699 8.91388 6.76893
145 3 1.38652 11.9926 4.66275
146 3 3.04518 10.6834 6.05898
147 3 2.69912 13.5203 6.49003
181 3 4.45065 11.1005 8.21464
341 2 1.29959 12.7388 0.775449
209 2 -0.605739 11.0706 3.29924
232 2 0.255034 11.7946 6.96089
112 3 -4.65137 14.465 3.0842
235 2 -2.70314 14.538 7.67142
236 2 -3.77447 14.6836 6.12856
245 2 0.412834 15.0879 6.30843
202 2 1.32143 12.282 8.34116
327 1 -2.4366 14.3432 1.37786
20 4 0.969407 14.9647 2.18416
329 2 -3.18098 13.4905 1.21076
38 4 2.28139 11.4511 0.0813216
349 2 -1.569 14.0295 2.00103
356 2 -1.96249 15.1083 6.03284
197 2 -2.86782 12.4275 8.58367
233 2 0.998925 9.97111 6.93611
11 4 -0.951548 7.85635 5.24752
234 2 0.681007 10.8641 8.65661
328 2 -2.12227 14.9461 0.500888
16 4 -2.65752 12.6423 10.282
18 4 0.213548 10.2893 14.491
19 4 -0.954619 10.4947 11.6754
31 4 5.05314 8.5436 16.8689
35 4 5.02465 8.52449 11.0272
154 3 2.69909 14.7219 8.82063
41 4 4.81007 10.7628 13.1215
42 4 2.01443 13.0908 15.2794
43 4 3.27838 13.0277 11.9402
73 1 -0.782667 9.93736 15.9852
81 1 3.4627 9.75101 16.2633
83 1 1.43229 13.0936 11.5851
116 3 1.48689 8.76881 14.3362
117 3 -1.76614 11.5749 10.9445
118 3 -0.734925 10.4012 13.205
26 4 2.71921 15.5488 13.6537
148 3 5.07153 9.81572 11.911
149 3 1.28242 11.8702 14.9149
150 3 1.72027 14.4719 14.4859
151 3 3.51239 11.5931 12.8979
152 3 3.58436 14.3704 12.7523
201 2 -2.19582 8.64621 11.2364
173 3 6.16953 8.39125 15.4972
182 3 4.33745 12.5582 10.4192
137 3 3.21444 8.17462 10.6464
198 2 -2.13647 14.2057 10.7017
70 1 -1.04613 8.83655 10.7107
200 2 0.444767 10.0019 10.6618
230 2 -1.41626 9.40815 9.00913
207 2 0.757664 8.37453 9.97872
335 2 -1.34676 14.1524 12.2702
210 2 4.42862 9.76446 14.5223
211 2 3.72222 12.8433 15.139
33 4 2.28499 8.02224 9.31177
213 2 1.8448 13.3551 16.921
321 1 -3.56672 13.3328 16.9728
237 2 -0.497904 10.7369 16.8223
239 2 -1.88743 9.89168 15.644
169 3 6.24962 8.38994 10.018
262 2 3.94746 10.7506 15.8959
266 2 1.196 12.8895 10.5168
267 2 1.0099 14.0793 11.9305
268 2 1.11495 12.2701 12.2545
320 4 -3.58038 13.0243 15.2253
324 2 -2.6779 12.1655 16.9203
323 3 -2.8827 14.1869 14.3348
333 1 -1.22615 15.2844 12.0991
238 2 -0.318618 8.90012 16.2927
261 2 2.64232 9.32714 15.3965
359 2 2.93343 9.70668 17.2322
189 3 4.98535 12.6667 16.0923
325 2 -3.14791 14.3749 17.2659
199 2 -4.20775 12.4453 10.7734
212 2 2.97745 11.3439 17.2841
358 2 -0.144729 15.5718 12.3875
9 4 14.3093 6.83285 1.90694
47 4 13.1179 2.75883 5.86213
51 4 11.7312 4.50658 1.60038
52 4 7.2023 6.92548 4.13102
54 4 11.127 5.13213 6.80054
56 4 10.0076 7.42683 5.40639
362 2 14.9905 1.14959 1.41486
76 1 8.55818 3.642 5.13146
85 1 14.6289 3.16692 6.37743
89 1 11.0197 4.07749 3.2727
90 1 10.8021 2.18432 7.95219
91 1 11.1487 5.40418 8.62006
162 3 12.1479 3.11153 0.868429
163 3 13.0988 5.71089 1.70984
164 3 7.02434 5.58798 3.02434
53 4 9.09941 5.81979 0.201695
166 3 10.3928 5.25222 0.861611
167 3 12.166 3.9372 6.27579
224 2 15.5229 5.88735 5.68911
246 2 8.20057 3.14557 4.10375
171 3 8.64588 6.60608 5.13954
172 3 11.3476 6.50412 5.98804
241 2 9.76381 0.758944 4.11374
214 2 9.49606 4.54921 6.65792
168 3 7.41784 6.59855 8.36505
360 2 10.1095 0.237361 1.41223
247 2 9.51723 3.10094 5.61121
248 2 8.60893 4.74978 5.06297
270 2 14.7295 3.28178 5.06371
271 2 13.9333 1.68713 7.16279
272 2 14.6422 4.10291 7.04127
282 2 11.2008 2.97086 3.24124
283 2 9.93764 4.32842 3.27535
284 2 11.6549 4.62266 4.01144
285 2 10.481 1.68861 6.99125
286 2 11.9563 2.33864 7.90352
287 2 10.271 3.14977 8.16357
346 2 7.97558 4.58108 0.541375
339 3 12.5063 0.434239 0.577996
351 2 14.8331 3.69249 2.13667
353 2 15.2065 4.94549 0.561153
176 3 8.58358 7.11023 0.637652
66 1 15.8808 3.30878 2.58697
222 2 16.0481 2.19863 2.64094
240 2 8.76925 2.17044 3.25269
352 2 16.1101 3.80604 3.65302
342 2 14.4928 6.86184 4.13723
290 2 9.93192 5.13508 8.68049