ITEM: TIMESTEP
0
ITEM: NUMBER OF ATOMS
365
ITEM: BOX BOUNDS xy xz yz pp pp pp
-6.9345999999999997e+00 1.9702400000000001e+01 -6.9345999999999997e+00
0.0000000000000000e+00 1.5863300000000001e+01 2.0880000000000001e+00
0.0000000000000000e+00 1.7464200000000002e+01 8.7949999999999995e-01
ITEM: ATOMS id type q x y z
224 2 0.112289 -1.60583 6.01711 4.37789
2 4 1.2443 1.09776 2.05543 0.821746
4 4 1.00267 2.69664 4.15371 5.45913
8 4 0.784988 -0.929912 4.46745 2.08996
10 4 1.35315 1.28942 5.41212 7.89449
256 2 0.147807 3.7378 4.90561 2.46915
21 4 1.4267 4.73164 2.20839 4.63061
22 4 1.49535 6.40667 2.19466 0.191909
25 4 1.12691 6.96746 2.99677 6.43685
29 4 1.27213 6.04278 4.41516 2.83846
32 4 1.52599 5.90759 5.46805 7.98113
34 4 1.51632 5.05972 7.51747 5.92678
68 1 -0.678299 -0.931229 6.29722 5.41029
74 1 -0.648521 8.02586 0.681511 3.84258
78 1 -0.663501 1.61453 6.67381 2.91239
79 1 -0.685892 4.56355 5.66353 2.81497
102 3 -0.78212 1.92158 1.13132 1.9715
105 3 -0.758009 0.0693379 3.25516 1.48595
107 3 -0.859253 2.01501 4.85401 6.6885
353 2 0.147064 -1.51986 6.63512 0.644247
255 2 0.262873 4.19642 6.40199 3.66696
119 3 -0.802394 4.04805 1.02047 3.71383
120 3 -0.786721 3.40896 2.81453 5.70314
121 3 -0.789258 6.74922 0.820204 1.07316
123 3 -0.815549 6.05989 1.92507 5.71101
129 3 -0.865316 5.28704 3.32613 3.6428
130 3 -0.769835 6.63035 3.63823 1.23279
133 3 -0.870158 6.4563 4.29445 7.04615
240 2 0.218448 7.38785 1.59499 3.73411
136 3 -0.829548 4.87172 6.49966 7.18005
191 2 0.029862 3.69084 5.19468 4.55313
192 2 -0.0446149 1.55828 4.00113 4.23864
257 2 0.145945 4.99236 6.21586 1.84837
204 2 0.0142555 8.03267 2.15483 7.4518
206 2 -0.00760963 0.119534 5.45231 3.09422
135 3 -0.843083 3.46657 7.42136 4.82192
67 1 -0.664787 -1.74123 5.55722 0.665293
342 2 -0.0134722 -2.73378 6.7906 1.87757
225 2 0.145347 -1.60365 6.18131 6.38459
226 2 0.139971 0.151069 5.86089 5.46504
1 4 1.37621 3.04516 0.238699 2.65852
260 2 0.163833 3.54208 5.77973 1.03995
195 2 0.00953948 -0.187145 6.01611 7.25633
252 2 0.113771 1.66132 5.84758 3.74543
253 2 0.172699 2.08951 6.35101 1.87719
254 2 0.150496 0.560458 7.06512 2.75216
259 2 0.143968 1.72934 5.89284 0.255735
80 1 -0.65763 2.87318 5.96971 0.0236519
134 3 -0.854142 1.75574 6.68673 8.63276
349 2 0.270854 5.14544 0.157278 1.12625
3 4 1.26081 1.0083 2.91351 9.77807
5 4 1.31757 4.45463 1.16481 14.0295
7 4 1.49491 3.0176 3.36388 12.1643
12 4 1.03555 1.6698 5.42774 14.2467
345 2 0.104921 0.178192 4.81229 14.8522
24 4 1.29923 5.53478 3.54071 10.4738
216 2 0.0046111 6.32458 7.08432 13.4347
27 4 1.32984 5.58613 3.17415 16.1624
28 4 1.2342 8.46281 2.65417 11.3661
258 2 0.187523 5.33816 6.15368 16.7294
265 2 0.147439 4.45846 7.27704 13.5119
69 1 -0.642674 2.82419 5.59941 15.6943
77 1 -0.6881 5.85 4.66934 14.9606
106 3 -0.823988 0.906936 4.24211 8.87893
82 1 -0.658598 4.55672 6.6125 12.5665
103 3 -0.839394 2.01193 3.03872 10.9651
104 3 -0.793356 3.40749 1.96247 13.0569
358 2 0.204256 5.96126 0.888762 12.0732
295 2 0.135624 7.71007 6.1083 15.4432
110 3 -0.808085 2.3646 4.3721 13.2615
111 3 -0.791087 1.53479 6.94753 13.6115
122 3 -0.833156 4.47422 3.90243 11.5662
124 3 -0.807016 5.22185 1.96639 15.2046
125 3 -0.810656 7.0843 2.9901 16.9491
126 3 -0.781698 4.35316 3.53502 17.2044
127 3 -0.847674 7.00522 3.12488 10.9618
128 3 -0.789844 8.21324 1.43919 12.4383
132 3 -0.813094 5.60883 4.73788 9.44042
330 1 -0.65968 2.13443 1.65285 17.3944
157 3 -0.818147 10.055 1.55532 14.3716
264 2 0.24469 3.53427 6.17613 12.2488
203 2 -0.0399322 4.97659 2.2236 9.60234
263 2 0.223639 5.32367 5.81088 12.5742
227 2 0.161728 2.76822 6.73202 15.8481
228 2 0.20221 3.94894 5.19604 15.421
229 2 0.18591 2.39428 4.96757 16.5438
332 2 0.192973 2.45605 1.79236 16.2449
249 2 0.167944 6.91173 4.46778 14.5899
250 2 0.137009 5.699 5.73383 15.4571
251 2 0.193978 5.06 4.40516 14.1934
223 2 0.18041 0.754597 5.97178 17.2447
169 3 -0.815504 6.15527 7.62573 10.6417
35 4 1.32352 4.70247 8.0192 11.2759
137 3 -0.866823 3.42584 7.88183 10.3601
301 2 0.14256 8.2085 5.04857 12.7053
159 3 -0.833137 9.58738 3.18712 16.5071
57 4 0.972336 6.97534 8.13294 14.6162
190 2 -0.0267277 1.53655 1.75143 8.74919
11 4 1.20381 -0.65812 8.12577 5.22117
14 4 1.11381 -4.90624 12.4706 3.84583
15 4 1.00906 -1.36888 9.81361 7.94902
17 4 1.24954 -2.46417 12.1816 5.82161
23 4 1.05751 2.07216 13.6378 7.93763
30 4 1.33299 2.26501 8.10824 4.08179
36 4 1.28137 3.6298 9.78062 1.77518
37 4 1.25195 0.233807 12.1885 3.99087
39 4 1.51942 4.02661 9.86626 7.3149
40 4 1.56431 2.93768 12.1557 5.43678
112 3 -0.81333 -4.49941 13.883 3.34228
72 1 -0.663586 -2.76642 14.0091 6.23034
75 1 -0.652544 0.431792 14.3142 7.23964
113 3 -0.758522 -1.1483 8.77884 6.79187
114 3 -0.714568 -3.93648 11.6002 4.83717
115 3 -0.759815 -2.40743 11.361 7.24221
131 3 -0.80051 0.847123 8.52889 4.85944
138 3 -0.800956 2.64864 9.38427 3.03739
139 3 -0.832424 3.61444 8.5563 0.814607
140 3 -0.807064 0.139336 13.2784 2.7126
141 3 -0.807318 -1.10318 12.2138 4.93376
142 3 -0.848886 3.24359 11.1088 1.01421
143 3 -0.873024 3.02765 8.95814 8.02041
144 3 -0.819767 5.33567 8.98699 6.48268
145 3 -0.869495 1.59023 12.3895 4.78587
146 3 -0.855788 3.22076 10.8084 6.30468
147 3 -0.789211 2.90919 13.344 6.6821
338 2 0.225159 2.79105 13.0847 1.5709
245 2 0.200369 0.53813 14.4102 6.04095
209 2 0.0385846 0.286618 10.6247 3.33623
356 2 0.215629 -1.73903 14.4081 5.8582
108 3 -0.737813 -1.7959 8.51967 3.81395
235 2 0.116921 -2.74521 13.8748 7.39616
236 2 0.215472 -3.58613 14.6462 5.92744
181 3 -0.802465 4.81581 10.8754 8.59449
197 2 0.0718482 -3.02886 12.0925 8.50113
232 2 0.215784 1.13944 10.1135 7.88434
9 4 0.601989 -3.02655 8.01821 3.00797
329 2 0.16548 -2.75206 13.4501 1.57922
327 1 -0.663451 -2.86632 14.56 1.19579
20 4 1.09379 0.718667 14.6875 2.27402
341 2 -0.00193422 1.82484 13.102 0.12056
328 2 0.204403 -3.35943 14.5576 0.211474
331 2 0.176322 -6.69092 14.7271 0.326579
325 2 0.146756 -5.36379 12.9122 0.358171
234 2 0.119079 0.103071 11.6226 8.26761
244 2 0.119436 -0.236596 13.4478 7.66435
242 2 0.193366 0.796513 15.1048 4.8822
243 2 0.157514 0.280586 15.2704 7.76349
359 2 0.141154 0.794008 9.33623 0.0689316
16 4 0.574921 -3.60761 12.9745 9.90705
18 4 1.19669 -0.397502 10.6378 14.3198
19 4 0.869547 -1.8789 11.1758 11.352
31 4 1.05109 4.9294 8.70309 17.1455
324 2 0.172561 -1.83378 12.9136 16.6701
38 4 0.96144 4.74138 12.5594 17.1319
41 4 1.23673 4.79077 10.8442 13.1775
42 4 0.969764 1.5781 13.1344 15.0965
43 4 1.21376 2.90522 12.8463 11.9033
73 1 -0.632903 -1.84006 10.2485 15.4888
81 1 -0.675134 3.18507 9.59056 16.6573
83 1 -0.687816 1.12025 12.5331 11.5376
116 3 -0.805165 0.487188 9.2753 14.1913
117 3 -0.762344 -3.07287 12.3182 11.1926
118 3 -0.759618 -1.22546 10.9652 12.7685
238 2 0.169582 -1.44852 9.45464 16.2006
148 3 -0.827715 4.82888 9.572 12.2253
149 3 -0.789415 0.445861 12.0367 14.9685
150 3 -0.800843 1.23729 14.5406 14.5104
151 3 -0.825427 3.37049 11.6279 13.3244
152 3 -0.819686 3.09086 14.4873 12.5311
320 4 0.909613 -3.89488 13.6337 15.6405
173 3 -0.775656 5.77517 8.77787 15.4382
182 3 -0.816952 3.85626 12.4879 10.5764
334 2 0.189352 -1.90698 14.3381 12.5755
26 4 1.46051 2.2737 15.5052 13.4339
321 1 -0.6498 -2.93318 12.8548 17.0437
200 2 -0.0270802 -0.703807 11.421 10.1123
335 2 0.284348 -0.355088 14.9082 13.5673
201 2 0.0493837 -2.26524 9.59284 10.6678
208 2 -0.00161324 2.90532 9.16178 13.0414
210 2 0.0954139 5.00724 10.0504 14.7311
211 2 0.06335 3.11992 12.508 14.708
212 2 -0.0427265 3.49352 11.5556 16.5987
213 2 -0.0607065 1.96243 13.298 16.6624
13 4 0.950697 1.40607 8.46638 13.2387
237 2 0.175986 -2.23468 11.2364 16.0427
33 4 1.34375 2.41226 8.02809 9.15096
207 2 -0.0139991 1.073 8.96646 9.62849
262 2 0.166303 2.9038 10.0215 15.6682
266 2 0.125192 0.859151 11.5613 10.8435
267 2 0.151199 0.90032 13.5231 10.9147
268 2 0.2033 0.564033 12.5101 12.587
198 2 -0.061218 -2.96642 14.4948 9.62051
154 3 -0.770964 2.69887 14.7339 9.01144
323 3 -0.753275 -3.2966 14.8676 14.9153
333 1 -0.669185 -1.27115 15.2247 12.9167
261 2 0.125575 2.67654 8.5407 16.7992
196 2 -0.050335 0.91745 8.59535 11.6901
70 1 -0.635623 -2.24959 9.01022 9.20611
233 2 0.125183 1.14862 10.8049 9.74059
202 2 0.000858557 1.62671 12.2465 8.83121
231 2 0.157517 -1.64878 7.98618 9.25079
71 1 -0.676545 0.509605 10.6202 8.73498
354 2 0.235422 14.7179 5.3154 0.690233
47 4 0.718899 13.8899 3.76818 5.70874
51 4 1.14112 11.1513 4.15466 1.26302
52 4 1.44886 7.42724 6.84545 3.96909
54 4 0.947143 11.7376 5.75759 7.08354
361 2 0.15167 14.6848 0.869643 1.53838
66 1 -0.634166 15.1075 3.88564 2.79696
76 1 -0.673069 8.84457 3.07563 5.85602
85 1 -0.621827 13.4679 2.1425 5.75926
89 1 -0.662105 10.7456 4.47115 3.12251
90 1 -0.652564 11.0998 1.71878 7.7686
91 1 -0.642973 10.2972 4.83141 8.20195
162 3 -0.784449 11.0151 2.46743 0.92099
163 3 -0.762829 12.9892 4.67478 0.954141
164 3 -0.794669 7.31737 5.01617 3.63976
166 3 -0.806585 10.021 5.10959 0.450209
176 3 -0.832535 8.46463 7.30275 0.0942798
167 3 -0.767546 12.8121 4.77935 6.38273
352 2 0.293417 13.0779 4.05974 0.118361
222 2 0.152725 15.3692 2.73211 2.83498
171 3 -0.805164 9.04451 7.03425 4.72928
172 3 -0.747195 11.9559 7.06656 8.08205
285 2 0.167683 11.6351 0.78968 7.35442
214 2 0.0484345 10.0308 5.57664 6.46969
343 2 0.0234329 15.0438 4.53256 4.34443
246 2 0.175453 9.38035 2.11917 5.50156
247 2 0.158521 9.40307 3.6799 6.71083
248 2 0.219152 8.54149 3.7787 4.95862
270 2 -0.00339497 14.9202 2.93448 6.85979
271 2 0.136355 13.0877 2.05865 4.50779
272 2 0.187862 12.6617 1.92588 6.53293
282 2 0.170606 11.1546 3.50956 3.5182
283 2 0.220807 9.58299 4.57648 3.26218
284 2 0.20465 11.29 5.38916 3.44722
165 3 -0.873717 6.24323 7.15567 4.95736
286 2 0.146627 11.8116 2.54218 8.15643
287 2 0.174724 10.2195 2.18785 7.13683
346 2 0.0769484 7.36167 4.89491 0.356353
289 2 0.165525 10.5463 3.66363 7.97879
351 2 0.242734 14.205 4.25248 2.10137
219 2 0.0434807 14.7758 0.979289 5.94782
290 2 0.226372 9.24259 5.0982 8.05185
168 3 -0.779656 7.30948 6.4668 8.43581
241 2 0.159293 9.16617 0.870048 3.70291
355 2 0.264004 12.3708 7.61212 7.26023
339 3 -0.78498 12.3143 0.281985 0.24165
193 2 0.147208 16.582 1.18872 0.270992
170 3 -0.74558 11.6042 7.65772 4.56971
6 4 1.24284 15.5617 2.88415 15.3443
296 2 0.175638 7.98299 7.32688 16.9001
46 4 1.11579 10.505 1.08833 9.55531
350 2 0.193729 16.6932 3.43156 16.7407
49 4 1.35226 10.6617 2.42776 15.5951
50 4 1.06452 15.7648 2.13412 11.0215
277 2 0.174809 12.911 1.73867 10.5197
55 4 1.30331 7.43612 7.41251 9.7032
58 4 1.08728 9.7733 6.6103 11.6371
86 1 -0.665447 11.4807 3.66903 14.3969
45 4 1.41944 13.4857 2.37138 17.1425
88 1 -0.631847 14.4264 3.21982 10.663
94 1 -0.644014 11.4971 6.25312 10.9269
95 1 -0.688003 9.14151 5.61613 13.1368
153 3 -0.874916 14.0873 3.10508 15.8091
156 3 -0.838761 15.9231 1.41177 14.6906
302 2 0.172773 8.82215 6.19676 13.9966
288 2 0.1891 10.7437 5.25625 9.28293
158 3 -0.7541 11.8197 1.62702 16.5393
161 3 -0.804981 15.437 1.17264 12.2465
160 3 -0.813361 17.168 2.44459 10.3305
300 2 0.143684 9.98532 4.78854 13.5208
174 3 -0.797545 8.70677 6.89391 10.4668
205 2 -0.0134691 9.31006 3.95282 12.0824
273 2 0.229831 12.5808 3.69299 14.5393
274 2 0.138597 11.0767 4.70791 14.7173
275 2 0.163435 11.1897 3.37534 13.2915
93 1 -0.676997 8.07964 7.18057 15.7579
279 2 0.162981 13.5721 3.25165 11.4903
280 2 0.048654 14.4786 1.98465 9.59171
281 2 0.171366 14.7561 4.18822 10.2126
347 2 -0.0252669 10.7638 6.56724 15.7381
109 3 -0.794353 16.6699 3.96003 15.6767
294 2 0.165565 9.09594 7.56751 15.3959
297 2 0.269346 11.6841 6.55498 9.79707
298 2 0.125689 11.3712 5.11807 11.0819
299 2 0.191638 12.2356 6.7427 11.6201
155 3 -0.811557 9.58671 2.24102 10.2803
53 4 0.986905 10.8414 6.65293 17.3788
87 1 -0.650688 12.1574 0.821503 10.4792
44 4 1.32414 6.31219 13.8691 1.02841
59 4 1.29504 8.12761 8.32885 1.36281
60 4 1.32223 5.72997 12.518 3.83993
310 2 0.201956 5.91816 10.0022 4.17912
63 4 0.873913 7.70904 14.0498 6.00025
340 3 -0.73037 9.30062 11.5054 0.274904
362 2 0.198324 8.25255 14.2667 2.57851
92 1 -0.651208 9.82071 9.58536 5.23155
96 1 -0.663906 9.81746 9.19739 1.93464
97 1 -0.618143 11.4515 11.6715 3.16263
98 1 -0.674075 6.53087 10.7692 3.65186
306 2 0.164723 11.778 11.1594 2.13465
177 3 -0.793899 5.73296 13.2353 2.31623
363 2 0.250248 9.01443 12.6873 6.31156
179 3 -0.776585 7.36365 9.72389 1.00513
311 2 0.140544 7.35893 12.71 8.55785
183 3 -0.735056 9.2432 13.6911 6.09818
184 3 -0.779405 6.72984 13.3951 4.91228
217 2 0.0394632 5.21273 10.0497 2.38147
178 3 -0.817252 4.31309 12.381 4.49167
360 2 0.192858 3.16867 14.716 2.42902
220 2 -0.0169303 7.01812 14.0462 7.54625
336 1 -0.660205 2.52217 14.2064 1.60474
291 2 0.180691 10.4832 10.4977 4.35889
292 2 0.147473 10.0671 9.6841 6.3669
293 2 0.16636 8.67213 9.48527 5.02065
303 2 0.258958 9.72081 10.148 1.26475
304 2 0.169817 10.5441 8.40623 1.57813
305 2 0.194465 9.80333 9.37232 3.04579
218 2 0.0536462 5.23798 13.6759 8.47872
307 2 0.181581 10.4261 12.2587 3.23227
308 2 0.163886 7.49343 11.0378 4.26661
309 2 0.262506 6.87035 10.3509 2.52642
180 3 -0.769475 6.9176 12.681 0.169056
269 2 0.184765 8.55491 14.4099 0.740499
337 2 0.263751 2.58237 14.8269 0.568704
194 2 0.109414 13.0815 7.74932 3.91261
56 4 1.13453 10.3071 7.87216 5.03463
175 3 -0.869483 7.42957 7.68135 2.64822
84 1 -0.654947 7.90765 14.7082 1.57336
230 2 0.184116 14.2915 8.98508 8.67381
319 2 0.209178 7.89615 12.0654 16.1627
48 4 1.2793 8.57887 15.3783 13.6438
64 4 0.995612 9.62664 9.44123 13.0962
65 4 1.19516 6.6456 12.9376 14.3735
187 3 -0.785837 5.94172 11.9646 13.1257
99 1 -0.656916 6.74972 13.1963 9.32865
100 1 -0.667953 10.3738 11.1224 12.6109
101 1 -0.678179 8.12391 11.9695 15.0581
186 3 -0.7378 10.1853 8.14676 12.3697
185 3 -0.772348 8.1773 9.22321 13.8203
62 4 1.07806 4.97113 12.1474 9.51577
364 2 0.124651 11.5374 13.4274 15.2009
188 3 -0.754229 7.24759 14.5329 13.8368
199 2 -0.0428917 12.3559 13.1055 9.8598
326 2 0.166365 12.5398 11.618 14.9395
348 2 0.00270582 9.9425 11.7182 15.8088
365 2 0.180795 12.7718 12.9578 13.5932
221 2 0.0102811 10.8397 10.0321 14.1944
239 2 0.177915 15.0183 9.7776 14.7982
344 2 -0.030065 9.89159 14.325 13.5597
278 2 0.172914 5.77978 14.8093 9.98809
215 2 -0.00422428 7.72697 8.90361 8.9762
322 1 -0.647618 12.4777 12.7116 14.7136
318 2 0.234728 8.16592 10.819 14.6671
312 2 0.0889295 6.61254 11.9486 10.4556
313 2 0.16937 7.33215 14.0009 9.81895
314 2 0.160881 10.3293 11.8203 13.4834
315 2 0.132057 9.38766 11.2672 11.8075
316 2 0.172706 11.3535 11.1113 12.0571
317 2 0.1259 8.9445 12.7483 14.6152
189 3 -0.792194 5.58233 12.859 15.851
357 2 0.16095 14.2439 11.821 17.346
276 2 0.238347 4.74394 15.4957 11.5491
61 4 1.11371 10.0578 12.1164 17.4572
ITEM: TIMESTEP
100
ITEM: NUMBER OF ATOMS
365
ITEM: BOX BOUNDS xy xz yz pp pp pp
-6.9484691999999999e+00 1.9741804799999997e+01 -6.9484691999999999e+00
0.0000000000000000e+00 1.5863300000000001e+01 2.0921760000000003e+00
0.0000000000000000e+00 1.7464200000000002e+01 8.7949999999999995e-01
ITEM: ATOMS id type q x y z
224 2 0.128642 -1.26957 5.83218 4.40034
2 4 1.23938 1.01977 2.0392 0.846078
4 4 0.995287 2.78893 4.14241 5.4277
8 4 0.814843 -0.953225 4.32251 2.07593
10 4 1.26822 1.314 5.31725 7.91701
256 2 0.149133 3.67735 5.00595 2.49751
21 4 1.39366 4.69758 2.12456 4.60027
22 4 1.46923 6.40006 2.27153 0.096426
25 4 1.06264 6.95294 2.84178 6.39639
29 4 1.258 5.98996 4.39811 2.80783
32 4 1.50999 5.92594 5.49815 7.96473
34 4 1.50717 5.01241 7.54364 5.93735
68 1 -0.679576 -0.91964 6.21033 5.47856
74 1 -0.647381 7.76 0.925095 3.83194
78 1 -0.665267 1.54857 6.87911 2.8557
79 1 -0.693263 4.56711 5.686 2.77174
102 3 -0.76139 1.83513 1.32731 1.9477
105 3 -0.782664 -0.0598546 3.19002 1.49808
107 3 -0.84164 2.03983 4.73021 6.61432
353 2 0.131446 -1.55605 6.67797 0.935297
255 2 0.242532 4.2251 6.45155 3.55334
119 3 -0.79414 4.22081 0.884854 3.62738
120 3 -0.759633 3.2559 2.60982 5.60005
121 3 -0.758884 6.69702 0.851678 1.05473
123 3 -0.79411 6.05063 1.69886 5.80402
129 3 -0.87749 5.28401 3.29129 3.75226
130 3 -0.763825 6.29791 3.64451 1.07674
133 3 -0.831432 6.46858 4.28719 7.04176
240 2 0.224426 7.19407 1.8864 3.63043
136 3 -0.836772 4.90794 6.43329 7.03046
191 2 0.0186337 3.86686 5.18716 4.55364
192 2 -0.0418157 1.81901 4.17438 4.08829
257 2 0.159844 5.02271 6.32052 1.89084
204 2 0.0334011 8.13662 2.17347 7.51285
206 2 -0.00804229 0.138625 5.52775 2.77525
135 3 -0.811774 3.56977 7.66485 4.73747
67 1 -0.651105 -1.8465 5.55764 0.790117
134 3 -0.829585 1.98662 6.57188 8.65746
225 2 0.148897 -1.62487 5.96264 6.32415
226 2 0.153468 0.162456 5.8667 5.57476
1 4 1.32062 3.06466 0.202128 2.75237
260 2 0.179793 3.48162 5.95438 1.07282
195 2 -0.00643753 -0.197997 5.85049 7.3167
252 2 0.126968 1.65257 5.96428 3.55711
253 2 0.176728 2.01154 6.62109 1.83205
254 2 0.168465 0.5094 7.26461 2.70051
259 2 0.163083 1.7336 5.76585 0.238749
80 1 -0.660171 2.82919 6.01814 0.0922167
242 2 0.208103 7.51184 0.395562 4.8611
349 2 0.294699 5.09915 0.20146 1.06832
330 1 -0.66045 -0.0404581 0.776472 0.00841304
3 4 1.2656 0.937579 2.96499 9.92275
5 4 1.35075 4.40788 1.08158 14.1154
7 4 1.44577 3.14352 3.17751 12.2236
12 4 1.06822 1.68207 5.42855 14.1963
345 2 0.111124 0.381054 4.65638 15.037
24 4 1.26392 5.49604 3.61302 10.5113
216 2 0.00417812 6.37455 7.05014 13.3539
27 4 1.35264 5.61771 3.27169 16.1741
28 4 1.22801 8.39808 2.68271 11.4552
258 2 0.175452 5.37559 6.2215 16.7191
265 2 0.145836 4.38778 7.34413 13.4111
69 1 -0.619929 2.92501 5.73927 15.5875
77 1 -0.681317 5.94373 4.76658 15.0162
106 3 -0.829876 0.864399 4.18621 9.00023
82 1 -0.650638 4.62959 6.73741 12.4767
103 3 -0.836245 2.13473 2.89908 10.9451
104 3 -0.817521 3.38733 1.88208 13.1511
358 2 0.194679 5.8577 1.00921 12.257
295 2 0.169892 7.63466 5.90608 15.709
110 3 -0.771279 2.44395 4.36134 13.2333
111 3 -0.825975 1.39434 6.86621 13.7554
122 3 -0.788375 4.70561 3.90496 11.85
124 3 -0.799488 5.2686 2.15973 15.0553
125 3 -0.811711 6.97187 3.09456 17.0901
126 3 -0.759748 4.32344 3.58925 17.049
127 3 -0.832848 7.00831 3.29321 10.9809
128 3 -0.818104 8.20608 1.53051 12.5936
132 3 -0.799149 5.23426 4.7058 9.33318
301 2 0.168012 8.24279 4.85762 12.4392
157 3 -0.816212 10.07 1.41392 14.4928
264 2 0.250028 3.66569 6.19548 12.0321
203 2 -0.035972 4.90039 2.22398 9.91227
263 2 0.201669 5.52576 6.01178 12.6882
227 2 0.165852 2.79043 6.89689 15.6124
228 2 0.201097 4.07288 5.34237 15.3307
229 2 0.172352 2.4588 5.17221 16.4724
332 2 0.183842 2.56971 1.6321 16.4662
249 2 0.169694 7.0577 4.53871 14.7059
250 2 0.150886 5.82945 5.79203 15.3881
251 2 0.22033 5.11967 4.45237 14.2216
223 2 0.166815 0.816082 6.021 17.3619
169 3 -0.802976 6.30269 7.83029 10.4961
190 2 -0.020006 1.2854 1.65437 9.00428
137 3 -0.818438 3.42528 7.94113 10.4006
296 2 0.167904 7.52071 7.65516 16.5367
231 2 0.149823 -1.60174 7.94115 9.43596
11 4 1.27412 -0.684711 8.06012 5.2287
14 4 1.0941 -4.89841 12.449 3.91366
15 4 1.03731 -1.3726 9.80127 7.91401
17 4 1.29299 -2.34148 12.2461 5.89173
23 4 1.04218 1.98885 13.6084 7.97099
30 4 1.36557 2.2859 8.29473 3.95339
36 4 1.27172 3.60982 9.88938 1.76109
37 4 1.27957 0.123732 12.2574 3.8909
39 4 1.51749 4.08068 9.96539 7.35932
40 4 1.49848 2.95686 12.1904 5.54501
112 3 -0.804149 -4.51556 13.8962 3.51218
72 1 -0.661731 -2.71897 14.0479 6.1235
75 1 -0.667797 0.479644 14.4451 7.15135
113 3 -0.770334 -1.02355 8.98574 6.65351
114 3 -0.707387 -3.80869 11.6753 4.93873
115 3 -0.78239 -2.22473 11.4887 7.30467
131 3 -0.798627 0.818298 8.27531 4.78021
138 3 -0.811155 2.66364 9.59926 3.11851
139 3 -0.833325 3.51506 8.61944 0.820929
140 3 -0.806343 -0.110364 13.4487 2.79657
141 3 -0.810274 -1.11939 12.2686 4.87248
142 3 -0.851101 3.38455 11.1678 0.880791
143 3 -0.869336 3.14658 8.94148 8.16889
144 3 -0.802416 5.19615 9.1621 6.48405
145 3 -0.813139 1.50914 12.2595 4.63234
146 3 -0.799645 3.02146 10.737 6.21372
147 3 -0.799816 3.04919 13.2811 6.83348
338 2 0.220411 2.72906 13.2662 1.5405
245 2 0.204348 0.515854 14.671 6.04379
209 2 0.0055784 0.107417 10.8385 2.97814
356 2 0.260099 -2.00761 14.6415 5.49755
108 3 -0.762231 -1.9249 8.22409 4.06903
235 2 0.124434 -2.39232 14.1697 7.21945
236 2 0.204118 -3.78026 14.4237 6.04579
181 3 -0.838625 4.78507 11.06 8.48102
197 2 0.0667393 -2.92918 12.2222 8.51062
232 2 0.202333 1.26562 10.2801 8.03995
9 4 0.601552 -3.17233 7.90792 3.17188
329 2 0.161321 -2.85427 13.4995 1.43083
327 1 -0.651305 -2.92228 14.6282 1.22479
20 4 1.06982 0.674031 14.7597 2.35275
359 2 0.141137 0.70463 9.47937 0.0737304
244 2 0.129088 -0.255759 13.6122 7.37519
234 2 0.114985 -0.118161 11.6493 8.45133
243 2 0.165884 0.435142 15.3567 7.78985
328 2 0.186318 -3.58935 14.9357 0.354536
324 2 0.151642 -4.24115 11.9105 0.104308
16 4 0.548388 -3.45517 13.0302 9.96765
18 4 1.20179 -0.64035 10.507 14.3243
19 4 0.873094 -1.70775 11.3041 11.2544
31 4 1.01483 4.95815 8.77821 17.0705
35 4 1.29014 4.82617 8.11797 11.241
38 4 0.993724 4.87537 12.553 16.9969
41 4 1.24547 4.86907 10.9025 13.1664
42 4 1.00145 1.39879 13.0782 15.0687
43 4 1.24477 3.06557 12.9305 11.9414
73 1 -0.641218 -2.03297 10.2437 15.496
81 1 -0.666601 3.21874 9.54526 16.9042
83 1 -0.704369 1.25135 12.6347 11.4945
116 3 -0.806408 0.182483 9.16853 14.3041
117 3 -0.749319 -2.93416 12.3076 11.2935
118 3 -0.751463 -1.22393 10.9483 12.7283
238 2 0.173764 -1.55469 9.39277 16.1458
148 3 -0.812783 4.95769 9.68054 12.1815
149 3 -0.777224 0.445006 11.9795 14.8804
150 3 -0.812846 1.04516 14.4372 14.4205
151 3 -0.822406 3.41978 11.6171 13.2961
152 3 -0.816553 3.16952 14.4293 12.6456
320 4 0.92695 -3.8623 13.6061 15.6345
173 3 -0.783508 5.91078 8.99183 15.2949
182 3 -0.837205 3.93841 12.6145 10.5327
334 2 0.196375 -1.76354 14.2694 12.3512
26 4 1.42386 2.19299 15.5157 13.5216
321 1 -0.642389 -3.20521 12.758 17.1837
200 2 -0.0398924 -0.541185 11.7389 10.1353
335 2 0.296379 -0.370924 14.795 13.4946
201 2 0.0758432 -2.03998 9.73643 10.4143
208 2 -0.0151112 2.54524 9.0876 12.9644
210 2 0.0909127 5.06731 10.1888 14.6884
211 2 0.0651865 2.90206 12.4796 14.616
212 2 -0.0344539 3.73462 11.3688 16.4305
213 2 -0.0680726 1.83276 13.2107 16.7094
13 4 0.951675 1.09813 8.33226 13.3329
237 2 0.171095 -2.40112 11.1873 16.1291
33 4 1.34438 2.44495 7.99562 9.10419
207 2 -0.0217885 0.991571 8.85182 9.53447
262 2 0.140912 3.06003 9.77291 15.8034
266 2 0.138241 1.21893 11.7013 10.8427
267 2 0.156424 0.999124 13.5931 10.9571
268 2 0.209273 0.624237 12.5305 12.4367
198 2 -0.0619129 -2.83339 14.5198 9.86805
154 3 -0.749035 2.62659 14.7545 8.88045
323 3 -0.79552 -3.2232 14.8031 14.9092
333 1 -0.660464 -1.33964 15.1344 12.9135
261 2 0.117002 2.68329 8.43326 17.1639
196 2 -0.0427516 0.406046 8.30708 11.837
70 1 -0.675583 -2.14425 8.97947 9.30062
233 2 0.108875 0.7998 10.5892 9.90024
202 2 -0.00394156 1.65176 12.1466 8.84654
71 1 -0.667992 0.389308 10.5919 8.78554
341 2 -0.00959881 4.00447 13.9908 17.3823
354 2 0.244758 14.6012 5.29846 0.810289
47 4 0.71003 14.105 3.74087 5.77644
51 4 1.20126 11.1475 4.14947 1.08999
52 4 1.45458 7.56596 6.70722 4.06721
54 4 0.918676 11.8208 5.77345 7.24745
361 2 0.147675 14.7217 0.751186 1.05289
66 1 -0.660301 15.156 3.69478 2.97814
76 1 -0.659539 8.78372 2.94987 5.84347
85 1 -0.605024 13.5348 2.11195 5.83858
89 1 -0.644405 10.7425 4.56523 2.87321
90 1 -0.643253 11.0752 1.73914 7.87307
91 1 -0.656502 10.2117 4.80167 8.17078
162 3 -0.751412 10.8809 2.5447 0.97444
163 3 -0.774121 12.9324 4.7648 1.00397
164 3 -0.818608 7.27685 5.10465 3.48477
166 3 -0.790021 9.95709 5.00668 0.293944
176 3 -0.834636 8.49998 7.19743 0.217756
167 3 -0.724186 13.0363 4.74586 6.45987
342 2 -0.0035324 14.7519 6.58528 2.14619
222 2 0.173792 15.383 2.61142 2.96611
171 3 -0.836 9.11735 6.82137 4.67017
172 3 -0.754241 12.0912 7.16974 8.04186
285 2 0.164638 11.761 1.01817 7.32457
214 2 0.0757365 10.1667 5.67182 6.52044
343 2 0.0595953 15.1008 4.2973 4.22408
246 2 0.17068 9.47734 2.12464 5.53687
247 2 0.156106 9.33458 3.70399 6.75742
248 2 0.194656 8.44551 3.60136 4.87487
270 2 -0.000898718 15.1364 2.71287 6.72478
271 2 0.137675 13.0621 2.05032 4.65135
272 2 0.17619 12.5922 2.02348 6.53004
282 2 0.194462 9.93806 3.80797 3.13622
283 2 0.216333 10.3947 5.64355 2.96137
284 2 0.178553 11.7239 4.34285 3.3339
165 3 -0.818025 6.33534 7.30865 5.04422
286 2 0.136892 11.7862 2.55622 8.34479
287 2 0.175223 10.3315 2.20261 7.11702
346 2 0.0807997 7.17987 4.89145 0.334086
289 2 0.171855 10.4319 3.63002 8.13408
351 2 0.216458 14.3094 4.02052 2.25196
219 2 0.0398157 14.8267 0.875092 6.09044
290 2 0.21844 9.05967 4.92153 8.21944
168 3 -0.813776 7.24734 6.54344 8.38465
241 2 0.135374 8.93205 1.07107 3.73847
355 2 0.293387 12.2234 7.60121 7.05396
339 3 -0.799108 12.0997 0.0412539 0.240851
175 3 -0.809743 7.50898 7.60671 2.6985
170 3 -0.762684 11.6563 7.4664 4.90481
352 2 0.314342 13.1005 4.36489 0.0762199
6 4 1.24436 15.592 2.82209 15.4888
159 3 -0.829555 9.60503 3.44209 16.3758
46 4 1.07775 10.4679 1.04802 9.55358
350 2 0.182279 17.0748 3.13579 16.5209
49 4 1.30226 10.72 2.58702 15.4583
50 4 1.06848 15.6596 2.05826 10.9903
277 2 0.182629 12.9198 1.54475 10.5861
55 4 1.27534 7.61257 7.26858 9.73737
58 4 1.10893 9.87236 6.61435 11.641
86 1 -0.68792 11.566 3.93012 14.4006
45 4 1.41363 13.3942 2.20453 17.1589
88 1 -0.629373 14.2392 3.07057 10.7523
94 1 -0.652373 11.5409 6.07794 10.8266
95 1 -0.67813 9.10975 5.49267 13.0488
153 3 -0.828483 14.2035 3.27934 16.0604
156 3 -0.846911 15.9151 1.49506 14.7268
302 2 0.167027 8.71088 6.06897 13.9144
288 2 0.178385 10.7109 5.30786 9.17589
158 3 -0.780832 12.0083 1.85499 16.3337
161 3 -0.815003 15.3505 1.05391 12.1939
160 3 -0.810511 17.0426 2.61774 10.5927
300 2 0.147581 9.87459 4.75942 13.4848
174 3 -0.826305 8.69123 6.46447 10.6409
205 2 -0.00899139 9.50585 3.87289 12.0046
273 2 0.232 12.6327 4.00689 14.6773
274 2 0.147475 11.0076 4.93104 14.6995
275 2 0.152069 11.4576 3.71911 13.3456
93 1 -0.694266 7.90855 7.04256 15.5857
279 2 0.162801 13.3454 3.01011 11.4882
280 2 0.0278581 14.4352 1.86468 9.51912
281 2 0.171614 14.5144 4.09502 10.4697
347 2 -0.0291591 10.5806 6.53197 15.7406
109 3 -0.767031 16.7493 3.93875 15.7104
294 2 0.132624 9.00286 7.17339 15.319
297 2 0.245911 11.7953 6.55183 9.69471
298 2 0.145405 11.4933 4.98798 10.8519
299 2 0.17534 12.3269 6.48946 11.5702
155 3 -0.786889 9.35917 2.15639 10.2623
53 4 1.00132 10.701 6.58589 17.3599
87 1 -0.668172 12.1742 0.678739 10.4313
193 2 0.139953 18.6269 2.31675 17.4545
44 4 1.31772 6.27585 13.7776 0.93408
59 4 1.22289 8.19728 8.31766 1.39084
60 4 1.28812 5.67923 12.5832 3.88776
310 2 0.211543 5.78169 10.2144 4.21302
63 4 0.858104 7.89355 13.9914 6.03786
340 3 -0.736585 9.36574 11.5077 0.0961958
362 2 0.201936 7.41364 14.9503 2.63245
92 1 -0.676506 9.88561 9.56055 5.19717
96 1 -0.668376 9.8493 9.1365 1.76552
97 1 -0.637702 11.4561 11.6688 3.19262
98 1 -0.64878 6.50503 10.8933 3.65611
306 2 0.170455 11.6558 11.7014 2.01265
177 3 -0.77138 5.63526 13.2227 2.30902
363 2 0.254876 9.28077 12.7162 6.3474
179 3 -0.765851 7.43239 9.97602 0.992287
311 2 0.131606 7.45242 12.5063 8.56171
183 3 -0.737784 9.45123 13.7074 6.15474
184 3 -0.766095 6.91805 13.4219 4.87786
217 2 0.043442 5.20417 10.0246 2.43332
178 3 -0.822021 4.28559 12.4033 4.5509
360 2 0.178372 2.97697 14.8817 2.27736
220 2 -0.0133396 7.1097 13.9215 7.65448
336 1 -0.686521 2.40554 14.3038 1.45983
291 2 0.176327 10.5402 10.3588 4.41705
292 2 0.142518 10.2006 9.52963 6.40227
293 2 0.171936 8.80619 9.63845 5.07989
303 2 0.257857 9.73836 10.1437 1.1467
304 2 0.164047 10.6355 8.44421 1.37933
305 2 0.162441 9.94006 9.33081 2.91378
218 2 0.0671753 5.38474 13.6588 8.40596
307 2 0.178177 10.4514 12.0694 3.62285
308 2 0.167555 7.43657 11.1233 4.40306
309 2 0.267848 6.85168 10.5783 2.46981
325 2 0.125956 11.4614 12.8316 0.348487
269 2 0.193401 8.63553 14.1013 1.50692
337 2 0.242555 2.48871 14.747 0.43528
84 1 -0.672188 7.75107 14.7611 1.58629
56 4 1.12907 10.3059 7.81392 4.8819
331 2 0.158911 10.5929 14.6969 0.579468
194 2 0.117287 12.9308 7.77566 4.07421
319 2 0.211015 7.97616 11.9894 16.0376
48 4 1.261 8.46397 15.3872 13.6609
64 4 0.976267 9.60576 9.36638 13.0062
65 4 1.29871 6.60943 13.036 14.4621
187 3 -0.769438 5.97699 12.0638 12.9889
99 1 -0.649328 6.81093 13.0856 9.33801
100 1 -0.641908 10.3309 11.0092 12.4415
101 1 -0.684889 8.23028 12.0142 14.9582
230 2 0.196463 14.44 8.83975 8.97278
185 3 -0.811719 8.02338 9.24639 13.6393
62 4 1.1408 4.99973 12.182 9.52364
364 2 0.12265 11.6402 13.161 15.1178
188 3 -0.80036 7.22553 14.4798 14.16
199 2 -0.0425925 12.5163 13.1972 9.90773
326 2 0.161198 12.939 11.5537 14.8
348 2 0.00159257 9.88289 11.3594 15.707
365 2 0.201496 12.7003 12.9204 13.4422
221 2 0.00896931 10.7156 10.1525 14.1498
239 2 0.170741 14.7539 9.8714 14.7554
344 2 -0.0214048 9.72561 14.3192 13.6042
278 2 0.178397 5.78935 14.6965 9.93641
215 2 -0.00657648 8.5123 8.64256 9.36747
322 1 -0.631339 12.6622 12.6536 14.5083
318 2 0.226806 8.14438 11.002 14.4272
312 2 0.10082 6.62016 11.8418 10.5527
313 2 0.161665 7.41901 13.9318 9.73755
314 2 0.151224 10.3115 11.8625 13.216
315 2 0.127605 9.28646 11.0484 11.5849
316 2 0.170938 11.3777 10.9888 11.9277
317 2 0.142787 9.09635 12.6958 14.582
189 3 -0.867596 5.68956 12.8471 15.7328
61 4 1.1381 10.09 12.113 17.3651
276 2 0.228037 4.68141 15.4106 11.4331
357 2 0.168131 13.9986 11.7096 17.2379
180 3 -0.769227 9.00511 13.556 17.4575
57 4 1.02687 7.05652 8.28574 14.4056
186 3 -0.787604 10.2364 8.12152 12.2636
ITEM: TIMESTEP
200
ITEM: NUMBER OF ATOMS
365
ITEM: BOX BOUNDS xy xz yz pp pp pp
-6.9623384000000001e+00 1.9781209600000000e+01 -6.9623384000000001e+00
0.0000000000000000e+00 1.5863300000000001e+01 2.0963519999999995e+00
0.0000000000000000e+00 1.7464200000000002e+01 8.7949999999999995e-01
ITEM: ATOMS id type q x y z
224 2 0.13549 -1.30667 5.7539 5.03048
2 4 1.18412 1.07034 2.13757 0.809693
4 4 0.978628 2.56138 4.0765 5.34758
8 4 0.750338 -1.04343 4.52783 2.09981
10 4 1.3193 1.51401 5.33968 8.0986
256 2 0.129233 3.56849 4.94874 2.57049
21 4 1.45679 4.71764 2.13486 4.70286
22 4 1.51746 6.30159 2.39026 0.0818502
25 4 1.10344 7.00374 2.78776 6.60571
29 4 1.29672 5.88942 4.35429 2.84301
32 4 1.53143 5.89711 5.39545 7.95719
34 4 1.53926 5.1496 7.5471 5.83968
68 1 -0.682615 -0.752322 6.23157 5.90974
74 1 -0.656358 7.99259 0.810696 3.8294
78 1 -0.661647 1.3885 6.94259 2.80732