ITEM: TIMESTEP
0
ITEM: NUMBER OF ATOMS
365
ITEM: BOX BOUNDS xy xz yz pp pp pp
-6.9345999999999997e+00 1.9702400000000001e+01 -6.9345999999999997e+00
0.0000000000000000e+00 1.5863300000000001e+01 2.0880000000000001e+00
0.0000000000000000e+00 1.7464200000000002e+01 8.7949999999999995e-01
ITEM: ATOMS id type q x y z
4 4 1.04443 2.56991 4.38373 5.83618
8 4 0.718224 -0.884917 4.05366 1.39487
10 4 1.2669 1.2927 5.17737 8.51312
68 1 -0.668082 -1.52536 6.57242 6.81269
78 1 -0.648715 1.45186 6.2325 3.15176
102 3 -0.764386 2.06116 1.21058 1.42622
105 3 -0.755602 0.229822 3.13547 0.832641
107 3 -0.863966 1.81376 4.61728 7.13186
192 2 -0.0335594 1.54495 4.82491 4.58424
206 2 -0.00544933 -0.0968607 5.41722 2.19323
226 2 0.145312 -0.54339 6.02818 6.52761
252 2 0.132114 0.46674 5.91706 3.77808
253 2 0.135506 2.37604 5.48997 3.20737
254 2 0.180324 1.31903 6.94306 2.17967
195 2 0.00357064 -0.256417 5.83107 8.22541
225 2 0.172663 -1.59983 7.1696 7.83561
2 4 1.1617 1.40707 1.99138 0.223684
354 2 0.139914 -1.64646 5.77022 0.134353
190 2 -0.0157638 1.45208 1.50353 8.29992
1 4 1.27476 3.26521 0.415081 2.50907
356 2 0.257712 4.82946 0.31594 6.08933
120 3 -0.850597 3.34827 3.10186 5.56369
260 2 0.199422 3.46406 5.78071 0.900295
349 2 0.270905 5.41175 0.275588 1.19684
257 2 0.217886 5.0075 6.84696 3.08412
123 3 -0.783976 5.94111 1.93656 5.75446
121 3 -0.801701 6.98574 1.07422 1.12443
79 1 -0.658215 4.74823 5.957 2.43905
129 3 -0.880761 5.21945 3.79968 3.92837
136 3 -0.810881 5.0205 6.42325 7.04178
135 3 -0.75498 3.45508 7.31203 4.99577
191 2 0.116514 3.45597 5.79195 5.29946
255 2 0.167924 3.62161 5.60389 2.57824
240 2 0.200183 7.2848 1.78596 3.9269
130 3 -0.761751 6.30721 3.67679 1.10376
204 2 0.03663 8.37586 2.18096 7.1012
133 3 -0.883155 6.58911 4.17293 7.30062
256 2 0.155414 5.06583 6.07453 1.29626
21 4 1.44665 4.57624 2.57527 4.65989
119 3 -0.786322 4.03495 1.41136 3.52867
25 4 1.0952 7.03637 3.00316 6.38891
29 4 1.27153 6.01381 4.59577 2.83023
32 4 1.55245 6.11417 5.43621 8.0673
34 4 1.511 5.17371 7.47569 5.87398
74 1 -0.653785 7.96396 0.877385 4.1427
22 4 1.52899 6.58196 2.22861 0.121653
3 4 1.13733 1.27964 2.28215 9.85343
7 4 1.46044 3.31662 2.91327 12.1967
12 4 1.26843 1.76547 5.08771 13.9215
353 2 0.290636 0.388002 5.2245 16.1913
69 1 -0.64776 3.16647 5.34715 15.1556
103 3 -0.796849 3.08105 2.25983 10.7409
104 3 -0.78601 3.50806 1.66055 13.1991
106 3 -0.760012 0.988436 4.00933 9.52826
110 3 -0.79709 2.34238 4.01846 12.8094
111 3 -0.746611 1.7242 7.11989 13.4098
227 2 0.161856 3.18722 6.50919 15.1547
229 2 0.227227 2.7375 4.89844 16.051
193 2 -0.0188736 2.73842 1.69946 16.7139
109 3 -0.725308 0.654968 4.63188 14.6905
33 4 1.3511 2.79851 7.82495 9.21683
134 3 -0.843159 2.13828 6.50551 8.90618
137 3 -0.862334 3.97861 7.7511 10.3086
67 1 -0.623829 0.221632 5.5465 17.4376
261 2 0.14622 2.49601 8.28448 16.873
259 2 0.181134 3.84785 6.43655 17.4219
216 2 0.0279522 6.80199 7.8931 13.2737
124 3 -0.775539 5.58858 1.66616 15.0904
126 3 -0.767217 4.65676 3.6481 16.7764
80 1 -0.63739 4.92519 6.77609 17.337
127 3 -0.818922 6.91939 2.76873 10.4168
228 2 0.203413 4.27138 4.92506 14.9455
132 3 -0.81574 5.3969 4.82047 9.46966
203 2 0.0891974 4.37335 2.26875 9.80322
128 3 -0.8529 8.35573 1.37603 12.0386
249 2 0.166346 7.27076 4.362 14.5479
296 2 0.176975 7.59769 7.47323 16.4631
250 2 0.145782 5.67292 5.40867 14.9829
265 2 0.140811 5.1761 6.99993 13.0448
258 2 0.176468 5.42306 6.4004 16.4152
251 2 0.260837 5.689 4.15644 13.4924
301 2 0.160387 8.04241 5.33323 11.9419
295 2 0.148002 7.10157 6.12279 15.082
263 2 0.15919 6.9619 6.30852 12.3796
264 2 0.264851 5.22662 5.93651 11.4107
24 4 1.26183 5.48473 3.4878 10.3614
27 4 1.31964 5.90693 2.97782 15.8519
28 4 1.2354 8.41297 2.53195 11.0061
77 1 -0.681433 6.1379 4.42467 14.5646
125 3 -0.800993 7.31839 2.89159 16.7454
82 1 -0.636577 5.75547 6.75928 12.0694
122 3 -0.799552 5.02517 3.75361 11.9103
26 4 1.39364 9.31397 0.69669 13.225
14 4 1.07554 -4.62378 12.5793 3.94163
15 4 1.06534 -1.60094 10.3261 8.0241
17 4 1.22715 -2.33174 12.7771 6.16479
72 1 -0.678407 -2.79475 14.5394 6.55394
113 3 -0.788174 -1.32124 9.25346 6.90892
114 3 -0.729064 -3.84762 12.1712 5.37203
115 3 -0.775113 -1.90698 11.8566 7.65123
141 3 -0.809732 -1.22928 12.9077 4.97979
209 2 -0.0278435 -0.821163 11.1323 3.0371
235 2 0.155539 -2.67188 14.5023 7.67709
236 2 0.186366 -3.8688 14.5864 6.18519
327 1 -0.661694 -2.59018 14.716 1.22668
329 2 0.161358 -2.56907 13.6 1.56741
112 3 -0.781283 -4.2178 13.923 3.30987
11 4 1.19385 -1.26608 8.07429 5.69458
328 2 0.192524 -3.25195 14.8264 0.291386
306 2 0.148708 -4.50191 11.091 2.14016
245 2 0.216 -0.473944 14.3238 7.17495
108 3 -0.778747 -2.70715 8.01081 4.61784
37 4 1.29292 -0.190109 12.3815 3.94049
341 2 6.49914e-05 1.72693 13.0353 0.63013
142 3 -0.823259 3.06871 10.9493 1.43594
232 2 0.194887 0.575571 9.65105 8.35198
75 1 -0.663924 -0.0109947 14.2938 8.17501
154 3 -0.767729 2.71537 14.8943 8.61535
138 3 -0.798239 2.12161 8.86056 3.12051
147 3 -0.834045 1.95751 12.9308 6.85955
146 3 -0.7819 3.19655 10.5631 6.1146
178 3 -0.844062 3.503 12.8403 4.66014
145 3 -0.814056 1.07159 11.8068 4.54802
139 3 -0.782127 3.38987 8.36385 0.889285
144 3 -0.843229 5.31965 8.90959 6.442
20 4 1.04545 0.906957 14.9876 2.43198
181 3 -0.842878 4.62195 10.9873 8.25715
23 4 1.08169 1.72264 13.5918 8.22825
36 4 1.20331 3.32226 9.44121 2.10921
39 4 1.55484 4.07504 9.78702 7.22334
40 4 1.51275 2.41163 12.136 5.52695
140 3 -0.793406 0.170074 13.604 2.86369
143 3 -0.849954 3.14302 8.73974 7.97715
131 3 -0.791925 0.346237 7.8349 5.06309
30 4 1.26114 1.76927 7.79849 4.24535
38 4 0.937212 2.37649 11.4848 0.177277
359 2 0.155467 0.578693 8.76256 0.669795
217 2 0.0163965 4.86188 9.30063 2.92504
338 2 0.240732 2.85501 13.1576 2.06955
242 2 0.238676 0.59207 15.1661 4.85837
243 2 0.176884 0.140667 15.3822 8.59943
18 4 1.18784 0.00359035 10.7301 14.6137
19 4 0.922349 -1.85056 10.4216 12.0128
73 1 -0.662286 -0.398722 10.1882 16.3948
118 3 -0.75607 -1.30093 10.7116 13.431
149 3 -0.813791 0.649912 12.2593 14.7227
200 2 -0.0247427 -0.765918 10.9854 10.7992
234 2 0.129153 0.64041 10.796 9.87155
237 2 0.14118 -0.215486 10.9954 17.1693
239 2 0.164366 -1.53934 9.95071 16.2891
321 1 -0.652687 -2.72805 12.3694 17.0306
323 3 -0.772408 -3.03783 14.3411 14.8303
324 2 0.162382 -1.86595 11.5133 16.8697
231 2 0.0888263 -2.53076 9.54674 9.51302
71 1 -0.686294 -0.00380539 10.0245 9.30105
335 2 0.191663 -1.17282 13.8716 12.9197
333 1 -0.670534 -1.24619 14.986 12.5669
233 2 0.110997 -0.253337 9.13794 9.94588
238 2 0.178995 0.258914 9.24066 16.4536
201 2 -0.0346771 -1.58457 8.81578 11.5891
320 4 0.888316 -3.58878 12.9157 15.514
198 2 0.0499454 -3.97577 11.4138 8.8912
334 2 0.173872 -1.86726 15.1108 11.6562
358 2 0.290724 -0.240365 15.4725 12.4332
5 4 1.25319 -2.35575 15.6011 13.9773
244 2 0.151979 -0.505542 13.6296 8.96438
325 2 0.168017 -2.32647 13.3524 17.3989
35 4 1.29948 5.26753 8.27638 11.0239
267 2 0.120883 0.892451 11.8748 10.7393
182 3 -0.829732 4.06718 12.5253 10.502
173 3 -0.782375 5.76544 9.1794 15.4261
208 2 0.0457014 3.49336 9.00326 12.827
210 2 0.0823512 4.63921 10.2136 14.8165
202 2 0.00704776 1.79108 12.4929 9.52168
116 3 -0.801168 1.14255 9.52669 14.0137
266 2 0.210734 0.979289 12.5831 12.5521
212 2 -0.0345713 3.21181 11.2604 17.2371
211 2 0.0736635 3.15866 13.0289 14.4925
189 3 -0.80639 5.24372 12.6184 16.2221
13 4 0.980782 1.86238 8.52864 13.1091
196 2 -0.0538223 1.28287 8.74974 11.5344
207 2 -0.0136295 1.42815 8.7929 9.80403
213 2 -0.0609141 1.87033 13.7423 16.5632
262 2 0.154191 2.7021 9.93849 16.2544
268 2 0.158541 1.14416 13.8638 11.0497
31 4 1.02819 4.84509 8.67976 16.9932
41 4 1.28244 4.78924 10.9774 13.2717
42 4 0.989249 1.60833 13.4769 14.9463
43 4 1.27005 3.21305 13.0933 11.7651
81 1 -0.688437 2.97113 9.2431 17.0808
83 1 -0.679215 1.36604 12.7364 11.4417
152 3 -0.806514 3.39451 14.5966 12.3674
148 3 -0.829448 4.9029 9.70566 12.369
150 3 -0.800334 1.35419 14.8203 14.1802
151 3 -0.832848 3.53209 11.9124 13.1886
51 4 1.24983 11.5254 4.31552 1.31129
52 4 1.42273 7.79119 6.79437 3.76961
76 1 -0.677922 8.72086 3.29376 5.51495
89 1 -0.65877 10.584 4.05435 2.93825
90 1 -0.647283 11.0732 1.7154 7.07397
162 3 -0.775873 11.6733 2.8574 0.457174
164 3 -0.8584 7.43654 5.2525 3.21513
171 3 -0.795396 9.26126 6.79868 4.47256
285 2 0.194175 11.4281 0.783149 6.55858
214 2 0.0341489 10.6971 5.90487 6.49739
246 2 0.157182 9.32124 2.39469 4.99009
247 2 0.174436 9.35276 3.86623 6.3238
248 2 0.214995 8.21269 4.03965 4.66621
282 2 0.194871 11.1568 4.47811 3.82194
283 2 0.156483 10.5405 2.89971 2.94209
284 2 0.24169 9.56334 4.49305 2.80531
241 2 0.138227 9.1318 1.20099 4.35499
287 2 0.161083 10.1161 2.27197 6.53622
289 2 0.169402 10.5866 3.61229 7.64758
168 3 -0.827212 7.26802 6.37584 8.59344
290 2 0.213837 9.23915 4.97052 7.8607
91 1 -0.665832 10.3423 4.7069 7.92756
165 3 -0.851398 6.3782 7.16736 4.86086
166 3 -0.761014 9.88851 5.19271 0.479892
346 2 0.0985256 7.3367 4.71807 0.564224
286 2 0.154253 11.9442 2.42751 7.2951
339 3 -0.792741 11.88 0.117443 0.423645
224 2 0.186961 15.165 5.95139 6.59387
54 4 0.91865 12.2314 5.58971 7.33303
170 3 -0.816558 12.1907 7.46949 4.37418
84 1 -0.679273 14.0955 0.421712 2.28845
355 2 0.252827 12.6449 7.40248 7.67363
352 2 -0.0141397 15.4302 4.99437 4.49167
194 2 0.039264 13.7272 5.69784 3.68159
9 4 0.957797 13.6254 7.41997 3.86436
361 2 0.172942 13.5327 1.38612 2.06057
351 2 0.146261 13.7518 2.64334 3.71693
223 2 0.199413 14.6765 4.38497 0.418764
272 2 0.250071 14.8071 1.34046 5.79347
47 4 0.756465 14.4484 3.87658 5.44175
66 1 -0.633472 14.1978 3.79942 3.6071
85 1 -0.643554 14.8957 2.32212 6.51249
163 3 -0.73918 12.6864 5.05479 1.61495
167 3 -0.752722 13.3223 4.76785 6.41662
343 2 0.168045 14.5418 2.33668 7.59551
270 2 0.12061 16.0278 2.65277 6.50318
271 2 0.256237 13.529 4.34018 2.77347
222 2 0.0105028 15.8617 3.59555 2.99757
172 3 -0.769388 12.5762 6.70058 8.44357
269 2 0.160937 14.9532 0.216412 1.6316
362 2 0.297304 14.2726 0.216911 3.49763
46 4 1.06506 10.5418 1.268 8.94147
49 4 1.34105 10.9126 2.7505 15.5336
278 2 0.0319302 12.9485 2.30187 9.71198
55 4 1.24825 7.79468 7.72837 9.41616
58 4 1.06641 9.9436 6.96009 11.5868
86 1 -0.655531 11.3056 4.43707 14.6596
94 1 -0.680985 11.5039 5.96311 11.1061
95 1 -0.674213 8.81582 5.70944 12.675
155 3 -0.785582 9.54384 2.41256 9.79452
158 3 -0.763951 12.3691 2.38162 16.1645
174 3 -0.809705 9.08545 7.33764 10.3459
273 2 0.145324 10.3496 5.01833 14.442
274 2 0.162122 11.7821 4.14053 13.6527
275 2 0.187514 12.0169 4.96176 15.4828
288 2 0.182928 10.6 4.93234 8.98238
159 3 -0.859041 9.89542 3.2361 16.6409
297 2 0.256971 11.9805 6.31457 10.1331
298 2 0.12734 10.951 4.97281 10.9711
299 2 0.167849 12.1559 6.01505 12.0118
300 2 0.137908 9.53174 4.92433 13.0633
294 2 0.154324 8.83118 7.20852 15.0382
347 2 -0.000132638 10.5577 5.82745 15.8543
281 2 -0.00911189 12.4803 4.30462 11.6278
302 2 0.152533 8.34451 6.26042 13.6394
157 3 -0.764565 10.3766 1.65645 14.3322
93 1 -0.678394 7.72373 7.17909 15.3847
277 2 0.210223 11.6955 0.84577 10.8656
205 2 -0.0203458 8.99405 3.87963 11.824
53 4 0.994157 10.7236 6.54828 17.4189
176 3 -0.796072 10.4261 8.14072 17.3985
87 1 -0.643131 12.0983 0.870207 9.79808
279 2 0.253968 15.7304 3.70329 12.3752
332 2 0.303195 18.0511 3.03355 14.9731
161 3 -0.76439 13.7492 1.83825 12.4249
280 2 0.172474 15.1018 4.89809 10.821
6 4 1.02324 16.1243 1.18903 15.4499
50 4 0.770985 13.6691 3.06924 11.3835
160 3 -0.635703 17.9048 1.66381 10.5933
45 4 1.45491 13.8522 2.39345 16.9957
345 2 0.209061 18.078 1.29682 14.0666
330 1 -0.651222 17.8308 1.82391 15.0376
331 2 0.109712 18.3946 1.32081 15.918
88 1 -0.568667 15.0703 4.0077 11.4657
153 3 -0.741671 15.2318 2.46322 16.0042
44 4 1.21841 5.91857 14.19 1.57672
60 4 1.30127 4.93758 12.6859 4.06499
363 2 0.256106 6.77696 10.1279 2.53964
63 4 0.973449 7.14934 13.872 5.84032
98 1 -0.62275 6.49861 10.1349 3.66947
175 3 -0.850592 7.81452 7.83331 2.52112
177 3 -0.843507 5.21558 13.462 2.70967
179 3 -0.741281 7.46296 9.98461 0.788126
180 3 -0.719554 6.97835 12.9939 0.362353
184 3 -0.809444 5.87104 13.2043 5.27727
310 2 0.0728788 5.33797 10.9104 3.75711
308 2 0.152294 7.30701 10.6859 4.28149
309 2 0.234122 6.4088 9.00341 4.13341
215 2 -0.0230397 8.44921 8.80433 8.28251
218 2 0.0531072 5.30283 13.7497 8.24418
220 2 -0.0403242 8.28757 12.7045 6.22736
59 4 1.27436 8.2283 8.46738 1.14358
337 2 0.223458 2.82904 14.6508 0.832217
219 2 0.00636839 6.85744 14.3738 7.49583
336 1 -0.655156 2.62051 14.275 1.87488
311 2 0.11676 7.44597 12.5826 8.2491
183 3 -0.738661 7.69813 14.8904 5.0076
360 2 0.190444 3.17909 14.9028 2.67891
97 1 -0.61106 12.3245 11.3469 3.04745
357 2 0.184065 11.8571 11.0936 0.199143
340 3 -0.740471 9.42593 11.6454 0.00948992
292 2 0.155071 9.16963 9.91835 4.4586
293 2 0.189635 11.1002 10.1701 4.11394
56 4 1.01853 10.6098 7.82751 4.73257
303 2 0.267937 9.87235 10.3333 0.759335
342 2 -0.0103575 13.6172 7.72276 2.26552
96 1 -0.629127 9.93022 9.24227 1.40193
304 2 0.177966 10.6568 8.47163 0.954867
305 2 0.177995 10.0138 9.44968 2.65038
230 2 0.184077 13.908 9.20628 8.02278
291 2 0.039499 10.549 8.96424 6.26744
307 2 0.152774 11.1617 11.5833 2.90901
92 1 -0.640358 10.2416 9.51841 4.68967
57 4 1.03444 7.24199 8.85936 14.6605
65 4 1.13362 6.20074 12.9818 14.792
99 1 -0.651576 6.82179 13.1803 9.04453
101 1 -0.684007 7.89972 12.4194 15.2675
185 3 -0.799663 8.47235 9.74185 14.3216
187 3 -0.779423 6.06147 11.8891 13.3154
188 3 -0.743873 6.1756 14.7803 14.1579
62 4 1.06529 5.0144 12.1638 9.22922
312 2 0.0711284 6.66505 11.7637 9.96187
313 2 0.169051 7.46815 13.8052 9.71688
317 2 0.156446 8.49518 13.362 14.8338
318 2 0.264927 8.10257 11.3079 14.8015
319 2 0.199908 7.67675 12.3931 16.4294
344 2 0.0107866 7.69368 14.4213 12.0053
350 2 0.0920255 9.26798 14.768 16.6956
276 2 0.184454 5.84605 14.937 9.54152
314 2 0.182655 8.80328 11.2685 12.3628
169 3 -0.830305 6.58387 8.46785 10.1648
48 4 1.30151 7.19205 15.4797 13.2598
156 3 -0.798611 8.53707 15.5753 14.0608
186 3 -0.744666 10.4982 8.33642 12.6782
326 2 0.186957 13.1921 11.5237 13.9232
348 2 0.00325911 9.76966 11.9815 15.6664
315 2 0.173743 10.0418 10.3972 11.1448
365 2 0.135515 11.8447 12.6602 14.9552
364 2 0.171759 12.4612 10.8873 15.6029
16 4 0.667595 13.2334 10.5943 10.5789
322 1 -0.667824 12.6766 11.7971 14.9563
199 2 -0.0197396 11.6182 11.089 10.9644
64 4 0.914387 10.1069 9.73387 13.3761
221 2 0.00265181 11.4145 10.3134 14.3655
100 1 -0.668117 9.97031 11.0225 12.0346
316 2 0.144108 10.6721 11.8997 12.2285
70 1 -0.641003 13.9716 9.66706 9.04539
197 2 0.0726563 12.887 8.79259 10.2102
117 3 -0.78185 14.2719 10.7469 11.7988
61 4 1.06846 10.1382 12.3558 17.3152
ITEM: TIMESTEP
100
ITEM: NUMBER OF ATOMS
365
ITEM: BOX BOUNDS xy xz yz pp pp pp
-6.8996716000000013e+00 1.9702400000000001e+01 -6.8996716000000013e+00
0.0000000000000000e+00 1.5863300000000001e+01 2.0880000000000001e+00
0.0000000000000000e+00 1.7464200000000002e+01 8.7949999999999995e-01
ITEM: ATOMS id type q x y z
4 4 1.00655 2.42734 4.31242 5.69066
8 4 0.733469 -0.715777 4.11694 1.29869
10 4 1.25751 1.2615 5.16414 8.40557
68 1 -0.655757 -1.52516 6.67431 6.81704
78 1 -0.681424 1.52469 6.03047 3.15059
102 3 -0.790303 2.07409 1.2626 1.50539
105 3 -0.799624 0.29805 3.08174 0.826031
107 3 -0.8516 1.75769 4.51414 7.05187
192 2 -0.0372328 1.31987 4.48838 4.39716
206 2 -0.0083445 0.104351 5.47227 1.99392
226 2 0.128812 -0.661329 6.04118 6.36812
252 2 0.122565 0.490015 5.7306 3.60208
253 2 0.137548 2.35771 5.21813 3.08784
254 2 0.155828 1.41941 6.58935 2.07586
195 2 -0.00531212 -0.298214 5.77404 8.13369
225 2 0.140166 -1.29932 7.17748 7.87109
2 4 1.21859 1.30673 1.92162 0.28398
354 2 0.132902 -1.45068 5.88153 0.0423355
190 2 -0.00780321 1.34357 1.37578 8.36762
1 4 1.33303 3.14865 0.500707 2.53331
356 2 0.286965 4.89703 0.336328 6.33227
120 3 -0.827983 3.37731 3.08384 5.57792
260 2 0.193766 3.36928 5.73809 0.719299
349 2 0.285585 5.42944 0.278936 1.30106
257 2 0.20869 4.5397 6.52212 3.22692
123 3 -0.778473 5.88472 1.70178 5.70708
121 3 -0.790982 6.99712 0.969693 1.16542
79 1 -0.68431 4.54518 5.74154 2.4028
129 3 -0.855108 5.33971 3.54824 3.70654
136 3 -0.815061 5.06037 6.2272 6.93052
135 3 -0.773609 3.45155 7.26197 4.9543
191 2 0.11909 3.34382 5.75424 5.38637
255 2 0.158827 3.52526 5.09492 2.39053
240 2 0.205013 7.54228 1.85361 3.45207
130 3 -0.780412 6.37322 3.59993 1.15083
204 2 0.02815 8.27285 2.05951 7.17674
133 3 -0.830568 6.6493 4.14304 7.15859
256 2 0.174311 4.8713 6.21712 1.42714
21 4 1.44772 4.5911 2.50466 4.67774
119 3 -0.781874 3.86998 1.38844 3.6431
25 4 1.04561 7.02747 2.85031 6.38049
29 4 1.30251 6.00664 4.56828 2.72497
32 4 1.49255 6.18251 5.51575 7.99667
34 4 1.48403 5.16899 7.40207 5.83984
74 1 -0.660631 8.11975 0.920826 3.89683
22 4 1.52753 6.57253 2.25021 0.210571
243 2 0.183322 7.23615 0.476829 8.70595
242 2 0.208463 7.57239 0.36836 4.77985
67 1 -0.615955 -1.81323 4.72398 0.00484016
3 4 1.13695 1.31267 2.33041 9.83667
7 4 1.46513 3.35904 2.78203 12.1183
12 4 1.20337 1.74072 5.05457 14.0123
353 2 0.297222 0.422394 5.08287 16.2846
69 1 -0.656331 3.16775 5.34314 15.1775
103 3 -0.778994 3.21169 2.26302 10.531
104 3 -0.819186 3.58562 1.57035 13.1742
106 3 -0.750276 0.962603 4.06799 9.49627
110 3 -0.73633 2.36496 3.8639 12.6404
111 3 -0.736929 1.65206 7.00558 13.419
227 2 0.17531 3.19913 6.46724 15.1828
229 2 0.224556 2.74757 4.90919 16.1062
193 2 -0.0305414 2.34188 1.68677 17.0071
109 3 -0.731314 0.66297 4.57634 14.8126
358 2 0.258378 6.8115 0.699486 12.8439
134 3 -0.812483 2.10043 6.4379 8.86288
122 3 -0.795617 4.95997 3.70255 11.9128
301 2 0.168754 7.78873 5.54683 11.8816
26 4 1.43968 9.36896 0.711966 13.3752
259 2 0.163896 3.75287 6.45712 17.2307
82 1 -0.67324 5.56407 6.88054 12.0759
124 3 -0.806333 5.48729 1.70572 15.0728
126 3 -0.778141 4.51851 3.39743 16.7169
80 1 -0.643145 4.86556 6.78544 17.1756
127 3 -0.860805 7.01543 2.84318 10.3618
228 2 0.203563 4.21686 4.89258 14.9059
132 3 -0.806261 5.49714 4.86505 9.50796
203 2 0.0955286 4.51294 2.43991 9.51489
128 3 -0.816313 8.53091 1.63621 12.1673
249 2 0.168823 7.31119 4.35627 14.5352
296 2 0.17948 7.7415 7.38388 16.5334
250 2 0.149221 5.724 5.3509 15.0627
265 2 0.148005 4.98316 7.09251 13.0638
258 2 0.163432 5.46574 6.33417 16.2704
251 2 0.249569 5.71027 4.13229 13.526
5 4 1.28246 4.62353 0.719256 14.0012
295 2 0.147698 7.25945 6.04563 15.1219
263 2 0.168613 6.7359 6.5476 12.2559
264 2 0.233119 4.94373 6.03626 11.4955
24 4 1.26017 5.55318 3.52933 10.3686
27 4 1.32591 5.89221 2.98371 15.8854
28 4 1.25691 8.44224 2.62116 10.9265
77 1 -0.690222 6.16327 4.40869 14.6182
125 3 -0.794291 7.27181 2.89819 16.9178
216 2 0.00639788 6.75847 8.07677 13.1388
14 4 1.12318 -4.45766 12.6774 3.9268
15 4 1.04857 -1.65106 10.3891 8.13415
17 4 1.23379 -2.44507 12.783 6.34362
72 1 -0.680101 -2.64601 14.5697 6.82606
113 3 -0.762257 -1.45496 9.46539 6.82103
114 3 -0.743632 -3.96848 12.3105 5.38724
115 3 -0.780792 -2.11265 11.8675 7.72411
141 3 -0.785429 -1.2319 12.79 5.16404
209 2 -0.00646291 -1.03532 11.1497 3.19883
235 2 0.168124 -2.33544 14.4254 7.92407
236 2 0.173821 -3.77846 14.7033 6.68649
327 1 -0.661183 -2.53007 14.7187 1.36228
329 2 0.167571 -2.42588 13.6855 1.91587
112 3 -0.793835 -4.42089 14.0778 3.29967
11 4 1.17586 -1.18265 8.17672 5.73423
338 2 0.221599 2.86774 12.9964 1.93328
306 2 0.154138 -4.52163 10.8526 2.49318
245 2 0.201207 -0.0635392 14.5874 7.01083
108 3 -0.755796 -2.67482 7.88639 4.71455
37 4 1.30345 -0.214113 12.3839 4.01364
341 2 -0.0157107 1.40893 12.7106 0.696047
142 3 -0.819864 3.2222 10.8162 1.41322
232 2 0.165597 0.61573 10.2321 8.43845
75 1 -0.680983 0.167059 14.4924 8.14202
154 3 -0.78953 2.89492 14.7923 8.68524
138 3 -0.772918 1.95433 8.92439 3.09659
147 3 -0.824052 2.14685 12.8232 6.86959
146 3 -0.850519 3.35777 10.6574 5.97391
178 3 -0.840566 3.36895 12.8876 4.46203
145 3 -0.804272 0.972721 11.6729 4.62463
139 3 -0.774849 3.5411 8.28655 0.967808
144 3 -0.835928 5.2057 8.90295 6.45996
20 4 1.04862 0.847292 14.7447 2.43295
181 3 -0.766406 4.80648 10.934 8.46141
23 4 1.07825 1.87317 13.691 8.19483
36 4 1.18168 3.3573 9.38191 2.19004
39 4 1.53757 4.07858 9.81532 7.11333
40 4 1.49493 2.44173 11.9579 5.5064
140 3 -0.845811 -0.0583064 13.499 2.87742
143 3 -0.833125 2.96724 8.78263 7.78045
131 3 -0.760549 0.384535 7.97743 4.96111
328 2 0.18338 -3.05617 14.699 0.334162
38 4 0.973219 2.5055 11.4597 0.182373
359 2 0.16673 0.548678 8.92794 0.449972
217 2 0.0146966 4.69271 9.33104 3.29762
244 2 0.156354 -0.405662 13.6371 8.67551
336 1 -0.652435 2.52613 14.0565 1.57304
30 4 1.22248 1.81394 7.70049 4.11278
18 4 1.18175 0.0232152 10.7032 14.5141
19 4 0.922614 -1.82263 10.554 12.1367
73 1 -0.643281 -0.64651 9.98394 16.1567
118 3 -0.796075 -1.32454 10.9773 13.542
149 3 -0.787476 0.892143 12.1439 15.048
200 2 0.003138 -0.738295 11.2219 10.9852
234 2 0.120184 0.865174 10.6756 10.1995
237 2 0.155907 -0.338054 10.6868 16.9675
239 2 0.172912 -1.78348 9.78418 16.0073
321 1 -0.64368 -2.64142 12.4741 16.9915
323 3 -0.737753 -3.0951 14.2163 14.766
324 2 0.168727 -1.92137 11.4796 16.7288
231 2 0.0933767 -2.58909 9.43446 9.50841
71 1 -0.683527 0.0302221 10.3242 9.44573
335 2 0.218409 -0.775766 13.9033 13.1896
333 1 -0.651188 -1.02878 14.9455 12.8226
233 2 0.0946819 -0.403872 9.34455 9.73154
238 2 0.196807 -0.0363185 9.0397 16.1894
201 2 -0.0381852 -1.43123 8.92149 12.0789
320 4 0.898954 -3.64706 12.9309 15.5473
151 3 -0.808668 3.43484 11.88 13.3031
334 2 0.160993 -1.68981 14.9782 11.8364
150 3 -0.826804 1.48631 14.6926 14.2936
325 2 0.160825 -2.04995 13.4544 17.2716
117 3 -0.803514 -3.2457 10.7958 11.5792
137 3 -0.829031 3.86401 8.08961 10.0365
35 4 1.28008 5.16623 8.26895 10.8873
267 2 0.132163 1.37022 11.7392 10.9804
182 3 -0.803925 4.16263 12.8304 10.5367
173 3 -0.758465 5.87583 9.14667 15.4931
208 2 0.0677334 3.16703 8.90802 12.4255
210 2 0.0645404 4.70894 10.1657 14.8343
202 2 0.0142069 1.73539 12.6345 9.54251
116 3 -0.786251 1.06131 9.41406 14.0108
266 2 0.196841 0.944849 12.833 12.6071
212 2 -0.0312881 3.38447 11.293 17.1701
211 2 0.0728917 3.3718 12.7945 14.7655
148 3 -0.77478 4.60064 9.66772 12.1372
13 4 0.939128 1.61945 8.3663 12.9252
196 2 -0.0595364 0.624213 8.38116 11.5779
207 2 -0.0346977 1.22002 8.79301 9.74242
213 2 -0.049636 2.19253 13.9056 16.6481
262 2 0.155122 2.93044 9.99695 16.1299
268 2 0.153156 1.14634 13.7588 10.8859
31 4 1.03068 4.91133 8.69862 17.0486
41 4 1.18818 4.74402 10.9131 13.3445
42 4 1.00562 1.84118 13.4135 15.0922
43 4 1.2677 3.29821 13.1398 11.8968
81 1 -0.695395 3.06289 9.31681 17.0349
83 1 -0.665534 1.43805 12.7861 11.5282
152 3 -0.803389 3.46937 14.637 12.4938
33 4 1.29395 2.61455 7.99369 9.02861
261 2 0.150923 2.59957 8.34415 16.8211
51 4 1.22541 11.4167 4.35047 1.35987
52 4 1.45085 7.62106 6.80983 3.94313
76 1 -0.657486 8.74658 3.15934 5.63528
89 1 -0.652377 10.837 3.77249 3.12995
90 1 -0.665201 11.2615 1.84523 7.18774
162 3 -0.763602 11.8224 2.84426 0.536225
164 3 -0.84648 7.34146 5.25558 3.2504
171 3 -0.791876 9.26051 6.93596 4.63698
285 2 0.166863 11.6718 0.972565 6.58949
214 2 0.0513986 10.5148 6.0466 6.40282
246 2 0.155744 9.29719 2.16613 5.1879
247 2 0.170753 9.42588 3.80573 6.45374
248 2 0.199825 8.25333 3.8672 4.76955
282 2 0.182483 11.7611 3.90319 3.84469
283 2 0.167628 10.6318 2.66531 2.89706
284 2 0.208386 9.93613 4.35009 3.46724
241 2 0.149825 9.22435 1.20463 4.15183
287 2 0.172806 10.3821 2.35666 6.60865
289 2 0.172202 10.7422 3.7575 7.71443
168 3 -0.82862 7.38813 6.52087 8.3594
290 2 0.207053 9.30924 5.01126 7.83152
91 1 -0.666629 10.464 4.88693 7.8624
165 3 -0.895681 6.46173 7.19981 4.86776
166 3 -0.768318 9.8666 5.28271 0.517059
346 2 0.0947444 7.38158 4.72136 0.455255
286 2 0.162409 12.0489 2.55472 7.49738
339 3 -0.811119 11.9101 0.204347 0.430251
224 2 0.200792 14.9963 6.29257 6.67822
54 4 0.948423 12.1869 5.77332 7.10966
170 3 -0.764068 12.1659 7.57883 4.2775
84 1 -0.668172 14.2072 0.428259 2.13693
355 2 0.24398 12.8378 7.54948 7.51701
352 2 -0.00796348 15.6034 4.78502 4.67509
194 2 0.0311955 13.9627 5.6401 3.57013
9 4 0.899698 13.7987 7.33801 3.79006
361 2 0.189281 13.8256 1.41174 1.82722
351 2 0.152975 13.9146 2.75534 3.60058
223 2 0.185618 14.7634 4.33067 0.617151
272 2 0.247631 14.8644 1.42468 5.84897
47 4 0.73041 14.4226 3.80108 5.54055
66 1 -0.625738 14.4376 3.79335 3.4734
85 1 -0.641988 14.824 2.35887 6.58355
163 3 -0.708477 12.6128 5.06553 1.57878
167 3 -0.750814 13.1528 4.78442 6.33908
343 2 0.161746 14.1178 2.2799 7.49492
270 2 0.101435 16.0842 2.85701 6.71967
271 2 0.238309 13.69 4.30976 2.63155
222 2 0.0436509 15.9212 3.49149 2.897
172 3 -0.757756 12.6884 6.79683 8.27341
362 2 0.281497 14.3757 0.28544 3.34594
46 4 1.07001 10.7039 1.18667 9.02993
49 4 1.30258 10.8299 2.97581 15.5387
278 2 0.0289769 13.1105 2.30715 9.99396
55 4 1.21482 7.8252 7.82499 9.30155
58 4 1.05738 9.9889 6.98585 11.656
86 1 -0.66707 11.1807 4.48723 14.4627
94 1 -0.662016 11.5503 6.11995 10.9476
95 1 -0.66467 8.63043 5.85371 12.5874
155 3 -0.783475 9.66557 2.27429 9.88219
158 3 -0.741344 12.2433 2.31536 16.1873
174 3 -0.777397 9.0048 7.44962 10.4277
273 2 0.150942 10.4323 5.35255 14.3344
274 2 0.160228 11.3112 3.84373 13.4302
275 2 0.172573 12.2472 4.76565 14.8514
288 2 0.176063 10.8076 5.23736 8.88473
159 3 -0.854884 9.79809 3.4997 16.5861
297 2 0.25282 11.9441 6.40422 9.88016
298 2 0.105305 10.9472 5.04087 10.914
299 2 0.160973 12.344 6.05816 11.7438
300 2 0.125194 9.51849 5.12224 12.8333
294 2 0.165243 8.965 7.05388 15.0995
347 2 0.00434434 10.5812 5.88758 15.7527
281 2 -0.0114048 12.4899 4.43807 11.5021
302 2 0.167577 8.24494 6.32462 13.5267
157 3 -0.758539 10.1441 1.80739 14.3291
153 3 -0.765544 15.0816 2.2961 15.996
277 2 0.230813 11.8042 0.732728 10.9982
205 2 -0.0010886 8.79189 4.19299 11.5611
53 4 0.999527 10.6945 6.57384 17.3355
176 3 -0.814295 10.3284 8.10086 17.4127
87 1 -0.645595 12.2285 0.860076 9.98658
279 2 0.255839 15.8529 3.49043 12.5246
332 2 0.298558 17.8962 2.9622 15.009
161 3 -0.711682 13.4775 2.05229 12.8642
280 2 0.166724 15.4323 4.53403 10.7732
6 4 1.05465 16.0116 1.14567 15.4239
50 4 0.741953 13.6107 3.13391 11.6454
160 3 -0.640063 18.1053 1.64859 10.7152
45 4 1.47544 13.8041 2.38519 17.0553
345 2 0.209501 17.9768 1.30656 14.0626
330 1 -0.675286 17.7309 1.78 15.0937
331 2 0.133332 18.3634 1.35943 15.8679
88 1 -0.560087 15.2091 3.85774 11.6888
93 1 -0.675425 7.88533 7.08015 15.408
44 4 1.20984 6.03357 14.2437 1.42248
60 4 1.27944 4.8593 12.7408 4.0039
363 2 0.259585 6.72122 10.1973 2.53985
63 4 0.93449 7.28768 13.9326 5.71287
98 1 -0.635192 6.3883 10.3214 3.66963
175 3 -0.811552 7.64974 7.87767 2.6667
177 3 -0.805881 5.32179 13.4629 2.61205
179 3 -0.726438 7.36243 10.0389 0.722326
180 3 -0.728811 7.17102 13.0315 0.32868
184 3 -0.789658 6.02397 12.9533 5.10445
310 2 0.0914163 5.11412 11.0013 3.68093
308 2 0.190548 7.19647 10.859 4.1777
309 2 0.239812 6.29133 9.37133 4.12936
215 2 -0.0163304 8.46229 8.96838 8.27321
218 2 0.0640429 5.28372 13.7169 8.20839
220 2 -0.0149986 8.60473 12.978 6.147
59 4 1.20577 8.21234 8.34272 1.18372
337 2 0.199875 2.42891 14.2746 0.449485
219 2 -0.00447384 6.98042 14.5611 7.31663
340 3 -0.732148 9.38674 11.5517 0.124834
311 2 0.141674 7.25375 12.6359 8.03155
183 3 -0.729568 7.84894 14.9877 4.9695
360 2 0.199471 3.18577 14.8734 2.12519
97 1 -0.622139 12.3655 11.4376 3.13876
357 2 0.174956 11.9471 11.4201 0.252146
92 1 -0.646322 10.141 9.5421 4.632
292 2 0.178748 9.06395 9.67834 4.43987
293 2 0.199628 10.8894 10.31 4.10858
56 4 1.03659 10.5617 7.88108 4.67698
303 2 0.273225 9.78236 10.1744 0.819593
342 2 -0.0148573 13.9627 7.65444 2.14777
96 1 -0.654362 9.90806 9.16224 1.45291
304 2 0.176586 10.5884 8.35005 0.982772
305 2 0.189221 10.0198 9.37977 2.63229
230 2 0.195787 13.8834 9.22381 7.95464
291 2 0.0454208 10.3778 9.03536 6.26015
307 2 0.177625 11.339 11.7657 2.7664
269 2 0.15576 8.22372 14.9797 1.49891
57 4 1.01116 7.29663 8.65861 14.6532
65 4 1.24158 6.12192 13.0829 14.7956
99 1 -0.673232 6.81969 13.2419 8.81892
101 1 -0.672463 7.93055 12.5874 15.3309
185 3 -0.760149 8.55099 9.6147 14.5574
187 3 -0.803678 5.93193 11.9023 13.4197
188 3 -0.778287 6.06079 14.5882 14.3334
62 4 1.04595 5.14523 12.2467 9.30793
312 2 0.0695519 6.88604 12.1431 10.139
313 2 0.153607 7.50729 14.1056 9.05825
317 2 0.168133 8.73752 13.2467 14.9823
318 2 0.235097 8.14789 11.4254 15.016
319 2 0.202479 7.70955 12.6959 16.4972
344 2 -0.00674585 7.05166 14.4704 11.9018
350 2 0.0945771 9.30605 14.7987 16.6387
276 2 0.176299 5.87195 14.8865 9.55726
314 2 0.180965 8.75647 11.0677 12.1206
169 3 -0.780133 6.5472 8.56286 9.95138
48 4 1.18276 7.07641 15.4015 13.2958
156 3 -0.782114 8.53803 15.4397 13.9895
186 3 -0.760649 10.4135 8.2143 12.7528
326 2 0.161895 13.2884 11.4347 13.9918
348 2 0.00132763 9.81459 12.0654 15.7396
315 2 0.170382 9.97393 10.4028 10.9188
365 2 0.135655 11.8369 12.8633 14.6722
364 2 0.168236 12.1034 11.1501 15.715
16 4 0.683644 13.2178 10.6619 10.5401
322 1 -0.648203 12.5408 11.9085 14.9469
199 2 -0.0234777 11.6487 10.8531 11.1985
64 4 0.911262 10.0419 9.65704 13.4183
221 2 -0.000828995 11.3618 10.3875 14.331
100 1 -0.665934 9.80193 10.7489 11.9319
316 2 0.120673 10.5529 11.6165 12.2631
70 1 -0.626227 13.9868 9.7106 8.95923
197 2 0.0580981 12.8164 8.88794 10.1557
198 2 0.0696733 13.5333 11.3982 8.83009
61 4 1.13947 10.0953 12.2481 17.4085
189 3 -0.831344 5.25932 12.7369 16.2816
ITEM: TIMESTEP
200
ITEM: NUMBER OF ATOMS
365
ITEM: BOX BOUNDS xy xz yz pp pp pp
-6.8647431999999995e+00 1.9702400000000001e+01 -6.8647431999999995e+00
0.0000000000000000e+00 1.5863300000000001e+01 2.0880000000000001e+00
0.0000000000000000e+00 1.7464200000000002e+01 8.7949999999999995e-01
ITEM: ATOMS id type q x y z
4 4 1.00895 2.54818 4.39743 5.76926
8 4 0.705852 -0.772272 4.21643 1.28558
10 4 1.26782 1.19155 5.2145 8.31838
68 1 -0.680313 -1.37375 6.62217 6.84413
78 1 -0.670881 1.61165 6.02493 3.13843
102 3 -0.79185 2.07798 1.30653 1.68984
105 3 -0.751329 0.108263 3.01808 0.771024
107 3 -0.86802 1.52388 4.53757 6.96442
192 2 -0.0197203 1.53058 4.45148 4.38124
206 2 -0.0157672 0.0802785 5.51169 2.02318
226 2 0.137964 -0.392631 6.05074 6.37153
252 2 0.122107 0.57057 5.81353 3.70476
253 2 0.132478 2.44204 5.15004 3.12977