ITEM: TIMESTEP
0
ITEM: NUMBER OF ATOMS
365
ITEM: BOX BOUNDS xy xz yz pp pp pp
-6.9345999999999997e+00 1.9702400000000001e+01 -6.9345999999999997e+00
0.0000000000000000e+00 1.5863300000000001e+01 2.0880000000000001e+00
0.0000000000000000e+00 1.7464200000000002e+01 8.7949999999999995e-01
ITEM: ATOMS id type x y z
1 4 3.41058 0.555281 2.48913
2 4 1.90434 2.34943 0.235456
4 4 2.44383 4.1686 5.41898
8 4 -0.48015 4.29628 1.50091
10 4 1.43042 5.33588 8.14441
255 2 3.69372 4.83525 1.79554
21 4 4.69477 2.44809 4.68156
22 4 6.89522 2.0625 0.037517
25 4 7.26177 2.77516 6.46498
29 4 6.02462 4.41641 2.50231
32 4 6.2368 5.49153 8.10483
34 4 4.81604 7.43045 6.12431
68 1 -1.2336 6.23579 6.10175
74 1 8.39686 0.928491 3.75786
78 1 2.14109 6.28172 2.95587
79 1 4.75868 5.3327 1.58218
102 3 2.80053 1.70526 1.4336
105 3 0.668234 3.45818 0.791747
107 3 1.96702 4.74658 6.76364
108 3 -2.3387 7.3902 3.58503
256 2 5.17039 5.15113 0.462709
119 3 4.23436 1.16921 3.72951
120 3 3.38561 2.91456 5.65613
121 3 7.14964 0.810272 1.11948
123 3 6.03037 2.09096 5.74023
129 3 5.17228 3.53875 3.61795
130 3 6.87638 3.33495 1.14092
133 3 6.82595 3.91998 7.46375
135 3 3.31628 7.41553 5.28513
136 3 5.01863 6.11685 7.21536
191 2 3.16012 5.29439 4.32614
192 2 1.15491 3.76385 4.37283
242 2 7.49268 0.658658 4.39307
204 2 8.08487 1.52782 7.42197
206 2 0.0840672 5.93177 1.78149
195 2 -0.222134 5.58429 7.77855
254 2 1.63276 6.85696 2.05051
165 3 5.98737 7.16407 4.98227
225 2 -1.64784 6.68106 7.13893
226 2 -0.0502454 5.92817 6.06473
223 2 -2.00518 6.45261 1.39326
257 2 4.71337 6.46071 1.7868
260 2 2.51982 5.35131 0.377804
252 2 1.48927 5.41465 3.32904
253 2 3.17049 5.93506 2.63943
243 2 6.59581 0.782105 7.88887
353 2 -2.10842 4.85952 0.0249858
67 1 -1.39522 5.64829 0.506054
352 2 -0.973328 3.5802 3.56859
134 3 2.08864 6.60961 8.7214
332 2 -0.0954964 0.930602 0.210047
246 2 7.86782 3.22089 3.94908
356 2 5.06796 0.425859 6.3904
3 4 1.09803 3.00152 10.1893
295 2 7.7464 5.84711 14.8374
7 4 3.26915 2.70196 12.1603
12 4 1.28278 4.6169 13.8262
13 4 0.971563 7.78686 13.1412
24 4 5.73636 3.55517 10.3092
264 2 4.40266 6.17074 12.0327
27 4 6.27296 2.94014 15.7037
28 4 8.63476 2.67325 11.4876
345 2 -0.00787542 3.76402 11.5834
354 2 1.23938 7.13305 17.1574
69 1 1.98952 4.76261 15.5372
77 1 6.7593 4.09751 14.2744
80 1 4.49941 6.84888 16.8661
82 1 5.32105 6.89249 12.3775
103 3 2.18365 2.13641 10.9311
104 3 3.57862 1.49272 13.2024
106 3 1.49916 4.22798 9.22224
331 2 2.76597 1.78303 15.9588
110 3 2.368 3.77708 12.9896
111 3 1.09919 6.27417 13.4223
122 3 4.61637 3.48325 11.4598
124 3 5.5279 1.60111 14.9651
125 3 7.54723 2.77391 16.6722
126 3 4.91946 3.74185 16.4738
127 3 7.17221 3.06805 10.8742
128 3 8.62337 1.57436 12.656
132 3 5.78497 5.04605 9.82612
196 2 -0.437668 8.00544 12.1216
216 2 6.95409 7.71303 13.1484
330 1 2.9091 1.76559 17.1084
203 2 5.36919 2.43979 9.10129
231 2 -0.595286 7.91842 10.3583
227 2 2.13983 5.84686 15.7946
228 2 3.0712 4.22914 15.2118
229 2 1.28179 4.13472 16.1546
334 2 5.30715 0.756581 11.4677
249 2 7.89735 4.27959 14.2626
250 2 6.11849 5.02854 14.4496
251 2 6.37918 3.46593 13.3681
258 2 5.28577 6.43934 16.0197
265 2 5.18829 7.37306 13.3959
263 2 6.35175 6.38526 12.2234
259 2 3.41416 6.89287 16.4963
358 2 6.85737 0.703777 12.51
244 2 -0.411785 13.8808 7.97901
14 4 -5.08445 13.2053 4.00471
15 4 -1.36518 10.2251 7.398
17 4 -2.49187 13.0158 5.73471
23 4 1.85405 13.7756 7.80843
30 4 2.23599 7.74727 4.16458
36 4 3.48668 9.49699 1.87291
37 4 -0.0123904 12.5118 3.94383
39 4 3.82812 9.94048 7.32311
40 4 2.79371 12.2559 5.3622
71 1 0.310151 10.9382 7.71267
72 1 -2.69691 14.6474 6.55945
75 1 0.21984 14.8126 7.53636
113 3 -1.30561 9.07702 6.21895
114 3 -3.78397 12.6296 4.83971
115 3 -2.29674 11.5504 7.06607
131 3 0.571806 7.78927 4.69092
138 3 2.7172 8.96226 3.11223
139 3 3.37532 8.34479 0.725287
140 3 0.168016 13.5327 2.62742
141 3 -1.05592 13.1636 4.92711
142 3 3.26483 11.0429 1.21351
143 3 2.63666 9.17387 8.1256
144 3 5.23172 8.81657 6.72103
145 3 1.34378 11.9728 4.51997
146 3 3.2697 10.8883 6.15166
147 3 2.43984 13.505 6.3549
181 3 4.55977 10.8896 8.34204
341 2 1.45171 12.8774 0.611265
209 2 -0.742747 11.168 3.34707
232 2 -0.0715513 12.096 7.37665
112 3 -4.90541 14.4295 3.1041
235 2 -2.87818 14.3673 7.66816
236 2 -3.70592 15.0565 6.10949
245 2 0.25103 14.6838 6.391
202 2 1.53639 12.1948 8.53629
327 1 -2.53123 14.3034 1.56474
20 4 0.99964 14.8619 2.2152
329 2 -3.18942 13.3661 1.28023
38 4 2.37992 11.5674 0.0939524
349 2 -1.5167 13.9522 2.0699
11 4 -1.06427 7.78234 5.14103
197 2 -2.38039 12.4754 8.43368
233 2 0.8143 10.2481 6.82684
328 2 -2.31943 14.9807 0.547996
212 2 0.943695 10.5889 0.0584554
16 4 -2.51148 12.8407 10.1043
18 4 0.254347 10.3538 14.5948
19 4 -1.194 10.4457 11.6221
31 4 5.04006 8.62302 16.819
35 4 4.99884 8.3028 11.1948
154 3 2.5385 14.8072 8.75071
41 4 4.81403 10.909 13.193
42 4 1.92464 13.2439 15.3008
43 4 3.19568 13.0086 11.9066
73 1 -0.946393 10.1368 16.005
81 1 3.34553 9.8703 16.2683
83 1 1.31686 12.8105 11.7285
116 3 1.09657 8.87489 14.2611
117 3 -1.84868 11.6257 10.8563
118 3 -0.679251 10.6108 13.0949
26 4 2.61731 15.469 13.6329
148 3 5.2461 9.71548 12.1353
149 3 1.23443 11.8593 15.0232
150 3 1.53285 14.519 14.4793
151 3 3.46953 11.7081 12.7794
152 3 3.45321 14.5846 12.5621
201 2 -2.17471 8.78681 11.6685
173 3 6.10334 8.63755 15.5782
182 3 4.13445 12.7517 10.2797
137 3 3.17051 8.04566 10.6298
198 2 -1.77145 14.297 10.6947
70 1 -0.921702 8.92227 10.4724
200 2 0.368704 9.89263 10.4794
230 2 -1.80633 9.37001 9.11543
207 2 0.905059 8.4335 9.77713
335 2 -1.07838 14.1099 12.2984
210 2 4.39515 9.97171 14.5428
211 2 3.58435 13.0754 15.2041
33 4 2.41493 8.03382 9.21798
213 2 1.55206 13.8258 16.7963
325 2 -2.9565 13.638 17.3031
237 2 -0.680093 10.8999 16.7748
239 2 -2.01739 10.1229 15.6605
169 3 6.11971 8.12928 10.1397
262 2 3.62869 10.901 16.0036
266 2 1.17695 12.1592 10.8424
267 2 0.908351 13.8338 11.6128
268 2 0.976635 12.3223 12.7251
320 4 -3.35136 12.7641 15.1324
234 2 0.449009 10.6371 8.79363
323 3 -2.70343 14.1927 14.6075
333 1 -1.10464 15.2468 12.3224
238 2 -0.563799 9.06813 16.3595
261 2 2.81299 9.33186 15.4819
359 2 2.74036 9.80541 17.2388
189 3 5.05812 12.7279 16.0635
5 4 -2.20853 15.548 13.895
199 2 -4.10602 12.9432 10.5942
208 2 2.20581 8.18347 12.0535
193 2 -3.40388 15.8207 17.3802
9 4 14.049 7.00131 2.27677
47 4 13.4575 2.87998 5.53515
51 4 11.5967 4.70728 1.5715
52 4 7.26875 6.94824 4.08322
54 4 11.1773 5.11218 6.49929
56 4 10.0593 7.5045 5.22288
362 2 14.8831 1.21291 1.19831
76 1 8.26571 3.48076 4.99647
85 1 14.5327 2.68853 6.80521
89 1 11.2137 4.10915 3.2296
90 1 10.8698 2.24816 7.89673
91 1 11.5506 4.99793 8.30744
162 3 12.1253 3.23051 0.697682
163 3 12.9617 6.0063 1.98884
164 3 6.97356 5.59402 3.09101
53 4 8.8411 5.82965 0.323336
166 3 10.2806 5.417 0.827867
167 3 12.3635 3.96685 5.96687
224 2 15.7392 5.51417 5.50793
342 2 13.9819 7.60809 4.09554
171 3 8.61696 6.80517 5.06036
172 3 11.2333 6.57909 5.96601
241 2 9.36762 0.435929 4.04661
214 2 9.62878 4.47058 6.06525
168 3 7.42733 6.63597 8.26411
288 2 12.2103 5.9702 8.4752
247 2 9.33149 3.00755 5.1653
248 2 8.15216 4.57913 5.25653
270 2 15.2485 3.15124 5.79422
271 2 13.4097 1.33482 6.58684
272 2 14.3396 3.40166 7.69899
282 2 11.4404 2.94555 3.24107
283 2 10.1444 4.40621 3.42036
284 2 12.0364 4.72694 3.79911
285 2 10.9972 1.5595 7.02585
286 2 11.864 2.70938 8.22187
287 2 10.0445 3.00411 7.83092
346 2 7.90541 4.42495 0.540665
339 3 12.4275 0.451785 0.553782
351 2 14.9057 3.94098 2.81524
84 1 15.0745 0.12659 1.60832
176 3 8.22859 7.12799 0.75504
66 1 15.8971 3.41184 2.64232
222 2 15.7386 2.32782 2.39976
240 2 8.49463 2.08339 3.53463
290 2 10.4081 5.06286 8.6286
360 2 10.2714 0.214468 1.38094
6 4 16.1428 2.59223 14.8257
157 3 10.7636 1.36752 14.5908
46 4 10.2335 1.16308 9.44326
343 2 15.9518 3.57203 11.3191
49 4 11.1961 2.75708 15.4442
50 4 14.3203 2.72439 11.3747
301 2 8.49513 5.84098 11.6628
55 4 7.51639 7.90999 9.20161
58 4 10.0371 7.66441 11.2219
86 1 11.6049 4.01258 14.144
174 3 8.81998 7.85562 10.1013
88 1 12.7524 3.32403 11.2119
94 1 11.7206 7.31316 10.4163
95 1 9.41335 6.12192 12.2356
153 3 15.4998 2.94739 16.2075
87 1 12.0255 0.548622 10.0109
156 3 16.0132 1.03594 14.4311
109 3 17.1141 3.64636 14.066
158 3 12.9161 2.6065 16.3196
159 3 10.154 3.30467 16.4809
160 3 16.8874 4.13032 11.0039
161 3 14.2609 1.3886 12.364
299 2 12.5162 7.86613 11.0721
205 2 9.30311 4.1596 12.0672
273 2 12.0133 3.78799 12.9856
274 2 12.4883 4.48726 14.7089
275 2 10.667 4.68804 14.1672
276 2 12.3224 1.03132 10.9542
279 2 11.8249 2.76769 11.6664
280 2 13.4958 2.42267 9.75332
281 2 12.9787 4.49747 11.7362
277 2 12.6408 0.863036 9.10483
350 2 15.5725 3.70767 13.5953
347 2 10.921 6.61389 16.0897
297 2 11.7281 7.63976 9.268
298 2 11.6957 6.19431 10.4944
45 4 14.2105 2.72943 17.1905
300 2 10.2517 5.32366 12.4059
294 2 9.32522 6.92534 14.835
302 2 8.92114 6.43362 13.3586
93 1 8.24082 6.83831 15.2058
155 3 9.65637 2.15689 10.5002
190 2 17.7093 1.94129 9.37396
296 2 8.12422 7.03485 16.3714
289 2 12.0495 4.00214 8.77508
44 4 6.47368 14.2668 1.3145
59 4 8.01014 8.64532 1.73208
60 4 5.59335 12.5454 4.08044
61 4 7.8434 11.4374 0.209383
63 4 7.88246 12.7841 6.23727
337 2 2.55286 14.1616 0.180398
215 2 7.61566 9.27398 8.15091
92 1 7.93062 9.85481 6.27452
96 1 9.79556 9.29399 1.89848
97 1 11.3136 12.1159 3.96102
98 1 6.06776 10.7262 3.77456
175 3 7.484 8.36469 3.1611
177 3 6.06794 13.5475 2.80516
338 2 3.09645 13.3819 1.74285
179 3 7.11279 9.96378 1.05238
180 3 7.04434 12.9278 0.422966
183 3 9.1324 13.0904 5.69656
184 3 6.56103 12.8629 5.32601
217 2 5.11065 9.56852 2.38801
170 3 10.331 8.82106 5.09589
219 2 7.63276 13.5591 7.81774
220 2 8.10395 11.1056 7.02807
269 2 8.43908 14.9797 2.66795
291 2 12.4959 10.5867 5.25771
292 2 6.8672 9.43263 6.34881
293 2 8.63276 9.11482 6.66086
303 2 9.66777 10.4229 1.37267
304 2 10.4955 8.57681 1.25317
305 2 10.0944 9.33327 3.02921
306 2 10.3453 12.5286 4.68506
307 2 11.1344 11.6948 2.90267
308 2 6.804 10.4469 4.65886
309 2 6.53667 10.5041 2.76232
310 2 5.0525 10.2657 3.91344
355 2 8.25573 10.0114 5.13805
363 2 11.6959 10.7032 5.46579
361 2 8.87943 14.4777 0.925418
194 2 13.5818 8.41443 1.43124
178 3 3.97521 12.6561 4.47011
218 2 5.85757 13.2974 8.25519
336 1 2.6744 14.2898 1.23287
340 3 9.20336 11.6834 0.4487
311 2 7.94746 12.0244 8.6899
57 4 7.42627 8.44144 14.6777
62 4 5.13607 11.9888 9.27167
64 4 9.82822 10.1599 13.4013
65 4 6.28296 12.9867 14.826
326 2 13.4493 11.3559 13.6137
99 1 7.11598 12.4467 9.32845
100 1 8.90094 11.4667 12.5209
101 1 7.78184 12.0899 15.5945
319 2 7.41662 12.037 16.703
185 3 8.62046 9.50154 14.4888
186 3 10.2433 8.95896 12.4042
344 2 8.5971 14.1942 12.601
188 3 6.7967 14.5117 14.4427
322 1 12.6855 12.2725 14.2445
357 2 12.9287 12.706 17.3347
364 2 12.2483 13.0613 13.5665
365 2 12.0966 11.8846 15.1814
221 2 11.2534 10.9091 14.1259
187 3 6.11904 11.8384 13.3831
317 2 8.56654 12.9791 15.4148
278 2 4.97878 14.4367 10.1511
48 4 7.80234 15.3762 13.5733
318 2 8.09778 11.1164 15.1873
348 2 9.67828 11.8667 15.9808
312 2 6.64575 11.2403 10.3292
313 2 7.53591 13.2396 9.96923
314 2 7.81828 11.6648 12.8161
315 2 8.96385 11.0012 11.4136
316 2 9.59196 12.3258 12.788
324 2 14.6064 11.638 17.07
321 1 14.0246 12.7676 16.9166
ITEM: TIMESTEP
100
ITEM: NUMBER OF ATOMS
365
ITEM: BOX BOUNDS xy xz yz pp pp pp
-6.9345999999999997e+00 1.9702400000000001e+01 -6.9345999999999997e+00
0.0000000000000000e+00 1.5863300000000001e+01 2.0880000000000001e+00
0.0000000000000000e+00 1.7472932100000001e+01 8.7949999999999995e-01
ITEM: ATOMS id type x y z
1 4 3.23643 0.586546 2.5618
2 4 1.67282 2.25757 0.268898
4 4 2.41012 4.11699 5.33629
8 4 -0.54201 4.31752 1.51258
10 4 1.50938 5.26864 8.13054
255 2 3.75293 4.63017 1.38913
21 4 4.86459 2.48486 4.51472
22 4 6.78032 2.07502 0.102704
25 4 7.33238 2.86586 6.45891
29 4 6.01812 4.53586 2.50806
32 4 6.30259 5.54549 8.11418
34 4 4.74705 7.29759 6.15504
68 1 -1.14259 6.23751 6.27148
74 1 8.56166 0.913625 3.6406
78 1 2.20915 6.34362 3.05584
79 1 4.68534 5.34137 1.38779
102 3 2.72693 1.61069 1.38679
105 3 0.642061 3.52725 0.966533
107 3 1.99358 4.70189 6.74946
108 3 -2.27465 7.35178 3.67933
256 2 5.08352 5.35208 0.371043
119 3 4.27289 1.17109 3.73441
120 3 3.53751 3.02811 5.39023
121 3 7.11613 0.904832 1.12963
123 3 6.10032 2.18066 5.5814
129 3 5.30161 3.61585 3.59729
130 3 6.70891 3.4712 1.11076
133 3 7.05567 4.14179 7.45094
135 3 3.30349 7.37475 5.2836
136 3 4.99454 5.98422 7.16212
191 2 3.26092 5.30378 4.39209
192 2 1.15506 3.65915 4.33465
242 2 7.6656 0.726553 4.32498
204 2 8.09166 1.53704 7.23725
206 2 -0.189264 6.11318 1.87585
195 2 -0.0870684 5.7076 7.94102
254 2 1.48461 6.80234 2.24022
165 3 5.79457 7.18825 4.82429
225 2 -1.31083 6.72004 7.30109
226 2 0.0304308 5.76408 6.04948
223 2 -2.05539 6.83691 1.08255
257 2 4.52655 6.3649 1.79539
260 2 2.07529 5.98848 0.86738
252 2 1.59606 5.56554 3.66414
253 2 3.20344 5.93816 2.59901
243 2 6.62433 0.586752 7.94691
328 2 4.82919 0.11605 0.665472
67 1 -1.40225 5.96631 0.525708
352 2 -1.13282 3.83302 3.63503
134 3 2.18086 6.57933 8.65691
11 4 -0.935917 7.71374 5.2109
353 2 -2.18585 4.97271 0.133678
193 2 0.966271 0.0422653 0.118076
3 4 0.889418 3.00848 10.1205
295 2 7.87115 5.68971 14.9354
7 4 3.15284 2.75867 12.0524
12 4 1.24108 4.68903 13.7843
13 4 1.07582 7.75118 13.1245
24 4 5.86254 3.58067 10.3807
264 2 4.33273 6.38625 12.0477
27 4 6.21524 2.83993 15.6464
28 4 8.61171 2.53237 11.5282
358 2 6.75834 0.764928 12.4396
354 2 1.24603 7.25853 17.1527
69 1 1.93744 4.73056 15.4989
77 1 6.8148 4.02253 14.2869
80 1 4.4372 7.06734 17.2469
82 1 5.35274 6.96307 12.315
103 3 2.13071 2.22081 10.8153
104 3 3.555 1.58502 13.1205
106 3 1.38356 4.14033 9.18014
331 2 2.85086 1.88606 15.977
110 3 2.24979 3.94324 12.7614
111 3 1.14217 6.249 13.4167
122 3 4.64785 3.29841 11.4411
124 3 5.71707 1.64053 14.7599
125 3 7.53049 2.59853 16.653
126 3 4.80329 3.70537 16.3984
127 3 7.26507 3.07395 10.9841
128 3 8.60701 1.60496 12.8477
132 3 5.88078 5.06045 9.82776
196 2 -0.384828 8.04133 12.3212
216 2 7.02982 7.77572 13.0143
330 1 2.62302 1.88063 17.047
203 2 5.51419 2.60199 9.04883
231 2 -0.806887 7.73454 10.3657
227 2 1.81059 5.75017 15.9933
228 2 3.00121 4.32668 15.389
229 2 1.2515 3.93319 15.9759
334 2 5.1586 0.811268 11.3773
249 2 7.94498 3.75233 14.3449
250 2 6.38719 4.96752 14.817
251 2 6.25998 3.75336 13.378
258 2 5.10719 6.24673 16.8697
265 2 5.41714 7.11892 13.4154
263 2 6.35875 6.52305 11.7677
259 2 3.4529 7.15232 16.5543
345 2 -0.0256919 3.74773 11.5748
332 2 1.54446 2.0396 17.2793
244 2 -0.399183 13.672 7.52231
14 4 -4.95605 13.1847 3.9311
15 4 -1.37428 10.214 7.42788
17 4 -2.39347 12.8536 5.76992
23 4 1.86513 13.8328 7.77607
30 4 2.18 7.91576 4.15861
36 4 3.54798 9.57825 1.96635
37 4 0.00324761 12.4903 3.98228
39 4 3.82407 9.94983 7.34378
40 4 2.77523 12.1514 5.39712
71 1 0.342533 10.9254 7.55101
72 1 -2.83511 14.3762 6.72187
75 1 0.177949 14.7938 7.38595
113 3 -1.22742 9.03959 6.32745
114 3 -3.76576 12.5731 4.71625
115 3 -2.21301 11.5617 7.22801
131 3 0.658503 7.85585 4.70064
138 3 2.64292 9.19886 3.24356
139 3 3.48528 8.43476 0.647823
140 3 0.290624 13.4329 2.65538
141 3 -1.06602 13.0437 4.93659
142 3 3.13232 10.8748 1.27347
143 3 2.63841 9.23251 8.23081
144 3 4.97422 8.67175 6.85428
145 3 1.28002 11.9813 4.73127
146 3 3.09521 10.7298 6.13207
147 3 2.6328 13.4551 6.45032
181 3 4.65421 11.0474 8.24834
341 2 1.51484 12.883 0.664739
209 2 -0.637003 11.1272 3.34824
232 2 0.107319 12.0079 7.08244
112 3 -4.88331 14.4683 3.09186
235 2 -2.78894 14.3609 7.89462
236 2 -3.89344 14.5694 6.27829
245 2 0.224429 15.0567 6.32382
202 2 1.14203 12.4845 8.44405
327 1 -2.45178 14.5185 1.52613
20 4 1.04931 14.9802 2.08425
329 2 -3.07168 13.6155 1.17982
38 4 2.23128 11.3695 0.101607
349 2 -1.62709 14.2032 2.20464
356 2 -2.06457 15.1553 6.30304
197 2 -2.38487 12.7118 8.45116
233 2 0.911347 10.1086 6.923
212 2 0.889731 10.3913 0.00166112
16 4 -2.63385 12.761 10.1255
18 4 0.198269 10.4301 14.6008
19 4 -1.04483 10.4832 11.7142
31 4 5.04724 8.74059 16.7471
35 4 5.09975 8.41662 11.1441
154 3 2.48898 14.8407 8.82891
41 4 4.82534 10.783 13.1432
42 4 1.92564 13.2875 15.2503
43 4 3.22142 12.9688 11.9384
73 1 -0.938195 10.1177 15.9943
81 1 3.29776 9.70735 16.2308
83 1 1.40065 13.0565 11.5734
116 3 1.2275 8.75604 14.3441
117 3 -1.87831 11.6865 10.9209
118 3 -0.587278 10.4516 13.2376
26 4 2.67654 15.6162 13.6299
148 3 5.17763 9.64963 12.1109
149 3 1.11371 11.9829 15.0882
150 3 1.69785 14.6312 14.5566
151 3 3.48567 11.6723 12.8313
152 3 3.51439 14.4583 12.5909
201 2 -2.31825 8.85292 11.144
173 3 6.25448 8.6687 15.4931
182 3 4.34391 12.7156 10.3516
137 3 3.19747 8.17673 10.572
198 2 -2.15465 14.2502 10.7641
70 1 -1.01792 8.8503 10.7017
200 2 0.406076 9.99875 10.7172
230 2 -1.60063 9.53647 9.05713
207 2 0.631094 8.49583 9.71344
335 2 -1.46322 14.0788 12.3694
210 2 4.47155 10.1098 14.6487
211 2 3.61079 12.8805 15.2158
33 4 2.23401 8.0444 9.23051
213 2 1.82852 13.804 16.8389
321 1 -3.49906 12.9788 17.0283
237 2 -0.737184 11.0172 16.7502
239 2 -2.00722 10.1531 15.689
169 3 6.253 8.24382 10.1048
262 2 3.69147 10.714 15.9818
266 2 1.20574 12.535 10.5684
267 2 1.12795 14.1307 11.6188
268 2 0.947641 12.4367 12.4438
320 4 -3.51721 12.8616 15.2591
208 2 2.231 8.12108 11.8999
323 3 -2.85033 14.2066 14.5361
333 1 -1.23828 15.2945 12.216
238 2 -0.542696 9.05832 16.323
261 2 2.49965 9.39319 15.3963
359 2 2.82661 9.56211 17.2394
189 3 4.87469 12.63 16.151
5 4 -2.28123 15.6582 13.7923
199 2 -4.28043 12.7307 10.2446
324 2 -2.77254 11.8212 17.0281
234 2 0.411849 10.7904 8.75055
325 2 -2.81791 13.7803 17.4656
9 4 14.1528 6.92592 2.21765
47 4 13.2775 2.86637 5.7271
51 4 11.7403 4.62243 1.61303
52 4 7.1813 6.96324 3.98598
54 4 11.0937 5.1707 6.62202
56 4 9.94088 7.56425 5.29447
362 2 14.7753 1.22393 1.14606
76 1 8.60842 3.55189 5.20047
85 1 14.6806 2.99854 6.54498
89 1 11.0927 4.13096 3.25751
90 1 10.7763 2.24583 7.80337
91 1 11.3098 5.36611 8.47442
162 3 12.0449 3.17218 0.8672
163 3 13.0203 5.8416 1.95017
164 3 7.03108 5.62783 3.04369
53 4 8.90869 5.74692 0.234607
166 3 10.1859 5.31971 0.860046
167 3 12.1936 4.02583 6.09269
224 2 15.5648 5.6422 5.84367
246 2 8.24219 3.26631 4.15237
171 3 8.70325 6.74744 4.96309
172 3 11.0282 6.58855 5.87214
241 2 9.47679 0.483034 4.0809
214 2 9.49905 4.50036 6.70768
168 3 7.38514 6.76148 8.15066
360 2 10.4456 0.184723 1.38335
247 2 9.44916 2.81996 5.55201
248 2 8.80772 4.65095 5.13625
270 2 15.0128 3.4928 5.47155
271 2 13.7647 1.47658 6.85454
272 2 14.6498 3.74665 7.45178
282 2 11.2014 3.06595 3.42324
283 2 10.0136 4.45952 3.12792
284 2 11.6545 4.84199 4.03985
285 2 10.9827 1.63837 6.88489
286 2 11.6212 2.92178 8.15947
287 2 9.75224 2.68892 7.73488
346 2 7.73438 4.54379 0.388255
339 3 12.4274 0.435806 0.521002
351 2 14.9502 3.36322 2.42893
84 1 14.9275 0.2255 1.61694
176 3 8.49877 7.12879 0.759561
66 1 16.0516 3.28384 2.61956
222 2 16.4684 2.15422 2.42686
240 2 8.69388 2.0369 3.47993
269 2 14.9974 0.318418 2.73484
288 2 11.6805 6.39484 8.68241
6 4 16.0967 2.519 14.8378
157 3 10.7228 1.46793 14.6635
46 4 10.4461 1.16634 9.36523
343 2 15.8957 3.56007 10.9975
49 4 11.2739 2.68671 15.4946
50 4 14.2874 2.67579 11.3729
301 2 8.67651 5.61211 11.4712
296 2 8.09595 7.05398 16.3847
58 4 9.95852 7.67107 11.2806
86 1 11.5723 4.08154 14.2417
174 3 8.87491 7.76301 10.1005
88 1 12.7966 3.37097 11.1638
94 1 11.6978 7.65278 10.5564
95 1 9.44148 5.93004 12.2801
153 3 15.6414 2.96546 16.2424
289 2 12.1039 4.68307 8.88054
156 3 15.9644 1.01735 14.2648
109 3 17.2825 3.43504 14.1663
158 3 12.955 2.63676 16.3885
159 3 10.049 3.27999 16.5306
160 3 16.7982 4.21615 10.8922
161 3 14.3667 1.39566 12.4126
190 2 17.603 1.87813 9.22256
205 2 9.23394 4.05471 12.2388
273 2 12.0525 3.66278 13.2434
274 2 12.1652 4.86204 14.861
275 2 10.5701 4.53421 13.9877
276 2 12.1815 0.960109 11.1867
279 2 11.8818 2.76392 11.6321
280 2 13.337 2.59367 9.68034
281 2 12.8469 4.48898 11.2687
155 3 9.6913 2.17456 10.4058
350 2 15.796 3.79745 13.6906
347 2 11.2329 6.72923 16.0533
297 2 11.6298 7.78436 9.43024
298 2 11.9425 6.55648 10.8966
45 4 14.3308 2.70823 17.2282
300 2 10.4209 5.28772 12.2616
294 2 9.37891 6.91012 15.0404
302 2 8.99666 6.18427 13.4116
93 1 8.27157 6.77896 15.2305
290 2 10.1548 5.22252 8.73918
44 4 6.51342 14.0899 1.30648
59 4 8.17071 8.61651 1.79049
60 4 5.54958 12.5853 4.0395
61 4 7.84967 11.4349 0.251182
63 4 7.90328 12.8058 6.29232
194 2 13.611 8.35262 1.50711
215 2 7.66683 9.45068 8.21757
92 1 7.71827 9.72334 6.2585
96 1 9.84582 9.39097 2.04592
97 1 11.3155 12.2487 4.00712
98 1 6.06562 10.7927 3.83398
175 3 7.53918 8.3087 3.17074
177 3 5.98533 13.4366 2.67872
338 2 3.02166 13.3957 1.39425
179 3 7.21546 9.98561 1.1305
180 3 6.85877 12.8491 0.350294
183 3 9.14539 13.1357 5.73396
184 3 6.53832 12.9382 5.47498
217 2 5.1889 9.80727 2.35355
170 3 10.187 8.87099 4.98049
219 2 7.72761 13.516 7.87406
220 2 8.01772 11.0208 6.75032
311 2 7.88187 11.9907 8.62767
291 2 11.8695 10.3692 4.49757
292 2 6.69228 9.3882 6.52271
293 2 8.48004 9.0329 6.73318
303 2 9.72732 10.4436 1.36407
304 2 10.4568 8.5493 1.50484
305 2 10.1411 9.57586 3.13799
306 2 10.3621 12.6208 4.74077
307 2 11.1625 11.7431 2.9288
308 2 6.7382 10.4852 4.79884
309 2 6.58538 10.5377 2.77823
310 2 4.92241 10.3615 3.97018
355 2 7.86553 9.81697 5.12312
363 2 11.6221 10.5666 5.24271
361 2 8.83057 14.6108 1.11858
340 3 9.23449 11.6575 0.389581
178 3 3.97983 12.4357 4.38408
218 2 6.0398 13.4151 8.35973
336 1 2.68001 14.4262 1.12731
342 2 14.1906 7.93299 3.98789
357 2 10.8954 11.9817 0.0274807
57 4 7.50629 8.36098 14.5764
62 4 5.17509 12.051 9.27373
64 4 9.77503 10.1779 13.3712
65 4 6.22399 13.003 14.7362
326 2 13.1329 11.0009 14.4544
99 1 7.1425 12.432 9.36433
100 1 8.8823 11.35 12.2191
101 1 7.68506 12.2796 15.6859
319 2 7.29251 12.1939 16.7982
185 3 8.59851 9.69252 14.5576
186 3 10.0865 8.81216 12.3822
344 2 8.6871 13.9478 12.6716
188 3 6.68978 14.4644 14.2911
322 1 12.5466 12.1887 14.395
299 2 12.432 8.37572 10.9835
364 2 12.1564 12.386 13.3774
365 2 11.8698 12.4313 15.4421
221 2 11.1383 10.7613 14.1928
187 3 6.15803 11.9749 13.528
317 2 8.3997 13.1726 15.5347
278 2 4.77287 14.3644 10.4766
48 4 7.91726 15.184 13.4646
318 2 8.06025 11.2332 15.1959
348 2 9.6153 11.911 16.0339
312 2 6.66047 11.1687 10.3196
313 2 7.67643 13.1898 9.95576
314 2 7.8166 11.5458 12.6844
315 2 8.91041 10.8633 11.2105
316 2 9.60967 12.2749 12.2994
55 4 7.51489 7.98561 9.13398
87 1 5.13819 15.4108 10.2227
277 2 6.11461 15.3953 9.63716
337 2 4.45379 15.3419 17.4207
ITEM: TIMESTEP
200
ITEM: NUMBER OF ATOMS
365
ITEM: BOX BOUNDS xy xz yz pp pp pp
-6.9345999999999997e+00 1.9702400000000001e+01 -6.9345999999999997e+00
0.0000000000000000e+00 1.5863300000000001e+01 2.0880000000000001e+00
0.0000000000000000e+00 1.7481664200000001e+01 8.7949999999999995e-01
ITEM: ATOMS id type x y z
1 4 3.42737 0.595327 2.47577
2 4 1.69504 2.31739 0.240462
4 4 2.49903 4.11884 5.37399
8 4 -0.588088 4.35991 1.67796
10 4 1.56224 5.31189 8.0963
255 2 3.6746 5.27343 1.47832
21 4 4.86416 2.54026 4.55499
22 4 6.77645 2.0785 0.172014
25 4 7.3498 2.91674 6.47357
29 4 5.91347 4.6135 2.26445
32 4 6.22538 5.44753 8.15497
34 4 4.78433 7.3706 6.07331
68 1 -1.07517 6.26814 6.20492
74 1 8.68476 1.11043 3.60408
78 1 1.92429 6.47428 2.98738
79 1 4.74372 5.67136 1.29509
102 3 2.49648 1.61086 1.49832
105 3 0.583654 3.74102 0.831683
107 3 2.10332 4.77413 6.69461
108 3 -2.3272 7.17712 3.65732
256 2 5.09116 5.77975 0.195635
119 3 4.40703 1.15526 3.66069
120 3 3.63204 3.10412 5.48664
121 3 6.95169 0.877032 1.16161
123 3 6.11217 2.28024 5.59572
129 3 5.24703 3.59307 3.32447
130 3 6.74696 3.5453 0.824762
133 3 7.08552 4.15516 7.42243
135 3 3.34896 7.37816 5.29391
136 3 5.09192 6.04402 7.21206
191 2 2.94033 5.28379 4.15333
192 2 1.16928 3.47147 4.60033
242 2 7.76915 0.858976 4.36838
204 2 8.04513 1.57801 7.12645
206 2 -0.581204 6.1233 2.21344
195 2 -0.0325289 5.80312 7.86616
254 2 1.50242 7.11451 2.10934
165 3 5.95142 7.12831 5.06534
225 2 -1.25397 7.02674 7.34469
226 2 -0.392833 5.44875 6.20826
223 2 -2.26778 7.11112 0.513252
257 2 4.87759 6.6504 1.92951
260 2 2.00902 6.03724 0.930033
252 2 1.11039 5.79102 3.54027
253 2 2.92598 6.03484 2.74235
243 2 6.92372 0.518873 8.12244
134 3 2.21358 6.63956 8.66184
67 1 -1.63741 6.0525 0.720612
193 2 0.658063 0.177417 0.445867
3 4 0.917284 2.94082 10.1038
295 2 7.65022 5.79625 14.8205
7 4 3.17527 2.83508 12.0242
12 4 1.26016 4.70662 13.839
13 4 1.02584 7.78819 13.2671
24 4 5.72202 3.4864 10.4062
264 2 4.20671 6.57339 12.0126
27 4 6.13833 2.76487 15.6129
28 4 8.62413 2.66246 11.7137
216 2 6.99086 7.5757 12.9967
354 2 1.19435 6.93569 17.2789
69 1 2.14251 4.77528 15.4593
77 1 6.77848 4.02561 14.3424
80 1 4.37225 6.80927 17.3023
82 1 5.21794 7.05257 12.2675
103 3 2.15057 2.11714 10.6677
104 3 3.39935 1.45322 13.0462
106 3 1.33971 4.10045 9.12551
331 2 2.78471 1.75079 16.1333
110 3 2.28325 3.99709 12.8456
111 3 0.99205 6.25617 13.5204
122 3 4.58959 3.36258 11.4525
124 3 5.53944 1.42765 14.7619
125 3 7.51526 2.70621 16.7003
126 3 4.78138 3.40025 16.4035
127 3 7.15592 3.11045 11.0355
128 3 8.57576 1.53147 12.8254
132 3 5.80967 4.90032 9.59907
259 2 3.43012 6.95021 16.5707
332 2 1.49919 2.46172 17.4095
330 1 2.55044 1.95576 17.2211
203 2 5.38849 2.26785 9.28393
231 2 -0.708401 7.85436 10.7508
227 2 2.35569 5.7702 15.9353
228 2 3.12432 4.22124 15.2715
229 2 1.34279 4.05477 16.0319
334 2 4.87868 0.717688 11.283
249 2 7.87397 4.14936 14.4294
250 2 6.12711 4.98328 14.4762
251 2 6.48134 3.33581 13.3786
258 2 5.00204 5.91296 17.0191
265 2 5.21082 7.39417 13.3661
263 2 6.13289 6.44569 11.9116
208 2 2.02079 8.01074 11.9065
244 2 -0.367919 13.6977 7.4196
14 4 -4.85015 13.0956 3.82184
15 4 -1.35617 10.1918 7.38339
17 4 -2.39682 12.7705 5.77807
23 4 1.90946 13.8353 7.79161
30 4 2.17222 7.90254 4.29215
36 4 3.45547 9.4999 1.8989
37 4 0.0480133 12.4819 4.00817
39 4 3.71114 9.91522 7.36401
40 4 2.78788 12.1335 5.34991
71 1 0.418618 10.7331 7.5634
72 1 -2.72068 14.4572 6.49553
75 1 0.246294 14.7486 7.31251
113 3 -1.42494 9.10445 6.17689
114 3 -3.73671 12.4671 4.75353
115 3 -2.38905 11.5538 7.27018
131 3 0.53333 7.85231 4.83889
138 3 2.65656 9.03328 3.24869
139 3 3.51588 8.21303 0.733714
140 3 0.211344 13.5725 2.81999
141 3 -1.00416 12.9132 5.07483
142 3 3.1241 10.9006 1.2417
143 3 2.68912 9.17481 8.38575
144 3 5.01368 8.9032 6.77501
145 3 1.3867 12.0066 4.66896
146 3 3.0458 10.6899 6.07323
147 3 2.70164 13.53 6.49865
181 3 4.44941 11.1086 8.22529
341 2 1.33619 12.7623 0.784447
209 2 -0.602336 11.085 3.3069
232 2 0.235078 11.7759 6.986
112 3 -4.64817 14.4799 3.09812
235 2 -2.70201 14.5444 7.6784
236 2 -3.77837 14.6882 6.13401
245 2 0.460752 15.1094 6.30874
202 2 1.31769 12.291 8.35288
327 1 -2.45216 14.3713 1.40384
20 4 0.947895 14.9918 2.15474
329 2 -3.20362 13.5296 1.2502
38 4 2.26983 11.4494 0.0758785
349 2 -1.56738 14.0611 2.00469
356 2 -1.96232 15.1226 6.03811
197 2 -2.8669 12.2828 8.65827
233 2 1.01222 9.98977 6.93903
11 4 -0.956341 7.82174 5.28482
234 2 0.694071 10.8667 8.6617
328 2 -2.18867 14.9754 0.511779
16 4 -2.60479 12.701 10.2772
18 4 0.295856 10.3297 14.5662
19 4 -0.913152 10.5821 11.6587
31 4 5.06231 8.48273 16.8609
35 4 5.03748 8.49165 10.999
154 3 2.6726 14.7921 8.83491
41 4 4.80307 10.7548 13.1453
42 4 1.96649 13.1835 15.2946
43 4 3.24397 13.0352 11.9164
73 1 -0.637431 9.98502 16.0893
81 1 3.43594 9.66943 16.3033
83 1 1.36647 13.1295 11.5939
116 3 1.48231 8.69489 14.35
117 3 -1.63752 11.781 11.0142
118 3 -0.700292 10.3202 13.1456
26 4 2.67828 15.573 13.6542
148 3 5.06622 9.774 12.005
149 3 1.1697 11.796 14.8729
150 3 1.66598 14.5919 14.568
151 3 3.48637 11.6863 12.8861
152 3 3.64469 14.4152 12.6642
201 2 -2.21878 8.98097 10.6976
173 3 6.19591 8.36327 15.5352
182 3 4.29581 12.5682 10.4349
137 3 3.24139 8.16613 10.7264
198 2 -1.95228 14.3167 10.4064
70 1 -1.02412 8.88995 10.7172
200 2 0.427633 10.1193 10.594
230 2 -1.58937 9.39842 8.96997
207 2 0.744438 8.30938 9.96001
335 2 -1.41752 13.9864 12.2462
210 2 4.34522 9.96886 14.5794
211 2 3.68939 12.9719 15.2299
33 4 2.31866 8.00256 9.35375
213 2 1.85333 13.3804 16.9201
321 1 -3.5577 13.2084 17.0009
237 2 -0.301193 10.7544 16.9176
239 2 -1.75945 10.0183 15.7019
169 3 6.22315 8.39844 9.99796
262 2 3.88402 10.7282 15.9893
266 2 1.21164 12.6292 10.6052
267 2 1.046 14.2101 11.5886
268 2 0.908306 12.5586 12.4532
320 4 -3.61076 12.9636 15.2135
324 2 -2.65854 12.0945 16.9748
323 3 -2.96999 14.15 14.4416
333 1 -1.34424 15.1634 12.0632
238 2 -0.318461 8.94796 16.3979
261 2 2.65015 9.25285 15.5209
359 2 3.0136 9.58333 17.3637
189 3 4.983 12.6884 16.135
325 2 -3.10746 14.2463 17.3005
199 2 -4.146 12.5706 10.7986
212 2 3.02555 11.315 17.2924
196 2 -0.523621 8.19803 12.4606
5 4 -2.36567 15.6255 13.6539
358 2 -0.278776 15.5962 12.1752
9 4 14.3036 6.84578 1.99778
47 4 13.2101 2.82152 5.83974
51 4 11.7746 4.55788 1.59931
52 4 7.24778 6.92909 4.16342
54 4 11.1123 5.10589 6.78753
56 4 10.0486 7.4127 5.35545
362 2 15.0164 1.22382 1.26638
76 1 8.40171 3.70762 5.05711
85 1 14.7354 3.24978 6.34393
89 1 11.0972 4.16244 3.2635
90 1 10.7094 2.23785 8.01044
91 1 11.3403 5.44768 8.57949
162 3 12.2906 3.0961 0.846014
163 3 13.1079 5.82663 1.7367
164 3 6.94851 5.61424 3.01397
53 4 9.079 5.84243 0.151819
166 3 10.4712 5.2199 0.693493
167 3 12.1457 3.93507 6.27291
224 2 15.4641 5.91179 5.83684
246 2 7.99128 3.20015 4.07139
171 3 8.6177 6.66949 5.1255
172 3 11.3241 6.51748 6.01815
241 2 9.68454 0.747293 4.04104
214 2 9.46655 4.55394 6.52379
168 3 7.351 6.62713 8.36263
360 2 10.1152 0.303737 1.34536
247 2 9.38983 3.13083 5.40736
248 2 8.46302 4.76959 4.98027
270 2 14.7626 3.43184 4.98742
271 2 14.0178 1.81899 7.17153
272 2 14.7574 4.19651 6.96543
282 2 11.1599 3.00689 3.23158
283 2 10.0785 4.61143 3.31954
284 2 11.9729 4.65712 3.91155
285 2 10.5931 1.73285 6.97012
286 2 11.7802 2.47294 8.23846
287 2 10.1005 3.12338 8.10655
346 2 7.97234 4.57798 0.496509
339 3 12.5012 0.32421 0.520169
351 2 14.9651 3.56393 2.25286
84 1 15.0775 0.127146 1.60293
176 3 8.63926 7.14291 0.633723
66 1 16.0183 3.14823 2.65177
222 2 16.186 2.07761 2.69484
240 2 8.7679 2.20691 3.29114
353 2 15.126 4.92141 0.663518
342 2 14.6636 6.54067 4.18986
352 2 16.2849 3.6772 3.72142