ITEM: TIMESTEP
0
ITEM: NUMBER OF ATOMS
365
ITEM: BOX BOUNDS xy xz yz pp pp pp
-6.9345999999999997e+00 1.9702400000000001e+01 -6.9345999999999997e+00
0.0000000000000000e+00 1.5863300000000001e+01 2.0880000000000001e+00
0.0000000000000000e+00 1.7464200000000002e+01 8.7949999999999995e-01
ITEM: ATOMS id type q x y z
4 4 1.04443 2.56991 4.38373 5.83618
8 4 0.718224 -0.884917 4.05366 1.39487
10 4 1.2669 1.2927 5.17737 8.51312
68 1 -0.668082 -1.52536 6.57242 6.81269
78 1 -0.648715 1.45186 6.2325 3.15176
102 3 -0.764386 2.06116 1.21058 1.42622
105 3 -0.755602 0.229822 3.13547 0.832641
107 3 -0.863966 1.81376 4.61728 7.13186
192 2 -0.0335594 1.54495 4.82491 4.58424
206 2 -0.00544933 -0.0968607 5.41722 2.19323
226 2 0.145312 -0.54339 6.02818 6.52761
252 2 0.132114 0.46674 5.91706 3.77808
253 2 0.135506 2.37604 5.48997 3.20737
254 2 0.180324 1.31903 6.94306 2.17967
195 2 0.00357064 -0.256417 5.83107 8.22541
225 2 0.172663 -1.59983 7.1696 7.83561
2 4 1.1617 1.40707 1.99138 0.223684
354 2 0.139914 -1.64646 5.77022 0.134353
190 2 -0.0157638 1.45208 1.50353 8.29992
1 4 1.27476 3.26521 0.415081 2.50907
356 2 0.257712 4.82946 0.31594 6.08933
120 3 -0.850597 3.34827 3.10186 5.56369
260 2 0.199422 3.46406 5.78071 0.900295
349 2 0.270905 5.41175 0.275588 1.19684
257 2 0.217886 5.0075 6.84696 3.08412
123 3 -0.783976 5.94111 1.93656 5.75446
121 3 -0.801701 6.98574 1.07422 1.12443
79 1 -0.658215 4.74823 5.957 2.43905
129 3 -0.880761 5.21945 3.79968 3.92837
136 3 -0.810881 5.0205 6.42325 7.04178
135 3 -0.75498 3.45508 7.31203 4.99577
191 2 0.116514 3.45597 5.79195 5.29946
255 2 0.167924 3.62161 5.60389 2.57824
240 2 0.200183 7.2848 1.78596 3.9269
130 3 -0.761751 6.30721 3.67679 1.10376
204 2 0.03663 8.37586 2.18096 7.1012
133 3 -0.883155 6.58911 4.17293 7.30062
256 2 0.155414 5.06583 6.07453 1.29626
21 4 1.44665 4.57624 2.57527 4.65989
119 3 -0.786322 4.03495 1.41136 3.52867
25 4 1.0952 7.03637 3.00316 6.38891
29 4 1.27153 6.01381 4.59577 2.83023
32 4 1.55245 6.11417 5.43621 8.0673
34 4 1.511 5.17371 7.47569 5.87398
74 1 -0.653785 7.96396 0.877385 4.1427
22 4 1.52899 6.58196 2.22861 0.121653
3 4 1.13733 1.27964 2.28215 9.85343
7 4 1.46044 3.31662 2.91327 12.1967
12 4 1.26843 1.76547 5.08771 13.9215
353 2 0.290636 0.388002 5.2245 16.1913
69 1 -0.64776 3.16647 5.34715 15.1556
103 3 -0.796849 3.08105 2.25983 10.7409
104 3 -0.78601 3.50806 1.66055 13.1991
106 3 -0.760012 0.988436 4.00933 9.52826
110 3 -0.79709 2.34238 4.01846 12.8094
111 3 -0.746611 1.7242 7.11989 13.4098
227 2 0.161856 3.18722 6.50919 15.1547
229 2 0.227227 2.7375 4.89844 16.051
193 2 -0.0188736 2.73842 1.69946 16.7139
109 3 -0.725308 0.654968 4.63188 14.6905
33 4 1.3511 2.79851 7.82495 9.21683
134 3 -0.843159 2.13828 6.50551 8.90618
137 3 -0.862334 3.97861 7.7511 10.3086
67 1 -0.623829 0.221632 5.5465 17.4376
261 2 0.14622 2.49601 8.28448 16.873
259 2 0.181134 3.84785 6.43655 17.4219
216 2 0.0279522 6.80199 7.8931 13.2737
124 3 -0.775539 5.58858 1.66616 15.0904
126 3 -0.767217 4.65676 3.6481 16.7764
80 1 -0.63739 4.92519 6.77609 17.337
127 3 -0.818922 6.91939 2.76873 10.4168
228 2 0.203413 4.27138 4.92506 14.9455
132 3 -0.81574 5.3969 4.82047 9.46966
203 2 0.0891974 4.37335 2.26875 9.80322
128 3 -0.8529 8.35573 1.37603 12.0386
249 2 0.166346 7.27076 4.362 14.5479
296 2 0.176975 7.59769 7.47323 16.4631
250 2 0.145782 5.67292 5.40867 14.9829
265 2 0.140811 5.1761 6.99993 13.0448
258 2 0.176468 5.42306 6.4004 16.4152
251 2 0.260837 5.689 4.15644 13.4924
301 2 0.160387 8.04241 5.33323 11.9419
295 2 0.148002 7.10157 6.12279 15.082
263 2 0.15919 6.9619 6.30852 12.3796
264 2 0.264851 5.22662 5.93651 11.4107
24 4 1.26183 5.48473 3.4878 10.3614
27 4 1.31964 5.90693 2.97782 15.8519
28 4 1.2354 8.41297 2.53195 11.0061
77 1 -0.681433 6.1379 4.42467 14.5646
125 3 -0.800993 7.31839 2.89159 16.7454
82 1 -0.636577 5.75547 6.75928 12.0694
122 3 -0.799552 5.02517 3.75361 11.9103
26 4 1.39364 9.31397 0.69669 13.225
14 4 1.07554 -4.62378 12.5793 3.94163
15 4 1.06534 -1.60094 10.3261 8.0241
17 4 1.22715 -2.33174 12.7771 6.16479
72 1 -0.678407 -2.79475 14.5394 6.55394
113 3 -0.788174 -1.32124 9.25346 6.90892
114 3 -0.729064 -3.84762 12.1712 5.37203
115 3 -0.775113 -1.90698 11.8566 7.65123
141 3 -0.809732 -1.22928 12.9077 4.97979
209 2 -0.0278435 -0.821163 11.1323 3.0371
235 2 0.155539 -2.67188 14.5023 7.67709
236 2 0.186366 -3.8688 14.5864 6.18519
327 1 -0.661694 -2.59018 14.716 1.22668
329 2 0.161358 -2.56907 13.6 1.56741
112 3 -0.781283 -4.2178 13.923 3.30987
11 4 1.19385 -1.26608 8.07429 5.69458
328 2 0.192524 -3.25195 14.8264 0.291386
306 2 0.148708 -4.50191 11.091 2.14016
245 2 0.216 -0.473944 14.3238 7.17495
108 3 -0.778747 -2.70715 8.01081 4.61784
37 4 1.29292 -0.190109 12.3815 3.94049
341 2 6.49914e-05 1.72693 13.0353 0.63013
142 3 -0.823259 3.06871 10.9493 1.43594
232 2 0.194887 0.575571 9.65105 8.35198
75 1 -0.663924 -0.0109947 14.2938 8.17501
154 3 -0.767729 2.71537 14.8943 8.61535
138 3 -0.798239 2.12161 8.86056 3.12051
147 3 -0.834045 1.95751 12.9308 6.85955
146 3 -0.7819 3.19655 10.5631 6.1146
178 3 -0.844062 3.503 12.8403 4.66014
145 3 -0.814056 1.07159 11.8068 4.54802
139 3 -0.782127 3.38987 8.36385 0.889285
144 3 -0.843229 5.31965 8.90959 6.442
20 4 1.04545 0.906957 14.9876 2.43198
181 3 -0.842878 4.62195 10.9873 8.25715
23 4 1.08169 1.72264 13.5918 8.22825
36 4 1.20331 3.32226 9.44121 2.10921
39 4 1.55484 4.07504 9.78702 7.22334
40 4 1.51275 2.41163 12.136 5.52695
140 3 -0.793406 0.170074 13.604 2.86369
143 3 -0.849954 3.14302 8.73974 7.97715
131 3 -0.791925 0.346237 7.8349 5.06309
30 4 1.26114 1.76927 7.79849 4.24535
38 4 0.937212 2.37649 11.4848 0.177277
359 2 0.155467 0.578693 8.76256 0.669795
217 2 0.0163965 4.86188 9.30063 2.92504
338 2 0.240732 2.85501 13.1576 2.06955
242 2 0.238676 0.59207 15.1661 4.85837
243 2 0.176884 0.140667 15.3822 8.59943
18 4 1.18784 0.00359035 10.7301 14.6137
19 4 0.922349 -1.85056 10.4216 12.0128
73 1 -0.662286 -0.398722 10.1882 16.3948
118 3 -0.75607 -1.30093 10.7116 13.431
149 3 -0.813791 0.649912 12.2593 14.7227
200 2 -0.0247427 -0.765918 10.9854 10.7992
234 2 0.129153 0.64041 10.796 9.87155
237 2 0.14118 -0.215486 10.9954 17.1693
239 2 0.164366 -1.53934 9.95071 16.2891
321 1 -0.652687 -2.72805 12.3694 17.0306
323 3 -0.772408 -3.03783 14.3411 14.8303
324 2 0.162382 -1.86595 11.5133 16.8697
231 2 0.0888263 -2.53076 9.54674 9.51302
71 1 -0.686294 -0.00380539 10.0245 9.30105
335 2 0.191663 -1.17282 13.8716 12.9197
333 1 -0.670534 -1.24619 14.986 12.5669
233 2 0.110997 -0.253337 9.13794 9.94588
238 2 0.178995 0.258914 9.24066 16.4536
201 2 -0.0346771 -1.58457 8.81578 11.5891
320 4 0.888316 -3.58878 12.9157 15.514
198 2 0.0499454 -3.97577 11.4138 8.8912
334 2 0.173872 -1.86726 15.1108 11.6562
358 2 0.290724 -0.240365 15.4725 12.4332
5 4 1.25319 -2.35575 15.6011 13.9773
244 2 0.151979 -0.505542 13.6296 8.96438
325 2 0.168017 -2.32647 13.3524 17.3989
35 4 1.29948 5.26753 8.27638 11.0239
267 2 0.120883 0.892451 11.8748 10.7393
182 3 -0.829732 4.06718 12.5253 10.502
173 3 -0.782375 5.76544 9.1794 15.4261
208 2 0.0457014 3.49336 9.00326 12.827
210 2 0.0823512 4.63921 10.2136 14.8165
202 2 0.00704776 1.79108 12.4929 9.52168
116 3 -0.801168 1.14255 9.52669 14.0137
266 2 0.210734 0.979289 12.5831 12.5521
212 2 -0.0345713 3.21181 11.2604 17.2371
211 2 0.0736635 3.15866 13.0289 14.4925
189 3 -0.80639 5.24372 12.6184 16.2221
13 4 0.980782 1.86238 8.52864 13.1091
196 2 -0.0538223 1.28287 8.74974 11.5344
207 2 -0.0136295 1.42815 8.7929 9.80403
213 2 -0.0609141 1.87033 13.7423 16.5632
262 2 0.154191 2.7021 9.93849 16.2544
268 2 0.158541 1.14416 13.8638 11.0497
31 4 1.02819 4.84509 8.67976 16.9932
41 4 1.28244 4.78924 10.9774 13.2717
42 4 0.989249 1.60833 13.4769 14.9463
43 4 1.27005 3.21305 13.0933 11.7651
81 1 -0.688437 2.97113 9.2431 17.0808
83 1 -0.679215 1.36604 12.7364 11.4417
152 3 -0.806514 3.39451 14.5966 12.3674
148 3 -0.829448 4.9029 9.70566 12.369
150 3 -0.800334 1.35419 14.8203 14.1802
151 3 -0.832848 3.53209 11.9124 13.1886
51 4 1.24983 11.5254 4.31552 1.31129
52 4 1.42273 7.79119 6.79437 3.76961
76 1 -0.677922 8.72086 3.29376 5.51495
89 1 -0.65877 10.584 4.05435 2.93825
90 1 -0.647283 11.0732 1.7154 7.07397
162 3 -0.775873 11.6733 2.8574 0.457174
164 3 -0.8584 7.43654 5.2525 3.21513
171 3 -0.795396 9.26126 6.79868 4.47256
285 2 0.194175 11.4281 0.783149 6.55858
214 2 0.0341489 10.6971 5.90487 6.49739
246 2 0.157182 9.32124 2.39469 4.99009
247 2 0.174436 9.35276 3.86623 6.3238
248 2 0.214995 8.21269 4.03965 4.66621
282 2 0.194871 11.1568 4.47811 3.82194
283 2 0.156483 10.5405 2.89971 2.94209
284 2 0.24169 9.56334 4.49305 2.80531
241 2 0.138227 9.1318 1.20099 4.35499
287 2 0.161083 10.1161 2.27197 6.53622
289 2 0.169402 10.5866 3.61229 7.64758
168 3 -0.827212 7.26802 6.37584 8.59344
290 2 0.213837 9.23915 4.97052 7.8607
91 1 -0.665832 10.3423 4.7069 7.92756
165 3 -0.851398 6.3782 7.16736 4.86086
166 3 -0.761014 9.88851 5.19271 0.479892
346 2 0.0985256 7.3367 4.71807 0.564224
286 2 0.154253 11.9442 2.42751 7.2951
339 3 -0.792741 11.88 0.117443 0.423645
224 2 0.186961 15.165 5.95139 6.59387
54 4 0.91865 12.2314 5.58971 7.33303
170 3 -0.816558 12.1907 7.46949 4.37418
84 1 -0.679273 14.0955 0.421712 2.28845
355 2 0.252827 12.6449 7.40248 7.67363
352 2 -0.0141397 15.4302 4.99437 4.49167
194 2 0.039264 13.7272 5.69784 3.68159
9 4 0.957797 13.6254 7.41997 3.86436
361 2 0.172942 13.5327 1.38612 2.06057
351 2 0.146261 13.7518 2.64334 3.71693
223 2 0.199413 14.6765 4.38497 0.418764
272 2 0.250071 14.8071 1.34046 5.79347
47 4 0.756465 14.4484 3.87658 5.44175
66 1 -0.633472 14.1978 3.79942 3.6071
85 1 -0.643554 14.8957 2.32212 6.51249
163 3 -0.73918 12.6864 5.05479 1.61495
167 3 -0.752722 13.3223 4.76785 6.41662
343 2 0.168045 14.5418 2.33668 7.59551
270 2 0.12061 16.0278 2.65277 6.50318
271 2 0.256237 13.529 4.34018 2.77347
222 2 0.0105028 15.8617 3.59555 2.99757
172 3 -0.769388 12.5762 6.70058 8.44357
269 2 0.160937 14.9532 0.216412 1.6316
362 2 0.297304 14.2726 0.216911 3.49763
46 4 1.06506 10.5418 1.268 8.94147
49 4 1.34105 10.9126 2.7505 15.5336
278 2 0.0319302 12.9485 2.30187 9.71198
55 4 1.24825 7.79468 7.72837 9.41616
58 4 1.06641 9.9436 6.96009 11.5868
86 1 -0.655531 11.3056 4.43707 14.6596
94 1 -0.680985 11.5039 5.96311 11.1061
95 1 -0.674213 8.81582 5.70944 12.675
155 3 -0.785582 9.54384 2.41256 9.79452
158 3 -0.763951 12.3691 2.38162 16.1645
174 3 -0.809705 9.08545 7.33764 10.3459
273 2 0.145324 10.3496 5.01833 14.442
274 2 0.162122 11.7821 4.14053 13.6527
275 2 0.187514 12.0169 4.96176 15.4828
288 2 0.182928 10.6 4.93234 8.98238
159 3 -0.859041 9.89542 3.2361 16.6409
297 2 0.256971 11.9805 6.31457 10.1331
298 2 0.12734 10.951 4.97281 10.9711
299 2 0.167849 12.1559 6.01505 12.0118
300 2 0.137908 9.53174 4.92433 13.0633
294 2 0.154324 8.83118 7.20852 15.0382
347 2 -0.000132638 10.5577 5.82745 15.8543
281 2 -0.00911189 12.4803 4.30462 11.6278
302 2 0.152533 8.34451 6.26042 13.6394
157 3 -0.764565 10.3766 1.65645 14.3322
93 1 -0.678394 7.72373 7.17909 15.3847
277 2 0.210223 11.6955 0.84577 10.8656
205 2 -0.0203458 8.99405 3.87963 11.824
53 4 0.994157 10.7236 6.54828 17.4189
176 3 -0.796072 10.4261 8.14072 17.3985
87 1 -0.643131 12.0983 0.870207 9.79808
279 2 0.253968 15.7304 3.70329 12.3752
332 2 0.303195 18.0511 3.03355 14.9731
161 3 -0.76439 13.7492 1.83825 12.4249
280 2 0.172474 15.1018 4.89809 10.821
6 4 1.02324 16.1243 1.18903 15.4499
50 4 0.770985 13.6691 3.06924 11.3835
160 3 -0.635703 17.9048 1.66381 10.5933
45 4 1.45491 13.8522 2.39345 16.9957
345 2 0.209061 18.078 1.29682 14.0666
330 1 -0.651222 17.8308 1.82391 15.0376
331 2 0.109712 18.3946 1.32081 15.918
88 1 -0.568667 15.0703 4.0077 11.4657
153 3 -0.741671 15.2318 2.46322 16.0042
44 4 1.21841 5.91857 14.19 1.57672
60 4 1.30127 4.93758 12.6859 4.06499
363 2 0.256106 6.77696 10.1279 2.53964
63 4 0.973449 7.14934 13.872 5.84032
98 1 -0.62275 6.49861 10.1349 3.66947
175 3 -0.850592 7.81452 7.83331 2.52112
177 3 -0.843507 5.21558 13.462 2.70967
179 3 -0.741281 7.46296 9.98461 0.788126
180 3 -0.719554 6.97835 12.9939 0.362353
184 3 -0.809444 5.87104 13.2043 5.27727
310 2 0.0728788 5.33797 10.9104 3.75711
308 2 0.152294 7.30701 10.6859 4.28149
309 2 0.234122 6.4088 9.00341 4.13341
215 2 -0.0230397 8.44921 8.80433 8.28251
218 2 0.0531072 5.30283 13.7497 8.24418
220 2 -0.0403242 8.28757 12.7045 6.22736
59 4 1.27436 8.2283 8.46738 1.14358
337 2 0.223458 2.82904 14.6508 0.832217
219 2 0.00636839 6.85744 14.3738 7.49583
336 1 -0.655156 2.62051 14.275 1.87488
311 2 0.11676 7.44597 12.5826 8.2491
183 3 -0.738661 7.69813 14.8904 5.0076
360 2 0.190444 3.17909 14.9028 2.67891
97 1 -0.61106 12.3245 11.3469 3.04745
357 2 0.184065 11.8571 11.0936 0.199143
340 3 -0.740471 9.42593 11.6454 0.00948992
292 2 0.155071 9.16963 9.91835 4.4586
293 2 0.189635 11.1002 10.1701 4.11394
56 4 1.01853 10.6098 7.82751 4.73257
303 2 0.267937 9.87235 10.3333 0.759335
342 2 -0.0103575 13.6172 7.72276 2.26552
96 1 -0.629127 9.93022 9.24227 1.40193
304 2 0.177966 10.6568 8.47163 0.954867
305 2 0.177995 10.0138 9.44968 2.65038
230 2 0.184077 13.908 9.20628 8.02278
291 2 0.039499 10.549 8.96424 6.26744
307 2 0.152774 11.1617 11.5833 2.90901
92 1 -0.640358 10.2416 9.51841 4.68967
57 4 1.03444 7.24199 8.85936 14.6605
65 4 1.13362 6.20074 12.9818 14.792
99 1 -0.651576 6.82179 13.1803 9.04453
101 1 -0.684007 7.89972 12.4194 15.2675
185 3 -0.799663 8.47235 9.74185 14.3216
187 3 -0.779423 6.06147 11.8891 13.3154
188 3 -0.743873 6.1756 14.7803 14.1579
62 4 1.06529 5.0144 12.1638 9.22922
312 2 0.0711284 6.66505 11.7637 9.96187
313 2 0.169051 7.46815 13.8052 9.71688
317 2 0.156446 8.49518 13.362 14.8338
318 2 0.264927 8.10257 11.3079 14.8015
319 2 0.199908 7.67675 12.3931 16.4294
344 2 0.0107866 7.69368 14.4213 12.0053
350 2 0.0920255 9.26798 14.768 16.6956
276 2 0.184454 5.84605 14.937 9.54152
314 2 0.182655 8.80328 11.2685 12.3628
169 3 -0.830305 6.58387 8.46785 10.1648
48 4 1.30151 7.19205 15.4797 13.2598
156 3 -0.798611 8.53707 15.5753 14.0608
186 3 -0.744666 10.4982 8.33642 12.6782
326 2 0.186957 13.1921 11.5237 13.9232
348 2 0.00325911 9.76966 11.9815 15.6664
315 2 0.173743 10.0418 10.3972 11.1448
365 2 0.135515 11.8447 12.6602 14.9552
364 2 0.171759 12.4612 10.8873 15.6029
16 4 0.667595 13.2334 10.5943 10.5789
322 1 -0.667824 12.6766 11.7971 14.9563
199 2 -0.0197396 11.6182 11.089 10.9644
64 4 0.914387 10.1069 9.73387 13.3761
221 2 0.00265181 11.4145 10.3134 14.3655
100 1 -0.668117 9.97031 11.0225 12.0346
316 2 0.144108 10.6721 11.8997 12.2285
70 1 -0.641003 13.9716 9.66706 9.04539
197 2 0.0726563 12.887 8.79259 10.2102
117 3 -0.78185 14.2719 10.7469 11.7988
61 4 1.06846 10.1382 12.3558 17.3152
ITEM: TIMESTEP
100
ITEM: NUMBER OF ATOMS
365
ITEM: BOX BOUNDS xy xz yz pp pp pp
-6.9345999999999997e+00 1.9702400000000001e+01 -6.9345999999999997e+00
0.0000000000000000e+00 1.5863300000000001e+01 2.0880000000000001e+00
0.0000000000000000e+00 1.7499128400000000e+01 8.7949999999999995e-01
ITEM: ATOMS id type q x y z
4 4 1.00655 2.4274 4.31241 5.69062
8 4 0.732607 -0.715784 4.11733 1.29854
10 4 1.25746 1.26149 5.16415 8.40557
68 1 -0.655756 -1.52516 6.67434 6.81704
78 1 -0.681408 1.52344 6.03074 3.15057
102 3 -0.790104 2.07397 1.26283 1.50555
105 3 -0.799588 0.298218 3.0817 0.825126
107 3 -0.851559 1.75766 4.51412 7.05182
192 2 -0.0372497 1.31898 4.48726 4.39829
206 2 -0.00828622 0.106382 5.47791 1.98718
226 2 0.128825 -0.66137 6.04117 6.36812
252 2 0.122658 0.488928 5.7297 3.6002
253 2 0.137543 2.35652 5.21883 3.0884
254 2 0.15561 1.4184 6.59004 2.07443
195 2 -0.00531738 -0.298203 5.77407 8.1337
225 2 0.140164 -1.29927 7.17748 7.87111
2 4 1.21865 1.30661 1.92157 0.283599
354 2 0.134012 -1.45293 5.8756 0.0401985
190 2 -0.00777413 1.34359 1.37578 8.36768
1 4 1.33294 3.14853 0.500666 2.53343
356 2 0.286924 4.89724 0.336205 6.33225
120 3 -0.827991 3.37744 3.0838 5.57796
260 2 0.193742 3.36927 5.73817 0.719184
349 2 0.285495 5.42907 0.280123 1.30298
257 2 0.208699 4.53942 6.52204 3.22713
123 3 -0.778512 5.88506 1.70151 5.7068
121 3 -0.790918 6.99736 0.969787 1.16548
79 1 -0.684428 4.54515 5.74162 2.40272
129 3 -0.85516 5.33975 3.54822 3.70654
136 3 -0.815075 5.06034 6.22723 6.93046
135 3 -0.773604 3.4513 7.26184 4.95402
191 2 0.119058 3.34388 5.75415 5.38626
255 2 0.158943 3.52629 5.09523 2.38985
240 2 0.205013 7.54274 1.85309 3.45324
130 3 -0.780458 6.3732 3.59993 1.1508
204 2 0.0281706 8.2731 2.05963 7.17661
133 3 -0.830558 6.64926 4.14293 7.15858
256 2 0.174359 4.87135 6.21736 1.42716
21 4 1.44763 4.59126 2.50475 4.67792
119 3 -0.781827 3.86997 1.38854 3.64307
25 4 1.04557 7.02754 2.85026 6.38041
29 4 1.30251 6.00667 4.56823 2.72499
32 4 1.49252 6.18252 5.51576 7.9966
34 4 1.48404 5.16898 7.4021 5.83986
74 1 -0.660833 8.12104 0.920774 3.89652
22 4 1.52762 6.57257 2.25021 0.210661
243 2 0.183224 7.2373 0.478705 8.70535
242 2 0.208497 7.5726 0.368182 4.7786
67 1 -0.61731 -1.81527 4.72581 0.000631143
3 4 1.13701 1.31272 2.33042 9.83673
7 4 1.46523 3.35935 2.78186 12.1182
12 4 1.20324 1.74094 5.05403 14.0092
353 2 0.297378 0.423936 5.07893 16.28
69 1 -0.657142 3.16864 5.34457 15.1789
103 3 -0.778971 3.21175 2.26297 10.5311
104 3 -0.817811 3.58681 1.57019 13.1745
106 3 -0.750284 0.962582 4.06799 9.49626
110 3 -0.736999 2.36622 3.86412 12.6388
111 3 -0.737411 1.65277 7.00662 13.4184
227 2 0.176559 3.19538 6.46144 15.1777
229 2 0.224843 2.75277 4.91152 16.1093
193 2 -0.0304466 2.34217 1.68617 17.0068
109 3 -0.73264 0.662522 4.57806 14.8095
358 2 0.258097 6.81637 0.695959 12.833
134 3 -0.812504 2.10042 6.43789 8.86289
122 3 -0.795634 4.95998 3.70235 11.9128
301 2 0.168746 7.78864 5.54696 11.8817
26 4 1.43886 9.36255 0.71267 13.3728
259 2 0.163878 3.75273 6.45735 17.2309
82 1 -0.673286 5.56401 6.88057 12.0759
124 3 -0.806981 5.48907 1.70666 15.0738
126 3 -0.778292 4.51867 3.39719 16.7169
80 1 -0.643068 4.86556 6.78545 17.1757
127 3 -0.860852 7.01541 2.84325 10.3617
228 2 0.203308 4.2169 4.89203 14.9039
132 3 -0.806242 5.49713 4.86508 9.50796
203 2 0.0955153 4.51285 2.4399 9.51481
128 3 -0.817888 8.52965 1.63583 12.1682
249 2 0.168885 7.31122 4.35632 14.5347
296 2 0.17951 7.74147 7.3837 16.5334
250 2 0.149248 5.72413 5.35136 15.0619
265 2 0.147985 4.98309 7.09251 13.0637
258 2 0.16351 5.46552 6.33416 16.2703
251 2 0.249521 5.71062 4.13251 13.5262
5 4 1.28127 4.63032 0.719237 14.0013
295 2 0.147714 7.25962 6.04543 15.1219
263 2 0.168619 6.73573 6.54773 12.2558
264 2 0.2331 4.94367 6.03631 11.4954
24 4 1.26014 5.55307 3.52935 10.3686
27 4 1.32665 5.89234 2.98384 15.8858
28 4 1.25671 8.44227 2.62136 10.9263
77 1 -0.690293 6.1636 4.4091 14.6179
125 3 -0.794361 7.27192 2.89815 16.9179
216 2 0.00639078 6.75843 8.07679 13.1388
14 4 1.12317 -4.45765 12.6773 3.92682
15 4 1.04859 -1.65106 10.3892 8.13416
17 4 1.23381 -2.4451 12.783 6.34361
72 1 -0.680148 -2.64581 14.5698 6.82609
113 3 -0.762236 -1.45496 9.4654 6.82102
114 3 -0.743611 -3.96855 12.3105 5.38722
115 3 -0.780781 -2.11269 11.8675 7.72409
141 3 -0.78544 -1.23204 12.79 5.16406
209 2 -0.00647602 -1.03536 11.1497 3.19874
235 2 0.168075 -2.33522 14.4255 7.92408
236 2 0.173829 -3.77832 14.7035 6.68653
327 1 -0.661192 -2.53008 14.7186 1.36205
329 2 0.167424 -2.42664 13.6847 1.91666
112 3 -0.793888 -4.42085 14.0777 3.29965
11 4 1.17582 -1.18264 8.17673 5.73424
338 2 0.221609 2.86755 12.9965 1.93336
306 2 0.154047 -4.5214 10.8526 2.49323
245 2 0.201374 -0.0655994 14.5879 7.01239
108 3 -0.755774 -2.6748 7.88643 4.71458
37 4 1.30338 -0.214125 12.3838 4.0137
341 2 -0.0157175 1.40905 12.7107 0.695605
142 3 -0.819862 3.22213 10.8162 1.41317
232 2 0.1656 0.61578 10.2321 8.43849
75 1 -0.681007 0.167714 14.493 8.14204
154 3 -0.789455 2.895 14.7922 8.68521
138 3 -0.77289 1.9543 8.92431 3.09656
147 3 -0.823963 2.14682 12.823 6.86944
146 3 -0.8505 3.35781 10.6573 5.9739
178 3 -0.840575 3.36897 12.8876 4.46198
145 3 -0.804282 0.97283 11.6729 4.62456
139 3 -0.774841 3.54104 8.28654 0.967857
144 3 -0.835954 5.20567 8.90288 6.45993
20 4 1.04864 0.847439 14.7448 2.4332
181 3 -0.766368 4.8065 10.934 8.46144
23 4 1.07826 1.87329 13.6908 8.19492
36 4 1.18172 3.35722 9.38189 2.19005
39 4 1.53761 4.0786 9.81527 7.1133
40 4 1.49507 2.44177 11.9578 5.50626
140 3 -0.845782 -0.0583818 13.4991 2.87746
143 3 -0.833115 2.96722 8.78263 7.78044
131 3 -0.760447 0.384748 7.97766 4.96118
328 2 0.18365 -3.05244 14.6984 0.33342
38 4 0.973173 2.50567 11.4597 0.18217
359 2 0.166727 0.548739 8.92804 0.449905
217 2 0.0147275 4.69264 9.33114 3.29771
244 2 0.156242 -0.405063 13.6385 8.67637
336 1 -0.652348 2.52611 14.0565 1.57294
30 4 1.22258 1.81384 7.70012 4.1125
18 4 1.182 0.0232578 10.7032 14.514
19 4 0.922657 -1.82266 10.554 12.1367
73 1 -0.643302 -0.646419 9.98366 16.1568
118 3 -0.796054 -1.32452 10.9773 13.542
149 3 -0.787558 0.891992 12.1434 15.0483
200 2 0.00311434 -0.738332 11.2219 10.9852
234 2 0.120221 0.86505 10.6754 10.1994
237 2 0.155901 -0.33813 10.6864 16.9676
239 2 0.172979 -1.7833 9.78398 16.0075
321 1 -0.643742 -2.64106 12.474 16.9915
323 3 -0.736918 -3.09462 14.2158 14.7659
324 2 0.168835 -1.9211 11.4807 16.7299
231 2 0.0933744 -2.58909 9.43448 9.5084
71 1 -0.683558 0.0302363 10.3243 9.44577
335 2 0.218346 -0.776752 13.9019 13.1919
333 1 -0.651686 -1.02696 14.944 12.82
233 2 0.0946906 -0.40383 9.3446 9.73159
238 2 0.196902 -0.0365599 9.03983 16.1897
201 2 -0.0381774 -1.43128 8.92148 12.079
320 4 0.898942 -3.64724 12.9312 15.5477
151 3 -0.808584 3.43484 11.8801 13.303
334 2 0.161047 -1.68873 14.9744 11.8349
150 3 -0.826226 1.48289 14.6918 14.2943
325 2 0.160823 -2.04975 13.4539 17.2723
117 3 -0.803502 -3.24569 10.7958 11.5791
137 3 -0.829015 3.86401 8.08963 10.0365
35 4 1.28006 5.16619 8.26897 10.8873
267 2 0.132239 1.37068 11.7397 10.9804
182 3 -0.803884 4.16255 12.8306 10.5368
173 3 -0.758427 5.87581 9.14665 15.4932
208 2 0.0676854 3.16657 8.90812 12.4258
210 2 0.0645393 4.70871 10.166 14.8343
202 2 0.014173 1.73544 12.6344 9.54257
116 3 -0.786253 1.06117 9.41435 14.011
266 2 0.196862 0.944195 12.8327 12.6068
212 2 -0.031312 3.38463 11.293 17.1698
211 2 0.0729613 3.37162 12.7946 14.7655
148 3 -0.774703 4.60065 9.66776 12.1372
13 4 0.939628 1.61959 8.36598 12.9254
196 2 -0.0594976 0.623949 8.3806 11.5782
207 2 -0.0347022 1.21999 8.793 9.74244
213 2 -0.0496423 2.19175 13.9045 16.649
262 2 0.155146 2.93053 9.99689 16.1299
268 2 0.153072 1.14683 13.7588 10.8862
31 4 1.03075 4.91136 8.69865 17.0486
41 4 1.18819 4.7441 10.9134 13.3446
42 4 1.00534 1.84092 13.4125 15.093
43 4 1.26787 3.29822 13.1405 11.8973
81 1 -0.695393 3.06291 9.31682 17.0348
83 1 -0.665539 1.43803 12.7861 11.5283
152 3 -0.80329 3.46651 14.6368 12.4939
33 4 1.29392 2.61453 7.9937 9.02861
261 2 0.150997 2.59949 8.34429 16.8211
51 4 1.22543 11.4166 4.35046 1.35981
52 4 1.45086 7.62102 6.80991 3.94297
76 1 -0.657497 8.74654 3.15964 5.63523
89 1 -0.652407 10.8371 3.77248 3.12995
90 1 -0.665257 11.2615 1.84528 7.18786
162 3 -0.763599 11.8224 2.84429 0.536278
164 3 -0.846513 7.34144 5.25572 3.25031
171 3 -0.791933 9.26053 6.93589 4.63694
285 2 0.166889 11.6715 0.972639 6.58968
214 2 0.0513954 10.5147 6.04652 6.4029
246 2 0.155821 9.29719 2.16686 5.18741
247 2 0.17075 9.42608 3.80571 6.45376
248 2 0.199812 8.253 3.86806 4.76984
282 2 0.182366 11.761 3.90305 3.84486
283 2 0.167617 10.6319 2.66531 2.89692
284 2 0.208369 9.93613 4.34997 3.46729
241 2 0.149902 9.22562 1.20498 4.15108
287 2 0.172786 10.3821 2.35675 6.60851
289 2 0.172195 10.7422 3.75751 7.71464
168 3 -0.828583 7.38814 6.52086 8.35938
290 2 0.207069 9.3092 5.01109 7.83202
91 1 -0.666629 10.464 4.88691 7.86255
165 3 -0.895648 6.46168 7.19979 4.86779
166 3 -0.768385 9.86666 5.28264 0.517093
346 2 0.0947474 7.38143 4.72148 0.455253
286 2 0.162413 12.0489 2.55475 7.49705
339 3 -0.811245 11.91 0.20435 0.430274
224 2 0.200803 14.9963 6.29256 6.67832
54 4 0.948363 12.1869 5.7733 7.10965
170 3 -0.764098 12.1659 7.57878 4.2776
84 1 -0.668134 14.2074 0.428394 2.13704
355 2 0.243975 12.8376 7.54949 7.5169
352 2 -0.00768343 15.6029 4.78454 4.67191
194 2 0.0310517 13.9633 5.64009 3.56935
9 4 0.899676 13.7986 7.33813 3.79003
361 2 0.189291 13.8252 1.41155 1.82585
351 2 0.153039 13.9157 2.7565 3.59973
223 2 0.187102 14.7678 4.33864 0.604806
272 2 0.247634 14.864 1.42476 5.84839
47 4 0.730236 14.4226 3.8009 5.54049
66 1 -0.62521 14.4385 3.79382 3.4719
85 1 -0.641888 14.8238 2.35927 6.58326
163 3 -0.70846 12.6125 5.06573 1.57877
167 3 -0.750835 13.1529 4.78441 6.33891
343 2 0.161732 14.1179 2.28008 7.49489
270 2 0.101383 16.0845 2.85812 6.71883
271 2 0.238454 13.6887 4.31094 2.63391
222 2 0.0427262 15.9287 3.48979 2.88508
172 3 -0.757743 12.6884 6.79682 8.27336
362 2 0.281531 14.3747 0.286053 3.3456
46 4 1.06994 10.704 1.18684 9.0299
49 4 1.30279 10.8295 2.97533 15.5382
278 2 0.0289894 13.1103 2.30689 9.994
55 4 1.21484 7.82521 7.825 9.30154
58 4 1.05736 9.98891 6.98585 11.656
86 1 -0.667062 11.1807 4.48736 14.4626
94 1 -0.662021 11.5503 6.11997 10.9476
95 1 -0.664681 8.63045 5.85374 12.5874
155 3 -0.783606 9.66561 2.27428 9.88209
158 3 -0.741223 12.2433 2.31531 16.1873
174 3 -0.777398 9.00479 7.44963 10.4277
273 2 0.151013 10.4323 5.35216 14.3341
274 2 0.160183 11.3111 3.84405 13.4301
275 2 0.172619 12.2471 4.76591 14.851
288 2 0.176058 10.8078 5.23744 8.8848
159 3 -0.854671 9.79805 3.49973 16.5861
297 2 0.252811 11.944 6.40421 9.88019
298 2 0.105306 10.9472 5.04089 10.914
299 2 0.160975 12.344 6.05816 11.7438
300 2 0.125192 9.51838 5.12221 12.8333
294 2 0.16526 8.96502 7.05405 15.0995
347 2 0.00437811 10.5813 5.88767 15.7529
281 2 -0.0113893 12.49 4.43811 11.502
302 2 0.167572 8.24497 6.32471 13.5267
157 3 -0.757465 10.142 1.80896 14.3307
153 3 -0.765676 15.0816 2.29628 15.9961
277 2 0.230725 11.8045 0.732685 10.9982
205 2 -0.00111416 8.792 4.19338 11.5605
53 4 0.999506 10.6945 6.57383 17.3355
176 3 -0.814232 10.3287 8.10102 17.4129
87 1 -0.645658 12.2286 0.859917 9.98687
279 2 0.255781 15.853 3.49033 12.5245
332 2 0.297789 17.897 2.97373 15.0057
161 3 -0.711668 13.4774 2.05239 12.8642
280 2 0.166698 15.4323 4.53398 10.7731
6 4 1.05466 16.0105 1.14482 15.424
50 4 0.741943 13.6106 3.1339 11.6455
160 3 -0.640037 18.1053 1.64859 10.7152
45 4 1.4754 13.8041 2.38515 17.0553
345 2 0.209438 17.9785 1.30038 14.0633
330 1 -0.67322 17.7321 1.77626 15.094
331 2 0.133578 18.3642 1.35797 15.8696
88 1 -0.560111 15.2091 3.85774 11.6888
93 1 -0.675414 7.88531 7.08017 15.4081
44 4 1.20994 6.03306 14.244 1.42292
60 4 1.2794 4.85934 12.7408 4.00389
363 2 0.259537 6.72065 10.197 2.53832
63 4 0.934412 7.28759 13.9325 5.71286
98 1 -0.635178 6.38841 10.3214 3.66886
175 3 -0.811751 7.64935 7.87749 2.66657
177 3 -0.806094 5.32177 13.463 2.61202
179 3 -0.726477 7.36001 10.0376 0.722441
180 3 -0.729221 7.16999 13.0311 0.329504
184 3 -0.789696 6.02393 12.9532 5.10451
310 2 0.0913976 5.1143 11.0014 3.68039
308 2 0.190441 7.19689 10.8592 4.1764
309 2 0.23982 6.29173 9.37127 4.12849
215 2 -0.016307 8.46231 8.9684 8.27321
218 2 0.0640584 5.2837 13.7169 8.20836
220 2 -0.0149971 8.60484 12.978 6.14668
59 4 1.20581 8.21227 8.34243 1.18405
337 2 0.199871 2.4278 14.2746 0.449435
219 2 -0.00446337 6.98043 14.5611 7.31683
340 3 -0.732223 9.38695 11.5525 0.123063
311 2 0.141698 7.25365 12.6358 8.03185
183 3 -0.729487 7.84873 14.9878 4.96939
360 2 0.199508 3.18612 14.8736 2.12467
97 1 -0.622095 12.3653 11.4374 3.13891
357 2 0.174803 11.947 11.419 0.252648
92 1 -0.646222 10.1414 9.54179 4.63307
292 2 0.178556 9.06415 9.67836 4.44125
293 2 0.199699 10.8898 10.3098 4.10933
56 4 1.03664 10.5619 7.88073 4.6772
303 2 0.272672 9.78629 10.1718 0.819763
342 2 -0.014889 13.9625 7.6548 2.14776
96 1 -0.654984 9.90747 9.16295 1.45388
304 2 0.176537 10.5865 8.34617 0.98819
305 2 0.189327 10.0134 9.38032 2.63199
230 2 0.195808 13.8834 9.22382 7.95462
291 2 0.0454641 10.3785 9.03476 6.26112
307 2 0.177571 11.3395 11.7661 2.76512
269 2 0.155684 8.22328 14.9788 1.49747
57 4 1.01119 7.29664 8.6586 14.6533
65 4 1.24181 6.12348 13.0822 14.796
99 1 -0.673225 6.81967 13.2419 8.81904
101 1 -0.672581 7.93212 12.5872 15.3317
185 3 -0.760077 8.55113 9.61466 14.5573
187 3 -0.803813 5.93213 11.9025 13.4202
188 3 -0.778162 6.06121 14.5877 14.3336
62 4 1.04589 5.14519 12.2467 9.30799
312 2 0.069503 6.88582 12.1431 10.1392
313 2 0.153589 7.50734 14.1057 9.05823
317 2 0.168042 8.74018 13.2459 14.9838
318 2 0.235151 8.14907 11.4258 15.0169
319 2 0.202548 7.71103 12.6953 16.4981
344 2 -0.00676474 7.05141 14.47 11.9014
350 2 0.0940214 9.30424 14.8003 16.6372
276 2 0.176338 5.87182 14.8867 9.55767
314 2 0.180926 8.75631 11.0677 12.1208
169 3 -0.780126 6.54719 8.56287 9.95136
48 4 1.18263 7.07616 15.4014 13.2957
156 3 -0.782091 8.53781 15.4396 13.9893
186 3 -0.760638 10.4136 8.21432 12.7529
326 2 0.162031 13.2818 11.4389 13.9895
348 2 0.00198988 9.8146 12.0647 15.7431
315 2 0.170345 9.97384 10.4029 10.9188
365 2 0.135595 11.8337 12.866 14.6836
364 2 0.168573 12.1081 11.1478 15.7183
16 4 0.683633 13.2178 10.6619 10.5401
322 1 -0.647924 12.54 11.9082 14.9487
199 2 -0.023479 11.6487 10.8531 11.1986
64 4 0.911325 10.0418 9.65709 13.4183
221 2 -0.000630675 11.3617 10.3881 14.3316
100 1 -0.665956 9.80194 10.7489 11.9319
316 2 0.120753 10.5527 11.6167 12.2628
70 1 -0.626236 13.9868 9.71061 8.95922
197 2 0.0580772 12.8164 8.88795 10.1557
198 2 0.069683 13.5333 11.3982 8.83007
61 4 1.13995 10.0947 12.2495 17.4128
189 3 -0.8312 5.25996 12.7368 16.2813
ITEM: TIMESTEP
200
ITEM: NUMBER OF ATOMS
365
ITEM: BOX BOUNDS xy xz yz pp pp pp
-6.9345999999999997e+00 1.9702400000000001e+01 -6.9345999999999997e+00
0.0000000000000000e+00 1.5863300000000001e+01 2.0880000000000001e+00
0.0000000000000000e+00 1.7534056800000002e+01 8.7949999999999995e-01
ITEM: ATOMS id type q x y z
4 4 1.00775 2.54823 4.39712 5.76724
8 4 0.705767 -0.76277 4.21163 1.27358
10 4 1.26805 1.19143 5.21466 8.31881
68 1 -0.679637 -1.37244 6.62251 6.84221
78 1 -0.671266 1.61242 6.03102 3.13247
102 3 -0.79222 2.09452 1.30376 1.67212
105 3 -0.751571 0.128454 3.01983 0.762961
107 3 -0.867416 1.52488 4.53706 6.96703
192 2 -0.0203936 1.5537 4.4469 4.36662
206 2 -0.0162263 0.0734375 5.51728 2.0316
226 2 0.13707 -0.387511 6.05 6.36951
252 2 0.121702 0.584591 5.80644 3.7079
253 2 0.133273 2.4593 5.16689 3.11186
254 2 0.16167 1.56008 6.74225 2.11466