ITEM: TIMESTEP
0
ITEM: NUMBER OF ATOMS
365
ITEM: BOX BOUNDS xy xz yz pp pp pp
-6.9345999999999997e+00 1.9702400000000001e+01 -6.9345999999999997e+00
0.0000000000000000e+00 1.5863300000000001e+01 2.0880000000000001e+00
0.0000000000000000e+00 1.7464200000000002e+01 8.7949999999999995e-01
ITEM: ATOMS id type q x y z
224 2 0.112289 -1.60583 6.01711 4.37789
2 4 1.2443 1.09776 2.05543 0.821746
4 4 1.00267 2.69664 4.15371 5.45913
8 4 0.784988 -0.929912 4.46745 2.08996
10 4 1.35315 1.28942 5.41212 7.89449
256 2 0.147807 3.7378 4.90561 2.46915
21 4 1.4267 4.73164 2.20839 4.63061
22 4 1.49535 6.40667 2.19466 0.191909
25 4 1.12691 6.96746 2.99677 6.43685
29 4 1.27213 6.04278 4.41516 2.83846
32 4 1.52599 5.90759 5.46805 7.98113
34 4 1.51632 5.05972 7.51747 5.92678
68 1 -0.678299 -0.931229 6.29722 5.41029
74 1 -0.648521 8.02586 0.681511 3.84258
78 1 -0.663501 1.61453 6.67381 2.91239
79 1 -0.685892 4.56355 5.66353 2.81497
102 3 -0.78212 1.92158 1.13132 1.9715
105 3 -0.758009 0.0693379 3.25516 1.48595
107 3 -0.859253 2.01501 4.85401 6.6885
353 2 0.147064 -1.51986 6.63512 0.644247
255 2 0.262873 4.19642 6.40199 3.66696
119 3 -0.802394 4.04805 1.02047 3.71383
120 3 -0.786721 3.40896 2.81453 5.70314
121 3 -0.789258 6.74922 0.820204 1.07316
123 3 -0.815549 6.05989 1.92507 5.71101
129 3 -0.865316 5.28704 3.32613 3.6428
130 3 -0.769835 6.63035 3.63823 1.23279
133 3 -0.870158 6.4563 4.29445 7.04615
240 2 0.218448 7.38785 1.59499 3.73411
136 3 -0.829548 4.87172 6.49966 7.18005
191 2 0.029862 3.69084 5.19468 4.55313
192 2 -0.0446149 1.55828 4.00113 4.23864
257 2 0.145945 4.99236 6.21586 1.84837
204 2 0.0142555 8.03267 2.15483 7.4518
206 2 -0.00760963 0.119534 5.45231 3.09422
135 3 -0.843083 3.46657 7.42136 4.82192
67 1 -0.664787 -1.74123 5.55722 0.665293
342 2 -0.0134722 -2.73378 6.7906 1.87757
225 2 0.145347 -1.60365 6.18131 6.38459
226 2 0.139971 0.151069 5.86089 5.46504
1 4 1.37621 3.04516 0.238699 2.65852
260 2 0.163833 3.54208 5.77973 1.03995
195 2 0.00953948 -0.187145 6.01611 7.25633
252 2 0.113771 1.66132 5.84758 3.74543
253 2 0.172699 2.08951 6.35101 1.87719
254 2 0.150496 0.560458 7.06512 2.75216
259 2 0.143968 1.72934 5.89284 0.255735
80 1 -0.65763 2.87318 5.96971 0.0236519
134 3 -0.854142 1.75574 6.68673 8.63276
349 2 0.270854 5.14544 0.157278 1.12625
3 4 1.26081 1.0083 2.91351 9.77807
5 4 1.31757 4.45463 1.16481 14.0295
7 4 1.49491 3.0176 3.36388 12.1643
12 4 1.03555 1.6698 5.42774 14.2467
345 2 0.104921 0.178192 4.81229 14.8522
24 4 1.29923 5.53478 3.54071 10.4738
216 2 0.0046111 6.32458 7.08432 13.4347
27 4 1.32984 5.58613 3.17415 16.1624
28 4 1.2342 8.46281 2.65417 11.3661
258 2 0.187523 5.33816 6.15368 16.7294
265 2 0.147439 4.45846 7.27704 13.5119
69 1 -0.642674 2.82419 5.59941 15.6943
77 1 -0.6881 5.85 4.66934 14.9606
106 3 -0.823988 0.906936 4.24211 8.87893
82 1 -0.658598 4.55672 6.6125 12.5665
103 3 -0.839394 2.01193 3.03872 10.9651
104 3 -0.793356 3.40749 1.96247 13.0569
358 2 0.204256 5.96126 0.888762 12.0732
295 2 0.135624 7.71007 6.1083 15.4432
110 3 -0.808085 2.3646 4.3721 13.2615
111 3 -0.791087 1.53479 6.94753 13.6115
122 3 -0.833156 4.47422 3.90243 11.5662
124 3 -0.807016 5.22185 1.96639 15.2046
125 3 -0.810656 7.0843 2.9901 16.9491
126 3 -0.781698 4.35316 3.53502 17.2044
127 3 -0.847674 7.00522 3.12488 10.9618
128 3 -0.789844 8.21324 1.43919 12.4383
132 3 -0.813094 5.60883 4.73788 9.44042
330 1 -0.65968 2.13443 1.65285 17.3944
157 3 -0.818147 10.055 1.55532 14.3716
264 2 0.24469 3.53427 6.17613 12.2488
203 2 -0.0399322 4.97659 2.2236 9.60234
263 2 0.223639 5.32367 5.81088 12.5742
227 2 0.161728 2.76822 6.73202 15.8481
228 2 0.20221 3.94894 5.19604 15.421
229 2 0.18591 2.39428 4.96757 16.5438
332 2 0.192973 2.45605 1.79236 16.2449
249 2 0.167944 6.91173 4.46778 14.5899
250 2 0.137009 5.699 5.73383 15.4571
251 2 0.193978 5.06 4.40516 14.1934
223 2 0.18041 0.754597 5.97178 17.2447
169 3 -0.815504 6.15527 7.62573 10.6417
35 4 1.32352 4.70247 8.0192 11.2759
137 3 -0.866823 3.42584 7.88183 10.3601
301 2 0.14256 8.2085 5.04857 12.7053
159 3 -0.833137 9.58738 3.18712 16.5071
57 4 0.972336 6.97534 8.13294 14.6162
190 2 -0.0267277 1.53655 1.75143 8.74919
11 4 1.20381 -0.65812 8.12577 5.22117
14 4 1.11381 -4.90624 12.4706 3.84583
15 4 1.00906 -1.36888 9.81361 7.94902
17 4 1.24954 -2.46417 12.1816 5.82161
23 4 1.05751 2.07216 13.6378 7.93763
30 4 1.33299 2.26501 8.10824 4.08179
36 4 1.28137 3.6298 9.78062 1.77518
37 4 1.25195 0.233807 12.1885 3.99087
39 4 1.51942 4.02661 9.86626 7.3149
40 4 1.56431 2.93768 12.1557 5.43678
112 3 -0.81333 -4.49941 13.883 3.34228
72 1 -0.663586 -2.76642 14.0091 6.23034
75 1 -0.652544 0.431792 14.3142 7.23964
113 3 -0.758522 -1.1483 8.77884 6.79187
114 3 -0.714568 -3.93648 11.6002 4.83717
115 3 -0.759815 -2.40743 11.361 7.24221
131 3 -0.80051 0.847123 8.52889 4.85944
138 3 -0.800956 2.64864 9.38427 3.03739
139 3 -0.832424 3.61444 8.5563 0.814607
140 3 -0.807064 0.139336 13.2784 2.7126
141 3 -0.807318 -1.10318 12.2138 4.93376
142 3 -0.848886 3.24359 11.1088 1.01421
143 3 -0.873024 3.02765 8.95814 8.02041
144 3 -0.819767 5.33567 8.98699 6.48268
145 3 -0.869495 1.59023 12.3895 4.78587
146 3 -0.855788 3.22076 10.8084 6.30468
147 3 -0.789211 2.90919 13.344 6.6821
338 2 0.225159 2.79105 13.0847 1.5709
245 2 0.200369 0.53813 14.4102 6.04095
209 2 0.0385846 0.286618 10.6247 3.33623
356 2 0.215629 -1.73903 14.4081 5.8582
108 3 -0.737813 -1.7959 8.51967 3.81395
235 2 0.116921 -2.74521 13.8748 7.39616
236 2 0.215472 -3.58613 14.6462 5.92744
181 3 -0.802465 4.81581 10.8754 8.59449
197 2 0.0718482 -3.02886 12.0925 8.50113
232 2 0.215784 1.13944 10.1135 7.88434
9 4 0.601989 -3.02655 8.01821 3.00797
329 2 0.16548 -2.75206 13.4501 1.57922
327 1 -0.663451 -2.86632 14.56 1.19579
20 4 1.09379 0.718667 14.6875 2.27402
341 2 -0.00193422 1.82484 13.102 0.12056
328 2 0.204403 -3.35943 14.5576 0.211474
331 2 0.176322 -6.69092 14.7271 0.326579
325 2 0.146756 -5.36379 12.9122 0.358171
234 2 0.119079 0.103071 11.6226 8.26761
244 2 0.119436 -0.236596 13.4478 7.66435
242 2 0.193366 0.796513 15.1048 4.8822
243 2 0.157514 0.280586 15.2704 7.76349
359 2 0.141154 0.794008 9.33623 0.0689316
16 4 0.574921 -3.60761 12.9745 9.90705
18 4 1.19669 -0.397502 10.6378 14.3198
19 4 0.869547 -1.8789 11.1758 11.352
31 4 1.05109 4.9294 8.70309 17.1455
324 2 0.172561 -1.83378 12.9136 16.6701
38 4 0.96144 4.74138 12.5594 17.1319
41 4 1.23673 4.79077 10.8442 13.1775
42 4 0.969764 1.5781 13.1344 15.0965
43 4 1.21376 2.90522 12.8463 11.9033
73 1 -0.632903 -1.84006 10.2485 15.4888
81 1 -0.675134 3.18507 9.59056 16.6573
83 1 -0.687816 1.12025 12.5331 11.5376
116 3 -0.805165 0.487188 9.2753 14.1913
117 3 -0.762344 -3.07287 12.3182 11.1926
118 3 -0.759618 -1.22546 10.9652 12.7685
238 2 0.169582 -1.44852 9.45464 16.2006
148 3 -0.827715 4.82888 9.572 12.2253
149 3 -0.789415 0.445861 12.0367 14.9685
150 3 -0.800843 1.23729 14.5406 14.5104
151 3 -0.825427 3.37049 11.6279 13.3244
152 3 -0.819686 3.09086 14.4873 12.5311
320 4 0.909613 -3.89488 13.6337 15.6405
173 3 -0.775656 5.77517 8.77787 15.4382
182 3 -0.816952 3.85626 12.4879 10.5764
334 2 0.189352 -1.90698 14.3381 12.5755
26 4 1.46051 2.2737 15.5052 13.4339
321 1 -0.6498 -2.93318 12.8548 17.0437
200 2 -0.0270802 -0.703807 11.421 10.1123
335 2 0.284348 -0.355088 14.9082 13.5673
201 2 0.0493837 -2.26524 9.59284 10.6678
208 2 -0.00161324 2.90532 9.16178 13.0414
210 2 0.0954139 5.00724 10.0504 14.7311
211 2 0.06335 3.11992 12.508 14.708
212 2 -0.0427265 3.49352 11.5556 16.5987
213 2 -0.0607065 1.96243 13.298 16.6624
13 4 0.950697 1.40607 8.46638 13.2387
237 2 0.175986 -2.23468 11.2364 16.0427
33 4 1.34375 2.41226 8.02809 9.15096
207 2 -0.0139991 1.073 8.96646 9.62849
262 2 0.166303 2.9038 10.0215 15.6682
266 2 0.125192 0.859151 11.5613 10.8435
267 2 0.151199 0.90032 13.5231 10.9147
268 2 0.2033 0.564033 12.5101 12.587
198 2 -0.061218 -2.96642 14.4948 9.62051
154 3 -0.770964 2.69887 14.7339 9.01144
323 3 -0.753275 -3.2966 14.8676 14.9153
333 1 -0.669185 -1.27115 15.2247 12.9167
261 2 0.125575 2.67654 8.5407 16.7992
196 2 -0.050335 0.91745 8.59535 11.6901
70 1 -0.635623 -2.24959 9.01022 9.20611
233 2 0.125183 1.14862 10.8049 9.74059
202 2 0.000858557 1.62671 12.2465 8.83121
231 2 0.157517 -1.64878 7.98618 9.25079
71 1 -0.676545 0.509605 10.6202 8.73498
354 2 0.235422 14.7179 5.3154 0.690233
47 4 0.718899 13.8899 3.76818 5.70874
51 4 1.14112 11.1513 4.15466 1.26302
52 4 1.44886 7.42724 6.84545 3.96909
54 4 0.947143 11.7376 5.75759 7.08354
361 2 0.15167 14.6848 0.869643 1.53838
66 1 -0.634166 15.1075 3.88564 2.79696
76 1 -0.673069 8.84457 3.07563 5.85602
85 1 -0.621827 13.4679 2.1425 5.75926
89 1 -0.662105 10.7456 4.47115 3.12251
90 1 -0.652564 11.0998 1.71878 7.7686
91 1 -0.642973 10.2972 4.83141 8.20195
162 3 -0.784449 11.0151 2.46743 0.92099
163 3 -0.762829 12.9892 4.67478 0.954141
164 3 -0.794669 7.31737 5.01617 3.63976
166 3 -0.806585 10.021 5.10959 0.450209
176 3 -0.832535 8.46463 7.30275 0.0942798
167 3 -0.767546 12.8121 4.77935 6.38273
352 2 0.293417 13.0779 4.05974 0.118361
222 2 0.152725 15.3692 2.73211 2.83498
171 3 -0.805164 9.04451 7.03425 4.72928
172 3 -0.747195 11.9559 7.06656 8.08205
285 2 0.167683 11.6351 0.78968 7.35442
214 2 0.0484345 10.0308 5.57664 6.46969
343 2 0.0234329 15.0438 4.53256 4.34443
246 2 0.175453 9.38035 2.11917 5.50156
247 2 0.158521 9.40307 3.6799 6.71083
248 2 0.219152 8.54149 3.7787 4.95862
270 2 -0.00339497 14.9202 2.93448 6.85979
271 2 0.136355 13.0877 2.05865 4.50779
272 2 0.187862 12.6617 1.92588 6.53293
282 2 0.170606 11.1546 3.50956 3.5182
283 2 0.220807 9.58299 4.57648 3.26218
284 2 0.20465 11.29 5.38916 3.44722
165 3 -0.873717 6.24323 7.15567 4.95736
286 2 0.146627 11.8116 2.54218 8.15643
287 2 0.174724 10.2195 2.18785 7.13683
346 2 0.0769484 7.36167 4.89491 0.356353
289 2 0.165525 10.5463 3.66363 7.97879
351 2 0.242734 14.205 4.25248 2.10137
219 2 0.0434807 14.7758 0.979289 5.94782
290 2 0.226372 9.24259 5.0982 8.05185
168 3 -0.779656 7.30948 6.4668 8.43581
241 2 0.159293 9.16617 0.870048 3.70291
355 2 0.264004 12.3708 7.61212 7.26023
339 3 -0.78498 12.3143 0.281985 0.24165
193 2 0.147208 16.582 1.18872 0.270992
170 3 -0.74558 11.6042 7.65772 4.56971
6 4 1.24284 15.5617 2.88415 15.3443
296 2 0.175638 7.98299 7.32688 16.9001
46 4 1.11579 10.505 1.08833 9.55531
350 2 0.193729 16.6932 3.43156 16.7407
49 4 1.35226 10.6617 2.42776 15.5951
50 4 1.06452 15.7648 2.13412 11.0215
277 2 0.174809 12.911 1.73867 10.5197
55 4 1.30331 7.43612 7.41251 9.7032
58 4 1.08728 9.7733 6.6103 11.6371
86 1 -0.665447 11.4807 3.66903 14.3969
45 4 1.41944 13.4857 2.37138 17.1425
88 1 -0.631847 14.4264 3.21982 10.663
94 1 -0.644014 11.4971 6.25312 10.9269
95 1 -0.688003 9.14151 5.61613 13.1368
153 3 -0.874916 14.0873 3.10508 15.8091
156 3 -0.838761 15.9231 1.41177 14.6906
302 2 0.172773 8.82215 6.19676 13.9966
288 2 0.1891 10.7437 5.25625 9.28293
158 3 -0.7541 11.8197 1.62702 16.5393
161 3 -0.804981 15.437 1.17264 12.2465
160 3 -0.813361 17.168 2.44459 10.3305
300 2 0.143684 9.98532 4.78854 13.5208
174 3 -0.797545 8.70677 6.89391 10.4668
205 2 -0.0134691 9.31006 3.95282 12.0824
273 2 0.229831 12.5808 3.69299 14.5393
274 2 0.138597 11.0767 4.70791 14.7173
275 2 0.163435 11.1897 3.37534 13.2915
93 1 -0.676997 8.07964 7.18057 15.7579
279 2 0.162981 13.5721 3.25165 11.4903
280 2 0.048654 14.4786 1.98465 9.59171
281 2 0.171366 14.7561 4.18822 10.2126
347 2 -0.0252669 10.7638 6.56724 15.7381
109 3 -0.794353 16.6699 3.96003 15.6767
294 2 0.165565 9.09594 7.56751 15.3959
297 2 0.269346 11.6841 6.55498 9.79707
298 2 0.125689 11.3712 5.11807 11.0819
299 2 0.191638 12.2356 6.7427 11.6201
155 3 -0.811557 9.58671 2.24102 10.2803
53 4 0.986905 10.8414 6.65293 17.3788
87 1 -0.650688 12.1574 0.821503 10.4792
44 4 1.32414 6.31219 13.8691 1.02841
59 4 1.29504 8.12761 8.32885 1.36281
60 4 1.32223 5.72997 12.518 3.83993
310 2 0.201956 5.91816 10.0022 4.17912
63 4 0.873913 7.70904 14.0498 6.00025
340 3 -0.73037 9.30062 11.5054 0.274904
362 2 0.198324 8.25255 14.2667 2.57851
92 1 -0.651208 9.82071 9.58536 5.23155
96 1 -0.663906 9.81746 9.19739 1.93464
97 1 -0.618143 11.4515 11.6715 3.16263
98 1 -0.674075 6.53087 10.7692 3.65186
306 2 0.164723 11.778 11.1594 2.13465
177 3 -0.793899 5.73296 13.2353 2.31623
363 2 0.250248 9.01443 12.6873 6.31156
179 3 -0.776585 7.36365 9.72389 1.00513
311 2 0.140544 7.35893 12.71 8.55785
183 3 -0.735056 9.2432 13.6911 6.09818
184 3 -0.779405 6.72984 13.3951 4.91228
217 2 0.0394632 5.21273 10.0497 2.38147
178 3 -0.817252 4.31309 12.381 4.49167
360 2 0.192858 3.16867 14.716 2.42902
220 2 -0.0169303 7.01812 14.0462 7.54625
336 1 -0.660205 2.52217 14.2064 1.60474
291 2 0.180691 10.4832 10.4977 4.35889
292 2 0.147473 10.0671 9.6841 6.3669
293 2 0.16636 8.67213 9.48527 5.02065
303 2 0.258958 9.72081 10.148 1.26475
304 2 0.169817 10.5441 8.40623 1.57813
305 2 0.194465 9.80333 9.37232 3.04579
218 2 0.0536462 5.23798 13.6759 8.47872
307 2 0.181581 10.4261 12.2587 3.23227
308 2 0.163886 7.49343 11.0378 4.26661
309 2 0.262506 6.87035 10.3509 2.52642
180 3 -0.769475 6.9176 12.681 0.169056
269 2 0.184765 8.55491 14.4099 0.740499
337 2 0.263751 2.58237 14.8269 0.568704
194 2 0.109414 13.0815 7.74932 3.91261
56 4 1.13453 10.3071 7.87216 5.03463
175 3 -0.869483 7.42957 7.68135 2.64822
84 1 -0.654947 7.90765 14.7082 1.57336
230 2 0.184116 14.2915 8.98508 8.67381
319 2 0.209178 7.89615 12.0654 16.1627
48 4 1.2793 8.57887 15.3783 13.6438
64 4 0.995612 9.62664 9.44123 13.0962
65 4 1.19516 6.6456 12.9376 14.3735
187 3 -0.785837 5.94172 11.9646 13.1257
99 1 -0.656916 6.74972 13.1963 9.32865
100 1 -0.667953 10.3738 11.1224 12.6109
101 1 -0.678179 8.12391 11.9695 15.0581
186 3 -0.7378 10.1853 8.14676 12.3697
185 3 -0.772348 8.1773 9.22321 13.8203
62 4 1.07806 4.97113 12.1474 9.51577
364 2 0.124651 11.5374 13.4274 15.2009
188 3 -0.754229 7.24759 14.5329 13.8368
199 2 -0.0428917 12.3559 13.1055 9.8598
326 2 0.166365 12.5398 11.618 14.9395
348 2 0.00270582 9.9425 11.7182 15.8088
365 2 0.180795 12.7718 12.9578 13.5932
221 2 0.0102811 10.8397 10.0321 14.1944
239 2 0.177915 15.0183 9.7776 14.7982
344 2 -0.030065 9.89159 14.325 13.5597
278 2 0.172914 5.77978 14.8093 9.98809
215 2 -0.00422428 7.72697 8.90361 8.9762
322 1 -0.647618 12.4777 12.7116 14.7136
318 2 0.234728 8.16592 10.819 14.6671
312 2 0.0889295 6.61254 11.9486 10.4556
313 2 0.16937 7.33215 14.0009 9.81895
314 2 0.160881 10.3293 11.8203 13.4834
315 2 0.132057 9.38766 11.2672 11.8075
316 2 0.172706 11.3535 11.1113 12.0571
317 2 0.1259 8.9445 12.7483 14.6152
189 3 -0.792194 5.58233 12.859 15.851
357 2 0.16095 14.2439 11.821 17.346
276 2 0.238347 4.74394 15.4957 11.5491
61 4 1.11371 10.0578 12.1164 17.4572
ITEM: TIMESTEP
100
ITEM: NUMBER OF ATOMS
365
ITEM: BOX BOUNDS xy xz yz pp pp pp
-6.9345999999999997e+00 1.9702400000000001e+01 -6.9345999999999997e+00
0.0000000000000000e+00 1.5863300000000001e+01 2.0880000000000001e+00
0.0000000000000000e+00 1.7499128400000000e+01 8.7949999999999995e-01
ITEM: ATOMS id type q x y z
224 2 0.128602 -1.26901 5.83167 4.40002
2 4 1.23918 1.01967 2.03907 0.846005
4 4 0.995283 2.78892 4.14241 5.4277
8 4 0.814828 -0.95326 4.3226 2.07594
10 4 1.2682 1.31398 5.31725 7.917
256 2 0.149128 3.67736 5.00591 2.49752
21 4 1.39367 4.6974 2.12464 4.60029
22 4 1.46922 6.4001 2.27144 0.0964772
25 4 1.06268 6.95295 2.84178 6.39639
29 4 1.258 5.98996 4.3981 2.80783
32 4 1.51 5.92594 5.49815 7.96472
34 4 1.50715 5.01241 7.54364 5.93735
68 1 -0.679255 -0.919897 6.21044 5.47861
74 1 -0.647386 7.7599 0.924946 3.83208
78 1 -0.665301 1.54856 6.87913 2.85573
79 1 -0.693267 4.56712 5.686 2.77174
102 3 -0.761418 1.83514 1.32729 1.9477
105 3 -0.782672 -0.0599363 3.1902 1.4981
107 3 -0.841645 2.03985 4.7302 6.61433
353 2 0.131396 -1.55567 6.67812 0.936601
255 2 0.242523 4.22509 6.45156 3.55333
119 3 -0.794135 4.22079 0.884854 3.62737
120 3 -0.759668 3.25589 2.60981 5.60006
121 3 -0.75889 6.69694 0.851642 1.05474
123 3 -0.794059 6.05055 1.69892 5.80412
129 3 -0.877465 5.28399 3.2913 3.75227
130 3 -0.763811 6.29791 3.6445 1.07675
133 3 -0.831429 6.46858 4.28719 7.04176
240 2 0.224392 7.1948 1.8867 3.63039
136 3 -0.836772 4.90794 6.43329 7.03046
191 2 0.0186254 3.86685 5.18718 4.55362
192 2 -0.0418195 1.81901 4.1744 4.08827
257 2 0.159842 5.02273 6.3205 1.89083
204 2 0.0334115 8.13658 2.17341 7.5128
206 2 -0.00803201 0.13882 5.5279 2.7752
135 3 -0.811784 3.56976 7.66485 4.73747
67 1 -0.651045 -1.84664 5.55798 0.790416
134 3 -0.82959 1.98662 6.57187 8.65747
225 2 0.148892 -1.62449 5.96191 6.32462
226 2 0.153218 0.164898 5.86861 5.57487
1 4 1.32064 3.06468 0.202087 2.75236
260 2 0.179804 3.48161 5.95438 1.07279
195 2 -0.00644099 -0.19814 5.85022 7.31642
252 2 0.126946 1.65249 5.96432 3.55716
253 2 0.176729 2.01152 6.62101 1.83212
254 2 0.168455 0.509424 7.26458 2.70051
259 2 0.163084 1.73363 5.76584 0.23878
80 1 -0.660176 2.82922 6.0181 0.09223
242 2 0.208152 7.51117 0.395437 4.86091
349 2 0.29474 5.09849 0.201781 1.06895
330 1 -0.660606 -0.0407311 0.776878 0.0058902
3 4 1.2656 0.937574 2.96499 9.92275
5 4 1.35073 4.40791 1.0816 14.1154
7 4 1.44581 3.14353 3.17751 12.2236
12 4 1.06825 1.68206 5.42853 14.1963
345 2 0.111154 0.381038 4.65638 15.037
24 4 1.26392 5.49604 3.61302 10.5113
216 2 0.00417938 6.37455 7.05014 13.3539
27 4 1.35259 5.61772 3.2717 16.1741
28 4 1.22803 8.39808 2.6827 11.4552
258 2 0.175453 5.37559 6.22142 16.7191
265 2 0.145834 4.38778 7.34415 13.4111
69 1 -0.619921 2.92501 5.73929 15.5875
77 1 -0.681313 5.94372 4.76658 15.0163
106 3 -0.829884 0.864386 4.18622 9.00023
82 1 -0.650646 4.6296 6.73741 12.4767
103 3 -0.836236 2.13473 2.89907 10.9451
104 3 -0.817488 3.38733 1.88208 13.1511
358 2 0.19467 5.85764 1.00929 12.257
295 2 0.169895 7.63465 5.90608 15.709
110 3 -0.77126 2.44396 4.36133 13.2333
111 3 -0.825973 1.39436 6.86619 13.7554
122 3 -0.788386 4.7056 3.90496 11.85
124 3 -0.799515 5.26864 2.15976 15.0552
125 3 -0.811707 6.97188 3.09455 17.0901
126 3 -0.759672 4.32337 3.58921 17.049
127 3 -0.832851 7.00829 3.29325 10.981
128 3 -0.818111 8.20606 1.53054 12.5936
132 3 -0.799149 5.23426 4.70579 9.33317
301 2 0.168009 8.24277 4.85758 12.4392
157 3 -0.816216 10.07 1.41392 14.4928
264 2 0.250019 3.66569 6.19549 12.0321
203 2 -0.035976 4.90042 2.22396 9.91228
263 2 0.201667 5.52577 6.01178 12.6882
227 2 0.165849 2.79041 6.89691 15.6123
228 2 0.201104 4.07287 5.34238 15.3307
229 2 0.172392 2.4588 5.17226 16.4724
332 2 0.184105 2.57128 1.63077 16.4646
249 2 0.169696 7.05769 4.5387 14.7059
250 2 0.150886 5.82942 5.79204 15.3881
251 2 0.220337 5.11964 4.45235 14.2216
223 2 0.166785 0.816285 6.02168 17.3618
169 3 -0.802967 6.3027 7.83029 10.4961
190 2 -0.0200019 1.28539 1.65438 9.00428
137 3 -0.818446 3.42528 7.94113 10.4006
296 2 0.167903 7.52071 7.65517 16.5367
231 2 0.149821 -1.60158 7.94129 9.43572
11 4 1.2741 -0.684679 8.06 5.22858
14 4 1.09408 -4.89842 12.449 3.91366
15 4 1.03732 -1.37262 9.80124 7.91403
17 4 1.29297 -2.34149 12.2461 5.89172
23 4 1.04219 1.98882 13.6084 7.97096
30 4 1.36556 2.28587 8.29471 3.95339
36 4 1.27167 3.60992 9.88917 1.76123
37 4 1.27957 0.123734 12.2575 3.89088
39 4 1.51746 4.08069 9.96539 7.35932
40 4 1.49848 2.95686 12.1904 5.545
112 3 -0.80416 -4.51552 13.8962 3.51217
72 1 -0.661738 -2.71898 14.0479 6.12351
75 1 -0.667802 0.479532 14.4451 7.15125
113 3 -0.77027 -1.02366 8.98579 6.65339
114 3 -0.707382 -3.80868 11.6753 4.93872
115 3 -0.782368 -2.2247 11.4886 7.30469
131 3 -0.798692 0.818274 8.27531 4.7802
138 3 -0.811163 2.66364 9.59925 3.11856
139 3 -0.833323 3.51506 8.61933 0.820961
140 3 -0.806328 -0.110349 13.4488 2.79655
141 3 -0.810261 -1.11939 12.2686 4.87247
142 3 -0.850968 3.38467 11.1679 0.880787
143 3 -0.869334 3.14659 8.94148 8.16889
144 3 -0.80242 5.19614 9.1621 6.48405
145 3 -0.813133 1.50913 12.2595 4.63233
146 3 -0.799647 3.02146 10.737 6.21372
147 3 -0.799811 3.04918 13.2811 6.8335
338 2 0.220371 2.72901 13.266 1.54053
245 2 0.20437 0.516213 14.6713 6.04396
209 2 0.00557692 0.107423 10.8385 2.97813
356 2 0.260105 -2.0076 14.6414 5.49751
108 3 -0.762207 -1.92496 8.22376 4.06896
235 2 0.124445 -2.39232 14.1697 7.2194
236 2 0.204111 -3.78026 14.4237 6.0458
181 3 -0.838623 4.78509 11.06 8.48102
197 2 0.066709 -2.92921 12.2223 8.51069
232 2 0.202331 1.26568 10.2803 8.03994
9 4 0.601573 -3.1724 7.90794 3.17174
329 2 0.161228 -2.85542 13.4991 1.431
327 1 -0.651367 -2.92223 14.6283 1.22496
20 4 1.06984 0.673963 14.7597 2.35269
359 2 0.141156 0.70452 9.47901 0.0739594
244 2 0.129122 -0.255798 13.6121 7.37477
234 2 0.114976 -0.118583 11.6492 8.45124
243 2 0.16584 0.435287 15.3564 7.79058
328 2 0.186286 -3.58823 14.936 0.354063
324 2 0.151622 -4.2411 11.9135 0.100965
16 4 0.548398 -3.45518 13.0302 9.96765
18 4 1.20179 -0.64032 10.507 14.3242
19 4 0.873081 -1.70776 11.3041 11.2543
31 4 1.01484 4.95813 8.77817 17.0704
35 4 1.29013 4.82617 8.11797 11.241
38 4 0.993724 4.87532 12.5532 16.997
41 4 1.24549 4.8691 10.9026 13.1664
42 4 1.0014 1.39883 13.0782 15.0687
43 4 1.24477 3.06557 12.9305 11.9414
73 1 -0.641088 -2.03296 10.2434 15.4958
81 1 -0.666616 3.21866 9.54512 16.9042
83 1 -0.704445 1.25133 12.6347 11.4945
116 3 -0.806411 0.182622 9.16853 14.304
117 3 -0.749318 -2.93418 12.3076 11.2935
118 3 -0.75148 -1.22383 10.9483 12.7283
238 2 0.173764 -1.55444 9.39282 16.1459
148 3 -0.81277 4.9577 9.68056 12.1815
149 3 -0.777209 0.445035 11.9795 14.8804
150 3 -0.812858 1.04514 14.4373 14.4205
151 3 -0.822401 3.41979 11.6171 13.2961
152 3 -0.816551 3.16952 14.4293 12.6456
320 4 0.926929 -3.86224 13.6062 15.6346
173 3 -0.783499 5.91077 8.99184 15.2949
182 3 -0.837213 3.93839 12.6145 10.5327
334 2 0.196377 -1.76352 14.2693 12.3512
26 4 1.42385 2.19298 15.5158 13.5216
321 1 -0.642248 -3.2064 12.7578 17.1839
200 2 -0.0399002 -0.54121 11.7389 10.1352
335 2 0.296366 -0.370873 14.795 13.4947
201 2 0.0758376 -2.04001 9.73652 10.4142
208 2 -0.0151086 2.54532 9.08752 12.9643
210 2 0.0909435 5.06734 10.1888 14.6884
211 2 0.0651908 2.90206 12.4796 14.616
212 2 -0.0344486 3.73446 11.3689 16.431
213 2 -0.068072 1.83278 13.2107 16.7095
13 4 0.951669 1.09818 8.33224 13.3329
237 2 0.170895 -2.4021 11.1875 16.1294
33 4 1.34437 2.44495 7.99561 9.10418
207 2 -0.0218064 0.99158 8.85173 9.5345
262 2 0.140937 3.05959 9.77293 15.8036
266 2 0.138338 1.21923 11.7017 10.8431
267 2 0.156419 0.999072 13.5931 10.957
268 2 0.209274 0.624156 12.5304 12.4367
198 2 -0.0619117 -2.83339 14.5198 9.86805
154 3 -0.749031 2.62653 14.7544 8.88039
323 3 -0.795593 -3.22336 14.8031 14.9091
333 1 -0.660444 -1.33966 15.1344 12.9135
261 2 0.117002 2.68338 8.433 17.1637
196 2 -0.0427619 0.406061 8.30701 11.8369
70 1 -0.675591 -2.14414 8.97956 9.30048
233 2 0.108935 0.799313 10.5886 9.89989
202 2 -0.0039391 1.65172 12.1466 8.84657
71 1 -0.668015 0.389238 10.5918 8.7855
341 2 -0.00970558 4.00338 13.9901 17.3832
354 2 0.244803 14.6011 5.29893 0.810685
47 4 0.710055 14.105 3.74079 5.77648
51 4 1.20123 11.1475 4.14942 1.09017
52 4 1.45457 7.56594 6.70721 4.0672
54 4 0.918711 11.8208 5.77344 7.24746
361 2 0.147557 14.7221 0.751314 1.05297
66 1 -0.66034 15.1559 3.69467 2.97828
76 1 -0.659549 8.78364 2.94989 5.84344
85 1 -0.605086 13.5349 2.11202 5.83851
89 1 -0.644524 10.7425 4.56518 2.87317
90 1 -0.643241 11.0751 1.73906 7.87299
91 1 -0.656469 10.2117 4.80167 8.17075
162 3 -0.751425 10.8809 2.54469 0.974431
163 3 -0.773896 12.9322 4.76482 1.00435
164 3 -0.818622 7.27685 5.10464 3.48476
166 3 -0.789982 9.9571 5.00669 0.293918
176 3 -0.834638 8.49998 7.19743 0.217761
167 3 -0.724163 13.0363 4.74587 6.45985
342 2 -0.00349176 14.7504 6.58531 2.14508
222 2 0.173778 15.3835 2.61143 2.96591
171 3 -0.836028 9.11727 6.82135 4.67017
172 3 -0.754243 12.0913 7.16974 8.04187
285 2 0.164632 11.7613 1.01858 7.32416
214 2 0.075747 10.1667 5.67187 6.52044
343 2 0.0597256 15.1003 4.29633 4.22366
246 2 0.170681 9.47731 2.1247 5.53691
247 2 0.156109 9.33445 3.70405 6.75744
248 2 0.194651 8.44548 3.60132 4.87483
270 2 -0.000914227 15.1366 2.71297 6.72483
271 2 0.13771 13.0623 2.05041 4.65156
272 2 0.176179 12.5922 2.02363 6.52996
282 2 0.194449 9.93786 3.80818 3.13657
283 2 0.216331 10.3944 5.6434 2.96138
284 2 0.178644 11.7234 4.34288 3.33337
165 3 -0.818031 6.33533 7.30865 5.04423
286 2 0.136833 11.7859 2.55595 8.34579
287 2 0.175232 10.332 2.2029 7.11704
346 2 0.0807995 7.17986 4.89144 0.334119
289 2 0.171807 10.4322 3.62983 8.13403
351 2 0.216452 14.3093 4.02045 2.25194
219 2 0.0398113 14.8266 0.875072 6.09038
290 2 0.218441 9.05962 4.92156 8.21938
168 3 -0.813779 7.24734 6.54344 8.38465
241 2 0.135354 8.93214 1.06991 3.73924
355 2 0.293425 12.2234 7.6012 7.05399
339 3 -0.799409 12.0997 0.0413148 0.240782
175 3 -0.809746 7.50898 7.60671 2.69849
170 3 -0.762659 11.6561 7.46632 4.90512
352 2 0.3141 13.0997 4.36408 0.0759305
6 4 1.24431 15.592 2.82208 15.4888
159 3 -0.829538 9.60503 3.44209 16.3758
46 4 1.07768 10.4679 1.04809 9.55358
350 2 0.182296 17.0749 3.13574 16.5209
49 4 1.30227 10.72 2.58701 15.4584
50 4 1.06847 15.6596 2.05827 10.9902
277 2 0.182605 12.9201 1.54487 10.5863
55 4 1.27534 7.61258 7.26858 9.73737
58 4 1.10893 9.87236 6.61435 11.641
86 1 -0.687907 11.566 3.9301 14.4007
45 4 1.41367 13.3943 2.20454 17.1589
88 1 -0.629383 14.2391 3.07049 10.7523
94 1 -0.652381 11.5409 6.07794 10.8266
95 1 -0.678125 9.10975 5.49265 13.0488
153 3 -0.828528 14.2035 3.27932 16.0605
156 3 -0.846992 15.9151 1.49505 14.7268
302 2 0.167025 8.7109 6.06896 13.9144
288 2 0.17837 10.7109 5.30785 9.17588
158 3 -0.780865 12.0083 1.85501 16.3339
161 3 -0.814971 15.3505 1.05389 12.1939
160 3 -0.810491 17.0426 2.61774 10.5927
300 2 0.147584 9.87459 4.75939 13.4848
174 3 -0.826305 8.69123 6.46446 10.6409
205 2 -0.00898975 9.50587 3.87292 12.0046
273 2 0.231999 12.6327 4.0069 14.6773
274 2 0.147483 11.0075 4.93101 14.6996
275 2 0.152071 11.4576 3.71909 13.3456
93 1 -0.694269 7.90855 7.04256 15.5856
279 2 0.162804 13.3452 3.00995 11.488
280 2 0.0278655 14.4353 1.86444 9.51927
281 2 0.171604 14.5143 4.09509 10.4699
347 2 -0.029159 10.5806 6.53201 15.7406
109 3 -0.766994 16.7493 3.93877 15.7104
294 2 0.132625 9.00284 7.17338 15.319
297 2 0.24591 11.7953 6.55183 9.69473
298 2 0.145396 11.4933 4.98798 10.8519
299 2 0.175338 12.3269 6.48946 11.5702
155 3 -0.786932 9.35913 2.15632 10.2624
53 4 1.0013 10.701 6.58591 17.3599
87 1 -0.668126 12.1743 0.678672 10.4313
193 2 0.140026 18.6269 2.31713 17.4552
44 4 1.31904 6.27567 13.7777 0.934272
59 4 1.22291 8.19727 8.31767 1.39084
60 4 1.28823 5.67924 12.5832 3.88777
310 2 0.21153 5.78172 10.2144 4.21306
63 4 0.858109 7.89354 13.9914 6.03787
340 3 -0.736506 9.36576 11.5076 0.0961417
362 2 0.201907 7.4138 14.9505 2.63244
92 1 -0.676524 9.88557 9.56067 5.19715
96 1 -0.66836 9.84932 9.13649 1.76552
97 1 -0.637671 11.4562 11.6687 3.19251
98 1 -0.648732 6.50507 10.8933 3.65614
306 2 0.170554 11.656 11.7016 2.01245
177 3 -0.771247 5.63518 13.2228 2.30916
363 2 0.254856 9.28077 12.7161 6.34743
179 3 -0.765705 7.43244 9.97597 0.992286
311 2 0.131603 7.45265 12.5063 8.5618
183 3 -0.737775 9.45124 13.7074 6.15475
184 3 -0.766099 6.91805 13.4219 4.87786
217 2 0.0434622 5.20422 10.0242 2.43357
178 3 -0.822034 4.2856 12.4033 4.55089
360 2 0.178428 2.97682 14.8816 2.27723
220 2 -0.0133286 7.1097 13.9215 7.65448
336 1 -0.686533 2.40571 14.304 1.45998
291 2 0.176335 10.5401 10.3588 4.41702
292 2 0.142527 10.2005 9.52986 6.40214
293 2 0.171939 8.80619 9.63865 5.0799
303 2 0.257897 9.73838 10.1437 1.14669
304 2 0.16405 10.6355 8.44422 1.37933
305 2 0.162445 9.94008 9.3308 2.91381
218 2 0.0672038 5.38486 13.6589 8.40591
307 2 0.178193 10.4514 12.0693 3.62269
308 2 0.167571 7.43662 11.1233 4.40308
309 2 0.267988 6.8517 10.5784 2.46981
325 2 0.125874 11.4593 12.8333 0.347923
269 2 0.193454 8.63571 14.1015 1.50706
337 2 0.242566 2.48912 14.747 0.435304
84 1 -0.672154 7.75128 14.7613 1.58638
56 4 1.12906 10.3058 7.81394 4.88193
331 2 0.15879 10.5895 14.6982 0.57789
194 2 0.117237 12.9308 7.77546 4.07413
319 2 0.210833 7.97616 11.9899 16.0377
48 4 1.26089 8.46397 15.3872 13.6609
64 4 0.976271 9.60576 9.36638 13.0062
65 4 1.29871 6.60925 13.0361 14.4622
187 3 -0.769409 5.97696 12.0638 12.9889
99 1 -0.649321 6.81094 13.0856 9.33796
100 1 -0.641907 10.3308 11.0092 12.4415
101 1 -0.684984 8.23009 12.0144 14.9582
230 2 0.196447 14.4401 8.83996 8.97225
185 3 -0.811707 8.02338 9.24639 13.6393
62 4 1.14082 4.99972 12.182 9.52367
364 2 0.122553 11.64 13.1612 15.1169
188 3 -0.800474 7.22553 14.4798 14.1601
199 2 -0.042582 12.5163 13.1972 9.90773
326 2 0.161231 12.9381 11.5537 14.7997
348 2 0.00148251 9.88279 11.3599 15.7068
365 2 0.201584 12.7009 12.9203 13.4424
221 2 0.00895814 10.7156 10.1525 14.1498
239 2 0.170757 14.7541 9.87041 14.7555
344 2 -0.0214616 9.72561 14.3192 13.6042
278 2 0.178461 5.7898 14.6963 9.93726
215 2 -0.00657515 8.51231 8.64255 9.36748
322 1 -0.631361 12.6623 12.6538 14.5081
318 2 0.22686 8.14424 11.002 14.4274
312 2 0.100806 6.62017 11.8417 10.5526
313 2 0.161661 7.41903 13.9317 9.7378
314 2 0.151221 10.3115 11.8625 13.2159
315 2 0.127615 9.28647 11.0484 11.5849
316 2 0.170936 11.3777 10.9888 11.9277
317 2 0.142587 9.09619 12.6958 14.5819
189 3 -0.867668 5.68961 12.847 15.7328
61 4 1.13815 10.09 12.1129 17.3652
276 2 0.228007 4.68081 15.4105 11.4328
357 2 0.168109 14.0001 11.7081 17.2392
180 3 -0.769921 9.00444 13.5557 17.4638
57 4 1.02687 7.05652 8.28574 14.4056
186 3 -0.787602 10.2364 8.12152 12.2636
ITEM: TIMESTEP
200
ITEM: NUMBER OF ATOMS
365
ITEM: BOX BOUNDS xy xz yz pp pp pp
-6.9345999999999997e+00 1.9702400000000001e+01 -6.9345999999999997e+00
0.0000000000000000e+00 1.5863300000000001e+01 2.0880000000000001e+00
0.0000000000000000e+00 1.7534056800000002e+01 8.7949999999999995e-01
ITEM: ATOMS id type q x y z
224 2 0.134173 -1.29558 5.7278 5.03689
2 4 1.18698 1.07958 2.13766 0.786828
4 4 0.977083 2.56171 4.07565 5.34019
8 4 0.753606 -1.0211 4.51847 2.09684
10 4 1.31667 1.51362 5.34319 8.09784
256 2 0.129702 3.57972 4.94913 2.54719
21 4 1.45908 4.71817 2.13621 4.69761
22 4 1.51911 6.28797 2.39201 0.0738403
25 4 1.10384 7.00139 2.78711 6.60363
29 4 1.296 5.88719 4.35139 2.82935
32 4 1.53261 5.89736 5.39522 7.95688
34 4 1.5395 5.14868 7.54671 5.83653
68 1 -0.682654 -0.742029 6.23889 5.9001
74 1 -0.65371 7.99024 0.80288 3.82203
78 1 -0.660334 1.40254 6.94114 2.79768