ITEM: TIMESTEP
0
ITEM: NUMBER OF ATOMS
362
ITEM: BOX BOUNDS xy xz yz pp pp pp
-8.3819999999999997e+00 1.7202700000000000e+01 -8.3819999999999997e+00
0.0000000000000000e+00 1.3430600000000000e+01 3.0499999999999999e-02
0.0000000000000000e+00 1.7586700000000000e+01 3.0270000000000002e-01
ITEM: ATOMS id type q x y z element
2 4 0.58612 0.0683513 2.88215 4.81374 Si
7 4 0.2886 -0.179762 3.88458 2.09163 Si
60 1 -0.125912 -0.913128 4.12636 6.18309 C
69 1 -0.070273 -1.40909 5.5863 1.82979 C
88 2 0.0258196 0.112479 2.84952 0.711632 H
114 2 0.0750795 1.48522 1.29288 3.21269 H
118 2 0.0378298 -0.598698 5.11689 6.09757 H
119 2 0.0153871 -0.576919 3.70086 7.12898 H
142 2 0.0503698 -1.25107 5.88882 0.792014 H
144 2 0.120074 -2.41144 5.27517 2.11698 H
147 2 0.0425709 0.218572 6.25155 4.35867 H
191 3 -0.64094 1.7155 2.9525 4.87675 O
194 3 -0.602026 -0.712156 3.02546 3.36216 O
59 1 -0.0982786 1.93609 1.00614 2.29188 C
120 2 0.0488498 1.51158 2.75775 8.32372 H
116 2 0.0503244 1.98036 1.80014 1.58185 H
124 2 0.0389627 -1.90404 6.00999 4.53242 H
121 2 0.0548269 1.51989 4.27605 7.36298 H
143 2 0.0355552 -0.905964 6.25091 2.53619 H
117 2 0.0361259 -1.95601 3.96751 5.94909 H
115 2 0.0756481 1.5172 0.103454 1.87933 H
86 2 0.220518 1.43477 0.471733 6.9272 H
146 2 0.0673273 0.650469 6.64183 6.11285 H
61 1 -0.0852436 2.127 3.4795 7.81299 C
350 2 0.0599509 2.13342 5.39113 1.46168 H
125 2 0.0372699 -2.75291 6.60807 5.99166 H
163 2 0.0479379 0.231541 0.311453 5.24864 H
287 2 0.0171909 -2.52151 4.41033 8.41977 H
24 4 0.596525 2.08146 6.27517 0.00326588 Si
14 4 1.14057 5.392 2.59883 4.34284 Si
199 3 -0.671414 4.57689 2.00217 3.05544 O
135 2 0.0651533 5.86649 0.756614 7.42994 H
93 2 0.0914694 3.45814 5.19922 4.62923 H
122 2 0.0829098 3.01829 3.79273 8.33762 H
212 3 -0.769311 4.06469 5.26994 6.94069 O
200 3 -0.74508 4.68048 2.37095 5.78977 O
203 3 -0.755637 6.87425 1.80658 4.26982 O
25 4 1.11717 5.21467 4.08912 7.10558 Si
192 3 -0.635471 2.34011 0.552448 6.42271 O
210 3 -0.768797 5.49838 3.62943 8.6553 O
3 4 0.390974 3.66448 0.437963 8.05445 Si
1 4 0.716476 3.92445 0.577042 2.75025 Si
5 4 0.67017 2.72048 2.45792 6.08638 Si
6 4 0.686337 -0.504836 2.0104 12.5872 Si
9 4 0.633008 -1.35554 4.44584 14.1194 Si
63 1 -0.114776 -1.69898 5.7173 12.5003 C
68 1 -0.134854 0.535403 3.1061 11.1586 C
126 2 0.0263735 -1.40841 5.17917 11.5998 H
128 2 0.0401024 -2.73613 6.02658 12.5266 H
139 2 0.00453939 -0.122008 3.44339 10.4172 H
140 2 0.0464947 1.15488 2.31963 10.7506 H
195 3 -0.686583 -0.593348 2.9717 13.8616 O
214 3 -0.716739 -1.23024 5.24404 15.5101 O
89 2 0.287612 2.20205 5.46092 14.7186 H
141 2 0.0588298 1.04642 3.89721 11.6997 H
278 3 -0.755624 1.60048 0.854298 15.3263 O
215 3 -0.734726 0.937426 5.94522 16.7345 O
298 2 0.168396 0.989243 2.90115 15.3454 H
276 3 -0.67223 0.319351 0.61832 12.9242 O
226 3 -0.697103 2.21186 5.66193 13.6899 O
272 4 0.658434 1.68974 0.564832 13.7462 Si
127 2 0.0777172 -0.980291 6.4584 12.8844 H
28 4 1.05352 -0.224216 6.53372 15.8252 Si
87 2 0.322369 -2.52333 4.53708 17.0436 H
359 2 0.0999224 -3.62892 6.53513 17.3443 H
295 3 -0.614148 -2.91991 6.70218 9.40032 O
96 2 0.0367674 7.19227 1.68637 12.8367 H
97 2 0.0316934 5.45174 3.41869 12.0077 H
137 2 0.0302915 2.9938 4.71352 10.6802 H
327 2 0.0644732 4.06113 1.36639 12.9704 H
328 2 0.0642234 2.9498 2.73341 13.5592 H
325 1 -0.103037 3.05318 1.86059 12.9498 C
202 3 -0.680602 3.50416 1.70075 9.16046 O
17 4 1.02945 4.89301 2.49842 9.64685 Si
91 2 -0.000953023 3.80515 2.95184 16.4939 H
21 4 1.07909 7.15925 1.13798 11.1439 Si
216 3 -0.645498 4.9597 5.29287 13.8001 O
206 3 -0.800789 5.78046 1.74211 10.7276 O
20 4 0.770228 5.4499 2.73279 15.9437 Si
153 2 0.0473842 4.5519 5.82566 17.3224 H
27 4 0.608293 5.96437 4.02245 13.4877 Si
29 4 0.571468 3.65984 5.76752 12.9305 Si
67 1 -0.122686 3.64741 5.53496 10.9026 C
152 2 0.0815897 3.62639 5.74519 15.7827 H
213 3 -0.687557 5.7757 2.70484 14.3773 O
72 1 -0.0938791 3.90929 6.33777 16.6266 C
138 2 0.0541461 3.27691 6.47403 10.5626 H
326 2 0.047447 2.72538 2.07619 11.9448 H
136 2 0.0365467 4.68662 5.31061 10.7196 H
103 2 0.145682 5.31059 0.319466 13.8073 H
8 4 1.10073 -4.01456 7.28438 3.77005 Si
10 4 1.05703 -2.77934 9.49829 1.84418 Si
196 3 -0.760366 -3.52483 8.23512 2.56241 O
197 3 -0.748995 -3.78602 10.4051 0.905187 O
11 4 1.1192 -3.83394 11.9222 0.309792 Si
285 1 -0.0915411 -3.71933 9.11731 7.76786 C
291 2 0.0627556 -2.74082 8.7263 7.49723 H
317 1 -0.101775 -4.38468 12.5051 4.40708 C
318 2 0.0427166 -5.445 12.288 4.54942 H
320 2 0.0778228 -3.79419 11.6242 4.10419 H
178 2 0.122438 -4.96468 9.67636 3.68238 H
289 2 0.027981 -3.77709 10.1104 8.05539 H
353 2 0.0369763 -2.68513 11.9372 7.19399 H
319 2 0.0876775 -3.9383 13.1503 5.15632 H
198 3 -0.724367 -3.76446 13.0202 1.47896 O
62 1 -0.120255 -2.33867 6.83758 5.03535 C
219 3 -0.764298 -2.24612 10.4738 3.01358 O
290 2 0.0797544 -4.44942 8.81179 7.00569 H
361 2 0.0589247 -5.57854 10.9579 2.57673 H
177 2 0.0382078 -6.38521 10.6043 4.13998 H
66 1 -0.123736 -2.55155 12.844 7.83312 C
249 3 -0.82233 -4.95411 7.88754 4.97189 O
349 2 0.0539178 -6.12249 11.4641 6.88973 H
81 1 -0.0845354 -5.80828 10.2118 3.32576 C
255 3 -0.783705 -7.36104 12.1647 0.149389 O
23 4 0.654446 2.77863 6.75163 4.4727 Si
74 1 -0.0793885 2.12823 9.95177 2.50223 C
30 4 0.753633 3.07319 8.18944 2.09896 Si
221 3 -0.751129 2.20901 7.31486 7.76387 O
129 2 0.0205259 -1.29381 7.82765 0.148771 H
157 2 0.103135 1.06676 9.72107 2.62046 H
131 2 0.0956019 -0.924553 9.60696 0.0990689 H
130 2 0.0702513 -0.189536 8.61159 1.41673 H
34 4 1.12831 0.794125 10.8854 5.68544 Si
64 1 -0.105428 -1.00333 8.72613 0.69311 C
217 3 -0.694267 2.49678 6.9133 2.92356 O
100 2 0.0517826 -1.71538 12.9064 3.97469 H
220 3 -0.836282 -0.183151 12.0291 1.96129 O
222 3 -0.776344 0.0622185 10.7097 4.27877 O
145 2 0.099995 0.629918 7.93048 4.87752 H
223 3 -0.805974 1.38947 9.50152 6.26804 O
31 4 1.0532 -1.00963 11.5059 3.27822 Si
26 4 0.77356 3.67157 6.8119 7.19451 Si
123 2 0.0488337 -1.80153 7.73438 4.99084 H
218 3 -0.706198 1.80443 7.9384 0.303176 O
33 4 1.03975 1.71645 8.86266 7.73276 Si
224 3 -0.853704 -0.0526823 11.7795 6.70203 O
16 4 1.20768 -0.349258 13.177 7.38379 Si
70 1 -0.0821236 0.763102 6.86602 5.06102 C
229 3 -0.734196 -2.14841 13.2086 16.7185 O
274 2 -0.0117431 -6.06223 12.0982 13.5812 H
273 4 1.01416 -6.34001 13.1122 16.6237 Si
132 2 0.0281179 -6.3181 10.8008 9.58622 H
293 2 0.0638956 -3.16967 8.5603 11.795 H
286 1 -0.0978558 -3.77402 9.09318 11.096 C
134 2 0.067537 -2.337 12.6495 8.88216 H
357 2 0.0485552 -4.08445 8.06954 16.5435 H
277 3 -0.759026 -4.90077 12.3376 16.6216 O
275 2 0.0402246 -4.37411 10.1542 14.3971 H
292 2 0.067103 -3.29823 9.97403 10.7033 H
104 2 0.0263286 -4.89478 10.4802 13.8118 H
294 2 0.0199774 -4.81259 9.23477 11.4136 H
284 4 0.263288 -3.99199 7.93033 9.39344 Si
352 2 0.0451145 -7.17264 12.1157 10.4734 H
75 1 -0.112193 -0.355742 8.17702 10.1763 C
37 4 0.825989 0.536791 9.43842 11.5753 Si
102 2 0.315812 -0.464332 12.3322 10.3814 H
161 2 0.0777196 -1.06102 7.52766 10.6922 H
160 2 0.0384849 -0.733098 8.9799 9.56921 H
101 2 0.294775 2.23928 8.77756 17.2717 H
162 2 0.0432641 0.421315 7.59313 9.66572 H
207 3 -0.738529 -1.3046 12.6808 11.015 O
225 3 -0.796737 0.312488 7.50963 14.6368 O
266 3 -0.802929 2.87111 8.54754 14.8344 O
231 3 -0.654456 -0.927882 10.019 12.9178 O
227 3 -0.821976 -0.407136 11.0739 16.1543 O
228 3 -0.708834 -1.29496 12.7024 14.1758 O
230 3 -0.748822 1.61978 8.64998 12.4521 O
299 2 0.324715 -0.704682 9.5421 13.765 H
263 3 -0.751821 1.14098 10.7621 10.7839 O
19 4 0.615748 -0.549025 11.9783 12.9485 Si
32 4 1.23359 1.02891 11.6408 16.5823 Si
35 4 1.17667 1.73424 7.83503 13.9085 Si
36 4 0.946929 -1.63182 12.031 15.6646 Si
99 2 0.0596992 3.92774 7.46988 12.5865 H
92 2 0.36884 -1.53267 13.4183 17.5567 H
15 4 1.53057 7.67989 2.97016 0.265319 Si
18 4 1.17358 8.22563 2.03635 5.12745 Si
22 4 1.09189 7.07264 4.74603 2.63938 Si
39 4 1.18113 10.5749 2.03411 3.24908 Si
46 4 1.05323 9.4237 6.29216 3.86624 Si
49 4 0.612675 7.62666 5.77273 7.25993 Si
94 2 0.104619 8.33841 3.76769 5.35144 H
107 2 0.0973348 9.29724 5.5039 6.93184 H
71 1 -0.10942 6.75898 6.35883 1.37558 C
204 3 -0.808288 7.99212 1.40822 6.56675 O
209 3 -0.801583 7.48974 3.45474 1.78765 O
232 3 -0.811192 10.0011 1.13314 2.01006 O
233 3 -0.810446 9.6715 1.61426 4.52649 O
244 3 -0.774274 8.28271 5.17201 3.64508 O
248 3 -0.690786 6.72667 4.51232 6.60834 O
246 3 -0.716801 9.9315 2.9841 8.44853 O
250 3 -0.779261 10.2075 6.17585 5.30911 O
95 2 0.316831 6.12187 4.99968 4.6097 H
150 2 0.0334992 7.14002 6.05523 0.415434 H
13 4 1.42414 8.96737 0.157552 1.27703 Si
236 3 -0.827055 8.89819 0.346647 8.67226 O
208 3 -0.749789 5.79428 4.68794 3.62476 O
201 3 -0.773513 7.86348 1.3833 0.298814 O
98 2 0.232941 14.797 3.36274 0.660336 H
166 2 0.0629752 12.3355 0.171616 2.94605 H
331 2 0.062059 16.3453 0.365834 1.28869 H
241 3 -0.794138 10.9666 3.56682 3.26181 O
354 2 0.0235085 16.476 1.10421 6.67508 H
334 2 0.0603855 12.1237 1.12501 7.96259 H
245 3 -0.733473 10.9914 5.43987 1.12695 O
247 3 -0.65916 11.9893 5.1182 8.75797 O
329 1 -0.108029 15.334 0.535874 1.65197 C
243 3 -0.796807 12.7186 5.81303 3.25442 O
109 2 0.0353358 12.1626 6.29828 7.15893 H
45 4 1.11091 11.4945 4.98678 2.5733 Si
48 4 0.570204 11.4527 3.56414 8.24956 Si
330 2 0.0656797 14.6913 1.27302 1.19696 H
77 1 -0.119468 12.5361 1.13339 3.44687 C
80 1 -0.104635 12.2912 3.00029 6.46498 C
164 2 0.0271208 15.647 0.877483 5.0426 H
165 2 0.0496948 13.1423 1.83056 2.95562 H
167 2 0.0222494 12.686 1.11874 4.51677 H
174 2 0.0811157 11.5484 2.47465 5.92836 H
175 2 0.0184261 13.1314 2.43202 6.83272 H
176 2 0.0604246 12.5457 3.94297 5.96926 H
242 3 -0.705465 14.0745 3.99543 0.194032 O
332 2 0.0401415 15.2114 0.578846 2.7188 H
76 1 -0.127281 16.5826 0.970587 5.58561 C
42 4 1.33704 9.44744 1.74159 9.39663 Si
73 1 -0.0939597 7.90058 4.73701 13.4554 C
79 1 -0.0935829 8.04136 5.86911 9.23348 C
154 2 0.0275604 7.93253 5.34482 12.5531 H
155 2 0.0599826 8.3958 3.80425 13.3347 H
156 2 0.0862227 8.09081 5.23354 14.4009 H
237 3 -0.812217 8.39147 2.07528 10.5874 O
300 4 1.15531 10.0842 3.25841 15.9645 Si
302 1 -0.0694599 8.89558 1.69766 15.1684 C
305 2 0.031287 9.14688 1.45651 14.1575 H
307 2 0.130055 9.12076 0.929332 15.8818 H
315 3 -0.750791 10.2128 4.30558 14.7749 O
173 2 0.0534035 7.16841 6.37559 9.68227 H
238 3 -0.791395 9.1054 3.77138 17.1536 O
306 2 0.105044 7.87578 2.07524 15.2583 H
172 2 0.0981002 8.15109 4.80859 9.49423 H
342 2 0.120665 9.06505 5.91722 16.777 H
171 2 0.0641536 8.96529 6.41624 9.36798 H
309 2 0.0583651 10.3058 3.66091 11.8638 H
205 3 -0.78355 6.49755 3.6468 16.7929 O
358 2 0.0679499 12.4783 6.4962 15.9176 H
281 3 -0.692577 13.7088 1.30309 16.7943 O
301 4 0.621004 11.4607 4.90293 13.8829 Si
303 1 -0.14634 11.2927 4.06299 11.8858 C
310 2 0.00275703 12.0746 3.47181 12.3411 H
283 4 0.594687 13.5127 5.28353 9.35444 Si
314 3 -0.701351 11.3819 2.49956 16.4709 O
296 4 0.182973 13.7824 3.35385 14.6896 Si
297 2 0.071597 13.4609 2.25406 13.3502 H
316 3 -0.601446 12.8658 4.70855 14.6528 O
308 2 0.0215891 11.4528 4.98571 11.3203 H
348 2 0.0170277 13.662 4.44258 10.8467 H
4 4 0.968799 14.6821 1.37255 10.4273 Si
40 4 0.842362 12.9601 2.75155 16.8878 Si
44 4 0.603775 12.1061 2.61343 10.3185 Si
322 2 0.100421 16.5515 0.991075 15.3355 H
193 3 -0.744964 14.8546 0.853845 11.9387 O
239 3 -0.760359 13.6684 2.6052 9.98574 O
240 3 -0.683748 11.06 1.37839 10.1142 O
279 4 0.62028 14.2316 0.759773 15.3404 Si
38 4 1.01852 6.07446 11.7585 1.10001 Si
52 4 1.15456 5.66229 9.44846 2.93438 Si
78 1 -0.0728641 5.15626 7.84259 8.2638 C
82 1 -0.119101 2.56871 12.1129 5.20344 C
170 2 0.0964118 5.66033 8.42229 7.52687 H
179 2 0.0433757 2.47577 12.6712 6.1102 H
181 2 0.0290017 3.29287 11.2993 5.08216 H
253 3 -0.766402 4.69606 8.4452 2.14636 O
254 3 -0.798338 5.78066 10.9798 2.50058 O
234 3 -0.689568 4.57156 11.7399 0.395438 O
112 2 -0.0120759 6.21556 11.4132 5.80634 H
335 2 0.00705965 4.39624 13.0684 6.73853 H
355 2 0.0662927 2.95129 12.677 7.79363 H
180 2 0.069581 2.2957 12.6618 4.29498 H
211 3 -0.708782 3.7257 7.87116 5.2331 O
261 3 -0.818333 2.67263 9.88146 8.51849 O
159 2 0.0390677 2.69594 10.2321 3.39357 H
113 2 0.0200529 5.52111 11.0666 8.14065 H
149 2 0.0878613 5.70632 6.61118 1.37065 H
158 2 0.0782052 2.38508 10.5637 1.65888 H
264 3 -0.716186 6.59152 9.20644 4.24081 O
111 2 0.321169 3.281 8.58136 5.56638 H
333 1 -0.111484 3.82398 13.2258 7.66808 C
110 2 0.396311 4.3025 12.5726 0.0996708 H
187 2 0.10599 4.72799 9.45865 0.0134335 H
56 4 0.698441 7.3822 10.3471 5.15002 Si
148 2 0.0880372 7.34524 7.13484 1.83924 H
53 4 0.944706 8.87102 10.7907 0.182472 Si
105 2 0.356097 6.89422 7.3847 5.52237 H
54 4 1.12197 8.70386 8.67468 7.23886 Si
90 2 0.0320819 8.31734 11.6792 8.50633 H
251 3 -0.759995 9.36663 7.81566 3.18898 O
259 3 -0.776022 10.3219 8.22748 6.93011 O
256 3 -0.704305 8.96505 9.6567 1.39775 O
183 2 0.0230303 9.03829 12.1211 4.4952 H
258 3 -0.708531 7.16184 7.18716 6.52847 O
47 4 0.741074 11.0603 6.7157 0.210227 Si
184 2 0.0437638 7.59597 12.1491 3.45967 H
252 3 -0.71127 11.0685 8.08645 1.03316 O
182 2 0.0890623 8.84804 10.8828 3.15438 H
83 1 -0.106732 8.37583 11.5461 3.88378 C
257 3 -0.741757 7.19667 11.0982 0.155923 O
265 3 -0.754534 8.31668 9.98609 6.40187 O
50 4 1.10266 11.1861 7.25926 6.01523 Si
51 4 1.05738 10.1525 8.77759 2.17971 Si
347 2 0.0906866 9.89669 11.3072 6.72029 H
43 4 1.1295 4.68081 12.0062 13.3806 Si
55 4 1.06206 2.50523 10.8038 9.82137 Si
57 4 1.14647 3.36919 10.0792 15.2218 Si
84 1 -0.0863913 5.04219 9.80684 16.5557 C
41 4 0.764475 4.89309 12.3053 9.14342 Si
338 2 0.0692762 1.55787 13.2913 12.1276 H
186 2 0.0263586 5.53216 8.87921 16.1787 H
262 3 -0.762932 3.85295 11.6527 10.1369 O
106 2 0.29544 4.2315 9.32564 11.8168 H
267 3 -0.784616 3.72634 10.8256 13.8346 O
336 1 -0.0709497 1.46769 12.5612 12.9166 C
270 3 -0.698349 5.00649 9.04234 11.179 O
271 3 -0.776441 6.0821 11.3237 13.0157 O
108 2 0.296158 4.76275 9.71883 10.4068 H
351 2 0.0885898 4.06599 12.825 11.8574 H
151 2 0.0635037 4.12442 7.34778 16.3159 H
337 2 0.0545217 1.52269 12.9754 13.9 H
362 3 -0.82302 1.20303 12.9239 17.4708 O
185 2 0.104206 5.61487 10.6749 16.3212 H
356 2 0.127595 2.06418 11.6686 12.778 H
268 3 -0.829833 2.31424 11.0056 15.9354 O
58 4 0.858912 6.53479 10.1782 12.0032 Si
169 2 0.0878311 4.58419 8.49882 8.92558 H
235 3 -0.715011 6.19083 13.1987 9.50281 O
282 3 -0.693573 4.60763 13.2242 14.4037 O
168 2 0.0572578 5.76939 7.14618 8.81692 H
133 2 0.026298 10.3307 10.5501 11.316 H
324 2 0.0745691 7.95341 12.5827 16.2392 H
260 3 -0.712297 8.52496 8.9737 8.86999 O
341 2 0.0380247 8.85495 7.73557 16.901 H
304 1 -0.137069 11.1619 7.00149 13.422 C
269 3 -0.673176 7.0363 10.7143 10.5613 O
346 2 0.0476154 10.34 9.6004 16.2001 H
190 2 0.0287073 8.11828 8.17981 12.2856 H
343 1 -0.134837 9.39815 10.1078 15.9731 C
323 2 0.104251 7.94362 12.5996 14.4271 H
360 2 0.0281921 9.81127 6.94705 15.5501 H
345 2 0.0308295 8.58936 9.41972 15.7508 H
65 1 -0.1285 10.1808 11.0615 10.374 C
85 1 -0.133684 7.73516 8.82459 13.0674 C
188 2 0.0395074 7.02378 8.34027 13.7329 H
189 2 0.0271654 8.506 9.43718 13.5436 H
313 2 0.0278011 11.8977 7.50366 14.0111 H
344 2 0.0198318 9.52707 10.939 15.2608 H
12 4 0.678723 8.33854 10.3805 9.66627 Si
311 2 0.0298285 10.1578 7.27048 13.7714 H
321 1 -0.0679405 7.76503 13.1357 15.3302 C
312 2 0.0153538 11.3178 7.08157 12.3572 H
288 2 0.0697185 11.5898 7.26352 9.46327 H
340 1 -0.109177 9.45275 6.91397 16.5319 C
339 1 -0.0826969 12.8386 7.06293 16.743 C
280 2 0.343721 6.9989 13.0072 11.9874 H
ITEM: TIMESTEP
100
ITEM: NUMBER OF ATOMS
362
ITEM: BOX BOUNDS xy xz yz pp pp pp
-8.3819999999999997e+00 1.7202700000000000e+01 -8.3819999999999997e+00
0.0000000000000000e+00 1.3699212000000001e+01 3.0499999999999999e-02
0.0000000000000000e+00 1.7586700000000000e+01 3.0875400000000003e-01
ITEM: ATOMS id type q x y z element
2 4 0.574737 0.101056 2.81254 4.92127 Si
7 4 0.25291 -0.0551667 3.8506 2.19453 Si
60 1 -0.134079 -0.730471 3.9844 6.43308 C
69 1 -0.0870829 -1.257 5.49815 1.85936 C
88 2 0.0311962 -0.116975 2.84488 0.76515 H
114 2 0.112555 1.6362 1.78952 2.93569 H
118 2 0.0341552 -0.0857125 4.87954 6.44474 H
119 2 0.0195899 -0.70515 3.44896 7.34822 H
142 2 0.0566897 -1.35147 5.48585 0.795589 H
144 2 0.0897831 -2.16038 5.22353 2.37435 H
147 2 0.021482 0.307903 6.08046 4.6774 H
191 3 -0.632741 1.76728 2.86784 4.88123 O
194 3 -0.593399 -0.615239 2.90363 3.44485 O
59 1 -0.0847169 1.91398 0.976346 2.2632 C
120 2 0.0259719 1.29831 3.02742 8.03876 H
116 2 0.0532124 1.86548 1.21006 1.1972 H
124 2 0.0280245 -2.02652 5.82532 4.73877 H
121 2 0.0725313 1.7538 4.4883 7.11018 H
143 2 0.033159 -0.675539 6.3237 2.25828 H
117 2 0.0325531 -1.71944 4.14188 6.03335 H
5 4 0.648418 2.79638 2.44939 6.06492 Si
86 2 0.224613 1.48379 0.68659 6.91828 H
1 4 0.720025 3.9353 0.695082 2.60259 Si
61 1 -0.0829042 2.10107 3.63267 7.6363 C
350 2 0.0625315 2.45931 5.2232 1.39002 H
3 4 0.423114 3.63256 0.599439 7.98275 Si
201 3 -0.784445 7.66889 1.31198 0.33694 O
319 2 0.0813365 4.49567 0.129851 5.0457 H
24 4 0.621852 2.15293 6.28539 0.0643383 Si
14 4 1.22415 5.45153 2.62814 4.21243 Si
199 3 -0.698583 4.44409 2.15726 3.02077 O
135 2 0.0519758 5.88175 0.756786 7.50075 H
93 2 0.094116 2.98629 5.0746 4.84951 H
122 2 0.088686 2.92057 3.79346 8.32221 H
212 3 -0.75895 4.03547 5.25542 6.96576 O
200 3 -0.740485 4.78759 2.57995 5.69256 O
203 3 -0.781769 6.86805 1.81785 4.36605 O
25 4 1.16668 5.27464 4.14696 7.13964 Si
192 3 -0.633839 2.34604 0.518575 6.37191 O
210 3 -0.793394 5.41097 3.70536 8.71172 O
198 3 -0.724832 4.60786 0.0226979 1.29292 O
6 4 0.717517 -0.402614 2.07057 12.693 Si
9 4 0.605013 -1.42283 4.4358 14.2004 Si
63 1 -0.0991599 -1.62365 5.69294 12.568 C
68 1 -0.137027 0.307651 3.01129 10.9761 C
126 2 0.0302772 -1.08143 5.12544 11.8211 H
128 2 0.0443709 -2.71874 5.73685 12.493 H
139 2 0.00790574 -0.617447 3.48968 10.6695 H
140 2 0.0354372 0.583199 2.25162 10.297 H
195 3 -0.691316 -0.536425 3.05222 14.0065 O
214 3 -0.70037 -1.35338 5.42964 15.5771 O
89 2 0.300957 2.06911 5.4396 14.7135 H
141 2 0.0431909 1.09033 3.62481 11.3336 H
278 3 -0.738474 1.64435 0.847746 15.3378 O
215 3 -0.75115 1.25164 5.74714 16.6058 O
298 2 0.174381 0.881325 3.3227 15.2737 H
276 3 -0.665918 0.395336 0.671407 12.9412 O
226 3 -0.680869 2.04612 5.70483 13.6527 O
272 4 0.633187 1.8051 0.619296 13.7372 Si
127 2 0.0852983 -1.15746 6.65106 12.8169 H
28 4 1.05371 -0.0802095 6.3811 15.9468 Si
87 2 0.319934 -2.40978 4.35199 17.2247 H
92 2 0.389333 6.61414 0.419487 17.2568 H
136 2 0.0398844 4.51665 5.66357 10.6447 H
96 2 0.0705387 7.07066 1.30831 12.9585 H
97 2 0.0356852 5.88891 3.68287 11.8728 H
137 2 0.0196855 3.34871 4.43627 11.1323 H
327 2 0.095433 4.11992 1.53766 13.0456 H
328 2 0.0656402 2.86828 2.95245 13.3159 H
325 1 -0.0896218 3.1389 1.95575 12.8668 C
202 3 -0.720033 3.55154 1.74383 9.1263 O
17 4 1.04225 4.78485 2.56801 9.72245 Si
91 2 0.0145592 3.91229 3.00736 16.483 H
21 4 1.04718 6.95239 1.16741 11.2067 Si
216 3 -0.658196 4.87703 5.36906 13.8621 O
206 3 -0.79674 5.52712 1.83108 10.9606 O
20 4 0.735588 5.55911 3.02602 15.9063 Si
153 2 0.0506788 4.45422 5.62123 17.2243 H
27 4 0.604618 5.94205 4.17534 13.474 Si
29 4 0.58933 3.60546 5.88646 13.0355 Si
67 1 -0.118221 3.5549 5.48122 11.0702 C
152 2 0.0943703 4.1117 6.81183 15.9258 H
213 3 -0.673917 5.7251 2.8448 14.3447 O
72 1 -0.0981119 4.1018 6.60501 16.975 C
138 2 0.0625377 2.74767 6.06101 10.633 H
326 2 0.054345 2.78362 1.89973 11.8235 H
8 4 1.10695 -4.00002 7.16926 3.80107 Si
10 4 1.10241 -2.82629 9.55406 2.13021 Si
196 3 -0.796067 -3.61428 8.26286 2.73128 O
197 3 -0.791517 -3.55242 10.4312 0.936802 O
11 4 1.20819 -3.74307 11.8877 0.274407 Si
285 1 -0.0953804 -3.46662 9.343 7.76536 C
291 2 0.0619979 -2.47285 9.07421 7.48374 H
317 1 -0.100319 -4.38456 12.6336 4.27068 C
318 2 0.0568496 -5.4391 12.4647 4.48581 H
320 2 0.0742733 -3.86633 11.6835 4.06289 H
178 2 0.111215 -4.94413 9.75658 3.18155 H
289 2 0.0240794 -3.56523 10.3329 8.27571 H
353 2 0.03343 -2.98597 12.2113 6.85313 H
70 1 -0.0966596 0.729579 6.98019 5.12798 C
347 2 0.0832141 -6.47648 10.7884 6.77582 H
62 1 -0.135726 -2.20197 6.84625 4.95995 C
219 3 -0.813269 -2.13871 10.5928 3.15539 O
290 2 0.0714596 -4.19886 9.17 7.04658 H
361 2 0.0336221 -6.17096 11.0924 2.96377 H
125 2 0.0441072 -2.42808 7.04726 5.96455 H
66 1 -0.123953 -2.77099 12.8611 7.69342 C
146 2 0.0895382 0.880041 6.97096 6.21186 H
349 2 0.0585024 -6.15601 10.7554 7.08644 H
81 1 -0.0894988 -5.96735 10.0915 3.30843 C
255 3 -0.765519 -7.48044 12.261 0.0433294 O
23 4 0.627407 2.67457 6.68896 4.41677 Si
74 1 -0.0769283 2.16864 9.93597 2.43184 C
30 4 0.75248 3.21284 8.21457 2.08587 Si
221 3 -0.75939 2.20517 7.35398 7.79355 O
129 2 0.0432967 -1.85244 7.77493 0.320072 H
157 2 0.0875641 1.19797 9.62864 2.07358 H
131 2 0.108928 -1.02209 9.41011 0.242759 H
130 2 0.0548473 -0.623813 8.20486 1.54121 H
34 4 1.07405 0.896081 10.8466 5.68059 Si
64 1 -0.094772 -1.35721 8.56184 0.852189 C
217 3 -0.660883 2.71597 6.86102 2.84401 O
100 2 0.0383705 -1.46165 12.7271 4.56381 H
220 3 -0.836894 -0.418379 12.4721 2.13264 O
222 3 -0.799246 0.18028 10.7704 4.22872 O
145 2 0.0818889 0.340544 7.9164 4.72344 H
223 3 -0.813903 1.42325 9.47139 6.37195 O
31 4 1.1752 -0.930468 11.6062 3.38419 Si
26 4 0.795404 3.66697 6.8036 7.24958 Si
123 2 0.0372297 -1.51072 7.5245 4.47051 H
218 3 -0.707056 1.67401 7.78504 0.505268 O
33 4 1.07094 1.76647 8.88701 7.83429 Si
224 3 -0.807375 -0.0278473 11.7806 6.64264 O
16 4 1.125 -0.395648 13.1671 7.3703 Si
134 2 0.0487381 -2.67457 12.3854 8.65552 H
115 2 0.0497066 -6.88298 13.1523 2.53867 H
111 2 0.278231 3.19818 8.5055 5.55146 H
229 3 -0.752665 -2.2495 13.0819 16.4641 O
274 2 -0.00884456 -5.86499 12.2274 13.3038 H
273 4 1.05944 -6.30018 13.1021 16.6232 Si
132 2 0.0197041 -6.3247 10.8295 9.55943 H
293 2 0.0425575 -4.02027 8.23947 11.8328 H
286 1 -0.108461 -4.10206 9.06439 11.1401 C
295 3 -0.609722 -3.11688 6.74707 9.40426 O
357 2 0.0893249 -4.0416 8.04158 17.2113 H
277 3 -0.787983 -4.89641 12.3094 16.7369 O
275 2 0.0215419 -4.92004 9.56442 13.5033 H
292 2 0.067745 -3.22502 9.69524 11.1643 H
104 2 0.0376336 -4.49825 9.62494 14.1282 H
294 2 0.0227154 -5.00897 9.59784 11.1518 H
284 4 0.29497 -4.06412 8.047 9.33503 Si
352 2 0.0605339 -7.11455 11.931 10.7782 H
75 1 -0.100906 -0.442544 8.3195 10.2715 C
37 4 0.807698 0.543533 9.55268 11.6107 Si
102 2 0.338926 -0.654158 12.025 10.3804 H
161 2 0.0698966 -1.34783 8.05766 10.8078 H
160 2 0.0339361 -0.557319 8.75592 9.27355 H
101 2 0.339043 2.08741 8.71322 17.4802 H
162 2 0.0551032 0.304443 7.54791 10.3105 H
207 3 -0.733103 -1.30249 12.6547 10.9123 O
225 3 -0.756283 0.187463 7.60539 14.9069 O
266 3 -0.756463 2.75246 8.47897 14.8306 O
231 3 -0.655507 -0.924241 10.0922 13.0096 O
227 3 -0.805035 -0.379751 11.0758 16.1572 O
228 3 -0.708834 -1.21832 12.7526 14.1421 O
230 3 -0.73861 1.54139 8.53539 12.4089 O
299 2 0.301808 -0.459456 9.88077 13.8849 H
263 3 -0.77867 1.18771 10.7157 10.6989 O
19 4 0.548824 -0.559092 12.0282 12.856 Si
32 4 1.12719 1.10637 11.6198 16.5103 Si
35 4 1.11407 1.49571 7.85903 13.9321 Si
36 4 0.997022 -1.58128 11.9333 15.5206 Si
103 2 0.105468 -3.40787 12.8679 13.905 H
15 4 1.51767 7.66551 2.93447 0.38793 Si
18 4 1.18721 8.29455 1.98081 5.09731 Si
22 4 1.06777 6.94142 4.79842 2.60587 Si
39 4 1.15735 10.6649 1.88381 3.22224 Si
46 4 1.07171 9.4728 6.14738 3.78691 Si
49 4 0.658067 7.71748 5.78025 7.1968 Si
94 2 0.0834727 8.50739 3.68908 5.30328 H
107 2 0.0696255 9.34145 5.23315 6.96253 H
71 1 -0.108449 6.62391 6.26881 1.04169 C
204 3 -0.79255 8.01147 1.40695 6.54491 O
209 3 -0.791429 7.20733 3.39741 1.86524 O
232 3 -0.801044 10.06 1.09219 1.90487 O
233 3 -0.815311 9.76445 1.55189 4.53753 O
244 3 -0.771857 8.30126 5.12135 3.40443 O
248 3 -0.719403 6.73167 4.66523 6.60144 O
246 3 -0.687073 9.92719 2.90785 8.58914 O
250 3 -0.777175 10.2052 6.03227 5.23273 O
95 2 0.347492 6.01464 5.13164 4.68427 H
150 2 0.0616317 6.52529 5.73596 0.0945988 H
13 4 1.45063 8.97141 0.157277 1.18113 Si
236 3 -0.767195 8.91385 0.227693 8.70991 O
208 3 -0.729204 5.70837 4.82427 3.71484 O
335 2 0.0226303 13.1637 0.427879 6.9956 H
98 2 0.211799 14.6436 3.34555 1.07502 H
166 2 0.0529258 12.8602 0.504049 2.6185 H
331 2 0.0753785 15.8867 0.760417 0.855043 H
241 3 -0.800874 10.9906 3.43332 3.16286 O
354 2 0.0341409 16.0163 1.39603 6.76627 H
334 2 0.0781602 11.681 0.608413 7.9182 H
245 3 -0.700819 10.9281 5.25623 1.08663 O
76 1 -0.121993 16.2034 1.09368 5.75818 C
329 1 -0.0999137 15.1817 0.516433 1.62782 C
243 3 -0.816506 12.6353 5.75095 3.13708 O
109 2 0.0362302 11.9618 6.1695 7.15115 H
45 4 1.16619 11.5071 4.85491 2.51893 Si
48 4 0.595531 11.4522 3.50793 8.35733 Si
330 2 0.0564176 14.3219 1.16471 1.56669 H
77 1 -0.127192 12.6719 1.09079 3.49205 C
80 1 -0.102906 12.2809 3.04845 6.44032 C
164 2 0.034798 15.3308 1.04893 5.10818 H
165 2 0.044938 13.2351 2.05025 3.52971 H
167 2 0.0250489 12.7355 0.482674 4.38814 H
174 2 0.0622734 11.6887 2.16362 6.19617 H
175 2 0.0244078 13.3242 2.86575 6.5367 H
176 2 0.0762237 12.0335 3.91901 5.88489 H
242 3 -0.69261 14.0548 4.00542 0.249316 O
332 2 0.0448738 15.6278 0.410997 2.59825 H
163 2 0.0454682 16.9512 0.310673 5.68017 H
287 2 0.0150165 14.5016 4.30424 8.25569 H
42 4 1.27501 9.41701 1.59212 9.52634 Si
73 1 -0.105754 7.91799 4.86873 13.4076 C
79 1 -0.0928803 7.60739 5.82136 9.26351 C
154 2 0.0211421 7.77873 5.66817 12.6986 H
155 2 0.0608563 8.6008 4.08149 13.0936 H
156 2 0.0824197 8.03124 5.11765 14.461 H
237 3 -0.788244 8.23653 1.96086 10.6615 O
300 4 1.06931 9.98819 3.28926 16.033 Si
302 1 -0.0752857 8.93263 1.62169 15.1928 C
305 2 0.0380058 9.56102 1.44508 14.3425 H
307 2 0.0897031 8.81598 0.854276 15.9526 H
315 3 -0.730903 10.1861 4.40236 14.8606 O
173 2 0.0514368 6.81683 6.52518 9.49507 H
238 3 -0.786785 9.086 3.69242 17.3651 O
306 2 0.0818977 8.02801 2.09 14.9431 H
172 2 0.0972296 7.40938 4.8198 9.61658 H
342 2 0.104566 8.76696 5.97976 16.975 H
171 2 0.0501245 8.63437 6.18553 9.46392 H
309 2 0.0424707 10.6665 3.29768 12.1815 H
205 3 -0.77267 6.66712 3.85563 16.8195 O
247 3 -0.66166 12.0434 4.97456 8.81987 O
281 3 -0.713475 13.8137 1.55943 16.7668 O
301 4 0.603931 11.4138 4.9292 13.8802 Si
303 1 -0.145547 11.5184 3.99187 11.9006 C
310 2 0.00944403 12.5841 3.92863 12.1948 H
283 4 0.602731 13.5886 5.20599 9.41991 Si
314 3 -0.700828 11.3734 2.4998 16.3346 O
296 4 0.210248 13.6818 3.43967 14.6737 Si
297 2 0.0806438 13.0434 2.44306 13.3615 H
316 3 -0.593331 12.8834 4.83376 14.5834 O
308 2 0.0465232 11.2861 4.75645 11.1462 H
348 2 0.0100748 13.8229 4.53325 10.9897 H
4 4 0.984005 14.7986 1.27845 10.3929 Si
40 4 0.847099 12.8992 2.89709 16.8545 Si
44 4 0.612466 12.1966 2.46248 10.4106 Si
360 2 0.0829663 9.8124 6.22706 15.5841 H
193 3 -0.762356 14.9234 1.10861 12.035 O
239 3 -0.737925 13.7572 2.49548 10.003 O
240 3 -0.67589 11.0586 1.29598 10.2233 O
279 4 0.673119 13.9686 0.699388 15.3373 Si
322 2 0.140142 16.6137 1.0381 15.0598 H
338 2 0.0521352 9.94338 0.322466 12.8346 H
340 1 -0.102744 9.3745 6.71486 16.498 C
359 2 0.127647 13.3818 6.2529 17.2241 H
282 3 -0.711339 12.9866 0.249054 14.1721 O
38 4 1.0273 5.99779 11.7186 1.0997 Si
52 4 1.12821 5.75719 9.38976 2.95895 Si
78 1 -0.0737443 5.06564 7.88304 8.31226 C
82 1 -0.117983 2.62615 12.0213 4.91595 C
170 2 0.0920248 5.61274 8.6509 7.72832 H
179 2 0.0833936 2.18236 12.9472 5.30941 H
181 2 0.0231828 3.49584 11.5837 5.37909 H
253 3 -0.751643 4.82907 8.34303 2.18668 O
254 3 -0.807472 5.70709 10.9221 2.4539 O
234 3 -0.664569 4.5711 11.8463 0.307539 O
112 2 -0.00832075 6.17198 11.4821 5.71465 H
362 3 -0.837627 1.3332 12.3953 0.0346464 O
355 2 0.0228021 3.52754 12.2854 6.93092 H
180 2 0.055033 2.51443 11.885 3.87582 H
249 3 -0.763534 12.1886 7.78104 4.97666 O
261 3 -0.804822 2.83463 9.75717 8.68006 O
159 2 0.049206 2.2958 10.1362 3.46781 H
113 2 0.0353849 5.67228 10.8414 8.45003 H
50 4 0.979642 11.1199 7.16878 6.05044 Si
158 2 0.101224 2.66452 10.6939 1.83984 H
264 3 -0.720115 6.5277 9.22511 4.38505 O
51 4 1.11891 10.106 8.75241 2.03641 Si
333 1 -0.118544 3.99305 13.0931 7.44593 C
265 3 -0.72943 8.28351 10.0538 6.4114 O
149 2 0.107865 5.73322 6.68348 1.5197 H
56 4 0.68947 7.35216 10.3869 5.14098 Si
148 2 0.0592349 7.50416 6.90459 1.08584 H
53 4 0.986588 8.80653 10.8212 0.0828266 Si
105 2 0.339291 7.33229 7.32726 5.376 H
54 4 1.07881 8.74468 8.66868 7.1837 Si
90 2 0.0569656 8.07047 11.5048 8.41289 H
251 3 -0.772548 9.42228 7.62268 2.95238 O
259 3 -0.776717 10.2963 8.34951 6.88651 O
256 3 -0.774569 9.15151 9.86221 1.37417 O
183 2 0.04161 9.36814 11.6862 4.40102 H
258 3 -0.696792 7.29321 7.13907 6.43598 O
47 4 0.677866 11.013 6.59179 0.137465 Si
184 2 0.0253537 7.82371 12.4558 3.78264 H
252 3 -0.705764 11.0524 7.99691 0.965033 O
182 2 0.0991318 8.41765 11.0342 2.9695 H
83 1 -0.110388 8.40539 11.581 3.86927 C
257 3 -0.749633 7.17698 11.0857 0.115336 O
177 2 0.0752924 10.7591 9.78182 4.25023 H
168 2 0.046514 5.72689 7.05219 8.50304 H
211 3 -0.633378 3.77159 7.68957 5.21823 O
43 4 0.977299 4.67139 12.051 13.2121 Si
55 4 1.06024 2.60219 10.8485 9.8655 Si
57 4 1.01709 3.22579 10.016 15.1131 Si
84 1 -0.076399 5.2065 9.89024 15.9652 C
41 4 0.660607 5.02035 12.3072 9.03318 Si
358 2 0.0562403 12.6673 7.06463 15.7544 H
186 2 0.0324045 5.59841 9.04337 15.4905 H
262 3 -0.730859 3.95065 11.6927 10.2252 O
106 2 0.301408 4.18082 9.71014 11.9446 H
267 3 -0.757541 3.5453 10.9395 13.735 O
336 1 -0.0733258 1.46767 12.4206 13.0418 C
270 3 -0.699384 4.88426 9.12635 11.3981 O
271 3 -0.724313 6.18884 11.3825 13.0564 O
108 2 0.288328 4.80176 9.62106 10.4969 H
351 2 0.10204 4.17636 12.9424 11.7464 H
151 2 0.0406793 4.52723 7.43996 17.501 H
337 2 0.0546406 1.75423 12.1498 14.0257 H
312 2 0.0228479 11.7849 6.91397 12.2731 H
185 2 0.0885927 5.76106 10.8235 15.6686 H
356 2 0.11553 1.85714 11.7469 12.317 H
268 3 -0.762821 2.2783 10.4785 16.3574 O
58 4 0.817866 6.60224 10.1753 12.0118 Si
288 2 0.0626446 11.4604 7.63258 8.99395 H
235 3 -0.719387 6.29616 13.2736 9.3146 O
339 1 -0.0656792 12.8259 7.0714 16.8194 C
187 2 0.093543 5.04803 9.76222 17.0465 H
133 2 0.026752 10.2696 10.198 11.1826 H
324 2 0.0746383 7.64815 12.9257 16.209 H
260 3 -0.693413 8.42787 8.86454 8.86877 O
341 2 0.0150092 8.97778 7.724 16.3963 H