ITEM: TIMESTEP
0
ITEM: NUMBER OF ATOMS
362
ITEM: BOX BOUNDS xy xz yz pp pp pp
-8.3819999999999997e+00 1.7202700000000000e+01 -8.3819999999999997e+00
0.0000000000000000e+00 1.3430600000000000e+01 3.0499999999999999e-02
0.0000000000000000e+00 1.7586700000000000e+01 3.0270000000000002e-01
ITEM: ATOMS id type q x y z
13 4 1.61606 8.2712 0.19202 1.88771
2 4 1.00561 -0.718481 2.84143 5.18303
5 4 1.24999 2.34591 2.21189 6.26712
7 4 0.701888 -0.979418 3.58833 1.89015
14 4 1.45032 5.08449 2.60093 4.27172
23 4 1.05902 2.7361 6.07842 4.25897
59 1 -0.655631 2.33047 0.775972 2.31837
60 1 -0.659811 -1.0628 4.29588 6.37875
61 1 -0.668494 2.16161 3.6405 7.4818
203 3 -0.82584 6.76596 2.69293 5.17201
69 1 -0.64729 -0.0320903 5.23091 1.54608
87 2 0.0634041 -1.75714 5.28722 1.36216
353 2 0.176175 6.06163 0.462464 8.07912
93 2 0.0982878 3.67766 4.63941 3.98308
62 1 -0.663717 -2.25006 6.49531 4.29391
116 2 0.177456 2.7182 1.6908 1.75852
205 3 -0.822777 5.77016 3.26286 0.217016
118 2 0.187264 -1.51003 5.11289 5.69635
119 2 0.150886 -0.123942 4.61601 6.98009
120 2 0.159986 1.22852 4.35649 7.31115
121 2 0.223258 3.10974 4.14544 7.30139
210 3 -0.847622 5.14512 3.70342 8.65662
123 2 0.200074 -1.84927 5.61705 3.64886
70 1 -0.64536 0.823819 6.11659 4.52648
3 4 0.919338 3.57731 0.163203 8.46379
143 2 0.024421 0.671583 3.67568 1.04813
144 2 0.177301 0.286658 5.48442 2.67177
147 2 0.157094 0.719618 4.93966 4.40109
124 2 0.167033 -2.50781 6.25169 5.40361
191 3 -0.747901 0.926599 2.22165 5.54334
192 3 -0.748975 2.59452 0.823644 7.33836
194 3 -0.739965 -0.851283 3.30052 3.47589
199 3 -0.785583 4.88067 1.32777 3.41251
200 3 -0.79938 3.75384 2.52468 5.31109
122 2 0.183147 2.15981 3.07229 8.46362
287 2 -0.0130715 -1.53689 5.05692 8.12881
208 3 -0.814207 4.8629 3.82225 3.31991
201 3 -0.821077 7.37848 1.43347 1.11695
350 2 0.036706 4.60699 5.29752 0.407891
142 2 0.169012 0.522076 5.88508 0.884789
117 2 0.128798 -1.92102 3.59256 6.89506
114 2 0.20787 1.62059 0.967792 3.12134
283 4 0.88463 -3.13104 5.55332 8.59305
146 2 0.208555 0.741493 6.45673 5.62817
6 4 1.26832 0.487266 1.11515 12.011
9 4 1.00909 0.866049 4.14278 13.1745
17 4 1.33828 4.90392 2.66835 9.88012
20 4 0.953156 5.11197 2.92644 16.5386
24 4 1.1031 3.50366 6.55044 17.0732
27 4 1.03183 5.39806 4.53512 13.7713
28 4 1.21656 0.856611 5.65285 15.862
276 3 -0.821965 1.50384 0.31462 12.9624
63 1 -0.701933 0.525145 5.44986 11.8292
67 1 -0.683089 3.69436 3.31959 11.2842
68 1 -0.690951 1.2819 1.46691 10.297
89 2 0.0080118 2.5477 4.08689 12.7347
91 2 -0.0338515 3.47757 2.49122 16.7218
92 2 0.0924702 5.69442 1.32805 16.4251
97 2 -0.00528164 5.29312 3.36505 12.484
98 2 -0.0316681 -0.182304 5.30967 17.1602
99 2 -0.0367979 2.44966 5.75154 11.4986
126 2 0.139834 -0.65333 5.39692 11.9921
127 2 0.132721 0.867912 4.96983 10.919
348 2 -0.0166345 -3.12031 5.42217 10.3379
136 2 0.147659 3.83154 2.6428 12.1249
137 2 0.140998 2.58252 3.32088 10.9177
138 2 0.133128 4.21834 4.4021 11.3426
139 2 0.150583 1.51729 2.55671 10.5201
140 2 0.177698 1.09942 1.32632 9.20088
141 2 0.181863 2.20484 0.824353 10.5953
195 3 -0.813744 0.364616 2.61806 12.6787
202 3 -0.810872 4.13464 1.30948 9.36857
297 2 -0.0219933 -2.25862 6.18492 14.5351
206 3 -0.857662 6.24714 2.35543 10.6429
328 2 0.00804675 3.82703 0.780656 14.5123
213 3 -0.826269 5.26576 3.7491 15.1956
214 3 -0.825451 0.627175 4.58472 14.6974
215 3 -0.817751 2.34994 5.62201 16.4639
216 3 -0.86448 4.54994 5.68231 13.2192
29 4 0.969633 3.40745 6.59971 12.5541
207 3 -0.850122 7.95558 0.863739 12.0285
128 2 0.184824 0.896613 6.50404 11.9649
86 2 -0.0192117 -0.49263 1.65843 9.45784
324 2 0.208497 0.0547973 2.01727 14.8868
327 2 0.172967 4.18484 0.593766 12.0488
320 2 0.166148 -5.69059 11.9136 4.68193
347 2 -0.0306757 -3.54245 12.3198 7.90384
10 4 1.2628 -2.52924 9.06931 1.53585
26 4 1.30993 3.97834 7.01954 6.93267
101 2 -0.00586738 1.15201 9.7333 0.431807
8 4 1.32969 -3.8836 6.72778 3.31409
159 2 0.169708 1.25616 10.0801 2.12081
362 3 -0.853919 0.135228 12.1732 0.813076
31 4 1.31371 -1.20531 11.0119 3.67187
33 4 1.21432 1.64207 8.42294 8.23908
34 4 1.34585 0.667836 10.3831 6.10715
64 1 -0.669884 -1.44033 7.8865 0.495527
66 1 -0.66601 -1.6311 12.7803 8.42307
291 2 0.160283 -4.11127 9.76404 5.63741
74 1 -0.657379 1.08815 8.94539 2.24808
100 2 -0.000853407 -2.66245 11.3095 4.47563
319 2 0.162937 -4.29413 10.8767 4.08408
30 4 1.23961 2.83784 8.27858 1.99391
318 2 0.166952 -3.98747 12.2829 5.27958
130 2 0.169419 -0.872498 6.93295 0.811709
221 3 -0.78048 2.50625 7.07324 7.94266
134 2 0.154268 -1.80785 11.7535 7.98518
284 4 0.780274 -3.90332 8.58693 7.6585
317 1 -0.682004 -4.56223 11.9174 4.43288
157 2 0.21595 0.845566 8.68507 3.34705
158 2 0.180415 0.242197 8.49022 1.52818
196 3 -0.805565 -3.54541 7.89304 2.37742
197 3 -0.855207 -3.40763 10.0525 0.485346
198 3 -0.81476 -3.73198 12.4223 1.62684
16 4 1.3198 0.128266 13.2441 7.70921
217 3 -0.825913 2.88616 7.13117 3.07617
218 3 -0.81411 2.98557 7.42366 0.267035
219 3 -0.823334 -1.53387 9.90207 2.57696
220 3 -0.836263 -0.7071 12.4118 3.13293
145 2 0.17692 0.250559 6.71559 3.73597
222 3 -0.836756 -0.193108 10.3665 4.75056
223 3 -0.813959 0.692793 9.06457 7.04599
224 3 -0.788281 0.43857 11.7738 6.90543
285 1 -0.659921 -3.19603 9.08557 6.03434
289 2 0.199163 -2.90327 8.18768 5.30963
11 4 1.40202 -3.85662 11.5912 0.224086
290 2 0.148905 -2.27 9.69321 6.43653
178 2 0.2108 -5.76921 9.3991 2.26976
125 2 0.180791 -1.70969 7.52702 4.12851
295 3 -0.772142 -3.45401 6.99183 8.14536
288 2 0.0402912 -5.57529 9.26696 8.35672
361 2 0.169488 -6.78552 10.9708 1.92431
211 3 -0.820298 3.32143 6.74893 5.54102
293 2 0.123681 -3.25778 10.6045 8.63416
1 4 1.17932 -4.35159 13.1489 2.86909
131 2 0.176926 -0.652703 8.66371 0.102752
115 2 0.172765 -6.38686 12.9883 1.56628
19 4 1.32831 -0.0537421 12.7304 12.8593
32 4 1.28724 0.462343 11.4668 17.2342
35 4 1.48851 1.44842 8.15374 14.302
36 4 1.23855 -1.81394 11.92 15.4853
37 4 1.30616 0.484648 9.74897 11.8555
75 1 -0.666462 -0.746625 9.07637 10.5764
65 1 -0.659874 -6.61808 11.092 10.8421
102 2 -0.0120836 0.589784 8.03517 9.61414
103 2 -0.00990458 -2.74984 10.7494 14.6081
286 1 -0.680566 -4.06501 9.91527 9.13312
160 2 0.155243 -0.860124 7.94931 10.8381
161 2 0.164993 -0.518289 9.32001 9.47984
162 2 0.173236 -1.70522 9.65757 10.9196
225 3 -0.785747 0.450571 7.15704 15.3329
226 3 -0.873149 2.53629 7.2554 13.573
227 3 -0.835651 -0.714832 10.9954 16.3693
228 3 -0.782009 -0.990413 12.7856 14.4584
229 3 -0.819561 -2.81472 12.7978 16.4028
230 3 -0.812779 0.496308 8.70813 12.9759
231 3 -0.780676 -0.285902 11.2521 12.4118
129 2 0.159385 -2.10776 7.88509 17.2738
299 2 -0.0026886 -3.41141 7.3625 16.0847
272 4 1.07452 -5.71369 12.788 13.7734
273 4 1.20371 -6.27618 11.1422 16.2793
274 2 0.197777 -2.9897 13.1457 13.2406
132 2 0.151597 -5.5335 11.2508 10.7725
277 3 -0.844274 -5.39237 11.931 17.3015
278 3 -0.810361 -5.91861 11.5212 14.6769
326 2 0.135111 -4.11388 11.8168 12.4717
266 3 -0.825286 2.1522 9.51157 14.9652
292 2 0.150022 -5.02205 10.4637 9.4471
294 2 0.15801 -3.62096 9.35442 10.0399
135 2 0.206555 -1.51519 12.7759 9.59133
263 3 -0.826768 1.96239 10.1994 11.1777
352 2 0.208543 -6.87141 11.2475 11.8875
325 1 -0.694354 -4.03904 12.9905 12.9082
90 2 0.116692 -7.31076 12.0927 10.0141
359 2 0.219314 -4.6687 8.76098 17.5719
349 2 -0.00903115 -5.67008 12.0864 9.39676
15 4 1.48871 7.31003 2.98866 0.755744
18 4 1.32952 8.26251 2.50525 5.75714
22 4 1.27786 6.44535 4.90828 2.88085
330 2 0.168539 14.9969 1.46061 2.43537
39 4 1.36396 10.3413 1.96282 3.22097
45 4 1.53476 12.1109 4.303 1.59821
354 2 0.142906 13.9904 2.18203 5.55238
48 4 1.01149 12.243 3.13397 7.62684
329 1 -0.678871 15.4546 0.536485 2.03148
71 1 -0.688475 5.82693 6.26471 1.64982
76 1 -0.68192 15.0508 1.58444 5.48286
77 1 -0.666386 11.6621 0.769751 3.83585
80 1 -0.682581 12.2004 3.10872 5.74697
94 2 -0.00367905 8.50109 3.7744 6.77629
331 2 0.138409 16.2894 0.687181 1.22079
106 2 -0.00669317 13.2153 1.69286 7.63511
109 2 -0.0149639 11.3269 6.64457 7.0079
335 2 0.1504 13.7958 0.434799 6.53543
150 2 0.156739 6.00505 6.15706 0.528331
163 2 0.144881 15.2042 0.840992 6.34562
164 2 0.153489 15.1351 1.08134 4.45228
165 2 0.158943 12.7494 1.23317 3.67747
167 2 0.157456 11.4622 0.527862 4.91489
174 2 0.196975 11.04 3.38091 5.67114
175 2 0.164612 12.484 2.14282 5.18137
176 2 0.188543 12.8951 3.95902 5.45729
204 3 -0.87251 8.39978 1.31863 6.71505
209 3 -0.758953 7.53125 3.89007 2.08425
232 3 -0.83983 9.62678 0.940654 2.24882
233 3 -0.790875 9.34399 2.40986 4.62025
234 3 -0.837028 13.1637 0.727513 0.245171
248 3 -0.842826 7.28087 5.25682 8.23637
241 3 -0.770836 11.1978 3.27128 2.45663
242 3 -0.872631 13.0566 3.37743 0.616931
243 3 -0.811976 13.1178 5.31223 2.57312
244 3 -0.846324 7.17031 5.73527 4.00408
245 3 -0.785337 11.1723 5.26654 0.67518
246 3 -0.830147 10.9352 2.7679 8.50783
247 3 -0.810704 13.0065 4.48467 7.98898
250 3 -0.79164 9.40571 6.64179 5.07865
149 2 0.187034 4.76576 6.42905 1.90229
49 4 1.05207 8.49404 6.24313 8.7146
25 4 1.29806 5.92032 4.68089 7.70863
212 3 -0.857828 5.04002 5.91629 7.32413
88 2 -0.0207626 15.6412 2.20243 0.983053
334 2 0.174302 12.2282 0.264941 7.80032
95 2 0.0577721 6.28675 3.75916 6.32064
4 4 1.24425 15.3703 0.759098 10.1996
21 4 1.28031 7.62549 2.30909 11.3516
323 2 0.166133 16.3572 1.03029 16.3056
42 4 1.4411 10.0519 1.86528 9.66562
44 4 1.03814 12.8018 2.31062 11.1158
73 1 -0.669318 7.25078 5.02565 13.6753
79 1 -0.659623 8.67636 6.44428 10.6191
338 2 0.235665 10.5962 0.539096 12.373
96 2 -0.0101693 7.66071 3.41934 12.7158
104 2 0.0857398 12.4161 4.08289 10.2863
110 2 0.0265459 13.0749 2.77786 12.8601
341 2 0.168323 9.48208 6.77508 15.2127
154 2 0.136818 7.3399 5.16588 12.5311
155 2 0.256203 8.21069 4.61499 14.1125
156 2 0.164366 7.08311 6.06405 14.2729
171 2 0.166632 9.0182 5.60189 11.2827
360 2 0.283777 8.91447 5.56909 16.6433
193 3 -0.767211 16.2287 0.315478 11.5329
237 3 -0.812355 8.82496 2.78745 10.421
238 3 -0.799219 8.70441 3.79233 17.1004
239 3 -0.861495 14.1043 1.63087 10.5481
240 3 -0.800633 11.3445 1.68767 10.9686
279 4 1.09076 14.5912 1.49873 14.9076
340 1 -0.671966 9.09337 6.62958 16.3262
281 3 -0.83145 13.908 2.63576 15.7615
40 4 1.49891 12.775 2.41653 17.2508
304 1 -0.672887 10.2338 6.73982 13.2702
300 4 1.30053 9.78423 3.0942 16.246
301 4 1.01831 10.9108 5.09054 13.8773
302 1 -0.660884 8.83602 1.55218 15.7931
303 1 -0.659201 13.1926 4.23512 11.629
172 2 0.136359 7.36889 6.60534 10.6002
306 2 0.172516 8.66949 1.79863 14.6896
280 2 0.0548793 15.6761 2.4323 13.8743
308 2 0.151045 12.8272 5.21561 12.0731
313 2 0.126167 10.6614 6.57809 12.1757
310 2 0.00511352 11.3933 4.27621 12.4495
314 3 -0.813379 11.2171 2.55571 16.8059
315 3 -0.790908 9.89368 4.18239 14.5555
316 3 -0.774831 12.3031 5.46576 14.7368
107 2 0.0155965 9.91019 5.50151 9.48872
358 2 0.0615487 13.1729 6.32325 17.2424
305 2 0.280934 9.45986 0.480899 15.953
309 2 0.125961 14.373 4.25602 11.4846
321 1 -0.679624 16.4572 1.18801 15.1574
236 3 -0.795759 9.48496 0.509683 9.13718
298 2 0.0699292 14.333 4.23369 16.1224
296 4 0.652062 13.6139 5.6873 15.5565
307 2 0.209324 7.86159 1.50444 16.3391
282 3 -0.808052 13.8543 0.263745 14.1939
38 4 1.2972 5.77021 12.7351 0.928973
181 2 0.169769 3.31307 10.4784 6.39133
260 3 -0.824206 9.10152 10.1315 8.34025
50 4 1.24369 10.801 7.31248 5.5951
51 4 1.2935 9.19772 8.8925 1.84251
52 4 1.25523 4.63787 10.588 3.00904
54 4 1.35483 8.95132 9.00941 7.14703
56 4 0.922706 6.83403 10.7817 5.0124
78 1 -0.684942 4.89845 8.77317 6.94962
81 1 -0.681139 10.5046 10.0133 2.57563
82 1 -0.650629 2.54954 10.8446 5.60408
83 1 -0.661133 8.247 11.5831 4.11475
105 2 0.092689 7.07129 7.97419 5.51801
111 2 -0.0108619 3.53164 11.3926 4.03071
112 2 -0.0213022 5.94483 11.8059 6.08937
113 2 0.00446551 5.60379 10.3658 7.96395
148 2 0.205499 6.50716 7.15538 2.12129
166 2 0.197398 3.03285 12.9796 3.11951
265 3 -0.764301 7.57761 9.35275 6.18902
332 2 0.176791 7.49489 12.9366 2.84343
169 2 0.184231 4.20161 9.58931 7.21636
170 2 0.189331 5.17805 8.75276 5.78921
177 2 0.202664 10.4028 10.1573 3.70155
168 2 0.197998 5.78639 8.66326 7.66488
179 2 0.1657 2.58126 11.9745 5.39374
46 4 1.27046 7.9909 7.07803 4.45106
180 2 0.142613 2.43808 10.2164 4.60204
182 2 0.200482 7.91677 11.3416 2.97823
183 2 0.180932 9.33491 11.3167 4.31083
333 1 -0.661599 4.64866 12.8223 7.13245
249 3 -0.768236 11.9929 7.10774 4.56422
251 3 -0.745429 8.4306 8.06339 3.16517
252 3 -0.818635 9.95414 7.76158 1.04043
253 3 -0.842991 3.85827 9.49457 2.19258
254 3 -0.82662 5.0447 11.7636 2.07477
256 3 -0.76876 8.06346 9.89106 0.934121
355 2 0.152845 3.97001 12.1595 6.43899
258 3 -0.865987 8.77491 7.56565 7.97106
259 3 -0.797741 10.4346 8.83895 6.01584
184 2 0.128672 7.94474 12.724 4.46712
264 3 -0.803673 5.83119 10.0631 3.94114
47 4 1.1595 10.597 6.68839 0.0434474
261 3 -0.85094 2.60329 9.586 8.75571
187 2 0.226898 4.0076 10.6331 0.0741939
12 4 1.06072 9.0246 10.1511 9.91624
43 4 1.28581 4.80101 12.0698 13.4563
53 4 1.24396 7.77535 11.0235 17.0653
55 4 1.43036 3.22572 10.2082 10.075
57 4 1.30037 2.9882 10.8065 15.5506
58 4 1.21569 6.11304 9.68918 11.7228
357 2 0.112381 11.7799 7.86746 15.8742
72 1 -0.69306 4.6168 7.4328 15.7897
84 1 -0.683097 4.13167 10.1518 16.8717
85 1 -0.663146 6.51643 8.17177 12.6883
345 2 0.222127 6.40155 10.4063 15.0004
108 2 0.0822055 3.99948 7.8692 11.5028
346 2 0.147797 6.73748 8.97392 16.3123
336 1 -0.681106 1.84803 12.8258 13.0967
342 2 0.174152 8.32117 7.35035 16.6509
153 2 0.216551 4.2582 8.45993 15.5509
351 2 0.0401143 3.63586 12.5221 12.3133
185 2 0.195648 5.29778 9.97566 16.4941
186 2 0.263159 3.74448 9.18608 17.2867
337 2 0.1978 1.82979 13.1047 14.222
188 2 0.169501 7.70384 8.32249 12.6877
189 2 0.178967 6.19946 7.2065 12.2546
190 2 0.167601 5.96313 8.45358 13.7343
235 3 -0.832455 6.52772 12.751 9.23658
255 3 -0.782734 9.36572 11.4793 16.4698
262 3 -0.827654 4.02137 11.5801 9.67856
356 2 0.217563 2.16581 11.6944 12.9185
267 3 -0.858634 3.9376 11.3727 14.4935
268 3 -0.783414 1.75142 12.0765 16.2976
269 3 -0.758877 7.67566 9.92831 10.7228
270 3 -0.781767 4.61137 9.18048 10.7745
271 3 -0.8007 5.74485 10.8861 12.7046
344 2 0.16261 8.13554 9.56719 15.1378
133 2 0.0133193 10.3257 9.2023 10.6823
311 2 0.157675 10.749 7.55546 13.8109
339 1 -0.628612 12.1603 7.81536 17.0331
275 2 -0.0222461 11.1828 9.43987 16.4225
343 1 -0.665919 7.13362 9.85327 15.7029
322 2 0.237194 8.24034 13.3332 14.6402
152 2 0.13199 5.59218 7.42482 16.3352
173 2 0.156887 9.14143 7.45952 10.8107
257 3 -0.787503 6.60957 12.1444 17.3036
312 2 0.172337 9.09776 6.812 13.302
151 2 0.246051 4.64069 6.83292 14.8475
41 4 1.08652 5.27938 11.8606 8.79775
ITEM: TIMESTEP
100
ITEM: NUMBER OF ATOMS
362
ITEM: BOX BOUNDS xy xz yz pp pp pp
-8.3819999999999997e+00 1.7202700000000000e+01 -8.3819999999999997e+00
0.0000000000000000e+00 1.3699212000000001e+01 3.0499999999999999e-02
0.0000000000000000e+00 1.7586700000000000e+01 3.0875400000000003e-01
ITEM: ATOMS id type q x y z
13 4 1.64995 8.186 0.136235 1.7887
2 4 1.03425 -0.722893 2.73835 5.14182
5 4 1.20076 2.46573 2.39031 6.27651
7 4 0.703975 -0.981419 3.76892 1.91652
14 4 1.49032 4.97276 2.6757 4.3478
23 4 1.0961 2.84384 6.02229 4.18028
59 1 -0.675103 2.39156 0.78352 2.55698
60 1 -0.632507 -1.00442 4.27188 6.33899
61 1 -0.660843 2.25172 3.77984 7.49045
203 3 -0.767283 6.69058 2.70678 5.19611
69 1 -0.641037 0.125054 5.34428 1.47309
87 2 0.0451087 -1.72661 5.36704 1.52284
353 2 0.180797 5.97599 0.643687 7.69523
93 2 0.089703 3.39408 4.51689 3.56573
62 1 -0.680943 -2.37125 6.36356 4.34713
116 2 0.163068 2.54696 1.87496 2.44733
211 3 -0.833009 3.56047 6.60655 5.44528
118 2 0.19233 -1.52216 5.06325 5.61631
119 2 0.155777 0.0163557 4.60057 6.80101
120 2 0.149783 1.19204 4.27928 7.54894
121 2 0.21707 3.16049 4.47168 7.14929
145 2 0.17084 0.369969 6.58173 4.03271
123 2 0.198829 -2.22689 5.34258 3.86749
70 1 -0.689104 0.974713 5.77528 4.53412
3 4 0.929485 3.46297 0.341793 8.41784
143 2 0.0228764 0.740903 3.75925 1.09973
144 2 0.178768 0.48593 5.54813 2.58469
147 2 0.198793 0.796458 4.73893 4.1818
124 2 0.155709 -2.80842 6.28933 5.41192
191 3 -0.731191 0.810276 2.33269 5.4446
192 3 -0.749232 2.68062 0.825506 7.0946
194 3 -0.743118 -0.876633 3.39449 3.48209
199 3 -0.797045 5.02196 1.18304 3.76237
200 3 -0.858351 3.84433 2.76295 5.41575
122 2 0.180865 2.47655 3.10579 8.48906
287 2 0.00168321 -1.51996 5.20743 8.0002
208 3 -0.858502 4.87943 3.87935 3.40442
201 3 -0.849776 7.24709 1.30234 1.24594
350 2 0.00645676 4.40084 5.31163 0.53435
142 2 0.177443 0.628897 6.06103 0.746037
117 2 0.139634 -1.67185 3.48211 7.03457
114 2 0.194348 1.59665 0.554508 3.28907
283 4 0.911663 -3.14057 5.44819 8.54794
146 2 0.191097 0.943478 5.91371 5.63758
115 2 0.190906 2.17688 0.245438 1.54158
95 2 0.0823685 6.0553 3.69567 6.31312
16 4 1.34929 8.4879 0.150008 7.82545
6 4 1.18406 0.371916 1.11191 11.9518
9 4 1.01591 0.795662 4.14118 13.0109
17 4 1.38002 4.98679 2.62075 9.855
20 4 0.974444 5.18145 2.85469 16.3848
24 4 1.07219 3.3888 6.54132 17.1288
27 4 1.0426 5.46531 4.37512 13.6277
28 4 1.21318 0.897374 5.72251 15.7154
205 3 -0.863115 6.05891 3.51375 17.4429
63 1 -0.685299 0.419803 5.45183 11.7016
67 1 -0.668966 3.8053 3.47539 11.1638
68 1 -0.687528 1.07492 1.41714 10.2524
89 2 0.011177 2.48291 4.09259 12.4999
91 2 -0.0422128 3.66452 2.77046 16.977
92 2 0.0896144 5.45024 1.1338 16.3597
97 2 0.0246648 5.41036 3.21608 12.3316
98 2 -0.019372 -0.050739 5.24608 17.1303
99 2 -0.0273385 2.28214 6.06353 11.5594
126 2 0.125151 -0.74591 5.04503 11.6085
127 2 0.121436 0.941289 5.35115 10.6174
348 2 -0.0136885 -3.0164 5.3228 10.2829
136 2 0.125497 3.75524 2.90542 12.2246
137 2 0.151583 2.77589 3.42477 10.7622
138 2 0.165737 4.04695 4.57949 11.1921
139 2 0.139954 0.821978 2.54001 10.1903
140 2 0.144678 0.776126 0.719267 9.39897
141 2 0.178426 2.19473 1.17497 10.59
195 3 -0.810097 0.189893 2.62092 12.638
202 3 -0.869146 4.07013 1.48722 9.28053
297 2 -0.0399349 -2.33156 5.76845 14.7073
206 3 -0.841642 6.35905 2.32376 10.6384
328 2 -0.0030668 3.85427 0.934193 14.1671
213 3 -0.819875 5.3285 3.46313 14.9353
214 3 -0.81284 0.587907 4.64229 14.4859
215 3 -0.803 2.3764 5.55827 16.2572
216 3 -0.842099 4.40768 5.45702 13.2437
29 4 0.945309 3.41452 6.68076 12.6874
207 3 -0.828333 7.82353 0.930827 12.1537
128 2 0.190419 0.48072 6.50912 12.1474
86 2 -0.0205041 -0.7073 1.71368 9.46638
324 2 0.181776 -0.0870414 1.97657 15.2685
327 2 0.180436 4.26656 0.24294 11.7256
151 2 0.265087 4.55055 6.49227 14.9127
135 2 0.211622 6.73782 0.345469 9.37979
210 3 -0.839442 5.30135 3.75225 8.83409
320 2 0.169806 -5.79044 11.809 4.44117
347 2 -0.0201632 -3.60583 12.4662 8.06873
10 4 1.31301 -2.58557 9.01217 1.53404
26 4 1.32567 4.05515 6.96785 6.94359
101 2 -0.00319283 1.04411 9.61998 0.406483
8 4 1.32868 -4.0743 6.67847 3.37051
159 2 0.162942 1.21574 10.2042 2.10854
362 3 -0.87994 0.181937 12.2063 0.705917
31 4 1.33794 -1.24475 11.0267 3.62954
33 4 1.23969 1.73984 8.49651 8.26171
34 4 1.21649 0.847961 10.437 6.1084
64 1 -0.66203 -1.30981 7.99419 0.438266
66 1 -0.684235 -1.70766 13.1005 8.33838
291 2 0.178192 -3.97483 9.66344 5.48593
74 1 -0.677366 1.09251 9.06649 2.32546
100 2 0.0169095 -2.68327 11.4157 4.48669
319 2 0.169244 -4.28895 10.6884 3.90499
30 4 1.22581 2.74576 8.2481 2.05353
318 2 0.156129 -4.15482 11.8834 5.39005
130 2 0.175391 -0.806257 7.01406 0.842111
221 3 -0.776696 2.68763 7.21834 8.05304
134 2 0.150946 -1.92813 11.9983 8.26876
284 4 0.786279 -3.99095 8.4703 7.67603
317 1 -0.644805 -4.63345 11.7204 4.32925
157 2 0.200094 0.827599 8.82923 3.4256
158 2 0.185733 0.221321 8.62284 1.64847
196 3 -0.799436 -3.45528 7.9666 2.33363
197 3 -0.871146 -3.50542 9.92764 0.444296
198 3 -0.840159 -3.7717 12.3301 1.79195
1 4 1.1968 -4.25796 13.1566 3.00665
217 3 -0.851197 2.90337 6.9941 2.98003
218 3 -0.792366 2.79537 7.46229 0.312796
219 3 -0.838833 -1.64804 9.9765 2.51113
220 3 -0.825557 -0.749964 12.3972 3.09738
293 2 0.108229 -3.15904 10.2631 8.76424
222 3 -0.802837 -0.248048 10.4571 4.74163
223 3 -0.809537 0.798291 9.01847 7.13287
224 3 -0.758166 0.531602 11.9225 7.03279
285 1 -0.669657 -3.31156 9.01938 6.07456
289 2 0.182061 -2.89833 8.00484 5.41038
11 4 1.43013 -3.80033 11.5068 0.402141
290 2 0.147851 -2.43691 9.62665 6.54542
131 2 0.188078 -0.51358 8.73142 0.021359
125 2 0.183186 -1.58066 7.10952 4.156
295 3 -0.79685 -3.62433 6.89474 8.09548
288 2 0.0526494 -5.56263 9.15726 8.48746
19 4 1.30935 -0.13948 12.7063 13.0293
32 4 1.26032 0.50687 11.3795 17.2307
35 4 1.47413 1.42934 8.25966 14.2519
36 4 1.2685 -1.83056 11.9051 15.4771
37 4 1.31069 0.555139 9.89826 11.7208
75 1 -0.659559 -0.705855 9.23744 10.4343
65 1 -0.640939 -6.59921 11.1478 10.7061
102 2 -0.00521737 0.581126 8.08651 9.53399
103 2 -0.0130698 -2.83176 10.9243 14.4453
286 1 -0.656539 -4.04249 9.62278 9.33462
160 2 0.143894 -0.796458 8.05541 10.5943
161 2 0.169434 -0.342468 9.48395 9.41162
162 2 0.177596 -1.70762 9.7986 10.6593
225 3 -0.769408 0.457154 7.25255 15.4472
226 3 -0.870371 2.64238 7.40673 13.751
227 3 -0.810139 -0.81058 10.9655 16.2996
228 3 -0.807932 -1.0077 12.8576 14.6
229 3 -0.809918 -2.76073 12.6547 16.58
230 3 -0.827515 0.583283 8.73928 12.8809
231 3 -0.815156 -0.23862 11.3671 12.2885
129 2 0.170942 -2.00931 8.12048 17.1664
299 2 0.00758212 -3.39074 7.27357 15.8846
272 4 1.02827 -5.61908 12.6969 13.7424
273 4 1.22841 -6.19488 11.2977 16.3672
274 2 0.177472 -3.11851 13.0688 13.3496
132 2 0.137644 -5.53747 11.2962 10.31
277 3 -0.826005 -5.36802 12.0014 17.4969
278 3 -0.845532 -5.6485 11.5975 14.8786
326 2 0.123212 -4.14071 11.5478 12.4892
266 3 -0.817423 2.09055 9.45354 15.1675
292 2 0.147584 -4.53634 10.363 10.089
294 2 0.15672 -3.60055 8.75656 9.95136
352 2 0.21761 -6.75114 11.4048 11.7823
263 3 -0.858928 1.98541 10.1133 11.0991
349 2 0.00480771 -6.05111 12.4762 9.34603
325 1 -0.669937 -4.04033 12.8448 12.7272
276 3 -0.778514 -6.86121 13.2282 12.8306
359 2 0.233518 -4.54527 8.83928 17.2695
275 2 0.00876006 -5.8929 9.63535 16.7805
15 4 1.5071 7.30663 2.8865 0.738902
18 4 1.26783 8.3324 2.70125 5.74224
22 4 1.28754 6.50952 4.90391 2.95202
330 2 0.164991 14.8707 1.66939 2.4018
39 4 1.43085 10.2882 2.02279 3.19402
45 4 1.50974 12.025 4.26405 1.67732
354 2 0.153696 14.0037 2.22542 5.64409
48 4 1.03883 12.2969 3.06475 7.62658
329 1 -0.660234 15.5045 0.755487 1.95083
71 1 -0.677873 5.87068 6.14013 1.62712
76 1 -0.690878 15.0051 1.52878 5.55806
77 1 -0.674525 11.7823 0.956935 3.80406
80 1 -0.653296 12.4161 3.43079 5.76477
94 2 0.0310005 8.63727 4.15536 6.41478
331 2 0.149525 16.368 0.964263 1.23944
106 2 0.000962823 13.1914 1.56918 7.65217
212 3 -0.859003 4.98703 5.88176 7.52181
335 2 0.152965 13.6009 0.395047 6.45519
150 2 0.178524 6.04432 5.72606 0.58886
163 2 0.144057 15.2585 0.860103 6.45177
164 2 0.14967 15.0718 1.00322 4.55321
165 2 0.182377 12.6632 1.60334 3.67712
167 2 0.158095 11.4072 0.758991 4.88464
174 2 0.165517 11.3972 4.14025 5.82972
175 2 0.171855 12.1999 2.47677 5.09809
176 2 0.182777 13.3188 4.06895 5.4287
204 3 -0.788005 8.41801 1.48613 6.74481
209 3 -0.772028 7.53455 4.02574 2.0388
232 3 -0.823361 9.48864 0.983587 2.28928
233 3 -0.794448 9.41191 2.52858 4.54235
234 3 -0.816705 12.8823 0.912566 0.527663
248 3 -0.855726 7.39452 5.03513 8.05246
241 3 -0.821156 11.149 3.20576 2.48921
242 3 -0.856672 13.2334 3.43623 0.707881
243 3 -0.831837 12.8144 5.2871 2.68458
244 3 -0.85803 6.97124 5.79545 4.20681
245 3 -0.787622 11.1129 5.33298 0.682718
246 3 -0.833887 10.9569 2.77082 8.36746
247 3 -0.846801 13.3657 4.14915 8.10712
334 2 0.184085 12.0769 0.234461 7.75419
149 2 0.182573 4.75383 6.15068 2.00144
49 4 1.03155 8.32674 6.27778 8.6717
25 4 1.33415 5.94382 4.65757 7.73055
250 3 -0.797223 9.42438 6.50244 5.10382
88 2 -0.00557124 15.602 2.45423 0.938532
109 2 -0.0206297 11.3935 6.43577 6.76599
4 4 1.23739 15.2401 0.668107 10.1638
21 4 1.28759 7.7991 2.2782 11.3328
323 2 0.184032 16.0759 0.856287 16.4856
42 4 1.41392 10.1538 1.8404 9.64749
44 4 1.04353 12.7659 2.36785 11.0631
73 1 -0.671337 7.2521 5.11913 13.575
79 1 -0.670079 8.72232 6.32992 10.5387
338 2 0.230787 10.4564 0.665628 12.3978
96 2 -0.00147104 7.76102 3.58036 12.4715
104 2 0.0684909 12.5155 4.29091 10.3828
110 2 0.0241789 13.0235 2.88043 12.8549
341 2 0.172419 9.50914 6.608 15.2812
154 2 0.127753 7.27175 5.31365 12.3849
155 2 0.258201 8.27386 4.65775 13.9976
156 2 0.175717 6.97986 6.1004 14.0584
171 2 0.173537 8.88464 5.31328 11.0017
360 2 0.270656 8.95238 5.49283 16.8344
193 3 -0.745532 16.0702 0.248276 11.5106
237 3 -0.842476 8.98995 2.75982 10.4357
238 3 -0.811519 8.6718 3.54655 17.2625
239 3 -0.861317 14.0043 1.60424 10.5382
240 3 -0.821392 11.3634 1.65654 10.9656
279 4 1.10232 14.5694 1.4994 14.8548
340 1 -0.643611 9.19916 6.54455 16.4373
281 3 -0.830719 13.8739 2.50102 15.8452
40 4 1.46527 12.7132 2.50841 17.3458
304 1 -0.662244 10.1242 6.64254 13.3333
300 4 1.29354 9.69201 3.04184 16.1809
301 4 1.0391 10.8839 4.97864 13.828
302 1 -0.645163 9.02692 1.44369 15.5409
303 1 -0.667873 13.3277 4.32081 11.734
358 2 0.042728 13.1955 6.39945 17.2153
306 2 0.188093 9.00733 1.64301 14.3884
280 2 0.0678199 15.6868 2.20631 13.7507
308 2 0.157867 13.1914 5.21624 12.439
313 2 0.116973 10.7396 6.68557 12.2858
310 2 -0.00569778 11.4041 4.18031 12.3654
314 3 -0.808397 11.2114 2.74123 16.6663
315 3 -0.792993 9.82001 4.11489 14.4917
316 3 -0.79941 12.1815 5.30931 14.7438
107 2 0.0108408 9.89385 5.6641 9.1122
312 2 0.184408 9.03114 6.70836 13.182
305 2 0.285203 9.49742 0.344105 15.895
309 2 0.144113 14.3868 4.23176 11.5347
321 1 -0.672374 16.3751 1.13716 15.2953
236 3 -0.816098 9.51986 0.472984 9.01478
298 2 0.0683608 14.2668 4.12608 16.0884
296 4 0.684596 13.4193 5.54951 15.6021
307 2 0.1895 7.9327 1.60838 16.0931
337 2 0.201617 10.4115 0.306958 14.2881
38 4 1.30691 5.78808 12.8829 0.957222
181 2 0.164505 3.35991 10.172 6.32884
260 3 -0.819075 9.18089 10.1817 8.27137
50 4 1.22892 10.793 7.33675 5.51935
51 4 1.37294 8.87646 8.73241 1.87324
52 4 1.26116 4.69372 10.6448 2.92323
54 4 1.40893 8.91069 9.06688 7.05755
56 4 0.950037 6.74805 10.7781 5.04702
78 1 -0.673384 5.07548 8.65955 7.05257
81 1 -0.654122 10.1938 9.94211 2.56335
82 1 -0.68862 2.64379 10.5364 5.50048
83 1 -0.675531 8.22266 11.5499 4.31173
105 2 0.092835 7.16655 7.98083 5.4893
111 2 -0.0110341 3.45536 11.3443 3.88626
112 2 -0.0288478 5.84587 11.9993 5.98657
113 2 0.0183429 5.63262 10.2711 7.92033
148 2 0.216307 6.38554 7.16942 1.67871
187 2 0.216349 3.82013 10.7721 0.226757
265 3 -0.802741 7.60422 9.41374 6.2116
332 2 0.177554 7.35878 13.058 2.7273
169 2 0.168048 4.2995 9.53615 7.1807
170 2 0.174444 5.4039 8.58371 5.94047
177 2 0.20249 10.478 9.78961 3.66944
168 2 0.228893 5.91207 8.68096 7.73071
179 2 0.149953 2.61141 11.7244 5.31924
46 4 1.26699 7.98724 7.01963 4.4051
180 2 0.165682 2.70313 9.84735 4.61924
182 2 0.188062 8.12132 11.2219 3.13
183 2 0.18333 9.10939 11.0467 4.83692
333 1 -0.701223 4.45294 12.8166 7.09437
249 3 -0.821297 11.921 7.1299 4.36966
251 3 -0.845455 8.23906 7.9341 3.02485
252 3 -0.786856 9.83801 7.76613 0.832649
253 3 -0.821547 3.93133 9.44422 2.26997
254 3 -0.835471 5.16795 11.8934 1.98874
256 3 -0.816912 7.99808 9.68772 0.904596
355 2 0.160767 3.95706 12.0395 6.47027
258 3 -0.834589 8.56218 7.67291 7.89227
259 3 -0.844421 10.3603 8.76531 6.03339
184 2 0.151832 8.10274 12.6332 4.56393
264 3 -0.830969 5.84316 10.268 3.88796
361 2 0.171696 9.76029 11.0084 2.33868
41 4 1.07305 5.22332 11.9078 8.65684
166 2 0.1969 3.55766 13.1521 3.16741
261 3 -0.802586 2.8102 9.61315 8.77396
178 2 0.195675 11.0271 9.5691 1.81974
12 4 1.02659 9.00739 10.3277 9.82261
43 4 1.34749 4.85413 12.1542 13.5059
53 4 1.29831 7.93034 11.0369 17.2506
55 4 1.40564 3.4125 10.1797 10.2171
57 4 1.30624 3.01256 10.7755 15.5563
58 4 1.21079 6.18704 9.69326 11.6886
357 2 0.113841 11.6934 8.06441 15.7101
72 1 -0.664638 4.68357 7.08563 15.8768
84 1 -0.676787 4.05418 10.2537 17.0579
85 1 -0.676575 6.49548 8.33805 12.9456
345 2 0.196558 6.21205 10.5998 15.3534
108 2 0.0803506 4.12636 7.89791 11.6732
346 2 0.163699 6.71406 9.15233 16.4677
336 1 -0.676096 1.77236 13.0316 13.2319
342 2 0.189765 8.40211 7.28809 16.7765
153 2 0.17771 4.59144 8.23061 15.6884
351 2 0.0479889 3.63597 12.8052 12.572
185 2 0.183072 5.18885 10.1458 16.7046
186 2 0.26075 3.58276 9.2439 17.3848
257 3 -0.798179 6.82214 12.3644 17.5769
188 2 0.164836 7.66619 8.36989 12.9829
189 2 0.158892 6.03355 7.39095 12.5676
190 2 0.17162 5.99064 8.74769 13.9172
235 3 -0.841255 6.52244 12.5931 9.17288
255 3 -0.820693 9.36375 11.433 16.5972
262 3 -0.795905 4.1486 11.6149 9.82945
356 2 0.186915 2.03534 11.8946 12.9623
267 3 -0.882192 3.92632 11.4656 14.5351
268 3 -0.79159 1.76851 11.9085 16.2819
269 3 -0.747863 7.53112 9.88923 10.6852
270 3 -0.780777 4.73104 9.061 10.7485
271 3 -0.787117 5.64665 11.0606 12.6715
344 2 0.168432 7.97836 9.75145 15.118
133 2 0.0446109 10.5023 9.41754 10.6306
311 2 0.143913 10.5436 7.38081 14.1311
339 1 -0.650367 12.2576 7.89535 16.7803
47 4 1.15906 10.7363 7.01058 17.5556
343 1 -0.654847 7.08274 10.0113 15.8583
322 2 0.227152 8.39982 13.375 14.7508
90 2 0.0826867 9.38614 12.1764 9.94943
173 2 0.158401 9.50872 7.00481 10.8985
172 2 0.129965 7.45825 6.78937 10.678
282 3 -0.847723 5.54485 13.371 14.1928
152 2 0.135244 5.66275 6.86446 16.4639
ITEM: TIMESTEP
200
ITEM: NUMBER OF ATOMS
362
ITEM: BOX BOUNDS xy xz yz pp pp pp
-8.3819999999999997e+00 1.7202700000000000e+01 -8.3819999999999997e+00
0.0000000000000000e+00 1.3967824000000000e+01 3.0499999999999999e-02
0.0000000000000000e+00 1.7586700000000000e+01 3.1480800000000003e-01
ITEM: ATOMS id type q x y z
149 2 0.171096 4.68912 6.17955 1.97197
2 4 1.0202 -0.660156 2.77077 5.14533
5 4 1.21469 2.50516 2.28854 6.28684
7 4 0.691784 -1.00468 3.69133 1.91301
14 4 1.49875 5.02188 2.49443 4.41322
23 4 1.04921 2.89079 6.03147 4.23867
59 1 -0.63445 2.43269 0.65422 2.63464
60 1 -0.646824 -0.970003 4.26841 6.33749
61 1 -0.661716 2.15217 3.61125 7.57179
203 3 -0.798734 6.77172 2.79053 5.24489
69 1 -0.625587 0.00382667 5.31679 1.4482
87 2 0.0590289 -1.72349 5.31123 1.4488
353 2 0.185535 6.19207 0.773628 7.68284
93 2 0.0946843 3.8798 4.67203 3.79104
62 1 -0.675171 -2.75753 6.42408 4.68169
116 2 0.180549 1.83112 1.63581 2.79008
211 3 -0.776941 3.61654 6.41456 5.61514