ITEM: TIMESTEP
0
ITEM: NUMBER OF ATOMS
365
ITEM: BOX BOUNDS xy xz yz pp pp pp
-5.4214967632650870e+00 1.7655595785470826e+01 -6.2984085999374955e+00
2.2801361211990781e-01 1.4716444095915433e+01 9.1810762214320507e-01
-1.1415923741646239e-02 1.7475615923741696e+01 -3.9342291964563701e-02
ITEM: ATOMS id type x y z
68 1 -0.924255 5.60841 4.28911
8 4 0.0177998 4.07078 1.15888
107 3 0.683401 4.82926 6.68417
4 4 0.352113 4.61964 5.14524
10 4 1.33667 4.47707 8.24601
105 3 0.706553 2.78023 0.682379
102 3 1.83115 0.501123 1.871
120 3 1.53943 4.43801 4.18018
206 2 1.12269 5.51012 1.11769
260 2 1.17339 7.32458 0.339206
2 4 1.53878 1.44996 0.406842
34 4 4.57204 7.39131 6.1844
200 2 0.33152 6.89746 7.45234
119 3 2.25758 1.74385 4.19474
204 2 7.39968 3.41936 4.74519
252 2 2.70901 5.61948 3.03501
253 2 4.05323 6.70864 2.30424
254 2 2.41333 6.61529 1.37881
190 2 4.23441 1.8152 8.3477
21 4 2.83608 3.28516 4.26932
29 4 4.90223 3.89688 1.75414
78 1 2.9449 6.53797 2.43222
79 1 3.84373 4.56624 0.364988
123 3 3.7323 3.54998 5.61808
129 3 3.91658 3.46134 2.978
136 3 4.95605 6.05874 7.96625
25 4 5.28304 4.01849 5.85813
130 3 5.79304 2.84668 0.921214
133 3 5.68011 3.42985 7.71946
164 3 5.89151 5.15014 2.38615
247 2 5.81736 2.43704 4.2441
165 3 5.72971 5.7714 5.34965
257 2 3.97757 5.66117 0.389351
255 2 2.80331 4.23452 0.82291
328 2 4.79292 1.06211 3.05993
76 1 6.4898 2.85283 5.14113
1 4 2.489 0.361398 3.30542
246 2 6.74143 2.09696 5.95348
288 2 7.0754 2.6423 7.76381
121 3 7.53176 0.837285 1.00506
20 4 8.64184 0.498208 2.05006
106 3 1.85718 2.96682 8.50004
345 2 1.55147 0.374717 7.93181
11 4 -0.634511 7.47104 4.04744
271 2 -1.10324 6.55722 7.54261
33 4 3.65383 6.56204 8.7234
22 4 6.49562 1.55188 0.00259823
134 3 2.28612 5.67934 8.68466
168 3 7.18676 4.96687 9.29287
71 1 -0.04449 4.77722 9.53537
259 2 3.21055 5.76091 17.356
12 4 0.888474 3.69221 13.5254
111 3 0.893807 4.97042 12.6086
110 3 0.998401 2.16238 12.8519
13 4 0.999009 6.41735 12.1117
227 2 1.47472 4.15075 15.7802
196 2 0.801698 6.38568 10.4202
261 2 1.53233 5.9783 16.5364
69 1 2.12164 4.02981 14.8413
103 3 1.93173 1.07518 10.7087
228 2 2.69635 5.04001 14.5427
35 4 5.10014 7.31175 11.4452
173 3 5.61578 7.07047 16.2419
155 3 8.26553 2.09796 10.1823
207 2 0.290749 4.67031 10.5995
128 3 7.29214 0.535241 12.2249
3 4 2.33435 1.51457 9.02092
7 4 2.27384 1.34641 12.2608
160 3 3.96686 0.872865 8.9169
80 1 2.39219 6.5593 16.9901
159 3 8.3322 2.17879 16.0841
208 2 2.58932 7.01921 12.4703
256 2 5.00279 3.94288 16.7682
229 2 2.77881 3.10597 14.958
24 4 4.93129 2.64091 11.2174
27 4 4.95129 1.36619 15.9024
82 1 4.16953 5.80474 12.3344
122 3 3.79331 2.49115 12.2369
124 3 4.34588 0.322951 14.7733
126 3 3.79482 1.72172 17.0046
132 3 4.73019 3.87275 10.1248
203 2 4.95178 1.27597 10.1468
251 2 4.50486 3.71758 15.0624
264 2 4.96446 5.02536 12.1553
265 2 3.2218 5.48543 11.7561
77 1 5.36761 3.00369 15.0398
249 2 5.57517 2.69133 13.9545
294 2 5.7595 5.31606 14.279
137 3 4.1507 7.18473 10.1601
263 2 4.01045 6.13648 13.4081
232 2 -0.447909 5.8686 9.2895
250 2 6.31289 3.39907 15.5252
28 4 7.82422 1.95594 11.7187
125 3 6.33879 0.573791 16.7808
127 3 6.44501 2.80934 11.8244
93 1 6.87574 5.45959 14.3139
296 2 7.42682 4.44425 14.3663
32 4 5.6966 4.39315 8.91361
66 1 -1.90293 9.39366 0.172781
135 3 3.52217 7.6097 5.0805
131 3 0.913107 7.74141 3.95533
75 1 2.61497 12.7501 8.41853
108 3 -1.37817 7.9792 2.58429
9 4 -2.38378 8.53159 1.5248
15 4 -0.467924 9.11268 6.62623
17 4 -0.624758 12.4655 6.42197
72 1 -0.231198 13.4276 7.92485
113 3 -1.07854 8.3036 5.31782
115 3 -0.635212 10.6348 6.92671
356 2 -0.00649613 12.5906 8.67543
114 3 -2.17791 12.8217 6.11495
230 2 -1.20319 8.25761 8.44936
14 4 -3.76806 13.0597 5.89579
70 1 0.197074 7.91828 8.03861
143 3 3.41485 8.3296 7.72992
324 2 -3.48096 13.4932 0.5386
236 2 0.694974 14.0441 7.64714
37 4 1.65284 12.7002 3.96651
141 3 0.49367 12.705 5.13028
209 2 1.14693 11.6489 2.69043
140 3 2.00704 14.1247 3.33928
234 2 1.26402 8.70143 6.64907
245 2 2.12349 12.4572 7.32275
235 2 -1.06757 14.1064 8.26485
327 1 -2.00721 14.5755 2.73415
142 3 2.81152 11.3942 0.815196
357 2 -2.95264 11.6849 0.800422
139 3 3.1677 8.91551 0.286229
112 3 -4.30407 13.3413 4.36932
349 2 -1.58164 13.5947 3.18419
145 3 2.92587 11.9552 4.56466
146 3 4.0321 11.0386 6.83292
30 4 2.51006 7.96892 3.65773
36 4 3.32618 9.90848 1.48313
39 4 4.82831 9.82136 7.35778
138 3 2.88187 9.24362 2.81052
329 2 -2.20604 14.5418 1.62322
342 2 -1.30558 10.3394 0.52212
148 3 4.93464 8.62931 12.3319
325 2 -1.22144 12.7651 16.824
41 4 4.86554 9.79098 13.407
222 2 -0.456521 8.4549 16.968
104 3 -3.88822 14.3139 13.023
5 4 -2.56991 13.8013 13.7269
358 2 -0.243259 13.2105 11.379
334 2 -1.48071 13.5796 12.4409
323 3 -2.80648 12.2917 14.7669
333 1 -0.691654 12.1603 11.3509
18 4 -1.3143 8.52379 13.0169
149 3 -0.813292 10.1947 13.3972
213 2 -1.87435 12.1407 11.1734
211 2 -0.0725144 11.412 10.6352
299 2 1.0053 8.13649 8.84198
364 2 -2.28436 10.0459 16.6673
320 4 -3.11552 11.6091 16.201
326 2 -1.60777 10.7928 10.1791
243 2 1.82055 13.0671 9.18097
335 2 1.47004 10.4376 12.1786
42 4 0.198833 11.3044 12.8869
150 3 0.821765 12.5214 13.772
268 2 1.68119 11.2109 10.3796
26 4 2.01934 13.8891 13.1167
359 2 1.57943 12.6292 15.3934
341 2 1.40962 12.4555 17.2785
81 1 2.10983 12.7013 16.4084
152 3 2.95643 13.3738 11.9426
151 3 3.68303 10.8491 13.0543
157 3 2.8005 14.6505 14.3399
266 2 2.51867 9.68691 11.0341
83 1 2.62167 10.6342 10.5279
212 2 2.39283 10.7943 15.9768
262 2 2.75525 13.7524 16.4856
38 4 3.6516 11.7017 16.7638
31 4 4.18376 7.91828 16.4951
210 2 4.41037 8.87481 14.9573
267 2 3.2562 10.5806 9.60134
43 4 3.64167 11.8679 11.7588
244 2 3.18592 11.798 8.79988
258 2 2.66681 7.62851 15.4975
116 3 0.0880259 7.53864 12.7111
321 1 -2.15827 12.537 17.4701
52 4 6.7683 5.99121 3.56171
171 3 8.38301 5.47402 4.06903
248 2 8.32893 4.83418 3.34214
282 2 7.97784 4.8866 1.14079
360 2 9.17336 2.16338 2.54114
276 2 9.22375 4.3115 7.73094
290 2 9.41958 6.60498 5.41199
154 3 9.31755 1.02456 7.93732
84 1 13.8194 0.577507 2.40375
286 2 16.4977 0.64519 6.19103
277 2 10.7422 3.23674 8.14177
87 1 9.74247 3.70117 8.5307
242 2 11.7619 1.75856 7.74134
225 2 14.1014 5.60724 5.06689
54 4 11.1291 6.31453 5.08025
167 3 12.1317 6.26357 6.3609
214 2 11.6027 6.14385 2.35652
289 2 11.0494 4.62893 3.87295
339 3 11.4251 1.97805 2.5218
336 1 10.6886 1.55039 1.65028
166 3 10.4396 6.69946 0.333908
233 2 13.3039 4.34064 8.0898
192 2 13.6983 2.02097 3.78787
67 1 14.0786 3.71761 1.81704
354 2 13.3277 4.33876 2.3617
191 2 14.9358 3.39179 4.91983
47 4 13.0809 6.04228 7.70695
183 3 13.607 2.62979 4.63003
220 2 12.9189 3.20929 4.40206
226 2 14.5719 4.91337 3.31477
74 1 12.6713 2.49265 7.73711
287 2 13.0186 5.82602 3.63848
91 1 11.8908 5.85936 3.44052
285 2 14.5653 0.526501 5.55658
90 1 15.2195 0.961777 6.46602
219 2 15.1684 2.09897 6.48569
241 2 13.6563 1.86606 7.26024
337 2 12.4735 3.3444 7.06256
269 2 13.2783 0.576723 1.33764
223 2 13.6337 2.68896 1.4984
362 2 15.5282 0.770864 2.54649
46 4 8.5107 2.31006 8.65573
353 2 14.2857 4.47556 0.274932
89 1 7.97536 4.81374 0.0221941
361 2 13.1365 0.428979 3.33195
311 2 14.3573 0.408586 7.98203
351 2 15.362 3.51552 2.92586
175 3 6.97774 7.45222 3.09408
295 2 7.89473 5.73347 16.966
194 2 8.71748 3.74454 17.0835
205 2 9.00805 2.72184 12.7433
216 2 7.24106 6.03082 13.4344
174 3 9.40643 6.32589 10.4831
55 4 7.66587 6.37876 10.0556
51 4 10.6712 5.18145 17.1895
49 4 9.64722 1.58436 15.3786
57 4 7.001 6.73423 15.6646
274 2 9.44925 3.5927 14.1178
278 2 9.83628 4.25297 9.52202
283 2 9.63876 5.56377 15.8382
239 2 12.8132 7.3835 14.1051
169 3 6.70937 6.85234 11.1733
195 2 15.1153 3.95579 9.21249
350 2 16.0524 0.396329 17.1419
45 4 11.8709 2.2645 17.2538
86 1 10.3351 2.88741 14.1826
58 4 10.1035 7.02027 11.688
284 2 10.8619 6.0075 13.6775
201 2 11.7457 5.9065 9.56565
94 1 12.3246 6.91502 9.12182
273 2 11.2987 3.39143 14.6488
302 2 12.1629 6.64285 11.8173
300 2 10.884 4.82469 12.077
95 1 11.0398 5.85411 12.5289
275 2 10.9562 3.01655 10.0831
158 3 10.9642 1.24427 16.4075
50 4 11.5923 2.22341 12.7515
88 1 11.5523 2.54318 10.8997
280 2 10.303 1.52149 11.5577
162 3 11.3174 3.7242 17.2041
156 3 14.704 0.674225 14.961
332 2 16.0266 2.1637 16.7903
330 1 17.1179 0.496097 16.7157
109 3 14.9345 3.63449 14.6316
279 2 14.3314 3.11783 13.9097
301 2 12.4608 3.67976 11.6085
153 3 13.3924 2.18046 16.889
6 4 14.5602 2.0446 15.8444
281 2 12.3186 1.81362 10.4819
161 3 12.6697 1.1414 13.2438
231 2 13.2757 7.22276 9.72642
238 2 14.3028 7.03255 15.1349
193 2 17.1446 1.06366 15.686
240 2 12.9003 2.8038 8.80117
181 3 5.81411 10.2697 8.65421
170 3 9.5648 10.3204 8.41945
23 4 3.68173 14.109 7.696
147 3 4.50052 13.7196 6.43633
40 4 4.20679 12.1588 5.51119
144 3 5.65342 8.88225 6.33433
178 3 5.63842 11.8927 4.76492
217 2 5.06814 10.0833 1.66887
53 4 10.5327 8.21025 0.937716
215 2 8.07832 7.81382 7.91682
172 3 9.15489 7.73413 6.49713
63 4 8.99609 13.4648 7.10843
60 4 7.25235 11.7874 4.87547
98 1 8.47881 9.82045 4.02662
177 3 7.86302 12.6038 3.58513
44 4 8.3524 13.4793 2.33791
184 3 8.08239 12.4395 6.24532
180 3 8.29206 12.9037 0.872718
59 4 7.86299 8.73607 2.53499
179 3 6.59847 9.94195 1.62859
308 2 7.55484 9.97029 4.83117
363 2 6.83476 10.7092 2.29651
352 2 8.74801 10.751 8.02272
163 3 11.8596 8.59232 1.76002
291 2 8.35379 8.17867 5.94041
310 2 8.90895 10.7719 3.50802
309 2 9.30136 9.12233 4.35305
176 3 9.21204 8.50829 1.79797
355 2 11.4401 7.63359 3.91511
96 1 11.7672 9.70865 6.18375
56 4 9.88952 9.52998 6.85154
306 2 12.1383 8.81135 6.7454
305 2 11.7491 9.59757 5.04281
303 2 10.2379 10.7561 5.58389
97 1 11.0012 13.1768 7.11542
307 2 11.1215 12.2258 7.82256
293 2 6.32133 7.58373 8.38899
338 2 3.86789 14.3069 1.20285
304 2 12.2618 10.7543 6.49247
343 2 11.6104 7.76692 8.72877
322 1 10.7258 8.6593 15.3008
298 2 7.33354 14.002 10.194
48 4 7.47224 14.5404 13.8402
118 3 13.5566 8.62383 11.6751
92 1 7.37524 7.82418 8.77385
202 2 4.26787 13.4237 9.19746
62 4 6.06762 11.3433 9.69119
182 3 4.99253 12.0317 10.7389
189 3 5.00112 11.8856 15.8684
272 2 9.1542 13.1148 9.00714
186 3 9.5409 7.90571 12.8665
270 2 8.21311 12.7938 11.3267
292 2 7.49119 8.82464 9.40679
218 2 7.31561 12.5715 9.2104
85 1 8.34564 13.5883 10.5464
344 2 8.42215 14.097 12.4529
312 2 7.06959 9.62078 11.0239
61 4 9.55899 11.8907 17.0467
65 4 6.28242 11.8035 14.9456
187 3 6.24886 10.5883 13.7284
188 3 6.77679 13.2711 14.4007
99 1 7.49031 10.5254 10.5408
101 1 7.77326 11.2165 16.1154
313 2 7.83291 11.2253 11.3124
317 2 8.82479 12.6495 15.6231
318 2 8.06946 10.1621 15.82
319 2 7.04602 11.1868 17.0612
185 3 8.00955 7.89566 15.08
64 4 9.19286 8.70583 14.2398
314 2 9.21429 10.2761 12.2246
315 2 8.87612 10.4747 13.9639
198 2 8.40075 10.3091 9.70116
224 2 9.03066 14.4502 10.8233
297 2 12.6526 9.06216 9.23672
237 2 13.383 8.71519 15.261
221 2 10.0623 7.99962 16.1631
331 2 11.447 14.002 16.6293
199 2 9.68871 12.1011 10.3558
316 2 10.3719 12.4413 13.5615
100 1 10.3142 11.2608 13.3651
340 3 11.2343 11.7064 16.585
348 2 11.8166 8.29021 15.1651
16 4 10.5799 11.3133 11.6566
347 2 11.3514 9.20782 17.0831
117 3 11.8216 10.5441 11.1926
346 2 10.6683 9.8433 15.4888
197 2 11.2645 10.7415 13.7957
19 4 13.0189 9.71904 10.7267
365 2 8.94823 10.2532 17.3827
73 1 13.713 7.82381 14.6
ITEM: TIMESTEP
100
ITEM: NUMBER OF ATOMS
365
ITEM: BOX BOUNDS xy xz yz pp pp pp
-5.4214967632650870e+00 1.7655595785470826e+01 -6.2984085999374955e+00
2.2801361211990781e-01 1.4716444095915433e+01 9.1810762214320507e-01
-1.1415923741646239e-02 1.7475615923741696e+01 -3.9342291964563701e-02
ITEM: ATOMS id type x y z
68 1 -0.891185 5.7723 4.42276
8 4 0.0161451 4.11572 1.27241
107 3 0.577583 4.72759 6.71331
4 4 0.438045 4.66623 5.13857
10 4 1.20176 4.52028 8.25792
105 3 0.648019 2.86622 0.682808
102 3 1.78131 0.377842 1.74437
120 3 1.58302 4.35959 4.11815
206 2 0.953619 5.56566 1.38276
271 2 -0.989596 6.63698 7.48186
2 4 1.47446 1.53366 0.362359
34 4 4.66133 7.42752 5.94887
200 2 0.401366 6.978 7.3757
119 3 2.40961 1.62771 4.25001
204 2 7.48592 3.38329 4.84396
252 2 2.42967 5.69024 3.27126
253 2 4.07023 6.41217 2.58332
254 2 2.45559 6.54587 1.52503
190 2 4.2873 1.91237 8.29204
21 4 2.96397 3.16972 4.18675
29 4 4.99964 3.79941 1.75067
78 1 2.94024 6.47009 2.61717
79 1 3.91843 4.49965 0.378894
123 3 3.86645 3.49687 5.47417
129 3 3.90298 3.30534 2.81159
136 3 4.74719 6.06914 7.77358
25 4 5.32963 3.87383 5.92681
130 3 5.86386 2.58586 1.1604
133 3 5.79739 3.35842 7.75458
164 3 5.95574 5.05721 2.58994
247 2 5.94539 2.60934 4.01732
165 3 5.74287 5.78893 5.37173
257 2 4.21796 5.62996 0.453058
255 2 2.85521 4.2708 0.734347
328 2 4.72631 1.02268 3.05939
76 1 6.51048 2.85641 4.96439
1 4 2.45548 0.318992 3.21849
246 2 6.57315 1.91191 5.69749
288 2 7.32641 2.74065 7.79517
121 3 7.59397 0.632603 0.847086
20 4 8.5624 0.595571 2.06035
106 3 1.73496 2.91598 8.53005
22 4 6.51094 1.54216 0.00882936
134 3 2.33308 5.67999 8.64527
260 2 1.25275 7.19295 0.478152
33 4 3.6693 6.7183 8.67345
258 2 2.58075 7.40496 15.5013
71 1 -0.1358 4.79053 9.57251
259 2 3.29665 5.70632 17.4471
12 4 0.77281 3.65711 13.6791
111 3 0.777431 5.07733 12.9629
110 3 1.11143 2.32914 12.88
13 4 0.933988 6.40253 12.1308
227 2 1.72225 3.45684 15.858
196 2 0.992634 6.1257 10.4728
261 2 1.62966 6.03865 16.5587
69 1 2.17297 3.7393 14.8413
103 3 2.21708 1.2733 10.6149
228 2 2.45482 4.87515 14.7466
35 4 5.06456 7.30905 11.4616
173 3 5.46406 7.0091 16.1006
155 3 8.16715 2.07257 10.2167
207 2 0.113056 4.56101 10.6395
128 3 7.22911 0.501775 12.2055
3 4 2.40215 1.47266 9.02935
7 4 2.33576 1.43873 12.2108
160 3 4.25006 1.0804 8.82261
80 1 2.49031 6.47164 17.1501
159 3 8.15807 2.46676 16.3325
208 2 2.50543 6.9432 12.4372
256 2 5.06125 3.913 16.7934
229 2 3.04713 3.10336 14.4949
24 4 4.81589 2.65892 11.1939
27 4 4.8388 1.30877 15.9178
82 1 4.25761 5.93403 12.6453
122 3 3.56808 2.38187 12.2954
124 3 4.20749 0.326407 14.8686
126 3 3.76146 1.74962 17.0382
132 3 4.76383 3.95724 10.0618
203 2 4.7584 1.16385 10.2814
251 2 4.57676 3.81086 15.1445
264 2 5.17017 5.21191 12.8205
265 2 3.50616 5.58386 11.9028
77 1 5.35542 2.94543 15.0434
249 2 5.41835 2.65902 13.9493
294 2 5.733 5.17269 14.1352
137 3 4.07921 7.22609 10.1709
263 2 3.83179 6.39059 13.5896
232 2 -0.470705 5.90219 9.39684
250 2 6.40803 3.16297 15.53
28 4 7.56909 1.90419 11.7059
125 3 6.18139 0.632627 16.8326
127 3 6.14914 2.788 12.0068
93 1 6.83149 5.49496 14.3376
296 2 7.43605 4.61487 14.6781
32 4 5.62274 4.53734 8.79306
157 3 9.00914 0.37 14.328
193 2 1.58678 1.10612 15.5319
168 3 7.12581 5.10245 9.14576
169 3 6.51877 6.779 11.2476
66 1 -1.86599 9.41172 0.364188
135 3 3.57987 7.72115 4.86788
131 3 0.896529 7.79983 3.95171
75 1 2.79248 12.7838 8.57077
108 3 -1.5772 7.94342 2.77706
9 4 -2.45771 8.46464 1.5858
15 4 -0.562002 9.23171 6.66031
17 4 -0.715084 12.5029 6.33917
72 1 -0.063989 13.5594 7.79472
113 3 -1.27225 8.47487 5.49098
115 3 -0.617076 10.8624 6.6648
356 2 0.178457 12.8809 8.62076
114 3 -2.21894 13.0073 6.04757
230 2 -1.12475 8.485 8.38357
14 4 -3.81914 13.083 5.79696
70 1 0.300442 7.97525 7.95189
143 3 3.56977 8.30732 7.72096
324 2 -3.88641 13.2763 0.718899
236 2 0.837099 14.0419 7.33726
37 4 1.59812 12.8484 4.07936
141 3 0.39161 12.8742 5.19536
209 2 1.00959 11.7846 2.90852
140 3 1.85734 14.2071 3.30423
234 2 1.28823 8.95546 6.81163
245 2 2.10596 12.4352 7.66527
235 2 -0.887636 14.3238 8.09786
327 1 -2.00298 14.407 2.90755
142 3 2.86941 11.2468 0.961628
357 2 -2.53946 11.8451 0.554533
139 3 3.06019 8.82602 0.148575
112 3 -4.37574 13.4081 4.24303
349 2 -1.55446 13.6908 3.66323
145 3 2.99496 12.2885 4.44796
146 3 3.84519 10.8984 6.65547
30 4 2.51825 8.02272 3.67825
36 4 3.39136 9.7432 1.40787
39 4 4.81723 9.72458 7.22144
138 3 2.73368 9.53899 2.809
329 2 -1.89795 14.0302 1.86698
342 2 -1.31705 10.3518 0.939782
11 4 -0.64908 7.59886 4.07897
345 2 -4.56462 14.524 8.13725
321 1 -3.14723 12.6367 0.0787335
148 3 4.97439 8.60876 12.3447
325 2 -1.57026 13.249 16.8466
41 4 4.89605 9.74644 13.4213
222 2 -0.289212 8.64173 17.1624
104 3 -3.80214 14.3119 13.114
5 4 -2.67229 13.6032 13.9452
358 2 -0.700501 13.3664 11.3396
334 2 -1.36799 13.3221 12.9763
323 3 -2.86541 12.2596 14.7428
333 1 -0.774589 12.2147 11.4371
18 4 -1.25359 8.63666 12.8717
149 3 -0.607524 10.2155 13.5222
213 2 -1.83969 11.8173 11.5504
211 2 -0.024336 11.614 10.663
299 2 1.00952 7.96204 8.76729
331 2 -4.23754 14.0314 16.4616
320 4 -3.10422 11.655 16.2355
326 2 -1.5767 10.8561 10.2288
243 2 2.17077 13.284 9.41839
335 2 1.62663 10.4781 12.2296
42 4 0.334769 11.3477 12.8857
150 3 0.873163 12.5032 13.8121
268 2 1.65664 11.1518 10.5494
26 4 1.97528 13.8203 13.0796
359 2 1.50084 12.5772 15.428
341 2 1.28788 12.4748 17.3006
81 1 1.99113 12.6348 16.4564
152 3 2.98728 13.2082 12.0699
151 3 3.79486 10.9216 13.1803
116 3 -0.0326863 7.53184 12.5288
266 2 2.64456 9.65627 11.1354
83 1 2.66381 10.6953 10.5761
212 2 2.42468 10.7798 16.0038
262 2 2.60692 13.7328 16.6554
38 4 3.60969 11.7171 16.8646
31 4 4.07997 7.89709 16.3698
210 2 4.48304 8.89772 14.8895
267 2 3.20516 10.6607 9.48925
43 4 3.81201 11.8702 11.6938
244 2 3.54165 11.9046 9.01624
364 2 -2.33982 10.028 16.8994
52 4 6.88569 5.9528 3.6415
171 3 8.30302 5.32608 4.22818
248 2 8.3185 4.70213 3.40242
282 2 8.1912 5.20935 1.21273
360 2 9.01057 2.26332 2.47068
276 2 9.28681 4.47596 7.88959
290 2 9.40218 6.48249 5.63558
154 3 9.42814 1.23314 8.01113
84 1 13.7449 0.573051 2.47168
286 2 16.385 0.843 6.25761
277 2 10.9711 3.38378 8.23466
87 1 9.88815 3.81474 8.63574
242 2 11.8326 1.84389 7.76006
225 2 14.1376 5.63356 5.27677
54 4 11.1118 6.07061 5.14563
167 3 12.2245 6.05425 6.414
214 2 11.8159 5.99424 2.45531
289 2 11.0578 4.50816 4.13043
339 3 11.3578 1.75097 2.52259
336 1 10.6139 1.63132 1.56648
166 3 10.2847 6.57617 0.330109
233 2 13.2876 4.32109 8.16445
192 2 13.8307 1.96772 3.83785
67 1 13.9865 4.18777 1.76368
354 2 13.2015 4.85517 2.42719
191 2 14.8501 3.6638 4.87265
47 4 13.1679 6.00477 7.71827
183 3 13.6996 2.69827 4.6257
220 2 12.884 3.25818 4.39127
226 2 14.604 5.20021 3.3572
74 1 12.7462 2.50888 7.71006
287 2 13.0215 5.98 3.80912
91 1 11.9238 5.99052 3.4999
285 2 14.7128 0.482091 5.32945
90 1 15.1985 0.962378 6.24654
219 2 15.0612 2.08085 6.21736
241 2 13.6953 1.96545 7.18153
337 2 12.4791 3.32344 7.05218
269 2 13.1069 0.603488 1.48461
223 2 13.5415 3.204 1.57839
362 2 15.497 0.615821 2.56426
46 4 8.6838 2.38081 8.70643
353 2 14.2266 4.76523 0.251139
351 2 15.2805 3.63677 2.92591
361 2 13.1111 0.38723 3.45658
311 2 14.598 0.556562 7.94474
295 2 7.929 5.96512 17.2717
194 2 8.47776 4.18303 16.9458
205 2 8.8069 2.55024 12.8106
216 2 7.23712 6.02942 13.4822
174 3 9.27073 6.49249 10.5631
55 4 7.68326 6.4239 9.91692
51 4 10.7833 5.17193 17.3029
49 4 9.55864 1.5157 15.315
57 4 7.10858 6.61343 15.7726
274 2 9.22515 3.48632 14.1893
278 2 9.84255 4.24932 9.67384
283 2 9.92313 5.42392 15.8143
239 2 12.6338 7.31018 13.7236
298 2 14.206 0.420536 9.9367
195 2 14.9464 4.0601 9.13037
89 1 8.78128 5.163 17.3314
45 4 11.8018 2.23326 17.2151
86 1 10.1971 2.82702 14.1442
58 4 10.3087 6.88306 11.8232
284 2 11.0902 5.65513 13.6728
201 2 11.9646 5.97756 9.55821
94 1 12.453 7.07801 9.00172
273 2 11.2597 3.4632 14.6118
302 2 12.2832 6.60497 11.6811
300 2 10.8366 4.62093 12.0159
95 1 11.2488 5.58693 12.53
275 2 11.0025 2.98303 10.1565
158 3 10.8444 1.33234 16.3253
50 4 11.5416 2.11246 12.8363
88 1 11.7319 2.5599 10.9783
280 2 10.4751 1.28418 11.7111
162 3 11.4992 3.74315 17.2612
156 3 14.7299 0.689319 14.8585
332 2 16.0225 2.04348 16.6291
330 1 17.3419 0.555336 16.488
109 3 14.7695 3.74664 14.7146
279 2 14.1447 3.23715 13.9832
301 2 12.3753 3.62026 11.4805
153 3 13.4224 1.99289 16.824
6 4 14.5582 2.02887 15.7738
281 2 12.4429 1.84547 10.5411
161 3 12.6799 1.21669 13.4301
238 2 14.2532 6.72774 14.6031
231 2 13.3862 7.40415 9.55448
240 2 12.9909 2.92939 8.75373
181 3 5.66861 10.5785 8.53474
170 3 9.49834 10.1539 8.46212
23 4 3.63532 14.1815 7.62347
147 3 4.27874 13.7049 6.3064
40 4 4.22397 12.0586 5.51226
144 3 5.76662 8.64992 6.16289
178 3 5.72002 11.7015 5.05276
217 2 5.16643 9.91054 1.60513
53 4 10.4328 8.00573 0.810401
215 2 7.94109 7.93253 7.97817
172 3 8.99769 7.7132 6.5359
63 4 8.99516 13.5033 7.1141
60 4 7.30421 11.7779 4.9014
98 1 8.51148 9.79701 4.05193
177 3 7.82258 12.466 3.54053
44 4 8.24384 13.4387 2.31051
184 3 8.1244 12.5604 6.18604
180 3 8.36093 12.8436 0.887683
59 4 7.86687 8.88586 2.45898
179 3 6.64393 10.1292 1.53587
308 2 7.77494 9.97919 5.01818
363 2 6.83638 10.8908 2.1579
352 2 8.72674 10.6697 7.9565
163 3 11.8566 8.26111 1.52482
291 2 8.24529 8.2226 6.15627
310 2 9.14062 10.6872 3.68985
309 2 9.27178 8.89458 4.33221
176 3 9.13701 8.51697 1.54796
175 3 7.05147 7.6332 2.99587
96 1 11.8894 9.74212 6.37883
56 4 9.99108 9.35268 7.07154
306 2 12.2396 9.09735 7.34524
305 2 12.2577 9.26291 5.46554
303 2 10.3676 10.364 5.56984
97 1 10.9996 13.0911 7.10106
307 2 11.0963 11.9416 7.55138
293 2 6.2006 7.82984 8.70055
338 2 3.89166 14.3549 1.4418
304 2 12.3296 10.8014 6.54129
355 2 11.4352 7.56924 3.83475
322 1 10.748 8.48922 15.2734
350 2 9.95583 14.666 16.6696
48 4 7.50083 14.5701 13.8029
118 3 13.5571 8.70811 11.6212
92 1 7.3493 7.97573 8.8865
202 2 4.5865 13.4777 8.94199
62 4 6.21647 11.3797 9.75256
182 3 5.13708 11.8818 10.7628
189 3 4.90014 11.8162 15.8985
272 2 9.16823 13.1444 8.99223
186 3 9.83327 7.86953 12.8886
270 2 7.66717 13.4218 11.0539
292 2 7.55247 8.94757 9.52723
218 2 7.32585 12.665 9.33289
85 1 8.42002 13.9734 10.412
344 2 8.41547 14.442 12.3105
312 2 7.15793 9.72734 11.1104
61 4 9.55784 11.8976 16.999
65 4 6.32794 11.8237 14.9728
187 3 6.2098 10.5433 13.7796
188 3 6.92528 13.0777 14.2577
99 1 7.72341 10.648 10.6846
101 1 7.60414 11.1704 16.1769
313 2 7.96594 11.5951 11.437
317 2 8.70111 12.5459 15.5648
318 2 7.63694 10.0337 15.9871
319 2 7.06391 11.4188 17.182
185 3 8.00097 7.72121 14.9841
64 4 9.23906 8.56529 14.1949
314 2 9.24439 10.3491 12.1511
315 2 8.83506 10.3468 13.8578
198 2 8.52515 10.3686 9.90764
224 2 9.26238 14.3727 11.0871
297 2 12.6229 9.12942 9.10384
237 2 13.6122 8.43918 15.0167
221 2 10.22 7.7438 16.0613
343 2 11.6335 7.80057 8.85994
199 2 9.8546 12.7431 10.7654
316 2 10.4197 12.3063 13.7714
100 1 10.3407 11.1837 13.4708
340 3 11.1824 11.6614 16.6094
348 2 11.8353 8.14196 14.8431
16 4 10.6263 11.3973 11.6873
347 2 11.5742 9.07251 16.9378
117 3 11.8699 10.6356 11.1354
346 2 10.6115 9.70885 15.5483
197 2 11.2037 10.6136 13.9561
19 4 13.0464 9.7888 10.6301
365 2 9.10052 10.2508 17.2275
73 1 13.6549 7.64554 14.2085
ITEM: TIMESTEP
200
ITEM: NUMBER OF ATOMS
365
ITEM: BOX BOUNDS xy xz yz pp pp pp
-5.4214967632650870e+00 1.7655595785470826e+01 -6.2984085999374955e+00
2.2801361211990781e-01 1.4716444095915433e+01 9.1810762214320507e-01
-1.1415923741646239e-02 1.7475615923741696e+01 -3.9342291964563701e-02
ITEM: ATOMS id type x y z
68 1 -0.861253 5.81418 4.56029
8 4 -0.0838476 4.19199 1.36623
107 3 0.655635 4.68192 6.76673
4 4 0.435777 4.68649 5.2226
10 4 1.27881 4.49781 8.30142
105 3 0.496669 2.89864 0.695951
102 3 1.65775 0.479964 1.70767
120 3 1.58184 4.2339 4.24019
206 2 1.21378 5.42887 1.36491
271 2 -1.40348 6.89425 7.56134
2 4 1.47423 1.43432 0.368884
33 4 3.51827 6.74276 8.63457
200 2 0.225311 7.23294 6.96571
119 3 2.29508 1.59 4.13537
204 2 7.34613 3.24831 4.39325
252 2 2.45662 5.5056 3.19806
253 2 4.085 6.45554 2.69179
254 2 2.51385 6.55074 1.5798
190 2 4.38241 2.02789 8.44351
21 4 2.95259 3.13938 4.22517
29 4 5.07916 3.76358 1.95026
78 1 2.92707 6.419 2.63225
79 1 4.13307 4.40592 0.379077
123 3 4.01335 3.41147 5.51911
129 3 3.89731 3.29584 2.90105
136 3 4.6604 6.05936 7.7958
25 4 5.48391 3.90522 5.78573
130 3 5.97759 2.63996 1.21558
133 3 5.82252 3.56754 7.59976
164 3 5.93428 5.02903 2.6092
247 2 5.81446 2.15813 4.21335
165 3 5.7513 5.90953 5.30539
257 2 4.49738 5.50995 0.379814
255 2 3.09287 4.24286 0.712762
328 2 4.69871 1.00881 2.99249
76 1 6.52906 2.68344 4.95138
1 4 2.48847 0.261763 3.2227
246 2 6.93866 1.99426 5.79608
288 2 7.33515 2.82674 7.85377
121 3 7.46972 0.487852 0.791945
20 4 8.52425 0.603386 1.98393
106 3 1.84584 2.99414 8.6974
22 4 6.46528 1.60881 0.0972145
134 3 2.18131 5.78683 8.61265
260 2 1.39339 6.99947 0.502965
169 3 6.41609 6.55904 11.5222
71 1 -0.107521 4.75089 9.59111
168 3 7.08349 5.16289 9.21377
12 4 0.726052 3.63449 13.7495
111 3 0.88504 5.05404 12.9878
110 3 0.8744 2.37381 12.8826
13 4 0.977741 6.37686 12.1311
227 2 1.42064 3.91908 16.0948
196 2 1.13581 6.02946 10.4486
261 2 1.7047 5.55937 16.918
69 1 1.87759 3.63272 15.1226
103 3 2.05433 1.02938 10.5788
228 2 2.60511 4.56059 14.6404
35 4 4.95804 7.08783 11.4776
173 3 5.46619 6.94519 15.9761
155 3 8.18678 2.25842 10.3004
207 2 0.192898 4.50948 10.7083
157 3 8.803 0.307689 14.282
3 4 2.42463 1.50943 9.10012
7 4 2.3436 1.45108 12.1425
160 3 4.20872 1.04369 8.81948
80 1 2.59545 6.274 17.1258
159 3 8.27546 2.30398 16.0327
208 2 2.49529 7.04206 12.375
256 2 5.2346 3.81895 16.8064
229 2 2.34041 2.56591 15.1036
24 4 4.80428 2.85368 11.1925
27 4 4.80958 1.272 16.0463
82 1 4.06739 5.91363 12.8325
122 3 3.57798 2.48805 12.1138
124 3 4.10957 0.376999 14.8651
126 3 3.75338 2.01682 17.1453
132 3 4.68982 4.08015 10.1185
203 2 4.95338 1.46843 10.1247
251 2 4.58632 3.63924 15.3416
264 2 4.9475 5.2044 12.9092
265 2 3.11932 5.2808 12.6671
77 1 5.37667 2.89277 14.9957
249 2 5.58787 2.86318 13.8467
294 2 6.17537 4.84824 14.0502
137 3 4.02239 7.09611 10.1362
263 2 4.05657 6.68749 13.6432
232 2 -0.427934 5.75851 9.45037
250 2 6.3392 3.0595 15.5651
28 4 7.54524 1.98671 11.7744
125 3 6.1744 0.813153 16.7787
127 3 6.35244 2.9582 12.0958
93 1 7.1796 5.21489 14.4672
258 2 2.48563 7.36194 15.7069
32 4 5.58421 4.58289 8.79145
296 2 7.61149 4.44858 15.3202
128 3 7.2961 0.324019 12.0266
259 2 3.58703 5.58126 17.3194
116 3 -0.0700126 7.42262 12.4036
66 1 -1.89694 9.39692 0.2149
135 3 3.66935 7.7103 4.89836
131 3 0.91444 7.77379 3.92327
34 4 4.77646 7.48328 6.00904
108 3 -1.5198 8.01392 2.75023
9 4 -2.44521 8.50135 1.57771
15 4 -0.591278 9.40357 6.62486
17 4 -0.629135 12.6635 6.2547
72 1 -0.107937 13.5767 7.78759
113 3 -1.10732 8.58615 5.42191
115 3 -0.666742 10.9536 6.86767
356 2 0.0396883 12.609 8.48219
114 3 -2.27993 13.0523 5.88144
230 2 -1.42967 8.59754 8.15434
14 4 -3.9352 13.0803 5.79937
70 1 0.197248 8.03707 7.77716
143 3 3.51719 8.14172 7.65621
324 2 -3.9704 13.0202 0.68307
236 2 0.847195 14.0331 7.4907
37 4 1.61888 12.9076 3.95573
141 3 0.527063 12.7445 5.15542
209 2 1.07694 12.0376 2.66874
140 3 1.77932 14.4861 3.55957
234 2 1.31175 9.13912 7.11841
245 2 2.27754 12.5481 7.91632
235 2 -0.923359 14.3226 8.22101
327 1 -2.04539 14.3234 2.94901
142 3 2.89131 11.3815 0.977759
357 2 -2.73813 11.6626 0.896186
139 3 3.17472 8.87575 0.110319
112 3 -4.56092 13.3545 4.4308
349 2 -1.59978 13.6537 3.79117
145 3 3.02271 12.2213 4.29424
146 3 3.76557 10.8382 6.37543
30 4 2.5963 7.93462 3.67955
36 4 3.39606 9.96278 1.39404
39 4 4.77218 9.81973 7.11531
138 3 2.87258 9.19358 2.62228
329 2 -1.86131 13.8892 1.88061
342 2 -1.43542 10.3935 0.761275
11 4 -0.627527 7.64669 4.08016
345 2 -4.75685 14.6977 8.06822
321 1 -3.13471 12.4567 0.204029
148 3 5.1052 8.62783 12.306
325 2 -1.47649 13.068 17.1775
41 4 4.95839 9.70111 13.486
222 2 -0.302371 8.49556 17.1324
104 3 -3.93466 14.526 13.0961
5 4 -2.70328 13.7919 13.821
358 2 -0.127229 13.1316 11.5126
334 2 -1.59357 13.3154 12.638
323 3 -2.86434 12.4771 14.7865
333 1 -0.654088 12.0719 11.413
18 4 -1.20978 8.48855 12.7759
149 3 -0.52333 10.0585 13.6096
213 2 -1.77998 12.1198 11.3492
211 2 -0.0548869 11.395 10.5806
299 2 0.617703 7.65256 8.77959
331 2 -4.22387 14.2223 16.1837
320 4 -3.13211 11.6341 16.2943
326 2 -1.64536 11.0278 9.9306
243 2 2.64003 13.3223 9.67269
335 2 1.4069 10.387 11.8201
42 4 0.28836 11.1835 12.8521
150 3 0.971292 12.3632 13.6443
268 2 1.76107 11.5044 10.2776
26 4 1.96826 13.8639 13.096
359 2 1.59333 12.4374 15.2411
341 2 1.14474 12.2838 17.104
81 1 1.97972 12.4978 16.3523
152 3 3.09109 13.3467 12.107
151 3 3.73477 10.5686 13.0698
118 3 -2.01496 9.1107 11.5741
266 2 2.51803 9.81345 10.8992
83 1 2.70249 10.8011 10.4364
212 2 2.62608 10.6669 15.9812
262 2 2.47208 13.681 16.5115
38 4 3.69176 11.7938 16.7459
31 4 4.14294 7.81087 16.4387
210 2 4.53452 8.72515 14.9412
267 2 3.25935 10.7055 9.42721
43 4 3.74864 11.8307 11.7472
244 2 3.77383 11.9181 8.92773
364 2 -2.19031 10.0464 16.574
19 4 -2.78141 9.98119 10.6117
75 1 3.08823 12.8425 8.74082
52 4 6.89304 6.03169 3.54017
171 3 8.29257 5.3327 4.2082
248 2 8.52557 4.98476 3.31853
282 2 7.99192 4.55639 1.26733
360 2 8.93281 2.35982 2.1614
276 2 9.36689 4.66513 8.28917
290 2 9.26293 6.33116 5.7729
154 3 9.31343 1.08829 8.18864
84 1 13.6337 0.540932 2.3977
286 2 16.2937 0.769271 5.97565
277 2 10.9811 3.45644 8.42383
361 2 12.8724 0.407687 3.28426
242 2 11.8676 1.95203 7.79179
225 2 14.2027 5.7749 5.42627
54 4 10.989 6.09031 5.34829
167 3 12.1008 6.00646 6.47139
214 2 11.8093 5.91952 2.52799
289 2 10.9796 4.57263 4.31319
339 3 11.2584 1.87175 2.48156
336 1 10.5678 1.59081 1.5055
166 3 10.1775 6.58459 0.360328
233 2 13.7275 4.37682 7.85931
192 2 13.606 2.0111 3.73792
67 1 13.9651 4.43309 1.79188
354 2 13.2046 5.02264 2.53677
191 2 14.9076 3.65184 4.97082
47 4 13.0071 5.96064 7.71201
183 3 13.6953 2.75409 4.44323
220 2 12.8987 3.24605 4.26234
226 2 14.5787 5.26865 3.44702
74 1 12.7097 2.67023 7.65155
287 2 13.0474 5.94971 3.97858
91 1 11.9099 6.05155 3.66392
285 2 14.4783 0.848686 5.40274
90 1 15.1776 1.09506 6.22102
219 2 15.2358 2.24041 6.30865
241 2 13.6148 2.07358 7.00726
337 2 12.2411 3.52093 7.08384
269 2 13.1543 0.512197 1.29054
223 2 13.5106 3.42591 1.51559
362 2 15.2304 0.773205 2.80656
311 2 14.1624 0.334192 7.59134
353 2 14.3067 5.26071 0.523186
351 2 15.2735 3.77505 3.02729
89 1 7.942 4.71404 0.160908
240 2 13.0101 2.94978 8.72784
295 2 8.00459 6.0154 17.2239
194 2 8.65949 3.66256 17.0562
205 2 8.79255 2.6921 12.8068
216 2 7.91669 5.50099 13.7172
174 3 9.18883 6.37111 10.5286
55 4 7.54525 6.42367 10.1155
51 4 10.5686 5.15231 17.3012
49 4 9.45092 1.74548 15.2542
57 4 7.03239 6.63361 15.5715
274 2 9.39547 3.69807 14.0444
278 2 9.91574 3.88332 10.1077
283 2 9.50521 5.20399 15.9026
239 2 12.5952 7.29722 13.445
298 2 14.6251 0.500171 9.84363
195 2 14.934 4.03558 9.23906
87 1 9.9703 3.85551 8.87423