LAMMPS (2 Aug 2023 - Update 2)
OMP_NUM_THREADS environment is not set. Defaulting to 1 thread. (src/comm.cpp:98)
  using 1 OpenMP thread(s) per MPI task
Reading data file ...
  triclinic box = (0 0 0) to (16.6078 13.4502 17.3502) with tilt (-9.4505 -1.0717 0.0034)
WARNING: Triclinic box skew is large. LAMMPS will run inefficiently. (src/domain.cpp:220)
  1 by 1 by 1 MPI processor grid
  reading atoms ...
  386 atoms
Finding 1-2 1-3 1-4 neighbors ...
  special bond factors lj:    0        0        0       
  special bond factors coul:  0        0        0       
     0 = max # of 1-2 neighbors
     0 = max # of 1-3 neighbors
     0 = max # of 1-4 neighbors
     1 = max # of special neighbors
  special bonds CPU = 0.000 seconds
  read_data CPU = 0.005 seconds
*****Minimization starts.*****

CITE-CITE-CITE-CITE-CITE-CITE-CITE-CITE-CITE-CITE-CITE-CITE-CITE

Your simulation uses code contributions which should be cited:
- pair reaxff command: doi:10.1016/j.parco.2011.08.005
- fix qeq/reaxff command: doi:10.1016/j.parco.2011.08.005
The log file lists these citations in BibTeX format.

CITE-CITE-CITE-CITE-CITE-CITE-CITE-CITE-CITE-CITE-CITE-CITE-CITE

Switching to 'neigh_modify every 1 delay 0 check yes' setting during minimization
WARNING: Fix qeq/reaxff group is not charge neutral, net charge = -0.82 (src/REAXFF/fix_qeq_reaxff.cpp:392)
Neighbor list info ...
  update: every = 1 steps, delay = 0 steps, check = yes
  max neighbors/atom: 2000, page size: 100000
  master list distance cutoff = 12
  ghost atom cutoff = 12
  binsize = 6, bins = 5 3 3
  2 neighbor lists, perpetual/occasional/extra = 2 0 0
  (1) pair reaxff, perpetual
      attributes: half, newton off, ghost
      pair build: half/bin/newtoff/ghost
      stencil: full/ghost/bin/3d
      bin: standard
  (2) fix qeq/reaxff, perpetual, copy from (1)
      attributes: half, newton off
      pair build: copy
      stencil: none
      bin: none
Setting up cg style minimization ...
  Unit style    : real
  Current step  : 0
Per MPI rank memory allocation (min/avg/max) = 282.3 | 282.3 | 282.3 Mbytes
   Step          Temp          Press         Density         PotEng         TotEng    
         0   0              114735.64      1.7478941     -43202.648     -43202.648    
        65   0              4559.6351      1.7478941     -44593.089     -44593.089    
Loop time of 86.0077 on 1 procs for 65 steps with 386 atoms

24.9% CPU use with 1 MPI tasks x 1 OpenMP threads

Minimization stats:
  Stopping criterion = energy tolerance
  Energy initial, next-to-last, final = 
     -43202.6479194678  -44593.0713233312  -44593.0894729048
  Force two-norm initial, final = 1894.1947 49.950689
  Force max component initial, final = 227.47497 11.177377
  Final line search alpha, max atom move = 0.0021480291 0.02400933
  Iterations, force evaluations = 65 183

MPI task timing breakdown:
Section |  min time  |  avg time  |  max time  |%varavg| %total
---------------------------------------------------------------
Pair    | 70.77      | 70.77      | 70.77      |   0.0 | 82.28
Bond    | 7.9496e-05 | 7.9496e-05 | 7.9496e-05 |   0.0 |  0.00
Neigh   | 0          | 0          | 0          |   0.0 |  0.00
Comm    | 0.058832   | 0.058832   | 0.058832   |   0.0 |  0.07
Output  | 0          | 0          | 0          |   0.0 |  0.00
Modify  | 15.173     | 15.173     | 15.173     |   0.0 | 17.64
Other   |            | 0.00576    |            |       |  0.01

Nlocal:            386 ave         386 max         386 min
Histogram: 1 0 0 0 0 0 0 0 0 0
Nghost:           6815 ave        6815 max        6815 min
Histogram: 1 0 0 0 0 0 0 0 0 0
Neighs:         232730 ave      232730 max      232730 min
Histogram: 1 0 0 0 0 0 0 0 0 0

Total # of neighbors = 232730
Ave neighs/atom = 602.92746
Ave special neighs/atom = 0
Neighbor list builds = 0
Dangerous builds not checked
System init for write_data ...
*****Equilibration starts.*****
Setting up Verlet run ...
  Unit style    : real
  Current step  : 0
  Time step     : 0.5
Per MPI rank memory allocation (min/avg/max) = 280.7 | 280.7 | 280.7 Mbytes
   Step          Temp          Press         Density         PotEng         TotEng    
         0   300            8620.1499      1.7478941     -44593.09      -44248.806    
       100   233.30427      3278.7183      1.7270029     -44479.219     -44211.476    
       200   296.60774     -5557.0447      1.7038732     -44496.473     -44156.082    
       300   351.10495     -3768.5626      1.681076      -44523.364     -44120.431    
       400   317.27198     -1562.5119      1.683456      -44519.298     -44155.193    
       500   309.54757     -3057.8368      1.686908      -44561.503     -44206.263    
       600   297.94455      11619.11       1.7007776     -44582.298     -44240.374    
       700   284.8435      -1361.9726      1.7017933     -44584.603     -44257.713    
       800   308.50684      7732.5188      1.7183903     -44610.484     -44256.438    
       900   296.66317     -1144.0364      1.727051      -44612.877     -44272.423    
      1000   289.79448      1259.2961      1.7430909     -44614.032     -44281.46     
      1100   304.91739     -3453.156       1.7382146     -44619.789     -44269.862    
      1200   327.86877     -19089.429      1.7245044     -44626.516     -44250.249    
      1300   305.12478      5416.3638      1.7413034     -44600.211     -44250.046    
      1400   306.53398      2020.5284      1.7403791     -44642.948     -44291.166    
      1500   288.82192      5900.1048      1.7423149     -44641.874     -44310.418    
      1600   300.6865      -2126.1508      1.7327615     -44650.452     -44305.38     
      1700   286.02926     -8243.9785      1.7193859     -44618.513     -44290.263    
      1800   312.66251      12482.922      1.7119184     -44616.23      -44257.414    
      1900   306.98164     -9467.303       1.7174894     -44608.776     -44256.481    
      2000   311.24034     -13478.537      1.72094       -44632.352     -44275.168    
      2100   316.72081      2908.2792      1.7328568     -44658.682     -44295.21     
      2200   283.9886      -4911.9807      1.7370998     -44633.05      -44307.141    
      2300   300.07572      479.48074      1.7490143     -44651.506     -44307.136    
      2400   282.91812      3478.2191      1.7439104     -44636.479     -44311.798    
      2500   297.83637      13864.003      1.7283109     -44667.016     -44325.215    
      2600   287.10559     -4211.4775      1.719798      -44652.599     -44323.113    
      2700   307.96458      4987.6388      1.7290496     -44649.898     -44296.474    
      2800   320.5377       961.56206      1.7316569     -44642.027     -44274.174    
      2900   308.44502      12778.09       1.7294229     -44635.18      -44281.205    
      3000   300.56428     -7611.8475      1.7192018     -44645.77      -44300.839    
      3100   291.30145      102.32105      1.7343461     -44650.094     -44315.793    
      3200   306.04385     -1039.9281      1.7345779     -44664.484     -44313.264    
      3300   315.40731      5574.967       1.7191604     -44665.734     -44303.769    
      3400   315.81573      2798.5534      1.7142402     -44662.843     -44300.409    
      3500   292.99557     -3316.7204      1.7136004     -44642.343     -44306.098    
      3600   309.84986     -4702.9025      1.7155681     -44671.508     -44315.921    
      3700   283.61136      8137.0965      1.7245028     -44658.387     -44332.911    
      3800   292.36538     -5379.3284      1.7238544     -44661.42      -44325.898    
      3900   311.78752      1928.978       1.7330256     -44650.933     -44293.122    
      4000   296.11188      5712.5375      1.7276204     -44626.438     -44286.616    
      4100   305.60198      15296.418      1.7226277     -44656.256     -44305.544    
      4200   305.25982      6503.5617      1.7392158     -44675.628     -44325.308    
      4300   308.88171      3087.3539      1.7461382     -44683.646     -44329.17     
      4400   286.81017     -8088.2128      1.7159798     -44658.353     -44329.207    
      4500   314.57237      3617.8422      1.722827      -44683.598     -44322.591    
      4600   286.42553      3964.9043      1.7266582     -44652.078     -44323.373    
      4700   278.38686     -4424.3141      1.7210078     -44659.238     -44339.758    
      4800   289.53514     -10414.7        1.7216491     -44685.311     -44353.037    
      4900   285.60168     -2837.4644      1.7243943     -44666.576     -44338.816    
      5000   301.12555     -11554.861      1.7197653     -44653.09      -44307.514    
Loop time of 2336.28 on 1 procs for 5000 steps with 386 atoms

Performance: 0.092 ns/day, 259.586 hours/ns, 2.140 timesteps/s, 826.100 atom-step/s
25.0% CPU use with 1 MPI tasks x 1 OpenMP threads

MPI task timing breakdown:
Section |  min time  |  avg time  |  max time  |%varavg| %total
---------------------------------------------------------------
Pair    | 1933.3     | 1933.3     | 1933.3     |   0.0 | 82.75
Bond    | 0.0011906  | 0.0011906  | 0.0011906  |   0.0 |  0.00
Neigh   | 151.79     | 151.79     | 151.79     |   0.0 |  6.50
Comm    | 1.5766     | 1.5766     | 1.5766     |   0.0 |  0.07
Output  | 0.16976    | 0.16976    | 0.16976    |   0.0 |  0.01
Modify  | 249.19     | 249.19     | 249.19     |   0.0 | 10.67
Other   |            | 0.2871     |            |       |  0.01

Nlocal:            386 ave         386 max         386 min
Histogram: 1 0 0 0 0 0 0 0 0 0
Nghost:           6594 ave        6594 max        6594 min
Histogram: 1 0 0 0 0 0 0 0 0 0
Neighs:         227355 ave      227355 max      227355 min
Histogram: 1 0 0 0 0 0 0 0 0 0

Total # of neighbors = 227355
Ave neighs/atom = 589.00259
Ave special neighs/atom = 0
Neighbor list builds = 500
Dangerous builds not checked
*****Heat starts.*****
Setting up Verlet run ...
  Unit style    : real
  Current step  : 5000
  Time step     : 0.5
Per MPI rank memory allocation (min/avg/max) = 281.8 | 281.8 | 281.8 Mbytes
   Step          Temp          Press         Density         PotEng         TotEng    
      5000   301.12555     -11554.829      1.7197653     -44653.09      -44307.514    
      5100   311.51874      4915.4127      1.7197653     -44639.671     -44282.169    
      5200   355.50356     -4525.8429      1.7197653     -44621.743     -44213.763    
      5300   412.04393     -1193.5182      1.7197653     -44577.373     -44104.506    
      5400   459.39563      5660.055       1.7197653     -44486.906     -43959.698    
      5500   535.50892     -8809.6476      1.7197653     -44392.895     -43778.339    
      5600   601.68843      8301.8049      1.7197653     -44247.764     -43557.259    
      5700   701.75533     -11051.484      1.7197653     -44105.068     -43299.726    
      5800   881.52445      13690.969      1.7197653     -44016.447     -43004.799    
      5900   992.55926      16285.537      1.7197653     -43821.061     -42681.988    
      6000   1063.062      -3238.7902      1.7197653     -43559.217     -42339.235    
      6100   1222.8376      10048.022      1.7197653     -43384.647     -41981.304    
      6200   1375.9281     -12816.874      1.7197653     -43190.836     -41611.804    
      6300   1555.9849      21674.198      1.7197653     -43085.724     -41300.057    
      6400   1575.7431      3716.7703      1.7197653     -42849.953     -41041.611    
      6500   1655.1451      37306.083      1.7197653     -42700.216     -40800.752    
      6600   1821.2942     -2909.5232      1.7197653     -42601.085     -40510.946    
      6700   1959.1376      21821.415      1.7197653     -42520.281     -40271.952    
      6800   2068.1054      17655.816      1.7197653     -42433.598     -40060.215    
      6900   2171.1503      57530.288      1.7197653     -42332.744     -39841.106    
      7000   2169.4709      46426.804      1.7197653     -42068.332     -39578.621    
Loop time of 951.141 on 1 procs for 2000 steps with 386 atoms

Performance: 0.091 ns/day, 264.206 hours/ns, 2.103 timesteps/s, 811.657 atom-step/s
25.0% CPU use with 1 MPI tasks x 1 OpenMP threads

MPI task timing breakdown:
Section |  min time  |  avg time  |  max time  |%varavg| %total
---------------------------------------------------------------
Pair    | 778.79     | 778.79     | 778.79     |   0.0 | 81.88
Bond    | 0.00046962 | 0.00046962 | 0.00046962 |   0.0 |  0.00
Neigh   | 60.579     | 60.579     | 60.579     |   0.0 |  6.37
Comm    | 0.66933    | 0.66933    | 0.66933    |   0.0 |  0.07
Output  | 0.019715   | 0.019715   | 0.019715   |   0.0 |  0.00
Modify  | 110.94     | 110.94     | 110.94     |   0.0 | 11.66
Other   |            | 0.149      |            |       |  0.02

Nlocal:            386 ave         386 max         386 min
Histogram: 1 0 0 0 0 0 0 0 0 0
Nghost:           6540 ave        6540 max        6540 min
Histogram: 1 0 0 0 0 0 0 0 0 0
Neighs:         228182 ave      228182 max      228182 min
Histogram: 1 0 0 0 0 0 0 0 0 0

Total # of neighbors = 228182
Ave neighs/atom = 591.14508
Ave special neighs/atom = 0
Neighbor list builds = 200
Dangerous builds not checked
*****Middle equilibration starts.*****
*****Cool starts.*****
Setting up Verlet run ...
  Unit style    : real
  Current step  : 7000
  Time step     : 0.5
Per MPI rank memory allocation (min/avg/max) = 281.8 | 281.8 | 281.8 Mbytes
   Step          Temp          Press         Density         PotEng         TotEng    
      7000   300            21529.393      1.7197653     -42068.332     -41724.048    
      7100   1450.1767      20612.453      1.7197653     -43079.063     -41414.823    
      7200   1618.1225      3797.5078      1.7197653     -42786.052     -40929.075    
      7300   1887.3417      32908.454      1.7197653     -42565.199     -40399.263    
      7400   1900.8026      31360.544      1.7197653     -42098.756     -39917.372    
      7500   2359.2713      47345.698      1.7197653     -42264.564     -39557.037    
      7600   2177.2488      39656.118      1.7197653     -41985.936     -39487.299    
      7700   2236.0518      36563.209      1.7197653     -42221.163     -39655.043    
      7800   2044.9737      27842.827      1.7197653     -42277.799     -39930.962    
      7900   1986.3036      14560.82       1.7197653     -42302.171     -40022.665    
      8000   1938.5037      42493.728      1.7197653     -42261.557     -40036.907    
      8100   2007.0869      36378.575      1.7197653     -42292.562     -39989.205    
      8200   1910.338       53227.762      1.7197653     -42208.876     -40016.549    
      8300   2044.0683      21579.427      1.7197653     -42429.703     -40083.906    
      8400   1967.4522      35082.9        1.7197653     -42502.843     -40244.971    
      8500   1920.9349      23915.274      1.7197653     -42546.401     -40341.913    
      8600   1904.6933      14821.671      1.7197653     -42501.514     -40315.665    
      8700   1971.0171      41281.706      1.7197653     -42458.569     -40196.606    
      8800   1873.7684      39848.568      1.7197653     -42464.71      -40314.351    
      8900   1877.5931     -3193.0587      1.7197653     -42633.23      -40478.482    
      9000   1836.3544      22343.544      1.7197653     -42659.571     -40552.149    
      9100   1788.3777      12908.615      1.7197653     -42622.306     -40569.943    
      9200   1736.2883      25047.868      1.7197653     -42614.467     -40621.882    
      9300   1682.5575      4419.5395      1.7197653     -42707.367     -40776.444    
      9400   1657.2023      18481.124      1.7197653     -42808.567     -40906.742    
      9500   1654.8232      35972.513      1.7197653     -42812.036     -40912.941    
      9600   1800.3598      34244.301      1.7197653     -42828.238     -40762.124    
      9700   1769.4138      37027.641      1.7197653     -42738.412     -40707.812    
      9800   1672.3184     -10506.984      1.7197653     -42835.692     -40916.52     
      9900   1679.792       7457.476       1.7197653     -42928.802     -41001.053    
     10000   1614.4224      4939.6081      1.7197653     -42935.306     -41082.575    
     10100   1555.6786      18310.017      1.7197653     -42961.679     -41176.364    
     10200   1480.7038      30500.535      1.7197653     -42986.788     -41287.515    
     10300   1514.954       26186.296      1.7197653     -43132.926     -41394.347    
     10400   1506.7337      7649.926       1.7197653     -43036.031     -41306.886    
     10500   1584.0417      27060.625      1.7197653     -42948.519     -41130.654    
     10600   1620.9844      26222.372      1.7197653     -43023.077     -41162.816    
     10700   1538.8028      16868.856      1.7197653     -43083.077     -41317.129    
     10800   1502.1889      21338.196      1.7197653     -43118.177     -41394.247    
     10900   1511.983       11444.734      1.7197653     -43198.562     -41463.393    
     11000   1465.3687      17796.442      1.7197653     -43187.794     -41506.12     
     11100   1365.2259      17251.582      1.7197653     -43180.016     -41613.267    
     11200   1388.1845      9168.8945      1.7197653     -43370.262     -41777.165    
     11300   1348.1382      20684.215      1.7197653     -43336.419     -41789.279    
     11400   1320.8846      22507.32       1.7197653     -43257.952     -41742.089    
     11500   1397.305       5361.7027      1.7197653     -43227.924     -41624.36     
     11600   1460.9397     -3541.6967      1.7197653     -43281.556     -41604.964    
     11700   1359.2202      4028.3211      1.7197653     -43378.718     -41818.861    
     11800   1308.6628      34308.686      1.7197653     -43418.776     -41916.939    
     11900   1257.658       1180.7418      1.7197653     -43451.744     -42008.441    
     12000   1231.7438      32312.099      1.7197653     -43479.105     -42065.541    
     12100   1206.1252      10976.333      1.7197653     -43462.172     -42078.009    
     12200   1247.9425      20073.342      1.7197653     -43523.366     -42091.212    
     12300   1182.3199      12850.775      1.7197653     -43563.106     -42206.262    
     12400   1143.6398      30953.936      1.7197653     -43550.933     -42238.478    
     12500   1298.7446      55783.354      1.7197653     -43705.72      -42215.266    
     12600   1127.7263      12413.564      1.7197653     -43655.262     -42361.069    
     12700   1075.0713      10987.758      1.7197653     -43645.037     -42411.273    
     12800   1097.8089     -4268.3246      1.7197653     -43656.006     -42396.147    
     12900   1109.851       32083.934      1.7197653     -43680.857     -42407.179    
     13000   1078.7539      16486.513      1.7197653     -43776.9       -42538.909    
     13100   992.19315      26382.233      1.7197653     -43744.563     -42605.91     
     13200   1013.2618     -4251.1773      1.7197653     -43790.515     -42627.684    
     13300   1051.1399      14106.454      1.7197653     -43886.03      -42679.73     
     13400   896.74817      20580.515      1.7197653     -43798.958     -42769.839    
     13500   919.42026      12910.878      1.7197653     -43856.964     -42801.827    
     13600   958.69811      9255.4066      1.7197653     -43949.867     -42849.654    
     13700   894.86699      4930.2157      1.7197653     -43931.381     -42904.421    
     13800   925.68296      16357.556      1.7197653     -43984.721     -42922.396    
     13900   913.98031      12344.195      1.7197653     -43990.72      -42941.825    
     14000   789.26986     -16173.57       1.7197653     -43927.778     -43022.003    
     14100   827.4927       8531.6242      1.7197653     -44023.859     -43074.219    
     14200   846.62434      10016.217      1.7197653     -44074.782     -43103.186    
     14300   765.98172      21936.817      1.7197653     -44082.39      -43203.34     
     14400   756.4764       12056.016      1.7197653     -44110.394     -43242.253    
     14500   797.51192      4639.4103      1.7197653     -44142.015     -43226.781    
     14600   801.50303      981.32406      1.7197653     -44143.383     -43223.569    
     14700   716.39866     -8420.7226      1.7197653     -44146.294     -43324.146    
     14800   693.60944      3685.4451      1.7197653     -44166.063     -43370.069    
     14900   743.48225      16733.976      1.7197653     -44218.079     -43364.849    
     15000   650.6599       5637.6833      1.7197653     -44148.146     -43401.44     
     15100   736.32687      9122.3786      1.7197653     -44318.522     -43473.505    
     15200   673.17078     -7148.1161      1.7197653     -44296.625     -43524.086    
     15300   638.75602      7993.6065      1.7197653     -44291.527     -43558.483    
     15400   601.97135      6821.4534      1.7197653     -44300.337     -43609.508    
     15500   613.89916      20836.147      1.7197653     -44359.41      -43654.892    
     15600   562.30604     -1941.8652      1.7197653     -44343.743     -43698.434    
     15700   580.06091      16306.717      1.7197653     -44400.606     -43734.921    
     15800   561.02218     -11614.823      1.7197653     -44420.619     -43776.783    
     15900   532.30615     -2550.1282      1.7197653     -44434.11      -43823.229    
     16000   504.58282      15085.307      1.7197653     -44454.771     -43875.705    
     16100   484.12414     -6634.2799      1.7197653     -44491.749     -43936.162    
     16200   486.97527     -7938.6557      1.7197653     -44552.639     -43993.78     
     16300   468.92417      491.549        1.7197653     -44595.125     -44056.982    
     16400   427.9589       8462.0429      1.7197653     -44595.694     -44104.563    
     16500   413.40525      13595.045      1.7197653     -44613.415     -44138.986    
     16600   406.5259       13370.949      1.7197653     -44657.022     -44190.488    
     16700   379.15286     -5988.9825      1.7197653     -44675.588     -44240.467    
     16800   365.7831      -9043.7017      1.7197653     -44716.979     -44297.202    
     16900   333.30837      15497.408      1.7197653     -44737.284     -44354.775    
     17000   318.64635      3456.125       1.7197653     -44767.39      -44401.707    
Loop time of 4742.77 on 1 procs for 10000 steps with 386 atoms

Performance: 0.091 ns/day, 263.487 hours/ns, 2.108 timesteps/s, 813.871 atom-step/s
25.0% CPU use with 1 MPI tasks x 1 OpenMP threads

MPI task timing breakdown:
Section |  min time  |  avg time  |  max time  |%varavg| %total
---------------------------------------------------------------
Pair    | 3879.2     | 3879.2     | 3879.2     |   0.0 | 81.79
Bond    | 0.0023017  | 0.0023017  | 0.0023017  |   0.0 |  0.00
Neigh   | 299.44     | 299.44     | 299.44     |   0.0 |  6.31
Comm    | 2.7441     | 2.7441     | 2.7441     |   0.0 |  0.06
Output  | 0.41311    | 0.41311    | 0.41311    |   0.0 |  0.01
Modify  | 560.53     | 560.53     | 560.53     |   0.0 | 11.82
Other   |            | 0.4547     |            |       |  0.01

Nlocal:            386 ave         386 max         386 min
Histogram: 1 0 0 0 0 0 0 0 0 0
Nghost:           6567 ave        6567 max        6567 min
Histogram: 1 0 0 0 0 0 0 0 0 0
Neighs:         228304 ave      228304 max      228304 min
Histogram: 1 0 0 0 0 0 0 0 0 0

Total # of neighbors = 228304
Ave neighs/atom = 591.46114
Ave special neighs/atom = 0
Neighbor list builds = 1000
Dangerous builds not checked
*****final equilibration starts.*****
Setting up Verlet run ...
  Unit style    : real
  Current step  : 17000
  Time step     : 0.5
Per MPI rank memory allocation (min/avg/max) = 281.8 | 281.8 | 281.8 Mbytes
   Step          Temp          Press         Density         PotEng         TotEng    
     17000   318.64635      3456.0621      1.7197653     -44767.39      -44401.707    
     17100   320.91848      14169.096      1.7307277     -44802.172     -44433.882    
     17200   307.85257     -12147.753      1.7331899     -44811.018     -44457.723    
     17300   293.08565     -1963.3446      1.7233216     -44806.883     -44470.534    
     17400   286.09248     -11034.844      1.7217341     -44819.958     -44491.634    
     17500   285.25913      5773.4416      1.7417528     -44824.091     -44496.725    
     17600   312.19319     -10673.203      1.7358239     -44822.578     -44464.301    
     17700   311.59949      1562.7387      1.7399688     -44807.418     -44449.823    
     17800   300.72125     -4402.9708      1.7409671     -44805.645     -44460.533    
     17900   298.97016      7517.523       1.7396121     -44814.021     -44470.919    
     18000   311.7308       1057.5276      1.7246452     -44834.501     -44476.755    
     18100   299.72798      1481.321       1.7263566     -44851.384     -44507.413    
     18200   285.88625     -12599.814      1.7336327     -44844.879     -44516.792    
     18300   298.86735      11334.507      1.7488598     -44831.419     -44488.435    
     18400   289.7523      -7657.7347      1.7386694     -44804.892     -44472.369    
     18500   317.13976      3125.1182      1.7308047     -44826.57      -44462.616    
     18600   281.21429      17179.12       1.7370586     -44783.135     -44460.411    
     18700   305.29537      7688.9652      1.747097      -44826.459     -44476.099    
     18800   289.49392     -2739.6114      1.7430775     -44832.881     -44500.654    
     18900   290.98943     -2286.8586      1.746362      -44843.77      -44509.827    
     19000   287.41796     -16653.652      1.7317815     -44824.825     -44494.981    
     19100   311.25739      2914.1343      1.7420695     -44816.259     -44459.057    
     19200   304.8644       10269.52       1.7328702     -44809.485     -44459.619    
     19300   313.70823     -4755.2846      1.7143679     -44830.062     -44470.047    
     19400   276.49928     -7998.1556      1.7226098     -44816.583     -44499.269    
     19500   296.15452      10936.419      1.7373636     -44858.098     -44518.227    
     19600   283.90753      3107.7942      1.7465803     -44835.605     -44509.789    
     19700   309.97336      256.10382      1.7581201     -44855.373     -44499.644    
     19800   294.67628     -6931.2302      1.7599412     -44839.952     -44501.778    
     19900   290.16072     -887.9324       1.7637346     -44837.451     -44504.459    
     20000   309.21903     -2291.8336      1.7494547     -44859.741     -44504.877    
     20100   283.226        3924.1134      1.7285722     -44872.742     -44547.708    
     20200   289.86973     -6807.0248      1.7079493     -44877.194     -44544.536    
     20300   297.17568      7606.5117      1.7137105     -44854.951     -44513.909    
     20400   319.16214      5504.1665      1.7270825     -44859.294     -44493.02     
     20500   300.88464     -862.02508      1.7251351     -44838.793     -44493.494    
     20600   294.18176      3992.4181      1.7309747     -44845.612     -44508.006    
     20700   292.80063     -3423.6911      1.7156683     -44869.034     -44533.013    
     20800   278.63465     -7372.7805      1.7402001     -44872.414     -44552.65     
     20900   286.11612     -2730.0144      1.7416141     -44862.73      -44534.38     
     21000   291.66639     -9461.7805      1.7402484     -44832.55      -44497.83     
     21100   300.32423     -4111.4306      1.7321621     -44833.312     -44488.657    
     21200   323.20663      2045.7118      1.7354128     -44865.287     -44494.371    
     21300   285.30788     -8776.9023      1.731921      -44853.978     -44526.555    
     21400   298.01358     -6700.8312      1.7212075     -44879.022     -44537.018    
     21500   274.76018      626.28123      1.7249749     -44845.477     -44530.159    
     21600   311.86855      5047.1188      1.736425      -44862.092     -44504.188    
     21700   314.41501      4217.0096      1.7355974     -44856.802     -44495.976    
     21800   299.9037       4952.1545      1.7430812     -44848.134     -44503.961    
     21900   301.91834      4460.3394      1.7415307     -44862.237     -44515.752    
     22000   280.8718      -2053.8647      1.7458365     -44862.711     -44540.379    
Loop time of 1247.24 on 1 procs for 5000 steps with 386 atoms

Performance: 0.173 ns/day, 138.582 hours/ns, 4.009 timesteps/s, 1.547 katom-step/s
42.6% CPU use with 1 MPI tasks x 1 OpenMP threads

MPI task timing breakdown:
Section |  min time  |  avg time  |  max time  |%varavg| %total
---------------------------------------------------------------
Pair    | 1022.8     | 1022.8     | 1022.8     |   0.0 | 82.01
Bond    | 0.0011569  | 0.0011569  | 0.0011569  |   0.0 |  0.00
Neigh   | 81.199     | 81.199     | 81.199     |   0.0 |  6.51
Comm    | 0.69621    | 0.69621    | 0.69621    |   0.0 |  0.06
Output  | 0.15762    | 0.15762    | 0.15762    |   0.0 |  0.01
Modify  | 142.23     | 142.23     | 142.23     |   0.0 | 11.40
Other   |            | 0.1125     |            |       |  0.01

Nlocal:            386 ave         386 max         386 min
Histogram: 1 0 0 0 0 0 0 0 0 0
Nghost:           6613 ave        6613 max        6613 min
Histogram: 1 0 0 0 0 0 0 0 0 0
Neighs:         232048 ave      232048 max      232048 min
Histogram: 1 0 0 0 0 0 0 0 0 0

Total # of neighbors = 232048
Ave neighs/atom = 601.16062
Ave special neighs/atom = 0
Neighbor list builds = 500
Dangerous builds not checked
System init for write_data ...
Total wall time: 2:36:07
