ITEM: TIMESTEP
0
ITEM: NUMBER OF ATOMS
366
ITEM: BOX BOUNDS xy xz yz pp pp pp
-7.6516000000000002e+00 1.5037200000000000e+01 -7.4931000000000001e+00
0.0000000000000000e+00 1.3615700000000000e+01 -1.5850000000000000e-01
0.0000000000000000e+00 1.7607399999999998e+01 8.0699999999999994e-02
ITEM: ATOMS id type q x y z element
209 2 0.025087 1.53874 4.71818 8.71282 H
3 4 1.00099 1.80832 1.93251 0.494259 Si
5 4 1.63242 0.772499 1.67132 5.59452 Si
7 4 1.65726 0.25174 4.11525 2.08983 Si
91 3 -0.810983 2.61623 0.816536 8.70391 O
10 4 0.801012 -0.261481 4.20998 6.93213 Si
340 2 0.0830692 3.01121 5.17356 1.20999 H
24 4 1.27631 3.5837 1.86074 4.26321 Si
27 4 1.53397 6.13775 1.84545 5.91421 Si
28 4 1.593 1.51339 6.25144 4.14951 Si
65 3 -0.7504 1.45795 0.551414 1.33322 O
66 3 -0.824951 -0.470031 1.37451 4.58591 O
171 1 -0.0839635 -1.74195 4.06806 8.36882 C
69 3 -0.887868 -0.92624 3.16677 2.65662 O
70 3 -0.823942 1.47357 3.27795 1.40368 O
71 3 -0.886187 -0.475064 5.10387 1.01748 O
72 3 -0.823474 0.181666 2.74961 6.60969 O
338 1 -0.110788 3.28982 5.06067 0.162998 C
74 3 -0.772184 -0.874589 5.1732 5.82072 O
89 3 -0.850733 3.61158 0.869685 2.99005 O
90 3 -0.826258 2.1052 2.18584 4.78668 O
67 3 -0.765926 1.17738 0.318719 6.58267 O
92 3 -0.830504 4.56355 1.74161 5.50001 O
227 2 0.122468 3.33489 4.44765 3.60815 H
94 3 -0.839858 0.816392 5.00939 3.31591 O
96 3 -0.783888 3.98327 3.30204 8.13267 O
98 3 -0.866664 2.5853 5.71276 5.22188 O
297 3 -0.666117 6.62994 0.836804 1.00909 O
172 1 -0.0651837 1.52258 4.97058 7.66757 C
178 1 -0.0889448 4.09786 3.73094 3.32538 C
208 2 0.16613 2.19322 4.34451 7.05424 H
263 2 0.104651 -0.487158 1.53669 8.20405 H
210 2 0.0746319 1.41031 6.04265 7.41853 H
225 2 0.0375323 4.08052 3.52963 2.26559 H
226 2 0.0508387 5.0789 3.86179 3.66208 H
9 4 1.24642 -0.887018 6.48134 0.362892 Si
12 4 1.70187 -1.2422 6.69394 5.48367 Si
93 3 -0.782259 6.9058 0.42773 6.15281 O
31 4 1.52077 3.96848 6.34241 6.01466 Si
315 2 0.104161 4.2686 1.68002 1.00752 H
317 2 0.101788 -1.43597 2.90152 0.581273 H
312 1 -0.104918 3.83863 1.74506 0.0422453 C
73 3 -0.916079 -2.56304 6.77524 4.63504 O
6 4 0.718189 -0.509105 2.6761 16.0392 Si
13 4 1.08949 -0.474615 4.85931 13.8804 Si
14 4 0.631032 -1.55038 6.35645 11.5068 Si
229 2 0.0641193 5.33334 0.823833 10.5965 H
305 2 0.0133108 5.49227 2.41267 13.6764 H
75 3 -0.716239 -0.869098 4.02319 15.2245 O
76 3 -0.760952 -2.8351 6.14302 10.5664 O
77 3 -0.706456 -1.64616 5.50691 12.9989 O
100 3 -0.830867 0.69271 5.88566 14.356 O
339 2 0.0762077 2.37413 4.77928 17.0816 H
173 1 -0.137781 0.519814 3.40919 12.7335 C
175 1 -0.141838 0.0817003 5.69302 10.5317 C
26 4 0.766378 3.63958 2.03313 9.01789 Si
180 1 -0.136822 2.96307 2.90177 10.6777 C
181 1 -0.0940665 3.33697 4.03849 14.2395 C
205 2 0.0324435 -0.679429 1.42036 13.9382 H
206 2 0.0145908 -1.41338 3.3418 9.07221 H
179 1 -0.091255 5.42882 1.22286 9.65005 C
211 2 0.023012 -0.220952 3.16117 11.9741 H
212 2 0.0360438 0.787161 2.62791 13.4919 H
213 2 0.0278193 1.38713 3.94628 12.3851 H
307 2 0.0392175 6.01886 1.71677 12.0213 H
218 2 0.0180733 -0.0107173 4.63074 10.6253 H
219 2 0.0188082 0.874877 6.17794 11.024 H
217 2 0.0213508 -0.110411 6.11638 9.53228 H
68 3 -0.711729 0.943981 2.24915 16.6159 O
231 2 0.0420795 2.84248 3.95241 10.3757 H
232 2 0.00322228 3.80534 2.85172 11.4104 H
233 2 0.037953 2.04266 2.29947 10.9534 H
234 2 0.0288157 3.90008 3.15101 14.442 H
235 2 0.0347104 2.83163 4.10379 13.2784 H
236 2 0.0912435 2.76533 4.34891 15.0621 H
321 2 0.0809585 -2.47081 5.28572 16.3986 H
230 2 0.0373302 6.11209 2.04171 9.63131 H
330 2 0.071988 5.36269 1.33884 15.7677 H
303 1 -0.131731 5.39652 1.61885 12.942 C
327 1 -0.102162 5.88015 2.28079 15.9037 C
306 2 0.0313059 4.37386 1.37617 12.7809 H
228 2 0.146825 5.67547 0.448841 8.8769 H
314 2 0.0853063 3.64007 0.924799 17.0848 H
320 1 -0.129832 -2.76621 6.17464 16.9503 C
329 2 0.0604841 5.22303 3.14592 16.0566 H
313 2 0.0179083 3.90244 2.71446 17.0911 H
282 2 0.0675618 3.56298 6.24006 9.39988 H
356 2 0.0328152 4.17183 4.89811 17.5183 H
349 2 0.0731984 -3.40643 6.04534 14.4208 H
348 2 0.115557 -3.62428 6.56112 12.7897 H
241 2 0.0363185 3.4367 6.55212 13.0008 H
207 2 0.0967078 -1.81415 5.03636 8.84935 H
4 4 1.54738 -5.32635 13.1376 7.78662 Si
39 4 1.55155 1.37821 10.7575 5.53477 Si
15 4 1.55076 -2.37133 8.77583 1.90268 Si
17 4 1.68435 -4.07982 11.1089 0.439806 Si
18 4 1.65403 -2.14947 8.83156 7.60751 Si
20 4 1.68506 -3.75104 10.9338 6.11179 Si
23 4 1.54902 -0.119958 13.3539 2.09439 Si
104 3 -0.769234 2.77234 8.00665 0.771801 O
111 3 -0.847709 -0.536684 12.4548 8.32991 O
35 4 1.73819 -1.41777 11.0321 3.86783 Si
37 4 0.704489 2.57063 8.62622 7.39745 Si
78 3 -0.884839 -3.58411 7.91364 2.63233 O
79 3 -0.865885 -1.22843 7.7347 1.36248 O
80 3 -0.877869 -3.099 9.84657 0.709544 O
81 3 -0.885046 -4.19764 12.0728 1.70202 O
95 3 -0.852764 0.207414 7.08338 4.75976 O
83 3 -0.909103 -1.42174 7.5617 6.85802 O
358 2 0.0691193 -0.560153 9.58717 0.126034 H
85 3 -0.909211 -5.0866 10.8759 5.23989 O
86 3 -0.867675 -3.35129 9.51885 6.73333 O
87 3 -0.783467 -4.01566 12.2986 7.11937 O
1 4 1.6025 -4.94325 13.3396 2.40409 Si
103 3 -0.860382 2.37378 7.00709 3.02566 O
105 3 -0.934395 -1.76079 9.77199 2.96717 O
106 3 -0.847181 -1.06943 12.3169 2.96226 O
107 3 -0.826831 -2.55375 11.3195 5.05249 O
34 4 1.13246 2.64735 8.43851 2.33055 Si
109 3 -0.757673 3.38949 7.20768 7.2842 O
113 3 -0.865672 -0.0872533 10.7323 4.75644 O
114 3 -0.758063 1.86749 9.2722 6.08159 O
184 1 -0.0613788 0.842357 9.39556 2.63214 C
110 3 -0.8967 -1.15255 9.90323 8.25293 O
243 2 0.147224 0.51114 9.00785 3.59785 H
244 2 0.101609 0.239225 8.98813 1.83882 H
245 2 0.1161 1.09646 10.487 2.62235 H
248 2 0.100925 0.347451 7.66299 8.11026 H
310 3 -0.879283 -5.74022 12.7813 3.67033 O
16 4 1.8365 -6.17922 11.3456 4.21965 Si
84 3 -0.895519 -6.2667 12.093 8.60359 O
186 1 -0.0904005 1.0375 8.21704 8.74859 C
357 2 0.081146 1.26376 9.36918 0.297896 H
345 2 0.102679 -4.5331 8.53692 0.0695275 H
22 4 0.775122 -3.6753 11.3093 10.8429 Si
33 4 1.60343 0.787581 7.09285 15.4232 Si
36 4 1.03121 0.633235 11.8353 17.277 Si
38 4 1.42778 -1.08548 11.2165 9.19538 Si
40 4 1.11263 1.54837 9.62814 14.0562 Si
41 4 1.06062 -2.16042 11.7546 15.8983 Si
42 4 1.01212 0.407422 11.5662 11.9428 Si
88 3 -0.688076 -4.73214 10.4609 9.98709 O
185 1 -0.0795927 0.281353 9.77171 17.3233 C
249 2 0.0912412 0.767903 9.20111 9.01918 H
112 3 -0.732765 -2.43939 11.7455 9.92999 O
116 3 -0.832241 0.527456 8.44969 14.5239 O
117 3 -0.751062 -0.760672 12.2945 16.6056 O
118 3 -0.717959 -2.1881 12.5635 14.4735 O
119 3 -0.836017 -3.43794 11.9306 16.894 O
120 3 -0.742723 -0.18902 10.6125 10.8151 O
121 3 -0.770605 0.717777 10.8693 13.4293 O
122 3 -0.704725 -0.525057 12.8971 12.2351 O
174 1 -0.0728868 -1.20939 8.32669 11.8945 C
176 1 -0.0952229 -3.20579 10.4731 12.6634 C
177 1 -0.103217 -4.49486 13.11 11.4736 C
188 1 -0.131188 2.51839 8.77444 12.287 C
324 2 0.033346 -6.27306 12.6549 13.9854 H
189 1 -0.116448 -2.1841 9.69015 15.352 C
214 2 0.0789566 -0.150395 8.47458 11.8733 H
215 2 0.059501 -1.65291 8.46384 12.8592 H
216 2 0.107586 -1.77333 8.88279 11.0388 H
220 2 0.055401 -3.72681 11.0187 13.4317 H
221 2 0.0787774 -2.16329 10.514 12.8336 H
222 2 0.0581419 -3.56729 9.4641 12.5058 H
82 3 -0.808173 -2.92123 8.2225 8.9289 O
325 2 0.0830012 -4.65188 12.4609 14.8866 H
246 2 0.0928362 0.337752 9.45649 16.2607 H
247 2 0.0105365 1.59118 7.75821 9.52977 H
102 3 -0.892542 -0.216665 7.08148 16.6962 O
302 4 0.699735 -1.12851 13.4678 13.6434 Si
254 2 0.0400382 2.03931 7.8277 12.329 H
256 2 0.063707 -1.97269 9.07034 16.227 H
257 2 0.0830314 -1.42228 9.76743 14.6249 H
258 2 0.0323441 -3.18652 9.58959 15.0002 H
101 3 -0.855096 2.31162 7.14717 15.8331 O
311 3 -0.914993 -5.60584 10.7818 17.2705 O
323 1 -0.119956 -5.76905 12.6563 14.9541 C
224 2 0.0508009 -5.2808 12.8348 12.1298 H
253 2 0.0207209 2.17388 9.40446 11.4384 H
29 4 1.16287 3.1786 7.17408 17.2037 Si
322 2 0.0253268 -2.96683 6.95116 16.2485 H
326 2 0.0617104 -6.01739 13.557 15.5161 H
11 4 1.50008 -3.83959 6.9941 9.58674 Si
353 2 0.096918 -4.86657 13.5742 10.5517 H
223 2 0.0387191 -3.60665 13.5305 11.9495 H
334 1 -0.122262 8.87087 1.07562 8.12984 C
337 2 0.0679746 8.1974 1.89208 8.09316 H
134 3 -0.856411 11.0138 5.91792 8.36489 O
44 4 1.62978 8.53497 2.15797 3.83806 Si
30 4 1.50099 5.36823 4.11869 7.74431 Si
46 4 1.63937 11.1578 2.6262 5.73713 Si
48 4 1.15263 9.84021 4.63851 2.3265 Si
51 4 1.32654 10.1004 5.05179 7.42415 Si
97 3 -0.842076 6.39289 2.99955 7.09855 O
301 2 0.0863336 6.55201 3.55468 2.2868 H
123 3 -0.892299 12.799 0.879277 2.63602 O
124 3 -0.880857 8.28492 0.888701 2.91359 O
125 3 -0.823219 7.12687 2.2937 4.64028 O
126 3 -0.823614 12.2762 2.74097 4.53418 O
127 3 -0.805522 9.77411 1.96235 4.9386 O
128 3 -0.804774 11.6191 1.51357 6.79106 O
129 3 -0.85389 8.87232 3.46555 2.86213 O
130 3 -0.844572 10.6695 5.42205 3.46319 O
132 3 -0.838257 9.27158 5.575 1.08449 O
133 3 -0.919509 10.7886 3.91595 6.5432 O
299 2 0.0481982 6.02568 4.36088 0.684336 H
137 3 -0.830256 7.35801 6.6434 4.87731 O
138 3 -0.904434 8.95236 5.96632 6.8238 O
279 2 0.134094 8.09002 4.21039 8.61582 H
196 1 -0.0893878 11.3671 3.49188 1.36703 C
197 1 -0.103894 5.81584 6.25394 2.38694 C
359 2 0.0249918 11.1186 0.34834 0.251801 H
273 2 0.0203509 11.1832 3.66414 0.314494 H
274 2 0.0700147 11.2774 2.45344 1.6248 H
275 2 0.12485 12.2943 3.94133 1.73059 H
276 2 0.0691285 6.7727 5.71877 2.43467 H
2 4 1.69229 13.4211 1.99742 3.58664 Si
278 2 0.0259883 4.90564 5.69047 2.56764 H
354 2 0.0347528 9.53892 2.57595 0.28045 H
300 2 0.125738 7.72179 4.36246 1.08698 H
352 2 0.124275 12.4209 3.77485 7.78266 H
298 1 -0.0651548 6.80225 3.84331 1.23228 C
296 4 0.338455 7.0106 2.1513 0.152123 Si
99 3 -0.847081 4.94956 5.18542 6.62517 O
335 2 0.10171 9.80947 1.25026 7.56758 H
192 1 -0.0965232 14.0766 0.668624 8.60381 C
45 4 0.775404 12.3825 0.200617 7.37318 Si
360 2 0.129115 10.1519 0.0513157 1.85585 H
351 2 0.0339318 11.645 5.87458 0.0595415 H
318 2 0.0671665 13.2392 1.26284 0.0040244 H
284 2 0.0149541 4.25757 6.00156 10.9957 H
32 4 0.296947 4.95961 5.29276 14.1416 Si
47 4 0.303067 10.2479 2.52612 12.4055 Si
52 4 1.19276 6.20326 6.48986 9.34176 Si
54 4 0.643308 9.64326 5.03889 13.5414 Si
170 1 -0.12302 13.888 1.18052 14.8741 C
139 3 -0.58767 10.2435 3.51296 13.7147 O
140 3 -0.615212 5.76856 5.36187 15.4942 O
347 1 -0.0765653 10.9729 6.526 13.7434 C
336 2 0.0147274 8.97683 0.678686 9.11814 H
145 3 -0.732077 8.84531 5.44335 12.1786 O
182 1 -0.08635 6.18188 4.68931 12.6071 C
350 2 0.0315136 12.8236 1.27993 14.9086 H
193 1 -0.102729 11.637 2.95237 11.0429 C
194 1 -0.104584 8.4148 2.40166 11.6467 C
195 1 -0.101603 10.7769 0.781363 13.3781 C
270 2 0.0278981 11.7574 0.402494 13.0536 H
200 1 -0.0912883 8.58803 5.51927 15.2439 C
141 3 -0.821692 7.07785 6.64591 17.4769 O
355 2 0.0866798 7.5801 0.502713 15.828 H
238 2 0.0728272 7.02054 4.22094 13.0736 H
239 2 0.109617 6.41761 5.63423 12.0735 H
198 1 -0.108691 9.11705 4.0675 8.96575 C
264 2 0.119512 11.6739 3.99468 11.1813 H
265 2 0.0179753 11.3622 2.65568 10.0338 H
266 2 0.0308074 12.4751 2.4476 11.5365 H
267 2 0.0266134 8.53606 1.59444 10.9156 H
268 2 0.0805664 8.10029 3.35786 11.2221 H
269 2 0.0370306 7.86961 2.16099 12.527 H
328 2 0.0202316 6.71073 2.41362 15.22 H
280 2 0.0675654 9.37124 4.68326 9.85264 H
272 2 0.0655722 10.777 1.15968 14.367 H
281 2 0.0159195 9.60297 3.05307 8.90109 H
285 2 0.0841885 8.37186 6.58963 15.1361 H
286 2 0.0427019 9.23846 5.19607 16.0441 H
287 2 0.1033 7.68253 4.92572 15.1704 H
304 1 -0.0785062 7.98402 0.261447 14.8809 C
362 2 -0.000282674 13.5869 0.900325 9.55773 H
309 2 0.0217187 8.45138 1.06052 14.434 H
316 1 -0.104297 13.0657 2.41317 17.3632 C
237 2 0.0229149 5.63632 3.93585 12.0418 H
363 2 0.00535086 11.1961 0.382272 9.60306 H
319 2 0.0314809 12.2361 2.7686 16.7911 H
333 2 0.037118 8.8373 2.46789 16.189 H
204 2 0.0551495 14.292 0.300777 15.403 H
199 1 -0.120686 4.1929 6.62822 10.1389 C
331 1 -0.107455 8.87177 2.06323 17.1673 C
135 3 -0.838825 6.16345 4.87226 9.00127 O
332 2 0.0626704 9.03903 1.04934 17.363 H
271 2 0.0274835 10.0247 0.0861524 13.1103 H
108 3 -0.801638 0.843337 12.275 1.23757 O
250 2 0.0680232 3.35014 10.8987 7.86264 H
43 4 1.24373 5.07033 12.9422 2.16715 Si
49 4 1.25626 6.11877 7.35651 4.08445 Si
262 2 0.122993 3.05437 12.249 0.778659 H
53 4 1.79287 8.63878 7.0698 5.76923 Si
57 4 1.62099 7.61122 9.29602 2.38506 Si
58 4 1.6497 3.97449 10.5959 3.94906 Si
60 4 1.68154 7.19125 8.8721 7.80862 Si
61 4 1.63313 6.09064 11.2596 6.01576 Si
187 1 -0.10569 3.66767 9.98039 8.37808 C
251 2 0.120238 4.69727 9.63682 8.19475 H
59 4 1.42787 6.15552 10.9272 0.129214 Si
343 2 0.0604969 2.82906 12.7531 8.4253 H
131 3 -0.799729 4.80568 7.31261 5.02198 O
136 3 -0.919923 9.94635 7.37929 4.87376 O
146 3 -0.781651 6.69572 8.76208 3.64924 O
147 3 -0.838008 8.20939 7.78448 2.1387 O
148 3 -0.941044 8.59641 10.4091 2.96376 O
149 3 -0.809133 3.81948 9.44249 2.78464 O
150 3 -0.806633 4.57953 11.9458 3.36677 O
151 3 -0.858804 2.49463 11.0861 4.39952 O
153 3 -0.835936 6.68713 9.71953 1.12594 O
154 3 -0.795143 6.05773 12.3347 1.00261 O
155 3 -0.862006 6.26148 7.64979 8.23035 O
156 3 -0.847033 8.23504 8.39425 6.65354 O
158 3 -0.815836 7.48994 11.5607 5.12683 O
159 3 -0.817782 4.98753 10.3854 5.19208 O
160 3 -0.891147 6.45184 10.2308 7.25814 O
161 3 -0.757897 5.23385 12.5821 6.32442 O
361 2 0.110792 7.03315 13.2392 8.42457 H
115 3 -0.840157 1.34648 11.9834 6.63336 O
25 4 1.2409 0.346358 13.0918 7.16207 Si
50 4 1.15235 8.48854 6.91326 0.816971 Si
191 1 -0.0697818 3.31416 13.2282 1.071 C
8 4 1.80219 11.0669 6.9247 3.88426 Si
277 2 0.11793 5.74965 6.95996 1.60954 H
19 4 1.58063 8.71476 10.7885 9.58227 Si
21 4 1.25338 8.53187 11.0146 16.0389 Si
144 3 -0.847756 7.11673 6.83478 10.6414 O
346 2 0.0128702 10.136 7.22112 16.4934 H
183 1 -0.0793302 4.35569 6.88127 13.5501 C
366 2 0.00304171 5.17046 12.8866 11.9107 H
62 4 1.48095 7.7081 8.86796 13.9405 Si
63 4 1.13594 3.31377 10.9725 16.1438 Si
64 4 0.75447 6.7917 10.9242 11.8353 Si
142 3 -0.768262 4.75915 7.56366 16.8032 O
143 3 -0.80487 9.77609 7.40815 10.4433 O
152 3 -0.830914 6.96316 11.2568 16.4125 O
157 3 -0.864064 7.97324 9.41862 9.11055 O
162 3 -0.891203 6.93839 7.93602 15.0206 O
163 3 -0.825759 8.48123 7.94073 12.749 O
164 3 -0.837396 8.6522 9.84447 14.9917 O
165 3 -0.781498 2.82156 9.94416 15.0139 O
166 3 -0.74052 4.28369 10.6323 17.3595 O
167 3 -0.816406 2.07796 11.9518 16.5006 O
168 3 -0.813283 8.1302 11.1488 11.0091 O
169 3 -0.756392 6.73395 9.88886 13.0717 O
190 1 -0.148556 2.20849 12.1139 10.9905 C
201 1 -0.111996 4.60162 12.2108 15.1151 C
202 1 -0.115231 5.30353 10.1531 10.7173 C
203 1 -0.138948 6.15578 12.7949 12.3285 C
341 1 -0.141124 3.71877 13.0278 8.93933 C
242 2 0.0634339 5.03717 7.44752 12.9596 H
261 2 0.0166166 2.15147 13.1959 11.0797 H
55 4 1.37995 6.16147 7.15652 16.1927 Si
255 2 0.0490261 3.60799 8.84701 12.4795 H
259 2 0.0350411 2.14383 11.7469 10.0123 H
260 2 0.0114667 2.93619 11.6052 11.5461 H
240 2 0.147345 4.12036 7.45688 14.5021 H
283 2 0.0271418 4.06969 7.71237 10.2685 H
288 2 0.115665 5.50847 11.5896 15.055 H
252 2 0.00231128 3.28046 9.93428 9.32616 H
290 2 0.0304076 4.00121 12.2881 14.1993 H
291 2 0.0835024 5.5751 9.08124 10.7591 H
292 2 0.0383772 5.41767 10.6975 9.75073 H
293 2 0.0166763 4.46093 10.3438 11.2953 H
342 2 0.0122509 4.25901 12.2038 9.39018 H
295 2 0.0395285 6.11049 12.7408 13.404 H
294 2 0.0384592 6.83603 13.508 11.8734 H
56 4 1.50559 8.53248 6.97531 11.3984 Si
364 2 0.123283 8.97177 8.60718 16.4626 H
344 1 -0.0925353 9.65381 8.0217 17.0236 C
308 2 0.120974 1.12842 12.9038 14.8615 H
289 2 0.0266896 4.68902 13.0648 15.7711 H
365 2 0.0507337 10.5656 7.45195 14.1151 H
ITEM: TIMESTEP
100
ITEM: NUMBER OF ATOMS
366
ITEM: BOX BOUNDS xy xz yz pp pp pp
-7.6516000000000002e+00 1.5037200000000000e+01 -7.4931000000000001e+00
0.0000000000000000e+00 1.3916444000000000e+01 -1.5850000000000000e-01
0.0000000000000000e+00 1.7607399999999998e+01 3.8144400000000012e-01
ITEM: ATOMS id type q x y z element
207 2 0.0714785 -1.78695 5.249 8.69264 H
3 4 1.09527 1.74615 1.95547 0.437044 Si
5 4 1.59968 0.921576 1.60607 5.66874 Si
7 4 1.56184 0.297446 4.20554 1.98586 Si
91 3 -0.798424 2.84904 0.722831 8.77147 O
10 4 0.761093 -0.248146 4.21032 6.97168 Si
340 2 0.0983173 3.06484 5.39937 1.38519 H
24 4 1.23784 3.6652 1.87602 4.21826 Si
27 4 1.49741 6.22503 1.77743 5.81186 Si
28 4 1.56092 1.58426 6.23101 4.15626 Si
65 3 -0.803285 1.65634 0.564089 1.21125 O
66 3 -0.777548 -0.396629 1.26248 4.60988 O
171 1 -0.0957861 -1.72142 4.20658 8.39168 C
69 3 -0.850117 -0.81618 3.13676 2.6105 O
70 3 -0.83649 1.43381 3.31027 1.26707 O
71 3 -0.858166 -0.490757 5.19763 0.93364 O
72 3 -0.791639 0.194809 2.72355 6.63168 O
338 1 -0.105358 3.32304 5.15699 0.354573 C
74 3 -0.745984 -0.819498 5.11761 5.77736 O
89 3 -0.783474 3.68799 0.809493 3.01098 O
90 3 -0.820528 2.17565 2.0596 4.77003 O
67 3 -0.816561 1.49181 0.374651 6.59632 O
92 3 -0.766053 4.69068 1.53902 5.40484 O
227 2 0.127887 3.38582 4.39599 3.98372 H
94 3 -0.82506 1.0889 4.95892 3.24709 O
96 3 -0.732603 4.08436 3.24144 8.14162 O
98 3 -0.870593 2.60531 5.87528 5.36701 O
297 3 -0.612491 6.50688 0.72966 1.08357 O
172 1 -0.0780586 1.3989 5.10765 7.78162 C
178 1 -0.0914254 4.19405 3.86166 3.56581 C
208 2 0.143619 2.2801 4.58968 7.41247 H
263 2 0.120196 -0.365701 1.20954 7.93964 H
210 2 0.0844336 1.38159 6.14136 7.4879 H
225 2 0.0260708 4.24587 3.80162 2.51778 H
226 2 0.0853228 5.13606 4.09697 4.03526 H
9 4 1.23141 -1.05345 6.51703 0.258063 Si
12 4 1.57261 -1.15409 6.69824 5.47387 Si
93 3 -0.78699 6.74144 0.267869 6.11733 O
317 2 0.138024 -1.22795 2.26485 0.885988 H
315 2 0.0868295 4.41153 1.97696 0.780985 H
356 2 0.0234111 4.2784 4.67118 0.180352 H
6 4 0.660663 -0.606134 2.60737 16.1143 Si
13 4 1.01721 -0.514468 4.74012 13.9721 Si
14 4 0.726317 -1.61943 6.24224 11.5881 Si
229 2 0.0958989 5.45721 0.528334 10.4932 H
305 2 0.0143644 5.4415 2.54558 13.8171 H
75 3 -0.673081 -0.973142 4.07776 15.4459 O
76 3 -0.759672 -2.8998 6.0615 10.7025 O
77 3 -0.700685 -1.64434 5.33082 12.9089 O
100 3 -0.820865 0.492563 6.00432 14.2176 O
339 2 0.0980449 2.35333 4.65049 17.4117 H
173 1 -0.134774 0.509165 3.30456 12.7415 C
175 1 -0.149478 -0.00835606 5.84694 10.4829 C
26 4 0.742348 3.77058 2.02134 9.15784 Si
180 1 -0.139585 2.9027 2.79724 10.7844 C
181 1 -0.0941987 3.24138 4.07759 14.3813 C
205 2 0.0323282 -0.397667 1.21419 14.0282 H
206 2 0.0149328 -1.34971 3.5506 9.18395 H
179 1 -0.0708751 5.58755 1.18518 9.64446 C
211 2 0.0258521 -0.325896 2.67712 12.4342 H
212 2 0.0321376 1.14715 2.81483 13.4452 H
213 2 0.0286045 0.993878 3.81867 11.9018 H
307 2 0.017768 5.32252 2.02773 12.1197 H
218 2 0.0141577 -0.044759 4.78951 10.4535 H
219 2 0.0239561 0.832629 6.20153 11.0603 H
217 2 0.0187491 -0.223758 6.32002 9.57048 H
68 3 -0.72126 0.915051 2.23305 16.5465 O
231 2 0.0366804 2.56895 3.77707 10.4232 H
232 2 0.00233427 3.72374 2.89003 11.4529 H
233 2 0.0380313 2.10706 2.09729 11.0214 H
234 2 0.0468308 3.34645 3.24923 15.0686 H
235 2 0.0186184 3.1187 3.82399 13.3631 H
236 2 0.112784 2.47728 4.78046 14.7162 H
321 2 0.0839787 -2.80605 5.13852 16.3976 H
230 2 0.0369991 6.21517 2.03148 9.83027 H
330 2 0.0592725 5.39774 1.36083 15.8188 H
303 1 -0.142505 5.14033 1.80556 13.1235 C
327 1 -0.108337 5.87524 2.35661 15.9749 C
306 2 0.0358909 4.12292 1.45285 13.3263 H
302 4 0.662829 6.24481 0.0887985 13.5634 Si
314 2 0.095717 3.64906 0.975799 17.0753 H
320 1 -0.143572 -2.95679 6.05478 16.9174 C
329 2 0.0662187 5.2391 3.20604 16.1318 H
313 2 0.0174026 3.57971 2.70661 16.8254 H
282 2 0.0614625 3.69727 6.29656 9.35869 H
312 1 -0.103488 3.6143 1.93203 17.5314 C
349 2 0.103913 -2.98662 6.42045 13.9137 H
241 2 0.0373815 3.42697 6.58691 13.0999 H
209 2 0.00891761 1.25405 4.92947 8.82618 H
353 2 0.0701469 2.8282 0.182407 10.8414 H
228 2 0.138329 5.92616 0.571463 8.82661 H
4 4 1.6394 -5.18543 13.0906 7.80653 Si
39 4 1.68139 1.37287 10.7644 5.51734 Si
15 4 1.64189 -2.44457 8.8416 1.87412 Si
17 4 1.61828 -3.96312 11.1268 0.378779 Si
18 4 1.65006 -2.30883 8.73532 7.62841 Si
20 4 1.85544 -3.74852 11.0156 6.01821 Si
23 4 1.45699 -0.0511886 13.3335 2.2214 Si
104 3 -0.799833 2.74951 7.99504 0.671389 O
111 3 -0.80784 -0.342142 12.4111 8.52402 O
35 4 1.69618 -1.35788 11.1292 3.95542 Si
37 4 0.779223 2.37741 8.66393 7.49268 Si
78 3 -0.863811 -3.66316 7.89865 2.49666 O
79 3 -0.881479 -1.45277 7.75884 1.23152 O
80 3 -0.893355 -2.9966 9.73216 0.630041 O
81 3 -0.854435 -4.13262 12.0316 1.62035 O
95 3 -0.845524 0.329882 7.03509 4.68391 O
83 3 -0.907458 -1.50833 7.62549 6.78133 O
358 2 0.0715395 -0.333212 9.47163 0.503315 H
85 3 -0.911747 -5.03645 10.7574 5.1187 O
86 3 -0.884614 -3.33923 9.65989 6.77519 O
87 3 -0.892887 -4.06486 12.1864 7.02529 O
1 4 1.56856 -4.9271 13.3103 2.38201 Si
103 3 -0.818047 2.64957 6.89906 3.0334 O
105 3 -0.891593 -1.72715 9.82148 2.90669 O
106 3 -0.812022 -1.11405 12.5021 3.17815 O
107 3 -0.843642 -2.64635 11.4564 4.91699 O
34 4 1.08936 2.7159 8.31792 2.25805 Si
109 3 -0.806276 3.27403 7.37836 7.33921 O
113 3 -0.908889 -0.0845092 10.7275 4.82191 O
114 3 -0.775123 1.65358 9.32966 6.24259 O
184 1 -0.0686797 0.936608 9.35959 2.53419 C
110 3 -0.825296 -1.20939 9.86554 8.09514 O
243 2 0.144044 0.623953 9.18114 3.52295 H
244 2 0.0872901 0.282023 8.87407 1.80008 H
245 2 0.0865501 1.17983 10.3627 2.26572 H
248 2 0.124559 0.0534959 8.01035 8.13379 H
310 3 -0.859487 -5.79427 12.7163 3.63915 O
16 4 1.82476 -6.23254 11.2972 4.25539 Si
84 3 -0.862178 -6.26772 12.0862 8.50116 O
345 2 0.109886 -4.36219 8.18438 0.104815 H
73 3 -0.856661 -2.3719 6.84367 4.40313 O
22 4 0.771025 -3.72889 11.3421 10.7888 Si
33 4 1.57 0.73187 7.11246 15.3597 Si
36 4 1.12407 0.636984 11.7551 17.3631 Si
38 4 1.37092 -1.10924 11.1285 9.16533 Si
40 4 1.1093 1.56911 9.68726 14.04 Si
41 4 1.12942 -2.07535 11.8433 15.8438 Si
42 4 1.05844 0.313168 11.5994 11.945 Si
88 3 -0.687236 -4.78623 10.5128 9.9202 O
185 1 -0.0833497 0.260829 9.70632 17.3346 C
249 2 0.0939835 0.702597 9.15702 9.47106 H
112 3 -0.718974 -2.44518 11.7324 9.89177 O
116 3 -0.845861 0.591229 8.56163 14.6135 O
117 3 -0.807747 -0.623818 12.155 16.4721 O
118 3 -0.710034 -2.23729 12.5857 14.4152 O
119 3 -0.840652 -3.37823 12.0155 16.7831 O
120 3 -0.739995 -0.0938525 10.5802 10.7505 O
121 3 -0.7881 0.886095 11.0397 13.3325 O
122 3 -0.698569 -0.753946 12.8283 12.2436 O
174 1 -0.0902084 -1.19611 8.24062 11.9431 C
176 1 -0.0903669 -3.35506 10.2239 12.531 C
177 1 -0.110512 -4.59818 12.9653 11.6536 C
357 2 0.130652 1.13756 9.05494 17.4162 H
324 2 0.0345077 -6.56833 12.6038 14.2601 H
189 1 -0.117993 -2.21417 9.75765 15.4585 C
214 2 0.0700715 -0.0952689 8.39728 11.7353 H
215 2 0.0534818 -1.51406 8.41262 13.02 H
216 2 0.091942 -1.8195 8.76572 11.2037 H
220 2 0.0609008 -4.13728 10.5755 13.18 H
221 2 0.0734125 -2.35113 10.6201 12.7271 H
222 2 0.0575192 -3.44806 9.17647 12.2738 H
82 3 -0.805233 -2.89481 8.21921 9.09737 O
325 2 0.0788909 -4.83902 12.6161 14.7743 H
246 2 0.0827451 -0.157932 9.57858 16.3331 H
247 2 0.0096195 1.23268 7.48584 9.44809 H
102 3 -0.859754 -0.131138 7.03497 16.7487 O
223 2 0.0484252 -3.87719 13.143 12.4513 H
254 2 0.0326332 2.28668 7.83654 12.1142 H
256 2 0.0711476 -2.06784 9.29241 16.3801 H
257 2 0.076857 -1.44012 9.42907 14.7619 H
258 2 0.0382272 -3.2069 9.60621 15.1042 H
101 3 -0.831863 2.30041 6.92287 15.7588 O
311 3 -0.858544 -5.53095 10.6813 17.3826 O
323 1 -0.104767 -5.86023 12.6598 15.091 C
224 2 0.0741076 -5.60958 12.6754 11.9573 H
348 2 0.0887886 -4.07523 7.21274 12.7221 H
29 4 1.18758 3.17453 7.15497 17.1201 Si
322 2 0.0120758 -3.03774 6.87564 16.2068 H
326 2 0.0806297 -6.11241 13.5312 15.7382 H
11 4 1.36645 -3.85685 6.9134 9.62246 Si
186 1 -0.0903233 0.841856 8.26627 8.82876 C
334 1 -0.113457 8.86899 1.10735 7.85362 C
337 2 0.0821936 8.3624 2.02706 7.48398 H
134 3 -0.815736 10.9307 6.13263 8.08619 O
44 4 1.56375 8.54102 2.2312 3.84621 Si
30 4 1.42908 5.4072 4.1254 7.6756 Si
46 4 1.58103 11.1111 2.6125 5.74808 Si
48 4 1.18847 9.93605 4.54729 2.41207 Si
51 4 1.25422 10.0763 5.0425 7.40057 Si
97 3 -0.823135 6.25741 2.77873 7.15642 O
301 2 0.116368 6.76108 3.39095 2.16664 H
123 3 -0.870285 12.9796 0.963381 2.49361 O
124 3 -0.85528 8.48794 0.799992 3.04677 O
125 3 -0.808993 7.03616 2.54788 4.5303 O
126 3 -0.79356 12.1482 2.51609 4.39723 O
127 3 -0.833931 9.57989 2.2565 5.1063 O
128 3 -0.831863 11.6466 1.45884 6.70967 O
129 3 -0.845538 8.8823 3.43292 2.83993 O
130 3 -0.835648 10.4397 5.54615 3.55852 O
132 3 -0.807515 9.1284 5.29223 1.21231 O
133 3 -0.864562 10.9037 3.97481 6.52918 O
299 2 0.0234572 5.58169 4.01933 0.88105 H
137 3 -0.844568 7.47753 6.72575 4.74348 O
138 3 -0.830172 8.92533 5.72988 6.52655 O
279 2 0.122526 7.9869 4.25273 8.78411 H
196 1 -0.0964404 11.7123 3.69677 1.53588 C
197 1 -0.0861053 5.52067 6.41483 2.47842 C
359 2 0.0193253 11.2444 0.272915 0.180723 H
273 2 0.0167788 11.5414 3.65434 0.4741 H
274 2 0.0916431 11.7396 2.65606 1.89904 H
275 2 0.115561 12.5545 4.36539 1.82829 H
276 2 0.0563281 6.20937 5.56049 2.48239 H
2 4 1.58374 13.5674 1.97987 3.6081 Si
278 2 0.0920398 4.49973 6.1378 2.76721 H
354 2 0.051294 9.44791 2.04348 0.679093 H
300 2 0.142996 7.34641 4.42625 0.750063 H
352 2 0.110937 12.43 3.81495 7.89018 H
298 1 -0.0592127 6.61246 3.72462 1.15914 C
296 4 0.299086 6.96446 2.02182 0.162066 Si
99 3 -0.821578 4.87295 5.22848 6.49983 O
335 2 0.0972798 9.85909 0.942225 7.40884 H
192 1 -0.108354 13.9297 0.771222 8.59874 C
45 4 0.84467 12.4116 0.16744 7.28547 Si
360 2 0.108611 10.1773 0.47549 1.73727 H
351 2 0.0149769 11.5233 5.90404 0.13028 H
31 4 1.58457 3.93653 6.50695 6.09213 Si
141 3 -0.844901 7.24477 6.58881 0.0179042 O
284 2 0.00772281 4.28703 6.63588 11.0673 H
32 4 0.286128 4.92304 5.23969 14.1635 Si
47 4 0.325352 10.3531 2.69639 12.4599 Si
52 4 1.21307 6.16405 6.57092 9.44136 Si
54 4 0.676853 9.73795 5.25063 13.5347 Si
170 1 -0.123629 13.9503 1.12012 14.8558 C
139 3 -0.579366 10.5448 3.82912 13.6178 O
140 3 -0.622989 5.72231 5.3519 15.5897 O
347 1 -0.0834887 11.0494 6.81934 13.713 C
336 2 0.022324 8.91651 0.997748 8.92957 H
145 3 -0.688583 8.8178 5.44346 12.2638 O
182 1 -0.0903761 6.11519 4.59698 12.5735 C
350 2 0.0318817 12.9351 1.38496 14.5857 H
193 1 -0.093366 11.7071 2.96193 11.0551 C
194 1 -0.117131 8.52659 2.38473 11.6143 C
195 1 -0.108405 10.7048 0.862026 13.4006 C
270 2 0.0288347 11.6673 0.746713 13.0369 H
200 1 -0.0949763 8.54296 5.19584 15.2183 C
261 2 0.0268169 9.08631 0.10064 11.1393 H
355 2 0.107477 7.49062 0.378423 15.7396 H
238 2 0.0569464 6.85627 3.98545 13.0292 H
239 2 0.119203 6.53812 5.5348 12.1213 H
198 1 -0.12018 9.07268 4.17825 9.01552 C
264 2 0.125591 12.341 3.79775 11.3532 H
265 2 0.0289415 11.1019 3.23126 10.2182 H
266 2 0.0105428 12.2541 2.07269 10.9932 H
267 2 0.0246323 8.69197 2.06862 10.6142 H
268 2 0.0891236 8.18346 3.39088 11.8236 H
269 2 0.0271933 8.10023 1.60096 12.2583 H
328 2 0.021137 6.74711 2.52187 15.3299 H
280 2 0.0807219 9.30413 4.89281 9.81759 H
272 2 0.0511468 10.636 1.09753 14.4642 H
332 2 0.0400131 9.23552 1.68583 16.6033 H
285 2 0.0813628 8.01456 6.13151 15.1298 H
286 2 0.030959 9.1649 5.18448 16.0857 H
287 2 0.0675033 7.90869 4.35237 15.0728 H
304 1 -0.0929235 7.90217 0.562488 14.7394 C
362 2 0.00980997 13.4204 1.54307 9.18672 H
309 2 0.0171887 8.28745 1.58877 14.4836 H
316 1 -0.0974962 13.2499 1.93179 17.5573 C
237 2 0.0212236 5.48978 4.07635 11.9097 H
363 2 0.0107848 11.0573 0.384312 9.50554 H
319 2 0.0168062 12.2254 2.23157 17.3328 H
333 2 0.0478684 9.00798 3.42697 17.1419 H
204 2 0.0556408 14.0778 0.242659 15.4369 H
271 2 0.030376 10.057 0.0704623 13.0224 H
331 1 -0.107085 8.86484 2.38267 17.3611 C
135 3 -0.830271 6.09346 5.02976 8.90589 O
281 2 0.00588442 9.44082 3.20223 9.03222 H
318 2 0.084565 13.4084 0.905422 17.5736 H
108 3 -0.83295 0.768572 12.286 1.28729 O
250 2 0.0781157 3.47826 10.7917 7.57393 H
43 4 1.29502 5.0783 13.0254 2.0707 Si
49 4 1.32251 6.1206 7.41933 4.22562 Si
262 2 0.135379 2.90176 12.3602 0.913906 H
53 4 1.74467 8.70159 7.08912 5.71022 Si
57 4 1.79465 7.61234 9.20883 2.33497 Si
58 4 1.69941 3.974 10.6145 3.811 Si
60 4 1.64366 7.26673 8.80392 7.79609 Si
61 4 1.67282 6.03155 11.0873 6.06308 Si
187 1 -0.10966 3.4431 10.0511 8.29641 C
251 2 0.0846607 4.36191 9.53728 8.44098 H
59 4 1.70961 6.10656 10.928 0.163439 Si
343 2 0.0638907 3.01922 12.4867 8.40392 H
131 3 -0.856924 4.80721 7.37676 5.06734 O
136 3 -0.808465 10.0557 7.52609 4.95042 O
146 3 -0.841251 6.63575 8.76253 3.52109 O
147 3 -0.842191 8.46247 7.90964 1.9681 O
148 3 -0.902681 8.56987 10.2132 3.079 O
149 3 -0.790339 3.89915 9.24207 2.87418 O
150 3 -0.871372 4.53269 11.8977 3.09162 O
151 3 -0.931911 2.44096 10.9255 4.36122 O
153 3 -0.919705 6.83188 9.76607 1.04345 O
154 3 -0.868962 6.0082 12.3108 1.03371 O
155 3 -0.862149 6.41154 7.52594 8.18779 O
156 3 -0.871612 8.26552 8.39565 6.61194 O
158 3 -0.82739 7.39816 11.3752 5.08954 O
159 3 -0.857432 4.97115 10.4472 5.03778 O
160 3 -0.912896 6.34844 10.106 7.34618 O
161 3 -0.810046 5.34501 12.4741 6.42237 O
277 2 0.123084 5.60146 7.15735 1.65234 H
115 3 -0.834907 1.27938 11.9146 6.67113 O
8 4 1.65179 11.1455 6.96238 3.82702 Si
50 4 1.15307 8.61848 6.78653 0.827497 Si
191 1 -0.0800581 3.3083 13.3877 1.06361 C
25 4 1.17057 0.238266 13.0747 7.16565 Si
19 4 1.49122 8.6662 10.7457 9.56282 Si
21 4 1.1824 8.53143 10.9353 16.1695 Si
144 3 -0.871493 7.09153 6.86685 10.727 O
346 2 0.00379271 10.0904 7.17144 16.3392 H
361 2 0.0598336 6.80832 13.3638 9.10237 H
366 2 0.00211353 5.19477 12.8593 11.8049 H
62 4 1.45582 7.59388 8.87659 14.0303 Si
63 4 1.13235 3.27988 11.0364 16.1315 Si
64 4 0.710164 6.78266 10.8931 11.8742 Si
142 3 -0.755229 4.69195 7.5862 16.8008 O
143 3 -0.802796 9.74385 7.19841 10.4673 O
152 3 -0.848446 6.99707 11.3145 16.5934 O
157 3 -0.870781 8.0009 9.36239 9.1577 O
162 3 -0.844131 6.79028 7.85009 15.0377 O
163 3 -0.843779 8.45366 8.00976 12.838 O
164 3 -0.808813 8.62226 9.71636 15.0809 O
165 3 -0.772407 2.6886 9.87316 15.2033 O
166 3 -0.851008 4.48495 10.756 17.2302 O
167 3 -0.818962 2.05398 11.9674 16.6752 O
168 3 -0.776537 8.17346 11.0768 11.0806 O
169 3 -0.752639 6.69008 10.0334 13.2528 O
190 1 -0.13565 1.91349 12.6467 11.1041 C
201 1 -0.112026 4.49326 12.0816 14.7965 C