LAMMPS (2 Aug 2023 - Update 2)
  using 1 OpenMP thread(s) per MPI task
Reading data file ...
  triclinic box = (0 0 0) to (15.724 13.9031 17.2465) with tilt (-7.584 0.1778 0.4371)
WARNING: Triclinic box skew is large. LAMMPS will run inefficiently. (src/domain.cpp:220)
  1 by 2 by 2 MPI processor grid
  reading atoms ...
  366 atoms
Finding 1-2 1-3 1-4 neighbors ...
  special bond factors lj:    0        0        0       
  special bond factors coul:  0        0        0       
     0 = max # of 1-2 neighbors
     0 = max # of 1-3 neighbors
     0 = max # of 1-4 neighbors
     1 = max # of special neighbors
  special bonds CPU = 0.000 seconds
  read_data CPU = 0.007 seconds
WARNING: Van der Waals parameters for element SI indicate inner wall+shielding, but earlier atoms indicate a different van der Waals method. This may cause division-by-zero errors. Keeping van der Waals setting for earlier atoms. (src/REAXFF/reaxff_ffield.cpp:251)
*****Minimization starts.*****

CITE-CITE-CITE-CITE-CITE-CITE-CITE-CITE-CITE-CITE-CITE-CITE-CITE

Your simulation uses code contributions which should be cited:
- pair reaxff command: doi:10.1016/j.parco.2011.08.005
- fix qeq/reaxff command: doi:10.1016/j.parco.2011.08.005
The log file lists these citations in BibTeX format.

CITE-CITE-CITE-CITE-CITE-CITE-CITE-CITE-CITE-CITE-CITE-CITE-CITE

Switching to 'neigh_modify every 1 delay 0 check yes' setting during minimization
WARNING: Fix qeq/reaxff group is not charge neutral, net charge = -29.52 (src/REAXFF/fix_qeq_reaxff.cpp:392)
Neighbor list info ...
  update: every = 1 steps, delay = 0 steps, check = yes
  max neighbors/atom: 2000, page size: 100000
  master list distance cutoff = 12
  ghost atom cutoff = 12
  binsize = 6, bins = 4 3 3
  2 neighbor lists, perpetual/occasional/extra = 2 0 0
  (1) pair reaxff, perpetual
      attributes: half, newton off, ghost
      pair build: half/bin/newtoff/ghost
      stencil: full/ghost/bin/3d
      bin: standard
  (2) fix qeq/reaxff, perpetual, copy from (1)
      attributes: half, newton off
      pair build: copy
      stencil: none
      bin: none
Setting up cg style minimization ...
  Unit style    : real
  Current step  : 0
Per MPI rank memory allocation (min/avg/max) = 162.9 | 164.6 | 166.1 Mbytes
   Step          Temp          Press         Density         Volume         PotEng         TotEng    
         0   0             -891.25897      1.8952586      3770.2978     -40261.317     -40261.317    
        43   0             -15924.322      1.8952586      3770.2978     -41381.081     -41381.081    
Loop time of 9.1107 on 4 procs for 43 steps with 366 atoms

94.8% CPU use with 4 MPI tasks x 1 OpenMP threads

Minimization stats:
  Stopping criterion = energy tolerance
  Energy initial, next-to-last, final = 
     -40261.3171097201  -41381.0564689357  -41381.0806981587
  Force two-norm initial, final = 1496.093 147.47464
  Force max component initial, final = 339.9256 68.09964
  Final line search alpha, max atom move = 0.0078573473 0.53508252
  Iterations, force evaluations = 43 133

MPI task timing breakdown:
Section |  min time  |  avg time  |  max time  |%varavg| %total
---------------------------------------------------------------
Pair    | 6.1581     | 6.4623     | 6.8873     |  12.2 | 70.93
Bond    | 0.00038217 | 0.0003913  | 0.00040264 |   0.0 |  0.00
Neigh   | 0          | 0          | 0          |   0.0 |  0.00
Comm    | 0.49022    | 0.91448    | 1.2173     |  32.3 | 10.04
Output  | 0.011812   | 0.013935   | 0.01539    |   1.1 |  0.15
Modify  | 1.7084     | 1.7085     | 1.7086     |   0.0 | 18.75
Other   |            | 0.01114    |            |       |  0.12

Nlocal:           91.5 ave          93 max          88 min
Histogram: 1 0 0 0 0 0 0 0 1 2
Nghost:         4172.5 ave        4209 max        4132 min
Histogram: 1 1 0 0 0 0 0 0 0 2
Neighs:        60451.5 ave       61385 max       58229 min
Histogram: 1 0 0 0 0 0 0 0 1 2

Total # of neighbors = 241806
Ave neighs/atom = 660.67213
Ave special neighs/atom = 0
Neighbor list builds = 0
Dangerous builds = 0
System init for write_data ...
##### Equilibration starts.##### 
WARNING: Compute rdf cutoff less than neighbor cutoff - forcing a needless neighbor list build (src/compute_rdf.cpp:179)
Neighbor list info ...
  update: every = 10 steps, delay = 0 steps, check = yes
  max neighbors/atom: 2000, page size: 100000
  master list distance cutoff = 12
  ghost atom cutoff = 12
  binsize = 6, bins = 4 3 3
  3 neighbor lists, perpetual/occasional/extra = 2 1 0
  (1) pair reaxff, perpetual
      attributes: half, newton off, ghost
      pair build: half/bin/newtoff/ghost
      stencil: full/ghost/bin/3d
      bin: standard
  (2) compute rdf, occasional
      attributes: half, newton on, cut 7
      pair build: half/bin/newton/tri
      stencil: half/bin/3d/tri
      bin: standard
  (3) fix qeq/reaxff, perpetual, copy from (1)
      attributes: half, newton off
      pair build: copy
      stencil: none
      bin: none
Setting up Verlet run ...
  Unit style    : real
  Current step  : 0
  Time step     : 0.5
Per MPI rank memory allocation (min/avg/max) = 167.8 | 169.1 | 170.2 Mbytes
   Step          Temp          Press          PotEng         TotEng    
         0   300           -11967.819     -41381.081     -41054.682    
       100   203.70863      867.79998     -41238.058     -41016.424    
Loop time of 6.1045 on 4 procs for 100 steps with 366 atoms

Performance: 0.708 ns/day, 33.914 hours/ns, 16.381 timesteps/s, 5.996 katom-step/s
98.4% CPU use with 4 MPI tasks x 1 OpenMP threads

MPI task timing breakdown:
Section |  min time  |  avg time  |  max time  |%varavg| %total
---------------------------------------------------------------
Pair    | 5.0702     | 5.2414     | 5.3935     |   5.5 | 85.86
Bond    | 0.00028356 | 0.00030203 | 0.00031659 |   0.0 |  0.00
Neigh   | 0          | 0          | 0          |   0.0 |  0.00
Comm    | 0.16835    | 0.3206     | 0.49206    |  22.2 |  5.25
Output  | 0.00042023 | 0.00082215 | 0.0014773  |   0.0 |  0.01
Modify  | 0.53732    | 0.53761    | 0.53777    |   0.0 |  8.81
Other   |            | 0.003803   |            |       |  0.06

Nlocal:           91.5 ave          93 max          88 min
Histogram: 1 0 0 0 0 0 0 0 1 2
Nghost:           4158 ave        4191 max        4129 min
Histogram: 2 0 0 0 0 0 0 1 0 1
Neighs:        60459.2 ave       61428 max       58246 min
Histogram: 1 0 0 0 0 0 0 0 2 1

Total # of neighbors = 241837
Ave neighs/atom = 660.75683
Ave special neighs/atom = 0
Neighbor list builds = 0
Dangerous builds = 0
System init for write_data ...
WARNING: Compute rdf cutoff less than neighbor cutoff - forcing a needless neighbor list build (src/compute_rdf.cpp:179)
Total wall time: 0:00:15
