ITEM: TIMESTEP
0
ITEM: NUMBER OF ATOMS
274
ITEM: BOX BOUNDS xy xz yz pp pp pp
-8.3797999999999995e+00 1.8013900000000000e+01 -8.3797999999999995e+00
0.0000000000000000e+00 1.3273200000000001e+01 1.1950000000000001e+00
0.0000000000000000e+00 1.6075500000000002e+01 4.3120000000000003e-01
ITEM: ATOMS id type q x y z
119 2 0.0075212 7.36786 1.23302 5.28466
12 4 1.305 -0.996022 6.46192 5.30917
7 4 1.10315 0.911585 2.20187 5.17832
9 4 1.25192 -0.331825 4.73166 1.83393
10 4 1.56671 0.284129 4.42106 7.24978
242 1 -0.686867 3.24523 0.490568 3.16246
21 4 0.814618 5.69452 1.43844 5.70759
26 4 1.25083 5.36384 4.37513 6.80933
41 1 -0.674952 0.975833 0.578701 6.19723
44 1 -0.676659 3.74554 4.01791 1.80979
55 3 -0.791999 1.14621 0.948789 1.12899
56 3 -0.824015 -0.492089 2.41387 4.39565
58 3 -0.777028 -1.69111 4.52008 2.71756
59 3 -0.866589 0.0839074 3.45847 1.04043
243 2 0.151715 3.62683 1.57521 3.21231
61 3 -0.752678 1.3402 3.2916 6.21556
62 3 -0.843133 -0.76045 5.34812 6.44103
74 3 -0.834699 5.87503 0.410019 7.37017
78 3 -0.873428 0.601711 5.4251 2.89604
81 3 -0.818381 5.50346 2.96943 5.94714
84 3 -0.821561 2.81668 5.97011 4.18831
85 3 -0.787787 4.79986 5.67672 5.92532
113 2 0.122332 -1.49554 5.51749 4.0014
111 2 0.0135278 2.19167 1.86469 4.04239
112 2 -0.0330261 -0.645857 5.84599 0.591903
24 4 1.18997 4.69154 4.91019 0.49435
118 2 -0.0319866 4.43867 0.733874 4.75732
5 4 1.31823 0.488812 2.12006 0.212754
222 3 -0.778459 6.32365 1.47272 1.27519
223 2 -0.0929722 6.2608 0.937965 4.00027
141 2 0.171832 3.79251 2.91228 1.54849
142 2 0.206282 2.73639 4.5326 1.70543
143 2 0.188166 4.35252 4.19431 2.79125
220 4 1.01473 6.80863 0.400067 2.33219
82 3 -0.806121 1.37606 5.43766 7.84352
135 2 0.236226 0.537175 0.931526 7.19706
197 2 0.202385 4.39156 0.674817 0.0661422
138 2 0.171264 1.72371 0.526045 12.2345
8 4 1.23808 1.78529 2.61143 10.9725
13 4 1.22899 0.453637 4.92252 12.3227
229 2 -0.00332076 3.61719 6.31791 13.2329
20 4 1.27387 4.65265 2.79423 9.33828
23 4 1.25217 6.99196 2.68823 11.2295
99 3 -0.857958 8.34674 1.11071 8.32404
226 4 0.869347 3.40894 6.27301 14.9338
42 1 -0.670603 2.34974 1.47256 12.3467
57 3 -0.830184 0.398015 2.01805 10.4305
63 3 -0.863994 -0.210938 3.73903 13.2405
64 3 -0.813208 1.88749 4.39672 11.8126
65 3 -0.849742 -2.32572 6.52914 9.61285
66 3 -0.893673 -0.489772 5.50684 11.1961
73 3 -0.754317 3.17463 2.38959 9.91973
75 3 -0.854616 5.64409 3.07222 10.5566
76 3 -0.871427 6.96431 1.25537 11.9012
80 3 -0.772682 4.69046 4.03264 8.49468
29 4 0.961379 3.769 6.62451 11.0175
137 2 0.191371 3.44673 1.33267 12.2612
114 2 -0.0600759 0.948239 6.10766 13.4103
248 2 0.188632 3.77267 3.96156 15.4325
124 2 0.0811498 3.4234 5.11793 11.6822
136 2 0.168818 2.03312 2.10788 13.2542
179 4 1.25347 7.35907 2.5767 15.77
183 1 -0.674001 5.84863 1.64569 15.1456
77 3 -0.747212 7.10068 4.06814 15.8366
60 3 -0.841228 -0.378435 3.49205 8.40343
196 2 0.173207 5.14896 2.52584 14.9174
117 2 0.0801768 5.17463 1.49 8.38122
227 3 -0.818377 4.7773 5.78464 15.5541
195 2 0.213426 6.05351 0.925039 14.2914
245 1 -0.697499 3.03229 3.21119 15.0628
246 2 0.151299 2.46611 3.55493 14.1387
247 2 0.16276 3.52187 2.13002 14.901
262 3 -0.809086 0.379699 1.92245 15.3754
228 2 -0.0245856 2.31341 5.02895 15.2794
266 2 0.0706208 -1.7984 5.164 15.8799
149 2 0.147947 2.35844 9.1946 7.74408
3 3 -0.812518 -5.86273 11.4344 0.92128
268 2 0.165345 -4.71804 8.04023 0.376345
16 4 1.45048 -3.23698 8.18113 6.68801
17 4 1.26904 -4.67138 9.95873 4.75513
154 2 0.188289 1.07849 9.56764 7.40196
161 2 0.188901 -1.08057 10.0526 0.269279
31 4 1.22381 -2.07733 10.3181 3.06329
33 4 1.18558 0.0334129 11.0061 5.5341
48 1 -0.652648 -1.34925 8.97516 1.97632
49 1 -0.6586 0.199523 9.52836 6.68769
122 2 -0.00316891 3.61067 7.95718 5.85314
68 3 -0.832384 -2.03586 7.52347 5.73167
28 4 1.2512 4.10433 6.66027 4.90082
70 3 -0.813178 -4.49552 8.78502 5.80856
79 3 -0.849063 0.440008 7.25918 4.80613
87 3 -0.788869 1.7875 7.71687 2.31779
30 4 1.01154 2.35031 8.25257 0.928859
89 3 -0.757979 -2.21666 11.8225 2.06656
90 3 -0.835646 -3.49483 10.0351 3.6935
93 3 -0.814457 -0.828124 10.7025 4.3199
94 3 -0.827627 -0.298749 12.3079 6.363
115 2 -0.0480396 -4.582 11.3456 5.65336
147 2 0.180671 2.06975 7.70458 6.50523
151 2 0.175528 -0.127962 9.38472 1.54332
152 2 0.177245 -2.16556 8.8821 1.21215
153 2 0.18372 -1.31472 8.11586 2.72868
272 2 0.175119 0.657763 10.276 0.334311
155 2 0.271799 0.243406 8.62417 5.8465
156 2 0.27284 -0.859635 9.50689 7.24184
46 1 -0.664502 2.56186 8.06013 7.47571
148 2 0.169685 3.67649 7.78185 7.54135
271 2 0.162555 1.61594 10.3246 1.98657
19 4 1.39037 -1.00946 12.8219 7.72627
1 4 1.29094 -6.59505 12.5888 2.04898
69 3 -0.841261 -6.07141 9.92282 4.00622
91 3 -0.847432 -2.49921 9.45089 7.82009
265 2 0.198957 -4.31674 12.6763 2.63654
47 1 -0.671046 1.63793 10.0303 0.889911
252 2 0.21683 -5.55387 9.0644 1.80629
244 2 0.129353 -5.51883 12.9054 4.18333
25 4 1.45339 1.45828 6.54935 3.61456
251 1 -0.664431 -5.57429 8.72751 0.689969
133 2 0.146747 -6.35546 12.9992 6.28341
159 2 0.199441 1.43993 10.7554 13.3523
18 4 1.1999 -2.15607 8.20443 12.8027
22 4 1.25716 -0.601027 12.755 11.9942
32 4 0.961218 -2.06159 10.421 8.97513
35 4 1.27447 -1.39557 10.7068 14.2119
43 1 -0.650828 -5.83661 11.1923 14.1677
15 4 1.10914 -4.14393 10.9071 15.9356
157 2 0.213309 1.00717 9.15792 12.4226
51 1 -0.647921 0.134144 11.1188 15.3405
162 2 0.205993 -0.0947966 12.1977 15.5593
72 3 -0.806953 -1.44596 8.30223 11.4292
83 3 -0.800667 0.138217 7.33087 9.30313
158 2 0.166897 1.99667 10.5148 11.5739
92 3 -0.83067 -0.844548 11.3651 8.9508
95 3 -0.834609 3.58315 7.80567 12.0581
96 3 -0.75729 -1.14553 9.08925 13.8612
97 3 -0.835337 -1.30211 11.6318 12.8109
98 3 -0.812002 -2.75814 10.8519 15.1156
116 2 -0.0229162 -3.63971 8.86694 12.7458
120 2 0.0763073 -0.593565 12.103 10.4187
126 2 0.126858 -1.47492 9.40533 10.1766
127 2 -0.0468831 -3.42629 11.1853 9.47775
128 2 0.0726867 2.60797 9.25189 14.2379
140 2 0.169154 -6.05753 12.0576 14.9455
50 1 -0.67201 1.78556 10.0035 12.6091
139 2 0.161035 -5.03117 11.4964 13.4232
160 2 0.16066 1.0733 10.9582 14.7286
88 3 -0.781993 3.17302 7.80479 15.6221
187 3 -0.785829 0.93222 12.909 12.4945
27 4 1.37759 1.68242 6.79413 8.67054
71 3 -0.840538 -2.64064 6.80287 13.4758
14 4 1.52027 -0.908176 6.71623 10.3425
86 3 -0.809613 2.76232 6.77564 9.79324
235 2 0.158058 11.4337 1.4577 3.10554
37 4 1.23805 13.0566 1.96974 5.72219
230 4 1.12617 13.7095 0.197552 2.45872
39 4 1.27536 11.3668 3.93211 7.58946
45 1 -0.67338 7.18251 4.85936 7.03333
54 1 -0.665595 10.4709 5.24548 6.66061
101 3 -0.757505 13.9421 3.11263 4.78181
102 3 -0.862747 13.8525 1.10518 6.7348
221 1 -0.66991 8.68411 0.259341 1.95736
4 4 1.44475 14.9906 2.80804 3.57123
106 3 -0.784379 12.0877 2.92316 6.5626
232 3 -0.824104 14.4076 1.58157 2.65044
129 2 -0.0218593 12.1916 0.8933 4.69625
130 2 0.0812895 7.74545 5.91273 3.07248
169 2 0.22884 10.856 6.25645 7.00033
250 2 0.180021 11.5539 4.82325 0.507261
146 2 0.178401 7.76822 3.97277 6.67848
231 1 -0.667613 11.7398 0.396546 2.84689
145 2 0.173031 7.28541 5.73931 6.34932
170 2 0.176873 9.28331 5.15672 6.78823
171 2 0.189426 10.82 5.0172 5.59456
234 2 0.169427 11.5042 0.0932524 1.75206
224 2 0.176685 8.74918 1.19326 1.2714
249 1 -0.620394 12.4172 5.44491 0.0239366
103 3 -0.758629 5.6399 6.34505 1.24297
225 2 0.134673 9.01081 0.46828 3.041
273 2 0.176621 9.37513 0.121567 0.0409424
207 4 1.30062 14.5558 0.222033 7.75237
11 4 1.51525 13.1002 6.27677 8.97895
36 4 1.32419 9.20947 2.07413 9.20719
52 1 -0.670037 10.5078 0.824795 9.96944
188 3 -0.757304 8.7602 2.01182 14.6576
100 3 -0.829584 8.40475 2.90056 10.3895
107 3 -0.791802 12.6332 4.71835 8.87444
110 2 0.0243404 14.756 2.96031 10.2949
204 2 0.156792 8.04412 6.20945 10.7137
202 2 0.179121 14.0585 3.63861 11.9081
163 2 0.16809 11.4654 1.46368 10.0179
6 4 1.31352 16.052 2.30067 9.37429
165 2 0.238365 10.1282 0.455379 10.9928
172 4 1.00383 16.2384 2.50744 14.1913
173 1 -0.661423 14.6523 1.48832 13.5787
174 2 0.0584674 14.6201 2.7733 14.9585
175 2 0.0911062 15.7238 0.828914 13.1187
176 2 0.162784 14.1128 2.03249 12.6791
144 2 0.17852 7.33768 5.10506 8.14687
178 4 1.10036 13.6239 5.6007 14.3863
180 4 1.26253 9.94502 1.44883 13.8322
181 4 1.28897 11.8989 3.82276 12.6931
205 2 0.171591 9.33953 5.08852 9.42519
185 1 -0.699528 13.1152 3.2049 11.3321
186 1 -0.660991 8.90318 6.27684 9.99764
189 3 -0.778679 10.846 2.64626 13.2283
190 3 -0.826398 12.8753 4.34571 13.846
192 3 -0.757734 11.0315 5.19682 11.9574
263 3 -0.865622 15.4669 1.00842 8.6759
199 2 0.176441 11.9904 1.01605 14.8128
200 2 0.265412 12.958 3.78523 10.2839
201 2 0.132265 12.969 2.0738 11.4168
182 4 1.06008 10.6518 6.25666 10.807
105 3 -0.798022 10.1727 3.09681 8.32524
177 2 0.179664 13.9507 0.748763 14.1335
123 2 -0.0354889 5.33483 6.3418 10.5606
184 1 -0.663932 10.9943 0.518213 14.9637
121 2 0.013438 7.03767 3.86014 12.4876
237 1 -0.676151 7.32248 10.1791 0.0756026
256 2 0.147923 1.42641 11.2738 3.79024
167 2 0.175789 9.1306 7.41726 2.38626
53 1 -0.648571 8.18602 7.40501 2.94133
104 3 -0.823398 5.11818 7.25676 3.85161
233 2 0.158209 2.85059 12.5205 3.62419
125 2 0.0130141 4.04292 8.16502 1.11147
150 2 0.147311 2.55989 10.4664 0.360704
166 2 0.0210685 6.91324 8.54316 2.0737
168 2 0.180877 8.4117 7.80649 3.86983
206 4 1.21358 9.29102 10.3926 3.66099
215 2 0.14992 7.01663 7.96584 6.87726
208 4 1.04635 7.70336 10.2398 6.4366
209 1 -0.653159 6.33796 8.85906 6.51178
255 2 0.159608 2.36677 12.2049 5.24619
211 3 -0.798874 8.25383 10.3519 4.97753
212 3 -0.760654 6.8724 11.7796 7.14293
213 2 -0.00603309 8.65824 9.27742 2.49973
254 1 -0.661064 1.88399 11.2353 4.95497
216 2 0.18943 5.97443 8.75728 5.40645
217 2 0.15211 5.51725 9.24387 7.20793
219 2 0.205995 9.88103 9.10662 7.02271
253 2 0.146463 10.3213 8.33721 0.2707
270 2 0.186384 0.700964 12.2012 1.55158
238 3 -0.791967 5.59665 12.2693 1.00897
240 2 0.159256 8.0283 10.27 0.942034
239 2 0.143871 6.47895 9.36334 0.31222
257 2 0.155108 2.5121 10.3596 5.11208
258 1 -0.673273 5.96888 11.836 3.89103
259 2 0.214656 6.62324 11.1237 3.47107
260 2 0.136933 4.92811 11.4777 4.22537
261 2 0.218149 6.39839 12.5359 4.61252
38 4 0.978302 6.18056 7.00313 2.56063
210 1 -0.663878 9.12898 9.62526 7.65588
134 2 0.229368 8.73204 12.7769 5.60757
2 3 -0.82547 9.21349 11.8641 3.0437
267 2 0.159786 12.4919 6.61898 0.273766
67 3 -0.811584 12.939 6.88688 7.51401
198 2 0.168228 2.58019 12.3083 14.5684
40 4 0.903475 5.97197 11.2766 13.0529
108 3 -0.816609 4.74504 10.2867 12.9053
109 3 -0.826391 6.50931 11.5466 14.4785
214 2 -0.0358408 4.97265 12.4823 8.76916
132 2 -0.0464446 7.42411 10.799 12.3017
236 4 1.07043 7.29875 11.9893 15.774
34 4 1.03043 3.53221 9.27307 12.7385
131 2 -0.0228302 5.66022 12.754 12.4738
193 2 0.0757865 11.1774 9.89394 14.9136
218 2 0.170681 9.55141 10.5542 8.13625
194 2 0.0132871 9.56757 7.47183 11.4225
241 2 0.164096 9.04844 10.2819 15.2272
191 3 -0.783348 11.7987 7.02597 10.0829
264 2 0.0607132 8.93634 12.3924 15.4167
274 2 0.149816 8.64201 8.97193 8.39053
164 2 0.178689 2.05797 12.8339 9.19271
269 2 0.152325 10.0503 11.0331 13.6635
203 2 0.151242 8.67039 7.10564 9.27015
ITEM: TIMESTEP
100
ITEM: NUMBER OF ATOMS
274
ITEM: BOX BOUNDS xy xz yz pp pp pp
-8.3797999999999995e+00 1.8013900000000000e+01 -8.3797999999999995e+00
0.0000000000000000e+00 1.3273200000000001e+01 1.1950000000000001e+00
0.0000000000000000e+00 1.6070141500000002e+01 4.3120000000000003e-01
ITEM: ATOMS id type q x y z
119 2 0.00374529 7.41358 1.18829 5.30437
12 4 1.29628 -1.07048 6.39563 5.27712
7 4 1.12648 0.923048 2.22348 5.15436
9 4 1.21956 -0.510436 4.81099 1.92315
10 4 1.59423 0.341965 4.47631 7.14719
242 1 -0.675464 3.28936 0.559013 3.185
21 4 0.79664 5.71936 1.36027 5.80071
26 4 1.32291 5.33034 4.47482 6.89072
41 1 -0.696399 1.17792 0.590275 6.11188
44 1 -0.675092 3.72511 3.85573 1.83354
55 3 -0.787157 1.18022 1.08421 1.07728
56 3 -0.824393 -0.362734 2.29692 4.21134
58 3 -0.779605 -1.90045 4.54538 2.77671
59 3 -0.82182 -0.111087 3.51173 1.09169
243 2 0.157321 3.48742 1.73183 3.03059
61 3 -0.825011 1.06049 3.52439 6.06427
62 3 -0.831981 -0.860873 5.34523 6.42994
74 3 -0.79467 5.6512 0.370723 7.5311
78 3 -0.869489 0.639358 5.21943 2.92913
81 3 -0.794618 5.38811 2.85276 6.0916
84 3 -0.843626 2.82089 6.14845 4.234
85 3 -0.810563 4.62692 5.59152 6.06522
113 2 0.110893 -1.74307 5.48003 3.99933
111 2 0.017303 2.41131 1.98488 4.17307
112 2 -0.0162203 -0.682225 6.12896 0.852176
24 4 1.26575 4.7292 4.82038 0.509949
118 2 -0.0209013 4.49615 0.653258 4.71307
5 4 1.30392 0.374137 2.177 0.208897
222 3 -0.781167 6.26049 1.37414 1.21285
223 2 -0.0982419 6.2412 0.81656 4.00549
141 2 0.180034 4.14902 2.77425 1.76196
142 2 0.187923 2.67634 3.93719 1.46669
143 2 0.20507 3.97152 4.55935 2.77439
220 4 1.00958 6.71709 0.320079 2.34416
82 3 -0.784778 1.43723 5.47068 7.92671
135 2 0.217059 0.681798 0.972322 7.10042
244 2 0.130528 2.79892 0.233452 4.21881
133 2 0.151937 2.2864 0.335458 6.27831
25 4 1.49363 1.42741 6.43818 3.65029
138 2 0.162972 1.13774 0.750512 12.3359
8 4 1.2903 1.97871 2.59006 10.8739
13 4 1.26159 0.545539 4.80207 12.2602
229 2 -0.0427753 3.55743 6.53462 13.4465
20 4 1.31633 4.72975 3.00104 9.36079
23 4 1.25875 7.03417 2.71154 11.3458
99 3 -0.833272 8.18195 1.15396 8.33376
226 4 0.879128 3.50012 6.3208 15.0694
42 1 -0.676781 2.10857 1.28018 12.2962
57 3 -0.82525 0.526143 2.33445 10.2656
63 3 -0.867575 -0.238942 3.69607 13.1077
64 3 -0.811012 2.03024 4.22778 11.7881
65 3 -0.794123 -2.24846 6.34372 9.56193
66 3 -0.89054 -0.310932 5.61204 11.2671
73 3 -0.799099 3.29933 2.55467 9.85719
75 3 -0.853254 5.66239 3.10376 10.62
76 3 -0.865244 6.97826 1.24231 11.8853
80 3 -0.818474 4.82138 4.22816 8.38154
29 4 0.984598 3.84484 6.56658 11.1258
137 2 0.173017 2.956 0.652145 11.9836
114 2 -0.0466437 1.16029 6.0083 13.3439
248 2 0.160868 3.56651 3.71203 15.7087
124 2 0.0512975 3.29896 5.34347 12.0658
136 2 0.185461 2.30151 1.98453 13.2153
179 4 1.24862 7.26916 2.39268 15.7432
183 1 -0.674111 5.87596 1.32983 15.0843
77 3 -0.755838 6.75427 4.12596 15.8132
60 3 -0.802718 -0.379802 3.54997 8.34701
196 2 0.172937 4.88632 1.91782 15.2049
117 2 0.125072 5.23797 1.58605 8.41067
227 3 -0.839308 4.8836 5.93547 15.5979
195 2 0.214099 6.13746 1.18714 13.9811
245 1 -0.685321 2.91338 3.13941 15.0074
246 2 0.163521 2.42152 3.68143 14.1563
247 2 0.170935 3.4064 2.18562 14.6929
262 3 -0.796128 0.371714 2.1033 15.1351
228 2 -0.0267269 2.40472 5.04121 15.1883
123 2 -0.0319015 5.39426 6.03565 10.8547
86 3 -0.78108 3.01585 6.68379 9.85171
149 2 0.159675 2.22373 9.18863 7.46447
3 3 -0.779742 -5.86335 11.5493 0.928455
268 2 0.186325 -4.135 8.43301 0.299257
16 4 1.48071 -3.25369 8.17518 6.5758
17 4 1.2705 -4.60051 9.94765 4.65277
154 2 0.184924 0.748186 9.57717 7.50416
161 2 0.19429 -1.04907 10.1668 0.199262
31 4 1.25266 -1.99619 10.2408 3.07334
33 4 1.14593 0.15701 10.9438 5.46677
48 1 -0.63536 -1.32886 8.95105 1.79133
49 1 -0.650816 -0.0383463 9.45623 6.6377
67 3 -0.821074 -3.81195 7.00553 7.54944
68 3 -0.85768 -2.05151 7.53418 5.66765
28 4 1.27465 4.15073 6.63969 4.98616
70 3 -0.82603 -4.48711 8.85605 5.83005
79 3 -0.852691 0.448276 7.09699 4.81908
87 3 -0.795979 1.835 7.61241 2.41089
30 4 0.980867 2.30586 8.07671 0.980893
89 3 -0.764556 -2.08126 11.6428 2.02528
90 3 -0.85277 -3.4406 9.85003 3.59508
93 3 -0.803591 -0.768267 10.5706 4.22922
94 3 -0.805536 -0.328897 12.255 6.22754
115 2 -0.0416848 -4.43789 11.4938 5.40719
147 2 0.202235 1.99227 7.57382 6.54976
151 2 0.187664 -0.165019 9.27077 1.45666
152 2 0.178602 -2.13114 8.94487 0.941275
153 2 0.158003 -1.34878 8.04911 2.5518
272 2 0.186626 0.711248 10.2005 0.197163
155 2 0.266724 0.232728 8.47413 6.01478
156 2 0.280789 -1.13628 9.53799 7.0513
46 1 -0.672388 2.47025 8.09216 7.41683
148 2 0.167742 3.62578 7.93862 7.59117
271 2 0.16035 1.65486 10.1683 1.84794
19 4 1.26182 -1.09598 12.7588 7.76357
1 4 1.29909 -6.52685 12.6595 1.95756
69 3 -0.835894 -6.02432 9.97107 3.95337
91 3 -0.815822 -2.62733 9.55627 7.75214
265 2 0.175083 -4.33869 12.605 2.70387
47 1 -0.657459 1.66885 9.87638 0.747164
252 2 0.221339 -5.10956 8.91758 1.8276
251 1 -0.68064 -5.17122 8.64006 0.716817
159 2 0.194068 1.33209 10.9415 13.1858
18 4 1.23817 -2.15568 8.23024 12.8517
22 4 1.27666 -0.556267 12.7525 12.0139
32 4 0.959432 -2.15067 10.4722 8.9779
35 4 1.2127 -1.35244 10.8441 14.2505
43 1 -0.650706 -5.62186 11.0525 14.0026
15 4 1.05067 -4.13639 10.8131 15.9022
157 2 0.225365 0.905537 9.36127 12.2112
51 1 -0.653872 0.212624 11.2661 15.2499
162 2 0.213334 0.0173064 12.3534 15.3871
72 3 -0.835547 -1.27139 8.00227 11.4664
83 3 -0.785658 0.526734 7.4958 9.45912
158 2 0.158084 2.13691 10.6167 11.3445
92 3 -0.811835 -0.854286 11.321 9.04107
95 3 -0.812978 3.65876 7.96495 11.8728
96 3 -0.750146 -1.27337 8.99408 13.855
97 3 -0.845198 -1.27067 11.6252 12.7961
98 3 -0.801809 -2.75405 11.0121 15.1607
116 2 -0.039183 -3.32638 9.25637 12.3236
120 2 0.0984652 -0.425339 12.0447 10.4546
126 2 0.0239709 -2.17852 9.59942 10.4017
127 2 -0.0380873 -3.36317 11.2922 9.74967
128 2 0.0563024 2.23369 9.16747 14.0625
140 2 0.17842 -5.88698 11.9688 14.5334
50 1 -0.660943 1.71881 10.1163 12.4117
139 2 0.167151 -4.60414 11.1792 13.5354
160 2 0.149605 1.18251 11.0988 14.5716
88 3 -0.77497 2.73553 7.67507 15.6995
187 3 -0.801922 0.897152 13.0421 12.5982
27 4 1.39623 1.77119 6.85798 8.78938
71 3 -0.840331 -2.73959 6.94461 13.5675
14 4 1.5119 -0.853768 6.81984 10.4666
34 4 1.0295 3.38948 9.29393 12.7076
197 2 0.235338 -2.40469 13.2479 15.798
235 2 0.167859 11.4993 1.48984 2.86333
37 4 1.20263 13.0322 2.06163 5.76553
230 4 1.09919 13.708 0.220243 2.44023
39 4 1.30944 11.3094 3.9811 7.49274
45 1 -0.672504 7.13656 5.2028 6.99927
54 1 -0.664935 10.4172 5.37945 6.55017
101 3 -0.78098 14.0355 3.16085 4.97156
102 3 -0.834703 13.8483 1.04726 6.80774
221 1 -0.638225 8.59244 0.36172 2.18001
4 4 1.44146 15.0121 2.81149 3.71518
106 3 -0.812998 11.9187 3.01394 6.46508
232 3 -0.813093 14.3677 1.64689 2.76831
129 2 -0.00811877 12.1796 1.13304 4.57797
130 2 0.0836513 7.95587 5.81236 2.95995
169 2 0.220417 10.9211 6.35312 6.94284
250 2 0.178036 11.4578 4.64713 0.307494
146 2 0.158319 7.7432 4.41219 6.49305
231 1 -0.659139 11.8176 0.436368 2.7776
145 2 0.178867 7.10484 6.21048 6.46971
170 2 0.184006 9.27167 5.37994 6.6451
171 2 0.182541 10.8245 5.10635 5.49195
273 2 0.18491 9.16126 0.208012 0.234295
224 2 0.175293 8.92732 1.19016 1.49858
225 2 0.112165 8.67154 0.69422 3.39514
103 3 -0.777742 5.67395 6.10136 1.42733
207 4 1.24597 14.6839 0.248412 7.85699
267 2 0.182867 12.2632 6.39352 0.335365
234 2 0.167569 11.4836 0.114648 1.69405
11 4 1.4993 13.0658 6.12591 8.87788
36 4 1.31919 9.20921 2.17497 9.10975
52 1 -0.663 10.5107 1.08019 9.97867
188 3 -0.794233 8.57331 1.99845 14.8502
100 3 -0.811149 8.32633 2.8188 10.3731
107 3 -0.802156 12.7155 4.57425 8.66178
110 2 0.00492547 14.7873 3.06377 10.4336
204 2 0.164935 8.11721 5.86696 10.8686
202 2 0.158556 13.9826 3.60305 11.8273
163 2 0.171799 11.5775 1.44275 9.95596
6 4 1.34868 16.0302 2.47167 9.37569
165 2 0.242114 10.1299 0.817293 11.0301
172 4 1.01374 16.1418 2.4156 13.9659
173 1 -0.654597 14.3873 1.50712 13.5885
174 2 0.0583315 14.5539 2.80874 14.827
175 2 0.0397705 15.602 0.765925 12.9226
176 2 0.1618 13.8007 2.03927 12.6894
144 2 0.17295 7.41516 5.32576 8.11282
178 4 1.10846 13.7699 5.56816 14.3165
180 4 1.23351 9.87006 1.47133 13.8931
181 4 1.33387 11.7857 3.8923 12.655
205 2 0.214579 9.34528 5.027 9.61971
185 1 -0.677071 12.9945 3.2413 11.2791
186 1 -0.664719 8.99382 6.0065 10.2014
189 3 -0.781367 10.8561 2.51379 13.1227
190 3 -0.830641 12.8046 4.48606 13.7629
192 3 -0.826878 10.9853 5.0549 11.9645
263 3 -0.877695 15.5542 1.16413 8.76602
199 2 0.171709 11.836 1.21586 15.1449
200 2 0.258969 12.8542 3.78469 10.1762
201 2 0.136508 12.9185 2.11054 11.1475
182 4 1.07865 10.8008 6.22408 10.9291
105 3 -0.826938 10.1599 3.25416 8.35823
177 2 0.185995 13.7431 0.810316 14.1897
249 1 -0.62929 13.5407 5.75642 15.9771
184 1 -0.652657 10.8803 0.62192 15.1859
121 2 -0.00326351 7.26743 3.71733 12.686
266 2 0.0851513 14.8635 5.09995 16.0514
237 1 -0.671488 7.45843 10.131 0.124269
256 2 0.156548 1.67081 11.3749 3.77691
167 2 0.167244 9.09845 7.56746 2.32699
53 1 -0.629326 8.12315 7.41256 2.87028
104 3 -0.822599 5.35411 7.04188 4.04793
233 2 0.160601 2.9168 12.5845 3.59962
125 2 -0.0067596 3.96844 7.93223 0.90182
150 2 0.149974 2.60338 10.3339 0.213364
166 2 0.0254671 6.99193 8.54668 2.07172
168 2 0.159947 8.16234 7.90603 4.0079
206 4 1.25355 9.31286 10.4317 3.71672
215 2 0.142983 6.32118 8.32673 7.54553
208 4 1.03734 7.68125 10.3575 6.64172
209 1 -0.657441 6.20215 9.03099 6.61091
255 2 0.158601 2.31025 12.2236 5.37001
211 3 -0.785377 8.41103 10.2818 4.9526
212 3 -0.796877 7.02899 11.7191 7.26962
213 2 0.0015698 8.59944 9.35374 2.59192
254 1 -0.675431 1.956 11.2566 4.90544
216 2 0.195141 6.27629 8.57517 5.60193
217 2 0.147687 5.36583 9.87053 6.76109
219 2 0.221949 10.0876 9.41548 7.15903
253 2 0.159916 10.871 7.9117 0.576916
122 2 0.00606132 3.77929 8.0632 5.93205
238 3 -0.752666 5.52609 12.1993 0.941912
240 2 0.170406 8.03878 10.342 1.05554
239 2 0.131779 6.64598 9.2483 0.300928
257 2 0.141161 2.73087 10.4195 5.0282
258 1 -0.651639 5.94716 11.8318 3.84894
259 2 0.182953 6.60107 11.0981 3.29997
260 2 0.147134 5.0601 11.2914 4.33392
261 2 0.205218 6.55069 12.61 4.48888
38 4 0.995868 6.27688 6.89837 2.62615
210 1 -0.632861 9.18333 9.79625 7.69714
134 2 0.22184 9.0411 12.6847 5.58281
2 3 -0.814606 9.2639 11.8445 2.92146
270 2 0.172423 0.715739 12.1962 1.95534
198 2 0.165165 2.61138 12.4232 14.7239
40 4 0.909767 5.73093 11.3668 12.9794
108 3 -0.80899 4.59736 10.3408 12.892
109 3 -0.806542 6.47424 11.4917 14.3869
214 2 -0.0383317 5.18391 12.518 8.87809
132 2 -0.0493893 6.81876 10.9852 11.8651
236 4 1.00554 7.32913 11.8191 15.6876
203 2 0.151685 8.89258 6.85092 9.50189
131 2 -0.0243115 5.46501 12.9402 12.3234
193 2 0.0618627 11.1993 9.83188 15.0004
218 2 0.169664 9.40416 10.6569 8.43187
194 2 0.000217994 9.64376 7.3942 11.4903
241 2 0.159652 9.33744 10.359 15.2719
191 3 -0.821047 11.7903 6.82146 9.92787
264 2 0.0445264 9.00308 12.2609 15.2915
274 2 0.12464 8.49285 8.89872 8.17303
164 2 0.157354 2.0635 13.0134 9.29612
269 2 0.140666 10.3819 10.9068 13.1777
ITEM: TIMESTEP
200
ITEM: NUMBER OF ATOMS
274
ITEM: BOX BOUNDS xy xz yz pp pp pp
-8.3797999999999995e+00 1.8013900000000000e+01 -8.3797999999999995e+00
0.0000000000000000e+00 1.3273200000000001e+01 1.1950000000000001e+00
0.0000000000000000e+00 1.6064783000000002e+01 4.3120000000000003e-01
ITEM: ATOMS id type q x y z
119 2 -0.0039786 7.3188 1.33765 5.39353
12 4 1.35187 -1.15149 6.47436 5.30632
7 4 1.14453 0.984412 2.34182 4.9495
9 4 1.24431 -0.438269 4.69523 1.88762
10 4 1.61782 0.285088 4.65686 7.22052
242 1 -0.676674 3.34708 0.515726 2.96228
21 4 0.791295 5.6815 1.44479 5.74436
26 4 1.28238 5.41772 4.5367 6.97929
41 1 -0.689215 0.980134 0.733783 5.88216
44 1 -0.650394 3.81331 3.81028 1.85638
55 3 -0.790611 0.999136 1.09969 1.19277
56 3 -0.850118 -0.331373 2.30286 4.11685
58 3 -0.806704 -1.75621 4.40513 2.90575
59 3 -0.848199 -0.137947 3.64613 0.742233
243 2 0.147453 3.58025 1.6408 3.12617
61 3 -0.762159 1.13963 3.51309 6.02516
62 3 -0.856755 -0.724414 5.61983 6.50511
74 3 -0.772528 5.69304 0.368855 7.38773
78 3 -0.837266 0.837318 5.06693 2.68182
81 3 -0.77756 5.42846 2.98437 6.0838
84 3 -0.830746 2.82386 6.03719 4.22532
85 3 -0.79131 4.76137 5.76862 6.12717
113 2 0.0868034 -1.89297 5.47563 4.11599
111 2 0.00405848 2.45171 1.96799 3.97156
112 2 -0.00939186 -0.943644 6.04319 1.02506
24 4 1.2429 4.74325 4.82102 0.567967
118 2 -0.0305155 4.42558 0.965476 4.60016
5 4 1.35561 0.291085 2.15849 0.15625
222 3 -0.77451 6.31519 1.3139 1.29478
223 2 -0.0966266 6.28974 0.852916 4.04398
141 2 0.185545 4.39669 2.8269 1.83914
142 2 0.216726 2.7019 3.8166 1.57558
143 2 0.211489 4.0959 4.4331 2.80492
220 4 1.00626 6.79554 0.324987 2.40405
82 3 -0.843715 1.3592 5.50253 7.98293
135 2 0.258605 0.221443 0.793424 6.66573
25 4 1.45384 1.40548 6.43153 3.56819
133 2 0.166647 1.96635 0.530607 6.2677
138 2 0.17133 1.3318 0.592652 11.696
8 4 1.26843 2.05635 2.65779 10.8839
13 4 1.22262 0.508226 4.83607 12.4369
229 2 -0.0435705 3.61898 6.37426 13.3802
20 4 1.30173 4.79426 2.91687 9.42622
23 4 1.24275 7.10198 2.71717 11.4868
99 3 -0.821302 8.10552 1.14016 8.44774
226 4 0.901663 3.34259 6.23527 15.0611
42 1 -0.661564 2.27782 1.10094 11.9874
57 3 -0.803998 0.656986 2.39007 10.1262
63 3 -0.864239 -0.39252 3.63367 13.0014
64 3 -0.816736 2.00811 4.1726 12.0853
65 3 -0.850326 -2.16599 6.32844 9.5614
66 3 -0.853244 -0.0525592 5.59756 11.1935
73 3 -0.812344 3.36303 2.47858 9.89902
75 3 -0.817739 5.77083 3.20099 10.6462
76 3 -0.853355 6.91319 1.18367 11.8928
80 3 -0.805211 4.91894 4.17867 8.49725
29 4 0.94865 3.82875 6.58971 11.1044
137 2 0.182478 3.23868 0.630574 11.5882
114 2 -0.0467964 0.605586 5.92541 13.74
248 2 0.165705 3.47887 3.89576 15.6536
124 2 0.0740063 3.29351 5.14492 11.7773
136 2 0.162565 2.3756 1.35272 13.1319
179 4 1.2751 7.2179 2.30941 15.6796
183 1 -0.669567 5.77358 1.41565 15.0031
77 3 -0.744989 6.65052 3.85954 15.7122
60 3 -0.811021 -0.611692 3.69573 8.13799
196 2 0.175282 4.95898 2.21879 14.6597
117 2 0.113828 5.31058 1.56344 8.41556
227 3 -0.818783 4.69333 5.81147 15.7998
195 2 0.24324 6.17868 0.705528 14.2042
245 1 -0.659059 2.89424 3.01987 15.0185
246 2 0.188437 2.4343 3.39955 14.0464
247 2 0.163495 3.62118 2.11043 14.7864
262 3 -0.832185 0.338998 2.13364 15.2034
228 2 -0.0124602 2.28415 4.88594 14.8575
197 2 0.212575 5.45769 0.787555 15.8972
6 4 1.30443 -0.718704 2.52459 9.24738
149 2 0.155405 2.22006 9.25303 7.82923
3 3 -0.796844 -5.94698 11.6607 0.899312
268 2 0.162927 -3.88701 8.58603 0.419246
16 4 1.51202 -3.2656 8.2043 6.61036
17 4 1.25483 -4.57154 9.88041 4.58267
154 2 0.184602 0.96392 9.63799 7.38685
161 2 0.189188 -1.00248 9.94292 0.15813
31 4 1.26445 -1.94262 10.1199 2.85065
33 4 1.12691 0.133244 10.9256 5.30758
48 1 -0.675259 -1.11629 8.74445 1.80201
49 1 -0.643798 0.166863 9.50406 6.5869
67 3 -0.827188 -3.764 6.99028 7.52809
68 3 -0.850144 -2.0508 7.67562 5.72223
28 4 1.22566 4.08207 6.67963 4.9561
70 3 -0.839509 -4.42785 8.80992 5.77547
79 3 -0.84534 0.244266 7.01901 4.74719
87 3 -0.820274 1.58315 7.60616 2.50106
30 4 0.962956 2.17365 8.12457 1.09423
89 3 -0.777226 -1.9258 11.5699 2.06005
90 3 -0.83575 -3.40627 9.71004 3.50236
93 3 -0.779708 -0.732633 10.51 4.03092
94 3 -0.818425 -0.440139 12.124 6.26945
115 2 -0.0373972 -4.23673 11.4342 5.29505
147 2 0.183912 2.09874 7.67543 6.71259
151 2 0.207733 -0.0975365 9.21908 1.50098
152 2 0.162059 -1.83032 8.36878 1.00283
153 2 0.188748 -0.94174 7.9428 2.58349
272 2 0.169716 0.638332 10.1969 0.234467
155 2 0.259449 0.363059 8.57275 5.90529
156 2 0.294189 -0.883848 9.49721 7.11246
46 1 -0.661319 2.52539 8.13878 7.5878
148 2 0.185167 3.60955 7.8947 7.70378
271 2 0.164376 1.57778 10.1803 1.99419
19 4 1.28052 -1.0805 12.667 7.73563
1 4 1.33965 -6.57356 12.6727 1.92761
69 3 -0.826927 -6.06771 9.987 4.01445
91 3 -0.838092 -2.51378 9.53145 7.78159
265 2 0.184892 -4.27781 12.8445 2.23408
47 1 -0.670496 1.65111 9.91211 0.867443
252 2 0.232187 -4.92163 8.98828 2.03004
251 1 -0.66653 -4.94427 8.83491 0.85845
134 2 0.244813 -7.69216 12.7464 5.15083
244 2 0.131787 -5.23512 12.7862 3.97873
122 2 -0.000110729 3.62993 8.04334 5.88768
2 3 -0.811195 -7.50922 11.9546 3.03365
270 2 0.174085 0.492619 12.2563 1.82993
159 2 0.184322 1.19643 10.7373 13.192
18 4 1.19343 -2.08641 8.21982 12.8596
22 4 1.26507 -0.552618 12.753 12.0124
32 4 1.00435 -2.21781 10.4071 8.96084
35 4 1.27842 -1.36842 10.7262 14.2303
43 1 -0.639681 -5.57668 10.8338 13.9559
15 4 1.05072 -4.01959 10.8468 15.9447
157 2 0.220476 0.872909 9.05374 12.1491
51 1 -0.644095 0.146921 11.179 15.3695
162 2 0.221222 0.0147305 12.2348 15.715
72 3 -0.854683 -1.39813 7.97709 11.4479
83 3 -0.772364 0.203968 7.54002 9.44601
158 2 0.147685 1.86889 10.5586 11.233
92 3 -0.816366 -0.963537 11.2877 9.0867
95 3 -0.778196 3.69371 7.9747 11.9314
96 3 -0.799359 -1.12105 9.19019 13.9103
97 3 -0.836023 -1.27786 11.7022 12.914
98 3 -0.801223 -2.73662 11.185 15.1542
116 2 -0.0488542 -3.65828 8.93183 12.7237
120 2 0.0945647 -0.466746 12.0271 10.4675
126 2 0.0258227 -2.35555 9.38845 10.3265
127 2 -0.0479498 -3.59764 11.1699 9.54499
128 2 0.0380887 2.28699 9.46317 14.0511
140 2 0.158711 -5.98943 11.8855 14.2992
50 1 -0.648166 1.55527 9.98045 12.3471
139 2 0.160236 -4.67689 10.9875 13.3164
160 2 0.15006 1.03268 11.0654 14.6658
88 3 -0.754293 2.71985 7.53575 15.7335
187 3 -0.797679 0.914833 13.0727 12.5833
27 4 1.37915 1.76272 6.79239 8.85263
71 3 -0.852964 -2.46501 6.85916 13.6077
14 4 1.56113 -0.861932 6.83546 10.3984
34 4 1.00204 3.33525 9.53201 12.6148
86 3 -0.825428 2.95454 6.70331 9.8218
235 2 0.168365 11.5073 1.62179 3.18877
37 4 1.26997 13.0376 2.01084 5.82783
230 4 1.10033 13.6105 0.114301 2.46936
39 4 1.26812 11.2406 3.96315 7.45169
45 1 -0.660587 7.26567 5.05421 7.02137
54 1 -0.637596 10.5141 5.50099 6.62037
101 3 -0.806464 14.0778 2.91182 5.02459
102 3 -0.845496 13.7698 1.1053 6.84764
221 1 -0.645764 8.67149 0.49535 2.31942
4 4 1.46376 15.0254 2.68005 3.68246
106 3 -0.811689 11.7291 2.86935 6.35671
232 3 -0.811706 14.2591 1.55685 2.76718
129 2 0.00541528 12.2147 0.986952 4.6546
130 2 0.023052 7.66139 5.60759 3.57124
169 2 0.228184 10.9791 6.36911 7.20963
250 2 0.176055 11.5244 4.68854 0.274614
146 2 0.16585 7.88069 4.22511 6.4683
231 1 -0.654693 11.7024 0.543556 2.83751
145 2 0.158307 7.41477 6.096 6.51133
170 2 0.176735 9.2641 5.35693 6.72729
171 2 0.176527 10.9334 5.26925 5.54962
273 2 0.181546 9.20324 0.311567 0.328658
224 2 0.170804 9.16155 1.38977 1.80687
225 2 0.136794 8.92439 0.445011 3.46362
103 3 -0.7994 5.68023 5.78445 1.58234
207 4 1.26043 14.7138 0.283367 7.89175
234 2 0.176978 11.3658 0.368307 1.82167
267 2 0.181128 12.3658 6.40744 0.434218
11 4 1.54169 13.21 6.15704 8.95694
36 4 1.26514 9.08312 2.19491 9.24191
52 1 -0.688682 10.3877 1.10392 10.0091
188 3 -0.811114 8.4712 2.01947 14.7264
100 3 -0.822509 8.3051 2.93156 10.4713
107 3 -0.76908 12.6903 4.60232 8.59268
110 2 0.0103113 14.6984 2.94649 10.191
204 2 0.172632 7.90561 5.94957 10.5461
202 2 0.178598 14.0319 3.46818 11.695