ITEM: TIMESTEP
0
ITEM: NUMBER OF ATOMS
274
ITEM: BOX BOUNDS xy xz yz pp pp pp
-8.3797999999999995e+00 1.8013900000000000e+01 -8.3797999999999995e+00
0.0000000000000000e+00 1.3273200000000001e+01 1.1950000000000001e+00
0.0000000000000000e+00 1.6075500000000002e+01 4.3120000000000003e-01
ITEM: ATOMS id type q x y z element
7 4 0.581026 0.721036 1.65502 6.00736 Si
9 4 0.807188 0.488095 3.56342 2.23554 Si
10 4 1.20986 0.0235882 4.26562 7.38417 Si
56 3 -0.658624 0.670272 1.34937 4.43604 O
58 3 -0.673714 -1.46674 3.62539 2.50974 O
59 3 -0.678835 1.00271 2.19581 1.46694 O
61 3 -0.691466 0.828948 3.29011 6.26144 O
62 3 -0.792736 -1.029 5.32365 6.70153 O
78 3 -0.73388 1.54324 3.89287 3.43489 O
25 4 1.22924 1.51362 6.11198 3.64995 Si
111 2 0.385642 1.3238 3.45469 4.36608 H
12 4 1.17311 -0.97946 6.36939 5.48577 Si
5 4 0.755893 0.375172 1.59907 0.0519269 Si
110 2 0.0673904 -0.829853 5.57525 0.884737 H
112 2 0.0711746 -1.54732 5.05493 0.520155 H
113 2 0.281831 -1.64298 3.0919 1.64296 H
265 2 0.089926 3.29698 0.589653 1.11449 H
117 2 0.308719 4.85604 0.422428 7.97272 H
118 2 0.117484 5.0407 0.241031 5.03099 H
19 4 0.912554 7.40391 0.344545 7.47918 Si
134 2 0.12643 3.11241 1.59872 6.93369 H
41 1 -0.0586168 2.51538 0.781505 6.58307 C
143 2 0.0535394 5.0648 2.83195 2.34877 H
85 3 -0.729388 4.10924 4.7777 5.95864 O
24 4 0.765329 4.34442 4.76635 0.885347 Si
223 2 -0.0134801 6.92211 1.81223 2.69722 H
26 4 1.05123 4.99194 4.00915 7.15877 Si
142 2 0.094981 3.96676 3.87966 3.36965 H
28 4 1.02301 4.26447 6.1442 5.11529 Si
220 4 0.669511 6.50321 0.780978 1.40073 Si
77 3 -0.699508 5.59599 4.19464 0.032377 O
243 2 0.0843706 2.71696 0.686434 2.82949 H
222 3 -0.671324 5.47727 1.59205 0.435367 O
21 4 0.243562 6.02236 1.48285 5.77143 Si
141 2 0.123785 3.28771 2.80565 2.04983 H
44 1 -0.0652498 4.13145 3.36212 2.41249 C
81 3 -0.657786 5.19494 2.40689 6.87737 O
135 2 0.0628699 2.91569 0.290204 5.69264 H
119 2 0.0204956 6.86711 2.57467 4.72799 H
84 3 -0.779131 3.01079 6.48491 4.05465 O
227 3 -0.664801 2.9318 4.70885 0.0656967 O
242 1 -0.0744401 3.00989 0.0555671 2.00248 C
8 4 1.00798 2.09567 2.10018 10.801 Si
13 4 1.05928 0.255889 4.16605 12.1417 Si
14 4 1.35244 -1.35832 6.46935 10.9723 Si
57 3 -0.712867 1.56096 1.83278 9.23972 O
63 3 -0.709359 -0.0878708 4.06567 13.755 O
64 3 -0.771556 0.844764 2.72786 11.6543 O
66 3 -0.747358 -0.863722 4.9253 11.2208 O
82 3 -0.724784 1.00071 5.03161 8.52283 O
114 2 0.045457 1.34402 5.51531 12.2579 H
262 3 -0.721385 0.00246517 2.43436 15.9566 O
248 2 0.0778167 1.78072 2.80387 13.6559 H
228 2 0.0126648 1.99656 6.09949 14.8116 H
86 3 -0.711488 2.21896 6.31429 10.5801 O
65 3 -0.820192 -2.82315 6.40664 10.2196 O
245 1 -0.103892 2.57724 2.77941 14.3821 C
27 4 1.07203 1.28888 6.45416 9.24529 Si
247 2 0.0595972 2.97233 3.72706 14.6884 H
6 4 0.991473 -0.00091492 1.52641 8.80243 Si
124 2 0.101758 2.74655 4.44549 11.6944 H
123 2 0.0293474 4.98133 6.35027 9.4231 H
29 4 0.558696 3.87112 6.42265 10.8685 Si
22 4 1.00484 6.69521 0.710912 12.1025 Si
183 1 -0.078061 5.60536 3.19157 13.7565 C
127 2 0.330582 5.69557 0.796793 9.29261 H
246 2 0.036172 3.27611 1.97504 14.2623 H
197 2 0.0689838 5.231 2.18774 13.6471 H
179 4 0.821598 7.03238 3.19445 15.3995 Si
187 3 -0.756249 7.53045 1.22854 13.368 O
229 2 0.0511279 4.53022 6.49397 13.7381 H
73 3 -0.789225 3.5363 2.93898 11.0146 O
195 2 0.0815244 6.2885 3.46538 12.967 H
20 4 1.05083 4.67557 3.79724 10.2552 Si
196 2 0.0528526 4.8671 3.95866 13.9411 H
75 3 -0.763831 6.1939 3.90825 10.9153 O
76 3 -0.790829 7.16004 1.34064 10.69 O
80 3 -0.773277 4.55372 4.21362 8.70111 O
226 4 0.58325 3.62568 6.3777 15.1436 Si
1 4 0.859895 -7.1363 11.8387 1.51536 Si
16 4 1.22128 -2.73263 8.3623 6.8795 Si
17 4 1.01055 -4.08931 10.0515 4.91698 Si
70 3 -0.761244 -3.79843 9.58665 6.44287 O
90 3 -0.736484 -3.11742 11.3268 4.5231 O
115 2 0.0562004 -5.63459 10.8069 4.97103 H
251 1 -0.0805065 -4.14561 8.89357 0.854101 C
89 3 -0.694532 -2.39917 12.2682 2.10856 O
153 2 0.122734 -2.3504 8.77702 3.27962 H
253 2 0.0694258 -3.91754 9.78587 1.45891 H
244 2 0.0986165 -4.6254 12.1763 2.28359 H
68 3 -0.782191 -2.02813 7.57545 5.6271 O
31 4 0.943483 -1.86189 11.3919 3.43566 Si
268 2 0.0732465 -4.49653 8.05065 1.40933 H
252 2 0.0565184 -3.35512 8.65309 0.149711 H
69 3 -0.720141 -4.27856 8.83007 3.87934 O
67 3 -0.805877 -3.45841 7.10386 7.61874 O
218 2 0.102741 -5.7361 9.99462 7.58624 H
133 2 0.0659044 -6.23789 12.9492 7.33066 H
3 3 -0.688411 -6.64238 10.47 0.915138 O
49 1 -0.10421 1.84515 10.4986 5.52597 C
149 2 0.079012 2.10822 7.16804 6.8395 H
30 4 0.635879 2.34099 7.63435 1.22582 Si
272 2 0.0393146 0.921558 9.64543 1.5268 H
155 2 0.0456445 1.96623 10.0015 4.56566 H
48 1 -0.0938368 -1.50486 9.27691 2.80179 C
93 3 -0.697308 -0.339653 11.9962 3.83666 O
152 2 0.0305611 -1.47654 9.28624 1.70612 H
270 2 0.0359032 -0.0429314 12.5363 0.166584 H
94 3 -0.645016 -0.560918 12.0423 6.36057 O
151 2 0.0730187 -0.581889 9.01154 3.29292 H
33 4 0.676195 0.511556 12.1374 5.17361 Si
156 2 0.0958967 1.26913 9.94623 6.23552 H
79 3 -0.812036 0.478082 6.57144 4.80371 O
47 1 -0.0959273 1.98439 9.68367 1.36169 C
148 2 0.0465243 2.09893 8.57994 7.98778 H
46 1 -0.119719 2.43283 7.58649 7.79022 C
87 3 -0.725206 1.24599 6.79081 2.18013 O
91 3 -0.698962 -0.945823 9.0346 7.98694 O
18 4 1.16225 -2.04124 8.21368 13.3986 Si
35 4 1.02322 -2.76803 11.1667 13.5913 Si
72 3 -0.823121 -1.32127 7.16336 12.4286 O
96 3 -0.777032 -2.54706 9.66708 12.9284 O
97 3 -0.739873 -2.81888 12.4218 12.5204 O
98 3 -0.698849 -4.01601 11.2006 14.6515 O
126 2 0.309479 -6.0098 12.5677 15.2769 H
32 4 0.745155 -1.32479 10.3673 8.80252 Si
138 2 0.0553194 -6.44104 12.3441 11.1729 H
74 3 -0.707462 -2.80204 12.9424 8.57669 O
71 3 -0.729622 -2.9114 7.71849 14.6425 O
137 2 0.108276 -4.87982 13.0131 11.8574 H
161 2 0.0645454 -1.57653 11.6324 15.7191 H
42 1 -0.0944676 -5.96424 13.056 11.8306 C
55 3 -0.674887 -6.76355 12.8552 15.773 O
15 4 0.680487 -4.59255 10.2183 15.8564 Si
136 2 0.0546989 -6.41942 13.1529 12.8059 H
147 2 0.0206952 3.44098 7.31607 8.11206 H
50 1 -0.120873 2.75894 10.0043 11.0738 C
157 2 0.0574479 1.86841 9.41407 10.8833 H
51 1 -0.124183 -1.04266 11.4472 14.8214 C
83 3 -0.750618 0.00783856 7.30409 9.71637 O
95 3 -0.663832 4.46599 7.48745 11.9088 O
120 2 0.274389 -0.534131 12.2243 9.85761 H
128 2 0.017788 2.72386 8.83161 13.6493 H
92 3 -0.659105 -0.307366 11.6003 8.98694 O
88 3 -0.685893 3.7827 7.86292 15.7295 O
266 2 0.358608 -0.661241 8.10101 8.69078 H
162 2 0.0745553 -0.388899 12.2288 14.4407 H
160 2 0.00191512 -0.657911 10.4429 14.7302 H
45 1 -0.108793 6.89358 5.04685 7.09068 C
130 2 0.0011225 6.52834 4.61231 2.35176 H
105 3 -0.717005 10.53 3.24189 7.29101 O
221 1 -0.122012 8.39081 0.64311 0.679908 C
146 2 0.0749607 7.67342 4.32781 6.8762 H
38 4 0.628234 6.07071 6.20513 2.84863 Si
224 2 0.0723658 8.56321 1.53459 0.0701144 H
99 3 -0.740458 8.486 1.55809 7.45663 O
256 2 0.0216556 10.2699 1.01635 4.02823 H
257 2 0.0792379 10.7605 1.08817 5.77347 H
254 1 -0.0923847 9.95497 1.12145 5.06249 C
145 2 0.0601723 6.70421 5.75225 6.29763 H
255 2 0.0834538 9.26944 1.95015 5.19128 H
104 3 -0.730886 5.74153 6.22509 4.43497 O
167 2 0.0265837 8.59162 6.38422 3.18378 H
225 2 0.0468347 9.03742 0.605668 1.5385 H
205 2 0.0978244 9.69864 5.76649 8.03306 H
144 2 0.0725002 7.01964 5.54241 8.03729 H
260 2 0.0752049 12.6552 0.353405 5.14591 H
169 2 0.0369552 11.4216 5.43487 5.6046 H
4 4 0.714003 15.5684 2.01192 3.80616 Si
37 4 1.13423 14.4883 1.91898 6.65301 Si
39 4 1.03114 12.0618 3.77846 7.50323 Si
213 2 0.2931 15.2639 0.643305 1.62107 H
171 2 0.120623 13.2136 5.61596 6.06183 H
106 3 -0.713177 13.0772 2.44043 7.34114 O
102 3 -0.769231 14.697 0.267852 6.63963 O
231 1 -0.100242 12.6034 2.34079 2.22421 C
101 3 -0.721862 14.5741 2.38136 5.0942 O
232 3 -0.646858 15.2152 0.35251 2.63099 O
233 2 0.0867012 13.09 3.04656 2.90421 H
54 1 -0.0954621 12.3942 4.98837 5.7411 C
235 2 0.0430885 12.9274 2.35972 1.19627 H
234 2 0.0269698 11.5288 2.18654 2.33619 H
170 2 0.0619874 12.6751 4.34718 4.93123 H
230 4 0.428982 13.1889 0.450132 2.72459 Si
250 2 0.0413958 11.4989 5.23909 0.722952 H
273 2 0.0321968 10.7439 0.649459 12.5718 H
52 1 -0.103433 10.4337 1.37574 9.57268 C
100 3 -0.666751 8.57668 4.18976 9.21058 O
121 2 0.255119 8.83565 4.34682 12.154 H
180 4 0.605142 8.89447 2.1269 13.2764 Si
188 3 -0.638774 8.98911 3.47773 14.7311 O
189 3 -0.662161 9.21269 3.38731 11.7299 O
192 3 -0.660699 10.2515 5.93506 11.1216 O
174 2 0.226118 8.82173 4.37 14.1356 H
184 1 -0.11526 10.4663 0.928534 13.5524 C
269 2 0.342624 9.29779 4.43035 9.87347 H
164 2 0.0502993 9.92017 1.49076 10.5191 H
36 4 0.848557 9.41932 2.56481 8.27687 Si
267 2 0.0436876 11.0531 5.2103 16.0523 H
198 2 0.035917 11.1556 1.61627 14.0316 H
163 2 0.0723059 10.2558 0.406075 9.14516 H
193 2 0.0775132 7.78506 6.48326 14.8586 H
23 4 0.885294 7.47913 2.99231 10.5765 Si
181 4 0.664632 11.422 5.57584 12.1935 Si
11 4 1.26831 13.0066 6.27934 8.96905 Si
249 1 -0.121087 12.0659 5.55759 15.924 C
202 2 0.0246205 12.7039 3.47258 12.7128 H
173 1 -0.115742 15.2978 1.37341 13.5542 C
165 2 0.0660001 11.4541 1.71119 9.49958 H
176 2 0.0544963 16.0262 0.586597 13.7383 H
177 2 0.0675076 15.2728 1.76114 12.5343 H
172 4 0.666946 16.0513 2.87654 14.6399 Si
129 2 0.106866 12.7674 0.752026 15.9176 H
200 2 0.127292 13.2131 4.11883 11.1162 H
201 2 0.0781572 11.5741 3.41231 11.255 H
185 1 -0.0811016 12.3929 3.87317 11.7615 C
107 3 -0.797087 12.3028 4.8069 8.74404 O
175 2 0.0319945 14.3176 1.18859 13.9755 H
60 3 -0.728731 15.7909 2.63532 8.23548 O
236 4 0.578535 5.09313 11.3794 0.625849 Si
258 1 -0.0748821 4.34522 12.3463 4.52559 C
259 2 0.0291908 3.42907 11.83 4.35517 H
238 3 -0.613016 4.15244 12.3307 1.60703 O
261 2 0.0919949 5.16837 11.6919 4.73176 H
150 2 0.0974979 2.26924 9.99669 0.358542 H
154 2 0.0284674 2.7767 10.8932 5.908 H
239 2 0.0559473 5.64814 9.81738 2.68681 H
122 2 -0.0209159 4.35731 7.47443 6.22694 H
271 2 0.056519 2.55041 10.1389 2.14743 H
103 3 -0.676518 5.00374 6.68871 1.6989 O
237 1 -0.094976 5.98978 9.77561 1.67542 C
241 2 0.0556743 5.58864 8.92168 1.15629 H
125 2 0.213732 3.95954 7.20736 1.77959 H
207 4 1.00691 6.88285 12.0929 7.78302 Si
203 2 0.0340176 10.1354 7.52864 7.68458 H
210 1 -0.0969454 10.0714 10.0194 7.94457 C
240 2 0.0803492 7.04615 9.96961 1.53261 H
209 1 -0.102831 8.1856 8.4341 5.5457 C
166 2 0.0243828 8.18067 6.6892 1.51632 H
217 2 0.070755 7.34635 8.73239 4.93845 H
2 3 -0.653742 8.85711 11.4239 2.84632 O
206 4 0.886598 8.5815 12.2158 4.2564 Si
53 1 -0.121386 8.00475 6.95003 2.52325 C
216 2 0.03625 9.08788 8.22532 4.9998 H
215 2 0.0338299 7.97009 7.76758 6.36296 H
211 3 -0.699912 9.32107 11.3205 5.39227 O
208 4 0.602761 8.62572 10.277 6.43503 Si
168 2 0.0584513 7.88423 7.99634 2.71 H
212 3 -0.699282 7.11465 10.7272 6.96237 O
274 2 0.272846 11.7131 8.27019 4.00178 H
40 4 0.61533 5.8214 9.97798 14.4246 Si
108 3 -0.634844 5.12593 9.87234 12.9346 O
109 3 -0.637214 5.44184 11.205 15.4271 O
132 2 0.0624236 5.64122 8.49916 15.2458 H
214 2 0.118415 6.16694 9.16484 11.2397 H
34 4 0.624531 3.91119 8.93917 12.4115 Si
159 2 0.0293569 2.53522 10.8481 11.7377 H
199 2 0.0371465 1.73421 12.9373 14.1542 H
158 2 0.0439962 3.36375 10.2749 10.2053 H
131 2 -0.00635453 7.53952 9.93772 14.1936 H
182 4 0.585399 10.4169 7.18098 10.1025 Si
140 2 0.066351 10.6673 9.32816 14.1925 H
219 2 0.0678656 9.83146 10.4705 8.89054 H
194 2 0.0182679 9.31909 8.317 10.7766 H
178 4 0.620502 12.3518 7.18707 14.5454 Si
139 2 0.0303509 10.3724 8.57186 15.8755 H
116 2 0.340269 12.3686 7.82968 10.9353 H
191 3 -0.673827 11.8867 7.92822 9.96241 O
43 1 -0.138283 11.0464 8.74606 15.0472 C
186 1 -0.105122 9.60042 6.82208 8.26253 C
263 3 -0.767105 8.00948 12.7341 8.75574 O
204 2 0.0247752 8.57019 7.10832 8.45022 H
264 2 0.0484826 7.57654 12.6148 16.0044 H
190 3 -0.651847 12.156 6.77674 12.9658 O
ITEM: TIMESTEP
100
ITEM: NUMBER OF ATOMS
274
ITEM: BOX BOUNDS xy xz yz pp pp pp
-8.3797999999999995e+00 1.8013900000000000e+01 -8.3797999999999995e+00
0.0000000000000000e+00 1.3273200000000001e+01 1.1950000000000001e+00
0.0000000000000000e+00 1.6397010000000002e+01 4.3120000000000003e-01
ITEM: ATOMS id type q x y z element
7 4 0.593233 0.65956 1.66672 6.05404 Si
9 4 1.05194 0.483638 3.47573 2.25217 Si
10 4 1.29559 0.0648727 4.33736 7.45969 Si
56 3 -0.65357 0.683554 1.30438 4.47883 O
58 3 -0.746768 -1.11288 3.53675 2.42409 O
59 3 -0.778608 0.92167 2.22896 1.38728 O
61 3 -0.748652 0.735839 3.26647 6.41904 O
62 3 -0.858204 -0.918607 5.3303 6.66103 O
78 3 -0.784064 1.38494 3.88411 3.56847 O
25 4 1.23863 1.4672 6.12124 3.52021 Si
111 2 0.372414 1.07546 3.63222 4.55898 H
12 4 1.19945 -0.908267 6.36417 5.4704 Si
5 4 0.798095 0.238701 1.53923 0.113127 Si
44 1 -0.0851807 3.83957 3.31989 2.37504 C
135 2 0.069467 2.7506 0.275083 6.01466 H
113 2 0.292743 -1.59819 3.1527 1.51516 H
265 2 0.0683418 3.05937 0.556775 1.18016 H
81 3 -0.649923 5.21826 2.50236 6.7575 O
118 2 0.077414 5.15541 0.545162 4.70673 H
19 4 0.912926 7.35065 0.372654 7.44636 Si
134 2 0.116598 3.05352 1.62254 7.11242 H
41 1 -0.0544703 2.39291 0.799215 6.84348 C
143 2 0.0480301 4.67301 2.64276 2.28367 H
85 3 -0.746932 4.02298 5.03623 6.2177 O
24 4 0.748274 4.15784 4.83142 0.929426 Si
223 2 -0.0192785 6.49664 1.78169 2.82412 H
26 4 1.04662 4.96767 4.11764 7.18815 Si
142 2 0.0611088 3.88588 3.87413 3.28933 H
28 4 1.0159 4.1919 6.09549 4.97559 Si
220 4 0.663765 6.55455 0.838066 1.39498 Si
242 1 -0.0832011 2.72285 0.183414 2.1303 C
243 2 0.109227 2.3663 0.930319 2.81354 H
222 3 -0.699507 5.65266 1.65774 0.340507 O
21 4 0.27355 6.0847 1.61575 5.69868 Si
141 2 0.115565 2.89148 2.86612 2.13361 H
77 3 -0.693024 5.49163 4.46128 0.0354103 O
8 4 1.02476 2.16455 2.16051 10.7602 Si
13 4 1.10284 0.3561 4.18448 12.2667 Si
14 4 1.36003 -1.37323 6.35406 11.075 Si
57 3 -0.76652 1.41673 1.84501 9.32852 O
63 3 -0.713311 0.0129528 3.96772 13.8302 O
64 3 -0.744893 0.927927 2.80096 11.6727 O
66 3 -0.759168 -0.906831 4.79143 11.4852 O
82 3 -0.770736 0.937547 5.08981 8.60389 O
114 2 0.0502421 1.43519 5.55504 12.1048 H
226 4 0.673586 3.3901 6.40781 15.3102 Si
248 2 0.0642464 2.21886 2.39162 13.7003 H
228 2 0.00915907 1.78364 6.04399 15.0069 H
86 3 -0.706342 2.41346 6.33386 10.5485 O
65 3 -0.849981 -2.82889 6.23665 10.3724 O
245 1 -0.0933669 2.65529 2.73128 14.6301 C
27 4 0.954781 1.28757 6.56527 9.35999 Si
247 2 0.0713679 2.6078 3.8091 14.7449 H
6 4 1.05673 -0.114614 1.50135 8.82019 Si
124 2 0.23078 2.43352 3.82596 8.63455 H
80 3 -0.810033 4.4804 4.22083 8.7175 O
29 4 0.582567 3.99958 6.55749 10.6426 Si
22 4 1.05052 6.63262 0.754739 12.1224 Si
183 1 -0.0798868 5.60359 3.11273 13.9574 C
227 3 -0.710346 4.06413 5.20291 16.0642 O
246 2 0.0434357 3.63734 2.36037 14.8919 H
197 2 0.0604178 5.3514 2.05848 14.099 H
179 4 0.820051 7.05968 3.41181 15.5333 Si
187 3 -0.767386 7.63329 1.17556 13.2822 O
229 2 0.0723711 4.04703 6.26415 13.6767 H
73 3 -0.800386 3.48869 3.10009 11.0299 O
195 2 0.0751326 6.05833 3.25761 12.976 H
20 4 1.09983 4.68389 3.85323 10.2722 Si
196 2 0.0735954 4.78652 3.78093 14.2205 H
75 3 -0.764502 6.18692 3.9852 10.8848 O
76 3 -0.809833 7.01005 1.49973 10.7456 O
117 2 0.316908 5.38357 1.22144 8.58073 H
1 4 0.877565 -7.18363 11.6794 1.58334 Si
16 4 1.25728 -2.65788 8.23033 6.91934 Si
17 4 1.06411 -3.96571 10.1494 5.02416 Si
70 3 -0.783314 -3.61826 9.43063 6.42645 O
90 3 -0.747438 -2.86839 11.2253 4.4156 O
115 2 0.038225 -5.39893 11.0524 5.19133 H
251 1 -0.0803243 -4.17431 8.87078 0.804449 C
89 3 -0.680839 -2.23165 12.1682 1.89554 O
153 2 0.0586387 -2.1629 8.6765 2.98424 H
253 2 0.103418 -4.2149 9.19006 1.8222 H
244 2 0.0668523 -4.94948 12.3573 2.56481 H
68 3 -0.808139 -1.92963 7.58515 5.54574 O
31 4 0.964783 -1.73263 11.2518 3.24016 Si
268 2 0.0601996 -4.44735 7.81955 0.708271 H
252 2 0.0273213 -3.31292 9.18493 0.239826 H
69 3 -0.729154 -4.30745 8.95161 4.0225 O
67 3 -0.830761 -3.54847 7.27056 7.83685 O
147 2 0.0599194 2.48924 7.0948 7.16539 H
84 3 -0.804268 2.88713 6.58554 4.03326 O
112 2 0.0348298 -1.35193 7.2141 0.149 H
49 1 -0.107451 1.7872 10.3464 5.28799 C
149 2 0.0749282 1.31061 8.36272 7.5774 H
30 4 0.681986 2.39201 7.69137 1.21252 Si
272 2 0.0501579 0.921211 9.84897 0.972804 H
87 3 -0.749071 1.39764 6.71764 2.00457 O
48 1 -0.0995233 -1.22976 9.15276 2.6876 C
93 3 -0.714742 -0.233628 11.8037 3.66992 O
152 2 0.0288772 -1.00249 9.04126 1.64008 H
79 3 -0.82405 0.293305 6.68527 4.45347 O
94 3 -0.67599 -0.425782 12.0795 6.41918 O
151 2 0.0948329 -0.378976 8.89526 3.30606 H
33 4 0.699463 0.460651 11.9839 5.10792 Si
156 2 0.0840401 1.06634 9.53764 5.1287 H
274 2 0.323943 -3.65092 8.31457 3.93603 H
47 1 -0.0937448 1.863 9.70108 1.47849 C
133 2 0.0802991 -6.29164 13.0117 7.66838 H
46 1 -0.123449 2.15662 7.78247 7.9033 C
271 2 0.0417593 1.82129 9.72409 2.5669 H
154 2 0.0451977 2.14149 10.4283 6.29987 H
18 4 1.13254 -1.87513 8.34586 13.3967 Si
35 4 0.9431 -2.81315 11.235 13.6461 Si
72 3 -0.821988 -1.31463 7.20634 12.4278 O
96 3 -0.746866 -2.421 9.79963 12.9225 O
97 3 -0.745106 -2.78109 12.4113 12.4385 O
98 3 -0.684968 -4.21721 11.2159 14.6669 O
126 2 0.288125 -6.46724 12.439 15.1927 H
32 4 0.754196 -1.54515 10.502 8.68848 Si
138 2 0.0622213 -6.23558 12.4279 10.7612 H
74 3 -0.699418 -2.8883 13.0659 8.53617 O
71 3 -0.767881 -2.78503 7.78283 14.5623 O
137 2 0.0966768 -4.96002 12.9409 11.9668 H
161 2 0.0544857 -1.87987 11.249 15.9227 H
42 1 -0.104368 -5.97751 13.0547 11.6012 C
162 2 0.103204 -1.03621 12.5642 15.05 H
15 4 0.669201 -4.66265 10.1966 15.8493 Si
148 2 0.0173311 2.94379 8.3497 8.3972 H
160 2 0.0209157 -0.395611 10.887 14.814 H
50 1 -0.111494 2.85594 9.81267 10.9198 C
157 2 0.0516709 1.91447 9.27638 10.9013 H
51 1 -0.110496 -1.23194 11.5157 15.0753 C
83 3 -0.727159 -0.136044 7.3164 9.83567 O
95 3 -0.617446 4.55061 7.31213 12.0604 O
120 2 0.291366 -0.627724 12.2048 9.93721 H
128 2 0.0267153 2.53184 8.64925 13.4561 H
92 3 -0.692872 -0.542968 11.7018 9.0991 O
88 3 -0.69823 3.53299 7.9459 15.7011 O
266 2 0.359156 -0.690063 8.31489 8.83821 H
136 2 0.0430284 -6.73091 13.104 12.3698 H
127 2 0.305588 -2.51149 12.9904 9.47564 H
110 2 0.0696732 -1.18443 7.03644 16.01 H
91 3 -0.713046 -0.995505 9.11146 8.06131 O
45 1 -0.0951343 6.88015 5.17069 7.03821 C
130 2 0.00577901 6.50479 4.5604 2.3596 H
105 3 -0.689701 10.4526 3.11764 7.28211 O
221 1 -0.116572 8.50957 0.93659 0.977876 C
146 2 0.0754398 7.40434 4.39127 6.52677 H
38 4 0.633453 6.02934 6.18023 2.75731 Si
224 2 0.077226 8.55038 1.63813 0.158618 H
99 3 -0.716466 8.25645 1.69834 7.60294 O
256 2 0.0367867 10.3695 0.735902 3.79287 H
257 2 0.0571852 10.6819 0.811396 5.60258 H
254 1 -0.10699 9.95813 0.851888 4.78624 C
145 2 0.0550434 6.63207 6.0162 6.43369 H
255 2 0.062916 9.27846 1.69095 4.90442 H
104 3 -0.749556 5.65375 6.01201 4.30021 O
167 2 0.0326614 8.56721 6.30199 2.93547 H
225 2 0.0289961 8.94162 1.34778 1.88987 H
119 2 0.0275463 7.37908 2.51611 4.97452 H
230 4 0.469129 13.3605 0.436519 2.68073 Si
260 2 0.0956963 12.8906 0.494661 5.21541 H
169 2 0.0436497 11.2458 5.04433 5.21845 H
4 4 0.691357 15.5449 1.95591 3.91593 Si
37 4 1.09814 14.4181 1.87414 6.72222 Si
39 4 1.025 12.0188 3.73623 7.3974 Si
213 2 0.31559 15.7459 0.516625 1.52801 H
171 2 0.0798234 12.8858 5.65079 5.8369 H
106 3 -0.725115 13.0105 2.45949 7.37863 O
102 3 -0.796675 14.6211 0.224047 6.62128 O
231 1 -0.103026 12.3581 2.21389 2.44106 C
101 3 -0.710219 14.4995 2.36839 5.1074 O
232 3 -0.633437 15.2825 0.397114 2.52405 O
233 2 0.0702664 13.1684 2.90899 2.55315 H
54 1 -0.105143 12.2512 4.82629 5.56228 C
235 2 0.0466227 11.9445 2.1891 1.43521 H
234 2 0.0304808 11.6065 2.37005 3.19134 H
170 2 0.0756548 12.7565 4.04017 5.01986 H
267 2 0.0268465 10.5059 5.37007 0.373175 H
273 2 0.04037 10.8109 0.799257 12.3361 H
52 1 -0.119937 10.4429 1.17332 9.74777 C
100 3 -0.643896 8.61921 3.9837 9.13263 O
121 2 0.265056 9.02801 4.47661 12.0549 H
180 4 0.653793 8.86535 2.23956 13.2859 Si
188 3 -0.651066 8.98576 3.53308 14.7877 O
189 3 -0.684325 9.29957 3.42365 11.7768 O
192 3 -0.6899 10.1556 5.97356 11.1711 O
174 2 0.225623 8.88889 4.53698 14.365 H
184 1 -0.107798 10.5852 1.18473 13.3361 C
269 2 0.319295 9.2356 4.42779 9.82102 H
164 2 0.0426442 9.8124 1.14931 10.6155 H
36 4 0.871347 9.51546 2.34249 8.36646 Si
60 3 -0.729988 15.7713 2.68524 8.22796 O
198 2 0.0338066 11.298 1.89367 13.703 H
205 2 0.0945892 10.1069 5.75361 8.31283 H
193 2 0.084729 7.43328 6.53788 14.5091 H
23 4 0.918828 7.52273 3.03782 10.6632 Si
181 4 0.689131 11.3262 5.5552 12.1791 Si
11 4 1.27268 13.1108 6.21425 9.02655 Si
249 1 -0.120679 12.4881 5.53124 15.7526 C
202 2 0.0360091 12.9819 3.81105 12.5671 H
173 1 -0.111402 15.179 1.49308 13.2686 C
165 2 0.0511535 11.3486 1.75747 9.83735 H
176 2 0.0612367 16.0037 0.877129 12.9355 H
177 2 0.0611923 14.716 2.05723 12.4795 H
172 4 0.661284 15.9212 2.81569 14.5645 Si
262 3 -0.703271 16.655 2.24596 15.8785 O
200 2 0.139935 13.0911 4.35924 10.9037 H
201 2 0.062308 11.7656 3.14521 11.3098 H
185 1 -0.0780406 12.418 3.95812 11.6481 C
107 3 -0.804675 12.3613 4.83656 8.59544 O
175 2 0.0387096 14.4667 0.933357 13.8528 H
190 3 -0.701043 12.1821 6.66636 12.8742 O
199 2 0.0411124 10.2843 0.455573 14.0559 H
250 2 0.0462087 13.4867 5.21106 16.0526 H
144 2 0.0885631 7.19623 5.36571 8.04454 H
236 4 0.609609 5.16738 11.3816 0.516643 Si
258 1 -0.0850794 4.53236 12.5008 4.52363 C
259 2 0.0277203 3.58803 12.0683 4.27278 H
238 3 -0.622667 4.3026 12.3232 1.53577 O
261 2 0.0671923 5.31923 11.8292 4.68475 H
150 2 0.0920422 2.69038 10.259 1.06116 H
3 3 -0.674558 10.2143 10.2349 1.11035 O
239 2 0.0728799 6.27975 10.384 2.63028 H
122 2 -0.0016297 4.41253 7.60179 5.81544 H
155 2 0.0289849 2.54398 10.4556 4.54789 H
103 3 -0.681315 4.93165 6.77975 1.69215 O
237 1 -0.0921197 6.2557 9.94504 1.64424 C
241 2 0.0542316 5.65663 9.06131 1.5601 H
218 2 0.107571 11.175 9.45342 7.25275 H
207 4 1.02497 6.88496 12.0037 7.72143 Si
203 2 0.0450105 10.2058 7.37164 7.53805 H
210 1 -0.0869288 10.2566 9.64709 7.77891 C
240 2 0.0705765 7.19187 9.8898 1.13967 H
209 1 -0.104237 8.42204 8.39458 5.45588 C
166 2 0.0340337 8.04103 6.71506 1.28122 H
217 2 0.0579575 7.95035 8.60668 4.51643 H
2 3 -0.684349 8.70587 11.4873 2.84966 O
206 4 0.875432 8.55886 12.1751 4.30209 Si
53 1 -0.118987 7.91045 6.90208 2.31836 C
216 2 0.0485247 9.42572 8.01208 5.41215 H
215 2 0.041667 7.81342 7.86281 6.1572 H
211 3 -0.712195 9.321 11.4006 5.49284 O
208 4 0.605075 8.74174 10.2226 6.46511 Si
168 2 0.0582334 7.90623 7.92189 2.55901 H
212 3 -0.714472 7.39385 10.5107 7.42472 O
125 2 0.21114 3.96712 7.29504 1.93436 H
270 2 0.0517097 0.431175 12.7577 0.766742 H
40 4 0.619379 5.8059 9.93067 14.372 Si
108 3 -0.606862 4.89389 10.0029 13.0092 O
109 3 -0.655841 5.49371 11.1337 15.4291 O
132 2 0.0616321 5.55199 8.34479 15.0683 H
214 2 0.0758405 7.1918 9.11644 11.2257 H
34 4 0.576825 3.88304 8.84167 12.4312 Si
159 2 0.0516798 2.77682 10.8682 11.0882 H
129 2 0.131664 4.04145 12.7044 15.6979 H
158 2 0.0333362 3.58384 9.54152 10.167 H
131 2 -0.0139678 7.45626 9.75433 13.9139 H
182 4 0.590257 10.6038 7.14181 10.1591 Si
140 2 0.0586103 10.7306 9.09854 14.1205 H
219 2 0.0703052 10.1979 10.1063 8.74165 H
194 2 0.026385 9.5768 8.46554 10.6214 H
178 4 0.695364 12.5681 7.16379 14.3356 Si
139 2 0.026962 10.5429 8.28248 15.8243 H
116 2 0.371113 12.6487 7.61988 11.0121 H
191 3 -0.657358 12.0772 7.86841 10.1532 O
43 1 -0.144016 11.1554 8.60866 14.9855 C
186 1 -0.0975087 9.73785 6.75609 8.30657 C
263 3 -0.78518 7.86289 12.803 8.73276 O
204 2 0.0369308 8.69818 6.91323 8.44505 H
264 2 0.0674684 7.51477 12.8083 15.8974 H
55 3 -0.694281 9.86054 12.7623 15.9911 O
123 2 0.00240828 4.6419 7.18511 9.11505 H
163 2 0.057605 2.20603 13.0292 9.33108 H
ITEM: TIMESTEP
200
ITEM: NUMBER OF ATOMS
274
ITEM: BOX BOUNDS xy xz yz pp pp pp
-8.3797999999999995e+00 1.8013900000000000e+01 -8.3797999999999995e+00
0.0000000000000000e+00 1.3273200000000001e+01 1.1950000000000001e+00
0.0000000000000000e+00 1.6718520000000002e+01 4.3120000000000003e-01
ITEM: ATOMS id type q x y z element
7 4 0.573635 0.680618 1.68196 6.1934 Si
9 4 0.877466 0.352107 3.43557 2.17304 Si
10 4 1.19324 -0.0754238 4.32222 7.52726 Si
56 3 -0.652468 0.776588 1.36327 4.63332 O
58 3 -0.664725 -1.48365 3.60741 2.47119 O
59 3 -0.69782 0.759715 2.01662 1.39043 O
61 3 -0.639308 0.93488 3.25275 6.32423 O
62 3 -0.856985 -0.784128 5.3193 6.51873 O
78 3 -0.771593 1.38886 3.81564 3.30879 O
25 4 1.17952 1.43249 6.03603 3.52435 Si
111 2 0.331953 1.03928 3.4389 4.29565 H
12 4 1.26637 -0.929808 6.38375 5.37988 Si
124 2 0.224025 2.58574 3.96503 5.15948 H
44 1 -0.0595896 3.81237 3.60593 2.33501 C
135 2 0.0734906 2.95954 0.483909 6.07633 H
84 3 -0.823854 2.87467 6.43287 4.02085 O
265 2 0.0833812 2.81632 0.438162 0.922536 H
81 3 -0.676646 5.17821 2.5761 6.61432 O
118 2 0.0790002 5.14659 0.646415 4.61662 H
19 4 0.93403 7.30565 0.418567 7.34947 Si
134 2 0.112934 2.75043 1.53549 7.54155 H
41 1 -0.054508 2.36588 0.728576 6.97459 C
143 2 0.0431057 4.77105 3.13666 2.47056 H
85 3 -0.755899 3.98033 4.97364 6.06998 O
24 4 0.629505 4.14141 4.86378 0.686487 Si
223 2 -0.00287435 6.605 1.63267 2.88659 H
26 4 1.05447 4.99615 4.1457 7.06036 Si
142 2 0.0936418 3.52168 4.23166 3.15729 H
28 4 1.05371 4.16897 6.16748 4.96721 Si
220 4 0.604219 6.75304 0.892135 1.34224 Si
117 2 0.315415 4.78354 0.950872 7.81821 H
243 2 0.100941 2.29595 0.620098 2.66073 H
222 3 -0.636242 5.60835 1.50855 0.337342 O
21 4 0.286157 6.09726 1.73284 5.60776 Si
141 2 0.120587 3.0342 3.00559 1.89201 H
8 4 1.0723 2.17736 2.2295 10.8981 Si
13 4 1.09142 0.512544 4.19991 12.4835 Si
14 4 1.45814 -1.38221 6.26527 11.1366 Si
57 3 -0.723882 1.37663 2.02568 9.42784 O
63 3 -0.729043 0.0724458 4.07211 14.0115 O
64 3 -0.761585 1.0336 2.7623 11.902 O
66 3 -0.789032 -0.686191 4.88438 11.578 O
82 3 -0.719911 1.03428 5.06402 8.5173 O
114 2 0.0627406 1.6891 5.52494 12.2136 H
226 4 0.523588 3.24509 6.39495 15.46 Si
248 2 0.0540105 2.66389 1.50992 14.1493 H
228 2 0.0254134 1.53254 6.37429 15.1662 H
86 3 -0.716748 2.34418 6.47738 10.4559 O
65 3 -0.862279 -2.73409 6.15289 10.2447 O
245 1 -0.0904866 2.82744 2.39892 14.7759 C
27 4 1.12491 1.26777 6.47697 9.27061 Si
247 2 0.0615441 2.63384 3.3413 14.2928 H
6 4 1.02965 -0.122233 1.58873 8.92726 Si
74 3 -0.709315 5.39765 0.368652 8.34809 O
80 3 -0.758297 4.44255 4.19187 8.57891 O
29 4 0.579828 3.98878 6.59489 10.6599 Si
22 4 1.09855 6.746 0.664573 12.2519 Si
183 1 -0.071788 5.69567 3.25647 14.1222 C
227 3 -0.645369 3.94673 5.07816 16.2701 O
246 2 0.0652174 3.70652 2.43141 15.4136 H
197 2 0.0726599 5.33286 2.24396 14.0517 H
179 4 0.744597 7.14554 3.2536 15.7296 Si
187 3 -0.786979 7.54114 1.3537 13.4477 O
229 2 0.0427826 3.63714 6.34339 13.8232 H
73 3 -0.784019 3.37213 3.27818 11.0182 O
195 2 0.0854364 6.20734 3.6359 13.2237 H
20 4 1.0971 4.62149 3.89959 10.1658 Si
196 2 0.0720881 4.99098 3.92411 14.6393 H
75 3 -0.77979 6.0926 3.9401 10.7947 O
76 3 -0.829149 6.98073 1.42179 10.8524 O
127 2 0.300006 5.73523 1.00701 9.08603 H
5 4 0.802859 1.2619 2.005 16.3389 Si
23 4 0.956679 7.37302 2.95647 10.5519 Si
137 2 0.10624 3.75873 0.447116 11.959 H
1 4 0.731112 -7.22888 11.5676 1.59862 Si
16 4 1.26743 -2.64086 8.20719 6.93425 Si
17 4 1.08549 -3.79357 10.1748 5.03674 Si
70 3 -0.803742 -3.25133 9.63427 6.46183 O
90 3 -0.712742 -2.79367 11.1517 4.25418 O
115 2 0.0189992 -5.27799 10.9485 5.36788 H
251 1 -0.088393 -4.15251 8.73086 0.539944 C
89 3 -0.685392 -2.14925 12.1761 1.75375 O
153 2 0.0733309 -2.31031 8.69312 2.13371 H
253 2 0.0720062 -4.15293 9.43734 1.34898 H
244 2 0.083994 -4.69653 12.3342 2.18423 H
68 3 -0.834837 -2.07715 7.42314 5.65181 O
31 4 1.00932 -1.71778 11.2116 2.97501 Si
268 2 0.0598407 -4.42944 7.73949 0.815137 H
148 2 0.0279957 2.5207 7.63187 7.30591 H
69 3 -0.691831 -4.11057 9.0069 3.97387 O
67 3 -0.824744 -3.5835 7.10311 7.67234 O
147 2 0.0790447 0.731119 7.87143 7.16477 H
218 2 0.0779758 -5.4157 9.57259 7.33244 H
154 2 0.0487132 1.56606 10.4599 6.59322 H
49 1 -0.100714 1.3909 10.2723 5.54114 C
271 2 0.0469802 1.24219 9.60875 2.20056 H
30 4 0.607101 2.34601 7.53924 1.10876 Si
272 2 0.0694641 1.81069 9.96273 0.520718 H
87 3 -0.678427 1.16912 6.5681 1.91366 O
48 1 -0.100929 -1.3439 9.16539 2.25043 C
93 3 -0.682698 -0.299092 11.7912 3.54886 O
152 2 0.0151765 -0.891925 9.49434 1.32027 H
79 3 -0.828695 0.330727 6.73218 4.48464 O
94 3 -0.663363 -0.794699 12.2166 6.1397 O
151 2 0.0929332 -0.674023 8.73015 2.99555 H
33 4 0.649993 0.382353 12.0302 5.06662 Si
156 2 0.0899854 0.773306 9.42373 5.35579 H
274 2 0.276048 -4.47417 8.16919 4.46503 H
47 1 -0.0869507 2.05741 9.56267 1.50394 C
133 2 0.0723934 -6.38546 12.7375 7.53331 H
46 1 -0.114936 1.6173 7.94857 7.78414 C
125 2 0.204141 3.8139 6.91122 1.87559 H
242 1 -0.0702317 -5.59314 12.868 1.90512 C
18 4 1.11179 -1.87886 8.503 13.2809 Si
35 4 0.960347 -2.82211 11.2971 13.8498 Si
72 3 -0.827731 -1.27773 7.41399 12.2715 O
96 3 -0.766769 -2.59253 9.912 13.0041 O
97 3 -0.763302 -2.76974 12.5235 12.6638 O
98 3 -0.671376 -4.08989 11.2791 14.9239 O
149 2 0.0486784 1.64492 8.86776 8.3213 H
32 4 0.734421 -1.71339 10.5512 8.75901 Si
138 2 0.0605392 -5.47375 12.573 10.5226 H
112 2 0.0563647 -0.370908 7.5824 16.0964 H
71 3 -0.723407 -2.55476 7.74592 14.523 O
91 3 -0.719087 -1.1484 9.06449 8.36987 O
161 2 0.0961594 -1.73952 11.7969 16.2701 H
42 1 -0.106966 -5.55763 13.1216 11.4527 C
162 2 0.11212 -1.07168 12.9153 15.0332 H
15 4 0.631867 -4.71665 10.1782 16.0656 Si
136 2 0.0396923 -6.41311 12.8605 12.0704 H
160 2 0.0039735 -0.44377 11.1921 15.166 H
50 1 -0.11786 2.95025 9.68035 10.8405 C
157 2 0.0546146 2.1127 9.03253 10.6856 H
51 1 -0.109683 -1.26829 11.8802 15.3154 C
83 3 -0.733707 -0.0987788 6.96912 9.89416 O
95 3 -0.640081 4.59881 7.36018 12.0098 O
120 2 0.300579 -0.889821 12.3036 9.80375 H
128 2 0.00775456 2.44756 8.38842 13.3149 H
92 3 -0.694309 -0.653622 11.7801 9.02727 O
88 3 -0.647725 3.69235 7.97261 15.9286 O
266 2 0.339373 -1.10057 8.34167 9.14571 H
252 2 0.0404446 -2.14146 9.28203 16.265 H
116 2 0.345796 -4.15751 7.90683 10.9635 H
110 2 0.0446235 -0.098625 7.84958 16.3914 H
45 1 -0.113965 7.00178 5.08266 7.20791 C
130 2 0.0384202 6.30734 4.59856 1.87892 H
105 3 -0.724597 10.5812 3.03052 7.5229 O
221 1 -0.124242 8.69632 1.20038 1.12105 C
146 2 0.0967415 7.64021 4.22297 7.26955 H
38 4 0.630334 5.88173 6.13056 2.56715 Si