ITEM: TIMESTEP
0
ITEM: NUMBER OF ATOMS
274
ITEM: BOX BOUNDS xy xz yz pp pp pp
-8.3797999999999995e+00 1.8013900000000000e+01 -8.3797999999999995e+00
0.0000000000000000e+00 1.3273200000000001e+01 1.1950000000000001e+00
0.0000000000000000e+00 1.6075500000000002e+01 4.3120000000000003e-01
ITEM: ATOMS id type q x y z element
7 4 0.581026 0.721036 1.65502 6.00736 Si
9 4 0.807188 0.488095 3.56342 2.23554 Si
10 4 1.20986 0.0235882 4.26562 7.38417 Si
56 3 -0.658624 0.670272 1.34937 4.43604 O
58 3 -0.673714 -1.46674 3.62539 2.50974 O
59 3 -0.678835 1.00271 2.19581 1.46694 O
61 3 -0.691466 0.828948 3.29011 6.26144 O
62 3 -0.792736 -1.029 5.32365 6.70153 O
78 3 -0.73388 1.54324 3.89287 3.43489 O
25 4 1.22924 1.51362 6.11198 3.64995 Si
111 2 0.385642 1.3238 3.45469 4.36608 H
12 4 1.17311 -0.97946 6.36939 5.48577 Si
5 4 0.755893 0.375172 1.59907 0.0519269 Si
110 2 0.0673904 -0.829853 5.57525 0.884737 H
112 2 0.0711746 -1.54732 5.05493 0.520155 H
113 2 0.281831 -1.64298 3.0919 1.64296 H
265 2 0.089926 3.29698 0.589653 1.11449 H
117 2 0.308719 4.85604 0.422428 7.97272 H
118 2 0.117484 5.0407 0.241031 5.03099 H
19 4 0.912554 7.40391 0.344545 7.47918 Si
134 2 0.12643 3.11241 1.59872 6.93369 H
41 1 -0.0586168 2.51538 0.781505 6.58307 C
143 2 0.0535394 5.0648 2.83195 2.34877 H
85 3 -0.729388 4.10924 4.7777 5.95864 O
24 4 0.765329 4.34442 4.76635 0.885347 Si
223 2 -0.0134801 6.92211 1.81223 2.69722 H
26 4 1.05123 4.99194 4.00915 7.15877 Si
142 2 0.094981 3.96676 3.87966 3.36965 H
28 4 1.02301 4.26447 6.1442 5.11529 Si
220 4 0.669511 6.50321 0.780978 1.40073 Si
77 3 -0.699508 5.59599 4.19464 0.032377 O
243 2 0.0843706 2.71696 0.686434 2.82949 H
222 3 -0.671324 5.47727 1.59205 0.435367 O
21 4 0.243562 6.02236 1.48285 5.77143 Si
141 2 0.123785 3.28771 2.80565 2.04983 H
44 1 -0.0652498 4.13145 3.36212 2.41249 C
81 3 -0.657786 5.19494 2.40689 6.87737 O
135 2 0.0628699 2.91569 0.290204 5.69264 H
119 2 0.0204956 6.86711 2.57467 4.72799 H
84 3 -0.779131 3.01079 6.48491 4.05465 O
227 3 -0.664801 2.9318 4.70885 0.0656967 O
242 1 -0.0744401 3.00989 0.0555671 2.00248 C
8 4 1.00798 2.09567 2.10018 10.801 Si
13 4 1.05928 0.255889 4.16605 12.1417 Si
14 4 1.35244 -1.35832 6.46935 10.9723 Si
57 3 -0.712867 1.56096 1.83278 9.23972 O
63 3 -0.709359 -0.0878708 4.06567 13.755 O
64 3 -0.771556 0.844764 2.72786 11.6543 O
66 3 -0.747358 -0.863722 4.9253 11.2208 O
82 3 -0.724784 1.00071 5.03161 8.52283 O
114 2 0.045457 1.34402 5.51531 12.2579 H
262 3 -0.721385 0.00246517 2.43436 15.9566 O
248 2 0.0778167 1.78072 2.80387 13.6559 H
228 2 0.0126648 1.99656 6.09949 14.8116 H
86 3 -0.711488 2.21896 6.31429 10.5801 O
65 3 -0.820192 -2.82315 6.40664 10.2196 O
245 1 -0.103892 2.57724 2.77941 14.3821 C
27 4 1.07203 1.28888 6.45416 9.24529 Si
247 2 0.0595972 2.97233 3.72706 14.6884 H
6 4 0.991473 -0.00091492 1.52641 8.80243 Si
124 2 0.101758 2.74655 4.44549 11.6944 H
123 2 0.0293474 4.98133 6.35027 9.4231 H
29 4 0.558696 3.87112 6.42265 10.8685 Si
22 4 1.00484 6.69521 0.710912 12.1025 Si
183 1 -0.078061 5.60536 3.19157 13.7565 C
127 2 0.330582 5.69557 0.796793 9.29261 H
246 2 0.036172 3.27611 1.97504 14.2623 H
197 2 0.0689838 5.231 2.18774 13.6471 H
179 4 0.821598 7.03238 3.19445 15.3995 Si
187 3 -0.756249 7.53045 1.22854 13.368 O
229 2 0.0511279 4.53022 6.49397 13.7381 H
73 3 -0.789225 3.5363 2.93898 11.0146 O
195 2 0.0815244 6.2885 3.46538 12.967 H
20 4 1.05083 4.67557 3.79724 10.2552 Si
196 2 0.0528526 4.8671 3.95866 13.9411 H
75 3 -0.763831 6.1939 3.90825 10.9153 O
76 3 -0.790829 7.16004 1.34064 10.69 O
80 3 -0.773277 4.55372 4.21362 8.70111 O
226 4 0.58325 3.62568 6.3777 15.1436 Si
1 4 0.859895 -7.1363 11.8387 1.51536 Si
16 4 1.22128 -2.73263 8.3623 6.8795 Si
17 4 1.01055 -4.08931 10.0515 4.91698 Si
70 3 -0.761244 -3.79843 9.58665 6.44287 O
90 3 -0.736484 -3.11742 11.3268 4.5231 O
115 2 0.0562004 -5.63459 10.8069 4.97103 H
251 1 -0.0805065 -4.14561 8.89357 0.854101 C
89 3 -0.694532 -2.39917 12.2682 2.10856 O
153 2 0.122734 -2.3504 8.77702 3.27962 H
253 2 0.0694258 -3.91754 9.78587 1.45891 H
244 2 0.0986165 -4.6254 12.1763 2.28359 H
68 3 -0.782191 -2.02813 7.57545 5.6271 O
31 4 0.943483 -1.86189 11.3919 3.43566 Si
268 2 0.0732465 -4.49653 8.05065 1.40933 H
252 2 0.0565184 -3.35512 8.65309 0.149711 H
69 3 -0.720141 -4.27856 8.83007 3.87934 O
67 3 -0.805877 -3.45841 7.10386 7.61874 O
218 2 0.102741 -5.7361 9.99462 7.58624 H
133 2 0.0659044 -6.23789 12.9492 7.33066 H
3 3 -0.688411 -6.64238 10.47 0.915138 O
49 1 -0.10421 1.84515 10.4986 5.52597 C
149 2 0.079012 2.10822 7.16804 6.8395 H
30 4 0.635879 2.34099 7.63435 1.22582 Si
272 2 0.0393146 0.921558 9.64543 1.5268 H
155 2 0.0456445 1.96623 10.0015 4.56566 H
48 1 -0.0938368 -1.50486 9.27691 2.80179 C
93 3 -0.697308 -0.339653 11.9962 3.83666 O
152 2 0.0305611 -1.47654 9.28624 1.70612 H
270 2 0.0359032 -0.0429314 12.5363 0.166584 H
94 3 -0.645016 -0.560918 12.0423 6.36057 O
151 2 0.0730187 -0.581889 9.01154 3.29292 H
33 4 0.676195 0.511556 12.1374 5.17361 Si
156 2 0.0958967 1.26913 9.94623 6.23552 H
79 3 -0.812036 0.478082 6.57144 4.80371 O
47 1 -0.0959273 1.98439 9.68367 1.36169 C
148 2 0.0465243 2.09893 8.57994 7.98778 H
46 1 -0.119719 2.43283 7.58649 7.79022 C
87 3 -0.725206 1.24599 6.79081 2.18013 O
91 3 -0.698962 -0.945823 9.0346 7.98694 O
18 4 1.16225 -2.04124 8.21368 13.3986 Si
35 4 1.02322 -2.76803 11.1667 13.5913 Si
72 3 -0.823121 -1.32127 7.16336 12.4286 O
96 3 -0.777032 -2.54706 9.66708 12.9284 O
97 3 -0.739873 -2.81888 12.4218 12.5204 O
98 3 -0.698849 -4.01601 11.2006 14.6515 O
126 2 0.309479 -6.0098 12.5677 15.2769 H
32 4 0.745155 -1.32479 10.3673 8.80252 Si
138 2 0.0553194 -6.44104 12.3441 11.1729 H
74 3 -0.707462 -2.80204 12.9424 8.57669 O
71 3 -0.729622 -2.9114 7.71849 14.6425 O
137 2 0.108276 -4.87982 13.0131 11.8574 H
161 2 0.0645454 -1.57653 11.6324 15.7191 H
42 1 -0.0944676 -5.96424 13.056 11.8306 C
55 3 -0.674887 -6.76355 12.8552 15.773 O
15 4 0.680487 -4.59255 10.2183 15.8564 Si
136 2 0.0546989 -6.41942 13.1529 12.8059 H
147 2 0.0206952 3.44098 7.31607 8.11206 H
50 1 -0.120873 2.75894 10.0043 11.0738 C
157 2 0.0574479 1.86841 9.41407 10.8833 H
51 1 -0.124183 -1.04266 11.4472 14.8214 C
83 3 -0.750618 0.00783856 7.30409 9.71637 O
95 3 -0.663832 4.46599 7.48745 11.9088 O
120 2 0.274389 -0.534131 12.2243 9.85761 H
128 2 0.017788 2.72386 8.83161 13.6493 H
92 3 -0.659105 -0.307366 11.6003 8.98694 O
88 3 -0.685893 3.7827 7.86292 15.7295 O
266 2 0.358608 -0.661241 8.10101 8.69078 H
162 2 0.0745553 -0.388899 12.2288 14.4407 H
160 2 0.00191512 -0.657911 10.4429 14.7302 H
45 1 -0.108793 6.89358 5.04685 7.09068 C
130 2 0.0011225 6.52834 4.61231 2.35176 H
105 3 -0.717005 10.53 3.24189 7.29101 O
221 1 -0.122012 8.39081 0.64311 0.679908 C
146 2 0.0749607 7.67342 4.32781 6.8762 H
38 4 0.628234 6.07071 6.20513 2.84863 Si
224 2 0.0723658 8.56321 1.53459 0.0701144 H
99 3 -0.740458 8.486 1.55809 7.45663 O
256 2 0.0216556 10.2699 1.01635 4.02823 H
257 2 0.0792379 10.7605 1.08817 5.77347 H
254 1 -0.0923847 9.95497 1.12145 5.06249 C
145 2 0.0601723 6.70421 5.75225 6.29763 H
255 2 0.0834538 9.26944 1.95015 5.19128 H
104 3 -0.730886 5.74153 6.22509 4.43497 O
167 2 0.0265837 8.59162 6.38422 3.18378 H
225 2 0.0468347 9.03742 0.605668 1.5385 H
205 2 0.0978244 9.69864 5.76649 8.03306 H
144 2 0.0725002 7.01964 5.54241 8.03729 H
260 2 0.0752049 12.6552 0.353405 5.14591 H
169 2 0.0369552 11.4216 5.43487 5.6046 H
4 4 0.714003 15.5684 2.01192 3.80616 Si
37 4 1.13423 14.4883 1.91898 6.65301 Si
39 4 1.03114 12.0618 3.77846 7.50323 Si
213 2 0.2931 15.2639 0.643305 1.62107 H
171 2 0.120623 13.2136 5.61596 6.06183 H
106 3 -0.713177 13.0772 2.44043 7.34114 O
102 3 -0.769231 14.697 0.267852 6.63963 O
231 1 -0.100242 12.6034 2.34079 2.22421 C
101 3 -0.721862 14.5741 2.38136 5.0942 O
232 3 -0.646858 15.2152 0.35251 2.63099 O
233 2 0.0867012 13.09 3.04656 2.90421 H
54 1 -0.0954621 12.3942 4.98837 5.7411 C
235 2 0.0430885 12.9274 2.35972 1.19627 H
234 2 0.0269698 11.5288 2.18654 2.33619 H
170 2 0.0619874 12.6751 4.34718 4.93123 H
230 4 0.428982 13.1889 0.450132 2.72459 Si
250 2 0.0413958 11.4989 5.23909 0.722952 H
273 2 0.0321968 10.7439 0.649459 12.5718 H
52 1 -0.103433 10.4337 1.37574 9.57268 C
100 3 -0.666751 8.57668 4.18976 9.21058 O
121 2 0.255119 8.83565 4.34682 12.154 H
180 4 0.605142 8.89447 2.1269 13.2764 Si
188 3 -0.638774 8.98911 3.47773 14.7311 O
189 3 -0.662161 9.21269 3.38731 11.7299 O
192 3 -0.660699 10.2515 5.93506 11.1216 O
174 2 0.226118 8.82173 4.37 14.1356 H
184 1 -0.11526 10.4663 0.928534 13.5524 C
269 2 0.342624 9.29779 4.43035 9.87347 H
164 2 0.0502993 9.92017 1.49076 10.5191 H
36 4 0.848557 9.41932 2.56481 8.27687 Si
267 2 0.0436876 11.0531 5.2103 16.0523 H
198 2 0.035917 11.1556 1.61627 14.0316 H
163 2 0.0723059 10.2558 0.406075 9.14516 H
193 2 0.0775132 7.78506 6.48326 14.8586 H
23 4 0.885294 7.47913 2.99231 10.5765 Si
181 4 0.664632 11.422 5.57584 12.1935 Si
11 4 1.26831 13.0066 6.27934 8.96905 Si
249 1 -0.121087 12.0659 5.55759 15.924 C
202 2 0.0246205 12.7039 3.47258 12.7128 H
173 1 -0.115742 15.2978 1.37341 13.5542 C
165 2 0.0660001 11.4541 1.71119 9.49958 H
176 2 0.0544963 16.0262 0.586597 13.7383 H
177 2 0.0675076 15.2728 1.76114 12.5343 H
172 4 0.666946 16.0513 2.87654 14.6399 Si
129 2 0.106866 12.7674 0.752026 15.9176 H
200 2 0.127292 13.2131 4.11883 11.1162 H
201 2 0.0781572 11.5741 3.41231 11.255 H
185 1 -0.0811016 12.3929 3.87317 11.7615 C
107 3 -0.797087 12.3028 4.8069 8.74404 O
175 2 0.0319945 14.3176 1.18859 13.9755 H
60 3 -0.728731 15.7909 2.63532 8.23548 O
236 4 0.578535 5.09313 11.3794 0.625849 Si
258 1 -0.0748821 4.34522 12.3463 4.52559 C
259 2 0.0291908 3.42907 11.83 4.35517 H
238 3 -0.613016 4.15244 12.3307 1.60703 O
261 2 0.0919949 5.16837 11.6919 4.73176 H
150 2 0.0974979 2.26924 9.99669 0.358542 H
154 2 0.0284674 2.7767 10.8932 5.908 H
239 2 0.0559473 5.64814 9.81738 2.68681 H
122 2 -0.0209159 4.35731 7.47443 6.22694 H
271 2 0.056519 2.55041 10.1389 2.14743 H
103 3 -0.676518 5.00374 6.68871 1.6989 O
237 1 -0.094976 5.98978 9.77561 1.67542 C
241 2 0.0556743 5.58864 8.92168 1.15629 H
125 2 0.213732 3.95954 7.20736 1.77959 H
207 4 1.00691 6.88285 12.0929 7.78302 Si
203 2 0.0340176 10.1354 7.52864 7.68458 H
210 1 -0.0969454 10.0714 10.0194 7.94457 C
240 2 0.0803492 7.04615 9.96961 1.53261 H
209 1 -0.102831 8.1856 8.4341 5.5457 C
166 2 0.0243828 8.18067 6.6892 1.51632 H
217 2 0.070755 7.34635 8.73239 4.93845 H
2 3 -0.653742 8.85711 11.4239 2.84632 O
206 4 0.886598 8.5815 12.2158 4.2564 Si
53 1 -0.121386 8.00475 6.95003 2.52325 C
216 2 0.03625 9.08788 8.22532 4.9998 H
215 2 0.0338299 7.97009 7.76758 6.36296 H
211 3 -0.699912 9.32107 11.3205 5.39227 O
208 4 0.602761 8.62572 10.277 6.43503 Si
168 2 0.0584513 7.88423 7.99634 2.71 H
212 3 -0.699282 7.11465 10.7272 6.96237 O
274 2 0.272846 11.7131 8.27019 4.00178 H
40 4 0.61533 5.8214 9.97798 14.4246 Si
108 3 -0.634844 5.12593 9.87234 12.9346 O
109 3 -0.637214 5.44184 11.205 15.4271 O
132 2 0.0624236 5.64122 8.49916 15.2458 H
214 2 0.118415 6.16694 9.16484 11.2397 H
34 4 0.624531 3.91119 8.93917 12.4115 Si
159 2 0.0293569 2.53522 10.8481 11.7377 H
199 2 0.0371465 1.73421 12.9373 14.1542 H
158 2 0.0439962 3.36375 10.2749 10.2053 H
131 2 -0.00635453 7.53952 9.93772 14.1936 H
182 4 0.585399 10.4169 7.18098 10.1025 Si
140 2 0.066351 10.6673 9.32816 14.1925 H
219 2 0.0678656 9.83146 10.4705 8.89054 H
194 2 0.0182679 9.31909 8.317 10.7766 H
178 4 0.620502 12.3518 7.18707 14.5454 Si
139 2 0.0303509 10.3724 8.57186 15.8755 H
116 2 0.340269 12.3686 7.82968 10.9353 H
191 3 -0.673827 11.8867 7.92822 9.96241 O
43 1 -0.138283 11.0464 8.74606 15.0472 C
186 1 -0.105122 9.60042 6.82208 8.26253 C
263 3 -0.767105 8.00948 12.7341 8.75574 O
204 2 0.0247752 8.57019 7.10832 8.45022 H
264 2 0.0484826 7.57654 12.6148 16.0044 H
190 3 -0.651847 12.156 6.77674 12.9658 O
ITEM: TIMESTEP
100
ITEM: NUMBER OF ATOMS
274
ITEM: BOX BOUNDS xy xz yz pp pp pp
-8.3797999999999995e+00 1.8270740000000000e+01 -8.3797999999999995e+00
0.0000000000000000e+00 1.3273200000000001e+01 1.4518400000000007e+00
0.0000000000000000e+00 1.6075500000000002e+01 4.3120000000000003e-01
ITEM: ATOMS id type q x y z element
7 4 0.593574 0.659557 1.66672 6.05403 Si
9 4 1.04307 0.484553 3.4752 2.2527 Si
10 4 1.29578 0.0649131 4.33738 7.45962 Si
56 3 -0.653493 0.683371 1.30439 4.47886 O
58 3 -0.745065 -1.11328 3.53669 2.4243 O
59 3 -0.779018 0.923035 2.2298 1.38623 O
61 3 -0.748567 0.735839 3.26644 6.41895 O
62 3 -0.858018 -0.918624 5.33035 6.66101 O
78 3 -0.78337 1.38797 3.88394 3.56736 O
25 4 1.23562 1.46724 6.12121 3.51996 Si
111 2 0.372418 1.07839 3.63165 4.55771 H
12 4 1.19955 -0.908285 6.36422 5.4704 Si
5 4 0.796713 0.238493 1.53933 0.113354 Si
44 1 -0.0879559 3.84781 3.32769 2.3552 C
135 2 0.0696252 2.75061 0.275064 6.01464 H
113 2 0.292587 -1.59746 3.15097 1.51556 H
265 2 0.0684531 3.05954 0.556071 1.17975 H
81 3 -0.649837 5.21828 2.50233 6.75756 O
118 2 0.0775819 5.15537 0.544993 4.70697 H
19 4 0.912877 7.35065 0.372647 7.44636 Si
134 2 0.116679 3.05353 1.62254 7.11238 H
41 1 -0.0542549 2.39292 0.799216 6.84345 C
143 2 0.0502879 4.67114 2.63554 2.28406 H
85 3 -0.746908 4.02312 5.03635 6.21771 O
24 4 0.762571 4.18337 4.83529 0.907578 Si
223 2 -0.0185815 6.50224 1.77854 2.82799 H
26 4 1.04661 4.96767 4.11762 7.18808 Si
142 2 0.0590474 3.89259 3.89349 3.2625 H
28 4 1.01645 4.19182 6.0953 4.97549 Si
220 4 0.660951 6.55461 0.837917 1.39614 Si
242 1 -0.0829816 2.7228 0.183846 2.13025 C
243 2 0.109909 2.367 0.932356 2.81228 H
222 3 -0.697382 5.65046 1.66533 0.345177 O
21 4 0.274003 6.08468 1.61576 5.69869 Si
141 2 0.112471 2.89478 2.88687 2.11046 H
77 3 -0.693862 5.50447 4.45882 0.052415 O
8 4 1.02483 2.16446 2.16047 10.7602 Si
13 4 1.10282 0.356008 4.18449 12.2667 Si
14 4 1.35997 -1.37329 6.35434 11.0754 Si
57 3 -0.766634 1.41674 1.84498 9.3285 O
63 3 -0.713757 0.0128614 3.96781 13.8303 O
64 3 -0.744844 0.927914 2.80101 11.6727 O
66 3 -0.759213 -0.90688 4.79164 11.4853 O
82 3 -0.7707 0.93751 5.08982 8.60393 O
114 2 0.0497762 1.43507 5.55506 12.1051 H
226 4 0.667558 3.39648 6.40867 15.2979 Si
248 2 0.0643595 2.21904 2.3919 13.7003 H
228 2 0.00751866 1.79355 5.97915 15.0566 H
86 3 -0.70657 2.41339 6.33384 10.5485 O
65 3 -0.849941 -2.82884 6.23667 10.3726 O
245 1 -0.09384 2.65495 2.73128 14.6305 C
27 4 0.95481 1.28748 6.5653 9.36003 Si
247 2 0.0701493 2.60786 3.80888 14.7455 H
6 4 1.05654 -0.114616 1.50133 8.82017 Si
124 2 0.230819 2.43368 3.82592 8.63478 H
80 3 -0.809992 4.48043 4.22083 8.71743 O
29 4 0.581849 3.99915 6.55698 10.6418 Si
22 4 1.05013 6.63273 0.754408 12.1222 Si
183 1 -0.0773902 5.59767 3.11161 13.9503 C
227 3 -0.711737 4.16736 5.20015 15.9534 O
246 2 0.0436358 3.63674 2.3602 14.893 H
197 2 0.0597183 5.34428 2.05796 14.0949 H
179 4 0.817599 7.07074 3.41009 15.5255 Si
187 3 -0.767659 7.63493 1.17639 13.2808 O
229 2 0.0809018 3.98842 6.33555 13.6212 H
73 3 -0.800446 3.48865 3.09998 11.0299 O
195 2 0.0755045 6.04726 3.25423 12.9659 H
20 4 1.09973 4.68371 3.85325 10.2722 Si
196 2 0.0819653 4.78122 3.78066 14.2123 H
75 3 -0.764353 6.18688 3.98537 10.8846 O
76 3 -0.809931 7.00992 1.49962 10.7456 O
117 2 0.316752 5.38354 1.22142 8.58067 H
1 4 0.877307 -7.18341 11.6791 1.58346 Si
16 4 1.25742 -2.65786 8.23026 6.91935 Si
17 4 1.06379 -3.96633 10.1492 5.02445 Si
70 3 -0.783452 -3.61836 9.43056 6.42672 O
90 3 -0.747217 -2.86883 11.225 4.41609 O
115 2 0.0382869 -5.39974 11.0519 5.19172 H
251 1 -0.0801564 -4.17412 8.87041 0.804135 C
89 3 -0.679873 -2.23191 12.1662 1.89581 O
153 2 0.0587778 -2.16251 8.67461 2.98409 H
253 2 0.103552 -4.21465 9.19004 1.82177 H
244 2 0.0668711 -4.94991 12.3578 2.56549 H
68 3 -0.808042 -1.92963 7.58516 5.54575 O
31 4 0.964694 -1.73218 11.2503 3.24123 Si
268 2 0.0606332 -4.44674 7.81903 0.708578 H
252 2 0.027156 -3.31245 9.18393 0.239638 H
69 3 -0.729122 -4.30762 8.95149 4.02255 O
67 3 -0.83083 -3.54846 7.27052 7.83686 O
147 2 0.0599438 2.48935 7.09478 7.16545 H
84 3 -0.804466 2.88713 6.58595 4.03337 O
112 2 0.0348118 -1.3027 7.16854 0.131615 H
49 1 -0.107269 1.78737 10.3464 5.2881 C
149 2 0.07502 1.31059 8.36265 7.57731 H
30 4 0.678789 2.39231 7.69104 1.21471 Si
272 2 0.0501513 0.921276 9.84855 0.973168 H
87 3 -0.752604 1.39732 6.7157 2.00315 O
48 1 -0.0994954 -1.22951 9.15124 2.68761 C
93 3 -0.714522 -0.233632 11.8035 3.67028 O
152 2 0.0288531 -1.00256 9.03988 1.63988 H
79 3 -0.823494 0.293273 6.68512 4.45343 O
94 3 -0.676074 -0.425763 12.0795 6.4192 O
151 2 0.0948413 -0.378636 8.89324 3.30573 H
33 4 0.699266 0.461136 11.9841 5.10821 Si
156 2 0.0841215 1.06632 9.53776 5.12871 H
274 2 0.324112 -3.65088 8.31466 3.93614 H
47 1 -0.0934275 1.86321 9.70007 1.47846 C
133 2 0.0802899 -6.29164 13.0117 7.66835 H
46 1 -0.123408 2.15662 7.78246 7.9033 C
271 2 0.0418508 1.82183 9.7243 2.56683 H
154 2 0.0453135 2.1418 10.4279 6.29995 H
18 4 1.13225 -1.87697 8.34473 13.3973 Si
35 4 0.943036 -2.81296 11.2347 13.6461 Si
72 3 -0.822251 -1.31486 7.20643 12.4282 O
96 3 -0.747197 -2.42126 9.79892 12.9235 O
97 3 -0.745244 -2.78109 12.4111 12.4386 O
98 3 -0.684957 -4.21704 11.2158 14.6668 O
126 2 0.288214 -6.46691 12.439 15.1926 H
32 4 0.754302 -1.54513 10.502 8.6885 Si
138 2 0.0621571 -6.23562 12.4278 10.7612 H
74 3 -0.699531 -2.8883 13.0658 8.53619 O
71 3 -0.768249 -2.78536 7.77966 14.563 O
137 2 0.0966685 -4.96002 12.9409 11.9667 H
161 2 0.0545767 -1.87981 11.2493 15.9227 H
42 1 -0.104335 -5.97752 13.0547 11.6012 C
162 2 0.102647 -1.03623 12.5642 15.0495 H
15 4 0.668919 -4.66257 10.1964 15.8491 Si
148 2 0.0172688 2.9437 8.34974 8.39726 H
160 2 0.0208066 -0.395684 10.8869 14.8141 H
50 1 -0.111384 2.85599 9.81269 10.9199 C
157 2 0.0516621 1.91464 9.27616 10.9016 H
51 1 -0.110654 -1.23199 11.5157 15.0751 C
83 3 -0.727288 -0.136104 7.31633 9.83573 O
95 3 -0.617821 4.55241 7.31117 12.0617 O
120 2 0.291237 -0.62773 12.2048 9.93725 H
128 2 0.0259007 2.53142 8.65109 13.4565 H
92 3 -0.692799 -0.542962 11.7018 9.09912 O
88 3 -0.697462 3.53296 7.94399 15.7033 O
266 2 0.359082 -0.69014 8.31487 8.83817 H
136 2 0.0430975 -6.73088 13.1039 12.3699 H
127 2 0.305439 -2.51146 12.9904 9.47565 H
110 2 0.0707209 -1.1651 7.08582 15.9332 H
91 3 -0.713055 -0.995453 9.11148 8.0613 O
45 1 -0.0951104 6.8801 5.17069 7.03814 C
130 2 0.00651195 6.51059 4.56201 2.36282 H
105 3 -0.689641 10.4526 3.11769 7.28213 O
221 1 -0.116384 8.50978 0.936731 0.977416 C
146 2 0.0755373 7.40443 4.39122 6.52691 H
38 4 0.633057 6.03215 6.18181 2.75952 Si
224 2 0.0776516 8.54938 1.63877 0.158112 H
99 3 -0.716497 8.25642 1.69835 7.60297 O
256 2 0.0366787 10.3695 0.736036 3.79287 H
257 2 0.0570367 10.6822 0.811917 5.60251 H
254 1 -0.107158 9.95827 0.852091 4.78628 C
145 2 0.0551891 6.63204 6.01608 6.43343 H
255 2 0.0628964 9.2784 1.69099 4.90441 H
104 3 -0.749846 5.65351 6.01234 4.30116 O
167 2 0.0325462 8.56762 6.30154 2.93379 H
225 2 0.0290844 8.94291 1.34794 1.88903 H
119 2 0.0276307 7.37922 2.5162 4.9749 H
230 4 0.468838 13.3602 0.43617 2.68095 Si
260 2 0.0956499 12.8913 0.496012 5.21523 H
169 2 0.0436372 11.2459 5.04438 5.21844 H
4 4 0.691722 15.5448 1.9559 3.91581 Si
37 4 1.09833 14.4181 1.87416 6.72227 Si
39 4 1.02476 12.0188 3.73628 7.39744 Si
213 2 0.31528 15.7488 0.510735 1.52771 H
171 2 0.0799484 12.8858 5.65081 5.83688 H
106 3 -0.725211 13.0105 2.45948 7.37866 O
102 3 -0.79673 14.6211 0.224048 6.62129 O
231 1 -0.102835 12.3582 2.21363 2.44086 C
101 3 -0.710148 14.4994 2.36834 5.10739 O
232 3 -0.633481 15.2819 0.397559 2.52343 O
233 2 0.0704872 13.1688 2.90845 2.55266 H
54 1 -0.104986 12.2512 4.82632 5.56228 C
235 2 0.0466186 11.9443 2.18885 1.43514 H
234 2 0.0305434 11.6068 2.37011 3.19134 H
170 2 0.0758463 12.7565 4.0402 5.01984 H
267 2 0.0276039 10.582 5.42707 0.45038 H
273 2 0.0400391 10.8165 0.794303 12.3353 H
52 1 -0.11987 10.4429 1.1733 9.74779 C
100 3 -0.644034 8.61913 3.98401 9.13242 O
121 2 0.26519 9.0278 4.47649 12.0549 H
180 4 0.653243 8.87089 2.23568 13.2802 Si
188 3 -0.651323 9.00243 3.52867 14.7808 O
189 3 -0.684284 9.30074 3.42505 11.7737 O
192 3 -0.689846 10.1556 5.9737 11.1712 O
174 2 0.226034 8.91104 4.52866 14.3557 H
184 1 -0.108168 10.5895 1.18091 13.3345 C
269 2 0.319525 9.23537 4.4279 9.82116 H
164 2 0.0423962 9.81255 1.14918 10.6156 H
36 4 0.871165 9.5155 2.3424 8.36643 Si
60 3 -0.729943 15.7712 2.68515 8.22796 O
198 2 0.0338899 11.3019 1.8899 13.7021 H
205 2 0.0946112 10.107 5.7536 8.31285 H
193 2 0.0864101 7.42642 6.52921 14.5179 H
23 4 0.918732 7.52235 3.03773 10.6619 Si
181 4 0.689128 11.3259 5.55457 12.1791 Si
11 4 1.2726 13.1108 6.21426 9.02662 Si
249 1 -0.120697 12.4767 5.54621 15.7669 C
202 2 0.0359948 12.9819 3.81128 12.5672 H
173 1 -0.111299 15.179 1.49306 13.2686 C
165 2 0.0512662 11.3486 1.75751 9.83736 H
176 2 0.0612721 16.0036 0.876666 12.936 H
177 2 0.0612805 14.7164 2.05715 12.4791 H
172 4 0.660908 15.9212 2.81564 14.5645 Si
190 3 -0.701262 12.1816 6.66453 12.8758 O
200 2 0.140032 13.0911 4.35956 10.904 H
201 2 0.0622396 11.7659 3.14513 11.3098 H
185 1 -0.0780524 12.4181 3.95826 11.6483 C
107 3 -0.804617 12.3613 4.8366 8.59549 O
175 2 0.0387505 14.4665 0.933787 13.8529 H
199 2 0.0410002 10.2869 0.452739 14.0545 H
262 3 -0.703152 16.655 2.24607 15.8786 O
250 2 0.0459673 13.4683 5.15016 15.9783 H
144 2 0.088464 7.19605 5.36598 8.04445 H
236 4 0.610074 5.16564 11.3821 0.517677 Si
258 1 -0.0850301 4.53292 12.5015 4.52439 C
259 2 0.0276451 3.58861 12.0686 4.27464 H
238 3 -0.623224 4.30328 12.3214 1.53463 O
261 2 0.0673146 5.32011 11.8303 4.68578 H
150 2 0.0922973 2.69039 10.2578 1.06056 H
3 3 -0.674539 10.2142 10.2346 1.11004 O
239 2 0.0728549 6.27816 10.3863 2.6286 H
122 2 -0.00143904 4.41349 7.60149 5.81543 H
218 2 0.107469 11.175 9.45334 7.25283 H
103 3 -0.682959 4.93765 6.78821 1.69391 O
237 1 -0.0920278 6.25495 9.94532 1.64334 C
241 2 0.055323 5.65624 9.06094 1.56086 H
155 2 0.0290719 2.54406 10.4555 4.5479 H
207 4 1.02474 6.88496 12.0037 7.72145 Si
203 2 0.0450257 10.2058 7.37173 7.53824 H
210 1 -0.0869661 10.2566 9.64713 7.77893 C
240 2 0.0705244 7.19166 9.88866 1.13979 H
209 1 -0.104274 8.42204 8.3946 5.45594 C
166 2 0.034444 8.03783 6.71667 1.28109 H
217 2 0.0578948 7.95024 8.60682 4.51658 H
2 3 -0.684558 8.70588 11.4873 2.84958 O
206 4 0.875506 8.55887 12.1751 4.30199 Si
53 1 -0.118813 7.90926 6.90205 2.31887 C
216 2 0.0484506 9.42571 8.0121 5.41207 H
215 2 0.0417603 7.81349 7.86277 6.15728 H
211 3 -0.712123 9.32094 11.4006 5.49279 O
208 4 0.604885 8.74172 10.2226 6.46511 Si
168 2 0.0582064 7.90459 7.92156 2.56088 H
212 3 -0.714421 7.39381 10.5107 7.42469 O
125 2 0.211462 3.96475 7.28082 1.93614 H
270 2 0.0517014 0.431503 12.758 0.765527 H
40 4 0.62026 5.80583 9.93127 14.3721 Si
108 3 -0.606775 4.89416 10.0031 13.0097 O
109 3 -0.65564 5.49145 11.1325 15.4288 O
132 2 0.0623952 5.55187 8.34478 15.0672 H
214 2 0.0759993 7.19161 9.11624 11.2258 H
34 4 0.574991 3.88281 8.84334 12.4318 Si
159 2 0.0516812 2.77664 10.8683 11.0881 H
129 2 0.131564 4.04021 12.7059 15.698 H
158 2 0.0333076 3.58391 9.54143 10.1671 H
131 2 -0.0139222 7.45672 9.75516 13.9159 H
182 4 0.590092 10.6039 7.14182 10.1592 Si
140 2 0.0585439 10.7327 9.09888 14.119 H
219 2 0.0703501 10.1978 10.1064 8.74167 H
194 2 0.0263492 9.57684 8.46551 10.6214 H
178 4 0.695422 12.5661 7.16291 14.337 Si
139 2 0.0270872 10.5405 8.28403 15.8227 H
116 2 0.370962 12.6487 7.61962 11.0122 H
191 3 -0.657244 12.0773 7.86839 10.1533 O
43 1 -0.14419 11.1553 8.60904 14.9851 C
186 1 -0.0974856 9.73788 6.75609 8.30672 C
263 3 -0.785172 7.86293 12.803 8.73275 O
204 2 0.036877 8.69821 6.9132 8.44527 H
55 3 -0.694344 9.86049 12.762 15.9909 O
264 2 0.0680969 7.52146 12.8131 15.936 H
123 2 0.00253772 4.64177 7.1852 9.1146 H
163 2 0.0577074 2.20613 13.0292 9.33104 H
ITEM: TIMESTEP
200
ITEM: NUMBER OF ATOMS
274
ITEM: BOX BOUNDS xy xz yz pp pp pp
-8.3797999999999995e+00 1.8527580000000000e+01 -8.3797999999999995e+00
0.0000000000000000e+00 1.3273200000000001e+01 1.7086800000000011e+00
0.0000000000000000e+00 1.6075500000000002e+01 4.3120000000000003e-01
ITEM: ATOMS id type q x y z element
7 4 0.572293 0.708428 1.7038 6.21634 Si
9 4 0.89616 0.371687 3.39824 2.21042 Si
10 4 1.19071 -0.0840546 4.32754 7.55289 Si
56 3 -0.650656 0.769609 1.35461 4.65426 O
58 3 -0.672219 -1.48806 3.68097 2.55738 O
59 3 -0.710695 0.637348 2.02467 1.38907 O
61 3 -0.636696 0.953963 3.27428 6.34057 O
62 3 -0.842949 -0.815025 5.31539 6.55044 O
78 3 -0.789302 1.36313 3.82555 3.36198 O
25 4 1.20282 1.4444 6.06778 3.58827 Si
111 2 0.337362 1.03105 3.49299 4.34825 H
12 4 1.22719 -0.980654 6.36871 5.3897 Si
84 3 -0.820075 2.90308 6.43822 4.0874 O
44 1 -0.0666478 3.77119 3.63579 2.48558 C
135 2 0.0753415 2.98955 0.490431 6.10236 H
117 2 0.326476 4.9211 1.01018 7.76516 H
265 2 0.0687224 2.65379 0.562155 1.00719 H
81 3 -0.697621 5.17643 2.57283 6.62691 O
118 2 0.0769874 5.13429 0.6756 4.61381 H
19 4 0.925285 7.30136 0.41758 7.35194 Si
134 2 0.116399 2.78802 1.53595 7.57253 H
41 1 -0.0494909 2.39551 0.736276 7.00029 C
143 2 0.0522604 4.70024 3.11253 2.64054 H
85 3 -0.763772 4.0127 4.96148 6.09343 O
24 4 0.743355 4.0406 4.91468 0.796312 Si
223 2 -0.0117781 6.6475 1.69244 2.92719 H
26 4 1.08393 5.0074 4.12969 7.05867 Si
142 2 0.0855044 3.52708 4.32281 3.27056 H
28 4 1.04685 4.21921 6.17934 5.00686 Si
220 4 0.690564 6.65226 0.865976 1.42301 Si
124 2 0.227353 2.65457 3.96308 5.20988 H
243 2 0.087754 2.21965 0.458952 2.78179 H
222 3 -0.685744 5.55784 1.62701 0.526482 O
21 4 0.289358 6.09064 1.75158 5.61911 Si
141 2 0.111265 2.95733 3.04956 2.09714 H
77 3 -0.686655 5.38484 4.39364 0.117978 O
8 4 1.05811 2.18744 2.21482 10.8899 Si
13 4 1.07239 0.534138 4.21801 12.4402 Si
14 4 1.43761 -1.38364 6.26607 11.123 Si
57 3 -0.72304 1.37387 2.02542 9.42512 O
63 3 -0.717479 0.074509 4.1469 13.9652 O
64 3 -0.755719 1.04452 2.75442 11.8993 O
66 3 -0.779804 -0.695437 4.87058 11.5507 O
82 3 -0.71965 1.03946 5.06805 8.52416 O
114 2 0.0789185 1.68525 5.59381 12.0574 H
226 4 0.569665 3.3456 6.37461 15.2083 Si
248 2 0.0393611 2.47946 1.55418 13.73 H
228 2 0.0143651 1.66531 6.28913 15.2033 H
86 3 -0.72618 2.34287 6.4747 10.4558 O
65 3 -0.864064 -2.74799 6.15625 10.2416 O
245 1 -0.104612 2.73124 2.36061 14.4185 C
27 4 1.12801 1.27028 6.48305 9.27107 Si
247 2 0.0650197 2.3627 3.33261 14.1393 H
127 2 0.296608 5.75131 0.985156 9.09135 H
74 3 -0.715703 5.38917 0.373905 8.33558 O
80 3 -0.762641 4.44442 4.19397 8.56298 O
29 4 0.576876 3.98949 6.57795 10.6353 Si
22 4 1.07008 6.77652 0.701172 12.1865 Si
183 1 -0.0695355 5.86972 3.23461 13.9754 C
227 3 -0.672846 4.2033 5.13584 15.9179 O
246 2 0.0456812 3.75752 2.39009 14.7302 H
197 2 0.0620196 5.55897 2.20727 13.9485 H
179 4 0.780953 7.26387 3.30339 15.5847 Si
187 3 -0.791588 7.65059 1.31773 13.3679 O
229 2 0.0621144 3.66438 6.46709 13.5646 H
73 3 -0.781695 3.3667 3.28354 11.0181 O
195 2 0.0821562 6.48065 3.5344 13.1198 H
20 4 1.0881 4.61115 3.90749 10.1591 Si
196 2 0.093761 5.08597 3.9222 14.335 H
75 3 -0.780012 6.08385 3.96152 10.7858 O
76 3 -0.823935 7.01625 1.47607 10.8032 O
23 4 0.959563 7.3907 3.01495 10.4979 Si
137 2 0.110418 3.93818 0.450645 11.7916 H
5 4 0.727789 1.54634 1.87311 16.0312 Si
1 4 0.81669 -7.39771 11.6954 1.75172 Si
16 4 1.2546 -2.65971 8.22451 6.95406 Si
17 4 1.08413 -3.80888 10.1802 5.03718 Si
70 3 -0.799583 -3.26992 9.65081 6.47083 O
90 3 -0.717503 -2.79191 11.1404 4.25631 O
115 2 0.0246439 -5.30303 10.9418 5.35046 H
251 1 -0.0825933 -4.3079 8.83248 0.831356 C
89 3 -0.72188 -2.10941 12.1944 1.8003 O
153 2 0.0685436 -2.30971 8.67244 2.12804 H
253 2 0.0758603 -4.10747 9.58998 1.5665 H
244 2 0.0771418 -4.80764 12.2647 2.08701 H
68 3 -0.817451 -2.11809 7.43393 5.65716 O
31 4 1.04001 -1.69335 11.1913 3.00692 Si
268 2 0.069456 -4.52928 7.86445 1.24389 H
154 2 0.0487406 1.57399 10.4606 6.60421 H
69 3 -0.69217 -4.11017 9.00177 3.98064 O
67 3 -0.82392 -3.59086 7.0963 7.67628 O
147 2 0.0866193 0.730655 7.86747 7.16205 H
148 2 0.0301427 2.52127 7.63564 7.30059 H
46 1 -0.111936 1.61796 7.95207 7.77916 C
49 1 -0.100682 1.39956 10.2671 5.5533 C
271 2 0.0492709 1.1829 9.54241 2.25949 H
30 4 0.638079 2.24993 7.51532 1.1725 Si
272 2 0.0715741 1.82685 10.0884 0.658059 H
87 3 -0.735577 1.20774 6.68774 2.06493 O
48 1 -0.103072 -1.3402 9.13335 2.25948 C
93 3 -0.696746 -0.301841 11.7633 3.56488 O
152 2 0.0145298 -0.903621 9.50353 1.33588 H
79 3 -0.812443 0.358766 6.73973 4.57831 O
94 3 -0.664222 -0.790429 12.2202 6.14056 O
151 2 0.0937534 -0.66471 8.67902 2.99163 H
33 4 0.658961 0.38201 12.0261 5.06757 Si
156 2 0.0925861 0.781432 9.41835 5.37137 H
274 2 0.276142 -4.48626 8.17097 4.47577 H
47 1 -0.0875817 2.0256 9.5668 1.59487 C
133 2 0.0754486 -6.35729 12.7441 7.55648 H
161 2 0.0767898 -3.18895 11.2431 0.0840469 H
218 2 0.080768 -5.40127 9.5692 7.34804 H
125 2 0.191812 3.76068 6.92886 1.8858 H
242 1 -0.0853455 -5.70538 12.8416 1.91528 C
112 2 0.0555624 -1.58058 7.258 0.228937 H
252 2 0.0451202 -3.64683 8.83178 0.00209324 H
18 4 1.13147 -1.88289 8.48054 13.2437 Si
35 4 0.944607 -2.7912 11.2859 13.7925 Si
72 3 -0.828692 -1.23601 7.42629 12.2539 O
96 3 -0.755452 -2.53172 9.91503 12.9106 O
97 3 -0.747036 -2.76068 12.5085 12.5652 O
98 3 -0.728508 -4.07075 11.0929 14.8288 O
149 2 0.0481015 1.64291 8.87433 8.3104 H
32 4 0.734711 -1.71107 10.5561 8.76729 Si
138 2 0.0661673 -5.23467 12.6216 10.318 H
91 3 -0.717533 -1.1445 9.07104 8.37571 O
71 3 -0.726936 -2.54558 7.71398 14.4735 O
126 2 0.268566 -6.29915 12.3748 15.4079 H
34 4 0.609028 3.8136 8.73947 12.417 Si
42 1 -0.108099 -5.36791 13.1304 11.2617 C
162 2 0.109572 -1.30245 12.946 14.9585 H
15 4 0.679402 -4.65159 10.2035 15.9819 Si
136 2 0.0270916 -6.17966 12.8218 11.8209 H
160 2 0.0132868 -0.431748 11.3208 14.9559 H
50 1 -0.115625 2.91434 9.67177 10.7608 C
157 2 0.0553444 2.06679 9.04685 10.5748 H
51 1 -0.112899 -1.32819 11.8815 15.1934 C
83 3 -0.735464 -0.0961151 6.97081 9.88301 O
95 3 -0.637916 4.58703 7.34112 11.9886 O
120 2 0.300272 -0.879928 12.3091 9.80736 H
128 2 0.0106813 2.38646 8.36454 13.2886 H
92 3 -0.69333 -0.648221 11.783 9.02795 O
88 3 -0.662352 3.8156 7.87664 15.6057 O
266 2 0.340049 -1.09458 8.34997 9.15964 H
110 2 0.0424599 0.575012 7.43281 15.499 H
45 1 -0.117307 6.97496 5.06268 7.2128 C
130 2 0.0495118 6.32652 4.68964 1.81072 H
105 3 -0.723577 10.5834 3.02711 7.50894 O
221 1 -0.129468 8.6219 1.2439 1.10644 C