ITEM: TIMESTEP
0
ITEM: NUMBER OF ATOMS
274
ITEM: BOX BOUNDS xy xz yz pp pp pp
-8.3797999999999995e+00 1.8013900000000000e+01 -8.3797999999999995e+00
0.0000000000000000e+00 1.3273200000000001e+01 1.1950000000000001e+00
0.0000000000000000e+00 1.6075500000000002e+01 4.3120000000000003e-01
ITEM: ATOMS id type q x y z
119 2 -0.00430576 7.37526 1.23518 5.25322
12 4 1.32239 -0.870909 6.3079 5.31647
7 4 1.14708 0.920894 2.09119 5.10743
9 4 1.24686 -0.422304 4.69065 1.86353
10 4 1.60781 0.372093 4.30644 7.31615
242 1 -0.676458 3.2936 0.584475 2.89345
21 4 0.808633 5.74105 1.46597 5.6585
26 4 1.26594 5.45717 4.55075 6.8884
41 1 -0.651264 0.754564 0.419044 5.99651
44 1 -0.66675 4.14965 3.77198 1.7531
55 3 -0.811344 1.11186 0.899791 1.07573
56 3 -0.843998 -0.36477 2.34832 4.32122
58 3 -0.78699 -1.75035 4.45071 2.76404
59 3 -0.831363 -0.0398458 3.36975 1.10913
243 2 0.159851 3.44574 1.7237 2.84851
61 3 -0.780314 1.19579 3.06768 6.2823
62 3 -0.852736 -0.624353 5.22379 6.42569
74 3 -0.790243 5.49457 0.393369 7.29962
78 3 -0.859426 0.74192 5.4181 2.67125
81 3 -0.777132 5.78223 2.98415 5.98138
84 3 -0.80825 2.99553 5.82697 4.14497
85 3 -0.832046 5.02397 5.78172 5.95211
113 2 0.110628 -1.45835 5.38447 3.98952
111 2 -0.00472518 2.27113 1.88708 4.0131
112 2 -0.0212 -0.962387 5.56263 0.529897
5 4 1.35853 0.371247 2.02738 0.227848
118 2 -0.0308404 4.53757 1.07611 4.32878
24 4 1.29593 4.95359 4.93586 0.439556
222 3 -0.787215 6.2497 1.35716 1.11943
223 2 -0.0992495 6.22703 0.867697 3.89463
141 2 0.194712 4.46764 2.69365 1.65969
142 2 0.190067 3.02201 3.93733 1.66115
143 2 0.189232 4.56617 4.30483 2.68781
220 4 1.01825 6.72519 0.241763 2.22281
135 2 0.244275 0.578529 0.594354 7.0986
82 3 -0.822993 1.51881 5.26651 7.92498
267 2 0.171267 -3.66096 6.26892 0.406547
244 2 0.12263 3.0248 0.174358 3.94263
138 2 0.172251 1.56067 0.744134 12.3912
8 4 1.2567 1.85377 2.68574 10.9737
13 4 1.23629 0.404794 4.95639 12.3105
229 2 -0.0378213 3.61064 6.37989 13.4966
20 4 1.29109 4.44144 2.89803 9.20296
23 4 1.2533 6.9386 2.93318 11.1909
99 3 -0.821677 7.9036 1.25761 8.40017
226 4 0.913724 3.52429 6.38263 15.1746
42 1 -0.658868 2.32239 1.5448 12.4098
57 3 -0.822094 0.43769 2.07572 10.382
63 3 -0.86395 -0.340257 3.91674 13.3556
64 3 -0.830473 1.83622 4.3766 11.9884
65 3 -0.827254 -2.38818 6.30293 9.54181
66 3 -0.878427 -0.515562 5.3899 11.0602
73 3 -0.829271 3.12022 2.56812 9.96057
75 3 -0.860841 5.69766 2.92454 10.2184
76 3 -0.841993 7.08537 1.60524 12.0438
80 3 -0.793973 4.48281 4.12681 8.18656
123 2 -0.0526674 5.1666 6.00262 10.8331
137 2 0.172914 3.33331 1.13195 12.0166
114 2 -0.0295307 0.789442 6.32667 13.2582
248 2 0.169683 3.52164 3.94964 15.8902
124 2 0.0582283 3.25893 5.21513 12.0746
136 2 0.177232 2.5007 2.16767 13.451
179 4 1.25595 7.24098 2.43971 15.6814
183 1 -0.669144 5.86945 1.49881 14.809
77 3 -0.747637 6.92659 4.16882 15.6921
60 3 -0.846417 -0.474363 3.49288 8.35773
196 2 0.181042 5.35728 2.21835 14.2122
117 2 0.110626 4.85345 1.45918 8.31862
227 3 -0.835922 4.90589 5.95077 15.7567
195 2 0.287801 6.39802 0.598733 14.2062
245 1 -0.679701 2.99421 3.21647 15.1884
246 2 0.158066 2.64565 3.7133 14.2363
247 2 0.171234 3.73742 2.39459 14.9381
262 3 -0.829843 0.332272 2.03789 15.369
228 2 -0.0227955 2.42613 5.11969 15.2886
14 4 1.56157 -0.990419 6.61829 10.2676
29 4 0.954947 3.65172 6.58993 11.1706
266 2 0.0937312 -1.59069 4.8253 15.8203
121 2 -0.0213482 6.74854 4.2489 12.2576
197 2 0.192265 5.29069 1.16496 15.7809
86 3 -0.829045 2.73407 6.60447 9.92363
27 4 1.36733 1.78263 6.64227 8.69417
15 4 1.03115 -5.17511 10.1581 0.0284757
3 3 -0.786448 -5.74092 11.5133 0.967686
268 2 0.23355 -4.38982 8.65074 1.56036
16 4 1.50821 -3.09373 7.97488 6.56486
17 4 1.24248 -4.49623 9.87467 4.72632
154 2 0.17109 1.07727 9.54171 7.27848
161 2 0.189033 -0.983851 10.0789 0.503756
31 4 1.21456 -2.0736 10.2075 2.97162
33 4 1.16018 -0.0589194 11.071 5.50767
48 1 -0.655185 -0.99241 8.88163 2.07454
49 1 -0.633345 0.1378 9.46859 6.57262
272 2 0.175223 0.800239 10.3225 0.346656
68 3 -0.863699 -1.87127 7.40807 5.65391
28 4 1.28497 4.21536 6.56153 4.91333
70 3 -0.825578 -4.22226 8.71352 5.73358
79 3 -0.847523 0.567658 7.09686 4.86674
87 3 -0.815838 1.97382 7.83524 2.62123
30 4 1.02412 2.31539 8.2206 1.10573
89 3 -0.763424 -2.06047 11.6222 1.88737
90 3 -0.812149 -3.55359 9.73837 3.3139
93 3 -0.81485 -1.01775 10.6692 4.29481
94 3 -0.808952 -0.539052 12.1423 6.54333
115 2 -0.0378913 -4.03097 11.2986 5.50983
147 2 0.185 2.05724 7.52188 6.52288
151 2 0.185696 0.00644404 9.38375 1.56015
152 2 0.161086 -1.62503 8.42768 1.25377
153 2 0.194907 -0.817708 8.20562 3.01825
251 1 -0.670879 -5.32591 8.5341 0.951386
155 2 0.280244 0.23433 8.54924 5.85781
156 2 0.29817 -0.926382 9.3979 7.12251
46 1 -0.671346 2.59995 7.95251 7.48116
148 2 0.167353 3.69692 7.67343 7.58859
265 2 0.193436 -4.25197 12.8225 2.43286
19 4 1.3601 -1.33312 12.8326 7.85669
1 4 1.29541 -6.53924 12.526 1.9059
69 3 -0.802784 -6.01343 9.93971 4.32228
91 3 -0.820738 -2.41525 9.32328 7.81287
271 2 0.17154 1.75564 10.434 1.98743
47 1 -0.667403 1.77714 10.0502 0.958638
25 4 1.42154 1.58706 6.55171 3.57003
122 2 0.0109183 3.57705 7.92472 5.791
149 2 0.144146 2.38553 9.10864 7.61191
133 2 0.140556 -6.54265 12.8413 5.82168
270 2 0.183806 0.588865 12.115 1.71841
159 2 0.193034 1.10828 9.70949 11.5158
18 4 1.22621 -1.93069 8.33392 12.8931
22 4 1.18641 -0.668922 12.9684 12.183
32 4 0.95538 -2.25361 10.2485 9.042
35 4 1.18736 -1.21026 10.6867 14.5043
50 1 -0.650687 2.00582 10.3963 11.7131
160 2 0.153101 1.09091 10.8936 14.7839
158 2 0.241033 1.60032 11.4479 12.0722
51 1 -0.633025 0.252588 11.2309 15.5242
162 2 0.227345 0.167233 12.3564 15.638
72 3 -0.828669 -1.46252 7.96864 11.3902
83 3 -0.783009 0.116057 7.14801 9.21939
88 3 -0.785431 2.93055 7.71824 15.8671
92 3 -0.802013 -1.20242 11.3939 8.96965
95 3 -0.797621 3.64879 7.95372 12.0081
96 3 -0.794265 -0.889657 9.08144 13.7778
97 3 -0.794685 -1.49396 12.0601 13.2221
98 3 -0.784038 -2.5003 10.7594 15.4083
116 2 -0.046248 -3.40839 9.14672 12.6924
120 2 0.0297379 -0.695721 12.1967 10.6843
126 2 0.0711295 -1.91684 9.20631 10.3753
127 2 -0.0468747 -3.81161 10.752 9.42328
128 2 0.0402822 2.14943 9.85413 13.5357
139 2 0.164998 -4.3952 10.995 13.6586
187 3 -0.79573 0.91779 12.955 12.651
43 1 -0.662525 -5.41795 10.9178 14.1418
71 3 -0.846104 -2.37068 7.02219 13.6579
140 2 0.180322 -5.63558 11.8355 14.7133
235 2 0.163432 11.5676 1.3061 2.88034
37 4 1.27457 12.9885 1.99468 5.6344
221 1 -0.651448 8.60957 0.273993 2.04274
39 4 1.26378 11.2397 3.94265 7.48412
45 1 -0.660942 7.13351 5.12681 7.57796
54 1 -0.662012 10.5205 5.38327 6.55
101 3 -0.815263 13.9003 2.96946 4.79713
102 3 -0.850864 13.8235 1.08148 6.59441
250 2 0.180121 11.9338 4.65367 0.458325
4 4 1.45879 14.996 2.72619 3.67788
106 3 -0.789745 11.8742 2.93601 6.37502
232 3 -0.802769 14.429 1.4913 2.72362
129 2 -0.00842532 11.9848 1.07481 4.53978
130 2 0.0746833 7.65181 5.85509 3.35369
169 2 0.249807 10.9994 6.37438 6.78828
207 4 1.24693 14.4695 0.326107 7.83836
146 2 0.193647 7.84856 4.44923 7.05703
103 3 -0.798855 5.89096 6.18144 1.21274
145 2 0.158414 7.36935 6.24593 7.38403
170 2 0.178357 9.4157 5.34081 6.81183
171 2 0.189239 10.7804 4.96578 5.45187
225 2 0.115101 8.80617 0.522978 3.21792
224 2 0.177192 9.0413 1.07162 1.38943
231 1 -0.648771 11.7726 0.229141 2.77737
273 2 0.180715 9.33075 0.202628 0.0969628
11 4 1.48473 13.059 6.02134 8.74315
36 4 1.24569 8.99666 2.25869 9.22474
52 1 -0.689425 10.2968 1.21043 10.0875
186 1 -0.665773 8.82034 6.15137 9.86454
100 3 -0.801482 8.30757 3.27637 10.3817
107 3 -0.789432 12.7101 4.40815 8.65194
110 2 0.0102344 14.7519 2.79914 10.4789
105 3 -0.795935 9.93635 3.29466 8.14665
202 2 0.172834 14.0062 3.7096 11.8234
163 2 0.176088 11.1359 2.00546 10.1445
144 2 0.194458 7.04349 4.89791 8.7352
165 2 0.231629 9.94449 0.805367 11.0756
172 4 0.999875 16.1065 2.61629 14.1679
173 1 -0.662027 14.3795 1.6926 13.6759
174 2 0.062673 14.4365 2.94138 14.9724
175 2 0.0592569 15.6567 1.20306 13.0235
176 2 0.167885 13.8598 2.23922 12.8778
184 1 -0.658062 10.9617 0.662469 15.0693
178 4 1.10899 13.9335 5.74588 14.3687
180 4 1.24546 9.88992 1.58895 13.881
181 4 1.30155 11.8601 3.98023 12.6702
205 2 0.203378 9.22065 5.15999 9.11705
185 1 -0.686971 13.0581 3.23796 11.3086
177 2 0.175278 13.7208 0.840721 14.0923
189 3 -0.777309 10.808 2.79762 13.2885
190 3 -0.802927 12.8158 4.73603 13.7555
192 3 -0.763518 11.1102 5.08758 11.7305
263 3 -0.845918 15.577 1.01732 8.69487
199 2 0.173557 11.9609 1.19628 14.9621
200 2 0.267531 12.8562 3.62254 10.2188
201 2 0.124221 12.8977 2.09896 11.5485
182 4 1.02492 10.5621 6.2237 10.6024
204 2 0.168597 8.23047 5.76705 10.7453
6 4 1.32517 16.0381 2.35191 9.3862
164 2 0.154056 10.3966 0.391481 9.23915
188 3 -0.75985 8.61372 2.09225 14.724
249 1 -0.645848 14.066 5.66186 16.0516
237 1 -0.668663 7.75062 10.6967 0.173139
257 2 0.158755 2.33971 10.9715 5.85662
167 2 0.172494 8.89989 7.07153 1.83891
53 1 -0.645377 8.23918 7.33349 2.67975
104 3 -0.789864 5.16134 7.1535 3.85553
134 2 0.247777 8.42772 12.6953 5.46272
125 2 -0.00944633 3.97307 8.37229 0.815038
2 3 -0.82117 9.32754 11.7866 3.13735
166 2 0.0314642 7.3248 8.53641 2.06848
168 2 0.169082 8.89749 7.70984 3.53288
206 4 1.22369 9.32321 10.3809 3.85789
215 2 0.162267 4.94886 9.60844 6.98421
208 4 1.02964 7.41474 10.3722 6.64907
209 1 -0.664496 5.85962 9.18903 6.47797
255 2 0.150005 1.61427 12.5205 4.98746
211 3 -0.767279 8.40852 10.3397 5.13367
212 3 -0.7672 6.68925 11.7902 7.29092
213 2 -0.0112923 8.97652 9.1741 2.7066
254 1 -0.678825 1.74339 11.3948 5.03264
216 2 0.160257 6.17969 8.25624 6.95547
217 2 0.180139 5.70786 9.03182 5.33656
230 4 1.09948 5.35446 12.8695 2.599
234 2 0.185519 3.16243 12.7158 1.67722
253 2 0.154247 11.5074 7.64138 0.230441
238 3 -0.792758 5.42968 12.0943 1.09009
240 2 0.168113 8.05037 10.9622 1.25345
38 4 0.966091 6.3458 6.95343 2.46496
233 2 0.155227 2.83369 12.4003 3.66321
258 1 -0.695958 5.78035 11.7157 4.08908
259 2 0.166554 6.58995 11.0245 3.64565
260 2 0.157904 4.81466 11.2182 4.30107
261 2 0.223189 6.21782 12.2654 4.93941
274 2 0.199575 9.50277 9.60744 7.70546
150 2 0.149656 2.75872 10.4087 0.388518
252 2 0.151726 10.4573 8.67628 1.51989
256 2 0.150156 2.02139 10.9326 3.97623
239 2 0.0984941 7.03245 9.52679 0.0611419
67 3 -0.836249 13.0757 6.7471 7.2725
198 2 0.173462 2.61682 12.4514 14.6111
40 4 0.92241 5.92209 11.4907 12.9209
108 3 -0.839401 4.69135 10.6065 12.8154
109 3 -0.780903 6.63939 11.6211 14.3111
214 2 -0.0505913 4.89377 12.6989 8.90337
132 2 -0.0445662 6.88582 11.0506 11.6505
236 4 0.992835 7.33205 11.941 15.8866
203 2 0.163274 8.34992 6.93033 9.24635
131 2 -0.0218271 5.60355 13.0574 12.4133
193 2 0.0581133 11.3192 9.66496 15.12
218 2 0.125598 7.77601 8.7584 8.23918
194 2 0.00281063 9.44303 7.32232 11.3151
241 2 0.1726 9.88346 10.9953 15.4963
269 2 0.161316 10.5837 10.7866 13.4498
264 2 0.116653 8.76239 12.9772 15.7122
219 2 0.182261 8.43222 10.5683 8.86539
34 4 1.00253 3.55508 9.62049 12.4888
191 3 -0.780697 11.6663 6.81354 9.6142
157 2 0.120326 2.70845 10.4495 10.5719
210 1 -0.644787 8.49221 9.75091 8.0876
ITEM: TIMESTEP
100
ITEM: NUMBER OF ATOMS
274
ITEM: BOX BOUNDS xy xz yz pp pp pp
-8.5473959999999991e+00 1.8374178000000001e+01 -8.5473959999999991e+00
0.0000000000000000e+00 1.3273200000000001e+01 1.2189000000000001e+00
0.0000000000000000e+00 1.6075500000000002e+01 4.3120000000000003e-01
ITEM: ATOMS id type q x y z
119 2 -0.00167544 7.4271 1.10465 5.22693
12 4 1.32065 -0.871038 6.39483 5.2581
7 4 1.13809 0.844445 2.12131 5.06248
9 4 1.25515 -0.461264 4.67787 1.79325
10 4 1.60107 0.426231 4.34029 7.17417
242 1 -0.688513 3.34343 0.513046 3.04981
21 4 0.8353 5.84043 1.36747 5.66501
26 4 1.19082 5.42786 4.38298 6.89968
41 1 -0.664777 0.75164 0.458097 5.99407
44 1 -0.68341 3.97574 4.03236 1.97838
55 3 -0.837072 1.11266 0.880161 1.20626
56 3 -0.853325 -0.509272 2.28594 4.32253
58 3 -0.80442 -1.71791 4.46562 2.74174
59 3 -0.861973 0.0980742 3.38662 1.06157
243 2 0.165031 3.56082 1.57449 3.01791
61 3 -0.808243 1.14652 3.27834 6.08883
62 3 -0.859811 -0.539343 5.37743 6.41711
74 3 -0.779782 5.60829 0.280772 7.30344
78 3 -0.878055 0.707025 5.35104 2.63931
81 3 -0.789242 5.60718 2.82324 5.9516
84 3 -0.817299 2.9748 5.93422 4.09142
85 3 -0.785958 4.80645 5.6274 5.78466
113 2 0.113674 -1.43266 5.4042 3.96904
111 2 0.00112857 2.24655 1.85689 4.04331
112 2 -0.0143737 -0.826101 5.96874 0.742367
5 4 1.39252 0.501428 2.04289 0.322215
118 2 -0.0175574 4.68471 0.945023 4.4452
24 4 1.25335 4.72562 4.87749 0.432018
222 3 -0.763664 6.26443 1.47388 1.06233
223 2 -0.0812564 6.3298 0.772156 3.82778
141 2 0.180012 4.28863 2.99875 1.96464
142 2 0.190524 2.79607 4.15487 1.8676
143 2 0.225425 4.4474 4.62988 2.77246
220 4 1.01521 6.81528 0.369718 2.11885
135 2 0.221971 0.809474 0.741366 7.08612
25 4 1.45785 1.58284 6.41916 3.44689
267 2 0.176347 -3.50925 6.25604 0.252978
248 2 0.161242 2.23417 3.53658 0.0842301
138 2 0.151614 1.14428 0.881736 12.6987
8 4 1.18163 1.85394 2.65724 11.1798
13 4 1.27645 0.354856 4.93907 12.4195
229 2 -0.0348172 3.49241 6.44302 13.3332
20 4 1.31692 4.56709 2.77569 9.3087
23 4 1.29033 7.00173 2.96442 11.2084
99 3 -0.811285 7.8596 1.15464 8.55304
226 4 0.936242 3.4112 6.33994 15.1059
42 1 -0.662439 2.12073 1.5296 12.6022
57 3 -0.781649 0.291061 2.25979 10.5097
63 3 -0.85184 -0.360178 3.8931 13.3969
64 3 -0.828382 1.77977 4.41834 11.9398
65 3 -0.863502 -2.28656 6.24112 9.57182
66 3 -0.849921 -0.683663 5.36744 11.3729
73 3 -0.76908 3.23374 2.39767 10.0115
75 3 -0.859712 5.67098 2.9924 10.3659
76 3 -0.84442 7.015 1.57617 11.9197
80 3 -0.759047 4.55256 4.04674 8.35318
86 3 -0.795814 2.81746 6.58478 9.99178
137 2 0.167607 3.03144 0.933912 12.1925
114 2 -0.0319622 0.746558 6.33407 13.3683
197 2 0.16509 5.26713 1.3292 15.4626
124 2 0.064733 3.28217 5.18567 11.9937
136 2 0.186828 2.46837 2.13964 13.6508
179 4 1.27077 7.3233 2.55893 15.4712
183 1 -0.6759 5.90553 1.68564 14.568
77 3 -0.742575 6.91363 4.10193 15.5656
60 3 -0.819328 -0.409848 3.52042 8.29452
196 2 0.174059 5.42932 2.47458 13.9327
117 2 0.109364 5.06396 1.37353 8.42297
227 3 -0.844555 4.76876 5.8484 15.5796
195 2 0.252413 6.17616 0.712969 13.9902
245 1 -0.651713 3.09195 3.25585 15.2351
246 2 0.15164 2.66528 3.77897 14.3447
247 2 0.156829 4.10315 2.57845 14.961
262 3 -0.799314 0.613078 2.09483 15.3332
228 2 -0.0203459 2.2206 5.12626 15.3159
14 4 1.46792 -0.943721 6.58978 10.2857
29 4 0.906695 3.79109 6.61715 11.2607
266 2 0.0718032 -1.5521 4.64112 15.4997
27 4 1.42294 1.68319 6.53784 8.89031
121 2 -0.0128138 6.8533 4.09883 12.4449
82 3 -0.784903 1.59254 5.15461 8.04675
244 2 0.135843 -5.36658 12.827 4.0738
3 3 -0.764988 -5.82616 11.2535 1.06487
268 2 0.224991 -4.78298 8.61735 1.8943
16 4 1.4632 -3.18738 7.9187 6.52642
17 4 1.2375 -4.48567 9.84027 4.74368
154 2 0.165215 0.825318 9.32225 7.55016
161 2 0.186766 -1.0343 10.1296 0.34033
31 4 1.26083 -1.98448 10.3302 3.00342
33 4 1.0964 0.116056 10.9841 5.5671
48 1 -0.649083 -1.09796 8.93837 1.9873
49 1 -0.663108 0.0437808 9.37338 6.65255
272 2 0.174509 0.809343 10.2791 0.271454
68 3 -0.852419 -1.90633 7.51316 5.57768
28 4 1.23066 4.18536 6.63712 4.84212
70 3 -0.815494 -4.39358 8.5709 5.66059
79 3 -0.826007 0.552603 7.06327 4.84114
87 3 -0.796716 1.93299 7.71836 2.51723
30 4 0.951527 2.55604 8.29458 1.14401
89 3 -0.785393 -2.13325 11.7466 2.00617
90 3 -0.82759 -3.36286 9.79657 3.55591
93 3 -0.781308 -0.85229 10.7065 4.22138
94 3 -0.818968 -0.384594 12.2088 6.50595
115 2 -0.0188188 -4.11884 11.1762 5.7408
147 2 0.224818 1.77946 7.50548 6.52139
151 2 0.197814 -0.0907117 9.3454 1.55489
152 2 0.172915 -1.87727 8.711 1.18313
153 2 0.18908 -1.06317 8.13854 2.87704
251 1 -0.656353 -5.41683 8.47104 0.992549
155 2 0.273113 0.21448 8.55758 5.86993
156 2 0.273845 -1.07724 9.2923 7.08836
46 1 -0.655967 2.36103 7.78195 7.45444
148 2 0.167713 3.45981 7.45596 7.53954
133 2 0.174127 -6.7287 12.7044 5.58265
19 4 1.36495 -1.30445 12.6422 7.85936
1 4 1.30384 -6.60061 12.557 2.07969
69 3 -0.809815 -6.05229 10.2093 4.32269
91 3 -0.849037 -2.59218 9.28202 7.79908
122 2 0.00655365 3.55132 7.85196 5.8536
47 1 -0.650654 1.77468 9.97344 0.905549
149 2 0.146002 2.1361 8.85808 7.82045
265 2 0.205436 -4.24095 12.6969 2.55989
270 2 0.170052 0.416093 12.1203 1.39583
271 2 0.165225 1.59165 10.1651 2.03932
159 2 0.204834 1.00391 9.82551 12.02
18 4 1.22279 -1.9739 8.32057 12.8799
22 4 1.21302 -0.575892 13.04 12.0458
32 4 0.969609 -2.37992 10.1505 9.0238
35 4 1.22785 -1.25171 10.801 14.3183
50 1 -0.663363 1.89326 10.5713 11.8723
160 2 0.159787 1.09522 11.0266 14.7531
158 2 0.238149 1.58996 11.6964 12.0861
51 1 -0.641618 0.218251 11.2794 15.4575
162 2 0.203222 0.0979738 12.3758 15.7462
72 3 -0.800037 -1.32845 8.12501 11.4913
83 3 -0.860359 0.333002 7.14856 9.37891
88 3 -0.733489 2.93996 7.66493 15.8033
92 3 -0.845701 -1.54953 11.4837 9.1569
95 3 -0.786929 3.61726 8.09603 12.0083
96 3 -0.780702 -0.947094 9.24974 13.7205
97 3 -0.826838 -1.24628 12.0312 13.1194
98 3 -0.770864 -2.62752 10.6758 15.3095
116 2 -0.0413562 -3.24361 9.34816 12.6139
120 2 0.0779248 -0.818158 12.2688 10.5608
126 2 0.0894424 -1.73346 9.07611 10.2044
127 2 -0.0329482 -3.84602 10.5959 9.81196
128 2 0.0374747 2.33139 10.0308 13.678
139 2 0.169891 -4.18758 11.0706 13.6596
140 2 0.169648 -5.50825 12.0474 14.5516
43 1 -0.646769 -5.25642 11.0865 14.0487
71 3 -0.823134 -2.47125 6.94477 13.6051
157 2 0.122557 2.36629 10.5569 10.6728
269 2 0.145862 -5.94561 11.0429 13.1111
15 4 1.04503 -4.11676 10.611 16.0739
235 2 0.166945 11.5161 1.39397 3.05595
37 4 1.29816 13.0179 2.06425 5.70662
221 1 -0.674401 8.69724 0.216415 2.11341
39 4 1.26588 11.2499 3.94023 7.3913
45 1 -0.666514 7.03841 4.96751 7.6108
54 1 -0.673942 10.4964 5.49254 6.59656
101 3 -0.81361 13.9596 3.05083 4.84565
102 3 -0.85847 13.7141 1.16835 6.79299
250 2 0.187039 12.0959 4.86704 0.526919
4 4 1.45636 14.9536 2.73427 3.64952
106 3 -0.809786 11.8472 2.90936 6.29487
232 3 -0.796831 14.2832 1.50285 2.74257
129 2 -0.003101 12.0995 1.04741 4.56089
130 2 0.0284199 7.60574 5.72842 3.3342
169 2 0.197955 10.6636 6.27582 7.37679
207 4 1.22721 14.5665 0.310571 7.80576
146 2 0.158538 7.78109 4.34601 6.93176
103 3 -0.789801 5.66637 6.02417 1.28775
145 2 0.148249 7.1598 6.13861 7.52132
170 2 0.166121 9.41723 5.2418 6.44459
171 2 0.211935 11.0362 5.71457 5.65289
273 2 0.177048 9.44889 0.36321 0.143461
224 2 0.165674 9.11256 1.1938 1.76825
231 1 -0.673401 11.6705 0.307788 2.7991
11 4 1.50676 13.1149 6.02286 8.88303
36 4 1.27499 8.97651 2.29001 9.07707
52 1 -0.676778 10.2656 1.12379 9.70769
186 1 -0.665186 8.87932 6.10492 9.86199
100 3 -0.814092 8.27281 3.28973 10.3357
107 3 -0.791245 12.5242 4.42942 8.74086
110 2 0.0168326 14.4738 2.94458 10.115
105 3 -0.804074 9.95565 3.20489 8.11336
202 2 0.183025 13.8793 3.76098 11.9319
163 2 0.183551 11.2618 1.57831 9.60533
144 2 0.209435 7.00443 4.62087 8.72918
165 2 0.229715 9.99519 0.83615 10.7684
172 4 0.96592 16.1413 2.51738 14.1492
173 1 -0.639673 14.3872 1.67737 13.7758
174 2 0.0770749 14.454 2.58708 15.1347
175 2 0.01652 15.908 1.09784 12.9536
176 2 0.170866 13.7454 2.24986 12.9122
184 1 -0.666182 11.0627 0.781124 15.1169
178 4 1.07749 13.9183 5.57235 14.3458
180 4 1.29673 9.98438 1.70074 13.9074
181 4 1.35879 11.6879 3.99578 12.6655
205 2 0.20188 9.2281 5.17102 9.12621
185 1 -0.690721 12.9744 3.30038 11.3115
177 2 0.170648 13.7379 0.738842 14.1665
189 3 -0.818536 10.9122 2.76631 13.165
190 3 -0.791911 12.7299 4.56071 13.8082
192 3 -0.781812 10.8475 5.22537 11.9266
263 3 -0.855149 15.6365 1.07782 8.72154
199 2 0.182407 12.0969 1.18137 15.0619
200 2 0.271582 12.7671 3.74461 10.2783
201 2 0.139281 12.9 2.16259 11.3451
182 4 1.02837 10.6167 6.16731 10.6281
204 2 0.172302 8.06604 5.83662 10.6253
6 4 1.30711 15.9692 2.42167 9.38185
249 1 -0.644961 14.1936 5.65344 16.0606
188 3 -0.802889 8.77025 2.26831 14.6836
187 3 -0.791009 9.38932 0.455682 12.4593
123 2 -0.0467172 5.40165 6.31344 10.8119
237 1 -0.654417 7.83045 10.3928 0.0163884
257 2 0.128555 2.21194 10.3944 5.95401
167 2 0.175711 8.96491 6.9957 2.0596
53 1 -0.648771 8.13579 7.38597 2.66833
104 3 -0.804998 5.26715 7.32777 3.6846
134 2 0.265132 8.24524 12.8442 5.71013
125 2 -0.00741821 4.24994 8.26105 1.27688
225 2 0.171205 0.688971 12.7783 3.16444
166 2 0.0726705 7.39255 8.5156 1.98116
168 2 0.149027 8.3951 7.64698 3.74414
206 4 1.26576 9.26065 10.5268 3.98385
215 2 0.1559 5.09847 9.2577 7.02275
208 4 1.04937 7.37761 10.31 6.67717
209 1 -0.684322 5.86006 9.16838 6.25978
255 2 0.14854 2.36484 12.2337 5.29633
211 3 -0.778764 8.36739 10.5572 5.26876
212 3 -0.782602 6.72293 11.781 7.09207
213 2 -0.00505093 8.67133 9.19452 3.07476
254 1 -0.667358 1.94336 11.1678 5.02582
216 2 0.155884 6.31177 8.14802 6.23403
217 2 0.182466 5.46817 9.45218 5.25791
230 4 1.08255 5.23826 12.8659 2.50865
234 2 0.173826 3.023 12.8353 1.74896
67 3 -0.822631 13.122 6.64606 7.30555
238 3 -0.775182 5.68736 12.1058 1.02405
240 2 0.165938 8.07374 10.4098 1.0863
38 4 1.00819 6.27819 6.75658 2.5736
233 2 0.1587 2.81756 12.487 3.63208
258 1 -0.645704 6.00075 11.8321 3.90757
259 2 0.16695 6.60236 10.9364 3.486
260 2 0.116893 4.85605 11.4751 4.24378
261 2 0.231236 6.49609 12.4005 4.70654
274 2 0.177205 9.31438 9.05074 7.62919
150 2 0.144353 2.74651 10.5355 0.545621
252 2 0.161902 10.3028 8.49071 1.18098
256 2 0.165991 2.1804 10.761 4.05206
253 2 0.163455 11.8118 7.67359 0.286104
2 3 -0.830721 9.32538 11.8729 3.19011
198 2 0.155568 2.5965 12.5523 14.6101
40 4 0.917144 6.01906 11.539 12.9798
108 3 -0.800896 4.78611 10.6619 12.6581
109 3 -0.795343 6.50043 11.5597 14.4404
214 2 -0.0388746 4.94977 12.6576 8.88213
132 2 -0.0486013 7.29733 11.1598 12.0868
236 4 0.994363 7.47513 11.8825 15.7968
203 2 0.142527 8.56695 7.02658 9.24303
131 2 -0.0180586 5.75338 13.1501 12.4035
193 2 0.0524415 11.4122 9.68159 14.977
218 2 0.135338 7.78321 9.12175 8.77746
194 2 0.00822721 9.72497 7.57848 10.9433
241 2 0.170664 9.99753 11.0086 15.3605
239 2 0.111085 8.15098 9.80682 15.8465
264 2 0.0544106 9.01541 12.5554 15.24
219 2 0.17634 8.81124 10.7294 8.60537
34 4 0.996402 3.49114 9.67502 12.396
191 3 -0.817692 11.9806 6.73965 9.80271
210 1 -0.657123 8.51506 9.68829 8.14753
164 2 0.160886 1.82343 13.009 9.06305
ITEM: TIMESTEP
200
ITEM: NUMBER OF ATOMS
274
ITEM: BOX BOUNDS xy xz yz pp pp pp
-8.7149919999999987e+00 1.8734455999999998e+01 -8.7149919999999987e+00
0.0000000000000000e+00 1.3273200000000001e+01 1.2427999999999990e+00
0.0000000000000000e+00 1.6075500000000002e+01 4.3120000000000003e-01
ITEM: ATOMS id type q x y z
119 2 -0.0187693 7.55639 1.28329 5.24232
12 4 1.33799 -0.868181 6.3144 5.33441
7 4 1.12399 0.759419 2.17159 5.02447
9 4 1.27042 -0.442045 4.49551 1.90842
10 4 1.57582 0.287869 4.30504 7.26415
242 1 -0.683228 3.22817 0.220084 3.25573
21 4 0.824792 5.92555 1.42069 5.69453
26 4 1.28971 5.29933 4.24087 6.85693
41 1 -0.686207 0.670027 0.633474 6.14416
44 1 -0.673729 3.79972 3.7993 1.83232
55 3 -0.826168 1.29523 0.928087 1.08954
56 3 -0.787953 -0.578393 2.15589 4.15535
58 3 -0.808226 -1.83052 4.52598 2.73957
59 3 -0.877113 -0.0256781 3.21772 1.0286
243 2 0.141256 3.32939 1.32747 2.83071
61 3 -0.807332 1.03081 3.3179 5.97117
62 3 -0.884442 -0.459252 5.42245 6.51802
74 3 -0.784712 5.69166 0.316315 7.29796
78 3 -0.890046 0.700734 5.24594 2.6279
81 3 -0.825342 5.65824 2.91591 6.05198
84 3 -0.81189 2.90526 5.86326 3.96502
85 3 -0.782327 4.65318 5.49777 5.96382
113 2 0.106351 -1.53568 5.32371 4.10957
111 2 0.000517989 2.15958 1.83321 3.95395
112 2 -0.0162129 -0.941132 5.41235 0.575642
5 4 1.35943 0.549584 1.99842 0.245349
118 2 -0.0141277 4.59811 0.882381 4.63082
24 4 1.28811 4.73187 4.88056 0.561297
222 3 -0.779794 6.35358 1.43215 1.00336
223 2 -0.0891669 6.31956 0.93559 3.87353
141 2 0.167789 3.70494 2.71902 1.46026
142 2 0.223025 2.80086 4.33431 1.95172
143 2 0.186991 4.3979 3.88422 2.75869
220 4 1.04646 6.86341 0.438646 2.15567
135 2 0.225397 0.640756 1.05384 7.18303
25 4 1.41921 1.4792 6.4495 3.36425
266 2 0.0943686 -2.78734 4.66978 0.0302155
28 4 1.19403 4.05447 6.54089 4.87069
138 2 0.159547 1.18298 0.884317 12.7517
8 4 1.23254 1.7463 2.61976 11.1816
13 4 1.23167 0.259009 4.94591 12.5809
229 2 -0.0564745 3.56277 6.54092 13.2887
20 4 1.25331 4.5322 2.68017 9.3668
23 4 1.24428 6.98218 2.88899 11.2091
99 3 -0.804567 8.03738 1.17741 8.30124
226 4 0.886065 3.44032 6.36234 15.0893
42 1 -0.652375 2.13736 1.56964 12.6293
57 3 -0.801764 0.259603 2.24936 10.4468
63 3 -0.891094 -0.458102 3.92242 13.5236
64 3 -0.789478 1.78192 4.29238 12.1576
65 3 -0.842909 -2.56305 6.16003 9.66088
66 3 -0.849096 -0.473275 5.39298 11.2826
73 3 -0.756548 3.06242 2.4634 10.1358
75 3 -0.847642 5.58739 3.1307 10.457
76 3 -0.833395 7.05784 1.46891 12.041
80 3 -0.748923 4.39895 3.81325 8.29691
27 4 1.34953 1.66943 6.52106 8.80253
137 2 0.159333 3.03222 0.979417 12.1697
114 2 -0.0440393 0.583544 6.31201 13.4568
197 2 0.163636 5.35193 1.34036 15.8535
124 2 0.117239 2.82467 5.43037 11.6714
136 2 0.198533 2.47474 2.19034 13.6237
179 4 1.30224 7.35179 2.55096 15.5444
183 1 -0.658557 5.87321 1.66268 14.7778
77 3 -0.760899 6.88895 4.09875 15.7212
60 3 -0.826103 -0.733891 3.47466 8.24059
196 2 0.173227 5.22651 2.28132 14.1207
117 2 0.0745269 5.04091 1.29744 8.52066
227 3 -0.831265 4.77398 5.90335 15.776
195 2 0.245966 6.36285 0.770836 14.209
245 1 -0.671891 3.09707 3.28397 15.2083
246 2 0.164893 2.75257 3.66085 14.1999
247 2 0.164207 4.12117 2.55698 15.0524
262 3 -0.792564 0.59621 1.78255 15.1991
228 2 -0.0330417 2.30771 5.1296 15.1417
14 4 1.52594 -1.11845 6.61108 10.405
123 2 -0.0384183 5.32933 6.12568 10.8679
82 3 -0.770825 1.48873 5.03629 8.19722
248 2 0.171994 3.28905 4.12594 15.9883
271 2 0.168854 1.5502 10.2823 2.09697
3 3 -0.795238 -6.17422 11.2861 1.02112
268 2 0.196644 -5.07634 8.82496 1.62414
16 4 1.46178 -3.28367 7.96493 6.53463
17 4 1.26028 -4.61921 9.91725 4.90366
154 2 0.171051 0.841297 9.35631 7.56448
161 2 0.199816 -1.10894 10.1158 0.294329
31 4 1.27408 -1.9688 10.3472 3.18391
33 4 1.11687 0.247235 10.8652 5.6452
48 1 -0.651542 -1.25136 8.99146 2.02795
49 1 -0.661584 0.0476791 9.32991 6.71248
272 2 0.170376 0.683081 10.2631 0.339233
68 3 -0.842139 -2.0205 7.33913 5.75434
251 1 -0.637728 -5.50657 8.57185 0.598653
70 3 -0.812609 -4.5056 8.48845 5.57089
79 3 -0.847303 0.375042 7.07041 4.64719
87 3 -0.799783 1.7902 7.71492 2.28157
30 4 1.04025 2.30969 8.17586 0.860531
89 3 -0.767087 -2.07127 11.7894 2.11441
90 3 -0.819097 -3.47503 10.1224 3.75284
93 3 -0.78456 -0.872936 10.6403 4.29283
94 3 -0.785835 -0.281432 11.9638 6.55265
115 2 -0.0130453 -4.24981 11.1054 6.09594
147 2 0.187432 1.8102 7.31588 6.49884
151 2 0.189073 -0.120819 9.42506 1.6046
152 2 0.184392 -1.97654 8.78561 1.22567
153 2 0.19626 -1.16968 8.15489 2.80063
244 2 0.15776 -5.62674 12.9328 4.31016
155 2 0.254626 0.122575 8.47655 5.95086
156 2 0.268354 -1.0279 9.37642 7.09543
46 1 -0.674313 2.3523 7.69984 7.44056
148 2 0.17414 3.45363 7.44729 7.41582
133 2 0.175565 -7.07967 12.8385 5.92596
19 4 1.32808 -1.35687 12.6062 7.8605
1 4 1.30808 -6.76361 12.5109 2.04866
69 3 -0.853096 -6.05347 10.2974 4.43541
91 3 -0.83165 -2.80682 9.35078 7.70131
122 2 -0.00635197 3.30005 7.86492 5.72348
47 1 -0.638846 1.69274 10.0123 0.95352
149 2 0.153423 2.12113 8.81537 7.64729
265 2 0.202844 -4.49248 12.323 2.8635
253 2 0.178459 -4.9909 7.79776 0.0994192
159 2 0.201175 1.09118 9.69965 12.1177
18 4 1.27228 -2.00691 8.26438 12.8415
22 4 1.23808 -0.69035 12.955 12.0854
32 4 0.934044 -2.60836 10.2667 8.96743
35 4 1.25832 -1.33586 10.8744 14.2526
50 1 -0.679132 1.88697 10.4592 11.9475
160 2 0.166125 1.11254 10.6357 14.7753
158 2 0.242547 1.5632 11.5636 12.2975
51 1 -0.646073 0.237683 11.0883 15.348
162 2 0.204349 0.337093 12.1833 15.4371
72 3 -0.848543 -1.42858 7.93639 11.46
83 3 -0.777843 0.0927813 7.02283 9.42805
88 3 -0.79654 2.87794 7.81259 15.6703
92 3 -0.839861 -1.49555 11.4142 9.06178
95 3 -0.808442 3.84929 8.20812 11.7694
96 3 -0.794868 -1.08192 9.24097 13.6562
97 3 -0.877506 -1.28099 11.9586 13.1075
98 3 -0.779506 -2.66605 10.8945 15.3658
116 2 -0.0393814 -3.45394 9.03308 12.4785
120 2 0.0536372 -0.644727 12.2857 10.5282
126 2 0.0384739 -2.27228 9.21268 10.2283
127 2 -0.0567853 -4.0887 10.9137 9.48745
128 2 0.0276004 2.27455 9.52059 13.6344
139 2 0.150565 -4.51572 11.3289 13.5535
140 2 0.183742 -5.73503 11.9787 14.8027
43 1 -0.6602 -5.46199 11.0969 14.1347
71 3 -0.866388 -2.56713 6.98237 13.5719
157 2 0.148178 2.18343 10.4772 10.753
29 4 0.943005 3.83115 6.77175 11.1583
86 3 -0.790709 2.83803 6.70765 9.96183
15 4 1.07166 -4.1508 10.8203 16.0196
235 2 0.16775 11.3909 1.22961 2.93937
37 4 1.30181 13.0893 2.1564 5.74362
221 1 -0.66371 8.71906 0.583558 2.05371
39 4 1.25526 11.1847 3.92868 7.36776
45 1 -0.651064 7.11254 4.75528 7.27862
54 1 -0.672547 10.6994 5.52558 6.54017
101 3 -0.836417 14.0785 3.0663 4.88315
102 3 -0.855191 13.8435 1.23652 6.80895
250 2 0.168305 12.074 4.4956 0.442557
4 4 1.38108 14.9859 2.81088 3.60781
106 3 -0.829515 11.8954 2.92852 6.36999
232 3 -0.816349 14.4121 1.66181 2.6164
129 2 0.00340054 12.3659 1.07254 4.55036
130 2 0.0516798 7.76096 5.82007 3.05116
169 2 0.205617 10.8603 6.31241 7.32833
207 4 1.30682 14.6301 0.402509 7.8397
146 2 0.216805 7.71386 3.78208 7.10056
103 3 -0.786242 5.54262 6.0718 1.34151
145 2 0.154768 7.46527 5.64594 6.62801
170 2 0.163593 9.60663 5.37357 6.30011
171 2 0.218021 11.2659 5.77159 5.63175
134 2 0.240156 16.9172 0.155757 5.79329
224 2 0.176086 8.93952 1.37014 1.28604
231 1 -0.665492 11.9505 0.292363 2.82038
225 2 0.110269 8.96977 0.947643 3.24863
230 4 1.12153 13.9283 0.155691 2.40167
105 3 -0.827361 9.78085 3.30035 8.03096
273 2 0.178475 9.41016 0.362117 0.00758984
267 2 0.180843 12.8279 6.17931 0.38299
11 4 1.49872 13.251 5.96627 8.86567
36 4 1.32766 9.0659 2.24515 8.99819
52 1 -0.673926 10.4391 1.05741 9.62661
186 1 -0.670502 9.13727 6.29418 9.82759
100 3 -0.831522 8.24254 2.88156 10.2807
107 3 -0.779965 12.6363 4.44016 8.65722
110 2 0.0194844 14.9032 3.18683 10.2842
249 1 -0.651204 14.1693 5.63352 16.0518
202 2 0.177773 14.1884 3.94478 11.8384
163 2 0.173888 11.4115 1.55021 9.61679
144 2 0.175733 7.05521 4.98446 8.40103
165 2 0.234943 10.0421 0.779042 10.7427
172 4 1.01409 16.5489 2.57177 14.3301