ITEM: TIMESTEP
0
ITEM: NUMBER OF ATOMS
274
ITEM: BOX BOUNDS xy xz yz pp pp pp
-8.3797999999999995e+00 1.8013900000000000e+01 -8.3797999999999995e+00
0.0000000000000000e+00 1.3273200000000001e+01 1.1950000000000001e+00
0.0000000000000000e+00 1.6075500000000002e+01 4.3120000000000003e-01
ITEM: ATOMS id type q x y z
119 2 -0.00430576 7.37526 1.23518 5.25322
12 4 1.32239 -0.870909 6.3079 5.31647
7 4 1.14708 0.920894 2.09119 5.10743
9 4 1.24686 -0.422304 4.69065 1.86353
10 4 1.60781 0.372093 4.30644 7.31615
242 1 -0.676458 3.2936 0.584475 2.89345
21 4 0.808633 5.74105 1.46597 5.6585
26 4 1.26594 5.45717 4.55075 6.8884
41 1 -0.651264 0.754564 0.419044 5.99651
44 1 -0.66675 4.14965 3.77198 1.7531
55 3 -0.811344 1.11186 0.899791 1.07573
56 3 -0.843998 -0.36477 2.34832 4.32122
58 3 -0.78699 -1.75035 4.45071 2.76404
59 3 -0.831363 -0.0398458 3.36975 1.10913
243 2 0.159851 3.44574 1.7237 2.84851
61 3 -0.780314 1.19579 3.06768 6.2823
62 3 -0.852736 -0.624353 5.22379 6.42569
74 3 -0.790243 5.49457 0.393369 7.29962
78 3 -0.859426 0.74192 5.4181 2.67125
81 3 -0.777132 5.78223 2.98415 5.98138
84 3 -0.80825 2.99553 5.82697 4.14497
85 3 -0.832046 5.02397 5.78172 5.95211
113 2 0.110628 -1.45835 5.38447 3.98952
111 2 -0.00472518 2.27113 1.88708 4.0131
112 2 -0.0212 -0.962387 5.56263 0.529897
5 4 1.35853 0.371247 2.02738 0.227848
118 2 -0.0308404 4.53757 1.07611 4.32878
24 4 1.29593 4.95359 4.93586 0.439556
222 3 -0.787215 6.2497 1.35716 1.11943
223 2 -0.0992495 6.22703 0.867697 3.89463
141 2 0.194712 4.46764 2.69365 1.65969
142 2 0.190067 3.02201 3.93733 1.66115
143 2 0.189232 4.56617 4.30483 2.68781
220 4 1.01825 6.72519 0.241763 2.22281
135 2 0.244275 0.578529 0.594354 7.0986
82 3 -0.822993 1.51881 5.26651 7.92498
267 2 0.171267 -3.66096 6.26892 0.406547
244 2 0.12263 3.0248 0.174358 3.94263
138 2 0.172251 1.56067 0.744134 12.3912
8 4 1.2567 1.85377 2.68574 10.9737
13 4 1.23629 0.404794 4.95639 12.3105
229 2 -0.0378213 3.61064 6.37989 13.4966
20 4 1.29109 4.44144 2.89803 9.20296
23 4 1.2533 6.9386 2.93318 11.1909
99 3 -0.821677 7.9036 1.25761 8.40017
226 4 0.913724 3.52429 6.38263 15.1746
42 1 -0.658868 2.32239 1.5448 12.4098
57 3 -0.822094 0.43769 2.07572 10.382
63 3 -0.86395 -0.340257 3.91674 13.3556
64 3 -0.830473 1.83622 4.3766 11.9884
65 3 -0.827254 -2.38818 6.30293 9.54181
66 3 -0.878427 -0.515562 5.3899 11.0602
73 3 -0.829271 3.12022 2.56812 9.96057
75 3 -0.860841 5.69766 2.92454 10.2184
76 3 -0.841993 7.08537 1.60524 12.0438
80 3 -0.793973 4.48281 4.12681 8.18656
123 2 -0.0526674 5.1666 6.00262 10.8331
137 2 0.172914 3.33331 1.13195 12.0166
114 2 -0.0295307 0.789442 6.32667 13.2582
248 2 0.169683 3.52164 3.94964 15.8902
124 2 0.0582283 3.25893 5.21513 12.0746
136 2 0.177232 2.5007 2.16767 13.451
179 4 1.25595 7.24098 2.43971 15.6814
183 1 -0.669144 5.86945 1.49881 14.809
77 3 -0.747637 6.92659 4.16882 15.6921
60 3 -0.846417 -0.474363 3.49288 8.35773
196 2 0.181042 5.35728 2.21835 14.2122
117 2 0.110626 4.85345 1.45918 8.31862
227 3 -0.835922 4.90589 5.95077 15.7567
195 2 0.287801 6.39802 0.598733 14.2062
245 1 -0.679701 2.99421 3.21647 15.1884
246 2 0.158066 2.64565 3.7133 14.2363
247 2 0.171234 3.73742 2.39459 14.9381
262 3 -0.829843 0.332272 2.03789 15.369
228 2 -0.0227955 2.42613 5.11969 15.2886
14 4 1.56157 -0.990419 6.61829 10.2676
29 4 0.954947 3.65172 6.58993 11.1706
266 2 0.0937312 -1.59069 4.8253 15.8203
121 2 -0.0213482 6.74854 4.2489 12.2576
197 2 0.192265 5.29069 1.16496 15.7809
86 3 -0.829045 2.73407 6.60447 9.92363
27 4 1.36733 1.78263 6.64227 8.69417
15 4 1.03115 -5.17511 10.1581 0.0284757
3 3 -0.786448 -5.74092 11.5133 0.967686
268 2 0.23355 -4.38982 8.65074 1.56036
16 4 1.50821 -3.09373 7.97488 6.56486
17 4 1.24248 -4.49623 9.87467 4.72632
154 2 0.17109 1.07727 9.54171 7.27848
161 2 0.189033 -0.983851 10.0789 0.503756
31 4 1.21456 -2.0736 10.2075 2.97162
33 4 1.16018 -0.0589194 11.071 5.50767
48 1 -0.655185 -0.99241 8.88163 2.07454
49 1 -0.633345 0.1378 9.46859 6.57262
272 2 0.175223 0.800239 10.3225 0.346656
68 3 -0.863699 -1.87127 7.40807 5.65391
28 4 1.28497 4.21536 6.56153 4.91333
70 3 -0.825578 -4.22226 8.71352 5.73358
79 3 -0.847523 0.567658 7.09686 4.86674
87 3 -0.815838 1.97382 7.83524 2.62123
30 4 1.02412 2.31539 8.2206 1.10573
89 3 -0.763424 -2.06047 11.6222 1.88737
90 3 -0.812149 -3.55359 9.73837 3.3139
93 3 -0.81485 -1.01775 10.6692 4.29481
94 3 -0.808952 -0.539052 12.1423 6.54333
115 2 -0.0378913 -4.03097 11.2986 5.50983
147 2 0.185 2.05724 7.52188 6.52288
151 2 0.185696 0.00644404 9.38375 1.56015
152 2 0.161086 -1.62503 8.42768 1.25377
153 2 0.194907 -0.817708 8.20562 3.01825
251 1 -0.670879 -5.32591 8.5341 0.951386
155 2 0.280244 0.23433 8.54924 5.85781
156 2 0.29817 -0.926382 9.3979 7.12251
46 1 -0.671346 2.59995 7.95251 7.48116
148 2 0.167353 3.69692 7.67343 7.58859
265 2 0.193436 -4.25197 12.8225 2.43286
19 4 1.3601 -1.33312 12.8326 7.85669
1 4 1.29541 -6.53924 12.526 1.9059
69 3 -0.802784 -6.01343 9.93971 4.32228
91 3 -0.820738 -2.41525 9.32328 7.81287
271 2 0.17154 1.75564 10.434 1.98743
47 1 -0.667403 1.77714 10.0502 0.958638
25 4 1.42154 1.58706 6.55171 3.57003
122 2 0.0109183 3.57705 7.92472 5.791
149 2 0.144146 2.38553 9.10864 7.61191
133 2 0.140556 -6.54265 12.8413 5.82168
270 2 0.183806 0.588865 12.115 1.71841
159 2 0.193034 1.10828 9.70949 11.5158
18 4 1.22621 -1.93069 8.33392 12.8931
22 4 1.18641 -0.668922 12.9684 12.183
32 4 0.95538 -2.25361 10.2485 9.042
35 4 1.18736 -1.21026 10.6867 14.5043
50 1 -0.650687 2.00582 10.3963 11.7131
160 2 0.153101 1.09091 10.8936 14.7839
158 2 0.241033 1.60032 11.4479 12.0722
51 1 -0.633025 0.252588 11.2309 15.5242
162 2 0.227345 0.167233 12.3564 15.638
72 3 -0.828669 -1.46252 7.96864 11.3902
83 3 -0.783009 0.116057 7.14801 9.21939
88 3 -0.785431 2.93055 7.71824 15.8671
92 3 -0.802013 -1.20242 11.3939 8.96965
95 3 -0.797621 3.64879 7.95372 12.0081
96 3 -0.794265 -0.889657 9.08144 13.7778
97 3 -0.794685 -1.49396 12.0601 13.2221
98 3 -0.784038 -2.5003 10.7594 15.4083
116 2 -0.046248 -3.40839 9.14672 12.6924
120 2 0.0297379 -0.695721 12.1967 10.6843
126 2 0.0711295 -1.91684 9.20631 10.3753
127 2 -0.0468747 -3.81161 10.752 9.42328
128 2 0.0402822 2.14943 9.85413 13.5357
139 2 0.164998 -4.3952 10.995 13.6586
187 3 -0.79573 0.91779 12.955 12.651
43 1 -0.662525 -5.41795 10.9178 14.1418
71 3 -0.846104 -2.37068 7.02219 13.6579
140 2 0.180322 -5.63558 11.8355 14.7133
235 2 0.163432 11.5676 1.3061 2.88034
37 4 1.27457 12.9885 1.99468 5.6344
221 1 -0.651448 8.60957 0.273993 2.04274
39 4 1.26378 11.2397 3.94265 7.48412
45 1 -0.660942 7.13351 5.12681 7.57796
54 1 -0.662012 10.5205 5.38327 6.55
101 3 -0.815263 13.9003 2.96946 4.79713
102 3 -0.850864 13.8235 1.08148 6.59441
250 2 0.180121 11.9338 4.65367 0.458325
4 4 1.45879 14.996 2.72619 3.67788
106 3 -0.789745 11.8742 2.93601 6.37502
232 3 -0.802769 14.429 1.4913 2.72362
129 2 -0.00842532 11.9848 1.07481 4.53978
130 2 0.0746833 7.65181 5.85509 3.35369
169 2 0.249807 10.9994 6.37438 6.78828
207 4 1.24693 14.4695 0.326107 7.83836
146 2 0.193647 7.84856 4.44923 7.05703
103 3 -0.798855 5.89096 6.18144 1.21274
145 2 0.158414 7.36935 6.24593 7.38403
170 2 0.178357 9.4157 5.34081 6.81183
171 2 0.189239 10.7804 4.96578 5.45187
225 2 0.115101 8.80617 0.522978 3.21792
224 2 0.177192 9.0413 1.07162 1.38943
231 1 -0.648771 11.7726 0.229141 2.77737
273 2 0.180715 9.33075 0.202628 0.0969628
11 4 1.48473 13.059 6.02134 8.74315
36 4 1.24569 8.99666 2.25869 9.22474
52 1 -0.689425 10.2968 1.21043 10.0875
186 1 -0.665773 8.82034 6.15137 9.86454
100 3 -0.801482 8.30757 3.27637 10.3817
107 3 -0.789432 12.7101 4.40815 8.65194
110 2 0.0102344 14.7519 2.79914 10.4789
105 3 -0.795935 9.93635 3.29466 8.14665
202 2 0.172834 14.0062 3.7096 11.8234
163 2 0.176088 11.1359 2.00546 10.1445
144 2 0.194458 7.04349 4.89791 8.7352
165 2 0.231629 9.94449 0.805367 11.0756
172 4 0.999875 16.1065 2.61629 14.1679
173 1 -0.662027 14.3795 1.6926 13.6759
174 2 0.062673 14.4365 2.94138 14.9724
175 2 0.0592569 15.6567 1.20306 13.0235
176 2 0.167885 13.8598 2.23922 12.8778
184 1 -0.658062 10.9617 0.662469 15.0693
178 4 1.10899 13.9335 5.74588 14.3687
180 4 1.24546 9.88992 1.58895 13.881
181 4 1.30155 11.8601 3.98023 12.6702
205 2 0.203378 9.22065 5.15999 9.11705
185 1 -0.686971 13.0581 3.23796 11.3086
177 2 0.175278 13.7208 0.840721 14.0923
189 3 -0.777309 10.808 2.79762 13.2885
190 3 -0.802927 12.8158 4.73603 13.7555
192 3 -0.763518 11.1102 5.08758 11.7305
263 3 -0.845918 15.577 1.01732 8.69487
199 2 0.173557 11.9609 1.19628 14.9621
200 2 0.267531 12.8562 3.62254 10.2188
201 2 0.124221 12.8977 2.09896 11.5485
182 4 1.02492 10.5621 6.2237 10.6024
204 2 0.168597 8.23047 5.76705 10.7453
6 4 1.32517 16.0381 2.35191 9.3862
164 2 0.154056 10.3966 0.391481 9.23915
188 3 -0.75985 8.61372 2.09225 14.724
249 1 -0.645848 14.066 5.66186 16.0516
237 1 -0.668663 7.75062 10.6967 0.173139
257 2 0.158755 2.33971 10.9715 5.85662
167 2 0.172494 8.89989 7.07153 1.83891
53 1 -0.645377 8.23918 7.33349 2.67975
104 3 -0.789864 5.16134 7.1535 3.85553
134 2 0.247777 8.42772 12.6953 5.46272
125 2 -0.00944633 3.97307 8.37229 0.815038
2 3 -0.82117 9.32754 11.7866 3.13735
166 2 0.0314642 7.3248 8.53641 2.06848
168 2 0.169082 8.89749 7.70984 3.53288
206 4 1.22369 9.32321 10.3809 3.85789
215 2 0.162267 4.94886 9.60844 6.98421
208 4 1.02964 7.41474 10.3722 6.64907
209 1 -0.664496 5.85962 9.18903 6.47797
255 2 0.150005 1.61427 12.5205 4.98746
211 3 -0.767279 8.40852 10.3397 5.13367
212 3 -0.7672 6.68925 11.7902 7.29092
213 2 -0.0112923 8.97652 9.1741 2.7066
254 1 -0.678825 1.74339 11.3948 5.03264
216 2 0.160257 6.17969 8.25624 6.95547
217 2 0.180139 5.70786 9.03182 5.33656
230 4 1.09948 5.35446 12.8695 2.599
234 2 0.185519 3.16243 12.7158 1.67722
253 2 0.154247 11.5074 7.64138 0.230441
238 3 -0.792758 5.42968 12.0943 1.09009
240 2 0.168113 8.05037 10.9622 1.25345
38 4 0.966091 6.3458 6.95343 2.46496
233 2 0.155227 2.83369 12.4003 3.66321
258 1 -0.695958 5.78035 11.7157 4.08908
259 2 0.166554 6.58995 11.0245 3.64565
260 2 0.157904 4.81466 11.2182 4.30107
261 2 0.223189 6.21782 12.2654 4.93941
274 2 0.199575 9.50277 9.60744 7.70546
150 2 0.149656 2.75872 10.4087 0.388518
252 2 0.151726 10.4573 8.67628 1.51989
256 2 0.150156 2.02139 10.9326 3.97623
239 2 0.0984941 7.03245 9.52679 0.0611419
67 3 -0.836249 13.0757 6.7471 7.2725
198 2 0.173462 2.61682 12.4514 14.6111
40 4 0.92241 5.92209 11.4907 12.9209
108 3 -0.839401 4.69135 10.6065 12.8154
109 3 -0.780903 6.63939 11.6211 14.3111
214 2 -0.0505913 4.89377 12.6989 8.90337
132 2 -0.0445662 6.88582 11.0506 11.6505
236 4 0.992835 7.33205 11.941 15.8866
203 2 0.163274 8.34992 6.93033 9.24635
131 2 -0.0218271 5.60355 13.0574 12.4133
193 2 0.0581133 11.3192 9.66496 15.12
218 2 0.125598 7.77601 8.7584 8.23918
194 2 0.00281063 9.44303 7.32232 11.3151
241 2 0.1726 9.88346 10.9953 15.4963
269 2 0.161316 10.5837 10.7866 13.4498
264 2 0.116653 8.76239 12.9772 15.7122
219 2 0.182261 8.43222 10.5683 8.86539
34 4 1.00253 3.55508 9.62049 12.4888
191 3 -0.780697 11.6663 6.81354 9.6142
157 2 0.120326 2.70845 10.4495 10.5719
210 1 -0.644787 8.49221 9.75091 8.0876
ITEM: TIMESTEP
100
ITEM: NUMBER OF ATOMS
274
ITEM: BOX BOUNDS xy xz yz pp pp pp
-8.0582899999999995e+00 1.8013900000000000e+01 -8.0582899999999995e+00
0.0000000000000000e+00 1.3273200000000001e+01 1.1950000000000001e+00
0.0000000000000000e+00 1.6075500000000002e+01 4.3120000000000003e-01
ITEM: ATOMS id type q x y z
119 2 -0.00149016 7.41793 1.09627 5.22028
12 4 1.32071 -0.871105 6.39486 5.25804
7 4 1.138 0.845053 2.12133 5.06139
9 4 1.25492 -0.461319 4.67785 1.79318
10 4 1.60116 0.42594 4.34046 7.1746
242 1 -0.694456 3.35034 0.52045 3.05408
21 4 0.836058 5.83655 1.36688 5.66386
26 4 1.19096 5.42789 4.38272 6.89932
41 1 -0.663601 0.7519 0.458108 5.99416
44 1 -0.683658 3.97573 4.03245 1.97839
55 3 -0.837212 1.1084 0.878521 1.20635
56 3 -0.853052 -0.508764 2.28531 4.32244
58 3 -0.804443 -1.71795 4.46546 2.74183
59 3 -0.861947 0.0983258 3.38658 1.06155
243 2 0.164856 3.58773 1.58065 3.01208
61 3 -0.807976 1.14577 3.27873 6.08989
62 3 -0.859847 -0.539371 5.37758 6.41708
74 3 -0.781044 5.61087 0.281111 7.30304
78 3 -0.877985 0.707036 5.35101 2.63937
81 3 -0.789499 5.60925 2.82239 5.95163
84 3 -0.817292 2.9748 5.93417 4.09148
85 3 -0.785973 4.80642 5.62721 5.78462
113 2 0.11367 -1.4327 5.4043 3.96898
111 2 0.00226556 2.23494 1.85889 4.03855
112 2 -0.0143713 -0.826075 5.96884 0.742611
5 4 1.39234 0.501123 2.04392 0.321282
118 2 -0.0181533 4.66516 0.930686 4.48125
24 4 1.25345 4.72546 4.87794 0.432042
222 3 -0.764169 6.26258 1.4737 1.06271
223 2 -0.0804625 6.3214 0.773621 3.82236
141 2 0.179499 4.28892 2.99917 1.96543
142 2 0.19042 2.79617 4.15334 1.86804
143 2 0.225547 4.44628 4.62968 2.77251
220 4 1.01529 6.81434 0.369607 2.11956
135 2 0.221663 0.813181 0.738945 7.08709
25 4 1.45785 1.5829 6.41921 3.4469
267 2 0.176399 -3.50677 6.25395 0.253818
248 2 0.161305 2.23608 3.53628 0.0819841
138 2 0.151645 1.14408 0.88156 12.6978
8 4 1.18175 1.85381 2.65722 11.1799
13 4 1.27679 0.354811 4.939 12.4195
229 2 -0.0348879 3.49289 6.44321 13.3322
20 4 1.3176 4.5663 2.77578 9.3081
23 4 1.28835 6.9999 2.97479 11.2047
99 3 -0.809418 7.86296 1.15526 8.55438
226 4 0.93632 3.41125 6.33985 15.1057
42 1 -0.662475 2.12072 1.5295 12.6021
57 3 -0.781661 0.291018 2.25981 10.5097
63 3 -0.851899 -0.36028 3.89311 13.3969
64 3 -0.828385 1.77979 4.41834 11.9399
65 3 -0.863509 -2.28664 6.24111 9.57183
66 3 -0.849964 -0.683775 5.36746 11.373
73 3 -0.769359 3.23361 2.39739 10.0115
75 3 -0.858381 5.66901 2.99587 10.3629
76 3 -0.842265 6.98188 1.58005 11.9112
80 3 -0.759081 4.55243 4.04691 8.35296
86 3 -0.795596 2.81747 6.5848 9.99187
137 2 0.167415 3.03154 0.934159 12.1923
114 2 -0.0319156 0.746543 6.33398 13.3682
197 2 0.164281 5.26371 1.33313 15.4607
124 2 0.0648843 3.28192 5.18577 11.9936
136 2 0.186673 2.46808 2.13915 13.6513
179 4 1.27036 7.32522 2.55918 15.4719
183 1 -0.676455 5.90346 1.68544 14.5689
77 3 -0.742193 6.91362 4.10214 15.5657
60 3 -0.819165 -0.410322 3.52063 8.29497
196 2 0.174888 5.42934 2.4731 13.9325
117 2 0.108755 5.06398 1.37435 8.42259
227 3 -0.844568 4.76864 5.84822 15.5797
195 2 0.250936 6.16291 0.710198 13.9932
245 1 -0.652892 3.09159 3.25545 15.2361
246 2 0.151733 2.66356 3.77752 14.3458
247 2 0.156633 4.10085 2.57896 14.9609
262 3 -0.799068 0.613158 2.09501 15.3331
228 2 -0.0202834 2.22121 5.1261 15.3175
14 4 1.46793 -0.943773 6.58977 10.2856
29 4 0.90615 3.79107 6.61747 11.261
266 2 0.0717727 -1.55309 4.63994 15.4989
27 4 1.42291 1.68321 6.53785 8.8904
121 2 -0.0139627 6.85524 4.10729 12.4362
82 3 -0.784947 1.5928 5.15472 8.04684
270 2 0.169996 0.408509 12.1285 1.38555
3 3 -0.768472 -5.82201 11.2537 1.05679
268 2 0.226331 -4.81393 8.63204 1.9226
16 4 1.46345 -3.18725 7.91837 6.52663
17 4 1.23881 -4.4856 9.83954 4.74481
154 2 0.165426 0.82517 9.32157 7.55085
161 2 0.186809 -1.03283 10.1309 0.34033
31 4 1.26112 -1.98413 10.3304 3.0032
33 4 1.09691 0.115727 10.9844 5.56685
48 1 -0.648988 -1.0981 8.93839 1.98731
49 1 -0.662801 0.0437709 9.37253 6.65317
272 2 0.17465 0.80951 10.2794 0.271472
68 3 -0.852462 -1.90627 7.51322 5.57764
28 4 1.23045 4.18551 6.63709 4.84205
70 3 -0.815459 -4.39296 8.57048 5.66109
79 3 -0.826041 0.552541 7.06326 4.84114
87 3 -0.796694 1.933 7.71843 2.51721
30 4 0.951583 2.55606 8.2945 1.14392
89 3 -0.785908 -2.1332 11.7471 2.00598
90 3 -0.827869 -3.36243 9.79638 3.55594
93 3 -0.781164 -0.852413 10.7062 4.2213
94 3 -0.818511 -0.384998 12.2089 6.50624
115 2 -0.0193029 -4.11987 11.1778 5.7403
147 2 0.224771 1.77936 7.50552 6.52136
151 2 0.197794 -0.0905356 9.34547 1.55441
152 2 0.173206 -1.87812 8.71163 1.18386
153 2 0.189157 -1.06272 8.13821 2.87702
251 1 -0.65581 -5.40641 8.47195 0.994752
155 2 0.273123 0.214746 8.55634 5.87058
156 2 0.273932 -1.07738 9.29098 7.08917
46 1 -0.656003 2.36099 7.78187 7.45446
148 2 0.167757 3.4598 7.45566 7.53949
133 2 0.176598 -6.73051 12.7025 5.57688
19 4 1.36584 -1.30472 12.6437 7.85691
1 4 1.29292 -6.57348 12.5678 2.06929
69 3 -0.809477 -6.05049 10.1968 4.32827
91 3 -0.849204 -2.59221 9.28212 7.79913
122 2 0.00647121 3.55144 7.85176 5.85363
47 1 -0.650447 1.77477 9.97301 0.90519
149 2 0.146142 2.13634 8.85807 7.82048
244 2 0.143543 -5.29041 12.842 4.04352
253 2 0.163611 -4.96703 7.68119 0.293041
265 2 0.202704 -4.2651 12.6798 2.49638
271 2 0.165164 1.59154 10.1654 2.03914
159 2 0.203444 1.0127 9.83091 12.0217
18 4 1.22319 -1.97408 8.31997 12.8795
22 4 1.20427 -0.636281 13.03 12.0367
32 4 0.970092 -2.38 10.1505 9.0235
35 4 1.23277 -1.25418 10.7998 14.3183
50 1 -0.663663 1.8948 10.5922 11.8892
160 2 0.159326 1.09571 11.0276 14.7553
158 2 0.237418 1.57025 11.7123 12.1126
51 1 -0.642503 0.22031 11.2812 15.4593
162 2 0.202801 0.103526 12.3762 15.7502
72 3 -0.800129 -1.32833 8.12507 11.4912
83 3 -0.860481 0.333065 7.14859 9.37904
88 3 -0.733205 2.93999 7.66471 15.8034
92 3 -0.847646 -1.55098 11.4824 9.15636
95 3 -0.785286 3.6148 8.09799 12.0072
96 3 -0.780582 -0.946589 9.24794 13.7207
97 3 -0.830675 -1.27774 12.0125 13.123
98 3 -0.77113 -2.62804 10.6751 15.31
116 2 -0.0412171 -3.24337 9.34854 12.614
120 2 0.0797692 -0.867693 12.2609 10.5532
126 2 0.0892103 -1.73355 9.07624 10.2042
127 2 -0.0335599 -3.84605 10.5956 9.81198
128 2 0.0378889 2.33603 10.0324 13.6905
139 2 0.170452 -4.18588 11.0723 13.6628
140 2 0.169673 -5.51169 12.0478 14.5489
43 1 -0.647254 -5.25547 11.0864 14.0482
71 3 -0.82321 -2.4713 6.94474 13.6053
157 2 0.121272 2.36713 10.6098 10.6885
269 2 0.145926 -5.93024 11.0427 13.1022
15 4 1.04733 -4.11744 10.6109 16.0738
235 2 0.16711 11.5155 1.39413 3.05602
37 4 1.29832 13.0178 2.06452 5.70672
221 1 -0.674802 8.6979 0.216452 2.11262
39 4 1.26567 11.2493 3.93922 7.39172
45 1 -0.666042 7.03827 4.96749 7.61071
54 1 -0.674114 10.4964 5.4923 6.59697
101 3 -0.813712 13.9596 3.05079 4.84576
102 3 -0.858153 13.7141 1.16841 6.7929
250 2 0.187143 12.0959 4.86766 0.527064
4 4 1.45616 14.9534 2.7344 3.64953
106 3 -0.809594 11.8472 2.90951 6.29507
232 3 -0.796591 14.2838 1.50253 2.74272
129 2 -0.00303127 12.0992 1.04778 4.56102
130 2 0.0282861 7.60778 5.73156 3.33282
169 2 0.197987 10.6633 6.27607 7.37637
207 4 1.2271 14.5665 0.310594 7.80571
146 2 0.158882 7.7819 4.34592 6.93167
103 3 -0.789821 5.66648 6.024 1.28812
145 2 0.148052 7.15984 6.13899 7.52147
170 2 0.166027 9.4173 5.24181 6.44449
171 2 0.211921 11.0365 5.71356 5.65332
273 2 0.177677 9.44654 0.369521 0.130932
224 2 0.165408 9.0856 1.20188 1.7548
231 1 -0.67375 11.6707 0.308102 2.79902
11 4 1.50677 13.1149 6.02283 8.8831
36 4 1.27812 8.97968 2.28744 9.08216
52 1 -0.675928 10.2546 1.12315 9.73558
186 1 -0.665265 8.87948 6.10484 9.86206
100 3 -0.815639 8.27425 3.28873 10.3311
107 3 -0.791215 12.5238 4.42919 8.74091
110 2 0.0168467 14.4733 2.94467 10.1144
105 3 -0.804046 9.95505 3.20184 8.11487
202 2 0.183291 13.8781 3.76247 11.9331
163 2 0.183074 11.2337 1.62589 9.68458
144 2 0.209436 7.0047 4.62067 8.72971
165 2 0.231465 9.94505 0.85226 10.7927
172 4 0.965873 16.1413 2.51738 14.1492
173 1 -0.639793 14.3869 1.67744 13.7755
174 2 0.0770794 14.4543 2.58739 15.135
175 2 0.0166035 15.908 1.09815 12.9532
176 2 0.170951 13.7453 2.25022 12.913
184 1 -0.662955 11.051 0.778457 15.1066
178 4 1.07734 13.918 5.57219 14.3458
180 4 1.29856 9.96948 1.69319 13.8985
181 4 1.35604 11.6868 3.99296 12.6659
205 2 0.20184 9.22799 5.16981 9.12678
185 1 -0.691013 12.9741 3.30129 11.3117
177 2 0.170524 13.7377 0.739579 14.1673
189 3 -0.816904 10.9095 2.75622 13.1578
190 3 -0.791469 12.7288 4.5599 13.808
192 3 -0.781542 10.8478 5.22447 11.9267
263 3 -0.855127 15.6365 1.07786 8.72165
199 2 0.182105 12.0929 1.17283 15.0373
200 2 0.271274 12.7671 3.74553 10.2789
201 2 0.138577 12.8983 2.16316 11.3461
182 4 1.028 10.6168 6.16701 10.6283
204 2 0.171695 8.06592 5.83785 10.6256
6 4 1.30691 15.9688 2.4216 9.38222
249 1 -0.644933 14.1939 5.65299 16.0605
188 3 -0.802724 8.77534 2.27355 14.6909
187 3 -0.787446 9.34125 0.472782 12.4666
123 2 -0.046836 5.40187 6.31427 10.8124
237 1 -0.653802 7.83027 10.3922 0.0158811
257 2 0.128879 2.21292 10.395 5.95284
167 2 0.175277 8.96503 7.00052 2.06191
53 1 -0.648928 8.1356 7.3923 2.66972
104 3 -0.805012 5.26719 7.32762 3.68441
134 2 0.265488 8.24342 12.8474 5.71146
125 2 -0.00739291 4.25008 8.26077 1.27718
225 2 0.173103 0.728359 12.7803 3.14595
166 2 0.0730851 7.39078 8.5159 1.98191
168 2 0.14895 8.39393 7.65518 3.74452
206 4 1.27225 9.26765 10.5216 3.98709
215 2 0.155899 5.09867 9.25768 7.02277
208 4 1.04788 7.37756 10.3099 6.6772
209 1 -0.684431 5.86048 9.16878 6.25988
255 2 0.148828 2.36631 12.2334 5.29654
211 3 -0.778255 8.36851 10.5628 5.26363
212 3 -0.782402 6.72288 11.7809 7.09214
213 2 -0.00533296 8.67431 9.2048 3.06117
254 1 -0.667308 1.94423 11.1678 5.02588
216 2 0.155655 6.31251 8.14848 6.23412
217 2 0.182412 5.46837 9.45233 5.25792
230 4 1.08223 5.23798 12.8658 2.50865
234 2 0.173829 3.02469 12.8354 1.7484
67 3 -0.822665 13.122 6.64596 7.30568
238 3 -0.775095 5.68803 12.1057 1.02425
240 2 0.165645 8.0741 10.408 1.08544
38 4 1.00789 6.27861 6.75713 2.5738
233 2 0.158119 2.81821 12.487 3.63182
258 1 -0.645839 6.00067 11.8319 3.90727
259 2 0.166359 6.59995 10.9346 3.48582
260 2 0.116935 4.8555 11.4767 4.24509
261 2 0.231345 6.49734 12.3993 4.70597
274 2 0.176972 9.31441 9.0508 7.62882
150 2 0.144412 2.74628 10.5353 0.544907
252 2 0.160135 10.3075 8.45893 1.13395
256 2 0.165732 2.18113 10.7612 4.05189
2 3 -0.822858 9.36092 11.861 3.21579
198 2 0.152566 2.56442 12.5343 14.6035
40 4 0.916837 6.01887 11.5386 12.9797
108 3 -0.80011 4.78527 10.6614 12.6589
109 3 -0.795088 6.50012 11.5599 14.4403
214 2 -0.0387409 4.94969 12.6576 8.88201
132 2 -0.048528 7.2969 11.1588 12.0868
236 4 0.994183 7.47528 11.8823 15.7966
203 2 0.142494 8.56779 7.02606 9.24204
131 2 -0.0181825 5.75334 13.1496 12.4036
193 2 0.0520181 11.41 9.6818 14.9743
218 2 0.135316 7.78332 9.12163 8.77737
194 2 0.0082213 9.72456 7.57802 10.9438
241 2 0.170798 9.99744 11.008 15.3595
239 2 0.110858 8.14711 9.80673 15.8459
264 2 0.0547963 9.01673 12.5546 15.2403
219 2 0.176332 8.81093 10.7297 8.6049
34 4 0.995102 3.48516 9.68205 12.3929
191 3 -0.817696 11.9807 6.73965 9.8027
210 1 -0.657168 8.51481 9.68835 8.14699
164 2 0.159182 1.88897 12.9788 9.12567
ITEM: TIMESTEP
200
ITEM: NUMBER OF ATOMS
274
ITEM: BOX BOUNDS xy xz yz pp pp pp
-7.7367799999999995e+00 1.8013900000000000e+01 -7.7367799999999995e+00
0.0000000000000000e+00 1.3273200000000001e+01 1.1950000000000001e+00
0.0000000000000000e+00 1.6075500000000002e+01 4.3120000000000003e-01
ITEM: ATOMS id type q x y z
119 2 0.0537207 6.7156 0.395332 5.81032
12 4 1.31176 -0.849449 6.32472 5.30291
7 4 1.09226 0.871956 2.13175 5.02717
9 4 1.27508 -0.425101 4.59988 1.86198
10 4 1.58861 0.37691 4.33468 7.24925
242 1 -0.655171 3.38609 0.136186 3.3961
21 4 0.940546 5.37629 1.48787 5.73999
26 4 1.26333 5.3175 4.28012 6.83241
41 1 -0.695318 0.662145 0.617411 6.08607
44 1 -0.678047 3.80799 3.81128 1.83115
55 3 -0.806098 1.28856 0.918949 1.25123
56 3 -0.79786 -0.476793 2.29289 3.97552
58 3 -0.799169 -1.78856 4.51918 2.70256
59 3 -0.854759 -0.0601987 3.31867 0.941683
243 2 0.13469 3.2047 1.0891 2.63974
61 3 -0.796919 1.11032 3.31044 5.98361
62 3 -0.875797 -0.474398 5.42376 6.52369
74 3 -0.7082 4.38337 0.924673 6.74176
78 3 -0.891482 0.747551 5.26676 2.60542
81 3 -0.801048 5.89795 2.95423 5.87068
84 3 -0.816286 2.93981 5.86497 3.97494
85 3 -0.789636 4.66558 5.53961 5.98151
113 2 0.110709 -1.47437 5.32348 4.02095
111 2 0.00225264 2.29545 1.69133 4.08597
112 2 -0.0120377 -0.962253 5.61331 0.624992
5 4 1.30575 0.517925 2.04424 0.211904
118 2 0.0268936 4.37328 1.54923 4.19093
24 4 1.29411 4.75023 4.89209 0.564087
222 3 -0.793933 6.30096 1.46097 0.944837
223 2 -0.0713892 6.04357 0.929501 3.84676
141 2 0.166773 3.69722 2.73648 1.45734
142 2 0.226501 2.82443 4.34833 1.96384
143 2 0.187329 4.40358 3.87688 2.7523
220 4 1.02391 6.66219 0.470061 2.15126
135 2 0.241604 0.526714 1.08856 7.11145
25 4 1.42137 1.53036 6.46345 3.35154
267 2 0.178338 -3.66222 6.20415 0.44041
28 4 1.21056 4.08784 6.54789 4.86917
138 2 0.160009 1.31975 0.951906 12.7136
8 4 1.26406 1.85294 2.59559 11.1732
13 4 1.25698 0.387992 4.95474 12.602
229 2 -0.0595741 3.55064 6.52555 13.294
20 4 1.30808 4.41993 2.75555 9.26919
23 4 1.29806 6.86753 2.85439 11.1747
99 3 -0.793015 7.88248 1.18781 8.40479
226 4 0.889607 3.43259 6.38403 15.0881
42 1 -0.662828 2.2767 1.58216 12.6416
57 3 -0.813185 0.400203 2.27331 10.48
63 3 -0.877012 -0.296546 3.87714 13.5277
64 3 -0.795098 1.82923 4.35459 12.1779
65 3 -0.84855 -2.32741 6.17251 9.54152
66 3 -0.828464 -0.422858 5.35619 11.3466
73 3 -0.806725 3.07916 2.53108 10.1382
75 3 -0.858567 5.61677 3.07547 10.2096
76 3 -0.893653 6.86012 1.55797 11.9771
80 3 -0.757818 4.3581 3.92615 8.22469
266 2 0.0821929 -1.46635 4.81822 15.7144
137 2 0.153246 3.16863 0.969459 12.2124
114 2 -0.0479908 0.661952 6.35575 13.469
197 2 0.173771 5.37194 1.38093 15.8414
124 2 0.112955 2.87288 5.46513 11.7193
136 2 0.193105 2.60732 2.19601 13.6628
179 4 1.34222 7.34356 2.59907 15.5743
183 1 -0.66128 5.8573 1.69829 14.824
77 3 -0.772689 6.90059 4.14537 15.7464
60 3 -0.831851 -0.516051 3.4477 8.26366
196 2 0.162326 5.14076 2.30113 14.1496
27 4 1.38246 1.70716 6.55629 8.80071
227 3 -0.835109 4.7699 5.92071 15.7595
195 2 0.243316 6.29793 0.808581 14.2297
245 1 -0.674782 3.10536 3.32718 15.2449
246 2 0.168993 2.73967 3.68464 14.2312
247 2 0.162646 4.08355 2.58799 15.1178
262 3 -0.816206 0.562592 1.86993 15.0989
228 2 -0.0292449 2.28244 5.14495 15.0283
14 4 1.51759 -1.03516 6.63645 10.3906
123 2 -0.0463945 5.37272 6.17842 10.8473
82 3 -0.778086 1.5554 5.09373 8.13863
248 2 0.177136 3.28999 4.17423 16.0194
117 2 0.103427 4.58616 1.49338 8.23433
244 2 0.17387 -5.3873 12.5363 4.18886
3 3 -0.822788 -5.88251 11.2998 1.01886
268 2 0.181471 -5.09301 8.80256 1.73244
16 4 1.46842 -3.23266 7.8989 6.54947
17 4 1.26984 -4.51511 9.911 4.87925
154 2 0.164052 0.920321 9.35242 7.58279
161 2 0.200133 -1.09285 10.1118 0.294105
31 4 1.29521 -1.88613 10.3952 3.13008
33 4 1.06099 0.35378 10.7774 5.47149
48 1 -0.633054 -1.22485 9.00604 2.02213
49 1 -0.649785 0.13569 9.25723 6.751
272 2 0.174594 0.717072 10.2722 0.361228
68 3 -0.838472 -1.94545 7.43621 5.63853
270 2 0.187576 0.607125 12.1331 1.9909
70 3 -0.816817 -4.42231 8.46491 5.59195
79 3 -0.839332 0.461566 7.06285 4.67201
87 3 -0.806406 1.81569 7.73355 2.2791
30 4 1.04109 2.33472 8.18006 0.85171
89 3 -0.774012 -1.78913 11.7302 2.0776
90 3 -0.81757 -3.40968 10.192 3.71364
93 3 -0.797386 -0.804859 10.5967 4.27669
94 3 -0.804991 -0.0384106 11.9896 6.68047
115 2 0.00744728 -4.12388 11.0384 6.08583
147 2 0.191638 1.84342 7.40587 6.45785
151 2 0.189882 -0.0859812 9.41425 1.56936
152 2 0.168214 -2.05538 8.82097 1.21004
153 2 0.18863 -1.19755 8.16753 2.87149
271 2 0.172996 1.57686 10.2414 2.10991
155 2 0.260931 0.199904 8.3943 6.02109
156 2 0.268455 -0.942661 9.31772 7.15932
46 1 -0.669943 2.39872 7.72238 7.41869
148 2 0.175653 3.49169 7.4281 7.37885
133 2 0.196923 -6.54682 12.9537 6.01108
69 3 -0.86283 -5.90258 10.3244 4.35104
1 4 1.24098 -6.42254 12.4673 2.07949
265 2 0.209794 -4.3178 12.0796 2.6716
91 3 -0.800608 -2.76356 9.33906 7.72087
122 2 -0.00602534 3.34122 7.88191 5.6958
47 1 -0.644315 1.7131 10.0117 0.954723
149 2 0.144702 2.25123 8.84448 7.69894
257 2 0.145419 2.4846 10.0645 4.77867
159 2 0.210759 0.991882 9.63825 12.0576
18 4 1.27134 -1.94507 8.2813 12.8832
22 4 1.22795 -0.530863 13.0303 12.2022
32 4 0.88226 -2.62313 10.2493 9.01112
35 4 1.30601 -1.30189 10.8968 14.2151
50 1 -0.666917 1.85481 10.3194 11.9249
160 2 0.169786 1.15231 10.689 14.7632
158 2 0.242275 1.7089 11.4478 12.3168
51 1 -0.625653 0.262878 11.1134 15.3454
162 2 0.213595 0.343568 12.2409 15.4909
72 3 -0.849218 -1.41781 7.91453 11.4472
83 3 -0.793149 0.250431 7.08404 9.42158
88 3 -0.804225 2.87061 7.82228 15.6737
92 3 -0.839631 -1.35152 11.4318 8.99802
95 3 -0.808607 3.88593 8.22117 11.7846
96 3 -0.822964 -1.07409 9.35069 13.6656
97 3 -0.90732 -1.10582 12.0294 13.1743
98 3 -0.783926 -2.62862 10.8691 15.3116
116 2 -0.0340703 -3.44532 8.93324 12.5748
120 2 0.0246298 -0.871744 12.1818 10.8128
126 2 0.0226854 -2.41133 9.21603 10.2943
127 2 -0.0486366 -4.07379 11.0317 9.42059
128 2 0.02947 2.31202 9.4916 13.6424
139 2 0.15206 -4.54865 11.4203 13.4478
140 2 0.171059 -5.65365 11.9878 14.771
43 1 -0.657965 -5.45748 11.1248 14.038
71 3 -0.864218 -2.40795 6.99603 13.597
157 2 0.133645 2.2827 10.3529 10.708
15 4 1.07941 -4.0828 10.7227 16.0394
19 4 1.19472 -0.378326 12.3164 8.16002
29 4 0.943157 3.86446 6.78979 11.1562
86 3 -0.792867 2.87443 6.7257 9.96939
187 3 -0.757614 1.30294 13.1407 12.5533
235 2 0.171213 11.2717 1.5851 2.90477
37 4 1.29961 12.9654 2.15916 5.75176
221 1 -0.623042 8.53259 0.367098 1.94823
39 4 1.2623 11.1295 3.91176 7.39817
45 1 -0.645709 7.12216 4.77406 7.30537
54 1 -0.669074 10.66 5.52942 6.54539
101 3 -0.834133 13.885 3.0416 4.76277
102 3 -0.868875 13.7575 1.3132 6.83824
250 2 0.175372 12.0552 4.56025 0.386283
4 4 1.4495 14.8316 2.7386 3.53551
106 3 -0.832416 11.7551 2.92024 6.35173
232 3 -0.811702 14.1097 1.60135 2.64768
129 2 -0.000139014 12.1346 1.10561 4.75859
130 2 0.058314 7.75721 5.7008 3.08515
169 2 0.204493 10.703 6.32792 7.31375
207 4 1.26826 14.3965 0.393706 7.88606
146 2 0.240769 7.75994 3.83327 7.12057
103 3 -0.795645 5.54193 6.06817 1.36458
145 2 0.159537 7.48471 5.65495 6.67451
170 2 0.166698 9.6175 5.36628 6.17008
171 2 0.22483 11.3251 5.81112 5.70461
234 2 0.135369 11.2965 0.0869394 1.78366
224 2 0.162757 9.43045 0.86988 1.43439
231 1 -0.679214 11.6593 0.503575 2.86018
225 2 0.0951785 8.62891 0.847415 3.1847
230 4 1.14059 13.4069 0.181952 2.4048
273 2 0.189784 9.3307 0.150514 0.0490038
11 4 1.49029 13.0765 5.99693 8.87146
36 4 1.30698 8.99245 2.20923 9.09504
52 1 -0.692492 10.3144 1.06988 9.80761
186 1 -0.674113 9.05821 6.26386 9.84443
100 3 -0.828575 8.2037 2.88624 10.3318
107 3 -0.776705 12.5258 4.34841 8.69619
110 2 0.0118377 14.5686 2.797 10.2089
188 3 -0.817265 8.59614 2.13842 14.63
202 2 0.165585 14.0522 3.66461 11.8705
163 2 0.172857 11.314 1.5066 9.74384
144 2 0.18313 7.12284 4.99715 8.41505
165 2 0.234142 9.82977 0.899201 10.8696
172 4 1.03709 16.2376 2.4816 14.2545
173 1 -0.646924 14.4451 1.56889 13.7529