ITEM: TIMESTEP
0
ITEM: NUMBER OF ATOMS
274
ITEM: BOX BOUNDS xy xz yz pp pp pp
-8.3797999999999995e+00 1.8013900000000000e+01 -8.3797999999999995e+00
0.0000000000000000e+00 1.3273200000000001e+01 1.1950000000000001e+00
0.0000000000000000e+00 1.6075500000000002e+01 4.3120000000000003e-01
ITEM: ATOMS id type q x y z
119 2 -0.00430576 7.37526 1.23518 5.25322
12 4 1.32239 -0.870909 6.3079 5.31647
7 4 1.14708 0.920894 2.09119 5.10743
9 4 1.24686 -0.422304 4.69065 1.86353
10 4 1.60781 0.372093 4.30644 7.31615
242 1 -0.676458 3.2936 0.584475 2.89345
21 4 0.808633 5.74105 1.46597 5.6585
26 4 1.26594 5.45717 4.55075 6.8884
41 1 -0.651264 0.754564 0.419044 5.99651
44 1 -0.66675 4.14965 3.77198 1.7531
55 3 -0.811344 1.11186 0.899791 1.07573
56 3 -0.843998 -0.36477 2.34832 4.32122
58 3 -0.78699 -1.75035 4.45071 2.76404
59 3 -0.831363 -0.0398458 3.36975 1.10913
243 2 0.159851 3.44574 1.7237 2.84851
61 3 -0.780314 1.19579 3.06768 6.2823
62 3 -0.852736 -0.624353 5.22379 6.42569
74 3 -0.790243 5.49457 0.393369 7.29962
78 3 -0.859426 0.74192 5.4181 2.67125
81 3 -0.777132 5.78223 2.98415 5.98138
84 3 -0.80825 2.99553 5.82697 4.14497
85 3 -0.832046 5.02397 5.78172 5.95211
113 2 0.110628 -1.45835 5.38447 3.98952
111 2 -0.00472518 2.27113 1.88708 4.0131
112 2 -0.0212 -0.962387 5.56263 0.529897
5 4 1.35853 0.371247 2.02738 0.227848
118 2 -0.0308404 4.53757 1.07611 4.32878
24 4 1.29593 4.95359 4.93586 0.439556
222 3 -0.787215 6.2497 1.35716 1.11943
223 2 -0.0992495 6.22703 0.867697 3.89463
141 2 0.194712 4.46764 2.69365 1.65969
142 2 0.190067 3.02201 3.93733 1.66115
143 2 0.189232 4.56617 4.30483 2.68781
220 4 1.01825 6.72519 0.241763 2.22281
135 2 0.244275 0.578529 0.594354 7.0986
82 3 -0.822993 1.51881 5.26651 7.92498
267 2 0.171267 -3.66096 6.26892 0.406547
244 2 0.12263 3.0248 0.174358 3.94263
138 2 0.172251 1.56067 0.744134 12.3912
8 4 1.2567 1.85377 2.68574 10.9737
13 4 1.23629 0.404794 4.95639 12.3105
229 2 -0.0378213 3.61064 6.37989 13.4966
20 4 1.29109 4.44144 2.89803 9.20296
23 4 1.2533 6.9386 2.93318 11.1909
99 3 -0.821677 7.9036 1.25761 8.40017
226 4 0.913724 3.52429 6.38263 15.1746
42 1 -0.658868 2.32239 1.5448 12.4098
57 3 -0.822094 0.43769 2.07572 10.382
63 3 -0.86395 -0.340257 3.91674 13.3556
64 3 -0.830473 1.83622 4.3766 11.9884
65 3 -0.827254 -2.38818 6.30293 9.54181
66 3 -0.878427 -0.515562 5.3899 11.0602
73 3 -0.829271 3.12022 2.56812 9.96057
75 3 -0.860841 5.69766 2.92454 10.2184
76 3 -0.841993 7.08537 1.60524 12.0438
80 3 -0.793973 4.48281 4.12681 8.18656
123 2 -0.0526674 5.1666 6.00262 10.8331
137 2 0.172914 3.33331 1.13195 12.0166
114 2 -0.0295307 0.789442 6.32667 13.2582
248 2 0.169683 3.52164 3.94964 15.8902
124 2 0.0582283 3.25893 5.21513 12.0746
136 2 0.177232 2.5007 2.16767 13.451
179 4 1.25595 7.24098 2.43971 15.6814
183 1 -0.669144 5.86945 1.49881 14.809
77 3 -0.747637 6.92659 4.16882 15.6921
60 3 -0.846417 -0.474363 3.49288 8.35773
196 2 0.181042 5.35728 2.21835 14.2122
117 2 0.110626 4.85345 1.45918 8.31862
227 3 -0.835922 4.90589 5.95077 15.7567
195 2 0.287801 6.39802 0.598733 14.2062
245 1 -0.679701 2.99421 3.21647 15.1884
246 2 0.158066 2.64565 3.7133 14.2363
247 2 0.171234 3.73742 2.39459 14.9381
262 3 -0.829843 0.332272 2.03789 15.369
228 2 -0.0227955 2.42613 5.11969 15.2886
14 4 1.56157 -0.990419 6.61829 10.2676
29 4 0.954947 3.65172 6.58993 11.1706
266 2 0.0937312 -1.59069 4.8253 15.8203
121 2 -0.0213482 6.74854 4.2489 12.2576
197 2 0.192265 5.29069 1.16496 15.7809
86 3 -0.829045 2.73407 6.60447 9.92363
27 4 1.36733 1.78263 6.64227 8.69417
15 4 1.03115 -5.17511 10.1581 0.0284757
3 3 -0.786448 -5.74092 11.5133 0.967686
268 2 0.23355 -4.38982 8.65074 1.56036
16 4 1.50821 -3.09373 7.97488 6.56486
17 4 1.24248 -4.49623 9.87467 4.72632
154 2 0.17109 1.07727 9.54171 7.27848
161 2 0.189033 -0.983851 10.0789 0.503756
31 4 1.21456 -2.0736 10.2075 2.97162
33 4 1.16018 -0.0589194 11.071 5.50767
48 1 -0.655185 -0.99241 8.88163 2.07454
49 1 -0.633345 0.1378 9.46859 6.57262
272 2 0.175223 0.800239 10.3225 0.346656
68 3 -0.863699 -1.87127 7.40807 5.65391
28 4 1.28497 4.21536 6.56153 4.91333
70 3 -0.825578 -4.22226 8.71352 5.73358
79 3 -0.847523 0.567658 7.09686 4.86674
87 3 -0.815838 1.97382 7.83524 2.62123
30 4 1.02412 2.31539 8.2206 1.10573
89 3 -0.763424 -2.06047 11.6222 1.88737
90 3 -0.812149 -3.55359 9.73837 3.3139
93 3 -0.81485 -1.01775 10.6692 4.29481
94 3 -0.808952 -0.539052 12.1423 6.54333
115 2 -0.0378913 -4.03097 11.2986 5.50983
147 2 0.185 2.05724 7.52188 6.52288
151 2 0.185696 0.00644404 9.38375 1.56015
152 2 0.161086 -1.62503 8.42768 1.25377
153 2 0.194907 -0.817708 8.20562 3.01825
251 1 -0.670879 -5.32591 8.5341 0.951386
155 2 0.280244 0.23433 8.54924 5.85781
156 2 0.29817 -0.926382 9.3979 7.12251
46 1 -0.671346 2.59995 7.95251 7.48116
148 2 0.167353 3.69692 7.67343 7.58859
265 2 0.193436 -4.25197 12.8225 2.43286
19 4 1.3601 -1.33312 12.8326 7.85669
1 4 1.29541 -6.53924 12.526 1.9059
69 3 -0.802784 -6.01343 9.93971 4.32228
91 3 -0.820738 -2.41525 9.32328 7.81287
271 2 0.17154 1.75564 10.434 1.98743
47 1 -0.667403 1.77714 10.0502 0.958638
25 4 1.42154 1.58706 6.55171 3.57003
122 2 0.0109183 3.57705 7.92472 5.791
149 2 0.144146 2.38553 9.10864 7.61191
133 2 0.140556 -6.54265 12.8413 5.82168
270 2 0.183806 0.588865 12.115 1.71841
159 2 0.193034 1.10828 9.70949 11.5158
18 4 1.22621 -1.93069 8.33392 12.8931
22 4 1.18641 -0.668922 12.9684 12.183
32 4 0.95538 -2.25361 10.2485 9.042
35 4 1.18736 -1.21026 10.6867 14.5043
50 1 -0.650687 2.00582 10.3963 11.7131
160 2 0.153101 1.09091 10.8936 14.7839
158 2 0.241033 1.60032 11.4479 12.0722
51 1 -0.633025 0.252588 11.2309 15.5242
162 2 0.227345 0.167233 12.3564 15.638
72 3 -0.828669 -1.46252 7.96864 11.3902
83 3 -0.783009 0.116057 7.14801 9.21939
88 3 -0.785431 2.93055 7.71824 15.8671
92 3 -0.802013 -1.20242 11.3939 8.96965
95 3 -0.797621 3.64879 7.95372 12.0081
96 3 -0.794265 -0.889657 9.08144 13.7778
97 3 -0.794685 -1.49396 12.0601 13.2221
98 3 -0.784038 -2.5003 10.7594 15.4083
116 2 -0.046248 -3.40839 9.14672 12.6924
120 2 0.0297379 -0.695721 12.1967 10.6843
126 2 0.0711295 -1.91684 9.20631 10.3753
127 2 -0.0468747 -3.81161 10.752 9.42328
128 2 0.0402822 2.14943 9.85413 13.5357
139 2 0.164998 -4.3952 10.995 13.6586
187 3 -0.79573 0.91779 12.955 12.651
43 1 -0.662525 -5.41795 10.9178 14.1418
71 3 -0.846104 -2.37068 7.02219 13.6579
140 2 0.180322 -5.63558 11.8355 14.7133
235 2 0.163432 11.5676 1.3061 2.88034
37 4 1.27457 12.9885 1.99468 5.6344
221 1 -0.651448 8.60957 0.273993 2.04274
39 4 1.26378 11.2397 3.94265 7.48412
45 1 -0.660942 7.13351 5.12681 7.57796
54 1 -0.662012 10.5205 5.38327 6.55
101 3 -0.815263 13.9003 2.96946 4.79713
102 3 -0.850864 13.8235 1.08148 6.59441
250 2 0.180121 11.9338 4.65367 0.458325
4 4 1.45879 14.996 2.72619 3.67788
106 3 -0.789745 11.8742 2.93601 6.37502
232 3 -0.802769 14.429 1.4913 2.72362
129 2 -0.00842532 11.9848 1.07481 4.53978
130 2 0.0746833 7.65181 5.85509 3.35369
169 2 0.249807 10.9994 6.37438 6.78828
207 4 1.24693 14.4695 0.326107 7.83836
146 2 0.193647 7.84856 4.44923 7.05703
103 3 -0.798855 5.89096 6.18144 1.21274
145 2 0.158414 7.36935 6.24593 7.38403
170 2 0.178357 9.4157 5.34081 6.81183
171 2 0.189239 10.7804 4.96578 5.45187
225 2 0.115101 8.80617 0.522978 3.21792
224 2 0.177192 9.0413 1.07162 1.38943
231 1 -0.648771 11.7726 0.229141 2.77737
273 2 0.180715 9.33075 0.202628 0.0969628
11 4 1.48473 13.059 6.02134 8.74315
36 4 1.24569 8.99666 2.25869 9.22474
52 1 -0.689425 10.2968 1.21043 10.0875
186 1 -0.665773 8.82034 6.15137 9.86454
100 3 -0.801482 8.30757 3.27637 10.3817
107 3 -0.789432 12.7101 4.40815 8.65194
110 2 0.0102344 14.7519 2.79914 10.4789
105 3 -0.795935 9.93635 3.29466 8.14665
202 2 0.172834 14.0062 3.7096 11.8234
163 2 0.176088 11.1359 2.00546 10.1445
144 2 0.194458 7.04349 4.89791 8.7352
165 2 0.231629 9.94449 0.805367 11.0756
172 4 0.999875 16.1065 2.61629 14.1679
173 1 -0.662027 14.3795 1.6926 13.6759
174 2 0.062673 14.4365 2.94138 14.9724
175 2 0.0592569 15.6567 1.20306 13.0235
176 2 0.167885 13.8598 2.23922 12.8778
184 1 -0.658062 10.9617 0.662469 15.0693
178 4 1.10899 13.9335 5.74588 14.3687
180 4 1.24546 9.88992 1.58895 13.881
181 4 1.30155 11.8601 3.98023 12.6702
205 2 0.203378 9.22065 5.15999 9.11705
185 1 -0.686971 13.0581 3.23796 11.3086
177 2 0.175278 13.7208 0.840721 14.0923
189 3 -0.777309 10.808 2.79762 13.2885
190 3 -0.802927 12.8158 4.73603 13.7555
192 3 -0.763518 11.1102 5.08758 11.7305
263 3 -0.845918 15.577 1.01732 8.69487
199 2 0.173557 11.9609 1.19628 14.9621
200 2 0.267531 12.8562 3.62254 10.2188
201 2 0.124221 12.8977 2.09896 11.5485
182 4 1.02492 10.5621 6.2237 10.6024
204 2 0.168597 8.23047 5.76705 10.7453
6 4 1.32517 16.0381 2.35191 9.3862
164 2 0.154056 10.3966 0.391481 9.23915
188 3 -0.75985 8.61372 2.09225 14.724
249 1 -0.645848 14.066 5.66186 16.0516
237 1 -0.668663 7.75062 10.6967 0.173139
257 2 0.158755 2.33971 10.9715 5.85662
167 2 0.172494 8.89989 7.07153 1.83891
53 1 -0.645377 8.23918 7.33349 2.67975
104 3 -0.789864 5.16134 7.1535 3.85553
134 2 0.247777 8.42772 12.6953 5.46272
125 2 -0.00944633 3.97307 8.37229 0.815038
2 3 -0.82117 9.32754 11.7866 3.13735
166 2 0.0314642 7.3248 8.53641 2.06848
168 2 0.169082 8.89749 7.70984 3.53288
206 4 1.22369 9.32321 10.3809 3.85789
215 2 0.162267 4.94886 9.60844 6.98421
208 4 1.02964 7.41474 10.3722 6.64907
209 1 -0.664496 5.85962 9.18903 6.47797
255 2 0.150005 1.61427 12.5205 4.98746
211 3 -0.767279 8.40852 10.3397 5.13367
212 3 -0.7672 6.68925 11.7902 7.29092
213 2 -0.0112923 8.97652 9.1741 2.7066
254 1 -0.678825 1.74339 11.3948 5.03264
216 2 0.160257 6.17969 8.25624 6.95547
217 2 0.180139 5.70786 9.03182 5.33656
230 4 1.09948 5.35446 12.8695 2.599
234 2 0.185519 3.16243 12.7158 1.67722
253 2 0.154247 11.5074 7.64138 0.230441
238 3 -0.792758 5.42968 12.0943 1.09009
240 2 0.168113 8.05037 10.9622 1.25345
38 4 0.966091 6.3458 6.95343 2.46496
233 2 0.155227 2.83369 12.4003 3.66321
258 1 -0.695958 5.78035 11.7157 4.08908
259 2 0.166554 6.58995 11.0245 3.64565
260 2 0.157904 4.81466 11.2182 4.30107
261 2 0.223189 6.21782 12.2654 4.93941
274 2 0.199575 9.50277 9.60744 7.70546
150 2 0.149656 2.75872 10.4087 0.388518
252 2 0.151726 10.4573 8.67628 1.51989
256 2 0.150156 2.02139 10.9326 3.97623
239 2 0.0984941 7.03245 9.52679 0.0611419
67 3 -0.836249 13.0757 6.7471 7.2725
198 2 0.173462 2.61682 12.4514 14.6111
40 4 0.92241 5.92209 11.4907 12.9209
108 3 -0.839401 4.69135 10.6065 12.8154
109 3 -0.780903 6.63939 11.6211 14.3111
214 2 -0.0505913 4.89377 12.6989 8.90337
132 2 -0.0445662 6.88582 11.0506 11.6505
236 4 0.992835 7.33205 11.941 15.8866
203 2 0.163274 8.34992 6.93033 9.24635
131 2 -0.0218271 5.60355 13.0574 12.4133
193 2 0.0581133 11.3192 9.66496 15.12
218 2 0.125598 7.77601 8.7584 8.23918
194 2 0.00281063 9.44303 7.32232 11.3151
241 2 0.1726 9.88346 10.9953 15.4963
269 2 0.161316 10.5837 10.7866 13.4498
264 2 0.116653 8.76239 12.9772 15.7122
219 2 0.182261 8.43222 10.5683 8.86539
34 4 1.00253 3.55508 9.62049 12.4888
191 3 -0.780697 11.6663 6.81354 9.6142
157 2 0.120326 2.70845 10.4495 10.5719
210 1 -0.644787 8.49221 9.75091 8.0876
ITEM: TIMESTEP
100
ITEM: NUMBER OF ATOMS
274
ITEM: BOX BOUNDS xy xz yz pp pp pp
-8.3797999999999995e+00 1.8270740000000000e+01 -8.3797999999999995e+00
0.0000000000000000e+00 1.3273200000000001e+01 1.4518400000000007e+00
0.0000000000000000e+00 1.6075500000000002e+01 4.3120000000000003e-01
ITEM: ATOMS id type q x y z
119 2 -0.00181113 7.42456 1.1015 5.22301
12 4 1.32066 -0.871023 6.39487 5.2581
7 4 1.13815 0.844807 2.12147 5.06202
9 4 1.25529 -0.461347 4.67764 1.79318
10 4 1.60112 0.426123 4.34033 7.17429
242 1 -0.693111 3.34955 0.521574 3.04907
21 4 0.835736 5.83965 1.36759 5.66522
26 4 1.19091 5.42782 4.38288 6.89951
41 1 -0.664131 0.751617 0.458151 5.99429
44 1 -0.683487 3.97477 4.03234 1.97749
55 3 -0.838227 1.10788 0.878364 1.2067
56 3 -0.85319 -0.509056 2.28526 4.32231
58 3 -0.804438 -1.71801 4.46572 2.74177
59 3 -0.862402 0.0974812 3.38687 1.06197
243 2 0.165078 3.57968 1.58164 3.01622
61 3 -0.808193 1.14626 3.27854 6.08923
62 3 -0.85985 -0.539353 5.37749 6.41712
74 3 -0.780314 5.60946 0.280817 7.30351
78 3 -0.878067 0.707094 5.35081 2.63922
81 3 -0.789427 5.60754 2.82301 5.95156
84 3 -0.81728 2.97476 5.93423 4.09147
85 3 -0.785934 4.80644 5.62734 5.78462
113 2 0.113671 -1.43236 5.40443 3.96881
111 2 0.00193658 2.24003 1.85936 4.04141
112 2 -0.0143831 -0.825975 5.96861 0.741819
5 4 1.39238 0.498826 2.04229 0.322888
118 2 -0.0174945 4.67788 0.938761 4.46244
24 4 1.25322 4.72562 4.87788 0.431975
222 3 -0.763911 6.26364 1.47376 1.06268
223 2 -0.0806155 6.32732 0.772806 3.82292
141 2 0.179716 4.28756 2.99861 1.96417
142 2 0.190414 2.79521 4.15442 1.86647
143 2 0.225493 4.44572 4.62959 2.77196
220 4 1.01535 6.81487 0.369598 2.11927
135 2 0.221714 0.813223 0.739707 7.0863
25 4 1.45783 1.58284 6.41917 3.4469
267 2 0.176351 -3.50672 6.25396 0.25388
248 2 0.161264 2.2248 3.54309 0.080789
138 2 0.15176 1.14697 0.87877 12.6991
8 4 1.18169 1.85397 2.65731 11.1799
13 4 1.27666 0.354847 4.93904 12.4195
229 2 -0.0347122 3.49182 6.4423 13.3331
20 4 1.31714 4.56683 2.77568 9.30842
23 4 1.28971 7.001 2.968 11.2072
99 3 -0.810638 7.86071 1.15482 8.55349
226 4 0.936383 3.41102 6.33967 15.1067
42 1 -0.662481 2.12066 1.52933 12.6019
57 3 -0.781556 0.291025 2.25974 10.5097
63 3 -0.851855 -0.36029 3.89319 13.397
64 3 -0.828474 1.7798 4.41838 11.9398
65 3 -0.863502 -2.28659 6.24113 9.57182
66 3 -0.849968 -0.683686 5.36745 11.3729
73 3 -0.769158 3.23377 2.39749 10.0115
75 3 -0.859295 5.67032 2.99356 10.3648
76 3 -0.843596 7.0041 1.57746 11.917
80 3 -0.759098 4.5525 4.04681 8.35314
86 3 -0.79581 2.81746 6.58479 9.99174
137 2 0.167422 3.03171 0.932971 12.1925
114 2 -0.0318675 0.746668 6.33412 13.3682
197 2 0.164452 5.26518 1.33127 15.4596
124 2 0.0648898 3.28213 5.18512 11.9934
136 2 0.186547 2.46893 2.13795 13.6512
179 4 1.27032 7.32416 2.55906 15.4712
183 1 -0.676446 5.9042 1.68598 14.5683
77 3 -0.742437 6.91369 4.10198 15.5657
60 3 -0.819273 -0.409987 3.52049 8.29468
196 2 0.174489 5.43191 2.4748 13.9318
117 2 0.10917 5.06409 1.37394 8.42269
227 3 -0.844426 4.76925 5.84957 15.5789
195 2 0.251746 6.17139 0.711372 13.992
245 1 -0.652085 3.09334 3.25693 15.2343
246 2 0.152157 2.66665 3.76902 14.3384
247 2 0.156777 4.10922 2.58392 14.9643
262 3 -0.799619 0.613091 2.09467 15.3334
228 2 -0.0206132 2.21504 5.12911 15.3162
14 4 1.46792 -0.94376 6.58978 10.2857
29 4 0.906659 3.79107 6.61726 11.2605
266 2 0.071807 -1.55287 4.6399 15.4993
27 4 1.4229 1.68318 6.53784 8.89036
121 2 -0.0132425 6.85399 4.10245 12.442
82 3 -0.784937 1.59263 5.15462 8.04677
270 2 0.170141 0.415057 12.1232 1.39302
3 3 -0.767854 -5.82262 11.255 1.05805
268 2 0.226386 -4.81355 8.63325 1.92225
16 4 1.46346 -3.18724 7.91845 6.52662
17 4 1.23905 -4.48556 9.83957 4.74471
154 2 0.165298 0.825269 9.32196 7.55041
161 2 0.186778 -1.03396 10.13 0.340269
31 4 1.2612 -1.98424 10.3304 3.00322
33 4 1.09664 0.115932 10.9842 5.56706
48 1 -0.649046 -1.09799 8.93841 1.98728
49 1 -0.66301 0.0437829 9.37307 6.65277
272 2 0.174601 0.809401 10.2793 0.271525
68 3 -0.852454 -1.90626 7.5132 5.5777
28 4 1.23056 4.18547 6.63711 4.84201
70 3 -0.815475 -4.39294 8.57053 5.66106
79 3 -0.826043 0.552562 7.06325 4.84108
87 3 -0.796723 1.93296 7.71838 2.51732
30 4 0.951642 2.5561 8.29468 1.14416
89 3 -0.785637 -2.13289 11.7467 2.00596
90 3 -0.827837 -3.3625 9.79644 3.55588
93 3 -0.781289 -0.852347 10.7064 4.22136
94 3 -0.818887 -0.384714 12.2087 6.50616
115 2 -0.0190756 -4.11969 11.1779 5.74024
147 2 0.224807 1.77948 7.5056 6.52137
151 2 0.197788 -0.09066 9.34558 1.55466
152 2 0.173232 -1.87775 8.71151 1.18358
153 2 0.189181 -1.0629 8.13848 2.87696
251 1 -0.655873 -5.40661 8.47132 0.99504
155 2 0.273113 0.214561 8.55718 5.87013
156 2 0.273856 -1.07728 9.29183 7.08865
46 1 -0.655983 2.36104 7.78197 7.45435
148 2 0.167753 3.45973 7.45596 7.53946
133 2 0.176321 -6.73142 12.7029 5.57775
19 4 1.36539 -1.30448 12.6425 7.85861
1 4 1.29465 -6.57635 12.5668 2.06803
69 3 -0.809614 -6.05037 10.1966 4.32883
91 3 -0.849162 -2.59216 9.28207 7.79916
122 2 0.00650452 3.55147 7.85192 5.85345
47 1 -0.650546 1.77463 9.97349 0.905443
149 2 0.146072 2.13617 8.85806 7.82047
244 2 0.141064 -5.32583 12.8362 4.05265
253 2 0.163563 -4.96702 7.68018 0.294078
265 2 0.204288 -4.2654 12.6924 2.50852
271 2 0.165172 1.59156 10.1654 2.03936
159 2 0.204414 1.00615 9.8292 12.0212
18 4 1.22296 -1.97396 8.3204 12.8798
22 4 1.21255 -0.594058 13.0371 12.0434
32 4 0.969712 -2.37991 10.1506 9.0237
35 4 1.22971 -1.25258 10.8006 14.3183
50 1 -0.663596 1.89424 10.5785 11.878
160 2 0.159566 1.09545 11.0269 14.754
158 2 0.237697 1.58441 11.7017 12.0964
51 1 -0.641994 0.218901 11.28 15.4581
162 2 0.203013 0.0998685 12.3758 15.7475
72 3 -0.800038 -1.32839 8.12503 11.4913
83 3 -0.860394 0.333001 7.14858 9.37896
88 3 -0.733322 2.94048 7.66556 15.8032
92 3 -0.846323 -1.54994 11.4834 9.15687
95 3 -0.786292 3.61642 8.09672 12.0078
96 3 -0.780697 -0.946942 9.24911 13.7206
97 3 -0.828098 -1.25672 12.0247 13.1208
98 3 -0.771284 -2.62754 10.6757 15.309
116 2 -0.0413295 -3.24352 9.34835 12.6139
120 2 0.078569 -0.832437 12.2664 10.5582
126 2 0.0893802 -1.73347 9.07621 10.2043
127 2 -0.0331625 -3.84602 10.5958 9.81198
128 2 0.037583 2.33348 10.031 13.6823
139 2 0.170077 -4.18576 11.0717 13.6631
140 2 0.169682 -5.51124 12.0478 14.5487
43 1 -0.647089 -5.2556 11.0867 14.0476
71 3 -0.823165 -2.47124 6.94478 13.6053
157 2 0.122136 2.36624 10.5758 10.6775
269 2 0.146009 -5.93016 11.0431 13.1016
15 4 1.04626 -4.11636 10.6104 16.073
235 2 0.167001 11.5158 1.39405 3.05601
37 4 1.29815 13.0179 2.06431 5.70662
221 1 -0.674492 8.69761 0.216252 2.11313
39 4 1.26578 11.2497 3.93999 7.39143
45 1 -0.666258 7.03841 4.96752 7.61079
54 1 -0.674047 10.4965 5.49243 6.5967
101 3 -0.813636 13.9596 3.05083 4.8457
102 3 -0.858335 13.7141 1.16836 6.79297
250 2 0.187089 12.0959 4.86763 0.527078
4 4 1.45613 14.9535 2.73443 3.64952
106 3 -0.809693 11.8472 2.90944 6.29488
232 3 -0.796748 14.2838 1.50251 2.74269
129 2 -0.00310595 12.0994 1.04757 4.56087
130 2 0.0282169 7.60756 5.7312 3.33302
169 2 0.197943 10.6635 6.27599 7.37669
207 4 1.22713 14.5665 0.310566 7.80576
146 2 0.158605 7.78182 4.34593 6.93174
103 3 -0.789878 5.66656 6.02407 1.28824
145 2 0.148114 7.15993 6.13891 7.52138
170 2 0.166027 9.41725 5.24161 6.44454
171 2 0.211957 11.0363 5.7142 5.65317
273 2 0.177318 9.44768 0.365423 0.138611
224 2 0.165564 9.10184 1.19758 1.76407
231 1 -0.673507 11.6704 0.307952 2.79908
11 4 1.50679 13.1149 6.0228 8.88309
36 4 1.27609 8.97764 2.2891 9.07876
52 1 -0.676774 10.2619 1.12339 9.71743
186 1 -0.665208 8.87939 6.1049 9.86202
100 3 -0.814574 8.27328 3.28937 10.3341
107 3 -0.791195 12.5241 4.42936 8.74088
110 2 0.016808 14.4737 2.94455 10.1149
105 3 -0.804051 9.95538 3.20378 8.11399
202 2 0.183163 13.8787 3.76152 11.9322
163 2 0.1834 11.2523 1.59479 9.63565
144 2 0.209395 7.00469 4.62085 8.72965
165 2 0.230239 9.97588 0.841127 10.7758
172 4 0.965826 16.1411 2.51742 14.149
173 1 -0.639762 14.3868 1.67772 13.7762
174 2 0.0773863 14.4543 2.58549 15.1315
175 2 0.0165291 15.908 1.09716 12.9527
176 2 0.170894 13.7446 2.24994 12.9126
184 1 -0.664988 11.0585 0.780629 15.113
178 4 1.07751 13.9181 5.57228 14.3459
180 4 1.29707 9.97915 1.69808 13.9042
181 4 1.35776 11.6874 3.99467 12.6657
205 2 0.201868 9.2281 5.17056 9.12646
185 1 -0.690858 12.9742 3.30071 11.3116
177 2 0.170462 13.7382 0.737344 14.1652
189 3 -0.818074 10.9113 2.76251 13.1624
190 3 -0.791763 12.7295 4.56042 13.8081
192 3 -0.781734 10.8476 5.22504 11.9266
263 3 -0.855104 15.6365 1.07784 8.72161
199 2 0.182423 12.0956 1.17653 15.0546
200 2 0.27148 12.7671 3.74481 10.2786
201 2 0.138956 12.8998 2.16288 11.3455
182 4 1.02823 10.6167 6.1672 10.6282
204 2 0.172091 8.06601 5.83711 10.6255
6 4 1.30697 15.969 2.42164 9.38196
249 1 -0.645022 14.1939 5.653 16.0605
188 3 -0.802897 8.77232 2.27018 14.6862
187 3 -0.791335 9.36742 0.460883 12.46
123 2 -0.0467143 5.40196 6.3139 10.8115
237 1 -0.65518 7.83094 10.3925 0.0159525
257 2 0.128663 2.21221 10.3946 5.95365
167 2 0.17521 8.96467 6.99947 2.06168
53 1 -0.648855 8.13547 7.39192 2.66939
104 3 -0.805001 5.26724 7.32764 3.68442
134 2 0.265589 8.24383 12.8468 5.71273
125 2 -0.00733924 4.25004 8.26111 1.27759
225 2 0.171795 0.701733 12.7792 3.15889
166 2 0.0729091 7.39068 8.5157 1.98132
168 2 0.148893 8.39395 7.65551 3.74449
206 4 1.27214 9.26809 10.5218 3.98702
215 2 0.155927 5.09868 9.25771 7.02277
208 4 1.04795 7.37755 10.31 6.67721
209 1 -0.684389 5.86047 9.16875 6.25986
255 2 0.148621 2.36537 12.2336 5.29646
211 3 -0.778202 8.36819 10.5629 5.26407
212 3 -0.782369 6.72286 11.7808 7.09219
213 2 -0.00534922 8.67416 9.20424 3.06241
254 1 -0.66735 1.94365 11.1678 5.02587
216 2 0.155677 6.31254 8.14846 6.23417
217 2 0.182451 5.46836 9.45223 5.25789
230 4 1.08202 5.238 12.8658 2.50858
234 2 0.173817 3.0236 12.8354 1.74872
67 3 -0.822711 13.122 6.646 7.3056
238 3 -0.775087 5.68818 12.1056 1.02387
240 2 0.165343 8.07452 10.4079 1.08632
38 4 1.00798 6.27854 6.75693 2.57379
233 2 0.158532 2.81764 12.4871 3.63191
258 1 -0.645848 6.00065 11.8318 3.90732
259 2 0.166322 6.59997 10.9345 3.4857
260 2 0.116977 4.85551 11.4766 4.24517
261 2 0.231324 6.49741 12.3994 4.70601
274 2 0.176972 9.31437 9.0508 7.62884
150 2 0.144389 2.74629 10.5355 0.545456
252 2 0.160153 10.3076 8.45705 1.1351
256 2 0.165896 2.18072 10.7611 4.05206
2 3 -0.824045 9.36184 11.8611 3.21556
198 2 0.1541 2.58388 12.5454 14.6065
40 4 0.916908 6.0191 11.5389 12.98
108 3 -0.800626 4.78582 10.6618 12.6584
109 3 -0.795182 6.50045 11.5596 14.4408
214 2 -0.0388423 4.94971 12.6576 8.8821
132 2 -0.0485322 7.29726 11.1595 12.0869
236 4 0.994564 7.4756 11.8823 15.7965
203 2 0.142496 8.56727 7.02636 9.24262
131 2 -0.0182277 5.75359 13.1498 12.4035
193 2 0.0518317 11.4117 9.68202 14.9754
218 2 0.135343 7.78327 9.12171 8.77736
194 2 0.0081785 9.72486 7.57833 10.9435
241 2 0.170769 9.99919 11.0135 15.3615
239 2 0.112644 8.1749 9.80234 15.8472
264 2 0.0542916 9.00713 12.559 15.239
219 2 0.176322 8.81105 10.7297 8.60499
34 4 0.996045 3.48918 9.6774 12.395
191 3 -0.817707 11.9806 6.73966 9.8027
210 1 -0.657264 8.51484 9.68838 8.14704
164 2 0.160396 1.84821 12.9994 9.0835
ITEM: TIMESTEP
200
ITEM: NUMBER OF ATOMS
274
ITEM: BOX BOUNDS xy xz yz pp pp pp
-8.3797999999999995e+00 1.8527580000000000e+01 -8.3797999999999995e+00
0.0000000000000000e+00 1.3273200000000001e+01 1.7086800000000011e+00
0.0000000000000000e+00 1.6075500000000002e+01 4.3120000000000003e-01
ITEM: ATOMS id type q x y z
119 2 -0.0156191 7.51393 1.18318 5.27665
12 4 1.31173 -0.843089 6.34586 5.30728
7 4 1.08837 0.919299 2.14606 5.0094
9 4 1.26871 -0.414883 4.58546 1.87219
10 4 1.58947 0.38061 4.33731 7.24557
242 1 -0.679418 3.31907 0.274509 3.21653
21 4 0.820529 5.83917 1.41461 5.66151
26 4 1.28576 5.29205 4.25147 6.85008
41 1 -0.668393 0.675887 0.668712 6.13348
44 1 -0.674557 3.73847 3.7814 1.87776
55 3 -0.814177 1.30462 0.964409 1.1316
56 3 -0.803255 -0.425491 2.29917 4.00036
58 3 -0.790428 -1.79402 4.56485 2.71202
59 3 -0.852057 -0.134255 3.21223 1.02993
243 2 0.14889 3.77285 1.29112 3.07039
61 3 -0.791007 1.13257 3.33138 5.98244
62 3 -0.877926 -0.470931 5.42501 6.51678
74 3 -0.79062 5.65636 0.340821 7.30852
78 3 -0.895155 0.757171 5.26311 2.60799
81 3 -0.821931 5.64914 2.91076 5.99043
84 3 -0.818546 2.93172 5.85187 3.97716
85 3 -0.785407 4.66199 5.51171 5.97651
113 2 0.111068 -1.46525 5.34502 4.02612
111 2 0.000704576 2.42365 1.82267 4.13658
112 2 -0.014599 -0.851434 5.52939 0.554246
5 4 1.37554 0.438591 2.00573 0.253157
118 2 -0.0254467 4.49503 0.915179 4.68733
24 4 1.28712 4.61 4.9145 0.568592
222 3 -0.78598 6.21346 1.40672 0.988319
223 2 -0.0958167 6.25221 0.934451 3.8482
141 2 0.18566 3.65052 2.70069 1.58013
142 2 0.235935 2.76367 4.32285 2.08891
143 2 0.178552 4.47995 3.96842 2.69525
220 4 1.02472 6.77001 0.421529 2.1686
135 2 0.235275 0.611561 0.948086 7.2213
25 4 1.42671 1.52592 6.45551 3.38018
28 4 1.2015 4.08317 6.54387 4.869
138 2 0.151871 1.34825 0.7696 12.4557
8 4 1.28102 1.84074 2.60937 11.1482
13 4 1.25409 0.387087 4.94501 12.6197
229 2 -0.0568586 3.66387 6.56592 13.3197
20 4 1.27293 4.50473 2.72175 9.36731
23 4 1.26252 6.95151 2.90636 11.2047
99 3 -0.813287 7.99708 1.15701 8.32357
226 4 0.910999 3.57864 6.39607 15.1291
42 1 -0.681016 2.24372 1.48077 12.5674
57 3 -0.8314 0.405095 2.29406 10.4797
63 3 -0.888499 -0.280956 3.89546 13.5818
64 3 -0.79661 1.84075 4.34751 12.1823
65 3 -0.850173 -2.3275 6.15897 9.53923
66 3 -0.831134 -0.416475 5.3577 11.3713
73 3 -0.794472 3.08009 2.49167 10.1615
75 3 -0.853378 5.57723 3.18438 10.438
76 3 -0.851063 6.99639 1.50891 12.0025
80 3 -0.756461 4.37882 3.82633 8.27938
248 2 0.187497 3.72643 4.17687 15.7658
137 2 0.166335 3.19857 0.943973 12.302
114 2 -0.042525 0.689192 6.34603 13.4775
197 2 0.181546 5.63754 1.11793 15.8654
124 2 0.110589 2.9135 5.43118 11.7632
136 2 0.204186 2.33763 2.0374 13.5548
179 4 1.30472 7.46894 2.57712 15.5779
183 1 -0.638989 6.08957 1.59147 14.8112
77 3 -0.774373 6.95829 4.11589 15.7803
60 3 -0.832979 -0.512938 3.45963 8.26512
196 2 0.159045 5.39545 2.44461 14.3215
117 2 0.0745043 5.05669 1.33367 8.54481
227 3 -0.856802 4.89526 5.9536 15.7766
195 2 0.260348 6.57129 0.808294 14.1284
245 1 -0.685599 3.18568 3.34561 15.2559
246 2 0.166653 2.81151 3.62588 14.2366
247 2 0.165093 3.91146 2.47278 15.0203
262 3 -0.803753 0.785248 1.79787 15.237
228 2 -0.027244 2.37922 5.18341 15.1093
14 4 1.51663 -1.0425 6.64169 10.3871
123 2 -0.0386986 5.37367 6.19216 10.839
82 3 -0.779206 1.55949 5.09363 8.14106
27 4 1.37919 1.70612 6.55876 8.79908
187 3 -0.800818 9.39553 0.33268 12.3787
266 2 0.0883601 -1.42823 4.86315 15.658
244 2 0.146562 -5.1049 12.8682 4.30999
3 3 -0.787787 -6.15488 11.3732 1.00371
268 2 0.17987 -5.1256 8.77793 1.63377
16 4 1.47194 -3.22683 7.91575 6.57016
17 4 1.2568 -4.53329 9.90354 4.89266
154 2 0.176972 0.893304 9.3246 7.61027
161 2 0.207998 -1.14218 10.0969 0.256729
31 4 1.29447 -1.9215 10.3729 3.1588
33 4 1.11672 0.253749 10.8803 5.6126
48 1 -0.643308 -1.26294 8.99221 2.00415
49 1 -0.646332 0.102613 9.28199 6.75355
265 2 0.197039 -4.41888 12.2689 2.56223
68 3 -0.838463 -1.94418 7.44873 5.65435
149 2 0.154171 2.19085 8.83998 7.66067
70 3 -0.813202 -4.42407 8.45837 5.61992
79 3 -0.843741 0.46015 7.08788 4.67181
87 3 -0.804194 1.80333 7.72371 2.27889
30 4 1.01157 2.26165 8.2129 0.899765
89 3 -0.774629 -1.97959 11.7637 2.09336
90 3 -0.821599 -3.3938 10.1395 3.75332
93 3 -0.794354 -0.841704 10.6396 4.29122
94 3 -0.81205 -0.249187 11.9476 6.60981
115 2 -0.0127143 -4.1324 11.0431 6.0969
147 2 0.19045 1.85354 7.4035 6.44805
151 2 0.196472 -0.178417 9.46148 1.54226
152 2 0.182673 -2.02673 8.80138 1.21409
153 2 0.19248 -1.22097 8.18393 2.8694
271 2 0.165925 1.11855 10.8559 1.48867
155 2 0.261958 0.196833 8.43237 5.99124
156 2 0.272701 -0.969774 9.32852 7.12248
46 1 -0.671922 2.3884 7.72973 7.41506
148 2 0.174716 3.48224 7.45827 7.38306
133 2 0.155575 -6.78017 12.926 5.88026
19 4 1.34669 -1.24612 12.5999 7.83538
1 4 1.28398 -6.62354 12.5858 2.08233
69 3 -0.854181 -5.92421 10.3324 4.35128
91 3 -0.823061 -2.74879 9.38318 7.71129
122 2 -0.00624478 3.33983 7.88372 5.69808
47 1 -0.632199 1.66834 10.0711 0.859597
159 2 0.2079 1.05663 9.66771 12.0848
18 4 1.26898 -1.94637 8.28713 12.8489
22 4 1.26084 -0.611165 12.9811 12.047
32 4 0.932869 -2.587 10.3202 8.96648
35 4 1.29416 -1.1868 10.879 14.1958
50 1 -0.681923 1.87368 10.3964 11.9346
160 2 0.152984 1.20154 10.954 14.6636
158 2 0.237864 1.62641 11.4865 12.2908
51 1 -0.627127 0.345457 11.2088 15.363
162 2 0.210985 0.381703 12.3059 15.4621
72 3 -0.85074 -1.45117 7.93414 11.4067
83 3 -0.792048 0.245269 7.08255 9.43143
88 3 -0.786059 2.93659 7.79967 15.6093
92 3 -0.829963 -1.42708 11.4167 9.12617
95 3 -0.810993 3.87507 8.23482 11.7711
96 3 -0.8081 -1.00062 9.27573 13.6561
97 3 -0.887878 -1.17883 11.9593 13.0408
98 3 -0.766158 -2.40835 10.8579 15.3097
116 2 -0.0316823 -3.45748 8.96945 12.596
120 2 0.0714382 -0.710317 12.2868 10.5007
126 2 0.0370185 -2.35483 9.27795 10.2489
127 2 -0.0563252 -4.05964 11.0449 9.40333
128 2 0.0261667 2.30599 9.47701 13.6353
139 2 0.158904 -4.46729 11.4207 13.4183
140 2 0.173854 -5.52666 11.9302 14.8297
43 1 -0.660179 -5.29192 11.0567 14.0631
71 3 -0.866306 -2.4063 6.99246 13.5819
157 2 0.14873 2.21744 10.4143 10.7367
15 4 1.0278 -3.94967 10.7315 16.0681
29 4 0.948637 3.84911 6.7983 11.1608
272 2 0.154509 2.64117 10.3084 15.823
86 3 -0.790814 2.88718 6.74031 9.95791
235 2 0.169672 11.5059 1.40027 3.0909
37 4 1.28724 12.9922 2.14603 5.75378
221 1 -0.654944 8.65082 0.483734 1.99301
39 4 1.2579 11.1401 3.91563 7.39284
45 1 -0.652947 7.10518 4.74697 7.26544
54 1 -0.670931 10.6769 5.52333 6.54306
101 3 -0.839364 13.9398 3.06877 4.8378
102 3 -0.857194 13.7839 1.23793 6.83041
250 2 0.211224 11.9753 4.5806 0.363675
4 4 1.43576 14.8637 2.79178 3.58968
106 3 -0.831016 11.7808 2.89494 6.37241
232 3 -0.80601 14.1694 1.6697 2.65764
129 2 -0.00282283 12.2568 1.03888 4.58373
130 2 0.0406718 7.57058 5.67655 3.00131
169 2 0.204272 10.7079 6.31715 7.3265
207 4 1.28439 14.5126 0.340139 7.85669
146 2 0.219629 7.69782 3.76749 7.09116
103 3 -0.793016 5.47528 6.10225 1.3187
145 2 0.158334 7.47208 5.62821 6.61445
170 2 0.164817 9.63565 5.35641 6.15442
171 2 0.226573 11.3527 5.81416 5.71809
134 2 0.225796 16.5051 0.24381 5.74161
224 2 0.173208 8.78104 1.30532 1.21008
231 1 -0.66289 11.7319 0.34982 2.81316
225 2 0.119535 8.81158 0.845381 3.11184
230 4 1.12503 13.6623 0.106756 2.40956
105 3 -0.816311 9.71922 3.25738 8.02926
234 2 0.176827 11.1805 0.254364 1.83397
267 2 0.172728 12.7494 6.16913 0.425901
249 1 -0.66918 12.7002 5.1066 0.0059568
11 4 1.48761 13.0747 5.98755 8.87158
36 4 1.34563 9.00337 2.20049 9.00729
52 1 -0.670694 10.3797 1.05116 9.67087
186 1 -0.676768 9.06459 6.26831 9.84763
100 3 -0.837027 8.2102 2.86542 10.2809
107 3 -0.77844 12.518 4.33663 8.71449
110 2 0.0192888 14.5974 2.90275 10.226
188 3 -0.815818 8.70217 2.11746 14.58
202 2 0.163096 14.0712 3.70572 11.931
163 2 0.170934 11.3717 1.55037 9.61525
144 2 0.177689 7.05983 4.98049 8.38502
165 2 0.236888 9.97823 0.749947 10.7806
172 4 0.985401 16.2667 2.51844 14.2832
173 1 -0.664257 14.6686 1.57689 13.7387