ITEM: TIMESTEP
0
ITEM: NUMBER OF ATOMS
331
ITEM: BOX BOUNDS xy xz yz pp pp pp
-8.3499999999999996e+00 1.5708700000000000e+01 -8.2042000000000002e+00
-2.0055999999999998e+00 1.3086800000000000e+01 -1.4580000000000001e-01
0.0000000000000000e+00 1.7524799999999999e+01 -2.0055999999999998e+00
ITEM: ATOMS id type x y z q
1 4 -0.845702 2.29503 5.22978 1.12376
4 1 -0.873724 0.983715 3.7715 -0.660781
6 1 -1.05237 4.67789 1.87639 -0.662291
15 2 -2.02249 5.12878 2.24342 0.137266
16 2 -1.15361 3.58958 1.58828 0.155489
17 2 -0.541657 5.30453 1.08732 0.119037
18 3 -0.35873 3.69027 4.49825 -0.749437
154 1 -2.22054 5.82845 6.31722 -0.67634
174 2 -1.08416 5.95611 6.27233 0.170789
175 2 -2.58352 4.85031 5.88026 0.193523
2 4 0.135554 4.75922 3.41451 0.802644
3 1 0.450921 1.75704 6.57182 -0.663765
5 1 1.93629 4.21938 2.96112 -0.657916
8 2 1.46616 1.79974 6.07084 0.151823
9 2 0.155589 0.709272 6.88919 0.201945
10 2 0.346212 2.50843 7.41176 0.199324
11 2 0.16913 0.966861 3.33457 0.145163
12 2 1.8822 3.10741 2.74986 0.163813
13 2 2.52782 4.46376 3.89713 0.160275
14 2 2.23731 4.83714 2.06415 0.166065
24 4 5.27933 0.668712 4.19564 0.813044
28 4 7.16435 1.54901 6.52728 1.5416
31 4 5.65278 3.75569 8.1029 1.29412
32 4 3.91213 5.86926 6.59799 0.842096
45 1 3.6944 1.72221 4.5736 -0.665717
47 1 3.73361 0.200754 8.10455 -0.692023
49 1 6.33987 1.45797 2.78155 -0.677828
51 1 2.34625 4.70633 6.67094 -0.659922
78 2 2.95161 1.48373 3.75458 0.134076
79 2 4.03181 2.80263 4.56579 0.165029
80 2 3.35863 1.37508 5.59717 0.154315
81 2 3.66254 -0.799857 8.62474 0.199976
82 2 4.66119 0.306242 7.46581 0.203657
83 2 2.78077 0.476689 7.55835 0.15758
87 2 5.6194 1.55566 1.91586 0.170897
88 2 7.17284 0.723215 2.57174 0.145431
89 2 6.71707 2.45636 3.16073 0.16463
93 2 2.63614 3.75399 6.13989 0.186639
94 2 1.50112 5.24757 6.15862 0.145817
95 2 2.15935 4.54142 7.7738 0.196992
96 2 4.74126 5.10979 4.35085 0.148921
110 2 7.29161 5.94601 6.79826 0.203643
117 3 6.15122 0.574604 5.48702 -0.780435
118 3 7.53823 0.628401 7.7777 -0.837826
123 3 6.31812 2.8461 6.97033 -0.815007
124 3 5.08145 5.20534 7.47566 -0.77657
263 4 5.07195 4.25422 0.733066 0.984387
264 2 6.4442 5.20431 0.794203 -0.0582365
265 2 4.83703 4.00539 2.36881 -0.0418691
266 3 5.41192 2.88485 0.0688804 -0.820622
267 3 3.87639 5.09739 0.250257 -0.816948
283 1 2.42159 1.41041 0.858703 -0.680362
284 2 2.75493 0.485294 0.282082 0.158376
285 2 1.54495 1.23405 1.571 0.122315
286 2 3.26943 2.03399 1.28792 0.16843
311 2 1.01304 3.91096 0.177211 -0.0282489
35 4 9.43448 2.0707 4.47806 1.25649
37 4 11.9488 1.63432 6.15997 1.48415
40 4 9.97713 4.44747 2.64613 0.683395
41 4 10.7934 3.09965 8.67824 1.24996
42 4 9.72032 5.34927 6.94171 0.817524
55 1 11.4016 3.66774 1.68438 -0.673066
56 1 8.02959 5.55288 6.03668 -0.657774
65 2 9.12719 0.784628 3.4326 -0.0169984
69 2 10.5433 5.81944 3.49323 -0.0771112
70 2 8.83442 5.14737 1.58552 -0.0853048
72 2 10.893 5.00045 5.73791 -0.0314433
105 2 11.7877 4.45005 0.958656 0.119694
106 2 10.9264 2.76014 1.1914 0.145071
107 2 12.1294 3.41022 2.52931 0.177221
108 2 7.75631 4.52382 5.65147 0.23651
128 3 8.44565 1.96804 5.68501 -0.834338
129 3 13.8213 -0.160285 8.38639 -0.855606
131 3 13.4216 2.44092 5.91253 -0.793048
132 3 10.9551 1.93076 4.90255 -0.822197
133 3 12.293 -0.0388537 6.1981 -0.826983
137 3 9.26926 3.42403 3.59567 -0.79987
139 3 11.3292 2.10007 7.58539 -0.852567
140 3 9.6895 4.16214 8.05314 -0.762028
304 1 13.2384 0.297864 0.769487 -0.640689
305 2 14.3643 0.366945 0.828625 0.141473
306 2 12.7314 1.30679 0.696668 0.168139
313 2 8.93464 2.55391 0.78053 -0.0429328
315 2 14.5468 0.00183549 4.24713 0.193749
316 2 14.0642 1.35527 3.0317 0.177629
323 2 9.34114 0.425496 0.981521 0.157421
324 2 10.0768 -0.755215 7.59531 0.187999
143 4 -5.86181 11.1657 5.60307 0.642081
144 4 -2.73072 7.2189 5.17819 0.69611
146 4 -2.57785 9.67574 6.86679 0.903439
147 4 -6.75836 10.5384 8.46984 1.26404
161 2 -6.87006 12.2168 4.79097 -0.0160026
162 2 -4.45181 12.0085 5.87394 -0.0558069
163 2 -4.43647 7.2569 5.03502 -0.0722827
164 2 -2.28778 6.97691 3.54996 -0.0436533
166 2 -4.2295 9.68659 7.11177 -0.0064786
167 2 -2.22743 11.257 6.39496 -0.0120527
169 2 -5.42244 9.96863 4.52488 -0.058821
176 2 -2.67525 6.09359 7.32005 0.133761
182 2 -0.825397 7.20157 8.51465 0.205026
192 3 -2.25946 8.65019 5.7098 -0.778105
193 3 -6.39313 10.6234 6.93682 -0.813927
199 3 -1.89634 9.28809 8.21257 -0.807298
206 4 -1.1373 8.97492 1.91219 0.682468
213 1 -2.5887 10.0987 2.32088 -0.661493
221 2 -1.5906 7.46828 1.27446 -0.0664619
227 2 -3.2657 9.40494 2.92423 0.139048
228 2 -3.00156 10.4081 1.30612 0.14948
229 2 -2.10484 10.9397 2.92131 0.1538
235 2 -0.591798 11.2261 5.20685 0.168389
312 2 -3.43328 12.194 3.71929 -0.0495266
317 2 -6.18937 10.2396 2.38071 0.139947
321 2 -3.51345 13.026 0.400233 0.154734
322 2 -1.64745 12.8302 0.479172 0.156122
325 2 -4.54826 9.30184 0.251007 0.133255
329 2 -4.46165 6.80305 8.31335 0.136884
220 2 -0.25488 9.66573 0.625527 -0.0561051
7 2 0.140101 6.35765 4.01796 -0.00666277
52 1 4.54025 6.13172 4.79112 -0.651886
61 2 3.51573 7.3728 7.30019 -0.0156069
97 2 5.48022 6.75084 4.93753 0.190602
98 2 3.71403 6.69969 4.26364 0.166735
183 2 0.841092 6.51733 7.95136 0.148065
207 4 0.918092 9.45193 4.25709 1.07783
208 4 4.9979 12.136 7.15675 1.25112
209 4 3.89277 10.1703 3.65349 1.00709
210 4 6.61335 8.56878 8.4815 1.04278
211 4 6.12207 9.81179 5.68235 1.39783
214 1 1.12206 8.38519 5.83912 -0.659275
215 1 0.364209 11.2893 4.61377 -0.6615
216 1 4.8884 9.7378 2.02676 -0.658985
219 2 6.97083 7.439 3.01866 -0.0517011
222 2 3.91732 11.0006 7.80481 -0.0288506
223 2 3.79354 11.8752 3.745 -0.0087277
230 2 1.99476 8.82857 6.41546 0.15869
231 2 1.34093 7.34071 5.45426 0.147912
232 2 0.143471 8.44672 6.40787 0.207092
233 2 0.207035 11.7816 3.60712 0.153826
234 2 1.2008 11.7726 5.19878 0.164524
236 2 5.16169 8.64437 2.13143 0.170587
237 2 5.78014 10.4372 2.06381 0.152529
238 2 4.18138 9.94807 1.16911 0.162376
242 3 -0.19747 8.81564 3.1891 -0.737696
243 3 2.40294 9.56531 3.51853 -0.76291
245 3 7.30913 9.67518 4.44619 -0.774858
246 3 4.66045 9.55532 4.91025 -0.792364
247 3 6.22778 8.71239 6.93175 -0.80389
248 3 6.14729 11.3732 6.31789 -0.810437
291 1 2.33799 7.35062 1.12954 -0.668882
292 2 2.11697 8.39963 0.793483 0.161545
293 2 3.04532 7.33137 2.00407 0.184127
294 2 1.40148 6.75729 1.32189 0.132576
295 1 1.30374 12.4208 1.22542 -0.660479
296 2 2.19375 12.2496 1.89885 0.150468
297 2 0.366659 11.8933 1.57993 0.130992
298 1 1.18332 11.5908 8.09858 -0.690895
299 2 0.681711 10.8922 7.36862 0.162534
330 2 4.58707 12.7246 1.56563 0.154632
328 2 10.2045 7.80416 7.10948 0.158482
57 1 10.2191 6.97386 7.87511 -0.670443
109 2 8.24121 6.29574 5.20532 0.119818
111 2 9.42546 7.11002 8.67094 0.184198
205 4 8.03293 8.70088 3.47707 0.703571
212 1 8.69454 9.57782 1.95029 -0.665128
218 2 9.27535 7.83751 4.26696 -0.0658715
225 2 7.80785 10.1438 1.51855 0.158545
226 2 9.06949 8.71102 1.30444 0.102585
23 4 -0.406154 2.81314 13.1974 1.09017
44 1 -0.93995 1.3175 14.3143 -0.68029
60 2 -1.80325 3.28799 12.3381 0.000520062
62 2 -0.485467 3.67187 16.6695 -0.0647212
76 2 -1.44698 0.582882 13.6214 0.178535
77 2 -1.62665 1.71633 15.1206 0.135367
170 2 -0.654932 4.00574 8.83667 -0.0274751
19 4 1.52881 0.477675 17.0456 0.778774
21 4 2.21448 -0.915364 12.6067 1.50278
22 4 1.07598 1.3057 10.9196 1.51004
25 4 5.68595 -0.356038 16.5522 1.26788
27 4 3.87244 1.56466 9.51193 1.17922
29 4 3.63844 0.802843 14.656 1.53236
30 4 3.11925 4.45729 17.1515 1.25866
33 4 5.7059 3.08132 14.1395 1.02264
34 4 0.498427 4.44938 15.5681 0.953894
48 1 5.16664 1.13463 10.9045 -0.668835
50 1 6.88342 4.06628 9.55851 -0.662494
53 1 7.1701 2.00402 13.528 -0.678898
58 2 0.138445 -0.339121 16.4896 -0.0303092
63 2 5.34747 4.21581 12.9049 -0.0597815
75 2 0.0437464 0.923777 14.718 0.194299
84 2 4.92341 0.0930422 11.2668 0.223464
85 2 4.97268 1.92243 11.6975 0.177809
86 2 6.2016 1.20939 10.4529 0.194795
90 2 7.62029 4.81682 9.14663 0.19741
91 2 7.36708 3.06456 9.77857 0.196612
92 2 6.28372 4.46416 10.4342 0.14022
99 2 7.12766 2.05399 12.3982 0.151909
100 2 6.97691 0.966234 13.9388 0.225975
112 3 -0.130082 1.29116 9.7622 -0.830734
113 3 1.18655 -0.309952 11.5321 -0.798843
114 3 0.670976 2.2852 12.1873 -0.808487
116 3 2.48444 1.67402 10.2139 -0.819031
119 3 3.11737 0.243573 13.2498 -0.830771
120 3 4.82278 -0.356237 15.2205 -0.761765
121 3 2.48857 0.782861 15.8564 -0.78249
122 3 4.38518 2.9225 8.83302 -0.796432
125 3 4.41789 2.20535 14.352 -0.795997
126 3 0.0167813 3.97732 14.1673 -0.797852
127 3 1.96131 4.27624 16.007 -0.78882
134 3 7.42708 -0.123829 16.1202 -0.746897
141 3 6.22885 3.93715 15.4769 -0.807355
171 2 3.27854 3.68139 12.0297 0.0247891
198 3 1.43123 4.86368 10.3652 -0.76384
20 4 14.0991 0.692577 9.68491 1.24924
26 4 7.96085 -0.413578 8.88689 1.3583
36 4 9.88234 1.04731 10.7741 1.21412
38 4 8.57856 0.778011 16.6323 0.715236
39 4 12.2642 -0.538209 11.6789 0.906849
54 1 10.1862 0.383207 15.6799 -0.663393
59 2 13.1473 2.08449 9.61082 -0.0270471
66 2 9.52157 1.53684 12.3558 -0.0344711
67 2 8.21561 2.43986 16.5762 -0.0352005
68 2 12.1435 0.128279 13.2186 -0.0457364
71 2 12.1315 4.02213 9.1262 -0.0320061
101 2 8.0917 2.4943 13.9666 0.143486
102 2 10.9549 1.09825 16.1062 0.134905
103 2 9.84929 0.617533 14.6119 0.151292
104 2 10.3701 -0.720166 15.8996 0.215435
130 3 8.53746 0.368773 10.2169 -0.819096
135 3 13.6448 -0.130819 11.0491 -0.816067
136 3 11.0321 -0.101197 10.8341 -0.842497
138 3 10.3245 2.36295 10.0019 -0.851338
249 4 10.8821 4.84353 12.9078 1.03753
250 1 11.3656 3.18332 13.7501 -0.667794
251 1 9.15435 4.88175 12.0769 -0.672902
252 2 12.2497 3.41549 14.4253 0.143533
253 2 11.6418 2.46875 12.9193 0.134703
254 2 10.466 2.83066 14.3402 0.133715
255 2 8.38574 4.63752 12.8756 0.132302
256 2 9.17888 4.10364 11.2538 0.190976
281 2 10.3541 4.59656 16.4764 -0.0664776
307 1 13.4004 -1.45735 15.0902 -0.649078
309 2 14.5085 -1.33641 15.2835 0.175827
310 2 12.8091 -0.492521 15.1995 0.165022
326 2 7.74144 -1.04467 12.156 0.195159
46 1 -2.69054 11.0236 17.3414 -0.667602
115 3 -6.92358 11.2772 13.9137 -0.752133
145 4 -2.36888 6.29315 11.6235 1.04082
148 4 -4.69368 10.0236 10.7155 1.35653
151 4 -1.7544 10.0837 9.69801 1.44435
155 1 -1.97569 7.1846 13.2963 -0.655771
156 1 -5.34713 8.23259 11.2366 -0.667348
165 2 -2.79898 7.46704 10.4733 0.0118189
168 2 -7.48685 11.9899 8.9146 0.0380051
177 2 -1.09488 7.8616 13.0746 0.211534
178 2 -1.72533 6.33786 14.0076 0.17557
179 2 -2.91791 7.74542 13.5836 0.179777
180 2 -4.94791 7.52013 10.4555 0.168422
181 2 -4.9422 8.02943 12.2701 0.17406
188 2 -1.10153 10.684 13.3036 0.197739
194 3 -3.63659 5.31148 11.8771 -0.777788
195 3 -5.40082 10.3926 9.29834 -0.844619
196 3 -5.09311 11.0307 11.8918 -0.83917
197 3 -1.08553 5.54859 11.0377 -0.779323
200 3 -1.46583 11.6918 9.31764 -0.826769
201 3 -3.09896 9.89493 10.5997 -0.825746
203 3 -0.470141 9.48228 10.5772 -0.796573
258 4 -6.92581 9.78906 14.3467 0.846384
259 1 -7.11182 9.7164 16.2736 -0.65757
260 2 -5.43696 9.00003 14.027 -0.0119658
262 2 -6.09848 10.0511 16.658 0.153973
275 2 -0.73431 8.92847 16.3874 0.138947
301 1 -4.20518 7.26593 16.7541 -0.661955
302 2 -3.19345 6.7585 16.699 0.135728
303 2 -4.3102 8.22251 16.1357 0.153878
320 2 -2.72605 10.3178 16.4508 0.175151
331 3 -4.87876 5.97412 14.2474 -0.733869
43 4 5.79871 5.33815 16.0935 0.895631
64 2 0.0206426 6.03264 15.8013 -0.0594402
73 2 6.06443 6.53012 14.9292 -0.0478207
74 2 6.89966 5.73679 17.2982 -0.0590146
142 3 4.34507 5.51542 16.6289 -0.79742
149 4 -0.026577 5.238 9.84242 1.03318
150 4 2.64213 5.13406 11.395 1.07047
152 4 2.02905 7.56493 13.3341 1.02513
153 4 0.563286 9.84816 11.7098 1.04503
157 1 0.192203 6.82469 8.83181 -0.670375
158 1 3.92206 6.20827 10.4915 -0.677767
159 1 -0.190897 11.1754 12.8371 -0.671765
160 1 3.76683 8.36355 13.2661 -0.662984
172 2 1.54424 7.38366 14.9508 -0.0361411
173 2 1.95616 10.509 10.9833 -0.0270879
184 2 0.718147 7.54755 9.53577 0.210397
185 2 3.37878 7.17829 10.2486 0.161088
186 2 4.21982 5.6215 9.56932 0.191683
187 2 4.77471 6.35118 11.2302 0.133721
189 2 3.98923 8.59247 12.1787 0.156627
190 2 4.46922 7.59815 13.7187 0.154678
191 2 3.63234 9.29076 13.9099 0.156816
202 3 2.23575 6.13592 12.6081 -0.759271
204 3 1.05087 8.61536 12.6127 -0.803462
217 1 5.17611 9.31059 9.60016 -0.675022
239 2 5.39864 8.83979 10.614 0.147738
240 2 4.18886 8.98478 9.16204 0.136021
241 2 5.33814 10.4311 9.58674 0.179296
268 4 1.55247 9.55251 17.0573 0.765206
269 4 4.5462 10.5017 16.5479 0.847203
270 1 0.0350629 9.58599 15.8704 -0.671257
271 1 5.34522 8.69641 16.4865 -0.659411
272 2 1.9912 7.92824 17.3656 -0.0429436
273 2 0.370718 9.17861 14.8698 0.174916
274 2 -0.267075 10.6827 15.8278 0.215885
276 2 6.10392 8.66883 17.3199 0.155114
277 2 5.8131 8.6438 15.4565 0.151846
278 2 4.50395 7.95564 16.6285 0.184371
279 3 2.84655 10.326 16.3872 -0.728031
287 1 7.38348 8.86684 13.3422 -0.665099
288 2 7.43327 7.78046 13.647 0.130331
290 2 6.41607 9.3718 13.6336 0.164702
300 2 1.67363 11.0507 8.95675 0.155096
308 2 4.96099 11.0524 14.1441 0.141438
314 2 4.01189 10.8891 11.9523 -0.0372043
327 2 0.599384 11.4462 13.602 0.167822
224 2 6.76717 6.90852 8.85174 -0.0189292
289 2 7.64987 9.03297 12.2546 0.16322
244 3 7.94699 9.3412 8.86749 -0.81155
257 2 9.02655 5.93527 11.6673 0.167523
261 2 7.7616 10.432 16.5372 0.159183
280 4 10.3771 6.14511 15.7483 0.676918
282 2 8.74008 6.56568 15.8561 -0.0657742
318 2 8.35927 8.63923 16.5237 0.136915
319 2 9.23486 8.32406 11.2096 0.165172
ITEM: TIMESTEP
100
ITEM: NUMBER OF ATOMS
331
ITEM: BOX BOUNDS xy xz yz pp pp pp
-8.5198313254743354e+00 1.5817390762332380e+01 -8.3017861216568836e+00
-2.0603438015789743e+00 1.3125611210228588e+01 -1.0935444148506727e-01
-7.9707645329138543e-02 1.7604507645329122e+01 -2.0215325913503897e+00
ITEM: ATOMS id type x y z q
1 4 -0.947841 2.31692 5.36246 1.08834
4 1 -0.993484 0.916346 4.00463 -0.662973
6 1 -1.26069 4.45823 1.76436 -0.654718
15 2 -2.17918 4.98661 2.27527 0.117289
16 2 -1.41082 3.34456 1.49742 0.153748
17 2 -0.753908 5.08226 0.959263 0.122789
18 3 -0.534783 3.60039 4.36283 -0.752991
154 1 -2.28257 5.64636 6.1924 -0.663078
174 2 -1.12735 5.94873 6.31201 0.150351
175 2 -2.46091 4.76082 5.51377 0.21187
2 4 -0.147951 4.69317 3.26518 0.793101
3 1 0.44429 1.92968 6.65926 -0.664585
5 1 1.7744 4.60704 2.86681 -0.659353
8 2 1.39112 2.34951 6.2109 0.169113
9 2 0.378712 0.77746 6.61371 0.173409
10 2 0.220741 2.33517 7.68262 0.210549
11 2 -0.115581 0.269475 4.13274 0.160594
12 2 1.72443 3.44177 2.86 0.156523
13 2 2.47398 4.9953 3.73046 0.161664
14 2 2.08178 5.05279 1.84678 0.174927
24 4 5.34908 0.458023 4.10078 0.792816
28 4 7.19014 1.52462 6.39669 1.49739
31 4 5.83597 3.72031 8.14281 1.23755
32 4 3.82633 5.9372 6.55633 0.846261
45 1 3.76981 1.56536 4.60815 -0.667672
47 1 3.97287 0.0865933 8.15164 -0.670943
49 1 6.52218 1.12769 2.74907 -0.675605
51 1 2.29145 4.90003 6.97153 -0.644636
78 2 2.8468 1.25183 4.09572 0.134664
79 2 4.12341 2.57251 4.28715 0.160221
80 2 3.74275 1.43464 5.73433 0.171205
81 2 4.55079 -0.833331 8.4982 0.201791
82 2 4.49225 0.544594 7.24213 0.191977
83 2 2.9212 -0.122917 7.96486 0.185251
87 2 5.72988 1.58945 2.08866 0.160719
88 2 7.03454 0.266351 2.24945 0.147687
89 2 7.30634 1.9304 3.07132 0.16877
93 2 2.28282 4.39884 5.89217 0.157159
94 2 1.35979 5.56042 7.20045 0.145513
95 2 2.53594 4.16786 7.77103 0.222947
96 2 4.55807 4.91275 4.3171 0.158083
110 2 7.26139 6.10377 6.64519 0.198251
117 3 6.16111 0.44975 5.44759 -0.784596
118 3 7.61327 0.677846 7.67981 -0.822049
123 3 6.43343 2.91981 6.94815 -0.799221
124 3 4.99502 5.342 7.46813 -0.714828
263 4 5.09977 4.23544 0.590336 0.964705
264 2 6.5694 5.0674 0.406086 -0.0593326
265 2 5.1529 4.25537 2.29097 -0.0470938
266 3 5.23405 2.80432 0.0111492 -0.773909
267 3 3.92407 5.12897 0.166018 -0.772762
283 1 2.25744 1.44675 0.525681 -0.659591
226 2 8.21787 8.94694 0.898449 0.111246
285 2 1.29142 1.25389 1.15546 0.11116
286 2 3.08465 1.97659 1.09757 0.182796
311 2 0.864772 4.02046 -0.0401773 -0.0232498
35 4 9.49496 1.93427 4.43732 1.23639
37 4 11.9178 1.64695 6.25307 1.47092
40 4 9.98356 4.39538 2.49427 0.665196
41 4 10.804 3.15134 8.71913 1.26652
42 4 9.67614 5.47181 6.93837 0.818799
55 1 11.1416 3.35028 1.20599 -0.622719
56 1 7.99126 5.5083 6.04342 -0.678869
65 2 9.21066 0.451583 3.61248 -0.018655
69 2 10.5243 5.65367 3.45279 -0.0709687
70 2 8.87432 5.02611 1.42133 -0.086022
72 2 10.7214 5.23997 5.62358 -0.021089
105 2 11.5753 4.48621 0.887432 0.0843321
106 2 11.3418 2.70258 0.248279 0.155336
107 2 11.6622 2.86407 2.14414 0.172602
108 2 7.63638 4.43956 5.94036 0.266664
128 3 8.40978 2.11258 5.57236 -0.820522
129 3 13.7722 -0.233557 8.49564 -0.831593
131 3 13.4909 2.50965 6.04522 -0.755948
132 3 10.9298 1.89806 5.05215 -0.827871
133 3 12.3498 -0.0337284 6.25169 -0.825332
137 3 9.4689 3.21933 3.35929 -0.770123
139 3 11.3072 2.18775 7.62676 -0.852985
140 3 9.83523 4.24852 7.99701 -0.762688
304 1 13.6589 0.407318 0.48462 -0.654609
305 2 14.7929 0.308218 0.449899 0.134545
306 2 13.2561 1.46092 0.374751 0.157577
313 2 9.55584 2.60364 0.496688 0.0248473
315 2 13.9774 0.406898 4.1719 0.195315
316 2 -0.941278 1.49848 3.03734 0.17266
323 2 9.05319 0.400927 0.900129 0.165698
324 2 10.0809 -0.838944 7.63297 0.175131
143 4 -5.9031 11.451 5.7368 0.636425
144 4 -2.66635 7.16561 5.10581 0.703148
146 4 -2.68195 9.73728 6.8814 0.862812
147 4 -6.7512 10.5797 8.58162 1.28229
161 2 1.41772 -0.617626 5.00512 -0.0334089
162 2 -4.42731 12.1472 5.88519 -0.0466492
163 2 -4.20867 6.65938 4.74351 -0.0624872
164 2 -2.08272 7.03968 3.52794 -0.050155
166 2 -4.28143 9.98085 7.39103 0.0131278
167 2 -2.50076 11.2589 6.2765 -0.0239995
169 2 -5.71751 10.2675 4.5447 -0.0529426
176 2 -2.90483 5.68469 7.1347 0.144476
182 2 -1.15723 6.72777 8.42322 0.184366
192 3 -2.60235 8.59213 5.74086 -0.793846
193 3 -6.35748 10.9781 7.13165 -0.827716
199 3 -1.6927 9.42353 8.15253 -0.773101
206 4 -1.2907 9.09341 1.74516 0.668044
213 1 -2.59574 10.172 2.35456 -0.658905
221 2 -1.88659 7.56336 1.32956 -0.0679408
227 2 -3.61709 9.71915 2.53708 0.132637
228 2 -2.57554 10.957 1.47248 0.134283
229 2 -2.10578 10.5704 3.31837 0.173602
235 2 -0.424773 11.4862 5.68005 0.171884
312 2 -3.44564 12.028 3.67573 -0.0450768
317 2 -6.15295 9.48048 1.97984 0.107587
321 2 -3.81109 12.8557 -0.0167356 0.160797
322 2 -1.95861 12.9419 0.463746 0.155259
325 2 -4.12621 8.84071 0.0623572 0.120616
329 2 -4.65375 7.52155 7.68716 0.14755
220 2 -0.651861 9.61592 0.316234 -0.0554804
7 2 0.00499119 6.21138 4.11166 -0.0180033
52 1 4.07995 5.87924 4.63616 -0.650882
61 2 3.40433 7.49593 7.0474 -1.85339e-05
97 2 4.89954 6.79708 4.7899 0.164615
98 2 3.24366 6.20286 3.88229 0.152433
183 2 0.611349 6.66312 7.81194 0.153078
207 4 0.770056 9.52287 4.30143 1.04072
208 4 4.86363 12.1603 7.21138 1.26159
209 4 3.91857 10.2361 3.55823 1.01556
210 4 6.63316 8.59676 8.47771 1.02035
211 4 6.09916 9.92756 5.64466 1.38555
214 1 0.915505 8.47192 5.80384 -0.66441
215 1 0.243002 11.4138 4.83287 -0.657311
216 1 4.6072 9.68609 1.86687 -0.65099
219 2 6.93217 7.78075 2.50712 -0.0473265
222 2 3.75208 11.0072 7.80402 -0.0336288
223 2 4.09339 11.9288 3.56807 -0.0137157
230 2 1.65934 8.85662 6.61207 0.167453
231 2 1.23825 7.47126 5.38146 0.153258
232 2 -0.185515 8.51494 6.15475 0.200079
233 2 -0.223263 11.8977 3.9441 0.160246
234 2 1.23938 11.9292 5.07906 0.168656
236 2 4.90209 8.54973 1.9822 0.160763
237 2 5.52154 10.4441 1.8752 0.135315
238 2 3.77535 9.89854 1.05859 0.148148
242 3 -0.241256 9.05406 3.02083 -0.734931
243 3 2.37604 9.84295 3.70948 -0.737342
245 3 7.30223 9.69838 4.4692 -0.760932
246 3 4.71229 9.6826 4.8573 -0.788225
247 3 6.18171 8.63576 6.96246 -0.756981
248 3 5.97623 11.3657 6.41971 -0.817726
291 1 2.19637 7.14857 1.00217 -0.671258
292 2 2.68375 8.20227 1.09504 0.167242
293 2 2.3298 6.53091 1.95659 0.172668
294 2 1.08763 7.22483 0.713325 0.130018
295 1 1.14612 12.5112 1.17795 -0.670828
296 2 2.13776 12.5957 1.70822 0.153135
297 2 0.383265 11.8852 1.73678 0.148476
298 1 0.987711 11.6306 8.03546 -0.680038
299 2 0.410464 11.0232 7.25559 0.175141
330 2 13.173 -0.18505 1.27818 0.158549
328 2 9.41329 7.82957 7.35478 0.172492
57 1 10.1994 7.15168 7.87227 -0.665014
109 2 8.20603 5.97167 5.08014 0.132184
225 2 8.33936 10.7505 1.58132 0.16257
205 4 7.99826 8.79143 3.26264 0.673109
212 1 8.61438 9.64562 1.73293 -0.65807
218 2 9.02147 7.56935 3.84977 -0.0763801
170 2 -0.560509 3.77023 8.7846 -0.0207974
23 4 -0.492025 2.65511 13.1233 1.04971
44 1 -1.28789 1.33691 14.2735 -0.661113
60 2 -1.58466 3.51462 12.0889 0.000759224
62 2 -0.806049 3.99185 16.81 -0.0677132
76 2 13.6709 1.2362 13.6602 0.131501
77 2 -1.38835 1.8694 15.2989 0.151158
319 2 9.25814 8.2938 10.7332 0.182837
19 4 1.32195 0.535502 16.9899 0.767631
21 4 2.16914 -0.964545 12.6555 1.43332
22 4 1.04717 1.05311 10.8613 1.45347
25 4 5.696 -0.486142 16.5332 1.19469
27 4 4.01371 1.42298 9.63622 1.13544
29 4 3.64383 0.707596 14.6447 1.49076
30 4 3.01234 4.50834 17.1926 1.1777
33 4 5.63675 3.1581 14.3014 1.04153
34 4 0.259186 4.44546 15.5684 0.909923
48 1 5.21482 0.955856 11.0349 -0.670371
50 1 7.00602 4.24852 9.52124 -0.665288
53 1 6.99945 2.17919 13.3804 -0.684215
58 2 -0.128072 -0.0290943 16.4715 -0.0278629
63 2 6.06376 3.60363 12.5594 -0.0101744
75 2 -0.635298 0.459376 14.2923 0.206709
84 2 4.87278 -0.0483933 11.4184 0.219837
85 2 4.93386 1.81068 11.7751 0.172413
86 2 6.28426 0.993568 10.7212 0.212627
90 2 7.69924 4.97341 8.99807 0.191973
91 2 7.53154 3.26844 9.77419 0.204351
92 2 6.41513 4.68445 10.3774 0.149805
99 2 7.30682 2.50241 12.302 0.143965
100 2 6.58543 1.16229 13.3925 0.203417
112 3 -0.25922 1.15849 9.7175 -0.824961
113 3 1.17979 -0.568181 11.3921 -0.807317
114 3 0.632205 2.01067 12.1621 -0.804045
116 3 2.49951 1.42338 10.1426 -0.811862
119 3 3.04727 0.261808 13.2432 -0.827027
120 3 4.8834 -0.416632 15.1798 -0.778752
121 3 2.40302 0.734229 15.789 -0.730034
122 3 4.65585 2.80782 8.9236 -0.788161
125 3 4.36451 2.2285 14.4393 -0.784312
126 3 -0.102628 3.70148 14.265 -0.798172
127 3 1.80675 4.31384 16.1022 -0.75816
134 3 7.59218 -0.218815 16.4442 -0.735926
141 3 6.12631 4.13997 15.4682 -0.833052
171 2 3.00344 3.35794 12.0975 0.0329535
198 3 1.3863 4.83741 10.2781 -0.74934
20 4 14.1615 0.719061 9.72544 1.23943
26 4 7.91945 -0.398257 8.83736 1.29732
36 4 9.83067 1.07346 10.8193 1.25861
38 4 8.81304 0.750977 16.5687 0.71563
39 4 12.3615 -0.58394 11.6924 0.937023
54 1 10.4888 0.334617 15.9216 -0.667541
59 2 13.2658 2.13503 9.63627 -0.0338239
66 2 9.30496 1.63458 12.3256 -0.0271592
67 2 8.52542 2.35856 16.3746 -0.0546299
68 2 12.5197 -0.653087 13.3331 -0.0114573
71 2 12.1285 4.03508 9.26107 -0.027307
101 2 7.85212 2.40246 14.1661 0.135681
102 2 11.2822 1.1138 16.1327 0.148217
103 2 10.1568 0.238651 14.7909 0.148651
104 2 10.6561 -0.657264 16.476 0.206307
130 3 8.54663 0.365752 10.1908 -0.811643
135 3 13.606 0.0200899 11.1259 -0.840022
136 3 10.9901 0.107887 11.2041 -0.86029
138 3 10.1955 2.35655 9.99654 -0.83894
249 4 11.0631 4.74969 13.0064 1.04867
250 1 11.3981 3.0344 13.8483 -0.663188
251 1 9.40836 4.66545 12.0075 -0.651315
252 2 11.4372 3.46606 14.922 0.151805
253 2 12.3471 2.57682 13.5104 0.14886
254 2 10.5101 2.39223 13.6836 0.140564
255 2 8.56424 5.14071 12.5766 0.151987
256 2 9.28038 3.55125 11.8321 0.163798
281 2 10.4197 5.01773 16.9929 -0.0601158
307 1 13.5293 -1.49111 14.8541 -0.652079
309 2 14.6351 -1.69483 14.7104 0.182836
310 2 13.2687 -0.422106 15.0263 0.180528
326 2 8.42336 -0.987688 12.7285 0.166028
46 1 -2.85161 11.0029 17.3183 -0.659924
115 3 -7.01569 11.3431 14.0146 -0.756735
145 4 -2.3645 6.12979 11.721 1.03503
148 4 -4.71422 9.94944 10.8225 1.32596
151 4 -1.78204 10.0832 9.66964 1.3959
155 1 -2.13497 7.42802 13.0953 -0.663726
156 1 -5.64689 8.26098 11.2171 -0.664731
165 2 -2.79973 7.65474 11.2019 0.066235
168 2 -7.36824 11.9875 9.23018 0.0645932
177 2 -1.67718 8.39347 12.6604 0.199159
178 2 -1.24848 6.59449 13.609 0.119417
179 2 -3.0749 7.55556 13.7011 0.181192
180 2 -4.92896 7.57052 10.7274 0.161363
181 2 -5.65686 8.17902 12.3709 0.155677
188 2 -1.46012 11.2008 12.2359 0.197667
194 3 -3.64311 5.20051 12.0233 -0.804993
195 3 -5.4407 10.2991 9.38837 -0.829549
196 3 -5.0853 10.9713 12.0074 -0.810686
197 3 -1.21883 5.54907 10.7904 -0.80629
200 3 -1.66403 11.7626 9.38476 -0.809941
201 3 -3.14042 9.65441 10.5465 -0.829432
203 3 -0.43846 9.45619 10.5296 -0.769279
258 4 -6.98447 9.83916 14.5111 0.825547
259 1 -7.48837 9.56978 16.4124 -0.659069
260 2 -5.44704 9.1151 14.2909 -0.0172465
262 2 -6.62476 9.90401 17.0129 0.14994
275 2 -0.508642 8.54347 16.1648 0.138298
301 1 -4.40283 7.25963 16.677 -0.646522
302 2 -3.47384 7.21235 16.0223 0.160464
303 2 -5.0249 8.26924 16.6667 0.135785
320 2 -2.58562 10.3825 16.4001 0.169321
331 3 10.7662 5.73615 14.3817 -0.743305
43 4 5.83295 5.44032 16.3065 0.918854
64 2 -0.252644 6.00033 15.5126 -0.0648322
73 2 6.38613 6.89333 15.5963 -0.0284302
74 2 6.74185 5.4577 17.6843 -0.0711552
142 3 4.38725 5.6974 16.6115 -0.766703
149 4 -0.0762124 5.12506 9.72136 1.03202
150 4 2.63741 4.91709 11.4692 1.02273
152 4 1.97997 7.44754 13.4816 0.972992
153 4 0.524116 9.93707 11.7465 0.988789
157 1 -0.0817945 6.66754 8.73554 -0.661595
158 1 4.02546 5.77025 10.6604 -0.664309
159 1 -0.428174 11.1998 12.7827 -0.67658
160 1 3.61181 8.16684 13.9295 -0.655295
172 2 1.10156 7.12734 14.9131 -0.0346062
173 2 1.68943 11.02 11.1709 -0.0134286
184 2 0.174938 7.4617 9.45702 0.251377
185 2 3.59614 6.65694 10.0815 0.182058
186 2 4.2732 4.89669 9.92113 0.187517
187 2 4.91204 6.08058 11.3059 0.136211
189 2 4.06547 8.48946 12.9164 0.163129
190 2 4.0989 7.25465 14.4145 0.175081
191 2 3.411 9.04362 14.656 0.18264
202 3 2.30113 6.00547 12.6251 -0.738984
204 3 1.27833 8.70452 12.6002 -0.753949
217 1 5.11676 9.08298 9.54321 -0.666556
239 2 4.99596 8.04694 10.1133 0.137101
240 2 4.25864 9.35514 8.82449 0.150027
241 2 5.57461 9.95334 10.12 0.165962
268 4 1.53345 9.71028 17.2343 0.777608
269 4 4.68568 10.672 16.518 0.814794
270 1 0.0152283 9.5167 15.9504 -0.67207
271 1 5.41917 8.85957 16.3489 -0.659197
272 2 1.43831 8.02721 17.275 -0.0334682
273 2 0.492269 9.58063 14.9439 0.174862
274 2 -0.589954 10.4268 16.1792 0.19557
276 2 6.17261 8.79537 17.1796 0.157582
277 2 5.86199 8.66222 15.3757 0.165048
278 2 4.5202 8.20206 16.5567 0.191666
279 3 2.88028 10.369 16.5465 -0.716324
287 1 7.63743 8.76977 13.6012 -0.657548
288 2 8.0343 7.75932 13.666 0.142623
290 2 6.54047 8.87593 14.0349 0.150663
300 2 1.36578 10.9803 8.92766 0.147617
308 2 4.61468 11.0774 14.1242 0.142461
314 2 4.01662 10.9462 11.4009 -0.0396182
327 2 -0.465249 10.7487 13.8164 0.18205
224 2 6.8557 6.99273 9.10241 -0.0201225
289 2 7.80638 9.27686 12.5503 0.160612
244 3 8.01475 9.47613 8.7847 -0.810441
257 2 9.71653 5.23463 11.0439 0.17516
261 2 7.5093 10.226 16.5317 0.159743
280 4 10.2434 6.23845 15.8335 0.673801
282 2 8.59641 6.57412 15.9705 -0.0727652
318 2 8.2374 8.45062 16.523 0.135313
284 2 2.50727 -1.45832 17.6252 0.168197
111 2 9.98009 7.00513 8.96537 0.175386
ITEM: TIMESTEP
200
ITEM: NUMBER OF ATOMS
331
ITEM: BOX BOUNDS xy xz yz pp pp pp
-8.5751667524735655e+00 1.5895625814528739e+01 -8.3358286315630590e+00
-2.0203885348263788e+00 1.3092613364481748e+01 -5.2412306381768407e-02
-1.0958726477176839e-01 1.7634387264771764e+01 -2.0145751703446444e+00
ITEM: ATOMS id type x y z q
1 4 -1.04558 2.24917 5.38298 1.03584
4 1 14.7081 0.597383 4.43662 -0.678921
6 1 -1.27366 4.46139 1.6652 -0.648815
15 2 -1.89336 5.53957 1.88086 0.0847932
16 2 -1.88008 3.52809 1.65485 0.177792
17 2 -0.437186 4.50124 0.871877 0.118185
18 3 -0.620225 3.699 4.35784 -0.730492
154 1 -2.26669 5.64938 6.09276 -0.635975
174 2 -1.13335 5.60151 5.78743 0.153971
175 2 -2.99967 4.93413 5.59233 0.175458
2 4 -0.262649 4.73455 3.20695 0.759352
3 1 0.325737 2.13525 6.70847 -0.667706
5 1 1.73876 4.70653 2.75822 -0.659912
8 2 0.845956 3.14938 6.70106 0.184621
9 2 0.989036 1.32038 6.32356 0.150051
10 2 -0.111818 1.91143 7.69586 0.218575
11 2 14.8918 -0.271904 5.12628 0.255491
12 2 1.74419 3.57869 2.99261 0.161642
13 2 2.57882 5.20913 3.48548 0.159466
14 2 1.89113 4.96134 1.65647 0.147536
24 4 5.4577 0.482021 4.0136 0.793452
28 4 7.29728 1.52659 6.3807 1.50201
31 4 5.76289 3.70234 8.05552 1.27093
32 4 3.87767 5.97519 6.6405 0.824354
45 1 3.79338 1.47047 4.13388 -0.647834
47 1 4.48801 0.0105286 8.11254 -0.68285
49 1 6.45214 1.07597 2.51505 -0.660203
51 1 2.24692 4.96354 7.01496 -0.643547
78 2 3.12109 0.550871 4.21655 0.107187
79 2 3.78239 2.04519 3.12617 0.146153
80 2 3.83447 2.16682 5.06855 0.174916
81 2 5.2299 -0.743848 8.65388 0.243327
82 2 4.9102 0.460896 7.20634 0.221054
83 2 3.44015 -0.418247 7.97116 0.167577
87 2 5.60443 1.23938 1.71949 0.169169
88 2 7.25634 0.313479 2.09192 0.141587
89 2 6.92697 2.09951 2.80634 0.168523
93 2 2.0995 4.6679 5.94215 0.162731
94 2 1.36829 5.61771 7.44873 0.159594
95 2 2.66214 4.18031 7.75138 0.212106
96 2 3.43519 4.87577 4.53866 0.150962
110 2 7.66798 6.42934 6.68876 0.160712
117 3 6.26411 0.616025 5.42408 -0.775954
118 3 7.65502 0.630374 7.70672 -0.832225
123 3 6.44341 2.90898 6.86723 -0.802479
124 3 4.90304 5.00139 7.39541 -0.766292
263 4 5.02025 4.17402 0.516134 0.970813
264 2 6.46987 5.0571 0.497708 -0.0765522
265 2 4.71642 4.0575 2.18347 -0.0354296
266 3 5.21539 2.73837 -0.0536075 -0.84158
267 3 3.95848 5.11207 -0.0771962 -0.81438
283 1 1.85347 1.56088 0.42537 -0.652865
226 2 7.49982 9.98922 1.27617 0.1236
285 2 0.815805 1.32751 0.804324 0.136504
286 2 2.47642 2.26564 1.10507 0.158649
170 2 -0.535082 3.94536 8.54425 -0.0129572
35 4 9.70172 1.86834 4.40777 1.24903
37 4 12.0296 1.64729 6.39066 1.44712
40 4 10.034 4.26223 2.29093 0.676697
244 3 8.05742 9.5806 8.5551 -0.831269
42 4 9.81006 5.51757 6.92274 0.80745
55 1 11.2445 3.52982 1.02333 -0.653248
56 1 8.08702 5.51103 6.11236 -0.649762
65 2 9.64452 0.441637 3.51699 -0.0136089
69 2 10.588 5.66481 3.11507 -0.0648806
70 2 8.64216 4.7348 1.38038 -0.0848495
72 2 10.6478 5.20693 5.46312 -0.0241604
105 2 12.064 4.44404 1.42019 0.102478
106 2 11.2837 3.53263 -0.0844846 0.145956
107 2 11.3673 2.51099 1.56143 0.175337
108 2 7.43114 4.55685 6.25049 0.260187
128 3 8.47474 1.94193 5.35929 -0.830958
129 3 13.7294 -0.197098 8.5665 -0.838323
131 3 13.5874 2.38747 6.24226 -0.761869