ITEM: TIMESTEP
0
ITEM: NUMBER OF ATOMS
331
ITEM: BOX BOUNDS xy xz yz pp pp pp
-8.3499999999999996e+00 1.5708700000000000e+01 -8.2042000000000002e+00
-2.0055999999999998e+00 1.3086800000000000e+01 -1.4580000000000001e-01
0.0000000000000000e+00 1.7524799999999999e+01 -2.0055999999999998e+00
ITEM: ATOMS id type q x y z element
1 4 0.653283 -1.36514 3.22078 4.7465 Si
2 4 0.276903 -0.283433 4.93976 2.61508 Si
3 1 -0.129839 0.332372 3.00054 5.91051 C
6 1 -0.127436 -1.05542 4.70736 0.674151 C
8 2 0.0353768 0.63067 4.02491 6.12044 H
9 2 0.00852523 1.04177 2.44543 5.34102 H
10 2 0.0766292 -0.0765973 2.46816 6.75688 H
17 2 0.0297539 -1.85935 5.45281 0.638836 H
18 3 -0.613623 -1.29231 4.54254 3.81537 O
285 2 0.0152562 0.997359 3.10485 1.22498 H
166 2 0.0856782 0.707053 -0.688443 8.07324 H
283 1 -0.115365 1.32014 2.34092 0.566578 C
111 2 0.0645472 -1.85813 4.33627 7.86455 H
315 2 0.0226745 -0.98574 1.97843 2.53409 H
15 2 0.0301631 -1.40447 3.68424 0.586528 H
175 2 0.0348176 -3.26802 6.1416 2.95764 H
284 2 0.0286701 0.528399 1.69878 0.218866 H
5 1 -0.11836 1.79302 4.92176 3.00565 C
57 1 -0.0904312 -2.19314 5.31415 7.56586 C
317 2 0.019468 1.27693 0.508008 2.72304 H
329 2 0.0632768 -1.9662 5.53658 6.54706 H
316 2 0.0202023 -0.658528 0.912291 4.01972 H
95 2 0.0691155 3.88572 5.00717 7.94066 H
82 2 0.0992416 4.67441 0.91552 8.05965 H
321 2 0.0319016 3.95975 0.161147 1.25751 H
81 2 0.0778712 3.14308 0.0748856 8.64073 H
47 1 -0.0982532 3.60456 0.995923 8.26225 C
14 2 0.0245306 1.89147 4.12469 3.73401 H
88 2 0.0678234 6.40865 1.62954 3.11754 H
83 2 0.0254175 2.99015 1.57405 7.5498 H
12 2 0.0825685 2.00728 5.90604 3.40495 H
49 1 -0.0980312 5.85831 2.55834 2.94905 C
167 2 0.288721 5.35872 0.0410237 6.42359 H
286 2 0.0551294 2.24926 1.86508 0.850839 H
13 2 0.0267595 2.24368 4.7136 2.04143 H
24 4 0.139725 4.60935 1.5738 4.55926 Si
45 1 -0.105364 4.07694 3.44731 5.33699 C
312 2 0.014816 3.2443 0.694156 3.92863 H
78 2 0.0285775 3.1585 3.17165 5.82561 H
79 2 0.0221444 3.98401 4.06393 4.44918 H
80 2 0.0752082 4.82789 3.73043 6.0404 H
117 3 -0.613454 5.87003 0.491926 5.66692 O
87 2 0.0624673 5.08289 2.6283 2.19009 H
22 4 0.799411 0.827711 1.60009 10.5172 Si
23 4 0.400806 0.240885 2.14808 12.835 Si
34 4 0.346154 -1.3021 4.21982 13.8654 Si
44 1 -0.0798166 -0.439801 0.499008 13.9102 C
168 2 0.280841 0.173157 -0.773206 10.8048 H
77 2 0.121964 0.387438 -0.219868 13.8975 H
112 3 -0.684407 -0.588096 2.17775 9.91989 O
113 3 -0.697038 1.09208 -0.396797 10.7244 O
126 3 -0.555464 -0.977992 3.21329 12.6187 O
183 2 0.0781153 -0.119192 4.88293 10.5907 H
76 2 0.0275014 -0.685462 0.974958 14.8539 H
62 2 0.0739668 -2.90663 2.81998 16.0056 H
261 2 0.0483935 -0.180955 -1.60254 15.7054 H
60 2 0.107846 -3.28941 4.6022 10.919 H
71 2 0.059642 -2.84706 4.74767 10.2011 H
64 2 0.123293 1.61114 3.7005 9.1288 H
16 2 0.0109067 -0.406316 2.97889 17.5061 H
266 3 -0.6951 4.49083 0.588132 17.3924 O
120 3 -0.764403 4.65629 -0.996227 15.3741 O
85 2 0.0508241 4.7675 1.60727 12.0402 H
19 4 0.291445 1.89424 1.4373 16.3509 Si
122 3 -0.640137 4.66604 3.56631 9.71345 O
53 1 -0.109951 6.82149 -0.125913 13.7535 C
267 3 -0.690327 3.75193 4.15452 16.5861 O
114 3 -0.698892 1.98524 3.10721 13.5653 O
311 2 0.278337 3.9243 4.23109 15.5167 H
86 2 0.0543719 5.51654 0.721328 10.6666 H
171 2 0.307079 2.46847 2.9786 12.6771 H
263 4 0.521274 4.23958 1.998 16.5182 Si
63 2 0.331437 2.4328 2.33051 14.0568 H
25 4 0.967987 5.28885 -0.744877 16.9099 Si
27 4 0.565816 3.66425 2.27768 9.95537 Si
29 4 1.13967 3.57602 -0.214391 14.4026 Si
48 1 -0.0919086 4.61175 0.978631 11.19 C
84 2 0.110545 3.90418 0.193492 11.3573 H
125 3 -0.672458 4.48013 1.74436 14.4342 O
116 3 -0.690646 2.11276 2.59387 10.5521 O
119 3 -0.79066 3.34062 -0.935656 12.9451 O
121 3 -0.673162 2.1811 0.454874 15.0279 O
101 2 0.043074 6.35568 -0.235523 12.7695 H
99 2 0.0949108 6.51371 -0.763163 14.5707 H
144 4 0.266856 -4.22914 7.96665 4.42049 Si
146 4 0.638344 -3.82069 10.278 6.11437 Si
147 4 0.659937 -6.03363 9.52958 6.91544 Si
46 1 -0.132502 -3.4327 12.7529 0.729362 C
192 3 -0.599628 -3.8841 9.55521 4.66772 O
61 2 0.053423 -5.59022 9.49486 2.28755 H
195 3 -0.691239 -5.88373 10.4055 8.30066 O
199 3 -0.737886 -2.92216 9.65581 7.31374 O
161 2 0.101373 -7.83365 12.1045 8.28007 H
212 1 -0.109891 -6.85199 12.5183 2.48042 C
154 1 -0.0946149 -2.73967 7.03732 3.35246 C
325 2 0.0227164 -4.58566 8.30135 0.473945 H
174 2 0.0290733 -2.52343 7.84514 2.67765 H
151 4 1.31872 -2.41312 10.4764 8.64937 Si
225 2 0.0258454 -7.02564 12.3572 1.40582 H
163 2 0.0187964 -3.88515 7.05869 5.8984 H
180 2 0.06548 -4.78197 7.5244 8.44692 H
219 2 0.0646701 -4.97798 9.75488 2.52386 H
322 2 0.0293362 -2.56803 12.512 1.33134 H
226 2 0.0512346 -5.92647 12.0999 2.89337 H
320 2 0.0263114 -3.7473 11.9573 0.0692746 H
164 2 0.00712761 -1.29811 9.28724 0.423266 H
74 2 0.0396781 -1.92335 10.875 2.99616 H
328 2 0.0382494 -1.93955 6.10295 8.26922 H
324 2 0.0834328 0.162279 10.9179 6.60079 H
176 2 0.0722666 -2.03422 6.83245 4.16125 H
70 2 0.0291093 -1.8652 10.3507 2.81344 H
7 2 0.0211696 -0.160231 6.66957 2.81475 H
213 1 -0.12933 1.50441 8.96944 1.4977 C
227 2 0.00870811 0.911424 9.78652 1.89684 H
228 2 0.0321251 1.0245 8.01135 1.52414 H
200 3 -0.770358 -1.89955 12.04 8.26778 O
207 4 0.407201 1.54758 8.8239 5.3498 Si
230 2 0.0403477 2.17583 7.21209 7.1555 H
215 1 -0.0985918 -0.477609 8.23198 5.16826 C
234 2 0.0769533 -0.902856 8.96095 5.83784 H
233 2 0.0311878 -0.703045 8.42237 4.12849 H
242 3 -0.565092 2.43188 8.00072 4.2322 O
231 2 0.0416358 1.47737 8.73592 7.82839 H
235 2 0.0477844 -0.542242 7.23373 5.51232 H
299 2 0.0530849 0.732243 10.3056 8.18433 H
148 4 0.992959 -5.05808 9.84269 9.69893 Si
165 2 0.00914805 -3.93575 7.72022 12.5155 H
179 2 0.0340595 -2.66864 7.99173 15.7905 H
181 2 0.0535911 -3.43017 7.87532 9.57502 H
194 3 -0.664134 -3.34764 5.17813 13.0925 O
196 3 -0.734155 -5.62534 10.0863 11.2471 O
201 3 -0.793433 -3.66811 10.5938 9.6479 O
258 4 0.295611 -7.00981 9.82254 14.3804 Si
260 2 0.030521 -5.29968 9.83001 14.6708 H
21 4 1.16256 -6.12261 11.4038 12.1391 Si
155 1 -0.128287 -3.50697 7.35961 15.4621 C
115 3 -0.673598 -7.27349 10.8566 13.1397 O
178 2 0.0127845 -4.44101 7.88563 15.2819 H
177 2 0.0640232 -3.58708 6.42128 15.9906 H
145 4 0.60444 -2.98521 6.71344 13.5478 Si
156 1 -0.117666 -4.48627 7.82333 9.43126 C
262 2 0.0351003 -7.03956 10.8312 16.7614 H
327 2 0.111085 -3.3438 10.1241 11.9478 H
159 1 -0.082214 -2.36661 10.4162 12.3172 C
319 2 0.0456939 -5.01761 7.29694 10.1926 H
259 1 -0.11428 -7.88564 10.6322 16.1021 C
153 4 0.64045 -1.00988 9.4246 10.9777 Si
184 2 0.0390259 1.1639 6.18602 10.6696 H
149 4 0.486026 -0.257776 6.05852 12.8793 Si
188 2 0.0641172 -2.17175 11.4759 12.2169 H
273 2 0.0352571 -0.763229 9.73404 15.9173 H
170 2 0.301526 1.58104 4.94929 14.2476 H
203 3 -0.736266 -1.26171 9.47936 9.36624 O
198 3 -0.670496 1.29495 5.9433 14.4326 O
270 1 -0.0619393 0.118656 9.40955 15.3931 C
150 4 0.599897 2.29674 6.96256 13.6171 Si
157 1 -0.0821791 0.133887 5.91029 10.8455 C
182 2 0.0768607 -0.548735 6.64555 10.456 H
204 3 -0.649346 0.238602 8.65288 11.6342 O
326 2 0.0563128 -2.13518 10.015 13.3013 H
274 2 0.112168 0.129997 8.37065 15.0955 H
197 3 -0.612513 -1.44237 7.07255 13.3118 O
58 2 0.0324339 0.164312 4.75894 16.4855 H
220 2 0.077068 0.832051 4.71331 16.3531 H
28 4 1.18908 7.25986 1.78335 6.6806 Si
65 2 0.000419324 8.74564 0.137203 4.2986 H
118 3 -0.762714 8.14964 0.825039 7.64989 O
123 3 -0.753702 6.21304 2.64632 7.59307 O
128 3 -0.787188 8.07894 2.47831 5.40863 O
137 3 -0.65244 8.98736 2.28852 2.79738 O
35 4 1.04339 9.15751 1.81841 4.3535 Si
40 4 0.263664 7.80859 3.17609 2.12112 Si
52 1 -0.0880283 6.4956 5.25339 5.91516 C
96 2 0.0986979 6.6767 4.17121 5.95573 H
98 2 0.0328183 5.68204 5.62106 5.35002 H
89 2 0.0357815 6.11527 3.38993 3.56311 H
55 1 -0.106485 7.86724 5.18124 2.61431 C
105 2 0.0443291 6.86843 5.60844 2.4345 H
106 2 0.0324042 8.67056 5.61515 1.9404 H
107 2 0.0414266 8.14583 5.2117 3.64451 H
224 2 0.271486 8.2129 4.96895 8.30443 H
26 4 0.81931 7.7929 -0.514848 8.43452 Si
109 2 0.0925044 9.66401 4.22657 6.14926 H
97 2 0.0388606 7.43944 5.72409 5.68999 H
67 2 0.0280215 4.81295 5.07194 2.41593 H
11 2 0.0729879 13.3194 1.30198 3.58358 H
281 2 -0.00183428 11.056 4.96281 0.251058 H
330 2 0.018219 14.1125 1.13977 0.0978822 H
264 2 0.0699393 12.0762 4.78636 3.02353 H
56 1 -0.0839943 10.4593 4.9053 5.76628 C
59 2 0.0924784 10.9489 2.21529 1.84192 H
208 4 0.809336 13.1198 -0.448313 7.37639 Si
132 3 -0.770594 10.7297 1.99852 4.61542 O
110 2 0.0901355 11.322 4.45964 5.21252 H
222 2 0.139257 10.8681 -0.143794 7.84517 H
131 3 -0.710788 13.0191 3.09287 5.67936 O
133 3 -0.692364 12.2951 -0.0506474 5.58109 O
238 2 0.0591309 12.167 -0.163287 2.75272 H
129 3 -0.696668 13.9666 0.863034 7.90312 O
139 3 -0.792813 11.1315 1.67105 7.37984 O
72 2 0.0347983 11.1103 2.8003 1.39111 H
37 4 1.13294 11.7973 1.93331 5.8622 Si
42 4 0.314572 11.4146 5.15097 7.61661 Si
323 2 0.0668331 9.74735 0.213027 1.14299 H
108 2 0.0244033 10.1137 5.86141 5.40067 H
4 1 -0.124322 14.3669 1.59438 3.51375 C
162 2 0.0113879 10.063 5.74436 2.32263 H
223 2 0.304924 11.387 -0.242044 5.5613 H
50 1 -0.0897486 7.583 2.59767 10.4112 C
134 3 -0.667389 6.88815 -0.533623 17.1885 O
90 2 0.0965931 8.57782 2.92414 10.0962 H
91 2 0.0793333 7.3866 1.53598 10.256 H
92 2 0.036014 7.23372 2.97139 11.3539 H
33 4 0.601308 6.06794 1.64537 14.3559 Si
130 3 -0.693832 8.15375 -0.549715 10.5289 O
141 3 -0.644859 7.09272 2.50527 15.3165 O
31 4 0.725008 6.1986 3.45055 9.02318 Si
100 2 0.0330643 7.88196 -0.028032 13.727 H
282 2 0.0553768 8.88325 3.62812 15.9684 H
251 1 -0.111083 9.46526 4.37322 13.2047 C
43 4 0.53816 6.83427 2.54554 16.9647 Si
256 2 0.042442 9.08422 3.37526 13.1237 H
124 3 -0.635978 7.37262 5.30333 8.88026 O
38 4 0.253932 8.11832 0.48113 17.4776 Si
104 2 0.0486694 9.12303 0.970616 15.2756 H
142 3 -0.689198 6.4061 4.04595 17.4618 O
41 4 1.03889 11.0159 2.4878 8.80766 Si
68 2 0.0346592 10.8761 0.0913937 13.2434 H
257 2 0.0586457 9.62945 4.86761 12.2761 H
252 2 0.052092 12.6306 1.77462 13.5226 H
280 4 0.234938 10.3526 4.19887 16.6804 Si
54 1 -0.0977956 9.62172 0.461643 16.0974 C
254 2 0.0155194 10.8272 1.68846 13.5206 H
249 4 0.600866 11.4444 4.12506 13.8989 Si
138 3 -0.768131 10.5386 1.66678 10.0626 O
331 3 -0.627212 11.5022 4.24532 15.5225 O
39 4 0.618942 12.5199 -1.06256 9.80503 Si
36 4 0.805871 9.9768 0.109485 10.1287 Si
135 3 -0.672852 13.243 0.28238 10.3756 O
20 4 0.892312 13.6971 1.59785 9.4231 Si
253 2 0.100246 11.717 2.29412 12.0421 H
140 3 -0.684518 10.9533 4.08919 8.79157 O
304 1 -0.126824 13.1643 -0.551996 16.9639 C
305 2 0.0225137 13.4908 0.0418795 16.1344 H
250 1 -0.0997739 11.7068 2.16262 13.1204 C
306 2 0.036013 12.2899 -0.222537 17.4859 H
103 2 0.0176354 10.3916 1.05616 16.5788 H
102 2 0.106213 9.89314 -0.56278 15.8723 H
75 2 0.0531445 14.4008 0.119154 13.3797 H
136 3 -0.756346 10.9573 -1.07445 9.57488 O
294 2 0.0487746 5.35398 7.39873 2.34788 H
209 4 0.499075 3.55753 10.7311 4.14457 Si
206 4 0.262285 2.92017 8.75277 2.91887 Si
292 2 0.0345565 3.69119 7.06656 1.59646 H
243 3 -0.61178 1.76294 10.8624 5.06293 O
246 3 -0.691091 4.89955 10.0566 4.76862 O
295 1 -0.101136 0.927091 12.4921 0.810643 C
297 2 0.0789407 0.00671308 12.8176 0.402727 H
298 1 -0.0814957 0.713528 11.1331 7.49483 C
237 2 0.0344882 5.00548 11.5004 2.39675 H
291 1 -0.12473 4.57578 7.71055 1.6781 C
51 1 -0.0986277 4.20549 6.02887 8.10895 C
296 2 0.0101431 0.896997 11.697 1.56191 H
214 1 -0.103498 2.23434 8.29359 7.19011 C
248 3 -0.794735 5.42394 11.1058 7.33618 O
211 4 1.02863 5.46857 9.86948 6.33324 Si
293 2 0.00829644 4.66613 8.72175 1.25476 H
300 2 0.0779933 1.64444 11.6656 7.36121 H
236 2 0.00743375 3.21288 11.6195 1.81912 H
276 2 0.0330093 4.37931 10.827 0.0943418 H
216 1 -0.120597 4.00031 11.8694 2.52564 C
313 2 0.195576 1.05736 10.767 4.19004 H
93 2 0.0410577 3.92221 6.71984 7.309 H
232 2 0.0418214 3.2331 8.70202 7.26355 H
229 2 0.0222676 2.11621 9.20662 0.635397 H
69 2 0.113177 7.29392 8.04064 5.10606 H
205 4 0.12509 7.51513 11.6373 3.26466 Si
193 3 -0.59273 8.81717 10.1058 5.63358 O
244 3 -0.639327 9.02844 7.44965 7.18018 O
247 3 -0.718883 6.29849 8.5151 6.8282 O
218 2 0.0730904 6.93594 7.69786 4.60219 H
301 1 -0.121779 10.1391 8.05737 0.0318909 C
277 2 0.0156914 5.99875 11.6155 0.113657 H
73 2 0.288741 6.3456 9.6934 3.15527 H
245 3 -0.64016 7.2955 9.57234 2.83279 O
210 4 0.5141 7.35474 8.04649 7.95267 Si
32 4 0.285511 6.29743 5.95093 7.86667 Si
143 4 0.319433 7.69181 11.3001 5.68679 Si
265 2 0.243866 8.62914 7.56729 6.23497 H
169 2 0.234039 7.13417 9.60288 1.84499 H
303 2 0.0363988 9.31348 7.90827 0.750601 H
160 1 -0.138173 3.04503 9.0335 10.6291 C
187 2 0.0363769 4.62502 7.0063 12.5629 H
202 3 -0.630689 2.17861 8.60965 13.5594 O
189 2 0.0143474 4.02164 8.96427 11.1078 H
190 2 0.0589391 2.89064 9.88731 9.99674 H
268 4 0.273459 1.67747 9.65123 16.7063 Si
269 4 0.298286 4.28844 10.7968 16.0039 Si
185 2 0.0538454 3.78756 5.55503 11.8854 H
279 3 -0.548317 2.67421 10.7494 16.0467 O
158 1 -0.109233 4.04154 6.12213 12.7771 C
152 4 0.599891 1.69423 9.2104 12.1593 Si
314 2 4.00024e-06 4.52208 10.9772 11.141 H
172 2 -0.00314817 1.68437 10.946 12.3229 H
278 2 0.0713018 5.39825 8.49742 16.2803 H
271 1 -0.110139 5.06713 9.17994 17.0401 C
191 2 0.0273266 2.7011 8.10735 10.2183 H
173 2 0.228973 0.06211 11.5534 10.6123 H
307 1 -0.0949424 5.06723 10.3962 14.0708 C
275 2 0.091132 0.433564 10.0905 14.6106 H
272 2 0.0336917 2.46707 8.1299 16.7593 H
310 2 0.0668478 4.15457 10.2907 13.4836 H
30 4 0.756749 5.059 4.87122 17.2931 Si
186 2 0.0653337 4.422 5.51729 13.5986 H
94 2 0.0441314 4.04633 6.35816 9.12678 H
66 2 0.242532 6.57351 6.46292 16.3937 H
221 2 0.254467 6.40963 5.48734 15.4231 H
309 2 0.0455405 5.62931 11.2865 13.8482 H
290 2 0.0223384 8.10893 7.40435 14.9784 H
308 2 0.0452524 5.67152 9.51832 14.1129 H
127 3 -0.687543 5.78309 6.21403 15.891 O
289 2 0.0553113 7.11444 7.96442 13.559 H
318 2 0.013412 7.17957 9.83046 16.3762 H
240 2 0.0421628 6.45369 7.67902 10.3986 H
302 2 0.0247895 9.71758 6.6748 16.7263 H
288 2 0.0412465 8.87393 7.50664 13.3566 H
287 1 -0.10637 8.09787 7.87436 14.0077 C
217 1 -0.1065 7.18289 8.38456 9.99926 C
239 2 0.061827 8.14742 8.29742 10.4561 H
241 2 0.0406363 6.82182 9.39648 9.95182 H
255 2 0.0359291 9.00193 4.97448 13.9407 H
ITEM: TIMESTEP
100
ITEM: NUMBER OF ATOMS
331
ITEM: BOX BOUNDS xy xz yz pp pp pp
-8.3499999999999996e+00 1.5708700000000000e+01 -8.2042000000000002e+00
-2.0457120000000000e+00 1.3348536000000001e+01 -1.4580000000000001e-01
0.0000000000000000e+00 1.7524799999999999e+01 -2.0457120000000000e+00
ITEM: ATOMS id type q x y z element
1 4 0.614036 -1.4587 3.18609 4.72263 Si
2 4 0.276525 -0.366859 4.951 2.66311 Si
3 1 -0.122138 0.20977 2.97822 5.83354 C
6 1 -0.124936 -1.16416 4.67644 0.734047 C
8 2 0.03508 0.62115 3.95861 5.85692 H
9 2 0.00899435 0.761916 2.27052 5.2291 H
10 2 0.0798213 -0.133526 2.56304 6.76146 H
17 2 0.0342353 -1.90914 5.46191 0.610414 H
18 3 -0.606234 -1.36341 4.60946 3.88508 O
285 2 0.0135475 0.733623 3.40336 1.05787 H
16 2 0.0199563 -0.317716 4.84877 0.0683688 H
283 1 -0.115635 1.20206 2.58695 0.563055 C
111 2 0.0517449 -1.63693 4.69251 7.89951 H
315 2 0.0183657 -1.11737 1.8912 2.46805 H
15 2 0.0271964 -1.56561 3.65455 0.718215 H
87 2 0.0691485 5.02516 3.03734 2.14234 H
284 2 0.0327432 0.544065 1.80296 0.212754 H
5 1 -0.110709 1.67508 4.76442 3.04506 C
57 1 -0.0924024 -2.13191 5.48986 7.37207 C
317 2 0.0267849 1.80931 0.09626 3.10268 H
329 2 0.0852348 -2.00937 5.40403 6.29438 H
316 2 0.0158161 -0.605218 0.939 3.95054 H
225 2 0.0217998 0.899431 -0.0592706 1.50538 H
82 2 0.0887691 4.61147 1.16142 7.73734 H
321 2 0.0300412 4.08796 0.334101 1.5782 H
81 2 0.0699507 3.24257 0.153472 8.48299 H
47 1 -0.103101 3.58714 1.1251 8.12968 C
14 2 0.0213721 1.99964 3.79505 2.69354 H
88 2 0.065542 5.95956 1.43918 2.45068 H
83 2 0.0261803 2.85755 1.70465 7.59684 H
12 2 0.0534418 1.74894 4.87876 4.12405 H
49 1 -0.0914406 5.74153 2.47953 2.75443 C
167 2 0.290595 5.30414 -0.01099 6.31244 H
286 2 0.0511284 2.10701 2.23474 1.03626 H
13 2 0.05243 2.08981 5.57626 2.46305 H
24 4 0.108159 4.64479 1.58432 4.55708 Si
45 1 -0.111673 3.71506 3.14098 5.65472 C
312 2 0.0226792 3.44538 0.579154 3.80604 H
78 2 0.0227828 2.71164 2.79557 5.82471 H
79 2 0.0256698 3.78228 4.05092 5.08841 H
80 2 0.0803945 4.34181 3.15419 6.54493 H
117 3 -0.635945 5.90244 0.417784 5.65438 O
22 4 0.800797 0.872906 1.76476 10.5558 Si
23 4 0.400347 0.213996 2.08432 12.8782 Si
34 4 0.350065 -1.3985 4.24309 13.7688 Si
44 1 -0.0819923 -0.394973 0.387023 14.0294 C
168 2 0.262386 0.163461 -0.471465 11.245 H
77 2 0.114089 0.205152 -0.466065 13.6721 H
112 3 -0.712636 -0.415898 2.43399 9.83829 O
113 3 -0.703668 1.05993 -0.216096 10.8679 O
126 3 -0.575972 -0.962513 3.15235 12.6006 O
183 2 0.0748277 0.515718 4.8668 10.9013 H
76 2 0.0497539 -0.283388 0.621966 15.081 H
101 2 0.0445814 6.07245 -0.545414 13.0933 H
134 3 -0.657457 6.73752 -0.529114 17.3298 O
60 2 0.10262 -2.51147 4.22046 10.9788 H
71 2 0.0903043 -1.89752 3.93943 10.4871 H
64 2 0.0954515 1.46475 3.96971 8.83909 H
99 2 0.0716387 7.0302 -0.888112 14.602 H
266 3 -0.681545 4.45136 0.749052 17.4808 O
120 3 -0.764158 4.46578 -1.00894 15.4789 O
85 2 0.0496189 4.63015 1.03729 12.0515 H
19 4 0.29637 1.82475 1.37971 16.3131 Si
122 3 -0.660577 4.8853 3.46697 9.87227 O
53 1 -0.103682 6.8804 -0.26027 13.7405 C
267 3 -0.699026 3.71082 4.2096 16.5003 O
114 3 -0.687527 2.03831 2.98506 13.3521 O
311 2 0.258942 3.89898 4.15881 15.4039 H
86 2 0.0579046 5.63746 0.695585 10.5862 H
171 2 0.324215 2.4301 3.14785 12.4543 H
263 4 0.552473 4.1086 2.0442 16.5457 Si
63 2 0.288258 2.56548 2.10745 13.7071 H
25 4 0.949852 5.15817 -0.723126 16.9846 Si
27 4 0.583427 3.77507 2.20788 9.9389 Si
29 4 1.18035 3.46975 -0.242196 14.4623 Si
48 1 -0.0875107 4.66219 0.713659 11.023 C
84 2 0.102309 4.08087 -0.179408 10.8007 H
125 3 -0.687085 4.52408 1.66081 14.5586 O
116 3 -0.675181 2.29697 2.66907 10.5105 O
119 3 -0.822626 3.15509 -0.929479 12.9952 O
121 3 -0.688702 2.09743 0.168097 15.2311 O
262 2 0.0903146 1.48595 -1.67823 16.2055 H
166 2 0.119195 0.112768 -1.00916 8.88144 H
20 4 0.875144 -1.76336 1.75557 9.30556 Si
144 4 0.278189 -4.18041 8.10086 4.31118 Si
146 4 0.613664 -3.91146 10.3258 6.20181 Si
147 4 0.708767 -6.16669 9.55571 6.81609 Si
46 1 -0.129537 -3.7606 12.8157 0.766434 C
192 3 -0.598124 -3.73939 9.58862 4.74613 O
61 2 0.0788307 -4.77021 10.0498 2.8407 H
195 3 -0.730039 -6.0635 10.1923 8.29425 O
199 3 -0.731494 -3.07262 9.65075 7.44212 O
299 2 0.0822395 0.448092 10.3014 8.17679 H
212 1 -0.10676 -6.80257 12.5593 2.33879 C
154 1 -0.104965 -2.84183 7.36873 2.96597 C
325 2 0.0285743 -4.51597 8.31839 0.549158 H
174 2 0.0317647 -2.34051 8.22122 2.53253 H
151 4 1.37997 -2.43319 10.5668 8.68186 Si
175 2 0.0214789 -3.44352 6.82063 2.24816 H
163 2 0.0119312 -4.30244 7.16608 5.78922 H
180 2 0.0737011 -5.04886 7.70635 8.45479 H
219 2 0.045808 -4.13636 10.234 2.45867 H
322 2 0.0253072 -2.91849 12.1821 1.01092 H
226 2 0.0491965 -6.10881 11.7648 2.14065 H
320 2 0.032749 -4.53349 12.3167 0.19057 H
164 2 0.00598465 -1.09863 9.46513 0.147933 H
74 2 0.0439157 -1.11961 10.8085 3.58597 H
328 2 0.0396823 -1.9658 6.46974 7.77487 H
324 2 0.0719612 -0.186333 10.9935 6.66821 H
176 2 0.0768143 -2.26004 6.73627 3.60734 H
70 2 0.0221826 -1.11939 10.9983 2.9731 H
7 2 0.0200905 -0.254759 6.70299 2.60921 H
213 1 -0.123109 1.50837 9.05121 1.55219 C
227 2 0.016321 0.819135 9.63448 2.12316 H
228 2 0.0380393 1.11498 8.06613 1.31671 H
200 3 -0.777232 -1.95525 12.0518 8.29929 O
207 4 0.448758 1.73609 8.6884 5.192 Si
230 2 0.0364215 2.2079 7.15202 7.11862 H
215 1 -0.0978302 -0.30082 8.21499 5.24428 C
234 2 0.0659772 -0.710477 8.28162 6.24449 H
233 2 0.0500241 -0.742014 8.87459 4.52318 H
242 3 -0.556902 2.42692 7.77895 4.06208 O
231 2 0.0381656 1.60177 8.72548 7.73363 H
235 2 0.0549811 -0.156792 7.17708 4.90187 H
193 3 -0.621175 -6.8302 10.2576 5.51062 O
148 4 1.05184 -5.11196 9.89225 9.62705 Si
165 2 -0.00409546 -3.84026 7.76915 12.2204 H
179 2 0.0286966 -3.45988 8.44707 15.2042 H
181 2 0.0499076 -3.43273 8.00913 9.20706 H
194 3 -0.660305 -3.38536 5.32274 13.0235 O
196 3 -0.776367 -5.76754 10.1269 11.1225 O
201 3 -0.831614 -3.75544 10.7105 9.55153 O
258 4 0.292517 -7.0921 9.82261 14.3001 Si
260 2 0.0329253 -5.36644 9.90712 14.6913 H
21 4 1.20449 -6.13198 11.4014 12.0554 Si
155 1 -0.118561 -3.61681 7.38866 15.2799 C
115 3 -0.654478 -7.36715 10.774 12.9947 O
178 2 0.0319852 -4.63265 7.0187 15.2469 H
177 2 0.0526048 -2.94134 6.79833 15.8853 H
145 4 0.607139 -2.97873 6.84262 13.3989 Si
156 1 -0.120694 -4.49175 7.92225 9.33965 C
275 2 0.100004 0.360177 9.91866 14.6741 H
327 2 0.0624443 -3.56396 9.58001 11.98 H
159 1 -0.0970969 -2.61665 10.0164 12.2414 C
319 2 0.0395807 -4.79315 7.41636 10.2327 H
259 1 -0.10546 -7.56045 10.7536 16.1333 C
153 4 0.684481 -1.13813 9.24581 10.8982 Si
184 2 0.0602666 0.844527 6.63894 10.6896 H
149 4 0.449491 -0.236454 6.17027 12.9365 Si
188 2 0.0697419 -2.5613 11.047 11.9187 H
273 2 0.0479147 -0.688337 10.0558 16.149 H
170 2 0.286608 1.60228 4.95934 14.3818 H
203 3 -0.779456 -1.17157 9.71523 9.35627 O
198 3 -0.661617 1.27178 5.96485 14.5452 O
270 1 -0.0696613 0.085178 9.49832 15.6295 C
150 4 0.597565 2.23749 6.99087 13.7122 Si
157 1 -0.0909606 0.128489 5.86967 10.926 C
182 2 0.0410299 -0.81362 5.99574 10.4129 H
204 3 -0.678791 0.237634 8.76171 11.4858 O
326 2 0.0594794 -2.24583 9.82774 13.2356 H
274 2 0.0749799 -0.0621663 8.42151 15.6162 H
197 3 -0.610159 -1.41137 7.22989 13.3688 O
58 2 0.063163 -0.247999 5.89078 16.3959 H
220 2 0.0289142 -0.292598 5.31937 16.8452 H
28 4 1.22259 7.15225 1.80365 6.59857 Si
65 2 -0.00787993 9.11977 0.228017 4.44865 H
118 3 -0.749027 7.99031 0.940456 7.70691 O
123 3 -0.765935 6.28447 2.71702 7.59877 O
128 3 -0.782865 8.13134 2.50041 5.46104 O
137 3 -0.669587 8.92339 2.24967 2.77514 O
35 4 1.00408 9.21199 1.9158 4.33863 Si
40 4 0.268916 7.79192 3.18871 2.10296 Si
52 1 -0.0927601 6.6692 5.30359 5.64769 C
96 2 0.0972494 6.98857 4.28962 5.57383 H
98 2 0.0286712 5.64249 5.54029 5.31427 H
89 2 0.0344606 6.0733 3.03909 3.60562 H
55 1 -0.111916 8.2249 5.19931 2.44173 C
105 2 0.0586173 7.37623 5.67977 2.05893 H
106 2 0.0244236 9.14039 5.35098 1.93207 H
107 2 0.0337783 8.36212 5.2119 3.51696 H
224 2 0.278237 8.36545 4.89571 8.52071 H
26 4 0.801873 7.77968 -0.457571 8.49484 Si
109 2 0.124633 9.81365 4.09935 5.93079 H
162 2 0.0102736 10.4751 6.00889 2.3773 H
67 2 0.0298197 4.48405 5.17999 3.08885 H
11 2 0.0520686 13.3574 1.10554 3.55324 H
281 2 -0.00516663 10.7421 4.89026 0.229182 H
97 2 0.0254733 7.40864 5.93095 5.20137 H
306 2 0.0359525 12.5948 1.31031 0.472107 H
56 1 -0.0726761 10.5027 4.91866 5.9262 C
59 2 0.0661572 11.3787 2.24188 2.52071 H
208 4 0.709099 13.0069 -0.520972 7.59396 Si
132 3 -0.753514 10.7647 2.2208 4.76229 O
110 2 0.0738858 11.2736 4.85212 5.14426 H
222 2 0.172073 9.8891 0.479625 6.85159 H
131 3 -0.692374 13.0199 3.05779 5.79586 O
133 3 -0.671012 12.1766 -0.181609 5.70353 O
264 2 0.0625266 12.4884 3.74377 2.76197 H
129 3 -0.671152 14.1364 0.732124 7.96969 O
139 3 -0.785452 11.0276 1.80426 7.38717 O
72 2 0.0835718 10.972 2.90996 2.47856 H
37 4 1.13325 11.8463 1.84111 5.97156 Si
42 4 0.335134 11.5503 5.07668 7.71978 Si
323 2 0.0744909 9.80713 0.320163 1.13937 H
38 4 0.275189 8.10621 2.50016 0.0127921 Si
4 1 -0.137695 14.348 1.55565 3.48149 C
50 1 -0.0742519 7.82806 2.56037 10.4002 C
136 3 -0.742898 10.9381 -0.905181 9.54124 O
90 2 0.0841528 8.49772 3.39207 10.5194 H
91 2 0.124056 8.19332 1.78201 9.78092 H
92 2 0.0260688 7.29729 2.23896 11.3086 H
33 4 0.625227 6.09646 1.59784 14.2687 Si
130 3 -0.695697 8.14348 -0.65244 10.5364 O
141 3 -0.671654 7.09309 2.27981 15.3436 O
31 4 0.761655 6.32113 3.3586 9.10203 Si
100 2 0.0401733 7.79459 0.0162565 13.2283 H
282 2 0.0443309 8.90951 3.76084 15.7872 H
251 1 -0.109686 9.40513 4.57087 13.2417 C
43 4 0.601903 6.74707 2.52285 16.9313 Si
256 2 0.0400051 8.96555 3.58759 13.332 H
124 3 -0.640872 7.42676 5.26702 8.87982 O
75 2 0.0343705 14.2828 0.374918 13.7124 H
104 2 0.0372595 9.62481 1.40857 15.7727 H
142 3 -0.70515 6.367 3.97184 17.4805 O
41 4 0.988164 11.108 2.40516 8.90682 Si
68 2 0.0253254 10.9995 0.0271857 13.3462 H
257 2 0.0629911 9.46025 4.96372 12.2314 H
252 2 0.0570249 12.777 2.0656 13.4862 H
280 4 0.220285 10.3741 4.22181 16.6403 Si
54 1 -0.0922164 9.65094 0.505217 16.356 C
254 2 0.0169817 11.0855 1.46321 13.5157 H
249 4 0.565417 11.4518 4.21629 13.8819 Si
138 3 -0.752993 10.2845 1.64514 10.0942 O
331 3 -0.606455 11.6118 4.28853 15.5272 O
39 4 0.53418 12.5218 -0.799025 9.86941 Si
36 4 0.840711 9.97725 0.0878066 10.277 Si
135 3 -0.665252 13.2818 0.634628 10.3622 O
261 2 0.0315578 15.4102 -1.81739 15.9636 H
253 2 0.0909081 11.743 2.39453 12.024 H
140 3 -0.644296 11.1704 4.0831 8.95891 O
304 1 -0.124139 13.1857 -0.768817 17.207 C
305 2 0.0268952 13.1757 0.0473808 16.4932 H
250 1 -0.1019 11.7942 2.24743 13.0896 C
62 2 0.0787295 12.2663 2.53979 15.8706 H
103 2 0.0332856 10.3861 0.538615 17.153 H
102 2 0.0924941 9.58354 -0.419745 15.778 H
95 2 0.104303 4.17222 5.0431 8.85888 H
330 2 0.0149319 14.1582 -1.08742 17.4972 H
294 2 0.0445682 5.26823 7.14053 2.33633 H
209 4 0.466418 3.73592 10.457 4.03779 Si
206 4 0.235627 2.98197 8.62788 2.72546 Si
292 2 0.0403991 3.69525 6.93243 1.3708 H
243 3 -0.626021 1.88046 10.7128 4.84125 O
246 3 -0.694556 5.00203 9.68918 4.73159 O
295 1 -0.106287 1.16919 12.4294 1.05772 C
297 2 0.052513 0.0788215 12.4341 0.997258 H
298 1 -0.0856738 0.554767 11.0815 7.45232 C
237 2 0.0367953 4.97526 12.0104 2.5859 H
291 1 -0.122086 4.60455 7.55822 1.58676 C
51 1 -0.0954879 4.49074 5.99651 8.42624 C
296 2 0.00735591 1.60261 11.7117 1.67817 H
214 1 -0.105518 2.30749 8.22109 7.1017 C
248 3 -0.728991 5.43369 11.0592 7.41383 O
211 4 1.00938 5.64273 9.90731 6.2364 Si
293 2 0.00930383 4.86779 8.57688 1.23772 H
300 2 0.071042 1.53741 11.2395 7.10286 H
236 2 0.00669257 3.51456 11.3087 1.68001 H
169 2 0.246291 7.28564 9.56741 1.85806 H
216 1 -0.126516 3.91068 11.7915 2.55669 C
313 2 0.209034 1.32742 10.9975 3.9412 H
93 2 0.0328588 3.99305 6.26902 7.52171 H
232 2 0.0632229 3.32533 8.58422 7.10241 H
303 2 0.0341624 9.51127 7.76456 0.869852 H
69 2 0.0905317 7.13911 8.10709 4.39591 H
205 4 0.126334 7.47417 11.6904 3.28558 Si
161 2 0.110031 7.40559 11.6811 8.69238 H
244 3 -0.665242 8.84074 7.51496 7.24237 O
247 3 -0.727159 6.2119 8.56838 6.96389 O
218 2 0.0918153 6.41702 7.81235 4.80422 H
301 1 -0.116234 10.2345 8.04971 0.125639 C
277 2 0.0206448 5.76271 11.4498 0.528731 H
73 2 0.262133 6.42805 9.30558 2.99077 H
245 3 -0.638382 7.40959 9.61451 2.80419 O
210 4 0.643687 7.322 7.93476 7.91467 Si
32 4 0.291273 6.39596 5.71931 7.72082 Si
143 4 0.315967 7.76479 11.402 5.52429 Si
265 2 0.209618 8.84737 7.4848 6.11785 H
229 2 0.0142114 1.92842 9.55323 0.707822 H
238 2 0.0460515 3.25676 12.5632 2.9271 H
223 2 0.27429 3.11907 12.2771 5.83202 H
108 2 0.02929 9.98519 5.88283 5.88024 H
160 1 -0.128633 3.039 8.78126 10.6826 C
187 2 0.0400293 4.64882 6.78214 12.6226 H
202 3 -0.639533 2.06069 8.62346 13.4038 O
189 2 0.0205958 3.93079 9.13855 11.1479 H
190 2 0.0459584 2.79049 9.29828 9.76477 H
268 4 0.2778 1.7268 9.81391 16.807 Si
269 4 0.297692 4.3063 10.6436 16.1629 Si
185 2 0.044287 3.42872 5.58608 11.9795 H
279 3 -0.553288 2.72482 10.8228 16.0884 O
158 1 -0.111926 3.89388 6.03579 12.843 C
152 4 0.660114 1.63476 9.30846 12.0336 Si
314 2 0.00253728 4.8309 10.7477 10.5226 H
172 2 -0.0164373 1.63886 11.0259 12.2449 H
278 2 0.0566806 5.91184 8.6513 16.444 H
271 1 -0.111504 5.19604 9.04152 17.1544 C
191 2 0.0273863 3.00639 7.69797 10.5979 H
173 2 0.250319 0.137375 11.4475 10.5436 H
307 1 -0.0922826 4.83574 10.6449 14.1546 C
276 2 0.0423894 4.38522 8.37751 17.3643 H
272 2 0.0448705 2.04872 8.14124 16.3058 H
310 2 0.0673374 3.89849 10.7171 13.6475 H
30 4 0.759057 5.00245 4.8442 17.2099 Si
186 2 0.0489112 4.14949 5.34445 13.628 H
94 2 0.0379577 4.56934 6.80011 9.15041 H
66 2 0.253699 6.82659 6.12115 16.3362 H
221 2 0.264877 6.10758 5.51532 15.2483 H
309 2 0.0388746 5.50722 11.4667 13.9952 H
290 2 0.0251276 8.23433 7.45882 14.9249 H
308 2 0.0461207 5.3081 9.6684 14.0934 H
127 3 -0.707236 5.9136 6.16838 15.9265 O
289 2 0.0568285 7.53836 7.79662 13.28 H
318 2 0.0167143 8.10797 9.94236 16.8562 H
240 2 0.0499983 7.09783 7.53821 10.3895 H
302 2 0.0261371 9.7024 6.74369 16.8938 H
288 2 0.0356334 9.34303 7.52036 13.4865 H
287 1 -0.107368 8.40216 7.82319 13.9244 C
217 1 -0.097455 7.39237 8.46572 9.92605 C
239 2 0.0764615 8.44076 8.65277 10.0702 H
241 2 0.0506504 6.81084 9.36741 10.0152 H
255 2 0.0291882 9.07718 5.29271 13.9843 H
ITEM: TIMESTEP
200
ITEM: NUMBER OF ATOMS
331
ITEM: BOX BOUNDS xy xz yz pp pp pp
-8.3499999999999996e+00 1.5708700000000000e+01 -8.2042000000000002e+00
-2.0858240000000006e+00 1.3610272000000000e+01 -1.4580000000000001e-01
0.0000000000000000e+00 1.7524799999999999e+01 -2.0858240000000006e+00
ITEM: ATOMS id type q x y z element
1 4 0.653962 -1.41039 3.08645 4.76297 Si
2 4 0.272514 -0.57015 5.07811 2.83586 Si
3 1 -0.119289 0.225542 2.86683 5.93443 C
6 1 -0.125994 -1.23671 4.76167 0.878634 C
8 2 0.0333082 0.529671 3.896 6.08127 H
9 2 0.00944733 0.897191 2.26779 5.37281 H
10 2 0.106519 -0.205035 2.35313 6.78247 H
17 2 0.0275728 -2.09479 5.40641 0.832357 H
18 3 -0.628973 -1.52511 4.49569 4.02569 O
285 2 0.0214204 1.14871 3.33937 1.12803 H
16 2 0.0233826 -0.390911 5.03796 0.273434 H
283 1 -0.111334 1.36037 2.46674 0.521751 C
111 2 0.0572524 -1.47097 4.9117 8.00334 H
315 2 0.0156986 -1.16501 2.05131 2.55814 H
15 2 0.0266327 -1.41629 3.69841 0.934199 H
87 2 0.0772573 4.85985 2.94217 2.1648 H
284 2 0.0257977 0.510068 1.91504 0.189434 H
5 1 -0.110089 1.45588 4.70735 3.11335 C
57 1 -0.0945276 -2.02591 5.5675 7.34428 C
317 2 0.0240635 2.05517 0.168396 2.74701 H
329 2 0.0853694 -1.98441 5.29645 6.30384 H
316 2 0.0206392 -0.587372 0.83103 3.78824 H
67 2 0.0382671 4.20247 5.19301 3.62936 H
82 2 0.0580362 4.1348 1.3622 7.58995 H
321 2 0.0251763 4.2217 0.206795 1.90217 H
81 2 0.0646012 3.28213 0.0627288 8.42711 H
47 1 -0.111011 3.36273 1.11192 8.25307 C
14 2 0.0216801 1.59401 3.82056 2.51297 H
88 2 0.0686716 6.10584 1.72952 2.69893 H
83 2 0.0359453 2.41128 1.56384 8.02236 H