ITEM: TIMESTEP
0
ITEM: NUMBER OF ATOMS
331
ITEM: BOX BOUNDS xy xz yz pp pp pp
-8.3499999999999996e+00 1.5708700000000000e+01 -8.2042000000000002e+00
-2.0055999999999998e+00 1.3086800000000000e+01 -1.4580000000000001e-01
0.0000000000000000e+00 1.7524799999999999e+01 -2.0055999999999998e+00
ITEM: ATOMS id type q x y z element
1 4 0.653283 -1.36514 3.22078 4.7465 Si
2 4 0.276903 -0.283433 4.93976 2.61508 Si
3 1 -0.129839 0.332372 3.00054 5.91051 C
6 1 -0.127436 -1.05542 4.70736 0.674151 C
8 2 0.0353768 0.63067 4.02491 6.12044 H
9 2 0.00852523 1.04177 2.44543 5.34102 H
10 2 0.0766292 -0.0765973 2.46816 6.75688 H
17 2 0.0297539 -1.85935 5.45281 0.638836 H
18 3 -0.613623 -1.29231 4.54254 3.81537 O
285 2 0.0152562 0.997359 3.10485 1.22498 H
166 2 0.0856782 0.707053 -0.688443 8.07324 H
283 1 -0.115365 1.32014 2.34092 0.566578 C
111 2 0.0645472 -1.85813 4.33627 7.86455 H
315 2 0.0226745 -0.98574 1.97843 2.53409 H
15 2 0.0301631 -1.40447 3.68424 0.586528 H
175 2 0.0348176 -3.26802 6.1416 2.95764 H
284 2 0.0286701 0.528399 1.69878 0.218866 H
5 1 -0.11836 1.79302 4.92176 3.00565 C
57 1 -0.0904312 -2.19314 5.31415 7.56586 C
317 2 0.019468 1.27693 0.508008 2.72304 H
329 2 0.0632768 -1.9662 5.53658 6.54706 H
316 2 0.0202023 -0.658528 0.912291 4.01972 H
95 2 0.0691155 3.88572 5.00717 7.94066 H
82 2 0.0992416 4.67441 0.91552 8.05965 H
321 2 0.0319016 3.95975 0.161147 1.25751 H
81 2 0.0778712 3.14308 0.0748856 8.64073 H
47 1 -0.0982532 3.60456 0.995923 8.26225 C
14 2 0.0245306 1.89147 4.12469 3.73401 H
88 2 0.0678234 6.40865 1.62954 3.11754 H
83 2 0.0254175 2.99015 1.57405 7.5498 H
12 2 0.0825685 2.00728 5.90604 3.40495 H
49 1 -0.0980312 5.85831 2.55834 2.94905 C
167 2 0.288721 5.35872 0.0410237 6.42359 H
286 2 0.0551294 2.24926 1.86508 0.850839 H
13 2 0.0267595 2.24368 4.7136 2.04143 H
24 4 0.139725 4.60935 1.5738 4.55926 Si
45 1 -0.105364 4.07694 3.44731 5.33699 C
312 2 0.014816 3.2443 0.694156 3.92863 H
78 2 0.0285775 3.1585 3.17165 5.82561 H
79 2 0.0221444 3.98401 4.06393 4.44918 H
80 2 0.0752082 4.82789 3.73043 6.0404 H
117 3 -0.613454 5.87003 0.491926 5.66692 O
87 2 0.0624673 5.08289 2.6283 2.19009 H
22 4 0.799411 0.827711 1.60009 10.5172 Si
23 4 0.400806 0.240885 2.14808 12.835 Si
34 4 0.346154 -1.3021 4.21982 13.8654 Si
44 1 -0.0798166 -0.439801 0.499008 13.9102 C
168 2 0.280841 0.173157 -0.773206 10.8048 H
77 2 0.121964 0.387438 -0.219868 13.8975 H
112 3 -0.684407 -0.588096 2.17775 9.91989 O
113 3 -0.697038 1.09208 -0.396797 10.7244 O
126 3 -0.555464 -0.977992 3.21329 12.6187 O
183 2 0.0781153 -0.119192 4.88293 10.5907 H
76 2 0.0275014 -0.685462 0.974958 14.8539 H
62 2 0.0739668 -2.90663 2.81998 16.0056 H
261 2 0.0483935 -0.180955 -1.60254 15.7054 H
60 2 0.107846 -3.28941 4.6022 10.919 H
71 2 0.059642 -2.84706 4.74767 10.2011 H
64 2 0.123293 1.61114 3.7005 9.1288 H
16 2 0.0109067 -0.406316 2.97889 17.5061 H
266 3 -0.6951 4.49083 0.588132 17.3924 O
120 3 -0.764403 4.65629 -0.996227 15.3741 O
85 2 0.0508241 4.7675 1.60727 12.0402 H
19 4 0.291445 1.89424 1.4373 16.3509 Si
122 3 -0.640137 4.66604 3.56631 9.71345 O
53 1 -0.109951 6.82149 -0.125913 13.7535 C
267 3 -0.690327 3.75193 4.15452 16.5861 O
114 3 -0.698892 1.98524 3.10721 13.5653 O
311 2 0.278337 3.9243 4.23109 15.5167 H
86 2 0.0543719 5.51654 0.721328 10.6666 H
171 2 0.307079 2.46847 2.9786 12.6771 H
263 4 0.521274 4.23958 1.998 16.5182 Si
63 2 0.331437 2.4328 2.33051 14.0568 H
25 4 0.967987 5.28885 -0.744877 16.9099 Si
27 4 0.565816 3.66425 2.27768 9.95537 Si
29 4 1.13967 3.57602 -0.214391 14.4026 Si
48 1 -0.0919086 4.61175 0.978631 11.19 C
84 2 0.110545 3.90418 0.193492 11.3573 H
125 3 -0.672458 4.48013 1.74436 14.4342 O
116 3 -0.690646 2.11276 2.59387 10.5521 O
119 3 -0.79066 3.34062 -0.935656 12.9451 O
121 3 -0.673162 2.1811 0.454874 15.0279 O
101 2 0.043074 6.35568 -0.235523 12.7695 H
99 2 0.0949108 6.51371 -0.763163 14.5707 H
144 4 0.266856 -4.22914 7.96665 4.42049 Si
146 4 0.638344 -3.82069 10.278 6.11437 Si
147 4 0.659937 -6.03363 9.52958 6.91544 Si
46 1 -0.132502 -3.4327 12.7529 0.729362 C
192 3 -0.599628 -3.8841 9.55521 4.66772 O
61 2 0.053423 -5.59022 9.49486 2.28755 H
195 3 -0.691239 -5.88373 10.4055 8.30066 O
199 3 -0.737886 -2.92216 9.65581 7.31374 O
161 2 0.101373 -7.83365 12.1045 8.28007 H
212 1 -0.109891 -6.85199 12.5183 2.48042 C
154 1 -0.0946149 -2.73967 7.03732 3.35246 C
325 2 0.0227164 -4.58566 8.30135 0.473945 H
174 2 0.0290733 -2.52343 7.84514 2.67765 H
151 4 1.31872 -2.41312 10.4764 8.64937 Si
225 2 0.0258454 -7.02564 12.3572 1.40582 H
163 2 0.0187964 -3.88515 7.05869 5.8984 H
180 2 0.06548 -4.78197 7.5244 8.44692 H
219 2 0.0646701 -4.97798 9.75488 2.52386 H
322 2 0.0293362 -2.56803 12.512 1.33134 H
226 2 0.0512346 -5.92647 12.0999 2.89337 H
320 2 0.0263114 -3.7473 11.9573 0.0692746 H
164 2 0.00712761 -1.29811 9.28724 0.423266 H
74 2 0.0396781 -1.92335 10.875 2.99616 H
328 2 0.0382494 -1.93955 6.10295 8.26922 H
324 2 0.0834328 0.162279 10.9179 6.60079 H
176 2 0.0722666 -2.03422 6.83245 4.16125 H
70 2 0.0291093 -1.8652 10.3507 2.81344 H
7 2 0.0211696 -0.160231 6.66957 2.81475 H
213 1 -0.12933 1.50441 8.96944 1.4977 C
227 2 0.00870811 0.911424 9.78652 1.89684 H
228 2 0.0321251 1.0245 8.01135 1.52414 H
200 3 -0.770358 -1.89955 12.04 8.26778 O
207 4 0.407201 1.54758 8.8239 5.3498 Si
230 2 0.0403477 2.17583 7.21209 7.1555 H
215 1 -0.0985918 -0.477609 8.23198 5.16826 C
234 2 0.0769533 -0.902856 8.96095 5.83784 H
233 2 0.0311878 -0.703045 8.42237 4.12849 H
242 3 -0.565092 2.43188 8.00072 4.2322 O
231 2 0.0416358 1.47737 8.73592 7.82839 H
235 2 0.0477844 -0.542242 7.23373 5.51232 H
299 2 0.0530849 0.732243 10.3056 8.18433 H
148 4 0.992959 -5.05808 9.84269 9.69893 Si
165 2 0.00914805 -3.93575 7.72022 12.5155 H
179 2 0.0340595 -2.66864 7.99173 15.7905 H
181 2 0.0535911 -3.43017 7.87532 9.57502 H
194 3 -0.664134 -3.34764 5.17813 13.0925 O
196 3 -0.734155 -5.62534 10.0863 11.2471 O
201 3 -0.793433 -3.66811 10.5938 9.6479 O
258 4 0.295611 -7.00981 9.82254 14.3804 Si
260 2 0.030521 -5.29968 9.83001 14.6708 H
21 4 1.16256 -6.12261 11.4038 12.1391 Si
155 1 -0.128287 -3.50697 7.35961 15.4621 C
115 3 -0.673598 -7.27349 10.8566 13.1397 O
178 2 0.0127845 -4.44101 7.88563 15.2819 H
177 2 0.0640232 -3.58708 6.42128 15.9906 H
145 4 0.60444 -2.98521 6.71344 13.5478 Si
156 1 -0.117666 -4.48627 7.82333 9.43126 C
262 2 0.0351003 -7.03956 10.8312 16.7614 H
327 2 0.111085 -3.3438 10.1241 11.9478 H
159 1 -0.082214 -2.36661 10.4162 12.3172 C
319 2 0.0456939 -5.01761 7.29694 10.1926 H
259 1 -0.11428 -7.88564 10.6322 16.1021 C
153 4 0.64045 -1.00988 9.4246 10.9777 Si
184 2 0.0390259 1.1639 6.18602 10.6696 H
149 4 0.486026 -0.257776 6.05852 12.8793 Si
188 2 0.0641172 -2.17175 11.4759 12.2169 H
273 2 0.0352571 -0.763229 9.73404 15.9173 H
170 2 0.301526 1.58104 4.94929 14.2476 H
203 3 -0.736266 -1.26171 9.47936 9.36624 O
198 3 -0.670496 1.29495 5.9433 14.4326 O
270 1 -0.0619393 0.118656 9.40955 15.3931 C
150 4 0.599897 2.29674 6.96256 13.6171 Si
157 1 -0.0821791 0.133887 5.91029 10.8455 C
182 2 0.0768607 -0.548735 6.64555 10.456 H
204 3 -0.649346 0.238602 8.65288 11.6342 O
326 2 0.0563128 -2.13518 10.015 13.3013 H
274 2 0.112168 0.129997 8.37065 15.0955 H
197 3 -0.612513 -1.44237 7.07255 13.3118 O
58 2 0.0324339 0.164312 4.75894 16.4855 H
220 2 0.077068 0.832051 4.71331 16.3531 H
28 4 1.18908 7.25986 1.78335 6.6806 Si
65 2 0.000419324 8.74564 0.137203 4.2986 H
118 3 -0.762714 8.14964 0.825039 7.64989 O
123 3 -0.753702 6.21304 2.64632 7.59307 O
128 3 -0.787188 8.07894 2.47831 5.40863 O
137 3 -0.65244 8.98736 2.28852 2.79738 O
35 4 1.04339 9.15751 1.81841 4.3535 Si
40 4 0.263664 7.80859 3.17609 2.12112 Si
52 1 -0.0880283 6.4956 5.25339 5.91516 C
96 2 0.0986979 6.6767 4.17121 5.95573 H
98 2 0.0328183 5.68204 5.62106 5.35002 H
89 2 0.0357815 6.11527 3.38993 3.56311 H
55 1 -0.106485 7.86724 5.18124 2.61431 C
105 2 0.0443291 6.86843 5.60844 2.4345 H
106 2 0.0324042 8.67056 5.61515 1.9404 H
107 2 0.0414266 8.14583 5.2117 3.64451 H
224 2 0.271486 8.2129 4.96895 8.30443 H
26 4 0.81931 7.7929 -0.514848 8.43452 Si
109 2 0.0925044 9.66401 4.22657 6.14926 H
97 2 0.0388606 7.43944 5.72409 5.68999 H
67 2 0.0280215 4.81295 5.07194 2.41593 H
11 2 0.0729879 13.3194 1.30198 3.58358 H
281 2 -0.00183428 11.056 4.96281 0.251058 H
330 2 0.018219 14.1125 1.13977 0.0978822 H
264 2 0.0699393 12.0762 4.78636 3.02353 H
56 1 -0.0839943 10.4593 4.9053 5.76628 C
59 2 0.0924784 10.9489 2.21529 1.84192 H
208 4 0.809336 13.1198 -0.448313 7.37639 Si
132 3 -0.770594 10.7297 1.99852 4.61542 O
110 2 0.0901355 11.322 4.45964 5.21252 H
222 2 0.139257 10.8681 -0.143794 7.84517 H
131 3 -0.710788 13.0191 3.09287 5.67936 O
133 3 -0.692364 12.2951 -0.0506474 5.58109 O
238 2 0.0591309 12.167 -0.163287 2.75272 H
129 3 -0.696668 13.9666 0.863034 7.90312 O
139 3 -0.792813 11.1315 1.67105 7.37984 O
72 2 0.0347983 11.1103 2.8003 1.39111 H
37 4 1.13294 11.7973 1.93331 5.8622 Si
42 4 0.314572 11.4146 5.15097 7.61661 Si
323 2 0.0668331 9.74735 0.213027 1.14299 H
108 2 0.0244033 10.1137 5.86141 5.40067 H
4 1 -0.124322 14.3669 1.59438 3.51375 C
162 2 0.0113879 10.063 5.74436 2.32263 H
223 2 0.304924 11.387 -0.242044 5.5613 H
50 1 -0.0897486 7.583 2.59767 10.4112 C
134 3 -0.667389 6.88815 -0.533623 17.1885 O
90 2 0.0965931 8.57782 2.92414 10.0962 H
91 2 0.0793333 7.3866 1.53598 10.256 H
92 2 0.036014 7.23372 2.97139 11.3539 H
33 4 0.601308 6.06794 1.64537 14.3559 Si
130 3 -0.693832 8.15375 -0.549715 10.5289 O
141 3 -0.644859 7.09272 2.50527 15.3165 O
31 4 0.725008 6.1986 3.45055 9.02318 Si
100 2 0.0330643 7.88196 -0.028032 13.727 H
282 2 0.0553768 8.88325 3.62812 15.9684 H
251 1 -0.111083 9.46526 4.37322 13.2047 C
43 4 0.53816 6.83427 2.54554 16.9647 Si
256 2 0.042442 9.08422 3.37526 13.1237 H
124 3 -0.635978 7.37262 5.30333 8.88026 O
38 4 0.253932 8.11832 0.48113 17.4776 Si
104 2 0.0486694 9.12303 0.970616 15.2756 H
142 3 -0.689198 6.4061 4.04595 17.4618 O
41 4 1.03889 11.0159 2.4878 8.80766 Si
68 2 0.0346592 10.8761 0.0913937 13.2434 H
257 2 0.0586457 9.62945 4.86761 12.2761 H
252 2 0.052092 12.6306 1.77462 13.5226 H
280 4 0.234938 10.3526 4.19887 16.6804 Si
54 1 -0.0977956 9.62172 0.461643 16.0974 C
254 2 0.0155194 10.8272 1.68846 13.5206 H
249 4 0.600866 11.4444 4.12506 13.8989 Si
138 3 -0.768131 10.5386 1.66678 10.0626 O
331 3 -0.627212 11.5022 4.24532 15.5225 O
39 4 0.618942 12.5199 -1.06256 9.80503 Si
36 4 0.805871 9.9768 0.109485 10.1287 Si
135 3 -0.672852 13.243 0.28238 10.3756 O
20 4 0.892312 13.6971 1.59785 9.4231 Si
253 2 0.100246 11.717 2.29412 12.0421 H
140 3 -0.684518 10.9533 4.08919 8.79157 O
304 1 -0.126824 13.1643 -0.551996 16.9639 C
305 2 0.0225137 13.4908 0.0418795 16.1344 H
250 1 -0.0997739 11.7068 2.16262 13.1204 C
306 2 0.036013 12.2899 -0.222537 17.4859 H
103 2 0.0176354 10.3916 1.05616 16.5788 H
102 2 0.106213 9.89314 -0.56278 15.8723 H
75 2 0.0531445 14.4008 0.119154 13.3797 H
136 3 -0.756346 10.9573 -1.07445 9.57488 O
294 2 0.0487746 5.35398 7.39873 2.34788 H
209 4 0.499075 3.55753 10.7311 4.14457 Si
206 4 0.262285 2.92017 8.75277 2.91887 Si
292 2 0.0345565 3.69119 7.06656 1.59646 H
243 3 -0.61178 1.76294 10.8624 5.06293 O
246 3 -0.691091 4.89955 10.0566 4.76862 O
295 1 -0.101136 0.927091 12.4921 0.810643 C
297 2 0.0789407 0.00671308 12.8176 0.402727 H
298 1 -0.0814957 0.713528 11.1331 7.49483 C
237 2 0.0344882 5.00548 11.5004 2.39675 H
291 1 -0.12473 4.57578 7.71055 1.6781 C
51 1 -0.0986277 4.20549 6.02887 8.10895 C
296 2 0.0101431 0.896997 11.697 1.56191 H
214 1 -0.103498 2.23434 8.29359 7.19011 C
248 3 -0.794735 5.42394 11.1058 7.33618 O
211 4 1.02863 5.46857 9.86948 6.33324 Si
293 2 0.00829644 4.66613 8.72175 1.25476 H
300 2 0.0779933 1.64444 11.6656 7.36121 H
236 2 0.00743375 3.21288 11.6195 1.81912 H
276 2 0.0330093 4.37931 10.827 0.0943418 H
216 1 -0.120597 4.00031 11.8694 2.52564 C
313 2 0.195576 1.05736 10.767 4.19004 H
93 2 0.0410577 3.92221 6.71984 7.309 H
232 2 0.0418214 3.2331 8.70202 7.26355 H
229 2 0.0222676 2.11621 9.20662 0.635397 H
69 2 0.113177 7.29392 8.04064 5.10606 H
205 4 0.12509 7.51513 11.6373 3.26466 Si
193 3 -0.59273 8.81717 10.1058 5.63358 O
244 3 -0.639327 9.02844 7.44965 7.18018 O
247 3 -0.718883 6.29849 8.5151 6.8282 O
218 2 0.0730904 6.93594 7.69786 4.60219 H
301 1 -0.121779 10.1391 8.05737 0.0318909 C
277 2 0.0156914 5.99875 11.6155 0.113657 H
73 2 0.288741 6.3456 9.6934 3.15527 H
245 3 -0.64016 7.2955 9.57234 2.83279 O
210 4 0.5141 7.35474 8.04649 7.95267 Si
32 4 0.285511 6.29743 5.95093 7.86667 Si
143 4 0.319433 7.69181 11.3001 5.68679 Si
265 2 0.243866 8.62914 7.56729 6.23497 H
169 2 0.234039 7.13417 9.60288 1.84499 H
303 2 0.0363988 9.31348 7.90827 0.750601 H
160 1 -0.138173 3.04503 9.0335 10.6291 C
187 2 0.0363769 4.62502 7.0063 12.5629 H
202 3 -0.630689 2.17861 8.60965 13.5594 O
189 2 0.0143474 4.02164 8.96427 11.1078 H
190 2 0.0589391 2.89064 9.88731 9.99674 H
268 4 0.273459 1.67747 9.65123 16.7063 Si
269 4 0.298286 4.28844 10.7968 16.0039 Si
185 2 0.0538454 3.78756 5.55503 11.8854 H
279 3 -0.548317 2.67421 10.7494 16.0467 O
158 1 -0.109233 4.04154 6.12213 12.7771 C
152 4 0.599891 1.69423 9.2104 12.1593 Si
314 2 4.00024e-06 4.52208 10.9772 11.141 H
172 2 -0.00314817 1.68437 10.946 12.3229 H
278 2 0.0713018 5.39825 8.49742 16.2803 H
271 1 -0.110139 5.06713 9.17994 17.0401 C
191 2 0.0273266 2.7011 8.10735 10.2183 H
173 2 0.228973 0.06211 11.5534 10.6123 H
307 1 -0.0949424 5.06723 10.3962 14.0708 C
275 2 0.091132 0.433564 10.0905 14.6106 H
272 2 0.0336917 2.46707 8.1299 16.7593 H
310 2 0.0668478 4.15457 10.2907 13.4836 H
30 4 0.756749 5.059 4.87122 17.2931 Si
186 2 0.0653337 4.422 5.51729 13.5986 H
94 2 0.0441314 4.04633 6.35816 9.12678 H
66 2 0.242532 6.57351 6.46292 16.3937 H
221 2 0.254467 6.40963 5.48734 15.4231 H
309 2 0.0455405 5.62931 11.2865 13.8482 H
290 2 0.0223384 8.10893 7.40435 14.9784 H
308 2 0.0452524 5.67152 9.51832 14.1129 H
127 3 -0.687543 5.78309 6.21403 15.891 O
289 2 0.0553113 7.11444 7.96442 13.559 H
318 2 0.013412 7.17957 9.83046 16.3762 H
240 2 0.0421628 6.45369 7.67902 10.3986 H
302 2 0.0247895 9.71758 6.6748 16.7263 H
288 2 0.0412465 8.87393 7.50664 13.3566 H
287 1 -0.10637 8.09787 7.87436 14.0077 C
217 1 -0.1065 7.18289 8.38456 9.99926 C
239 2 0.061827 8.14742 8.29742 10.4561 H
241 2 0.0406363 6.82182 9.39648 9.95182 H
255 2 0.0359291 9.00193 4.97448 13.9407 H
ITEM: TIMESTEP
100
ITEM: NUMBER OF ATOMS
331
ITEM: BOX BOUNDS xy xz yz pp pp pp
-8.3499999999999996e+00 1.5708700000000000e+01 -8.2042000000000002e+00
-1.6914259999999999e+00 1.3086800000000000e+01 -1.4580000000000001e-01
0.0000000000000000e+00 1.7524799999999999e+01 -1.6914259999999999e+00
ITEM: ATOMS id type q x y z element
1 4 0.614105 -1.45866 3.18617 4.72258 Si
2 4 0.276373 -0.367114 4.95065 2.66255 Si
3 1 -0.122197 0.209803 2.9782 5.83352 C
6 1 -0.124946 -1.16421 4.6683 0.733896 C
8 2 0.0350982 0.621254 3.95856 5.85697 H
9 2 0.00894216 0.761924 2.27048 5.22907 H
10 2 0.0797473 -0.133594 2.56303 6.76141 H
17 2 0.0340194 -1.88876 5.46921 0.596449 H
18 3 -0.606145 -1.36322 4.60969 3.88541 O
285 2 0.0135569 0.736398 3.40111 1.0583 H
16 2 0.0198149 -0.311758 4.81371 0.0601389 H
283 1 -0.115612 1.2028 2.58435 0.563008 C
111 2 0.0517612 -1.63695 4.69249 7.89954 H
315 2 0.018335 -1.11593 1.89021 2.46829 H
15 2 0.0273473 -1.58662 3.6567 0.741851 H
87 2 0.0691331 5.02515 3.03729 2.14236 H
284 2 0.0327182 0.546668 1.79923 0.211846 H
5 1 -0.110667 1.67438 4.76419 3.0445 C
57 1 -0.0923897 -2.13191 5.48984 7.37208 C
317 2 0.0271434 1.82041 0.0803542 3.10938 H
329 2 0.0852699 -2.00941 5.40395 6.2944 H
316 2 0.0158 -0.606188 0.938348 3.95164 H
225 2 0.0216511 0.891382 -0.0275821 1.52381 H
82 2 0.0887666 4.61147 1.1615 7.73732 H
321 2 0.0300133 4.08779 0.3339 1.5783 H
81 2 0.0698828 3.24268 0.15344 8.48301 H
47 1 -0.103181 3.58715 1.12509 8.12969 C
14 2 0.0213873 1.99921 3.79488 2.69318 H
88 2 0.0653669 5.9596 1.43916 2.4507 H
83 2 0.0261048 2.85751 1.70459 7.59686 H
12 2 0.0534832 1.74837 4.87885 4.12344 H
49 1 -0.0914699 5.74157 2.47952 2.75443 C
167 2 0.290584 5.30413 -0.0109753 6.31256 H
286 2 0.0510692 2.10782 2.23624 1.03914 H
13 2 0.052409 2.0886 5.57604 2.46215 H
24 4 0.108164 4.6453 1.58457 4.55734 Si
45 1 -0.111644 3.71507 3.14103 5.65471 C
312 2 0.022798 3.44716 0.575036 3.81102 H
78 2 0.0227755 2.71169 2.79548 5.82466 H
79 2 0.0257053 3.7822 4.05094 5.08835 H
80 2 0.0803985 4.34177 3.15437 6.54496 H
117 3 -0.635905 5.90261 0.417843 5.65447 O
22 4 0.800525 0.872915 1.76469 10.5559 Si
23 4 0.400306 0.213929 2.08425 12.8783 Si
34 4 0.350018 -1.39851 4.24309 13.7688 Si
44 1 -0.0819709 -0.395275 0.386998 14.0297 C
168 2 0.262511 0.16404 -0.471476 11.245 H
77 2 0.114094 0.205183 -0.466047 13.6728 H
112 3 -0.712614 -0.415872 2.43395 9.83827 O
113 3 -0.703817 1.05998 -0.215964 10.8682 O
126 3 -0.575978 -0.962484 3.15236 12.6007 O
183 2 0.0748341 0.515697 4.86678 10.9013 H
76 2 0.0497502 -0.284104 0.622231 15.0812 H
101 2 0.0446228 6.07249 -0.54538 13.0933 H
134 3 -0.663538 6.73615 -0.530673 17.3295 O
60 2 0.102598 -2.51151 4.22047 10.9787 H
71 2 0.0902857 -1.89757 3.9395 10.487 H
64 2 0.095468 1.46475 3.9697 8.83909 H
99 2 0.0713631 7.03014 -0.88811 14.602 H
266 3 -0.681885 4.45137 0.749128 17.4808 O
120 3 -0.76452 4.46576 -1.00897 15.4788 O
85 2 0.0496635 4.63017 1.03733 12.0515 H
19 4 0.296311 1.82464 1.37955 16.3136 Si
122 3 -0.660573 4.88528 3.46698 9.87226 O
53 1 -0.103819 6.8804 -0.260254 13.7405 C
267 3 -0.699042 3.71082 4.20959 16.5003 O
114 3 -0.687521 2.03827 2.98508 13.3522 O
311 2 0.258934 3.89879 4.15876 15.4038 H
86 2 0.0579191 5.63746 0.695588 10.5862 H
171 2 0.324235 2.43005 3.14781 12.4543 H
263 4 0.552415 4.10891 2.04434 16.5458 Si
63 2 0.288319 2.56541 2.10749 13.7072 H
25 4 0.951832 5.15812 -0.72333 16.9846 Si
27 4 0.583366 3.77507 2.20789 9.93889 Si
29 4 1.18054 3.46972 -0.242113 14.4622 Si
48 1 -0.0874875 4.66219 0.713679 11.023 C
84 2 0.10231 4.08086 -0.179387 10.8007 H
125 3 -0.687082 4.52408 1.6608 14.5585 O
116 3 -0.675106 2.29698 2.6691 10.5105 O
119 3 -0.822615 3.15513 -0.929481 12.9952 O
121 3 -0.688851 2.09746 0.16841 15.2309 O
262 2 0.0907216 1.48079 -1.66932 16.2076 H
166 2 0.119274 0.093515 -0.975227 8.86372 H
20 4 0.874907 -1.76343 1.75564 9.30564 Si
144 4 0.278186 -4.18039 8.10081 4.31109 Si
146 4 0.613692 -3.91144 10.3257 6.2018 Si
147 4 0.708769 -6.16667 9.55571 6.81608 Si
46 1 -0.129663 -3.76063 12.8156 0.766578 C
192 3 -0.598111 -3.73941 9.58856 4.74611 O
61 2 0.0789252 -4.77134 10.0518 2.8408 H
195 3 -0.72994 -6.06336 10.1923 8.29422 O
199 3 -0.731514 -3.07261 9.65074 7.44211 O
299 2 0.0821861 0.448078 10.3013 8.17678 H
212 1 -0.106874 -6.80371 12.5645 2.33938 C
154 1 -0.104934 -2.84163 7.36857 2.96592 C
325 2 0.0286188 -4.51601 8.31841 0.549179 H
174 2 0.031791 -2.34057 8.22112 2.53234 H
151 4 1.37989 -2.43319 10.5668 8.68184 Si
175 2 0.0215279 -3.44308 6.82007 2.24817 H
163 2 0.011924 -4.30242 7.16601 5.78912 H
180 2 0.0736979 -5.04883 7.70633 8.45479 H
219 2 0.0458615 -4.13722 10.235 2.45877 H
322 2 0.0252952 -2.91842 12.1821 1.01095 H
226 2 0.048945 -6.11944 11.767 2.12162 H
320 2 0.0326941 -4.53334 12.3168 0.190323 H
164 2 0.00616934 -1.09765 9.46426 0.14654 H
74 2 0.0439534 -1.11962 10.8085 3.58599 H
328 2 0.0396736 -1.96578 6.46973 7.77487 H
324 2 0.0720494 -0.186291 10.9935 6.66816 H
176 2 0.0768292 -2.25973 6.73647 3.60757 H
70 2 0.0221933 -1.1194 10.9983 2.973 H
7 2 0.0199572 -0.259577 6.70313 2.60409 H
213 1 -0.123037 1.50828 9.05122 1.55215 C
227 2 0.0163732 0.819153 9.63447 2.12325 H
228 2 0.0380793 1.11481 8.06618 1.31663 H
200 3 -0.777237 -1.95526 12.0518 8.29928 O
207 4 0.448679 1.73579 8.68823 5.19222 Si
230 2 0.0364337 2.20793 7.152 7.11881 H
215 1 -0.0978007 -0.301012 8.2149 5.24421 C
234 2 0.0659631 -0.710748 8.28136 6.2444 H
233 2 0.0500659 -0.742111 8.87464 4.52318 H
242 3 -0.556897 2.42676 7.7788 4.06215 O
231 2 0.0381183 1.60181 8.72545 7.73385 H
235 2 0.0550062 -0.156941 7.17707 4.90157 H
193 3 -0.62113 -6.83002 10.2577 5.51051 O
148 4 1.05192 -5.11194 9.89221 9.62701 Si
165 2 -0.00410543 -3.84027 7.76917 12.2204 H
179 2 0.0286987 -3.45985 8.44708 15.2043 H
181 2 0.0498877 -3.43272 8.00912 9.20709 H
194 3 -0.660332 -3.38535 5.32273 13.0235 O
196 3 -0.776294 -5.76749 10.1268 11.1225 O
201 3 -0.831624 -3.75543 10.7105 9.55155 O
258 4 0.292413 -7.09165 9.82258 14.3 Si
260 2 0.032988 -5.36626 9.90759 14.6914 H
21 4 1.20456 -6.13198 11.4015 12.0553 Si
155 1 -0.118508 -3.61679 7.38866 15.2799 C
115 3 -0.654464 -7.36715 10.7741 12.9946 O
178 2 0.0320039 -4.63265 7.01874 15.2469 H
177 2 0.0527028 -2.94131 6.79831 15.8853 H
145 4 0.607154 -2.97872 6.84261 13.3989 Si
156 1 -0.12072 -4.49174 7.92225 9.33966 C
275 2 0.100015 0.359276 9.91855 14.6735 H
327 2 0.0624684 -3.56394 9.58005 11.98 H
159 1 -0.0970553 -2.61663 10.0165 12.2414 C
319 2 0.0395533 -4.79317 7.41636 10.2327 H
259 1 -0.10533 -7.5611 10.7559 16.1321 C
153 4 0.684522 -1.13812 9.24583 10.8982 Si
184 2 0.0602635 0.844585 6.63891 10.6897 H
149 4 0.449539 -0.236471 6.17025 12.9366 Si
188 2 0.0697636 -2.56126 11.047 11.9187 H
273 2 0.0477644 -0.688088 10.0557 16.1492 H
170 2 0.286544 1.60204 4.95945 14.3821 H
203 3 -0.77947 -1.17157 9.71521 9.35626 O
198 3 -0.6615 1.27155 5.96503 14.5455 O
270 1 -0.0696624 0.085237 9.4984 15.6292 C
150 4 0.597635 2.23738 6.99082 13.7123 Si
157 1 -0.0909668 0.128514 5.86967 10.926 C
182 2 0.0410217 -0.813593 5.99578 10.413 H
204 3 -0.678797 0.237632 8.76171 11.4858 O
326 2 0.0595002 -2.24582 9.82774 13.2356 H
274 2 0.0751517 -0.0616149 8.42148 15.6164 H
197 3 -0.610091 -1.41137 7.22989 13.3688 O
58 2 0.0634561 -0.240854 5.87253 16.4007 H
220 2 0.0281223 -0.30745 5.30643 16.8535 H
28 4 1.22277 7.15232 1.8037 6.59858 Si
65 2 -0.00758572 9.11988 0.228029 4.44845 H
118 3 -0.749007 7.99032 0.940449 7.7069 O
123 3 -0.765952 6.28447 2.717 7.59876 O
128 3 -0.782901 8.13137 2.50039 5.46098 O
137 3 -0.670081 8.92368 2.24997 2.77528 O
35 4 1.00457 9.21205 1.91584 4.33858 Si
40 4 0.26651 7.79202 3.18859 2.10261 Si
52 1 -0.0927085 6.66919 5.30358 5.64771 C
96 2 0.0972852 6.98854 4.2896 5.57384 H
98 2 0.028696 5.64249 5.5403 5.31429 H
89 2 0.0345923 6.07352 3.03927 3.60543 H
55 1 -0.1117 8.22486 5.19928 2.44165 C
105 2 0.0586782 7.37626 5.67973 2.05947 H
106 2 0.0244333 9.14034 5.35106 1.93204 H
107 2 0.0338831 8.36209 5.21188 3.51693 H
224 2 0.278221 8.36546 4.89567 8.52071 H
26 4 0.801929 7.77968 -0.457576 8.49483 Si
109 2 0.124648 9.81366 4.09935 5.93078 H
162 2 0.0102712 10.475 6.00887 2.37733 H
67 2 0.0298703 4.4842 5.18045 3.08875 H
11 2 0.0519688 13.357 1.1062 3.55262 H
281 2 -0.00518978 10.7425 4.89035 0.229282 H
4 1 -0.137743 14.348 1.55545 3.48158 C
306 2 0.0353663 12.62 1.26639 0.502565 H
56 1 -0.0726297 10.5027 4.91867 5.92617 C
59 2 0.0662721 11.3777 2.24306 2.5219 H
208 4 0.708841 13.0069 -0.520961 7.59383 Si
132 3 -0.753484 10.7648 2.2208 4.76234 O
110 2 0.0739275 11.2736 4.85213 5.14421 H
222 2 0.173102 9.89029 0.479339 6.85082 H
131 3 -0.692495 13.0199 3.05786 5.79572 O
133 3 -0.672791 12.1752 -0.182428 5.70467 O
264 2 0.0624954 12.4894 3.74342 2.76043 H
129 3 -0.671487 14.1365 0.732241 7.96966 O
139 3 -0.785322 11.0277 1.80434 7.3871 O
72 2 0.0833925 10.9692 2.9095 2.47384 H
37 4 1.13441 11.8463 1.84083 5.97148 Si
42 4 0.335106 11.5502 5.07669 7.71977 Si
323 2 0.0735853 9.80772 0.320308 1.13964 H
38 4 0.2871 8.10709 2.46623 0.0130172 Si
97 2 0.0254941 7.40865 5.93094 5.20142 H
50 1 -0.0742232 7.82805 2.56036 10.4002 C
136 3 -0.742904 10.9381 -0.905207 9.54129 O
90 2 0.0841501 8.49773 3.39206 10.5194 H
91 2 0.12406 8.1933 1.78197 9.78094 H
92 2 0.0261111 7.29729 2.239 11.3086 H
33 4 0.625129 6.09651 1.59791 14.2689 Si
130 3 -0.695671 8.14348 -0.652438 10.5364 O
141 3 -0.671805 7.09311 2.27989 15.3437 O
31 4 0.761563 6.32111 3.35858 9.10203 Si
100 2 0.0401547 7.79463 0.0162599 13.2284 H
282 2 0.0443684 8.90978 3.76057 15.7874 H
251 1 -0.109664 9.40513 4.57086 13.2417 C
43 4 0.601421 6.74681 2.52259 16.9313 Si
256 2 0.0400321 8.96556 3.58757 13.332 H
124 3 -0.640912 7.42676 5.267 8.87983 O
75 2 0.034408 14.2826 0.374428 13.7124 H
104 2 0.0370461 9.62539 1.40927 15.7758 H
142 3 -0.705036 6.36712 3.97175 17.4805 O
41 4 0.988146 11.108 2.40516 8.90675 Si
68 2 0.0254238 10.9992 0.0272461 13.346 H
257 2 0.0629807 9.46023 4.96373 12.2314 H
252 2 0.0570429 12.777 2.06556 13.4862 H
280 4 0.220316 10.3742 4.2218 16.6404 Si
54 1 -0.0941271 9.65138 0.504213 16.3563 C
254 2 0.0170327 11.0855 1.46326 13.5157 H
249 4 0.565493 11.4518 4.21631 13.8818 Si
138 3 -0.752976 10.2845 1.64515 10.0942 O
331 3 -0.606448 11.6118 4.28872 15.5271 O
39 4 0.534266 12.5218 -0.799006 9.86939 Si
36 4 0.840811 9.97726 0.087822 10.277 Si
135 3 -0.66527 13.2818 0.634579 10.3622 O
95 2 0.104298 4.17218 5.04309 8.85881 H
253 2 0.0909443 11.743 2.39449 12.024 H
140 3 -0.644327 11.1704 4.08309 8.95888 O
304 1 -0.124195 13.1842 -0.7731 17.2144 C
305 2 0.0274754 13.1244 0.0621073 16.5272 H
250 1 -0.101852 11.7942 2.24742 13.0896 C
62 2 0.0787476 12.267 2.5403 15.8705 H
103 2 0.032772 10.3867 0.535412 17.1535 H
102 2 0.0917371 9.58397 -0.418893 15.7758 H
330 2 0.0153326 14.1795 -1.04196 17.4745 H
294 2 0.0445754 5.26875 7.1412 2.33618 H
209 4 0.464017 3.73579 10.4557 4.03798 Si
206 4 0.235983 2.9819 8.62741 2.72532 Si
292 2 0.0404172 3.69572 6.93187 1.37093 H
243 3 -0.626477 1.88012 10.7125 4.84125 O
246 3 -0.694183 5.00257 9.68787 4.73164 O
295 1 -0.106772 1.16963 12.4298 1.05728 C
297 2 0.0521033 0.0792802 12.4344 0.996522 H
298 1 -0.085596 0.554753 11.0815 7.45232 C
237 2 0.0367343 4.97673 11.9965 2.5836 H
291 1 -0.122019 4.60463 7.55829 1.58665 C
51 1 -0.0954785 4.49073 5.9965 8.42622 C
296 2 0.00748499 1.60273 11.7118 1.67748 H
214 1 -0.105613 2.30747 8.22107 7.10185 C
248 3 -0.72933 5.43329 11.0593 7.41332 O
211 4 1.00864 5.64263 9.9072 6.2371 Si
293 2 0.00945089 4.86751 8.57686 1.23712 H
300 2 0.0711224 1.53746 11.2396 7.1029 H
236 2 0.00655964 3.50629 11.3026 1.68517 H
169 2 0.246282 7.28551 9.56749 1.85788 H
216 1 -0.126357 3.91039 11.7907 2.55431 C
313 2 0.209278 1.32752 10.9974 3.94118 H
93 2 0.0328698 3.99308 6.26905 7.52168 H
232 2 0.0630594 3.32529 8.58423 7.10243 H
303 2 0.0341871 9.51122 7.76456 0.86983 H
69 2 0.0906025 7.13956 8.10725 4.39627 H
205 4 0.12619 7.4741 11.6907 3.28478 Si
161 2 0.109925 7.42823 11.6765 8.70701 H
244 3 -0.665235 8.84095 7.51485 7.24231 O
247 3 -0.72696 6.21202 8.568 6.96422 O
218 2 0.0918383 6.41689 7.81174 4.80284 H
301 1 -0.116198 10.2345 8.04971 0.125634 C
277 2 0.0206048 5.78761 11.4599 0.521983 H
73 2 0.262207 6.42836 9.30558 2.9908 H
245 3 -0.638389 7.40977 9.61465 2.80395 O
210 4 0.643683 7.32218 7.93449 7.91492 Si
32 4 0.2913 6.39599 5.71926 7.72086 Si
143 4 0.315827 7.76513 11.4023 5.5243 Si
265 2 0.209644 8.84729 7.48483 6.11782 H
229 2 0.0143281 1.9281 9.5532 0.707652 H
238 2 0.0459774 3.25972 12.5653 2.92162 H
223 2 0.276748 3.14393 12.2481 5.82315 H
108 2 0.0293296 9.98519 5.88283 5.88021 H
160 1 -0.128657 3.03899 8.78127 10.6826 C
187 2 0.0399872 4.6487 6.78213 12.6227 H
202 3 -0.63948 2.06066 8.62334 13.4038 O
189 2 0.0205837 3.93082 9.13851 11.1478 H
190 2 0.0459204 2.79046 9.29834 9.7648 H
268 4 0.277971 1.72744 9.81417 16.8059 Si
269 4 0.297678 4.30485 10.6429 16.1606 Si
185 2 0.0442895 3.42864 5.58608 11.9795 H
279 3 -0.553282 2.72299 10.8231 16.0856 O
158 1 -0.111962 3.89378 6.03574 12.8431 C
152 4 0.660202 1.63477 9.30841 12.0336 Si
314 2 0.00256492 4.83093 10.7477 10.5225 H
172 2 -0.0163815 1.63885 11.0258 12.245 H
278 2 0.0582676 5.89649 8.6269 16.4528 H
271 1 -0.111883 5.19735 9.04729 17.1617 C
191 2 0.0273777 3.00635 7.69799 10.5978 H
173 2 0.250331 0.137369 11.4475 10.5436 H
307 1 -0.0921909 4.83733 10.6445 14.1488 C
276 2 0.0410793 4.38095 8.40425 17.3951 H
272 2 0.0449028 2.05229 8.14152 16.3081 H
310 2 0.0671246 3.90077 10.716 13.6404 H
30 4 0.759208 5.0026 4.84399 17.2097 Si
186 2 0.0488836 4.14941 5.34434 13.628 H
94 2 0.0379672 4.56932 6.80008 9.15042 H
66 2 0.253651 6.82749 6.11967 16.3352 H
221 2 0.264824 6.10667 5.51576 15.2476 H
309 2 0.0390291 5.50842 11.4668 13.9904 H
290 2 0.0250716 8.23405 7.45907 14.9249 H
308 2 0.0461322 5.31057 9.66838 14.0884 H
127 3 -0.707348 5.91389 6.16839 15.9266 O
289 2 0.0567739 7.53844 7.79673 13.2798 H
318 2 0.0167591 8.1179 9.94732 16.8576 H
240 2 0.0499738 7.09763 7.53841 10.3898 H
302 2 0.0261422 9.70239 6.74366 16.8938 H
288 2 0.0356188 9.34301 7.52016 13.4867 H
287 1 -0.107435 8.40212 7.82323 13.9244 C
217 1 -0.0973819 7.39243 8.46575 9.92616 C
239 2 0.0765123 8.44082 8.65268 10.0705 H
241 2 0.0507906 6.81097 9.36753 10.015 H
255 2 0.0292026 9.07717 5.29266 13.9844 H
261 2 0.0312253 7.19805 11.2573 15.9577 H
ITEM: TIMESTEP
200
ITEM: NUMBER OF ATOMS
331
ITEM: BOX BOUNDS xy xz yz pp pp pp
-8.3499999999999996e+00 1.5708700000000000e+01 -8.2042000000000002e+00
-1.3772520000000004e+00 1.3086800000000000e+01 -1.4580000000000001e-01
0.0000000000000000e+00 1.7524799999999999e+01 -1.3772520000000004e+00
ITEM: ATOMS id type q x y z element
1 4 0.656464 -1.39714 3.13337 4.78284 Si
2 4 0.277983 -0.563788 5.09232 2.82317 Si
3 1 -0.122418 0.253343 2.87804 5.94965 C
6 1 -0.125565 -1.22139 4.72364 0.87826 C
8 2 0.0320086 0.579504 3.89814 6.10883 H
9 2 0.00859878 0.91306 2.27101 5.38347 H
10 2 0.09985 -0.186496 2.36685 6.79041 H
17 2 0.0309549 -2.14916 5.27482 0.859205 H
18 3 -0.626952 -1.50108 4.53556 4.02089 O
285 2 0.0215784 1.2756 3.27062 0.999959 H
16 2 0.0245489 -0.422274 5.08619 0.260982 H
283 1 -0.115055 1.31653 2.34745 0.43387 C
111 2 0.0575191 -1.46622 4.9169 8.00273 H
315 2 0.0175977 -1.29629 2.06951 2.53632 H
15 2 0.0255738 -1.27723 3.64454 0.93156 H
87 2 0.0720474 4.89373 2.88949 2.12641 H
284 2 0.0254608 0.390693 1.87011 0.191412 H
5 1 -0.110973 1.47056 4.71242 3.12294 C
57 1 -0.0915158 -2.02446 5.56979 7.34364 C
317 2 0.0234258 1.82098 0.401845 2.72469 H
329 2 0.086077 -1.98574 5.29695 6.3038 H
316 2 0.0167665 -0.487336 0.962556 3.74546 H
225 2 0.0246208 0.774775 0.0243347 1.25881 H
82 2 0.0584173 4.12981 1.34897 7.6077 H
321 2 0.0175128 4.28056 0.0878652 1.7858 H
81 2 0.0641912 3.2799 0.0638794 8.4376 H
47 1 -0.110861 3.34958 1.11214 8.25868 C
14 2 0.020097 1.58784 3.81117 2.54441 H
88 2 0.0668662 6.16256 1.7253 2.70823 H
83 2 0.0334349 2.39295 1.55344 8.02781 H