ITEM: TIMESTEP
0
ITEM: NUMBER OF ATOMS
331
ITEM: BOX BOUNDS xy xz yz pp pp pp
-8.3499999999999996e+00 1.5708700000000000e+01 -8.2042000000000002e+00
-2.0055999999999998e+00 1.3086800000000000e+01 -1.4580000000000001e-01
0.0000000000000000e+00 1.7524799999999999e+01 -2.0055999999999998e+00
ITEM: ATOMS id type q x y z
1 4 1.11787 -1.11499 2.63725 4.53095
2 4 0.65814 -0.52609 4.80813 2.15515
3 1 -0.657699 0.298912 2.82619 5.79584
94 2 0.167169 2.46767 5.24411 5.53759
5 1 -0.633525 1.83591 4.76093 3.67813
6 1 -0.602305 -1.6826 5.93617 1.52579
8 2 0.162216 1.36755 2.57593 5.39433
9 2 0.175033 0.117531 2.27254 6.73258
10 2 0.159734 0.165371 3.98496 5.8796
11 2 0.153129 0.48931 0.987026 3.59109
12 2 0.0218844 1.40947 4.6466 1.99199
13 2 0.182068 1.2923 3.97096 4.25173
14 2 0.139301 2.96555 4.62117 3.90137
263 4 0.960538 4.01824 4.23184 1.2515
51 1 -0.623145 3.03626 5.42868 6.61315
17 2 0.0159835 -1.42975 4.42059 0.551049
18 3 -0.777874 -1.0438 3.81226 3.5356
24 4 0.77793 5.054 1.20541 4.39557
45 1 -0.649105 3.30171 2.21232 4.96192
170 2 -0.0114993 -1.17218 5.40745 7.84261
176 2 0.222747 -2.30257 4.17641 6.60763
286 2 0.189077 2.74258 1.69801 0.289018
78 2 0.150305 2.70912 3.15118 4.47521
79 2 0.142183 4.12525 2.64006 5.87269
80 2 0.124057 2.65944 1.38555 5.44368
46 1 -0.671554 6.20729 0.191378 0.633114
82 2 0.189438 3.69161 1.06081 7.60451
175 2 0.0442456 -0.819757 5.74154 5.82153
4 1 -0.664617 -0.618302 0.97301 3.56558
154 1 -0.614716 -2.43077 5.26086 6.3092
93 2 0.195845 2.92145 4.54458 7.29207
285 2 0.123523 1.44833 2.99701 1.01762
265 2 -0.00585218 2.84017 3.69664 2.41727
117 3 -0.767417 5.93989 0.452258 5.55154
322 2 0.157014 7.34049 -0.108075 1.00636
321 2 0.148834 5.50819 0.390529 1.49068
83 2 0.164022 2.17246 0.365612 8.56555
267 3 -0.799467 3.50238 5.33373 0.32076
266 3 -0.764001 4.87827 3.0991 0.641551
96 2 0.181602 4.33419 3.89867 4.60192
47 1 -0.664049 3.30811 0.473191 8.49942
312 2 -0.0205544 3.52923 0.527118 4.03061
162 2 -0.0219077 2.64041 0.150029 6.64591
16 2 0.119273 -2.66957 5.79043 2.14056
87 2 0.192456 5.63768 2.52397 2.22227
163 2 0.0632158 -3.63815 5.24059 5.21244
7 2 0.155506 1.55937 5.86719 4.02174
283 1 -0.656807 1.67056 2.25671 0.201037
186 2 0.206138 3.48395 5.37666 8.58355
49 1 -0.678944 6.16189 2.10457 3.19696
81 2 0.179876 3.87468 -0.555276 8.72536
19 4 0.812154 1.51376 1.01538 16.0821
21 4 1.43973 2.47976 -1.12822 12.9561
22 4 1.3955 1.15452 1.06186 11.6438
23 4 1.03481 -1.01026 2.64666 13.3807
25 4 1.15185 5.90118 -0.1947 17.2335
27 4 1.0802 4.11433 1.32659 10.0091
29 4 1.48995 4.41167 0.400266 14.7071
150 4 1.04152 2.25152 4.9069 10.7809
20 4 1.21003 -1.08674 0.672321 9.74088
127 3 -0.757712 1.12241 4.38851 16.2749
48 1 -0.680488 5.44456 0.422712 11.0641
58 2 0.0204393 0.0615738 0.759077 15.032
62 2 -0.0143329 -1.41461 4.25813 17.1693
34 4 0.860904 -0.40168 4.53444 15.8165
60 2 0.0083473 -2.4382 3.24764 12.648
198 3 -0.733931 0.959046 4.85966 9.72272
311 2 0.0821731 1.22598 2.67408 16.4487
84 2 0.260028 5.91227 -0.317782 10.3395
85 2 0.27728 4.96689 -0.0691552 12.0062
171 2 0.123772 2.53375 3.30585 11.3176
112 3 -0.810414 0.371561 0.119174 10.1927
113 3 -0.855403 1.31507 0.00884853 12.7185
114 3 -0.813223 0.0344963 2.23173 12.2216
116 3 -0.78674 2.66 1.7421 11.151
119 3 -0.770847 4.19918 -0.645917 13.4825
120 3 -0.736627 5.30016 -0.585708 15.7466
121 3 -0.774365 2.87057 0.714309 15.4422
122 3 -0.769687 4.69602 2.62478 9.38511
125 3 -0.820176 5.19351 1.76369 14.4044
126 3 -0.8245 -0.702694 3.51001 14.7047
77 2 0.135394 -1.7548 1.1277 15.2757
59 2 -0.0145129 -1.0473 2.33372 9.44805
44 1 -0.654594 -1.65903 1.00793 14.1041
284 2 0.114601 0.576364 -0.478903 17.4241
75 2 0.191232 -1.12115 0.0806825 13.782
329 2 0.157374 -4.35455 6.92001 8.19843
143 4 0.565 -6.11252 11.677 6.24534
144 4 0.699751 -2.23752 6.67921 5.02359
146 4 0.888998 -2.48249 9.43956 6.60986
294 2 0.141974 1.58448 8.04442 1.05025
220 2 0.0361326 -2.46251 10.5851 0.68382
231 2 0.161112 2.09353 7.44214 4.25399
15 2 0.0286194 -0.429422 6.73896 2.44412
317 2 0.123125 -4.94137 9.43354 4.23403
235 2 0.178301 -0.729084 11.3821 4.77322
166 2 0.0649355 -4.04004 10.0383 6.72117
167 2 0.00688512 -1.63005 10.6626 5.83721
169 2 -0.0216796 -5.75398 11.0629 4.64395
95 2 0.124325 2.99823 6.56742 7.07452
230 2 0.153778 1.05104 7.68058 5.77829
225 2 0.16783 -6.24134 10.3667 3.09167
183 2 0.155697 0.0451397 7.66528 7.88041
192 3 -0.78821 -2.50697 8.10442 5.66988
193 3 -0.783762 -5.4828 10.6333 7.30746
199 3 -0.80965 -1.81029 9.16716 8.10163
206 4 0.662472 -1.77058 9.18408 1.93172
207 4 1.02657 0.8494 9.55001 4.02421
213 1 -0.615308 -3.30738 10.2833 2.13624
214 1 -0.677465 1.08924 7.76699 4.65287
215 1 -0.632366 0.206987 10.9545 5.27374
328 2 0.226222 -5.17644 8.45589 7.71156
221 2 -0.0166289 -1.57136 7.65983 0.91967
227 2 0.0391964 -3.27746 8.68063 2.87606
242 3 -0.745347 -0.564936 9.49462 2.89559
229 2 0.154347 -3.04017 11.0722 2.84978
212 1 -0.634858 -5.91412 9.40167 3.54221
232 2 0.136918 0.149183 7.34566 4.16862
147 4 1.1178 -6.85366 10.389 8.61408
228 2 0.164247 -4.38144 10.4064 1.8455
234 2 0.14333 0.0927954 10.3491 6.282
291 1 -0.662142 2.70943 7.91975 1.08184
293 2 0.151637 3.06841 7.238 1.99651
164 2 -0.028166 -2.02256 6.73139 3.28331
174 2 0.150279 -2.8708 5.84893 7.21707
161 2 0.0829978 -7.82031 11.815 6.29928
272 2 0.0620089 0.765472 10.8402 1.36162
260 2 0.00346738 -5.5608 8.244 13.8758
64 2 -0.0299288 -0.866856 6.17575 15.2114
115 3 -0.735042 -6.33959 10.766 14.2255
145 4 1.01412 -2.06802 6.24767 12.0513
148 4 1.32125 -4.8591 9.88469 10.8702
151 4 1.41016 -1.85379 10.1587 9.36172
200 3 -0.817067 -1.56415 11.6292 8.99657
153 4 0.989158 0.408224 9.84253 11.9151
155 1 -0.644654 -1.28528 7.28667 13.6512
156 1 -0.678088 -4.68306 8.38475 12.1291
274 2 0.191624 -1.03588 10.6041 16.6038
182 2 0.27818 0.12316 8.47121 9.65258
165 2 0.0669487 -2.32135 7.99259 12.4762
149 4 0.990981 -0.385869 5.90194 9.32587
303 2 -0.024592 -4.44911 5.7188 17.066
177 2 0.187715 -0.447724 7.97614 13.8497
178 2 0.0719362 -0.71445 5.75517 13.4193
179 2 0.138895 -1.83992 7.29652 14.5871
180 2 0.18475 -4.00065 7.74558 11.6051
181 2 0.167868 -4.22956 8.81585 13.0467
262 2 0.135517 -6.26938 8.43034 17.3735
188 2 0.114969 -0.911701 10.4791 13.4328
168 2 0.101034 -7.32331 11.8521 9.3824
195 3 -0.786907 -6.10198 9.5812 9.82279
196 3 -0.852773 -5.32536 11.1596 11.7197
197 3 -0.785761 -1.33956 6.06366 10.6102
258 4 0.807323 -6.79516 9.27393 14.602
201 3 -0.784104 -3.36305 10.0475 10.1183
202 3 -0.761698 2.34591 5.89593 12.025
203 3 -0.796738 -0.489977 9.6655 10.6321
319 2 0.162875 -5.71059 7.93782 12.212
275 2 0.0972806 -0.343859 8.87002 15.9691
30 4 1.17738 2.82779 4.74576 17.1545
194 3 -0.819733 -3.44138 5.53667 12.3555
261 2 0.168338 -6.55646 10.2065 16.6684
184 2 0.167211 1.67872 7.27696 9.05704
270 1 -0.646913 -0.178803 10.1107 16.0467
259 1 -0.644221 -6.83314 9.02376 16.5429
320 2 0.167928 -2.56466 10.5757 17.3375
157 1 -0.632906 0.513292 7.47648 8.98598
204 3 -0.750547 1.40847 8.60167 12.5446
158 1 -0.652207 3.64874 5.44071 9.71803
28 4 1.41677 7.29443 1.22517 6.32966
31 4 1.20778 6.07888 3.377 8.35066
35 4 1.2817 9.50928 1.97171 4.38264
37 4 1.51177 11.9172 1.59131 6.2846
40 4 0.719167 10.5012 4.35557 2.4894
330 2 0.158324 12.5974 1.23653 0.510316
105 2 0.128563 11.8118 4.12609 0.528399
55 1 -0.646981 11.7001 3.41914 1.41461
56 1 -0.643304 8.45908 5.28653 5.60634
65 2 0.00185334 9.35484 0.634721 3.34459
69 2 -0.0712983 10.9595 5.77816 3.28179
70 2 0.00296981 9.44193 5.17127 1.2844
237 2 0.163989 11.535 0.565164 2.42141
89 2 0.208849 6.57371 2.9516 3.82651
296 2 0.11204 8.94402 0.6477 0.65928
216 1 -0.643945 12.0998 -0.170598 3.04194
106 2 0.156724 11.8532 2.34418 1.13189
107 2 0.143935 12.5967 3.73296 2.34401
108 2 0.243831 8.51135 4.1948 5.70313
118 3 -0.757117 8.21594 0.0279407 7.11582
123 3 -0.800816 6.73068 2.23254 7.54172
124 3 -0.755783 5.66679 4.81308 7.2938
128 3 -0.841617 8.15472 2.09888 5.13281
129 3 -0.840332 14.2493 -0.121339 8.36669
131 3 -0.771764 13.2851 2.2578 5.49707
132 3 -0.859634 10.6731 1.60565 5.2868
133 3 -0.832608 12.1941 -0.0989956 6.59249
137 3 -0.775422 9.78747 3.27696 3.41156
139 3 -0.854318 11.8201 2.42228 7.66383
140 3 -0.828552 10.3829 4.45251 8.03634
98 2 0.110413 4.50343 5.79571 3.99924
264 2 -0.00287964 4.95515 4.96064 2.48897
236 2 0.185343 13.2048 0.240271 3.15611
97 2 0.149516 6.11913 4.76807 4.4718
26 4 1.26162 8.31324 -0.77274 8.61231
41 4 1.32073 11.0486 3.22789 8.72199
313 2 0.00506763 10.1432 2.77941 0.386593
88 2 0.168765 6.99968 1.36269 2.99087
52 1 -0.667152 4.95221 4.80722 4.45935
316 2 0.162681 14.618 0.885438 2.56238
315 2 0.217689 14.7206 0.175481 4.26813
109 2 0.15129 7.88683 5.42475 4.67641
223 2 0.160375 11.5802 -0.308617 4.36218
32 4 0.776783 4.92605 5.72608 6.21644
301 1 -0.626747 10.063 4.20575 17.3663
68 2 -0.0130855 12.7897 -1.23937 12.6645
33 4 1.05321 6.15132 2.99634 14.1434
36 4 1.25538 9.73042 1.08507 10.5793
38 4 0.718121 9.01184 0.95537 16.5541
39 4 0.946055 12.2872 -0.446331 11.2756
50 1 -0.644035 7.41225 3.8648 9.50979
53 1 -0.661221 7.4579 2.95729 12.642
54 1 -0.639442 9.83136 -0.270125 15.499
306 2 0.130626 13.3953 -0.851305 16.2557
63 2 0.0375001 5.86991 3.78955 12.4661
66 2 0.00530571 8.8866 1.82511 11.8673
67 2 -0.000566423 9.23003 2.71573 16.4486
304 1 -0.634809 13.0287 -1.42872 17.2539
326 2 0.169794 7.94821 -0.939448 12.2685
327 2 0.194764 8.8752 -1.20306 13.9208
90 2 0.133054 7.42476 5.01641 9.34357
92 2 0.165736 7.33217 3.54763 10.6994
99 2 0.162723 8.24226 3.72339 12.2429
100 2 0.137224 7.17248 2.12863 11.8577
101 2 0.0519 7.99781 2.25397 14.0405
102 2 0.14967 10.902 -0.273888 15.9712
103 2 0.140414 9.82869 0.298126 14.5106
104 2 0.188635 9.13748 -1.39586 15.6406
130 3 -0.842345 8.67514 0.259085 9.8011
134 3 -0.729762 7.56799 0.417612 16.9309
135 3 -0.843248 13.4036 0.506595 10.7567
136 3 -0.830542 10.8693 0.227153 11.4136
138 3 -0.868825 10.3112 2.28084 9.72449
141 3 -0.80553 6.10118 4.19992 15.1891
249 4 1.05991 10.9404 4.8169 12.88
250 1 -0.680161 11.3433 2.84113 12.9111
187 2 0.182135 4.44185 4.64682 10.0558
252 2 0.13786 12.0478 2.73567 13.7666
253 2 0.19591 11.7394 2.55011 11.9219
254 2 0.145869 10.358 2.33638 13.202
71 2 -0.00353577 12.2451 3.89819 9.66116
256 2 0.155122 9.68466 3.91964 11.1975
76 2 0.142651 12.9774 1.12737 13.6101
251 1 -0.652605 9.62403 5.07959 11.551
86 2 0.163298 6.17234 1.29645 11.328
91 2 0.22578 8.3849 3.48729 8.9598
302 2 0.134448 10.9625 3.75406 16.9035
281 2 0.0379722 8.55933 4.37831 16.3853
222 2 0.0187249 4.39404 10.8284 7.89002
297 2 0.166759 2.08478 12.7405 2.22841
295 1 -0.63196 0.979324 12.6376 1.70552
61 2 0.061313 5.34003 7.47091 6.22806
299 2 0.178361 2.18861 11.4596 7.58112
238 2 0.046887 4.1604 11.5548 1.82975
298 1 -0.69747 1.4324 10.9732 8.29535
323 2 0.151338 0.136154 12.5271 2.47145
248 3 -0.795716 6.30708 11.767 5.98847
205 4 0.714001 8.70083 8.58715 4.86007
292 2 0.176454 3.25298 8.89362 1.04309
209 4 1.00743 3.63416 10.944 3.49984
247 3 -0.807561 5.39107 8.98976 6.81379
211 4 1.31905 6.02863 10.0772 5.33818
243 3 -0.788996 2.20783 10.1774 3.38187
42 4 0.767086 9.67823 5.71138 7.2855
244 3 -0.865506 7.56157 9.69188 8.18988
219 2 -0.0294641 8.6502 6.88208 4.47481
245 3 -0.810323 7.36913 9.3883 4.80258
74 2 -0.0512213 6.58023 7.29619 0.0990315
325 2 0.11884 10.4919 6.80224 0.741969
57 1 -0.675789 10.323 7.40264 7.88593
210 4 1.00259 6.21698 8.8667 8.13261
226 2 0.117112 9.76824 8.4642 2.82537
233 2 0.200167 0.998606 11.7961 5.47819
224 2 -0.0520997 6.49296 7.27532 8.3776
218 2 0.000645946 9.42019 8.33412 6.4445
246 3 -0.809523 4.93746 10.3151 4.20122
208 4 1.22 5.22853 12.215 7.19618
110 2 0.0707401 7.70189 5.7608 6.92202
300 2 0.159213 0.931025 10.0681 7.79618
72 2 0.025713 9.97564 5.95777 5.34007
305 2 0.133033 5.84893 13.0269 0.255198
43 4 0.893209 5.59421 5.35628 16.1438
73 2 -0.0186033 6.12355 6.90158 15.6544
152 4 0.952055 2.51029 7.38096 12.9442
142 3 -0.782732 3.96537 5.42909 16.2855
159 1 -0.654958 0.176357 11.3599 13.0489
160 1 -0.657769 4.19007 8.04598 12.4735
255 2 0.145316 8.57571 5.4499 11.9413
185 2 0.149823 3.89694 6.50678 10.0856
276 2 0.158046 5.93258 8.60394 17.3658
282 2 -0.031662 8.8874 7.05817 16.2004
189 2 0.158282 4.09817 9.09368 12.0384
190 2 0.162751 4.53231 7.26232 11.7507
191 2 0.127155 4.61315 7.97504 13.6044
217 1 -0.658231 4.96288 9.7471 9.41563
239 2 0.107713 5.38342 8.85117 10.2568
172 2 -0.000618084 2.60046 7.06349 14.5934
241 2 0.150289 5.46149 10.7717 9.57786
240 2 0.14993 3.86682 9.82494 9.29047
257 2 0.178791 10.1251 5.78789 10.8197
307 1 -0.651648 4.43492 10.7018 14.2814
111 2 0.149748 9.50788 7.3132 8.84537
269 4 0.868352 4.16855 10.2453 16.3162
271 1 -0.671885 5.4258 8.52368 16.4725
324 2 0.135694 1.8532 10.8071 9.34826
318 2 0.145837 7.70049 8.84625 16.6211
277 2 0.161004 6.09485 8.7165 15.5222
278 2 0.16701 4.68134 7.64965 16.5417
279 3 -0.730773 2.63267 9.97164 16.7999
280 4 0.615011 9.86407 5.6304 15.9565
173 2 0.0472938 1.68107 11.223 11.9501
268 4 0.754022 1.08005 9.79957 17.3878
287 1 -0.661912 7.1805 9.02678 13.8413
288 2 0.130921 6.97218 7.93247 13.8142
289 2 0.156052 7.60114 9.29904 12.7858
290 2 0.166466 6.15343 9.63439 13.9856
331 3 -0.746997 10.2998 5.32497 14.3825
308 2 0.158492 4.34067 9.67678 13.6246
314 2 -0.0304171 3.93685 11.1599 10.2952
309 2 0.143015 5.4698 11.1416 14.4003
273 2 0.179408 0.0292823 10.5983 14.9233
310 2 0.1701 3.65368 11.4501 14.064
ITEM: TIMESTEP
100
ITEM: NUMBER OF ATOMS
331
ITEM: BOX BOUNDS xy xz yz pp pp pp
-8.3499999999999996e+00 1.5708700000000000e+01 -8.2042000000000002e+00
-1.6914259999999999e+00 1.3086800000000000e+01 -1.4580000000000001e-01
0.0000000000000000e+00 1.7524799999999999e+01 -1.6914259999999999e+00
ITEM: ATOMS id type q x y z
1 4 1.05036 -1.10872 2.67143 4.53543
2 4 0.676172 -0.56226 4.95305 2.21705
3 1 -0.662309 0.372515 3.09795 5.77318
94 2 0.171517 2.46477 5.3051 5.4634
5 1 -0.637388 1.91235 4.91509 3.59596
6 1 -0.597866 -1.79027 6.14471 1.46531
8 2 0.173884 1.39499 2.71631 5.48185
9 2 0.160045 -0.0245101 2.55308 6.75398
10 2 0.156858 0.334456 4.22648 5.89791
11 2 0.144137 0.382651 1.35877 3.40195
12 2 0.0189317 1.31623 4.72511 1.95535
13 2 0.165713 1.34624 4.2315 4.37413
14 2 0.144336 3.03222 4.86086 3.78682
263 4 0.953028 4.13647 4.18081 1.26518
51 1 -0.650257 2.89838 5.4831 6.52869
17 2 0.017591 -1.34957 4.75806 0.469801
18 3 -0.763948 -1.19398 4.03672 3.38773
24 4 0.781295 5.12622 1.27019 4.46232
45 1 -0.659298 3.22884 2.1277 4.89995
170 2 -0.00636114 -1.10046 5.26884 7.96534
176 2 0.217861 -2.61792 4.23422 6.80091
286 2 0.209596 2.59205 1.73091 0.0999209
78 2 0.150247 2.69798 3.10335 4.40037
79 2 0.126959 4.016 2.60485 5.81801
80 2 0.134319 2.52594 1.32449 5.19552
46 1 -0.65374 6.05455 0.345156 0.821441
82 2 0.180066 3.79869 1.04704 7.46527
81 2 0.166038 3.83347 -0.454605 8.61928
4 1 -0.644376 -0.775657 1.1607 3.42496
154 1 -0.610554 -2.41244 5.28957 6.54494
93 2 0.177791 2.7276 4.62463 7.27549
285 2 0.0954573 1.41847 3.22896 0.894535
265 2 -0.00147333 2.924 3.72556 2.34696
117 3 -0.761002 5.97645 0.304203 5.42294
322 2 0.153359 7.18025 -0.0129041 1.16643
321 2 0.166091 5.35778 0.547984 1.70128
83 2 0.169713 2.18688 0.639905 8.35677
267 3 -0.818858 3.60332 5.35754 0.403629
266 3 -0.768994 4.77129 2.97908 0.547558
96 2 0.142102 4.28582 3.77433 4.54074
47 1 -0.679891 3.32437 0.578686 8.36694
312 2 0.00110014 3.54798 0.658491 3.75319
162 2 -0.0273862 2.77381 -0.0518634 6.53277
16 2 0.127294 -2.81576 5.92513 1.89586
87 2 0.190553 5.52973 2.40344 2.18706
163 2 0.0265175 -3.70567 5.39304 5.28592
7 2 0.149428 1.5674 5.95032 3.87874
283 1 -0.662447 1.49275 2.22337 0.147524
175 2 0.0535061 -0.815704 5.60705 6.03061
49 1 -0.689373 6.14342 2.01772 3.04389
284 2 0.157438 0.656184 1.50531 0.0969035
186 2 0.181636 3.4014 5.57254 8.47149
19 4 0.78982 1.55457 1.22498 16.1741
21 4 1.44234 2.44764 -1.28665 13.0163
22 4 1.43873 1.11418 1.06521 11.8106
23 4 1.01669 -0.993402 2.49549 13.431
25 4 1.17912 5.87386 -0.181274 17.2483
27 4 1.06082 4.05194 1.45064 9.89104
29 4 1.4929 4.3015 0.280926 14.7208
150 4 1.03073 2.35399 4.9292 10.808
20 4 1.24006 -1.09677 0.640712 9.7747
127 3 -0.762022 1.09618 4.51045 16.4063
48 1 -0.654371 5.40976 0.447207 10.8284
58 2 0.0155265 0.254338 0.640124 15.2737
62 2 -0.0199093 -1.5441 4.23434 17.062
34 4 0.845154 -0.428908 4.52087 15.8133
60 2 0.00194583 -2.5292 2.93461 12.7762
198 3 -0.761045 0.996395 4.94371 9.97069
311 2 0.106001 1.44399 2.99183 16.0545
84 2 0.257112 5.83191 -0.344288 10.0558
85 2 0.279247 4.87689 0.0114097 11.8072
171 2 0.124777 2.55059 3.21986 11.3368
112 3 -0.796267 0.438142 0.349499 10.1412
113 3 -0.856614 1.34323 -0.02012 12.8595
114 3 -0.837679 0.162476 2.21706 12.2847
116 3 -0.760521 2.61186 1.69492 11.1651
119 3 -0.769851 4.16147 -0.569668 13.3413
120 3 -0.743578 5.10337 -0.739078 15.8814
121 3 -0.766278 2.89102 0.782748 15.4762
122 3 -0.809302 4.99075 2.59073 9.35052
125 3 -0.790809 5.07731 1.64779 14.3676
126 3 -0.816346 -0.654479 3.57058 14.5584
77 2 0.14815 -1.56653 0.905881 15.3858
59 2 -0.0189599 -1.29482 2.33293 9.61135
44 1 -0.69305 -1.48552 0.844509 14.2963
75 2 0.202471 -0.701619 0.154124 13.897
326 2 0.180373 7.46783 -1.05186 12.6152
329 2 0.157123 -4.21392 7.10344 7.64749
143 4 0.619681 -5.97458 11.4639 6.20935
144 4 0.717798 -2.27948 6.55693 5.0915
146 4 0.928745 -2.37221 9.31961 6.60381
294 2 0.147189 1.60307 8.04858 1.16489
220 2 0.0170592 -2.03558 10.5197 0.519293
231 2 0.167859 2.3254 7.58842 4.52276
15 2 0.0196296 -0.412467 6.73922 2.54364
317 2 0.12023 -4.7669 9.21406 4.11157
235 2 0.170959 -0.503054 11.3863 4.95879
166 2 0.0106871 -3.76681 10.22 6.51398
167 2 -0.00332531 -1.45812 10.473 5.66125
169 2 -0.0187762 -5.23126 11.0089 4.71852
95 2 0.126528 2.87805 6.6173 6.95227
230 2 0.126695 0.789335 8.27813 5.65863
225 2 0.161031 -5.76534 10.587 3.15408
183 2 0.158528 0.081163 7.55917 7.88429
192 3 -0.800629 -2.43159 7.92557 5.79287
193 3 -0.809248 -5.63193 10.3994 7.21695
199 3 -0.808885 -1.83072 9.09046 8.06339
206 4 0.680316 -1.76466 9.17598 1.72981
207 4 1.0359 0.821828 9.62607 3.84434
213 1 -0.625148 -3.22201 10.2456 1.87376
214 1 -0.636288 1.23502 7.92812 4.49215
215 1 -0.650963 0.431704 10.8309 5.35294
328 2 0.266506 -5.41938 8.61664 7.59321
221 2 0.00477239 -1.68532 7.60552 0.679754
227 2 0.0673893 -3.54426 8.92173 2.68182
242 3 -0.755792 -0.575121 9.41854 2.78238
229 2 0.164002 -3.01755 11.1149 2.55831
212 1 -0.638977 -5.74738 9.5021 3.53435
232 2 0.138446 0.642836 7.13507 3.99151
147 4 1.09126 -6.80985 10.3978 8.68449
228 2 0.155337 -4.08028 10.3923 1.17738
234 2 0.157562 0.241834 10.1975 6.23219
320 2 0.174418 -2.62141 12.6714 0.0292883
161 2 0.0991925 -7.6702 11.5866 5.94314
164 2 -0.0182173 -2.09246 6.63322 3.33819
174 2 0.158118 -2.63017 5.9968 7.45817
300 2 0.187488 0.692434 10.0232 8.57784
260 2 -0.00419606 -5.55652 8.17043 13.693
64 2 -0.0156098 -0.881508 6.16666 15.4488
115 3 -0.79264 -6.27043 10.778 14.2243
145 4 0.994925 -1.96061 6.28974 12.1561
148 4 1.33963 -4.76753 9.83911 10.742
151 4 1.40253 -1.96156 10.1466 9.32823
200 3 -0.80734 -1.68956 11.6654 8.84606
153 4 0.99535 0.359177 9.72047 11.9305
155 1 -0.644271 -1.29748 7.1787 13.8648
156 1 -0.653768 -4.84281 8.20809 11.8579
274 2 0.170094 -0.884067 10.6599 16.6475
182 2 0.283934 -0.0776935 8.46778 9.71013
165 2 0.0563359 -2.1561 8.08456 12.5553
149 4 0.984257 -0.258025 5.90238 9.39632
303 2 -0.0215281 -4.84057 5.67456 17.1155
177 2 0.157654 -0.493288 7.84279 14.3082
178 2 0.0919563 -0.572199 5.74617 13.4778
179 2 0.149738 -2.17904 7.06385 14.5449
180 2 0.189825 -4.23221 7.44722 11.3208
181 2 0.141044 -4.26235 8.66494 12.7742
273 2 0.183429 0.0546024 10.4706 14.9286
188 2 0.0726031 -0.796169 9.84699 13.4537
168 2 0.0754204 -7.23778 11.9361 9.34955
195 3 -0.778449 -5.98667 9.42148 9.77799
196 3 -0.838472 -5.36649 11.1114 11.6526
197 3 -0.762822 -1.32663 6.17401 10.6404
258 4 0.793114 -6.72799 9.23946 14.448
201 3 -0.84509 -3.34135 9.97754 10.1053
202 3 -0.764138 2.34628 5.99403 12.0855
203 3 -0.784745 -0.625946 9.69502 10.6547
319 2 0.159439 -5.90861 7.92223 12.0386
275 2 0.111596 -0.354551 8.81383 15.9975
30 4 1.14115 2.84906 4.72415 17.3205
194 3 -0.789094 -3.39695 5.60499 12.5113
261 2 0.168215 -6.00612 9.93539 16.4548
184 2 0.171607 1.58631 7.43889 9.05722
270 1 -0.656708 -0.116182 10.009 16.0281
259 1 -0.652647 -6.80645 8.96554 16.4764
157 1 -0.644141 0.477416 7.56835 8.99224
28 4 1.44415 7.42207 1.15405 6.31846
31 4 1.24223 6.06958 3.33107 8.29375
35 4 1.2558 9.46952 2.09033 4.32986
37 4 1.54826 11.9113 1.56255 6.22758
40 4 0.711974 10.6258 4.31783 2.56937
330 2 0.167902 12.0808 0.979216 0.374284
105 2 0.119485 11.867 4.12428 0.617642
55 1 -0.660059 11.823 3.32478 1.51375
56 1 -0.606585 8.41188 5.21296 5.81486
65 2 -0.0280719 9.19163 0.836607 3.21595
69 2 -0.0789242 11.0762 5.80536 3.22498
70 2 -0.00449072 9.68472 4.89407 1.13618
237 2 0.147926 11.4446 0.586225 2.4277
89 2 0.166377 6.53842 2.93015 3.67808
296 2 0.11438 9.00956 0.592082 1.02291
216 1 -0.662508 12.0459 -0.165466 3.10197
106 2 0.152174 11.5836 2.27293 1.17166
107 2 0.192238 12.6648 3.40589 2.33305
108 2 0.276045 8.3987 4.02654 6.01027
118 3 -0.800398 8.33767 0.0895915 6.96528
123 3 -0.804318 6.80128 2.24516 7.33856
124 3 -0.750472 5.51101 4.7252 7.22029
128 3 -0.8187 8.22284 2.19883 5.3203
129 3 -0.823933 14.1547 -0.0986756 8.39042
131 3 -0.76272 13.3078 2.1864 5.38971
132 3 -0.826018 10.6845 1.83808 5.28608
133 3 -0.829678 12.1524 0.00582206 6.54419
137 3 -0.795694 9.76908 3.4252 3.53909
139 3 -0.838749 11.8783 2.32855 7.66729
140 3 -0.774339 10.3859 4.40004 8.10679
98 2 0.126531 4.52103 5.68906 3.90404
264 2 -0.0142074 5.29335 4.68999 2.46525
236 2 0.195673 13.116 0.267747 3.24032
97 2 0.157083 6.03377 4.52548 4.14852
26 4 1.21808 8.3041 -0.650115 8.5818
72 2 0.0557787 9.94032 5.4569 5.24668
313 2 -0.018371 10.2437 2.98281 0.370911
88 2 0.162441 6.96835 1.27917 2.74165
52 1 -0.670401 4.99067 4.84178 4.40602
316 2 0.167537 14.4083 1.34314 2.40549
315 2 0.204213 14.556 0.263854 4.0787
109 2 0.159989 7.70812 5.44859 4.96328
223 2 0.160557 11.5049 -0.314057 4.21411
32 4 0.816026 4.77519 5.62634 6.18433
305 2 0.148505 13.8479 0.121461 0.503159
301 1 -0.611915 9.78818 4.0514 17.1636
68 2 -0.0100175 12.8244 -1.068 12.8924
33 4 1.00872 6.04858 2.92124 14.1283
36 4 1.23297 9.73355 1.13216 10.7803
38 4 0.726068 8.95303 0.979098 16.6279
39 4 0.955694 12.3299 -0.461335 11.3777
50 1 -0.645843 7.39618 3.86104 9.40331
53 1 -0.660658 7.28893 2.96548 12.5435
54 1 -0.635086 9.71362 -0.240945 15.5183
306 2 0.147185 13.2473 -0.711539 16.5821
63 2 0.0469833 5.68464 3.76321 12.4724
66 2 -0.0128094 8.76859 1.73389 12.0962
67 2 0.0141668 8.8469 2.69367 16.1157
304 1 -0.656462 12.8867 -1.37691 17.4032
86 2 0.170049 6.22878 1.21595 11.0854
327 2 0.171973 8.72076 -1.22956 14.0617
90 2 0.137656 7.21933 5.03179 9.31971
92 2 0.169057 7.34011 3.55726 10.587
99 2 0.158763 8.08575 3.75567 12.2428
100 2 0.142539 7.12515 2.17382 11.7468
101 2 0.0383775 7.90701 2.29476 13.9493
102 2 0.138194 10.8267 -0.176164 15.9232
103 2 0.131972 9.47227 0.308077 14.4917
104 2 0.175964 9.06502 -1.34786 15.6856
130 3 -0.834547 8.93565 0.178218 9.80309
134 3 -0.758936 7.52184 0.434234 16.9748
135 3 -0.875653 13.5824 0.231353 10.8394
136 3 -0.83385 10.9682 0.350069 11.4247
138 3 -0.835807 10.3372 2.368 9.93922
141 3 -0.78105 6.00519 4.15768 15.2492
249 4 1.07928 10.8598 4.93472 12.903
250 1 -0.653459 11.2203 3.02553 13.2054
187 2 0.150896 4.56366 5.09528 10.0498
252 2 0.144351 11.9825 2.94753 14.0848
253 2 0.185988 11.5037 2.39937 12.2723
254 2 0.143411 10.1346 2.83325 13.5301
71 2 -0.0123532 12.4318 3.84381 9.60955
256 2 0.196849 9.33586 4.39532 10.7753
76 2 0.134314 13.239 0.735065 13.7123
251 1 -0.680239 9.44087 5.15977 11.6262
41 4 1.2602 11.1653 3.14196 8.81208
91 2 0.231535 8.31417 3.37489 8.87479
302 2 0.130627 10.9084 3.94198 16.91
281 2 0.0334392 8.29186 4.39234 16.1519
222 2 -0.00376048 4.35596 10.8918 7.95737
297 2 0.159025 2.06154 12.6445 2.21263
295 1 -0.654328 0.92284 12.5878 1.71644
61 2 0.0696836 5.18648 7.25068 6.3222
299 2 0.175008 1.77066 11.1846 7.4676
238 2 0.0415413 4.11555 11.6403 1.82618
298 1 -0.683495 1.27169 10.9708 8.49181
110 2 0.0549121 7.84839 5.96873 7.2605
248 3 -0.791651 6.39429 11.6764 5.94531
205 4 0.716739 8.72496 8.6254 4.63923
292 2 0.176913 3.2743 8.96575 0.963619
209 4 1.02693 3.73149 10.9387 3.47365
247 3 -0.797964 5.44948 8.86311 6.70729
211 4 1.33789 6.03794 10.1285 5.38477
243 3 -0.785042 2.30943 10.2469 3.39161
293 2 0.169452 3.15343 7.46014 2.09394
244 3 -0.825819 7.4817 9.74167 8.41576
219 2 -0.0373985 8.45508 6.86437 4.70015
245 3 -0.793281 7.47577 9.50517 4.85788
74 2 -0.0564951 6.34163 7.48369 0.132469
325 2 0.0991916 9.8673 6.52569 0.717106
57 1 -0.675798 10.3482 7.45311 7.75182
210 4 0.992722 6.10478 8.9492 8.1906
226 2 0.101246 9.71471 8.72487 2.6162
233 2 0.200775 1.22305 11.6704 5.50928
208 4 1.14932 5.17874 12.1907 7.23049
218 2 0.0107849 9.56729 8.22259 6.14913
246 3 -0.818056 4.97289 10.276 4.19803
323 2 0.154606 0.163036 12.5802 2.51471
42 4 0.767169 9.76007 5.72341 7.24907
291 1 -0.664538 2.77132 7.99218 1.18386
272 2 0.0636033 1.1149 10.7668 1.32411
43 4 0.864613 5.50789 5.40908 16.1347
73 2 -0.0188525 5.97976 7.00034 15.6035
152 4 1.02853 2.43993 7.38526 12.8623
142 3 -0.746617 3.87305 5.50824 16.2319
159 1 -0.627335 -0.00858996 11.3021 13.1026
160 1 -0.651944 4.17875 7.9242 12.4259
255 2 0.149134 8.48267 5.29767 12.1941
185 2 0.152418 3.76573 6.83009 10.024
310 2 0.154896 3.59925 11.3053 14.1241
282 2 -0.0279717 8.74984 7.09407 16.179
189 2 0.157979 4.0117 9.01227 12.1299
190 2 0.162257 4.68333 7.30432 11.6485
191 2 0.136924 4.66408 7.78715 13.494
217 1 -0.687435 4.90187 9.76798 9.4782
239 2 0.129149 4.88707 8.81531 10.1722
172 2 0.0047002 2.32001 7.21181 14.5672
241 2 0.17215 5.48787 10.6109 9.88647
240 2 0.136342 3.79142 10.0427 9.34338
257 2 0.167126 9.90443 6.16793 11.2568
307 1 -0.645613 4.50918 10.6173 14.2511
111 2 0.187986 10.0098 7.27876 8.87739
269 4 0.883672 4.23157 10.2545 16.336
271 1 -0.65288 5.39514 8.62326 16.4261
324 2 0.155962 1.96428 11.0925 9.38554
318 2 0.160868 7.92404 9.4403 16.7138
277 2 0.163042 6.14991 8.67888 15.5276
278 2 0.173676 4.60351 7.80253 16.3364
279 3 -0.738604 2.74416 9.89449 16.7532
280 4 0.62156 9.64254 5.56771 15.8573
173 2 0.062998 1.1874 11.4138 11.851
268 4 0.742599 1.14672 9.81106 17.3525
287 1 -0.656565 7.21956 8.78009 13.8058
288 2 0.127596 7.05613 7.76725 14.2516
289 2 0.137404 7.59762 8.73442 12.665
290 2 0.164471 6.24743 9.49573 13.9728
331 3 -0.758138 10.3147 5.36086 14.3658
308 2 0.158456 4.37544 9.58632 13.6983
314 2 -0.025836 3.89972 11.2163 10.4862
309 2 0.148112 5.528 11.1125 14.0425
158 1 -0.63939 3.65286 5.70757 9.67886
276 2 0.138498 5.95456 8.73902 17.4458
224 2 -0.035349 6.35607 7.38408 8.81292
204 3 -0.790333 1.48555 8.61442 12.3507
262 2 0.145452 9.09794 8.29806 17.2949
ITEM: TIMESTEP
200
ITEM: NUMBER OF ATOMS
331
ITEM: BOX BOUNDS xy xz yz pp pp pp
-8.3499999999999996e+00 1.5708700000000000e+01 -8.2042000000000002e+00
-1.3772520000000004e+00 1.3086800000000000e+01 -1.4580000000000001e-01
0.0000000000000000e+00 1.7524799999999999e+01 -1.3772520000000004e+00
ITEM: ATOMS id type q x y z
1 4 1.10136 -1.13053 2.70085 4.44214
2 4 0.645745 -0.543968 4.99338 2.2736
3 1 -0.653179 0.421975 2.96799 5.71219
94 2 0.164033 2.27446 5.35929 5.57164
5 1 -0.621358 1.97199 4.84767 3.6127
6 1 -0.614061 -1.78126 6.09553 1.54758
8 2 0.17012 1.5358 2.66131 5.45114
9 2 0.16669 -0.045744 2.31708 6.54851
10 2 0.163913 0.295821 4.0523 5.90969
11 2 0.147738 0.598529 1.35936 3.72016
12 2 0.0378884 1.31398 4.56567 2.09723
13 2 0.171971 1.33318 4.17613 4.30202
14 2 0.142794 3.16828 4.77585 3.87039
263 4 0.761465 4.27157 4.17838 1.36336
51 1 -0.624532 2.79322 5.52103 6.69493
17 2 0.022602 -1.48694 4.47324 0.774131
18 3 -0.780726 -1.20905 4.05096 3.59161
24 4 0.812668 5.27116 1.24387 4.36582
45 1 -0.661212 3.38465 2.15628 4.80441
170 2 -0.0151964 -1.17677 5.19093 8.10197
176 2 0.205947 -2.38605 3.97265 6.87252
174 2 0.141065 -2.73533 5.73213 7.46852
78 2 0.151676 2.8488 3.13803 4.21352
79 2 0.16409 3.80119 2.29743 5.88653
80 2 0.127059 2.69371 1.28541 4.80652
46 1 -0.605903 6.04091 -0.0614084 0.76818
82 2 0.176941 3.71938 1.2726 7.49019
81 2 0.165023 4.07766 -0.363876 8.51527
4 1 -0.670145 -0.506028 1.1362 3.44691
154 1 -0.608047 -2.37811 5.06375 6.58426
93 2 0.202664 2.40435 4.80992 7.46666
285 2 0.112292 1.13836 2.87429 1.08656
265 2 0.0180462 2.98618 3.68491 2.41187
117 3 -0.748166 5.98013 0.387757 5.49533
316 2 0.155101 -0.779333 1.26067 2.35196
321 2 0.177572 5.44979 0.309914 1.61244
83 2 0.1695 2.28029 0.377845 8.50113
267 3 -0.800709 3.54241 5.4755 0.555964
266 3 -0.802895 5.06798 2.47709 0.799484
96 2 0.173301 4.44839 3.86905 4.59204
47 1 -0.676099 3.41295 0.599547 8.40816
312 2 -0.0035372 3.73436 0.693576 3.64947
162 2 -0.02101 3.00783 -0.170716 6.60193
16 2 0.130717 -2.81248 6.25 1.83475
87 2 0.226918 5.90375 2.28376 2.12626
175 2 0.0501382 -0.777615 5.50753 6.0584
7 2 0.157449 1.62387 5.90953 3.90811
283 1 -0.622268 1.44409 2.04766 0.271429
284 2 0.131332 0.40364 1.4976 0.0369659
286 2 0.186591 2.79987 1.72051 0.0262552
19 4 0.736964 1.52788 1.28583 16.1942
86 2 0.175451 6.23772 1.25971 11.1819
22 4 1.39905 1.09659 1.06493 11.6731
23 4 0.97983 -1.16173 2.58247 13.497
25 4 1.29894 5.81689 -0.0396878 17.2618
27 4 1.06485 4.08999 1.46718 9.88622
29 4 1.49771 4.36085 0.360897 14.6536
150 4 1.0105 2.38013 5.03447 10.7958
21 4 1.48476 2.4424 -1.23409 12.8716
127 3 -0.731817 1.03886 4.58903 16.4904
48 1 -0.66462 5.46473 0.469482 10.8882
58 2 0.0192314 0.105017 0.770466 15.3602
62 2 -0.00443215 -1.77256 4.29464 17.1613
34 4 0.796933 -0.606544 4.53382 15.8641
60 2 0.00114248 -2.44638 3.3896 12.6619
198 3 -0.763191 1.12834 5.10083 9.72975
311 2 0.0976591 1.45136 2.98205 16.3591
84 2 0.261348 5.87692 -0.343852 10.1314
85 2 0.264208 4.91623 0.00298255 11.8257
171 2 0.112075 2.65918 3.33627 11.0408
112 3 -0.790623 0.507558 0.317582 9.96227
113 3 -0.833885 1.1821 -0.149763 12.5749
114 3 -0.794549 0.0790447 2.15324 12.3499
116 3 -0.745619 2.6611 1.72413 11.2151
119 3 -0.824151 3.98767 -0.45742 13.3704