LAMMPS (2 Aug 2023 - Update 2)
OMP_NUM_THREADS environment is not set. Defaulting to 1 thread. (src/comm.cpp:98)
  using 1 OpenMP thread(s) per MPI task
Reading data file ...
  triclinic box = (0 0 0) to (15.1447 13.6088 16.498) with tilt (-7.6974 -0.6366 0.5805)
WARNING: Triclinic box skew is large. LAMMPS will run inefficiently. (src/domain.cpp:220)
  2 by 2 by 2 MPI processor grid
  reading atoms ...
  295 atoms
Finding 1-2 1-3 1-4 neighbors ...
  special bond factors lj:    0        0        0       
  special bond factors coul:  0        0        0       
     0 = max # of 1-2 neighbors
     0 = max # of 1-3 neighbors
     0 = max # of 1-4 neighbors
     1 = max # of special neighbors
  special bonds CPU = 0.001 seconds
  read_data CPU = 0.012 seconds
*****Minimization starts.*****
Setting up cg style minimization ...
  Unit style    : real
  Current step  : 0
WARNING: No pairwise cutoff or binsize set. Atom sorting therefore disabled. (src/atom.cpp:2366)
WARNING: Communication cutoff is 0.0. No ghost atoms will be generated. Atoms may get lost. (src/comm_brick.cpp:210)
Per MPI rank memory allocation (min/avg/max) = 6.364 | 6.364 | 6.365 Mbytes
   Step          Temp          E_pair         E_mol          TotEng         Press     
         0   0              0              0              0              0            
         1   0              0              0              0              0            
Loop time of 9.05663e-05 on 8 procs for 1 steps with 295 atoms

56.7% CPU use with 8 MPI tasks x 1 OpenMP threads

Minimization stats:
  Stopping criterion = search direction is not downhill
  Energy initial, next-to-last, final = 
                     0                  0                  0
  Force two-norm initial, final = 0 0
  Force max component initial, final = 0 0
  Final line search alpha, max atom move = 0 0
  Iterations, force evaluations = 1 0

MPI task timing breakdown:
Section |  min time  |  avg time  |  max time  |%varavg| %total
---------------------------------------------------------------
Pair    | 0          | 0          | 0          |   0.0 |  0.00
Bond    | 9.08e-07   | 2.1124e-06 | 3.282e-06  |   0.0 |  2.33
Neigh   | 0          | 0          | 0          |   0.0 |  0.00
Comm    | 2.724e-06  | 4.5574e-06 | 6.984e-06  |   0.0 |  5.03
Output  | 0          | 0          | 0          |   0.0 |  0.00
Modify  | 0          | 0          | 0          |   0.0 |  0.00
Other   |            | 8.39e-05   |            |       | 92.64

Nlocal:         36.875 ave          42 max          32 min
Histogram: 1 0 1 1 1 0 1 2 0 1
Nghost:              0 ave           0 max           0 min
Histogram: 8 0 0 0 0 0 0 0 0 0
Neighs:              0 ave           0 max           0 min
Histogram: 8 0 0 0 0 0 0 0 0 0

Total # of neighbors = 0
Ave neighs/atom = 0
Ave special neighs/atom = 0
Neighbor list builds = 0
Dangerous builds = 0
System init for write_data ...
WARNING: Communication cutoff is 0.0. No ghost atoms will be generated. Atoms may get lost. (src/comm_brick.cpp:210)
WARNING: New thermo_style command, previous thermo_modify settings will be lost (src/output.cpp:903)

CITE-CITE-CITE-CITE-CITE-CITE-CITE-CITE-CITE-CITE-CITE-CITE-CITE

Your simulation uses code contributions which should be cited:
- pair reaxff command: doi:10.1016/j.parco.2011.08.005
- fix qeq/reaxff command: doi:10.1016/j.parco.2011.08.005
The log file lists these citations in BibTeX format.

CITE-CITE-CITE-CITE-CITE-CITE-CITE-CITE-CITE-CITE-CITE-CITE-CITE

WARNING: Fix qeq/reaxff group is not charge neutral, net charge = -2.46 (src/REAXFF/fix_qeq_reaxff.cpp:392)
Neighbor list info ...
  update: every = 10 steps, delay = 0 steps, check = no
  max neighbors/atom: 2000, page size: 100000
  master list distance cutoff = 12
  ghost atom cutoff = 12
  binsize = 6, bins = 4 3 3
  2 neighbor lists, perpetual/occasional/extra = 2 0 0
  (1) pair reaxff, perpetual
      attributes: half, newton off, ghost
      pair build: half/bin/newtoff/ghost
      stencil: full/ghost/bin/3d
      bin: standard
  (2) fix qeq/reaxff, perpetual, copy from (1)
      attributes: half, newton off
      pair build: copy
      stencil: none
      bin: none
Setting up Verlet run ...
  Unit style    : real
  Current step  : 0
  Time step     : 0.5
Per MPI rank memory allocation (min/avg/max) = 114.8 | 116.5 | 117.9 Mbytes
   Step          Temp          PotEng         Press        f_avgp[1]       Density         Volume    
         0   300           -32892.733      87025.291      0              1.5382232      3400.2575    
       100   740.37259     -33626.14      -33823.597      8479.4499      1.5382232      3400.2575    
       200   567.4383      -33852.115     -4529.3251     -1469.6434      1.5382232      3400.2575    
       300   461.83635     -34028.12       2448.9684     -1749.3304      1.5382232      3400.2575    
       400   359.18079     -34111.529     -2691.0087      800.97261      1.5382232      3400.2575    
       500   301.22629     -34171.196      2387.8803      1922.2528      1.5382232      3400.2575    
       600   269.87512     -34203.754     -13009.585     -1957.1052      1.5382232      3400.2575    
       700   284.65305     -34234.731     -14909.832     -3257.5132      1.5382232      3400.2575    
       800   306.83036     -34241.553     -11257.411     -6079.2784      1.5382232      3400.2575    
       900   324.80647     -34239.528      14487.038     -5164.5803      1.5382232      3400.2575    
      1000   332.07424     -34247.255     -5121.1092     -9030.4281      1.5382232      3400.2575    
      1100   312.07098     -34256.548     -7146.8617     -15821.817      1.5382232      3400.2575    
      1200   286.25386     -34266.588      2175.4494     -6730.1205      1.5382232      3400.2575    
      1300   275.92084     -34276.465     -5326.8192     -6584.652       1.5382232      3400.2575    
      1400   298.64252     -34292.716     -1397.3398     -5136.5811      1.5382232      3400.2575    
      1500   291.08003     -34268.313      10184.844     -7415.6575      1.5382232      3400.2575    
      1600   307.36752     -34264.847     -10812.629     -7715.4282      1.5382232      3400.2575    
      1700   307.63437     -34271.128     -11137.764     -11481.551      1.5382232      3400.2575    
      1800   300.878       -34278.554      6296.0049     -7837.1654      1.5382232      3400.2575    
      1900   302.94731     -34281.255      13160.71      -10865.248      1.5382232      3400.2575    
      2000   293.94698     -34262.791     -7039.5938     -10093.95       1.5382232      3400.2575    
      2100   321.97003     -34280.971     -1798.9658     -6230.7515      1.5382232      3400.2575    
      2200   299.08076     -34275.367     -5090.1711     -5005.0308      1.5382232      3400.2575    
      2300   297.90916     -34292.235     -1375.9419     -8118.526       1.5382232      3400.2575    
      2400   280.83805     -34279.709     -9113.3922     -3893.2437      1.5382232      3400.2575    
      2500   298.71556     -34284.987     -9392.4837     -6599.7436      1.5382232      3400.2575    
      2600   300.43395     -34270.544     -316.85708     -1542.2179      1.5382232      3400.2575    
      2700   317.32389     -34282.751      2014.5986     -9728.6575      1.5382232      3400.2575    
      2800   310.27302     -34289.853     -3050.4583     -4418.2335      1.5382232      3400.2575    
      2900   278.59382     -34280.059     -14501.257     -7857.5632      1.5382232      3400.2575    
      3000   285.25672     -34288.826     -18269.07      -12004.756      1.5382232      3400.2575    
Loop time of 127.675 on 8 procs for 3000 steps with 295 atoms

Performance: 1.015 ns/day, 23.643 hours/ns, 23.497 timesteps/s, 6.932 katom-step/s
98.8% CPU use with 8 MPI tasks x 1 OpenMP threads

MPI task timing breakdown:
Section |  min time  |  avg time  |  max time  |%varavg| %total
---------------------------------------------------------------
Pair    | 71.13      | 96.083     | 105.29     | 108.3 | 75.26
Bond    | 0.0084072  | 0.0087429  | 0.0098108  |   0.5 |  0.01
Neigh   | 6.0882     | 7.9506     | 8.7321     |  30.3 |  6.23
Comm    | 3.2045     | 12.43      | 37.381     | 301.2 |  9.74
Output  | 0.0015812  | 0.0017919  | 0.0028685  |   1.0 |  0.00
Modify  | 10.362     | 11.131     | 13.005     |  25.6 |  8.72
Other   |            | 0.06938    |            |       |  0.05

Nlocal:         36.875 ave          44 max          31 min
Histogram: 1 0 0 4 1 0 0 0 0 2
Nghost:         2984.5 ave        3023 max        2940 min
Histogram: 1 0 0 2 0 1 1 1 1 1
Neighs:          22477 ave       26502 max       19111 min
Histogram: 1 0 1 3 1 0 0 0 0 2

Total # of neighbors = 179816
Ave neighs/atom = 609.54576
Ave special neighs/atom = 0
Neighbor list builds = 300
Dangerous builds not checked
System init for write_data ...
System init for write_restart ...
OMP_NUM_THREADS environment is not set. Defaulting to 1 thread. (src/comm.cpp:98)
  using 1 OpenMP thread(s) per MPI task
Reading restart file ...
  restart file = 2 Aug 2023, LAMMPS = 2 Aug 2023
  restoring atom style full from restart
  triclinic box = (0 0 0) to (15.1447 13.6088 16.498) with tilt (-7.6974 -0.6366 0.5805)
WARNING: Triclinic box skew is large. LAMMPS will run inefficiently. (src/domain.cpp:220)
  2 by 2 by 2 MPI processor grid
  pair style reaxff stores no restart info
  295 atoms
Finding 1-2 1-3 1-4 neighbors ...
  special bond factors lj:    0        0        0       
  special bond factors coul:  0        0        0       
     0 = max # of 1-2 neighbors
     0 = max # of 1-3 neighbors
     0 = max # of 1-4 neighbors
     1 = max # of special neighbors
  special bonds CPU = 0.000 seconds
  read_restart CPU = 0.003 seconds
*****Negative-change 1 starts.*****
Resetting global fix info from restart file:
  fix style: nvt, fix ID: 4
Changing box ...
WARNING: Triclinic box skew is large. LAMMPS will run inefficiently. (src/domain.cpp:220)
  triclinic box = (0 0 0) to (14.993253 13.6088 16.498) with tilt (-7.6974 -0.6366 0.5805)
WARNING: Triclinic box skew is large. LAMMPS will run inefficiently. (src/domain.cpp:220)
  triclinic box = (0 0 0) to (14.993253 13.6088 16.498) with tilt (-7.620426 -0.6366 0.5805)
WARNING: Triclinic box skew is large. LAMMPS will run inefficiently. (src/domain.cpp:220)
  triclinic box = (0 0 0) to (14.993253 13.6088 16.498) with tilt (-7.620426 -0.630234 0.5805)
All restart file global fix info was re-assigned
Neighbor list info ...
  update: every = 10 steps, delay = 0 steps, check = no
  max neighbors/atom: 2000, page size: 100000
  master list distance cutoff = 12
  ghost atom cutoff = 12
  binsize = 6, bins = 4 3 3
  2 neighbor lists, perpetual/occasional/extra = 2 0 0
  (1) pair reaxff, perpetual
      attributes: half, newton off, ghost
      pair build: half/bin/newtoff/ghost
      stencil: full/ghost/bin/3d
      bin: standard
  (2) fix qeq/reaxff, perpetual, copy from (1)
      attributes: half, newton off
      pair build: copy
      stencil: none
      bin: none
Setting up Verlet run ...
  Unit style    : real
  Current step  : 0
  Time step     : 0.5
Per MPI rank memory allocation (min/avg/max) = 115.7 | 117.2 | 118.4 Mbytes
   Step          Temp          PotEng         Press        f_avgp[1]        Volume    
         0   285.25672     -34283.357      25080.193      0              3366.2549    
       100   299.1319      -34282.374     -6418.2611     -948.63634      3366.2549    
       200   307.69752     -34285.395     -1118.5392     -3574.0859      3366.2549    
       300   304.34449     -34289.555     -4396.3336     -7354.4746      3366.2549    
       400   291.69344     -34290.235      12701.672     -5165.5619      3366.2549    
       500   315.89386     -34323.17      -17322.052     -10756.895      3366.2549    
       600   278.40568     -34302.352     -8204.4239     -6230.4595      3366.2549    
       700   295.92771     -34306.926     -2050.5506     -5219.2471      3366.2549    
       800   306.35184     -34297.679     -9257.0929     -5616.4257      3366.2549    
       900   309.85808     -34293.989     -13534.127     -3605.7873      3366.2549    
      1000   294.49548     -34289.2        8440.4879     -6528.6849      3366.2549    
      1100   300.77218     -34307.963      7449.2635     -7368.2026      3366.2549    
      1200   296.85318     -34313.542      9241.1027      1238.4868      3366.2549    
      1300   285.01389     -34301.925      11084.783     -5525.2928      3366.2549    
      1400   302.39687     -34297.098     -4544.5696     -1713.4004      3366.2549    
      1500   322.48213     -34301.071      2155.9532      8780.1527      3366.2549    
      1600   307.59946     -34287.94      -94.053572      2636.5682      3366.2549    
      1700   290.32319     -34302.694      2386.2173     -7798.5397      3366.2549    
      1800   295.7124      -34320.469      5237.8004     -9815.0048      3366.2549    
      1900   307.85669     -34315.578      4766.6396     -7991.6261      3366.2549    
      2000   308.61554     -34299.626     -11627.29      -4327.8304      3366.2549    
      2100   305.09643     -34298.142     -9443.6787     -3727.9541      3366.2549    
      2200   311.83616     -34312.282     -2298.4451     -6515.4056      3366.2549    
      2300   292.26946     -34299.405      347.08613      402.90515      3366.2549    
      2400   287.13108     -34296.077     -10260.187     -4551.3513      3366.2549    
      2500   309.91451     -34312.689      5933.2582     -6224.2558      3366.2549    
      2600   293.93541     -34282.356     -18200.619      2293.3364      3366.2549    
      2700   309.4663      -34272.337      33.914352     -1630.7123      3366.2549    
      2800   319.81455     -34289.16       2743.3687     -3996.2253      3366.2549    
      2900   300.4065      -34303.646     -5549.4618     -4773.5184      3366.2549    
      3000   298.60634     -34306.594     -8182.8672     -1060.482       3366.2549    
Loop time of 129.874 on 8 procs for 3000 steps with 295 atoms

Performance: 0.998 ns/day, 24.051 hours/ns, 23.099 timesteps/s, 6.814 katom-step/s
98.9% CPU use with 8 MPI tasks x 1 OpenMP threads

MPI task timing breakdown:
Section |  min time  |  avg time  |  max time  |%varavg| %total
---------------------------------------------------------------
Pair    | 73.636     | 98.55      | 109.27     | 140.5 | 75.88
Bond    | 0.008171   | 0.0088186  | 0.0098805  |   0.6 |  0.01
Neigh   | 6.1332     | 8.0255     | 8.8497     |  37.9 |  6.18
Comm    | 1.3727     | 12.077     | 36.983     | 401.3 |  9.30
Output  | 0.0058697  | 0.0075111  | 0.0090011  |   1.4 |  0.01
Modify  | 10.319     | 11.134     | 13.022     |  32.3 |  8.57
Other   |            | 0.07019    |            |       |  0.05

Nlocal:         36.875 ave          42 max          33 min
Histogram: 2 0 2 0 1 0 1 0 1 1
Nghost:           2999 ave        3041 max        2951 min
Histogram: 1 1 0 1 0 1 1 1 1 1
Neighs:        22707.1 ave       25601 max       20340 min
Histogram: 2 0 2 0 1 0 0 1 0 2

Total # of neighbors = 181657
Ave neighs/atom = 615.78644
Ave special neighs/atom = 0
Neighbor list builds = 300
Dangerous builds not checked
*****Equilibration neg1 starts.*****
WARNING: New thermo_style command, previous thermo_modify settings will be lost (src/output.cpp:903)
Neighbor list info ...
  update: every = 10 steps, delay = 0 steps, check = no
  max neighbors/atom: 2000, page size: 100000
  master list distance cutoff = 12
  ghost atom cutoff = 12
  binsize = 6, bins = 4 3 3
  2 neighbor lists, perpetual/occasional/extra = 2 0 0
  (1) pair reaxff, perpetual
      attributes: half, newton off, ghost
      pair build: half/bin/newtoff/ghost
      stencil: full/ghost/bin/3d
      bin: standard
  (2) fix qeq/reaxff, perpetual, copy from (1)
      attributes: half, newton off
      pair build: copy
      stencil: none
      bin: none
Setting up Verlet run ...
  Unit style    : real
  Current step  : 0
  Time step     : 0.5
Per MPI rank memory allocation (min/avg/max) = 115.7 | 117.2 | 118.4 Mbytes
   Step          Temp          PotEng         Press        f_avgp[1]        Volume    
         0   298.60634     -34306.594     -8182.8703      0              3366.2549    
       100   307.86166     -34309.347     -10332.806     -6790.0715      3366.2549    
       200   312.30926     -34287.229      7860.9223     -7880.1525      3366.2549    
       300   343.9775      -34296.799      3177.4658     -4168.109       3366.2549    
       400   308.63346     -34292.102     -2724.1536     -2488.8608      3366.2549    
       500   284.53443     -34288.847      4478.1479     -1610.0571      3366.2549    
       600   318.27707     -34315.204      894.35804     -4878.32        3366.2549    
       700   299.26656     -34302.359      5461.19       -2125.8242      3366.2549    
       800   292.52253     -34304.678     -6696.1017     -5067.8767      3366.2549    
       900   329.19907     -34332.698     -11498.612     -8095.9662      3366.2549    
      1000   296.11678     -34293.155     -10604.843     -5676.5919      3366.2549    
      1100   314.10496     -34298.407     -12252.335     -5626.2666      3366.2549    
      1200   299.35468     -34303.762     -3690.3469     -409.94274      3366.2549    
      1300   282.87441     -34311.484      6496.5491     -998.04191      3366.2549    
      1400   289.5102      -34314.045     -7128.2516     -3308.4767      3366.2549    
      1500   287.33138     -34301.494      1342.4802     -4043.1353      3366.2549    
      1600   311.20561     -34286.606     -13327.928     -9458.0423      3366.2549    
      1700   328.85651     -34302.63      -4150.9493     -10443.854      3366.2549    
      1800   302.82585     -34304.037     -17365.094     -7200.0153      3366.2549    
      1900   290.7806      -34307.539     -17824.414     -13359.076      3366.2549    
      2000   284.74895     -34309.776     -5729.0907     -8428.1176      3366.2549    
      2100   311.64733     -34313.973     -14396.365     -10539.385      3366.2549    
      2200   306.38586     -34280.39       1870.3215     -4708.4698      3366.2549    
      2300   299.5659      -34284.099     -2184.5709     -6865.7534      3366.2549    
      2400   282.76118     -34285.143     -9078.2712     -5522.0226      3366.2549    
      2500   287.04766     -34298.219     -6208.3457     -5436.8931      3366.2549    
      2600   295.54911     -34313.377     -13194.741     -10705.602      3366.2549    
      2700   293.31706     -34329.089     -2776.9025     -11367.016      3366.2549    
      2800   286.35266     -34341.583      4522.6136     -8608.2301      3366.2549    
      2900   299.67718     -34334.823      7391.2061     -10259.091      3366.2549    
      3000   318.50577     -34319.173     -6144.7596     -6057.0077      3366.2549    
Loop time of 129.41 on 8 procs for 3000 steps with 295 atoms

Performance: 1.001 ns/day, 23.965 hours/ns, 23.182 timesteps/s, 6.839 katom-step/s
98.9% CPU use with 8 MPI tasks x 1 OpenMP threads

MPI task timing breakdown:
Section |  min time  |  avg time  |  max time  |%varavg| %total
---------------------------------------------------------------
Pair    | 75.451     | 101.71     | 108.45     | 101.6 | 78.59
Bond    | 0.0083197  | 0.0089355  | 0.0099969  |   0.6 |  0.01
Neigh   | 6.1282     | 8.2735     | 8.8294     |  28.6 |  6.39
Comm    | 1.8027     | 8.5447     | 34.797     | 350.5 |  6.60
Output  | 0.001337   | 0.0014903  | 0.0022684  |   0.8 |  0.00
Modify  | 10.252     | 10.803     | 12.958     |  25.1 |  8.35
Other   |            | 0.07117    |            |       |  0.05

Nlocal:         36.875 ave          42 max          32 min
Histogram: 1 1 0 1 0 2 1 0 0 2
Nghost:           2990 ave        3021 max        2952 min
Histogram: 1 0 1 0 1 1 0 3 0 1
Neighs:          22718 ave       25914 max       19854 min
Histogram: 2 0 1 0 2 1 0 0 1 1

Total # of neighbors = 181744
Ave neighs/atom = 616.08136
Ave special neighs/atom = 0
Neighbor list builds = 300
Dangerous builds not checked
OMP_NUM_THREADS environment is not set. Defaulting to 1 thread. (src/comm.cpp:98)
  using 1 OpenMP thread(s) per MPI task
Reading restart file ...
  restart file = 2 Aug 2023, LAMMPS = 2 Aug 2023
  restoring atom style full from restart
  triclinic box = (0 0 0) to (15.1447 13.6088 16.498) with tilt (-7.6974 -0.6366 0.5805)
WARNING: Triclinic box skew is large. LAMMPS will run inefficiently. (src/domain.cpp:220)
  2 by 2 by 2 MPI processor grid
  pair style reaxff stores no restart info
  295 atoms
Finding 1-2 1-3 1-4 neighbors ...
  special bond factors lj:    0        0        0       
  special bond factors coul:  0        0        0       
     0 = max # of 1-2 neighbors
     0 = max # of 1-3 neighbors
     0 = max # of 1-4 neighbors
     1 = max # of special neighbors
  special bonds CPU = 0.000 seconds
  read_restart CPU = 0.004 seconds
*****Positive-change 1 starts.*****
Resetting global fix info from restart file:
  fix style: nvt, fix ID: 4
Changing box ...
WARNING: Triclinic box skew is large. LAMMPS will run inefficiently. (src/domain.cpp:220)
  triclinic box = (0 0 0) to (15.296147 13.6088 16.498) with tilt (-7.6974 -0.6366 0.5805)
WARNING: Triclinic box skew is large. LAMMPS will run inefficiently. (src/domain.cpp:220)
  triclinic box = (0 0 0) to (15.296147 13.6088 16.498) with tilt (-7.774374 -0.6366 0.5805)
WARNING: Triclinic box skew is large. LAMMPS will run inefficiently. (src/domain.cpp:220)
  triclinic box = (0 0 0) to (15.296147 13.6088 16.498) with tilt (-7.774374 -0.642966 0.5805)
All restart file global fix info was re-assigned
Neighbor list info ...
  update: every = 10 steps, delay = 0 steps, check = no
  max neighbors/atom: 2000, page size: 100000
  master list distance cutoff = 12
  ghost atom cutoff = 12
  binsize = 6, bins = 4 3 3
  2 neighbor lists, perpetual/occasional/extra = 2 0 0
  (1) pair reaxff, perpetual
      attributes: half, newton off, ghost
      pair build: half/bin/newtoff/ghost
      stencil: full/ghost/bin/3d
      bin: standard
  (2) fix qeq/reaxff, perpetual, copy from (1)
      attributes: half, newton off
      pair build: copy
      stencil: none
      bin: none
Setting up Verlet run ...
  Unit style    : real
  Current step  : 0
  Time step     : 0.5
Per MPI rank memory allocation (min/avg/max) = 113.4 | 115.4 | 117.6 Mbytes
   Step          Temp          PotEng         Press        f_avgp[1]        Volume    
         0   285.25672     -34265.866     -59161.664      0              3434.2601    
       100   303.05865     -34271.646     -22109.124     -13421.146      3434.2601    
       200   306.96218     -34279.155     -390.06383     -9145.7013      3434.2601    
       300   287.66409     -34275.053     -1965.069      -14053.679      3434.2601    
       400   275.62868     -34272.064      1677.2017     -11259.434      3434.2601    
       500   275.6027      -34276.316      3989.8568     -14814.192      3434.2601    
       600   284.73521     -34288.677     -8271.4778     -10765.958      3434.2601    
       700   306.63889     -34299.696     -17349.48      -13515.7        3434.2601    
       800   300.33951     -34277.217      2419.4562     -8838.2206      3434.2601    
       900   334.72508     -34301.36      -3211.4647     -12709.215      3434.2601    
      1000   309.64025     -34289.307     -11978.698     -7746.9769      3434.2601    
      1100   299.41179     -34296.037     -2479.1298     -10780.58       3434.2601    
      1200   298.91868     -34305.363     -9931.5156     -5095.496       3434.2601    
      1300   302.29852     -34300.26       3857.5272     -5156.8215      3434.2601    
      1400   322.15555     -34303.501      43.961495     -2897.7298      3434.2601    
      1500   324.01651     -34311.33      -12169.524     -6246.8934      3434.2601    
      1600   298.22072     -34302.527     -3525.9298     -10237.283      3434.2601    
      1700   282.79215     -34308.793     -2119.7679     -9659.0299      3434.2601    
      1800   283.29606     -34310.111     -5866.6964     -4079.242       3434.2601    
      1900   295.68012     -34286.499      5151.6996     -7452.4587      3434.2601    
      2000   303.67813     -34286.315     -4275.6357     -10528.269      3434.2601    
      2100   292.22328     -34276.816      2221.3881     -6663.7302      3434.2601    
      2200   321.02734     -34297.874     -3892.6903     -7754.2566      3434.2601    
      2300   313.04547     -34298.136     -5399.2128     -5737.868       3434.2601    
      2400   298.75088     -34305.798     -10663.67      -11618.686      3434.2601    
      2500   281.30403     -34302.484      6668.1992     -14079.463      3434.2601    
      2600   311.38881     -34320.132     -8380.0402     -11945.67       3434.2601    
      2700   309.72916     -34285.898     -8067.7668     -8344.4709      3434.2601    
      2800   307.96073     -34278.95      -106.47339     -8488.8282      3434.2601    
      2900   296.38556     -34281.678      1081.2363     -9470.8613      3434.2601    
      3000   289.94379     -34291.869     -7628.9977     -10787.961      3434.2601    
Loop time of 127.394 on 8 procs for 3000 steps with 295 atoms

Performance: 1.017 ns/day, 23.591 hours/ns, 23.549 timesteps/s, 6.947 katom-step/s
98.9% CPU use with 8 MPI tasks x 1 OpenMP threads

MPI task timing breakdown:
Section |  min time  |  avg time  |  max time  |%varavg| %total
---------------------------------------------------------------
Pair    | 76.127     | 99.757     | 106.72     |  96.6 | 78.31
Bond    | 0.0085783  | 0.0091203  | 0.01018    |   0.5 |  0.01
Neigh   | 6.3059     | 8.1525     | 8.6811     |  25.9 |  6.40
Comm    | 1.6348     | 8.5969     | 32.228     | 329.3 |  6.75
Output  | 0.0086635  | 0.010483   | 0.012439   |   1.4 |  0.01
Modify  | 10.29      | 10.798     | 12.65      |  22.5 |  8.48
Other   |            | 0.06932    |            |       |  0.05

Nlocal:         36.875 ave          42 max          31 min
Histogram: 1 1 1 0 1 0 1 1 0 2
Nghost:        2965.88 ave        3002 max        2925 min
Histogram: 1 0 0 2 1 1 0 2 0 1
Neighs:        22245.8 ave       25252 max       18821 min
Histogram: 1 1 1 0 1 0 1 1 0 2

Total # of neighbors = 177966
Ave neighs/atom = 603.27458
Ave special neighs/atom = 0
Neighbor list builds = 300
Dangerous builds not checked
*****Equilibration pos1 starts.*****
WARNING: New thermo_style command, previous thermo_modify settings will be lost (src/output.cpp:903)
Neighbor list info ...
  update: every = 10 steps, delay = 0 steps, check = no
  max neighbors/atom: 2000, page size: 100000
  master list distance cutoff = 12
  ghost atom cutoff = 12
  binsize = 6, bins = 4 3 3
  2 neighbor lists, perpetual/occasional/extra = 2 0 0
  (1) pair reaxff, perpetual
      attributes: half, newton off, ghost
      pair build: half/bin/newtoff/ghost
      stencil: full/ghost/bin/3d
      bin: standard
  (2) fix qeq/reaxff, perpetual, copy from (1)
      attributes: half, newton off
      pair build: copy
      stencil: none
      bin: none
Setting up Verlet run ...
  Unit style    : real
  Current step  : 0
  Time step     : 0.5
Per MPI rank memory allocation (min/avg/max) = 113.4 | 115.4 | 117.5 Mbytes
   Step          Temp          PotEng         Press        f_avgp[1]        Volume    
         0   289.94379     -34291.869     -7629.0003      0              3434.2601    
       100   291.9243      -34296.5       -4257.8286     -6581.6827      3434.2601    
       200   273.6938      -34291.412     -793.28352     -4180.7248      3434.2601    
       300   278.17222     -34312.451     -3392.3957     -1877.9251      3434.2601    
       400   289.87473     -34312.491      1749.8138     -8461.7868      3434.2601    
       500   288.52457     -34285.884      5596.9565     -3129.2687      3434.2601    
       600   292.49006     -34277.105     -5887.9123     -4778.9631      3434.2601    
       700   319.40301     -34307.675      10674.21      -8408.3478      3434.2601    
       800   309.47108     -34312.469     -799.29612     -7949.4654      3434.2601    
       900   292.9017      -34308.511     -6414.2663     -11460.71       3434.2601    
      1000   277.57034     -34295.188     -14718.926     -10721.238      3434.2601    
      1100   324.61922     -34321.492     -2714.755      -8338.5133      3434.2601    
      1200   323.4365      -34292.226     -7117.1298     -13934.9        3434.2601    
      1300   368.05255     -34312.649     -4024.1362     -4247.7513      3434.2601    
      1400   309.45879     -34297.025      5138.1029     -8949.904       3434.2601    
      1500   298.18302     -34313.102     -1937.0839     -6800.3098      3434.2601    
      1600   289.80356     -34320.689      6563.0243     -2238.966       3434.2601    
      1700   280.31449     -34315.032     -6974.7403     -2339.016       3434.2601    
      1800   298.02861     -34313.39      -12905.954     -9283.1975      3434.2601    
      1900   310.08622     -34298.331     -5530.7193     -8187.1088      3434.2601    
      2000   327.76089     -34309.721      4235.2937     -6132.771       3434.2601    
      2100   304.87948     -34302.251     -11582.796     -191.99701      3434.2601    
      2200   307.27537     -34313.751     -1942.0083     -9936.7105      3434.2601    
      2300   286.23157     -34300.659     -9635.0452     -11930.708      3434.2601    
      2400   310.13954     -34322.631      4284.6313     -5573.2009      3434.2601    
      2500   294.6302      -34317.61      -3597.7599     -92.494448      3434.2601    
      2600   264.82084     -34322.903     -16318.727     -9717.5302      3434.2601    
      2700   269.18569     -34328.929     -4745.9831     -8727.7462      3434.2601    
      2800   302.99023     -34331.932      4634.1982     -7107.9144      3434.2601    
      2900   302.39117     -34317.547     -12421.315     -6364.5531      3434.2601    
      3000   324.39985     -34325.118     -76.063565     -4538.9968      3434.2601    
Loop time of 128.155 on 8 procs for 3000 steps with 295 atoms

Performance: 1.011 ns/day, 23.732 hours/ns, 23.409 timesteps/s, 6.906 katom-step/s
98.8% CPU use with 8 MPI tasks x 1 OpenMP threads

MPI task timing breakdown:
Section |  min time  |  avg time  |  max time  |%varavg| %total
---------------------------------------------------------------
Pair    | 70.686     | 100.05     | 107.64     | 113.1 | 78.07
Bond    | 0.0084516  | 0.0089573  | 0.010066   |   0.5 |  0.01
Neigh   | 6.0152     | 8.1288     | 8.6532     |  28.7 |  6.34
Comm    | 1.3144     | 8.8973     | 38.256     | 379.3 |  6.94
Output  | 0.001304   | 0.0015147  | 0.0025274  |   1.0 |  0.00
Modify  | 10.499     | 11         | 13.128     |  24.7 |  8.58
Other   |            | 0.0702     |            |       |  0.05

Nlocal:         36.875 ave          46 max          26 min
Histogram: 1 0 1 0 1 0 2 1 1 1
Nghost:        2963.88 ave        3019 max        2902 min
Histogram: 1 0 1 0 1 2 1 1 0 1
Neighs:          22231 ave       27379 max       15920 min
Histogram: 1 0 1 0 1 0 2 1 1 1

Total # of neighbors = 177848
Ave neighs/atom = 602.87458
Ave special neighs/atom = 0
Neighbor list builds = 300
Dangerous builds not checked
OMP_NUM_THREADS environment is not set. Defaulting to 1 thread. (src/comm.cpp:98)
  using 1 OpenMP thread(s) per MPI task
Reading restart file ...
  restart file = 2 Aug 2023, LAMMPS = 2 Aug 2023
  restoring atom style full from restart
  triclinic box = (0 0 0) to (15.1447 13.6088 16.498) with tilt (-7.6974 -0.6366 0.5805)
WARNING: Triclinic box skew is large. LAMMPS will run inefficiently. (src/domain.cpp:220)
  2 by 2 by 2 MPI processor grid
  pair style reaxff stores no restart info
  295 atoms
Finding 1-2 1-3 1-4 neighbors ...
  special bond factors lj:    0        0        0       
  special bond factors coul:  0        0        0       
     0 = max # of 1-2 neighbors
     0 = max # of 1-3 neighbors
     0 = max # of 1-4 neighbors
     1 = max # of special neighbors
  special bonds CPU = 0.001 seconds
  read_restart CPU = 0.004 seconds
*****Negative-change 2 starts.*****
Resetting global fix info from restart file:
  fix style: nvt, fix ID: 4
Changing box ...
WARNING: Triclinic box skew is large. LAMMPS will run inefficiently. (src/domain.cpp:220)
  triclinic box = (0 0 0) to (15.1447 13.472712 16.498) with tilt (-7.6974 -0.6366 0.5805)
WARNING: Triclinic box skew is large. LAMMPS will run inefficiently. (src/domain.cpp:220)
  triclinic box = (0 0 0) to (15.1447 13.472712 16.498) with tilt (-7.6974 -0.6366 0.574695)
All restart file global fix info was re-assigned
Neighbor list info ...
  update: every = 10 steps, delay = 0 steps, check = no
  max neighbors/atom: 2000, page size: 100000
  master list distance cutoff = 12
  ghost atom cutoff = 12
  binsize = 6, bins = 4 3 3
  2 neighbor lists, perpetual/occasional/extra = 2 0 0
  (1) pair reaxff, perpetual
      attributes: half, newton off, ghost
      pair build: half/bin/newtoff/ghost
      stencil: full/ghost/bin/3d
      bin: standard
  (2) fix qeq/reaxff, perpetual, copy from (1)
      attributes: half, newton off
      pair build: copy
      stencil: none
      bin: none
Setting up Verlet run ...
  Unit style    : real
  Current step  : 0
  Time step     : 0.5
Per MPI rank memory allocation (min/avg/max) = 115.9 | 118 | 119.7 Mbytes
   Step          Temp          PotEng         Press        f_avgp[1]        Volume    
         0   285.25672     -34286.735      23723.917      0              3366.2549    
       100   292.0644      -34277.552     -7352.784      -5301.6408      3366.2549    
       200   323.77541     -34299.465     -400.63614     -5679.5128      3366.2549    
       300   305.83239     -34290.581     -6756.1275     -8370.329       3366.2549    
       400   280.15744     -34278.003      8000.0487     -4168.2755      3366.2549    
       500   305.98251     -34313.781      200.39642     -9650.9476      3366.2549    
       600   280.01356     -34308.254     -7759.2715     -11283.923      3366.2549    
       700   291.01172     -34307.6        2825.0298     -9019.0951      3366.2549    
       800   319.11813     -34307.854     -3148.9082     -7770.6423      3366.2549    
       900   314.90957     -34296.726     -5284.7115     -11241.247      3366.2549    
      1000   300.0124      -34293.823      115.19046     -9080.5223      3366.2549    
      1100   280.19937     -34290.585     -885.37485     -8555.3535      3366.2549    
      1200   289.63419     -34307.612     -2725.9251     -2305.4148      3366.2549    
      1300   283.97817     -34307.888     -1900.3561     -6705.0377      3366.2549    
      1400   304.5748      -34314.921      6297.5843     -5228.8442      3366.2549    
      1500   303.49069     -34291.959     -8324.9923     -7046.8049      3366.2549    
      1600   317.29551     -34292.345     -11874.54      -4774.5205      3366.2549    
      1700   325.87035     -34314.299      6528.6842     -8019.7002      3366.2549    
      1800   290.45885     -34317.046     -3558.4921     -2734.3965      3366.2549    
      1900   277.31446     -34299.281      12192.076     -6603.9377      3366.2549    
      2000   312.61731     -34307.286     -1466.0901     -9279.924       3366.2549    
      2100   323.61745     -34304.748     -14327.419     -7851.0436      3366.2549    
      2200   303.37999     -34297.399      13811.233     -5246.7789      3366.2549    
      2300   301.70904     -34329.046     -5994.362      -8619.9233      3366.2549    
      2400   287.45241     -34313.951      4331.8233     -5690.4337      3366.2549    
      2500   292.74089     -34302.78       1165.5488     -7098.1654      3366.2549    
      2600   304.12469     -34294.979      4917.0171     -7665.9761      3366.2549    
      2700   298.44871     -34283.378     -1318.1445     -11561.079      3366.2549    
      2800   298.73513     -34300.889     -23774.062     -12412.819      3366.2549    
      2900   279.11107     -34317.569     -5157.7627     -6446.3794      3366.2549    
      3000   293.68115     -34320.712     -1208.403      -8578.0655      3366.2549    
Loop time of 131.316 on 8 procs for 3000 steps with 295 atoms

Performance: 0.987 ns/day, 24.318 hours/ns, 22.846 timesteps/s, 6.739 katom-step/s
98.9% CPU use with 8 MPI tasks x 1 OpenMP threads

MPI task timing breakdown:
Section |  min time  |  avg time  |  max time  |%varavg| %total
---------------------------------------------------------------
Pair    | 71.983     | 103        | 110.62     | 117.2 | 78.44
Bond    | 0.0083694  | 0.0088661  | 0.0099212  |   0.6 |  0.01
Neigh   | 6.1314     | 8.4075     | 8.9566     |  30.0 |  6.40
Comm    | 1.201      | 8.8147     | 39.816     | 400.5 |  6.71
Output  | 0.0073569  | 0.0089053  | 0.010274   |   1.2 |  0.01
Modify  | 10.475     | 11.007     | 13.306     |  26.4 |  8.38
Other   |            | 0.07117    |            |       |  0.05

Nlocal:         36.875 ave          42 max          28 min
Histogram: 1 0 0 0 0 2 1 2 0 2
Nghost:        3033.12 ave        3055 max        3013 min
Histogram: 2 0 2 0 0 0 1 1 1 1
Neighs:        22692.8 ave       25690 max       17425 min
Histogram: 1 0 0 0 0 2 1 2 0 2

Total # of neighbors = 181542
Ave neighs/atom = 615.39661
Ave special neighs/atom = 0
Neighbor list builds = 300
Dangerous builds not checked
*****Equilibration neg2 starts.*****
WARNING: New thermo_style command, previous thermo_modify settings will be lost (src/output.cpp:903)
Neighbor list info ...
  update: every = 10 steps, delay = 0 steps, check = no
  max neighbors/atom: 2000, page size: 100000
  master list distance cutoff = 12
  ghost atom cutoff = 12
  binsize = 6, bins = 4 3 3
  2 neighbor lists, perpetual/occasional/extra = 2 0 0
  (1) pair reaxff, perpetual
      attributes: half, newton off, ghost
      pair build: half/bin/newtoff/ghost
      stencil: full/ghost/bin/3d
      bin: standard
  (2) fix qeq/reaxff, perpetual, copy from (1)
      attributes: half, newton off
      pair build: copy
      stencil: none
      bin: none
Setting up Verlet run ...
  Unit style    : real
  Current step  : 0
  Time step     : 0.5
Per MPI rank memory allocation (min/avg/max) = 116 | 118 | 119.7 Mbytes
   Step          Temp          PotEng         Press        f_avgp[1]        Volume    
         0   293.68115     -34320.712     -1208.4329      0              3366.2549    
       100   291.61425     -34313.859     -1104.4758     -1114.6944      3366.2549    
       200   299.98867     -34290.003     -12349.314     -4827.6566      3366.2549    
       300   325.22958     -34301.291      3247.3444     -1760.4023      3366.2549    
       400   322.27452     -34309.183      7270.7311     -8912.6203      3366.2549    
       500   286.98564     -34292.528      634.28516     -1919.9646      3366.2549    
       600   309.61672     -34312.764     -5539.1576     -6077.7678      3366.2549    
       700   308.63776     -34313.008     -7364.3171     -9596.0782      3366.2549    
       800   310.86935     -34336.103     -14397.067     -9375.4781      3366.2549    
       900   273.4223      -34321.322     -3074.8701     -8196.5515      3366.2549    
      1000   297.26398     -34330.02      -2398.3966     -6425.5975      3366.2549    
      1100   299.17547     -34306.793     -8474.0949      62.572764      3366.2549    
      1200   289.40128     -34283.055      4760.4767     -5345.6736      3366.2549    
      1300   305.05472     -34294.139      13638.99      -7433.6868      3366.2549    
      1400   317.3503      -34325.301     -395.13511     -11000.043      3366.2549    
      1500   292.39867     -34319.64       2713.92       -9709.81        3366.2549    
      1600   311.01617     -34338.135     -17168.744     -10186.28       3366.2549    
      1700   297.76467     -34329.584     -11556.092     -10969.867      3366.2549    
      1800   296.17837     -34325.52       5991.1812     -7557.0031      3366.2549    
      1900   314.52909     -34313.976      556.59544     -7591.4065      3366.2549    
      2000   300.27609     -34299.045      7705.243      -2410.0989      3366.2549    
      2100   288.49563     -34310.662      511.2835      -5940.8287      3366.2549    
      2200   279.97923     -34317.32      -13642.166     -3036.4455      3366.2549    
      2300   292.28986     -34325.653     -2696.1642     -6433.6616      3366.2549    
      2400   284.34064     -34315.481     -9694.3185     -3193.1429      3366.2549    
      2500   293.87061     -34314.958     -7302.4044     -11861.537      3366.2549    
      2600   312.7992      -34320.3        8281.8555     -8136.5573      3366.2549    
      2700   313.79477     -34303.659     -4906.7118     -4653.7506      3366.2549    
      2800   313.03003     -34282.968      11873.343     -1629.649       3366.2549    
      2900   334.91212     -34290.838     -7803.4831     -4359.1595      3366.2549    
      3000   315.42172     -34302.379     -13890.59      -7899.4654      3366.2549    
Loop time of 132.732 on 8 procs for 3000 steps with 295 atoms

Performance: 0.976 ns/day, 24.580 hours/ns, 22.602 timesteps/s, 6.668 katom-step/s
98.9% CPU use with 8 MPI tasks x 1 OpenMP threads

MPI task timing breakdown:
Section |  min time  |  avg time  |  max time  |%varavg| %total
---------------------------------------------------------------
Pair    | 94.875     | 106.62     | 111.8      |  48.4 | 80.33
Bond    | 0.0084908  | 0.0089382  | 0.0099337  |   0.5 |  0.01
Neigh   | 7.9401     | 8.6463     | 8.9322     |   9.9 |  6.51
Comm    | 1.3882     | 6.5713     | 18.316     | 195.2 |  4.95
Output  | 0.0013623  | 0.0016489  | 0.0028819  |   1.2 |  0.00
Modify  | 10.551     | 10.815     | 11.526     |   8.7 |  8.15
Other   |            | 0.07082    |            |       |  0.05

Nlocal:         36.875 ave          42 max          28 min
Histogram: 1 0 0 0 0 2 1 3 0 1
Nghost:        3016.38 ave        3053 max        2977 min
Histogram: 1 1 0 0 0 4 0 0 0 2
Neighs:        22705.5 ave       25652 max       17478 min
Histogram: 1 0 0 0 0 2 1 2 1 1

Total # of neighbors = 181644
Ave neighs/atom = 615.74237
Ave special neighs/atom = 0
Neighbor list builds = 300
Dangerous builds not checked
OMP_NUM_THREADS environment is not set. Defaulting to 1 thread. (src/comm.cpp:98)
  using 1 OpenMP thread(s) per MPI task
Reading restart file ...
  restart file = 2 Aug 2023, LAMMPS = 2 Aug 2023
  restoring atom style full from restart
  triclinic box = (0 0 0) to (15.1447 13.6088 16.498) with tilt (-7.6974 -0.6366 0.5805)
WARNING: Triclinic box skew is large. LAMMPS will run inefficiently. (src/domain.cpp:220)
  2 by 2 by 2 MPI processor grid
  pair style reaxff stores no restart info
  295 atoms
Finding 1-2 1-3 1-4 neighbors ...
  special bond factors lj:    0        0        0       
  special bond factors coul:  0        0        0       
     0 = max # of 1-2 neighbors
     0 = max # of 1-3 neighbors
     0 = max # of 1-4 neighbors
     1 = max # of special neighbors
  special bonds CPU = 0.000 seconds
  read_restart CPU = 0.004 seconds
*****Positive-change 2 starts.*****
Resetting global fix info from restart file:
  fix style: nvt, fix ID: 4
Changing box ...
WARNING: Triclinic box skew is large. LAMMPS will run inefficiently. (src/domain.cpp:220)
  triclinic box = (0 0 0) to (15.1447 13.744888 16.498) with tilt (-7.6974 -0.6366 0.5805)
WARNING: Triclinic box skew is large. LAMMPS will run inefficiently. (src/domain.cpp:220)
  triclinic box = (0 0 0) to (15.1447 13.744888 16.498) with tilt (-7.6974 -0.6366 0.586305)
All restart file global fix info was re-assigned
Neighbor list info ...
  update: every = 10 steps, delay = 0 steps, check = no
  max neighbors/atom: 2000, page size: 100000
  master list distance cutoff = 12
  ghost atom cutoff = 12
  binsize = 6, bins = 4 3 3
  2 neighbor lists, perpetual/occasional/extra = 2 0 0
  (1) pair reaxff, perpetual
      attributes: half, newton off, ghost
      pair build: half/bin/newtoff/ghost
      stencil: full/ghost/bin/3d
      bin: standard
  (2) fix qeq/reaxff, perpetual, copy from (1)
      attributes: half, newton off
      pair build: copy
      stencil: none
      bin: none
Setting up Verlet run ...
  Unit style    : real
  Current step  : 0
  Time step     : 0.5
Per MPI rank memory allocation (min/avg/max) = 113.6 | 115.5 | 117.6 Mbytes
   Step          Temp          PotEng         Press        f_avgp[1]        Volume    
         0   285.25672     -34261.832     -60402.343      0              3434.2601    
       100   302.30468     -34269.169     -19724.819     -8825.7354      3434.2601    
       200   286.43278     -34260.958      246.36232     -7438.3917      3434.2601    
       300   288.44865     -34273.713     -4650.8157     -10218.857      3434.2601    
       400   298.1259      -34292.832      177.45281     -6801.3221      3434.2601    
       500   298.04076     -34302.415     -5154.6122     -12220.793      3434.2601    
       600   291.9078      -34299.289     -12763.112     -9379.6546      3434.2601    
       700   291.63299     -34286.67       2590.2109     -8562.5649      3434.2601    
       800   308.89758     -34282.467     -3437.5358     -4541.5382      3434.2601    
       900   320.9077      -34284.804     -10935.51      -10079.077      3434.2601    
      1000   302.93368     -34277.91      -20598.733     -8188.3158      3434.2601    
      1100   304.27783     -34290.792     -7853.5893     -8787.9437      3434.2601    
      1200   287.47562     -34290.124     -6819.2629     -8803.7401      3434.2601    
      1300   300.06984     -34303.327     -1384.7424     -7672.9592      3434.2601    
      1400   307.62676     -34299.931     -14160.167     -8190.9812      3434.2601    
      1500   314.08315     -34289.336     -1824.6793     -5117.7581      3434.2601    
      1600   295.61049     -34258.36       3124.6612     -4106.1312      3434.2601    
      1700   309.11248     -34278.574     -1824.8429     -8455.9633      3434.2601    
      1800   294.59319     -34296.813     -3369.6328     -5913.4381      3434.2601    
      1900   297.86386     -34307.945      7779.9338     -11601.635      3434.2601    
      2000   299.17871     -34313.65      -15907.791     -15245.602      3434.2601    
      2100   295.38444     -34297.122     -874.91221     -6894.8458      3434.2601    
      2200   327.09728     -34293.126     -6019.319      -5415.1291      3434.2601    
      2300   318.48341     -34283.881     -12985.011     -2829.8673      3434.2601    
      2400   304.98227     -34286.37      -12867.051     -4059.5079      3434.2601    
      2500   300.05005     -34307.248     -8721.5387     -9209.9146      3434.2601    
      2600   280.59339     -34305.361     -7526.8159     -12173.069      3434.2601    
      2700   304.3481      -34320.015     -12166.218     -6897.5467      3434.2601    
      2800   306.33679     -34303.454     -10135.929     -10758.512      3434.2601    
      2900   299.13229     -34279.992     -2795.7189     -12812.025      3434.2601    
      3000   319.9132      -34290.665     -3941.6467     -14267.681      3434.2601    
Loop time of 127.306 on 8 procs for 3000 steps with 295 atoms

Performance: 1.018 ns/day, 23.575 hours/ns, 23.565 timesteps/s, 6.952 katom-step/s
98.8% CPU use with 8 MPI tasks x 1 OpenMP threads

MPI task timing breakdown:
Section |  min time  |  avg time  |  max time  |%varavg| %total
---------------------------------------------------------------
Pair    | 76.417     | 100.76     | 106.42     |  93.5 | 79.15
Bond    | 0.0084356  | 0.0089105  | 0.0095413  |   0.4 |  0.01
Neigh   | 6.4532     | 8.2517     | 8.7895     |  24.1 |  6.48
Comm    | 1.7407     | 7.3781     | 31.743     | 346.0 |  5.80
Output  | 0.0068936  | 0.0085696  | 0.010077   |   1.4 |  0.01
Modify  | 10.298     | 10.823     | 12.612     |  20.9 |  8.50
Other   |            | 0.07124    |            |       |  0.06

Nlocal:         36.875 ave          46 max          27 min
Histogram: 1 0 0 2 1 0 3 0 0 1
Nghost:        2969.12 ave        3011 max        2928 min
Histogram: 1 1 0 0 1 2 1 1 0 1
Neighs:        22230.4 ave       27429 max       16483 min
Histogram: 1 0 0 2 1 0 2 1 0 1

Total # of neighbors = 177843
Ave neighs/atom = 602.85763
Ave special neighs/atom = 0
Neighbor list builds = 300
Dangerous builds not checked
*****Equilibration pos2 starts.*****
WARNING: New thermo_style command, previous thermo_modify settings will be lost (src/output.cpp:903)
Neighbor list info ...
  update: every = 10 steps, delay = 0 steps, check = no
  max neighbors/atom: 2000, page size: 100000
  master list distance cutoff = 12
  ghost atom cutoff = 12
  binsize = 6, bins = 4 3 3
  2 neighbor lists, perpetual/occasional/extra = 2 0 0
  (1) pair reaxff, perpetual
      attributes: half, newton off, ghost
      pair build: half/bin/newtoff/ghost
      stencil: full/ghost/bin/3d
      bin: standard
  (2) fix qeq/reaxff, perpetual, copy from (1)
      attributes: half, newton off
      pair build: copy
      stencil: none
      bin: none
Setting up Verlet run ...
  Unit style    : real
  Current step  : 0
  Time step     : 0.5
Per MPI rank memory allocation (min/avg/max) = 113.7 | 115.5 | 117.5 Mbytes
   Step          Temp          PotEng         Press        f_avgp[1]        Volume    
         0   319.9132      -34290.665     -3941.6814      0              3434.2601    
       100   295.38994     -34281.967      3011.2729     -7144.7448      3434.2601    
       200   296.56985     -34309.838     -4950.7211     -3636.4198      3434.2601    
       300   276.24029     -34294.908     -5560.8422     -13277.214      3434.2601    
       400   313.60985     -34318.106      1629.9761     -12252.997      3434.2601    
       500   311.91049     -34311.004     -1391.1669     -13176.568      3434.2601    
       600   301.7605      -34309.929     -11184.637     -10110.192      3434.2601    
       700   263.82363     -34307.309     -1465.6716     -3524.7145      3434.2601    
       800   302.09264     -34342.727     -8430.3455     -11055.629      3434.2601    
       900   268.84105     -34293.301     -7361.2953     -9667.2392      3434.2601    
      1000   301.90115     -34306.531     -3972.1105     -12192.402      3434.2601    
      1100   304.60373     -34307.174     -16758.588     -12782.021      3434.2601    
      1200   302.50088     -34312.9        378.50015     -6661.2508      3434.2601    
      1300   300.20522     -34318.103     -11953.451     -7668.4769      3434.2601    
      1400   290.37595     -34301.443     -12798.218     -8650.2098      3434.2601    
      1500   287.86765     -34285.202     -13633.333     -6710.2118      3434.2601    
      1600   303.35386     -34291.977     -7536.2453     -10883.724      3434.2601    
      1700   303.32799     -34304.639     -13499.297     -10431.115      3434.2601    
      1800   302.22267     -34329.411      830.28596     -9268.0186      3434.2601    
      1900   286.75507     -34327.492     -2177.4204     -9837.6206      3434.2601    
      2000   299.29914     -34319.017     -13071.927     -9378.657       3434.2601    
      2100   292.05296     -34295.615     -28126.613     -12173.704      3434.2601    
      2200   297.86479     -34294.248     -9866.0726     -12376.061      3434.2601    
      2300   274.40525     -34280.727     -7118.4446     -5429.6666      3434.2601    
      2400   283.57982     -34299.912     -11301.586     -10755.469      3434.2601    
      2500   287.25195     -34328.874     -3753.701      -7225.1044      3434.2601    
      2600   282.93982     -34335.546     -14925.133     -13604.307      3434.2601    
      2700   280.34391     -34315.092     -4240.0017     -6295.1461      3434.2601    
      2800   291.99347     -34312.81      -10709.649     -9304.5112      3434.2601    
      2900   289.62161     -34297.145     -1513.0019     -7463.4559      3434.2601    
      3000   311.13679     -34299.05      -2998.0852      148.71803      3434.2601    
Loop time of 126.406 on 8 procs for 3000 steps with 295 atoms

Performance: 1.025 ns/day, 23.408 hours/ns, 23.733 timesteps/s, 7.001 katom-step/s
98.9% CPU use with 8 MPI tasks x 1 OpenMP threads

MPI task timing breakdown:
Section |  min time  |  avg time  |  max time  |%varavg| %total
---------------------------------------------------------------
Pair    | 85.412     | 98.12      | 106.21     |  80.7 | 77.62
Bond    | 0.008339   | 0.0087965  | 0.0093406  |   0.3 |  0.01
Neigh   | 7.0803     | 8.0457     | 8.6751     |  20.5 |  6.36
Comm    | 1.3501     | 9.4405     | 22.159     | 260.3 |  7.47
Output  | 0.0013296  | 0.0016537  | 0.0033935  |   1.6 |  0.00
Modify  | 10.102     | 10.72      | 11.679     |  17.8 |  8.48
Other   |            | 0.06907    |            |       |  0.05

Nlocal:         36.875 ave          43 max          25 min
Histogram: 1 0 0 0 0 0 3 2 1 1
Nghost:         2962.5 ave        3005 max        2909 min
Histogram: 1 0 0 1 1 1 2 1 0 1
Neighs:        22236.9 ave       25672 max       15342 min
Histogram: 1 0 0 0 0 0 3 2 1 1

Total # of neighbors = 177895
Ave neighs/atom = 603.0339
Ave special neighs/atom = 0
Neighbor list builds = 300
Dangerous builds not checked
OMP_NUM_THREADS environment is not set. Defaulting to 1 thread. (src/comm.cpp:98)
  using 1 OpenMP thread(s) per MPI task
Reading restart file ...
  restart file = 2 Aug 2023, LAMMPS = 2 Aug 2023
  restoring atom style full from restart
  triclinic box = (0 0 0) to (15.1447 13.6088 16.498) with tilt (-7.6974 -0.6366 0.5805)
WARNING: Triclinic box skew is large. LAMMPS will run inefficiently. (src/domain.cpp:220)
  2 by 2 by 2 MPI processor grid
  pair style reaxff stores no restart info
  295 atoms
Finding 1-2 1-3 1-4 neighbors ...
  special bond factors lj:    0        0        0       
  special bond factors coul:  0        0        0       
     0 = max # of 1-2 neighbors
     0 = max # of 1-3 neighbors
     0 = max # of 1-4 neighbors
     1 = max # of special neighbors
  special bonds CPU = 0.000 seconds
  read_restart CPU = 0.003 seconds
*****Negative-change 3 starts.*****
Resetting global fix info from restart file:
  fix style: nvt, fix ID: 4
Changing box ...
WARNING: Triclinic box skew is large. LAMMPS will run inefficiently. (src/domain.cpp:220)
  triclinic box = (0 0 0) to (15.1447 13.6088 16.33302) with tilt (-7.6974 -0.6366 0.5805)
All restart file global fix info was re-assigned
Neighbor list info ...
  update: every = 10 steps, delay = 0 steps, check = no
  max neighbors/atom: 2000, page size: 100000
  master list distance cutoff = 12
  ghost atom cutoff = 12
  binsize = 6, bins = 4 3 3
  2 neighbor lists, perpetual/occasional/extra = 2 0 0
  (1) pair reaxff, perpetual
      attributes: half, newton off, ghost
      pair build: half/bin/newtoff/ghost
      stencil: full/ghost/bin/3d
      bin: standard
  (2) fix qeq/reaxff, perpetual, copy from (1)
      attributes: half, newton off
      pair build: copy
      stencil: none
      bin: none
Setting up Verlet run ...
  Unit style    : real
  Current step  : 0
  Time step     : 0.5
Per MPI rank memory allocation (min/avg/max) = 115.9 | 117.5 | 118.7 Mbytes
   Step          Temp          PotEng         Press        f_avgp[1]        Volume    
         0   285.25672     -34287.524      24169.065      0              3366.2549    
       100   296.78289     -34281.59      -8400.5497     -6568.8049      3366.2549    
       200   313.72275     -34283.744     -1132.7594     -7353.9563      3366.2549    
       300   290.04669     -34264.295     -5313.1522     -8498.4998      3366.2549    
       400   289.75748     -34274.632      2894.5741     -7645.019       3366.2549    
       500   294.95613     -34297.878     -514.54559     -10093.481      3366.2549    
       600   279.36342     -34302.242     -14456.077     -7213.6916      3366.2549    
       700   283.92126     -34299.112     -7356.5519     -7539.3208      3366.2549    
       800   326.81236     -34313.409      5752.0348     -6302.2054      3366.2549    
       900   299.77617     -34280.29      -6059.4712     -7803.4953      3366.2549    
      1000   289.30044     -34282.028     -17022.586     -6792.7395      3366.2549    
      1100   287.38491     -34292.022     -7974.5063     -3757.4069      3366.2549    
      1200   288.27664     -34290.35       8736.9309      1074.3211      3366.2549    
      1300   300.27149     -34291.542      344.37373      3821.6809      3366.2549    
      1400   311.06338     -34289.387     -812.54653      697.1086       3366.2549    
      1500   294.81181     -34277.835     -1714.6595     -1372.2775      3366.2549    
      1600   298.89714     -34304.202      3831.8684     -9332.2122      3366.2549    
      1700   278.58924     -34306.539     -8337.8822     -4656.0451      3366.2549    
      1800   279.46267     -34301.92      -976.19973     -7071.0705      3366.2549    
      1900   288.47621     -34291.507     -859.9049      -7529.1363      3366.2549    
      2000   307.60697     -34299.166     -9912.1396     -8592.5159      3366.2549    
      2100   294.93015     -34288.534     -13292.562     -7896.7024      3366.2549    
      2200   300.47003     -34305.637     -3140.9616     -964.02428      3366.2549    
      2300   275.73026     -34302.099     -6955.6936     -4382.0835      3366.2549    
      2400   300.39378     -34321.663     -4928.6676     -9122.411       3366.2549    
      2500   304.77002     -34293.302      8528.4739      943.80829      3366.2549    
      2600   320.06741     -34293.779     -12878.331     -8749.3991      3366.2549    
      2700   306.37359     -34290.591     -7506.4963     -6026.8103      3366.2549    
      2800   281.05946     -34295.258     -2532.7923     -5549.4149      3366.2549    
      2900   278.3717      -34294.702     -15186.931     -5008.6225      3366.2549    
      3000   290.50046     -34296.519     -7612.7075     -6587.4832      3366.2549    
Loop time of 130.675 on 8 procs for 3000 steps with 295 atoms

Performance: 0.992 ns/day, 24.199 hours/ns, 22.958 timesteps/s, 6.773 katom-step/s
99.0% CPU use with 8 MPI tasks x 1 OpenMP threads

MPI task timing breakdown:
Section |  min time  |  avg time  |  max time  |%varavg| %total
---------------------------------------------------------------
Pair    | 75.602     | 100.69     | 108.59     | 101.2 | 77.05
Bond    | 0.0082892  | 0.0086564  | 0.0092599  |   0.4 |  0.01
Neigh   | 6.2022     | 8.1729     | 8.9291     |  28.6 |  6.25
Comm    | 2.7816     | 10.671     | 35.738     | 310.7 |  8.17
Output  | 0.0063263  | 0.0079191  | 0.0092779  |   1.3 |  0.01
Modify  | 10.324     | 11.059     | 13.052     |  24.7 |  8.46
Other   |            | 0.07029    |            |       |  0.05

Nlocal:         36.875 ave          43 max          29 min
Histogram: 1 0 1 0 0 3 0 2 0 1
Nghost:        3006.88 ave        3035 max        2977 min
Histogram: 1 0 1 0 0 3 1 1 0 1
Neighs:          22717 ave       26377 max       18093 min
Histogram: 1 0 1 0 1 2 0 2 0 1

Total # of neighbors = 181736
Ave neighs/atom = 616.05424
Ave special neighs/atom = 0
Neighbor list builds = 300
Dangerous builds not checked
*****Equilibration neg3 starts.*****
WARNING: New thermo_style command, previous thermo_modify settings will be lost (src/output.cpp:903)
Neighbor list info ...
  update: every = 10 steps, delay = 0 steps, check = no
  max neighbors/atom: 2000, page size: 100000
  master list distance cutoff = 12
  ghost atom cutoff = 12
  binsize = 6, bins = 4 3 3
  2 neighbor lists, perpetual/occasional/extra = 2 0 0
  (1) pair reaxff, perpetual
      attributes: half, newton off, ghost
      pair build: half/bin/newtoff/ghost
      stencil: full/ghost/bin/3d
      bin: standard
  (2) fix qeq/reaxff, perpetual, copy from (1)
      attributes: half, newton off
      pair build: copy
      stencil: none
      bin: none
Setting up Verlet run ...
  Unit style    : real
  Current step  : 0
  Time step     : 0.5
Per MPI rank memory allocation (min/avg/max) = 115.9 | 117.5 | 118.7 Mbytes
   Step          Temp          PotEng         Press        f_avgp[1]        Volume    
         0   290.50046     -34296.519     -7612.7062      0              3366.2549    
       100   296.46322     -34296.011      7470.5535     -3185.1485      3366.2549    
       200   307.47684     -34276.925      9153.5949     -3801.2151      3366.2549    
       300   339.75038     -34294.257     -1162.1053     -3154.1948      3366.2549    
       400   293.55426     -34271.758      3950.4622     -6605.2243      3366.2549    
       500   304.27769     -34289.668     -3821.2791     -4195.0926      3366.2549    
       600   279.27445     -34279.143     -521.7604      -3508.8909      3366.2549    
       700   301.04667     -34306.042     -513.27955     -4696.9035      3366.2549    
       800   306.31576     -34332.982      7584.4313     -2936.5762      3366.2549    
       900   285.99155     -34327.83       5514.9108     -4389.7801      3366.2549    
      1000   301.93345     -34307.676      12362.862     -3332.1463      3366.2549    
      1100   291.03532     -34281.189      4529.3333     -2782.5406      3366.2549    
      1200   319.30781     -34302.222     -1164.1797     -5590.6758      3366.2549    
      1300   286.67379     -34292.335     -3477.1748     -3354.5976      3366.2549    
      1400   292.51776     -34317.467     -5838.7897     -6636.7339      3366.2549    
      1500   283.17834     -34300.252     -7710.7836     -8194.3108      3366.2549    
      1600   308.24449     -34305.223     -8740.6471     -3209.3872      3366.2549    
      1700   298.15723     -34298.158      5262.8466     -3064.4368      3366.2549    
      1800   300.72423     -34302.841      209.53708     -5724.0009      3366.2549    
      1900   300.89208     -34308.069      1473.1562     -6331.7645      3366.2549    
      2000   278.40016     -34305.054     -4206.4455     -9129.3673      3366.2549    
      2100   298.8894      -34312.728     -3938.5492     -3039.5601      3366.2549    
      2200   302.11404     -34287.806     -3374.0538     -657.8059       3366.2549    
      2300   316.93933     -34290.968     -7767.0322     -4498.2633      3366.2549    
      2400   331.07392     -34310.853     -7649.9819      879.46788      3366.2549    
      2500   306.1472      -34308.769      4388.3155      1392.3628      3366.2549    
      2600   286.248       -34299.35      -606.90067     -6191.9225      3366.2549    
      2700   290.70122     -34298.928      56.524862     -8304.9756      3366.2549    
      2800   287.74125     -34285.821      862.75214     -9825.2566      3366.2549    
      2900   306.01299     -34287.433      3867.8141     -1594.5554      3366.2549    
      3000   304.00765     -34278.168     -12573.653     -5735.4225      3366.2549    
Loop time of 131.688 on 8 procs for 3000 steps with 295 atoms

Performance: 0.984 ns/day, 24.387 hours/ns, 22.781 timesteps/s, 6.720 katom-step/s
98.8% CPU use with 8 MPI tasks x 1 OpenMP threads

MPI task timing breakdown:
Section |  min time  |  avg time  |  max time  |%varavg| %total
---------------------------------------------------------------
Pair    | 75.957     | 102.23     | 110.99     | 104.4 | 77.63
Bond    | 0.0082617  | 0.0087495  | 0.0094378  |   0.4 |  0.01
Neigh   | 6.213      | 8.2749     | 8.929      |  28.2 |  6.28
Comm    | 1.1577     | 9.9147     | 36.18      | 335.2 |  7.53
Output  | 0.0013882  | 0.001659   | 0.003242   |   1.5 |  0.00
Modify  | 10.549     | 11.184     | 13.264     |  24.4 |  8.49
Other   |            | 0.07093    |            |       |  0.05

Nlocal:         36.875 ave          44 max          29 min
Histogram: 1 0 1 1 1 0 1 1 1 1
Nghost:        3012.25 ave        3049 max        2970 min
Histogram: 1 0 0 1 2 0 2 1 0 1
Neighs:        22712.2 ave       26828 max       18070 min
Histogram: 1 0 1 1 1 0 1 1 1 1

Total # of neighbors = 181698
Ave neighs/atom = 615.92542
Ave special neighs/atom = 0
Neighbor list builds = 300
Dangerous builds not checked
OMP_NUM_THREADS environment is not set. Defaulting to 1 thread. (src/comm.cpp:98)
  using 1 OpenMP thread(s) per MPI task
Reading restart file ...
  restart file = 2 Aug 2023, LAMMPS = 2 Aug 2023
  restoring atom style full from restart
  triclinic box = (0 0 0) to (15.1447 13.6088 16.498) with tilt (-7.6974 -0.6366 0.5805)
WARNING: Triclinic box skew is large. LAMMPS will run inefficiently. (src/domain.cpp:220)
  2 by 2 by 2 MPI processor grid
  pair style reaxff stores no restart info
  295 atoms
Finding 1-2 1-3 1-4 neighbors ...
  special bond factors lj:    0        0        0       
  special bond factors coul:  0        0        0       
     0 = max # of 1-2 neighbors
     0 = max # of 1-3 neighbors
     0 = max # of 1-4 neighbors
     1 = max # of special neighbors
  special bonds CPU = 0.000 seconds
  read_restart CPU = 0.003 seconds
*****Positive-change 3 starts.*****
Resetting global fix info from restart file:
  fix style: nvt, fix ID: 4
Changing box ...
WARNING: Triclinic box skew is large. LAMMPS will run inefficiently. (src/domain.cpp:220)
  triclinic box = (0 0 0) to (15.1447 13.6088 16.66298) with tilt (-7.6974 -0.6366 0.5805)
All restart file global fix info was re-assigned
Neighbor list info ...
  update: every = 10 steps, delay = 0 steps, check = no
  max neighbors/atom: 2000, page size: 100000
  master list distance cutoff = 12
  ghost atom cutoff = 12
  binsize = 6, bins = 4 3 3
  2 neighbor lists, perpetual/occasional/extra = 2 0 0
  (1) pair reaxff, perpetual
      attributes: half, newton off, ghost
      pair build: half/bin/newtoff/ghost
      stencil: full/ghost/bin/3d
      bin: standard
  (2) fix qeq/reaxff, perpetual, copy from (1)
      attributes: half, newton off
      pair build: copy
      stencil: none
      bin: none
Setting up Verlet run ...
  Unit style    : real
  Current step  : 0
  Time step     : 0.5
Per MPI rank memory allocation (min/avg/max) = 113.2 | 114.8 | 116 Mbytes
   Step          Temp          PotEng         Press        f_avgp[1]        Volume    
         0   285.25672     -34264.939     -56236.633      0              3434.2601    
       100   295.86783     -34265.865     -17084.084     -9217.1598      3434.2601    
       200   299.57444     -34278.502     -4386.7649     -7167.123       3434.2601    
       300   292.77201     -34290.063     -9949.8994     -11121.165      3434.2601    
       400   275.75647     -34285.29       2471.1463     -9034.9219      3434.2601    
       500   291.58733     -34299.081      6299.073      -13329.663      3434.2601    
       600   284.5017      -34290.789      2009.9074     -8956.7338      3434.2601    
       700   289.65248     -34280.282     -8395.0358     -11818.975      3434.2601    
       800   316.21092     -34290.955     -8324.9816     -4472.3729      3434.2601    
       900   306.28591     -34286.082     -5613.2552     -6331.0548      3434.2601    
      1000   308.7589      -34296.811      6904.4446     -8107.1381      3434.2601    
      1100   301.55728     -34302.097      3698.5244     -7165.5613      3434.2601    
      1200   278.99931     -34285.196     -1189.3314     -7153.2672      3434.2601    
      1300   312.62968     -34293.781      3740.3194     -5024.0075      3434.2601    
      1400   310.32435     -34280.29       456.72577     -3588.013       3434.2601    
      1500   271.19066     -34260.326     -4822.3785     -6957.0385      3434.2601    
      1600   297.98051     -34307.807     -10550.139     -11264.81       3434.2601    
      1700   288.9625      -34303.875     -3259.0452     -7443.4129      3434.2601    
      1800   287.53389     -34293.307     -12447.045     -10654.849      3434.2601    
      1900   299.07472     -34294.513     -20155.441     -11230.338      3434.2601    
      2000   300.71769     -34288.53       795.26922     -14847.139      3434.2601    
      2100   316.1934      -34308.188      4044.8073     -2739.794       3434.2601    
      2200   306.57212     -34327.863      3883.3987     -6519.3763      3434.2601    
      2300   297.00941     -34330.414     -640.59635     -4220.3087      3434.2601    
      2400   290.23933     -34316.105     -6909.1684     -12468.004      3434.2601    
      2500   279.9234      -34294.206      3666.7345     -7915.8521      3434.2601    
      2600   333.00924     -34331.907     -3351.6463     -7004.9493      3434.2601    
      2700   304.99468     -34308.103      378.14584     -5933.4382      3434.2601    
      2800   295.26241     -34309.326      908.31846     -7120.3013      3434.2601    
      2900   273.526       -34306.148     -2933.9272     -1533.3157      3434.2601    
      3000   294.09074     -34318.535      8467.4454     -9928.4142      3434.2601    
Loop time of 127.104 on 8 procs for 3000 steps with 295 atoms

Performance: 1.020 ns/day, 23.538 hours/ns, 23.603 timesteps/s, 6.963 katom-step/s
98.9% CPU use with 8 MPI tasks x 1 OpenMP threads

MPI task timing breakdown:
Section |  min time  |  avg time  |  max time  |%varavg| %total
---------------------------------------------------------------
Pair    | 75.031     | 99.215     | 106.68     |  96.8 | 78.06
Bond    | 0.0085026  | 0.0088701  | 0.0094709  |   0.3 |  0.01
Neigh   | 6.1723     | 8.1196     | 8.7287     |  27.0 |  6.39
Comm    | 1.2798     | 8.738      | 32.906     | 326.0 |  6.87
Output  | 0.0061384  | 0.0079075  | 0.0095062  |   1.5 |  0.01
Modify  | 10.352     | 10.944     | 12.914     |  23.4 |  8.61
Other   |            | 0.06961    |            |       |  0.05

Nlocal:         36.875 ave          44 max          33 min
Histogram: 2 2 0 1 0 2 0 0 0 1
Nghost:           2965 ave        3009 max        2922 min
Histogram: 1 0 2 0 0 3 0 1 0 1
Neighs:        22227.9 ave       26244 max       19929 min
Histogram: 2 2 0 1 0 2 0 0 0 1

Total # of neighbors = 177823
Ave neighs/atom = 602.78983
Ave special neighs/atom = 0
Neighbor list builds = 300
Dangerous builds not checked
*****Equilibration pos3 starts.*****
WARNING: New thermo_style command, previous thermo_modify settings will be lost (src/output.cpp:903)
Neighbor list info ...
  update: every = 10 steps, delay = 0 steps, check = no
  max neighbors/atom: 2000, page size: 100000
  master list distance cutoff = 12
  ghost atom cutoff = 12
  binsize = 6, bins = 4 3 3
  2 neighbor lists, perpetual/occasional/extra = 2 0 0
  (1) pair reaxff, perpetual
      attributes: half, newton off, ghost
      pair build: half/bin/newtoff/ghost
      stencil: full/ghost/bin/3d
      bin: standard
  (2) fix qeq/reaxff, perpetual, copy from (1)
      attributes: half, newton off
      pair build: copy
      stencil: none
      bin: none
Setting up Verlet run ...
  Unit style    : real
  Current step  : 0
  Time step     : 0.5
Per MPI rank memory allocation (min/avg/max) = 113.2 | 114.9 | 116.7 Mbytes
   Step          Temp          PotEng         Press        f_avgp[1]        Volume    
         0   294.09074     -34318.535      8467.4207      0              3434.2601    
       100   295.64053     -34316.894     -4184.7071     -792.93863      3434.2601    
       200   302.3014      -34301.757     -3928.7195     -1497.0816      3434.2601    
       300   305.75622     -34278.873     -14447.123     -3603.5962      3434.2601    
       400   311.0141      -34282.979     -4679.125      -5007.6076      3434.2601    
       500   294.60538     -34305.396     -7671.8889     -9583.6766      3434.2601    
       600   285.56535     -34308.871     -10326.967     -8423.6542      3434.2601    
       700   282.73945     -34298.733      2167.2155     -6502.4334      3434.2601    
       800   306.68106     -34295.885      4257.6463     -13125.586      3434.2601    
       900   314.10872     -34299.783     -1035.5281     -5778.2575      3434.2601    
      1000   317.13674     -34318.404     -17530.573     -7037.7327      3434.2601    
      1100   290.77613     -34310.842     -8702.7487     -5785.2721      3434.2601    
      1200   290.55277     -34313.762     -6769.9523     -3775.0104      3434.2601    
      1300   306.87046     -34326.846      1616.654      -4570.8809      3434.2601    
      1400   291.33364     -34302.648     -598.28655     -4716.0087      3434.2601    
      1500   298.88581     -34298.848     -9600.4409     -5074.4936      3434.2601    
      1600   298.26411     -34291.748     -2710.9335     -5505.6836      3434.2601    
      1700   314.57275     -34310.605     -9661.6165     -13439.775      3434.2601    
      1800   296.47679     -34318.344     -11663.497     -8204.2822      3434.2601    
      1900   303.1065      -34335.701      4817.1797     -8383.326       3434.2601    
      2000   322.01184     -34347.434      880.23913     -4510.9326      3434.2601    
      2100   294.75611     -34284.774     -4130.5525     -8969.7247      3434.2601    
      2200   337.16877     -34319.122      5469.075      -3584.169       3434.2601    
      2300   302.41134     -34300.318      9313.6149     -8019.7243      3434.2601    
      2400   296.02974     -34311.584     -15347.905     -12322.906      3434.2601    
      2500   281.23452     -34321.479     -11523.352     -10893.309      3434.2601    
      2600   285.13195     -34334.649     -12115.59      -5622.2944      3434.2601    
      2700   286.71455     -34304.302      19603.776     -1792.437       3434.2601    
      2800   314.13896     -34305.4       -4422.8277      1385.843       3434.2601    
      2900   302.94653     -34300.286      10565.008     -5204.2099      3434.2601    
      3000   291.98056     -34309.539     -1077.5186     -6277.3297      3434.2601    
Loop time of 128.08 on 8 procs for 3000 steps with 295 atoms

Performance: 1.012 ns/day, 23.719 hours/ns, 23.423 timesteps/s, 6.910 katom-step/s
98.9% CPU use with 8 MPI tasks x 1 OpenMP threads

MPI task timing breakdown:
Section |  min time  |  avg time  |  max time  |%varavg| %total
---------------------------------------------------------------
Pair    | 96.777     | 103.78     | 107.09     |  34.3 | 81.03
Bond    | 0.0085761  | 0.0090672  | 0.0095514  |   0.3 |  0.01
Neigh   | 7.8444     | 8.3891     | 8.7052     |   8.3 |  6.55
Comm    | 1.8706     | 5.175      | 12.198     | 153.9 |  4.04
Output  | 0.0014112  | 0.0016821  | 0.0032189  |   1.4 |  0.00
Modify  | 10.351     | 10.65      | 11.18      |   7.1 |  8.31
Other   |            | 0.07177    |            |       |  0.06

Nlocal:         36.875 ave          43 max          33 min
Histogram: 1 0 2 2 1 0 0 1 0 1
Nghost:        2944.88 ave        2996 max        2895 min
Histogram: 1 0 1 1 1 0 2 1 0 1
Neighs:        22240.4 ave       25593 max       20086 min
Histogram: 1 1 1 3 0 0 0 1 0 1

Total # of neighbors = 177923
Ave neighs/atom = 603.12881
Ave special neighs/atom = 0
Neighbor list builds = 300
Dangerous builds not checked
OMP_NUM_THREADS environment is not set. Defaulting to 1 thread. (src/comm.cpp:98)
  using 1 OpenMP thread(s) per MPI task
Reading restart file ...
  restart file = 2 Aug 2023, LAMMPS = 2 Aug 2023
  restoring atom style full from restart
  triclinic box = (0 0 0) to (15.1447 13.6088 16.498) with tilt (-7.6974 -0.6366 0.5805)
WARNING: Triclinic box skew is large. LAMMPS will run inefficiently. (src/domain.cpp:220)
  2 by 2 by 2 MPI processor grid
  pair style reaxff stores no restart info
  295 atoms
Finding 1-2 1-3 1-4 neighbors ...
  special bond factors lj:    0        0        0       
  special bond factors coul:  0        0        0       
     0 = max # of 1-2 neighbors
     0 = max # of 1-3 neighbors
     0 = max # of 1-4 neighbors
     1 = max # of special neighbors
  special bonds CPU = 0.000 seconds
  read_restart CPU = 0.003 seconds
*****Negative-change 4 starts.*****
Resetting global fix info from restart file:
  fix style: nvt, fix ID: 4
Changing box ...
WARNING: Triclinic box skew is large. LAMMPS will run inefficiently. (src/domain.cpp:220)
  triclinic box = (0 0 0) to (15.1447 13.6088 16.498) with tilt (-7.6974 -0.6366 0.41552)
All restart file global fix info was re-assigned
Neighbor list info ...
  update: every = 10 steps, delay = 0 steps, check = no
  max neighbors/atom: 2000, page size: 100000
  master list distance cutoff = 12
  ghost atom cutoff = 12
  binsize = 6, bins = 4 3 3
  2 neighbor lists, perpetual/occasional/extra = 2 0 0
  (1) pair reaxff, perpetual
      attributes: half, newton off, ghost
      pair build: half/bin/newtoff/ghost
      stencil: full/ghost/bin/3d
      bin: standard
  (2) fix qeq/reaxff, perpetual, copy from (1)
      attributes: half, newton off
      pair build: copy
      stencil: none
      bin: none
Setting up Verlet run ...
  Unit style    : real
  Current step  : 0
  Time step     : 0.5
Per MPI rank memory allocation (min/avg/max) = 114.2 | 116.4 | 117.9 Mbytes
   Step          Temp          PotEng         Press        f_avgp[1]        Volume    
         0   285.25672     -34287.467     -19671.567      0              3400.2575    
       100   297.44729     -34282.215     -18003.031     -7859.8762      3400.2575    
       200   300.59583     -34271.358      12017.268     -5498.9562      3400.2575    
       300   292.71456     -34263.876     -2091.2807     -11375.578      3400.2575    
       400   280.38637     -34269.126      10759.093     -7093.7056      3400.2575    
       500   302.89256     -34312.563      6623.6926     -8864.818       3400.2575    
       600   287.02182     -34314.361     -2874.9726     -6254.8631      3400.2575    
       700   295.49329     -34308.065     -778.61845     -8481.8859      3400.2575    
       800   330.4316      -34312.486     -756.57422     -4719.0012      3400.2575    
       900   303.93142     -34276.286     -4756.2819     -8776.5597      3400.2575    
      1000   291.92463     -34270.129     -3470.8837     -7543.1989      3400.2575    
      1100   280.03572     -34277.013     -8859.0653     -10589.421      3400.2575    
      1200   292.34891     -34301.399     -2443.3387     -7514.2876      3400.2575    
      1300   313.40915     -34323.94      -6240.931      -8462.2346      3400.2575    
      1400   300.22967     -34299.886      6344.3259     -2432.3185      3400.2575    
      1500   322.05979     -34298.274     -11720.098     -6756.0054      3400.2575    
      1600   306.4056      -34285.219     -5515.6817     -2847.7888      3400.2575    
      1700   281.1651      -34291.056     -17738.639     -12230.5        3400.2575    
      1800   282.61998     -34306.347     -2922.8344     -6291.6358      3400.2575    
      1900   302.25557     -34315.152     -8940.4117     -8656.3822      3400.2575    
      2000   301.07195     -34296.969     -3024.422      -10292.681      3400.2575    
      2100   305.56872     -34296.297      878.99386     -11032.026      3400.2575    
      2200   294.85713     -34290.107      1315.7605     -9118.4643      3400.2575    
      2300   305.69587     -34301.771     -12840.237     -11877.154      3400.2575    
      2400   319.09157     -34312.391     -295.69166     -471.82819      3400.2575    
      2500   306.44472     -34289.815     -12135.798     -8102.2306      3400.2575    
      2600   319.17217     -34300.345     -8990.6871     -7467.5665      3400.2575    
      2700   313.85795     -34323.596      7128.9695     -11481.592      3400.2575    
      2800   288.96041     -34312.198     -10608.558     -15273.015      3400.2575    
      2900   312.53694     -34327.29      -9587.8891     -14506.75       3400.2575    
      3000   310.59125     -34294.631     -7270.559      -7647.0562      3400.2575    
Loop time of 129.686 on 8 procs for 3000 steps with 295 atoms

Performance: 0.999 ns/day, 24.016 hours/ns, 23.133 timesteps/s, 6.824 katom-step/s
98.9% CPU use with 8 MPI tasks x 1 OpenMP threads

MPI task timing breakdown:
Section |  min time  |  avg time  |  max time  |%varavg| %total
---------------------------------------------------------------
Pair    | 101.71     | 105.78     | 108.77     |  23.9 | 81.56
[...]
      attributes: half, newton off
      pair build: copy
      stencil: none
      bin: none
Setting up Verlet run ...
  Unit style    : real
  Current step  : 0
  Time step     : 0.5
Per MPI rank memory allocation (min/avg/max) = 114.4 | 116.6 | 118.2 Mbytes
   Step          Temp          PotEng         Press        f_avgp[1]        Volume    
         0   285.25672     -34283.507     -16069.644      0              3400.2575    
       100   298.19513     -34280.211     -14711.227     -8040.138       3400.2575    
       200   304.62878     -34278.892      7184.5508     -6666.6564      3400.2575    
       300   298.39256     -34279.398     -5824.3122     -9947.7639      3400.2575    
       400   300.55114     -34292.27      -8632.6759     -5782.7265      3400.2575    
       500   285.79213     -34294.651      11014.77      -7178.1081      3400.2575    
       600   286.43523     -34311.234     -772.17953     -4015.1825      3400.2575    
       700   300.30673     -34313.774     -12325.306     -14400.242      3400.2575    
       800   321.61579     -34304.427     -5381.3641     -5672.4014      3400.2575    
       900   305.14447     -34280.281     -7583.9986     -9902.1027      3400.2575    
      1000   280.08112     -34269.749     -9815.952      -10612.811      3400.2575    
      1100   272.08962     -34279.887      6212.9294     -8994.5122      3400.2575    
      1200   304.39843     -34312.064     -16207.418     -8386.9372      3400.2575    
      1300   311.98167     -34311.05      -6648.5833     -9095.7539      3400.2575    
      1400   313.91997     -34295.807     -1402.0408     -12455.837      3400.2575    
      1500   300.30899     -34272.46      -4176.8797     -2589.138       3400.2575    
      1600   315.30883     -34287.601     -15358.761     -8868.4313      3400.2575    
      1700   294.04441     -34294.631     -4154.9121     -5439.7829      3400.2575    
      1800   292.109       -34313.31      -10959.516     -8503.9134      3400.2575    
      1900   294.0114      -34314.62      -13142.144     -8915.7385      3400.2575    
      2000   295.22186     -34294.473     -7474.3732     -6498.3479      3400.2575    
      2100   304.48221     -34279.228      5320.1787     -9760.0975      3400.2575    
      2200   302.63819     -34287.286     -8196.4015      1302.9701      3400.2575    
      2300   300.34409     -34304.375      6626.381      -4420.4428      3400.2575    
      2400   299.93829     -34319.373     -1402.7788     -10510.58       3400.2575    
      2500   294.12791     -34317.684     -3802.4036     -2841.7025      3400.2575    
      2600   289.33441     -34309.376     -5126.3852     -5376.8653      3400.2575    
      2700   320.7032      -34300.386     -10854.755     -7039.0143      3400.2575    
      2800   319.24696     -34304.232      486.65547     -4086.422       3400.2575    
      2900   313.72186     -34323.063     -12095.909     -9828.9393      3400.2575    
      3000   311.93219     -34329.55       1073.5391     -1468.109       3400.2575    
Loop time of 120.821 on 8 procs for 3000 steps with 295 atoms

Performance: 1.073 ns/day, 22.374 hours/ns, 24.830 timesteps/s, 7.325 katom-step/s
99.0% CPU use with 8 MPI tasks x 1 OpenMP threads

MPI task timing breakdown:
Section |  min time  |  avg time  |  max time  |%varavg| %total
---------------------------------------------------------------
Pair    | 65.956     | 86.738     | 100.65     | 165.2 | 71.79
Bond    | 0.0075375  | 0.008032   | 0.008414   |   0.3 |  0.01
Neigh   | 6.0186     | 7.6846     | 8.846      |  44.8 |  6.36
Comm    | 1.3693     | 15.265     | 36.068     | 393.7 | 12.63
Output  | 0.005576   | 0.0072639  | 0.0087005  |   1.4 |  0.01
Modify  | 9.904      | 11.054     | 12.704     |  37.4 |  9.15
Other   |            | 0.0645     |            |       |  0.05

Nlocal:         36.875 ave          44 max          25 min
Histogram: 1 0 0 0 1 1 3 0 0 2
Nghost:        2978.88 ave        3028 max        2922 min
Histogram: 1 0 0 1 1 1 2 1 0 1
Neighs:        22430.6 ave       26424 max       15514 min
Histogram: 1 0 0 0 1 1 1 2 0 2

Total # of neighbors = 179445
Ave neighs/atom = 608.28814
Ave special neighs/atom = 0
Neighbor list builds = 300
Dangerous builds not checked
*****Equilibration neg6 starts.*****
WARNING: New thermo_style command, previous thermo_modify settings will be lost (src/output.cpp:903)
Neighbor list info ...
  update: every = 10 steps, delay = 0 steps, check = no
  max neighbors/atom: 2000, page size: 100000
  master list distance cutoff = 12
  ghost atom cutoff = 12
  binsize = 6, bins = 4 3 3
  2 neighbor lists, perpetual/occasional/extra = 2 0 0
  (1) pair reaxff, perpetual
      attributes: half, newton off, ghost
      pair build: half/bin/newtoff/ghost
      stencil: full/ghost/bin/3d
      bin: standard
  (2) fix qeq/reaxff, perpetual, copy from (1)
      attributes: half, newton off
      pair build: copy
      stencil: none
      bin: none
Setting up Verlet run ...
  Unit style    : real
  Current step  : 0
  Time step     : 0.5
Per MPI rank memory allocation (min/avg/max) = 114.5 | 116.4 | 118.2 Mbytes
   Step          Temp          PotEng         Press        f_avgp[1]        Volume    
         0   311.93219     -34329.55       1073.5565      0              3400.2575    
       100   290.34462     -34300.202      5419.2713     -4466.0189      3400.2575    
       200   331.27583     -34309.493     -64.595398     -3983.3268      3400.2575    
       300   332.78175     -34305.794     -11938.578     -3108.336       3400.2575    
       400   299.95222     -34305.792     -13536.417     -6405.0459      3400.2575    
       500   335.8507      -34343.011     -7672.7591     -3129.9545      3400.2575    
       600   293.34707     -34317.613     -1083.279      -9165.6609      3400.2575    
       700   301.45773     -34324.874      426.9692      -8926.3851      3400.2575    
       800   291.23435     -34311.462      1293.3865     -6604.6081      3400.2575    
       900   308.98697     -34300.874      7329.8719     -205.68627      3400.2575    
      1000   321.54734     -34298.323     -9588.0802     -7701.9416      3400.2575    
      1100   321.00264     -34306.061      2052.6398     -2197.6129      3400.2575    
      1200   297.49237     -34321.289     -12986.489     -805.24018      3400.2575    
      1300   285.91156     -34314.232      6762.529      -6031.9201      3400.2575    
      1400   308.77138     -34321.085     -1716.0087     -9325.3998      3400.2575    
      1500   306.50396     -34301.139     -8094.0276     -3129.5147      3400.2575    
      1600   319.19396     -34300.105      2125.9631     -11329.23       3400.2575    
      1700   311.75627     -34295.178      824.47974     -6719.0502      3400.2575    
      1800   298.31196     -34311.651      188.67364     -6992.3601      3400.2575    
      1900   293.46794     -34319.322      4514.0989     -883.03203      3400.2575    
      2000   299.675       -34317.974      811.51832     -5040.0311      3400.2575    
      2100   304.43186     -34294.679     -3371.7314     -8249.2235      3400.2575    
      2200   311.35823     -34289.099     -14324.325     -8806.2767      3400.2575    
      2300   311.91328     -34301.285      1144.6325     -10256.259      3400.2575    
      2400   302.32873     -34307.159     -10238.418     -5809.0489      3400.2575    
      2500   299.12596     -34307.204      916.01149      897.05693      3400.2575    
      2600   323.9197      -34326.644      808.08777     -8045.8535      3400.2575    
      2700   308.75388     -34316.278     -10826.267     -10307.138      3400.2575    
      2800   280.85143     -34318.478     -998.51        -12010.86       3400.2575    
      2900   286.71194     -34341.883     -20605.235     -4111.7551      3400.2575    
      3000   273.3327      -34310.586     -5069.2741     -7380.0882      3400.2575    
Loop time of 113.284 on 8 procs for 3000 steps with 295 atoms

Performance: 1.144 ns/day, 20.978 hours/ns, 26.482 timesteps/s, 7.812 katom-step/s
99.0% CPU use with 8 MPI tasks x 1 OpenMP threads

MPI task timing breakdown:
Section |  min time  |  avg time  |  max time  |%varavg| %total
---------------------------------------------------------------
Pair    | 63.435     | 75.644     | 93.948     | 123.8 | 66.77
Bond    | 0.0071259  | 0.0075309  | 0.0081791  |   0.3 |  0.01
Neigh   | 5.9751     | 6.9965     | 8.5441     |  36.5 |  6.18
Comm    | 1.4154     | 19.737     | 31.97      | 242.5 | 17.42
Output  | 0.0011208  | 0.0013598  | 0.001969   |   0.7 |  0.00
Modify  | 9.2874     | 10.836     | 11.836     |  29.2 |  9.57
Other   |            | 0.06051    |            |       |  0.05

Nlocal:         36.875 ave          40 max          28 min
Histogram: 1 0 0 0 0 1 1 0 0 5
Nghost:        2987.62 ave        3029 max        2931 min
Histogram: 1 0 1 0 1 1 1 1 0 2
Neighs:        22467.5 ave       24314 max       17277 min
Histogram: 1 0 0 0 0 1 1 0 1 4

Total # of neighbors = 179740
Ave neighs/atom = 609.28814
Ave special neighs/atom = 0
Neighbor list builds = 300
Dangerous builds not checked
OMP_NUM_THREADS environment is not set. Defaulting to 1 thread. (src/comm.cpp:98)
  using 1 OpenMP thread(s) per MPI task
Reading restart file ...
  restart file = 2 Aug 2023, LAMMPS = 2 Aug 2023
  restoring atom style full from restart
  triclinic box = (0 0 0) to (15.1447 13.6088 16.498) with tilt (-7.6974 -0.6366 0.5805)
WARNING: Triclinic box skew is large. LAMMPS will run inefficiently. (src/domain.cpp:220)
  2 by 2 by 2 MPI processor grid
  pair style reaxff stores no restart info
  295 atoms
Finding 1-2 1-3 1-4 neighbors ...
  special bond factors lj:    0        0        0       
  special bond factors coul:  0        0        0       
     0 = max # of 1-2 neighbors
     0 = max # of 1-3 neighbors
     0 = max # of 1-4 neighbors
     1 = max # of special neighbors
  special bonds CPU = 0.000 seconds
  read_restart CPU = 0.002 seconds
*****Positive-change 6 starts.*****
Resetting global fix info from restart file:
  fix style: nvt, fix ID: 4
Changing box ...
WARNING: Triclinic box skew is large. LAMMPS will run inefficiently. (src/domain.cpp:220)
  triclinic box = (0 0 0) to (15.1447 13.6088 16.498) with tilt (-7.561312 -0.6366 0.5805)
All restart file global fix info was re-assigned
Neighbor list info ...
  update: every = 10 steps, delay = 0 steps, check = no
  max neighbors/atom: 2000, page size: 100000
  master list distance cutoff = 12
  ghost atom cutoff = 12
  binsize = 6, bins = 4 3 3
  2 neighbor lists, perpetual/occasional/extra = 2 0 0
  (1) pair reaxff, perpetual
      attributes: half, newton off, ghost
      pair build: half/bin/newtoff/ghost
      stencil: full/ghost/bin/3d
      bin: standard
  (2) fix qeq/reaxff, perpetual, copy from (1)
      attributes: half, newton off
      pair build: copy
      stencil: none
      bin: none
Setting up Verlet run ...
  Unit style    : real
  Current step  : 0
  Time step     : 0.5
Per MPI rank memory allocation (min/avg/max) = 113.7 | 115.9 | 117.7 Mbytes
   Step          Temp          PotEng         Press        f_avgp[1]        Volume    
         0   285.25672     -34287.594     -20387.154      0              3400.2575    
       100   300.47575     -34284.72      -17465.773     -7712.2849      3400.2575    
       200   306.99337     -34278.286      8753.1743     -5406.7107      3400.2575    
       300   301.76855     -34278.165     -6812.9841     -10061.46       3400.2575    
       400   295.9194      -34291.23       6438.124      -4464.9313      3400.2575    
       500   297.24304     -34310.644     -5320.5747     -7950.117       3400.2575    
       600   289.07534     -34313.91      -8738.9759     -5875.7447      3400.2575    
       700   294.45334     -34302.584     -2995.8558     -7027.9348      3400.2575    
       800   305.8182      -34289.493      17275.8       -4103.3471      3400.2575    
       900   308.05514     -34285.411     -9386.9589     -4688.3075      3400.2575    
      1000   314.10901     -34296.602     -8008.7298     -10345.891      3400.2575    
      1100   306.29848     -34305.804      8951.0866     -7515.8464      3400.2575    
      1200   298.33814     -34312.499      1455.1115     -2086.9603      3400.2575    
      1300   298.66324     -34304.658     -11415.845     -10801.953      3400.2575    
      1400   303.12067     -34287.304     -792.91607     -4818.3983      3400.2575    
      1500   317.64157     -34287.172     -7664.6643     -7140.1592      3400.2575    
      1600   289.94126     -34277.989     -10377.671     -10774.066      3400.2575    
      1700   288.66767     -34300.049     -5313.6361     -13064.563      3400.2575    
      1800   300.10994     -34309.907     -3055.9472     -12649.081      3400.2575    
      1900   301.59027     -34306.177     -662.10656     -2573.3872      3400.2575    
      2000   301.00293     -34299.046      2475.1786     -3905.0119      3400.2575    
      2100   304.20299     -34304.999     -8801.2969     -7328.1713      3400.2575    
      2200   301.78314     -34318.906      842.69566     -8669.2082      3400.2575    
      2300   265.72908     -34305.045     -8454.8988     -3901.188       3400.2575    
      2400   302.69167     -34317.858      489.78931     -6897.9557      3400.2575    
      2500   297.68637     -34289.37      -200.96946     -7616.3535      3400.2575    
      2600   303.77872     -34286.702     -3074.9731     -4147.3323      3400.2575    
      2700   290.51807     -34283.987     -7461.2013     -2830.1957      3400.2575    
      2800   286.89994     -34304.969     -4486.5706     -12666.715      3400.2575    
      2900   283.27405     -34310.764     -8825.5451     -11675.285      3400.2575    
      3000   290.75845     -34308.224     -4891.481      -9095.1667      3400.2575    
Loop time of 91.6671 on 8 procs for 3000 steps with 295 atoms

Performance: 1.414 ns/day, 16.975 hours/ns, 32.727 timesteps/s, 9.655 katom-step/s
98.9% CPU use with 8 MPI tasks x 1 OpenMP threads

MPI task timing breakdown:
Section |  min time  |  avg time  |  max time  |%varavg| %total
---------------------------------------------------------------
Pair    | 61.008     | 66.056     | 75.023     |  56.8 | 72.06
Bond    | 0.0067522  | 0.0073751  | 0.0084958  |   0.6 |  0.01
Neigh   | 5.9419     | 6.2872     | 7.0605     |  17.3 |  6.86
Comm    | 1.3391     | 10.321     | 15.385     | 143.9 | 11.26
Output  | 0.0044267  | 0.0058239  | 0.0069985  |   1.3 |  0.01
Modify  | 8.1672     | 8.9278     | 9.2572     |  14.3 |  9.74
Other   |            | 0.06151    |            |       |  0.07

Nlocal:         36.875 ave          43 max          28 min
Histogram: 1 0 0 1 1 0 2 0 2 1
Nghost:        2969.88 ave        3001 max        2941 min
Histogram: 1 0 0 2 1 2 1 0 0 1
Neighs:        22452.8 ave       25952 max       17236 min
Histogram: 1 0 0 1 1 0 2 0 2 1

Total # of neighbors = 179622
Ave neighs/atom = 608.88814
Ave special neighs/atom = 0
Neighbor list builds = 300
Dangerous builds not checked
*****Equilibration pos6 starts.*****
WARNING: New thermo_style command, previous thermo_modify settings will be lost (src/output.cpp:903)
Neighbor list info ...
  update: every = 10 steps, delay = 0 steps, check = no
  max neighbors/atom: 2000, page size: 100000
  master list distance cutoff = 12
  ghost atom cutoff = 12
  binsize = 6, bins = 4 3 3
  2 neighbor lists, perpetual/occasional/extra = 2 0 0
  (1) pair reaxff, perpetual
      attributes: half, newton off, ghost
      pair build: half/bin/newtoff/ghost
      stencil: full/ghost/bin/3d
      bin: standard
  (2) fix qeq/reaxff, perpetual, copy from (1)
      attributes: half, newton off
      pair build: copy
      stencil: none
      bin: none
Setting up Verlet run ...
  Unit style    : real
  Current step  : 0
  Time step     : 0.5
Per MPI rank memory allocation (min/avg/max) = 113.8 | 115.7 | 117.7 Mbytes
   Step          Temp          PotEng         Press        f_avgp[1]        Volume    
         0   290.75845     -34308.224     -4891.5054      0              3400.2575    
       100   289.02905     -34306.442     -12277.218     -5367.6242      3400.2575    
       200   307.29972     -34298.315      7317.3558     -4727.4925      3400.2575    
       300   322.67217     -34295.534     -3792.6865     -2503.4253      3400.2575    
       400   292.19123     -34282.499      11688.588     -1205.4567      3400.2575    
       500   307.62391     -34312.238     -13284.445     -11230.073      3400.2575    
       600   287.81612     -34295.056     -216.2937      -9279.3704      3400.2575    
       700   291.03456     -34291.765      2178.32       -4944.5205      3400.2575    
       800   315.99392     -34304.558     -3766.2066     -7144.4975      3400.2575    
       900   295.3054      -34289.144      7515.0579     -6337.6601      3400.2575    
      1000   287.6338      -34314.474      4326.5682     -3936.6498      3400.2575    
      1100   285.96559     -34319.707     -2234.7801     -3925.6001      3400.2575    
      1200   304.70336     -34315.674     -1829.9033     -9502.0157      3400.2575    
      1300   319.54324     -34311.414      5990.2977     -7627.2984      3400.2575    
      1400   299.40469     -34290.016     -7514.9112     -8431.2885      3400.2575    
      1500   301.51705     -34291.253     -2320.9631     -9780.5462      3400.2575    
      1600   297.7061      -34293.74      -6337.4825     -6906.7817      3400.2575    
      1700   301.75764     -34314.68      -12769.131     -11227.422      3400.2575    
      1800   273.75097     -34324.018     -9119.026      -9999.4504      3400.2575    
      1900   276.32805     -34312.919      4343.3119     -6319.249       3400.2575    
      2000   288.54779     -34301.649     -6894.7208     -9779.2037      3400.2575    
      2100   297.55263     -34296.326     -8208.6582     -6085.0435      3400.2575    
      2200   311.62818     -34302.54      -2515.4224     -5690.1836      3400.2575    
      2300   302.75097     -34305.363     -4885.727      -3600.558       3400.2575    
      2400   286.57601     -34326.184     -10787.03      -5435.0967      3400.2575    
      2500   295.62459     -34332.647     -1007.0088     -4055.5231      3400.2575    
      2600   299.52913     -34318.344     -13071.242     -6177.2764      3400.2575    
      2700   278.88389     -34285.435      17.08881      -9513.0235      3400.2575    
      2800   287.99594     -34287.058     -3972.3252     -4250.929       3400.2575    
      2900   286.66529     -34283.432      9676.449      -2026.7168      3400.2575    
      3000   311.09651     -34304.308     -1339.7431     -6278.5074      3400.2575    
Loop time of 79.6055 on 8 procs for 3000 steps with 295 atoms

Performance: 1.628 ns/day, 14.742 hours/ns, 37.686 timesteps/s, 11.117 katom-step/s
98.8% CPU use with 8 MPI tasks x 1 OpenMP threads

MPI task timing breakdown:
Section |  min time  |  avg time  |  max time  |%varavg| %total
---------------------------------------------------------------
Pair    | 60.793     | 63.348     | 65.041     |  19.4 | 79.58
Bond    | 0.0068014  | 0.0074798  | 0.0086829  |   0.7 |  0.01
Neigh   | 5.9189     | 6.0211     | 6.1355     |   2.6 |  7.56
Comm    | 0.75884    | 2.4426     | 4.9893     |  99.0 |  3.07
Output  | 0.0012612  | 0.0013865  | 0.0019093  |   0.5 |  0.00
Modify  | 7.6169     | 7.7225     | 7.8167     |   2.1 |  9.70
Other   |            | 0.06271    |            |       |  0.08

Nlocal:         36.875 ave          44 max          31 min
Histogram: 2 0 1 1 1 0 1 1 0 1
Nghost:        2981.88 ave        3017 max        2937 min
Histogram: 1 1 0 0 2 0 0 0 3 1
Neighs:        22480.4 ave       26557 max       19090 min
Histogram: 2 0 1 1 1 0 0 2 0 1

Total # of neighbors = 179843
Ave neighs/atom = 609.63729
Ave special neighs/atom = 0
Neighbor list builds = 300
Dangerous builds not checked
Total wall time: 0:51:58
