ITEM: TIMESTEP
0
ITEM: NUMBER OF ATOMS
373
ITEM: BOX BOUNDS xy xz yz pp pp pp
-1.0794400000000000e+01 2.0438599999999997e+01 -1.0794400000000000e+01
-3.3405999999999998e+00 1.4057499999999999e+01 1.3894000000000000e+00
0.0000000000000000e+00 1.7550000000000001e+01 -3.3405999999999998e+00
ITEM: ATOMS id type q x y z
179 4 1.06015 0.16328 2.03348 8.73935
182 3 -0.698653 -1.23051 1.38138 8.38326
183 3 -0.6474 1.3436 1.09533 8.16898
189 2 -0.0742464 0.26806 3.3314 8.11756
192 2 0.0226723 0.90693 2.0838 5.20777
199 4 0.329984 -0.618 4.83273 1.37048
200 4 0.72335 -2.11414 5.3741 3.9168
202 2 -0.0104124 0.74415 5.50484 1.65321
203 1 -0.127904 -0.14725 3.07344 1.4391
205 3 -0.636131 -1.79544 5.14084 2.41856
210 2 0.0348188 -1.07077 2.38394 1.56458
211 2 0.0195926 0.41618 2.75518 2.33643
212 2 0.026858 0.38334 2.85299 0.46665
321 1 -0.141014 -3.6895 4.49699 4.52662
322 2 0.0257276 -3.94208 4.79722 5.53047
325 1 -0.14193 -0.65675 4.65022 4.87077
326 2 0.0238385 -0.69115 5.00913 5.98361
327 2 0.0319303 0.30043 4.99735 4.38973
328 2 0.00764309 -0.83713 3.52909 4.77126
337 2 0.0293515 0.92815 -0.96899 6.72497
359 2 0.0158043 -0.36221 5.46485 8.46645
3 4 1.08707 5.11309 1.29339 2.62495
4 4 0.324711 6.90324 -0.58605 6.7641
5 4 1.18348 6.85851 1.92666 5.06808
7 4 0.750269 4.03983 4.22491 2.41312
9 4 1.25585 5.611 3.44282 7.39187
10 4 0.834128 3.4574 5.32008 6.39626
15 4 1.78989 5.5864 6.04035 4.32045
33 3 -0.719291 6.28874 0.79124 1.62653
34 2 -0.0672141 4.07826 0.24094 2.64618
35 2 -0.0126868 5.76057 -0.30239 7.60247
36 3 -0.774284 5.66868 1.42308 4.1274
37 3 -0.688537 7.35973 0.72226 6.0242
41 3 -0.707453 4.46982 2.72073 2.09055
42 1 -0.124822 3.5404 5.24216 0.90259
43 2 -0.0349697 2.84595 4.07924 3.24042
45 2 -0.0706846 5.33885 2.23348 8.13914
46 3 -0.747128 6.27601 3.06956 5.99033
47 2 -0.0531949 2.25834 4.81383 5.73989
48 3 -0.759082 4.21406 4.20978 7.15564
62 3 -0.797624 5.23215 4.94418 3.21691
63 3 -0.810979 4.37757 6.08359 5.31185
64 2 -0.0641779 6.8023 5.52679 0.45595
68 3 -0.782508 6.5144 4.39656 8.28656
71 3 -0.814538 6.91232 5.53952 5.05211
117 2 0.0282177 2.92591 4.72694 0.16409
118 2 0.0744857 4.39529 5.62738 0.3861
119 2 0.0604205 2.95706 6.14722 1.23692
124 2 0.0303811 2.18234 5.96508 8.48014
178 4 0.304213 1.74334 0.27267 6.84712
181 1 -0.123147 1.81187 1.38853 5.25498
190 2 0.0121807 1.75551 0.7901 4.35397
191 2 0.0666263 2.688 2.09841 5.26323
320 2 0.00742422 3.04773 -0.24728 7.00857
17 4 0.353882 10.1922 3.85369 7.22812
19 4 1.17966 8.354 5.90778 5.73252
61 2 -0.0322872 7.99441 2.36419 4.21252
65 1 -0.108165 9.651 2.53809 8.52033
66 1 -0.117983 11.1313 2.92958 5.91486
67 1 -0.119284 11.2961 5.17674 7.96979
72 3 -0.636115 8.95725 4.62464 6.53736
138 2 0.0184355 11.2283 -1.04525 8.37519
139 2 0.0870407 13.0128 -1.28321 8.06929
147 2 0.0376427 9.77221 1.53447 8.21338
148 2 0.0777372 8.56765 2.59995 8.61404
150 2 0.0497253 10.7181 1.93936 5.82553
151 2 0.0283622 12.1719 2.8619 6.18548
152 2 0.0306104 11.0862 3.30295 4.87573
153 2 0.0438272 11.468 6.04049 7.25831
154 2 0.0143207 12.2742 4.68395 8.14967
157 2 0.0128309 10 5.51334 3.88837
223 1 -0.142116 12.8231 5.99774 1.11034
225 2 0.0201987 12.4779 5.52043 1.99468
227 2 0.03663 13.2122 5.1873 0.46503
259 4 0.322392 12.1481 1.76821 0.65847
262 2 0.00352024 10.9192 2.14841 1.21411
319 2 0.0487797 12.7089 1.38928 8.41415
329 1 -0.137842 8.76476 -0.41762 2.4842
330 2 0.0479542 8.61585 -0.0774 3.54088
331 2 0.0390388 9.44301 0.29998 1.98367
342 2 0.0161799 13.437 2.70523 2.45032
344 1 -0.119957 12.2935 -0.01602 1.01316
365 2 0.0004375 8.10607 -1.08058 7.39099
177 4 0.462476 16.431 1.41571 7.62756
184 2 -0.0190186 16.1623 2.62411 6.85133
304 4 0.700242 15.1345 -0.49069 5.28903
305 1 -0.139304 14.884 0.77915 4.00016
306 3 -0.587014 14.8409 0.12541 6.69022
307 2 0.039463 13.7978 1.05505 3.88152
308 2 0.0128335 15.3532 0.38704 3.0558
309 2 0.0163723 15.4226 1.66535 4.32133
323 2 0.0156512 15.6989 3.46943 4.43185
324 2 0.0377113 14.4838 4.59043 3.91167
340 1 -0.112648 13.654 2.74818 1.351
341 2 0.0440237 14.5685 2.25279 1.10881
343 2 0.0475041 13.7083 3.80642 0.94928
109 2 0.0248206 -5.24105 11.9584 0.88066
110 2 0.016758 -5.11484 12.0563 2.81642
219 2 0.011475 -5.09782 8.96563 4.12442
221 2 0.0413807 -4.94532 7.19518 4.56632
243 1 -0.148934 -5.60753 10.6147 8.58351
247 2 0.0327517 -5.22093 9.70604 8.11685
248 2 0.00192286 -4.69501 11.3087 8.61334
249 2 0.0261786 -6.3813 11.0486 7.9933
255 2 0.0227621 -8.40424 11.2396 0.90887
257 2 0.0201294 -9.26074 13.8655 0.50575
353 2 0.0306095 -5.35028 12.3355 5.13301
1 4 0.739832 -3.52171 13.6169 1.3775
14 4 0.414732 0.79555 11.0978 6.90099
31 1 -0.157664 -4.53412 12.0358 1.78553
55 1 -0.119247 1.32572 7.61959 3.92154
57 2 -0.0456753 0.54541 9.70483 2.46542
58 1 -0.119387 1.19765 12.2171 8.27744
59 1 -0.11477 -0.043 11.9756 5.53455
60 1 -0.116753 -0.26071 9.66259 7.46926
108 2 0.0052594 -3.77832 11.2834 1.76658
121 2 0.0259217 1.09208 6.99526 0.06441
135 2 0.0299758 0.91524 6.85433 3.19093
136 2 0.0465183 0.54951 7.89731 4.67215
141 2 0.0224486 -1.01136 12.4293 5.85765
142 2 0.0366042 -0.30859 11.2317 4.7162
143 2 0.0652376 0.53631 12.8138 5.0937
144 2 0.0279046 -1.19857 9.56999 6.83764
145 2 0.0177707 -0.4461 9.94718 8.50875
146 2 0.0513193 0.30825 8.69345 7.42504
201 4 0.339764 -2.75118 8.27402 4.05123
206 1 -0.110116 -2.54708 8.43128 2.23095
207 3 -0.64456 -2.10075 6.87894 4.391
208 1 -0.122027 -4.48663 8.21244 4.60441
209 2 -0.00535471 -2.16987 9.33097 4.80097
216 2 0.0787804 -1.88699 7.63669 1.84134
217 2 0.0129445 -2.11201 9.41267 1.99666
218 2 0.0251647 -3.57197 8.37955 1.73394
220 2 0.0298931 -4.41352 8.47131 5.66232
234 2 0.028616 -0.75364 11.8208 0.41277
236 2 0.0204613 -2.13863 10.6264 0.02861
290 1 -0.101883 -3.09235 7.11317 7.73567
295 2 0.0363113 -4.15445 6.88574 7.56719
296 2 0.0493454 -2.36158 6.69168 6.90433
297 2 0.052 -3.01767 8.21721 7.71075
332 2 0.0156874 -1.40255 12.7019 2.45963
345 2 0.0407553 0.9594 13.4279 0.24324
346 2 0.0295054 1.19745 13.6699 2.00684
352 1 -0.134087 -4.37513 12.0899 5.53631
354 2 0.00559427 -4.38503 11.1846 6.10423
355 2 0.0300485 -3.58697 12.0868 4.74182
13 4 0.7459 1.75071 9.1667 2.90487
16 4 1.20103 7.43414 6.8456 0.25763
23 4 1.70535 6.70213 8.44683 2.8531
24 4 1.70348 3.1191 10.7731 5.18057
25 4 0.767723 5.63672 11.1476 1.90329
26 4 1.69914 7.22308 7.93939 7.80991
28 4 1.19215 5.77351 10.1567 6.47892
49 1 -0.113253 2.72838 6.54433 7.65845
56 3 -0.633956 2.59313 8.86853 1.55861
83 3 -0.937418 5.78608 7.43346 3.63723
84 3 -0.824119 7.38841 7.74651 1.57458
86 3 -0.787643 2.52623 10.2226 3.83379
87 3 -0.813419 3.34407 12.319 4.99156
88 3 -0.804596 2.10868 10.5064 6.29885
89 3 -0.709462 5.78756 9.62212 2.31133
90 2 -0.00574666 6.49128 12.0758 2.70655
97 3 -0.530701 7.02134 10.756 5.64968
98 3 -0.810044 4.50346 10.0401 5.50805
99 3 -0.820705 6.14746 8.71925 6.97119
100 2 -0.0492412 5.61962 11.104 7.70601
123 2 0.111817 3.57933 7.11333 8.11808
125 2 0.033783 2.09814 7.24374 7.13827
137 2 0.0835073 2.25664 7.22332 4.42663
347 2 0.0326685 2.59367 13.786 0.97069
371 3 -0.465063 6.25254 11.3597 0.47609
372 2 -0.00579191 5.78159 13.0357 5.16056
373 2 0.0202966 4.22468 11.6069 1.86446
70 1 -0.155869 9.63162 6.38881 4.45348
85 3 -0.597306 7.81121 9.16434 3.78061
92 3 -0.83641 8.09656 7.12913 6.75814
93 3 -0.652751 8.07856 9.01294 8.6423
156 2 0.0844283 9.14476 7.18907 3.74762
158 2 0.0210739 10.5 6.81803 4.9547
222 4 0.444476 11.8771 7.32155 0.27426
224 2 0.00545785 11.6415 8.47407 1.15632
228 4 0.186512 9.62037 10.4169 4.73182
229 2 0.00917067 9.89362 11.4545 3.84291
230 2 0.0121748 10.7539 9.94913 5.65442
226 2 0.0290659 13.7744 6.40849 1.56682
180 4 0.349522 -0.09833 1.45458 11.7614
185 2 0.0290877 0.9484 0.50334 12.1542
186 3 -0.652563 0.3153 2.10122 10.3517
188 1 -0.124384 -0.54615 2.8318 12.8618
196 2 0.04263 0.12115 3.65002 12.7632
197 2 0.00943344 -0.57324 2.60285 13.945
198 2 0.0331788 -1.50426 2.97814 12.4535
204 1 -0.113195 0.09757 1.92311 17.1799
213 2 0.0164849 1.01674 2.23546 16.5367
214 2 0.0397184 -0.59094 2.75693 17.1618
215 2 0.0363359 -0.41824 1.02518 16.8561
244 2 0.0686038 1.65682 -2.06302 10.9712
2 4 0.748562 4.47536 -0.89972 11.2871
6 4 1.1147 4.69063 0.3674 13.9636
11 4 1.21925 6.53529 2.82083 13.596
12 4 0.77371 4.80678 4.30596 11.6539
32 1 -0.143772 6.10838 -0.13997 10.7874
38 3 -0.71801 4.07748 -0.47101 12.7341
39 3 -0.65274 5.32796 -0.67167 15.0763
40 1 -0.144571 3.28629 1.18911 14.7602
44 1 -0.156058 2.67577 4.52181 16.885
50 3 -0.822066 5.78191 1.42675 13.511
52 1 -0.11462 3.74566 3.02802 10.851
53 3 -0.781266 6.00576 3.71231 12.4234
76 3 -0.889917 6.14354 3.50974 14.9713
77 3 -0.837653 8.00755 4.25685 16.6909
111 2 0.0370441 6.03777 0.92876 10.5654
112 2 -9.09506e-06 6.45106 -0.7188 9.84991
113 2 0.0442744 6.94218 -0.28402 11.5331
114 2 0.023981 2.92018 1.97698 14.0944
115 2 0.0378333 3.5825 1.70222 15.687
116 2 0.0369126 2.51436 0.43796 15.0272
122 2 0.0311044 2.89704 4.08079 15.8771
129 2 0.0452431 4.40314 2.51797 10.1939
130 2 0.055686 2.95333 3.51553 10.3998
131 2 0.041569 3.22668 2.40408 11.6068
279 4 0.385461 6.5764 -1.60732 15.3743
280 1 -0.0952629 6.05866 -3.08201 16.3547
281 1 -0.0865941 7.82155 -0.60408 16.3628
283 2 0.0816409 6.11411 -2.76724 17.4601
285 2 0.0388859 8.20783 0.40585 16.0051
287 2 0.0893493 7.29689 -0.34258 17.285
339 2 -0.00918678 3.39581 -0.64841 10.3013
348 1 -0.110214 7.42013 -2.14186 13.7967
350 2 0.0336759 7.94744 -1.31037 13.3027
51 1 -0.157807 8.40152 2.61785 13.4903
73 1 -0.143339 13.6607 4.18055 13.9271
75 3 -0.619481 12.6973 4.39728 16.5705
126 2 0.00761331 8.68567 2.42861 12.4513
127 2 0.0352328 8.84801 1.89211 14.1554
128 2 0.0786441 8.90918 3.57523 13.6391
149 2 0.0135949 10.0972 2.79084 9.46416
160 2 0.045685 13.0008 3.32296 13.8515
169 2 0.0217557 8.44538 4.4029 10.4984
260 4 0.679093 13.0565 -0.31615 15.4335
261 4 0.284801 12.5097 -1.57525 12.6476
263 3 -0.610169 13.4986 -1.24537 16.6625
264 1 -0.128698 14.3059 1.00083 15.1643
265 1 -0.114696 11.3417 0.42791 15.6211
266 3 -0.61192 13.0689 -1.19649 14.0963
268 2 -0.00953404 13.542 -1.63548 11.5978
269 1 -0.130002 11.2718 -0.30855 12.0806
270 2 0.0296587 14.1508 1.39651 14.1416
272 2 0.0383388 14.1447 1.90866 15.7425
273 2 0.0388523 10.6554 -0.35635 15.271
274 2 0.0512864 11.2711 1.29444 14.8854
275 2 0.0489539 11.165 0.49822 16.7406
276 2 0.0141489 10.9783 -0.3795 10.9784
277 2 0.0353048 11.7838 0.639 12.2803
278 2 0.0261002 10.4207 -0.40895 12.8052
286 2 0.0748822 8.62973 -1.3037 16.607
316 1 -0.0737197 13.7056 1.42787 8.90783
317 2 0.0259354 13.8958 2.34823 9.53033
318 2 0.0427372 13.7192 0.5068 9.50541
370 3 -0.494799 10.3999 3.49953 17.3787
161 2 0.0212582 14.7607 3.86127 14.1962
187 1 -0.107425 17.4156 0.35404 11.6927
193 2 0.0554477 16.6265 0.77565 11.163
194 2 0.014892 17.0079 0.14701 12.7146
195 2 0.0558884 17.618 -0.6307 11.2681
258 2 0.0430855 20.2579 -3.16624 17.5196
271 2 0.0377788 15.3521 0.56664 15.2534
311 2 0.0214689 15.6677 -2.30333 13.3053
312 1 -0.109539 17.8272 -1.80141 14.8766
313 2 0.0700454 18.82 -1.99568 14.6151
314 2 0.0276727 17.7044 -1.92533 15.9552
315 2 0.0190936 17.5983 -0.78349 14.5345
74 1 -0.152157 -5.09655 6.81431 15.6105
162 2 0.00781123 -4.06007 6.38866 15.9945
163 2 0.0275009 -5.56469 7.50464 16.3174
164 2 0.0103239 -4.87912 7.17536 14.5874
166 2 0.0352622 -7.14595 8.5647 13.1825
238 4 0.714595 -6.21253 10.3115 10.2843
240 3 -0.68626 -7.59391 9.56722 10.1777
241 2 0.00139928 -5.15384 9.32912 10.8267
242 3 -0.677172 -6.26182 11.5812 11.2422
246 2 0.0579473 -9.37892 12.0234 9.15967
252 1 -0.112811 -8.63961 10.4426 17.2393
253 2 0.0255019 -6.47084 7.95641 16.8139
256 2 0.0489571 -8.29654 10.7956 16.26
282 2 0.0537784 -5.81069 10.8975 16.0751
284 2 0.0433803 -4.03293 10.1238 16.1053
351 2 0.069474 -4.12225 11.4911 13.1367
120 2 0.00727294 1.69142 5.0931 16.998
140 2 0.0116765 1.22772 11.6882 9.23566
174 2 0.0194183 1.93848 9.00374 9.99119
231 4 0.323744 -0.95427 9.38567 16.3431
232 1 -0.136501 -0.06471 8.03807 17.1535
233 3 -0.63238 -1.71027 10.2418 17.425
235 2 0.0144752 0.56307 7.48234 16.43
267 2 -0.00458936 1.11831 11.1832 12.6485
288 4 0.314492 -2.47833 6.39711 9.38466
289 4 0.344957 -2.45765 8.08364 11.8666
291 1 -0.123594 -1.73462 9.7008 11.606
292 3 -0.581312 -2.77458 7.51273 10.4724
293 1 -0.131096 -1.31544 6.97308 12.8157
294 2 -0.00286904 -3.67762 8.3245 12.6676
298 2 0.0420075 -1.12909 9.55879 10.7694
299 2 0.0141021 -1.12146 10.1959 12.3713
300 2 0.0344066 -2.66835 10.3127 11.1858
301 2 0.0403255 -0.52392 6.72437 12.1209
302 2 0.0246255 -1.89201 6.1424 13.1289
303 2 0.0115738 -0.91154 7.47078 13.7378
333 1 -0.104492 0.20331 10.3789 15.2918
334 2 0.0184198 0.56574 9.69654 14.4849
335 2 0.0777795 1.04724 10.7567 15.8859
336 2 0.0413989 -0.42946 11.1218 14.7988
338 2 -0.00968242 -1.90898 8.81869 15.3583
349 2 0.020534 -2.54053 11.1687 13.9329
356 1 -0.116844 -0.59642 5.99507 9.35132
357 2 0.045862 -0.18382 5.31575 10.0932
358 2 0.0347559 -0.08936 6.93805 9.41853
360 2 0.00757486 -3.17538 5.15694 9.84921
8 4 0.735316 4.06735 5.53547 17.5137
18 4 1.27142 6.52663 5.51871 9.44486
21 4 1.72649 6.61342 4.6381 16.0284
27 4 0.329836 4.25853 9.43625 10.7395
29 4 1.71874 7.75271 7.06885 14.5953
30 4 1.63208 6.70708 8.76526 12.309
54 1 -0.11753 3.79459 5.32376 12.8427
69 3 -0.734021 5.31755 5.23107 10.4103
78 3 -0.7559 5.48984 4.84996 17.1516
80 1 -0.134654 8.04703 5.44786 10.4589
91 3 -0.843029 6.44896 6.93072 8.77831
94 2 0.00102257 4.35537 10.8017 11.2097
95 1 -0.116343 2.52788 8.71131 10.882
96 2 0.0640623 4.78197 9.36737 9.38063
101 3 -0.904817 6.7546 6.00831 15.3288
104 3 -0.649196 7.83419 8.82384 11.2228
105 3 -0.709674 5.34332 8.54687 11.5237
106 3 -0.945349 6.87407 7.68743 13.4399
107 3 -0.752071 6.69901 10.2007 13.0052
132 2 0.0333134 3.1361 5.95538 12.2769
133 2 0.107931 4.46902 6.03787 13.3353
134 2 0.0164933 3.24078 4.71198 13.5494
170 2 0.0975346 7.88088 5.72519 11.5395
175 2 0.0224705 2.13783 9.19364 11.8059
176 2 0.0594633 2.61534 7.62571 10.9984
310 4 0.385461 5.91763 11.059 14.0544
361 1 -0.131931 3.85972 7.20079 16.7506
362 2 0.0507572 3.95768 7.20851 15.6665
363 2 0.0693894 4.61386 7.7368 17.3673
364 2 0.0127466 2.98237 7.71494 17.1867
366 1 -0.089851 5.07829 9.94711 15.2858
367 2 0.0541174 4.31277 9.30115 14.8155
368 2 0.046238 4.50821 10.6258 15.9661
369 2 0.105051 5.8861 9.38604 15.8429
20 4 0.712695 12.8676 5.26133 15.2651
22 4 0.776447 10.5672 6.58598 13.6839
79 1 -0.120038 10.8755 8.36225 13.4854
81 1 -0.146302 10.972 5.98895 11.9831
82 3 -0.641608 11.4629 5.8576 14.8023
102 3 -0.80877 9.05021 6.365 14.0214
103 3 -0.614393 8.22972 8.23264 15.5614
155 2 0.0402258 10.8996 5.54391 8.94767
159 2 0.0154751 13.6273 4.75698 12.9977
165 2 0.0738751 10.1581 8.78574 12.666
167 2 0.0558288 10.8254 8.85321 14.4791
168 2 0.0467363 8.82364 6.08536 10.004
171 2 0.0154334 12.0296 5.86908 11.8027
172 2 0.0433657 10.7111 6.76446 11.1776
173 2 0.0364389 10.3706 5.10241 11.8439
237 4 0.618951 9.86614 9.66248 10.034
239 1 -0.080256 9.45529 11.5018 10.0863
245 2 0.0754538 8.35972 11.7444 10.2734
250 4 0.266749 10.1001 8.58755 17.0468
251 1 -0.0895176 11.7453 7.69761 17.4092
254 2 0.126915 11.5674 6.61595 17.366
ITEM: TIMESTEP
10
ITEM: NUMBER OF ATOMS
373
ITEM: BOX BOUNDS xy xz yz pp pp pp
-1.0794400000000000e+01 2.0438599999999997e+01 -1.0794400000000000e+01
-3.3405999999999998e+00 1.4057499999999999e+01 1.3894000000000000e+00
0.0000000000000000e+00 1.7550000000000001e+01 -3.3405999999999998e+00
ITEM: ATOMS id type q x y z
179 4 1.04399 0.0734618 1.89457 8.77692
182 3 -0.725958 -1.34922 1.26822 8.36996
183 3 -0.645428 1.37693 1.13497 8.21789
189 2 -0.0284645 0.266037 3.47891 8.06298
192 2 0.0229077 0.874525 2.09559 5.22778
199 4 0.308953 -0.657649 4.75798 1.37806
200 4 0.640584 -2.09079 5.42307 3.91827
202 2 -0.00568447 0.824718 5.563 1.6839
203 1 -0.127555 -0.16502 2.9852 1.44001
205 3 -0.611045 -1.87587 5.1735 2.34558
210 2 0.0346032 -1.0922 2.41501 1.51232
211 2 0.0207772 0.455861 2.82589 2.32038
212 2 0.0302979 0.375159 2.83806 0.498937
321 1 -0.131041 -3.78917 4.41095 4.55573
322 2 0.0249642 -3.93195 4.78778 5.55794
325 1 -0.1359 -0.551372 4.57843 4.95564
326 2 0.0274328 -0.688676 4.9767 5.95835
327 2 0.0298329 0.299792 4.9658 4.40243
328 2 0.0103704 -0.792862 3.53127 4.80776
337 2 0.0159436 0.794236 -1.13162 6.6933
359 2 0.0186723 -0.375954 5.48892 8.37539
3 4 1.09911 5.15756 1.40269 2.58575
4 4 0.297007 6.89982 -0.576157 6.69511
5 4 1.1527 6.80944 1.88885 5.06607
7 4 0.713297 4.07682 4.14088 2.37306
9 4 1.19795 5.59278 3.51963 7.33037
10 4 0.760805 3.47914 5.34509 6.46649
15 4 1.63421 5.64897 6.03854 4.36772
33 3 -0.717164 6.31727 0.875023 1.60091
34 2 -0.0314108 3.9413 0.141999 2.6375
35 2 -0.00862327 5.57777 -0.28146 7.76245
36 3 -0.793593 5.60886 1.37112 4.13533
37 3 -0.684484 7.46453 0.750741 5.98183
41 3 -0.747553 4.42464 2.68535 1.95037
42 1 -0.10198 3.51119 5.31902 0.815051
43 2 -0.0229697 2.69263 4.11161 3.36001
45 2 -0.0218977 5.29881 2.04712 8.2373
46 3 -0.742996 6.27865 3.10401 5.93794
47 2 -0.0197516 2.10567 4.73598 5.66224
48 3 -0.761599 4.11168 4.11484 7.22096
62 3 -0.724425 5.31183 4.91025 3.16224
63 3 -0.758588 4.32798 6.13699 5.32258
64 2 -0.0251721 6.79522 5.42293 0.490799
68 3 -0.755557 6.57461 4.33036 8.31296
71 3 -0.852951 6.9749 5.54098 5.03053
117 2 0.0314892 2.91431 4.66462 0.189634
118 2 0.0857064 4.44984 5.63047 0.36995
119 2 0.0686084 2.95943 6.13478 1.27293
124 2 0.0332997 2.1956 5.9766 8.44958
178 4 0.282665 1.69304 0.33114 6.85337
181 1 -0.120834 1.78183 1.50746 5.1494
190 2 0.0113548 1.78575 0.769472 4.35455
191 2 0.0705962 2.70854 2.06445 5.27117
320 2 0.0139386 3.28319 -0.331259 7.02401
17 4 0.346507 10.1638 3.8912 7.19758
19 4 1.22013 8.32159 5.86086 5.77669
61 2 0.00097295 8.16305 2.44609 4.08871
65 1 -0.0998477 9.57574 2.49512 8.57747
66 1 -0.115339 11.1994 2.84459 5.808
67 1 -0.118575 11.3942 5.25072 8.02065
72 3 -0.653212 8.88673 4.57651 6.52173
138 2 0.0210024 11.1963 -1.01477 8.36576
139 2 0.0868162 12.9786 -1.33225 8.06493
147 2 0.0390274 9.85045 1.52439 8.18492
148 2 0.0937831 8.50747 2.65761 8.62098
150 2 0.0530205 10.6978 1.88744 5.8564
151 2 0.0251233 12.2032 2.86643 6.21016
152 2 0.0306996 11.0665 3.3757 4.87442
153 2 0.0430792 11.4503 6.03049 7.26425
154 2 0.0158569 12.3025 4.67216 8.1588
157 2 0.0184424 9.96011 5.50478 3.86368
223 1 -0.121683 12.8871 5.98693 1.09067
225 2 0.0215526 12.3846 5.54725 1.95493
227 2 0.0430269 13.1745 5.19956 0.374409
259 4 0.300154 12.1963 1.79649 0.602805
262 2 0.00954969 10.7209 2.21888 1.34195
319 2 0.0493257 12.7374 1.44876 8.33487
329 1 -0.127449 8.92124 -0.392568 2.54192
330 2 0.049219 8.59049 -0.0920996 3.53496
331 2 0.040474 9.47217 0.362166 1.98807
342 2 0.0186672 13.4583 2.73973 2.46166
344 1 -0.111935 12.3481 -0.162965 1.02374
365 2 0.00751731 8.2832 -1.19217 7.54296
177 4 0.567944 16.3208 1.22557 7.50878
184 2 -0.0184317 16.1487 2.76932 6.78844
304 4 0.651087 15.1097 -0.393587 5.32066
305 1 -0.140118 14.8968 0.8073 3.99203
306 3 -0.635302 15.0518 0.218835 6.8312
307 2 0.0405686 13.8268 1.00773 3.88841
308 2 0.0149694 15.3234 0.378584 3.08306
309 2 0.0114988 15.4464 1.67251 4.3352
323 2 0.0195478 15.6817 3.42376 4.47526
324 2 0.0398686 14.4641 4.63239 3.85985
340 1 -0.114836 13.7334 2.7936 1.41614
341 2 0.0430406 14.6034 2.22023 1.11837
343 2 0.044 13.671 3.77733 0.963988
109 2 0.0247377 -5.26029 11.9266 0.926539
110 2 0.0197074 -5.09137 12.0766 2.75032
219 2 0.0128738 -5.09899 8.96843 4.08438
221 2 0.0384617 -4.92741 7.21538 4.52708
243 1 -0.144454 -5.56613 10.6366 8.53551
247 2 0.036321 -5.24902 9.67903 8.14794
248 2 0.0113081 -4.72865 11.3173 8.65687
249 2 0.0186447 -6.39064 11.0666 7.98307
255 2 0.0172163 -8.47921 11.2377 0.960947
257 2 0.0192657 -9.28615 13.8525 0.469607
353 2 0.03196 -5.36338 12.3333 5.11532
1 4 0.681839 -3.55233 13.64 1.3617
14 4 0.332419 0.755109 11.1048 6.92263
31 1 -0.15232 -4.59649 11.9442 1.78907
55 1 -0.112216 1.31246 7.52309 3.95939
57 2 -0.0257132 0.299059 9.78966 2.40223
58 1 -0.108789 1.21945 12.3274 8.37615
59 1 -0.106146 -0.148088 12.0494 5.42237
60 1 -0.11027 -0.341054 9.5771 7.52799
108 2 0.00790477 -3.78374 11.2229 1.78247
121 2 0.0261323 1.12302 6.96544 0.0675163
135 2 0.0272665 0.921693 6.85823 3.20274
136 2 0.0502961 0.565822 7.90446 4.65623
141 2 0.0260035 -1.04962 12.4373 5.8845
142 2 0.0398855 -0.292737 11.2326 4.72109
143 2 0.0723348 0.573208 12.7989 5.10741
144 2 0.0290711 -1.19853 9.58811 6.86259
145 2 0.0192717 -0.512408 9.90996 8.54676
146 2 0.0568212 0.313583 8.71985 7.41656
201 4 0.31181 -2.83581 8.20157 3.95056
206 1 -0.117226 -2.57745 8.45387 2.17254
207 3 -0.622378 -2.02981 6.92957 4.49541
208 1 -0.120563 -4.53426 8.22428 4.63327
209 2 0.0119131 -2.11261 9.45936 4.8536
216 2 0.0752075 -1.91217 7.64331 1.8609
217 2 0.0132213 -2.11398 9.42718 2.03096
218 2 0.0266189 -3.56783 8.37781 1.72376
220 2 0.0353581 -4.40425 8.4863 5.67785
234 2 0.0262975 -0.77698 11.7941 0.400897
236 2 0.0192693 -2.15708 10.6651 0.0344524
290 1 -0.0951296 -3.0987 7.15402 7.61954
295 2 0.0388163 -4.13397 6.82373 7.56094
296 2 0.0555173 -2.41404 6.68914 6.91112
297 2 0.0549712 -2.98402 8.23216 7.72786
332 2 0.0162935 -1.44973 12.664 2.48522
345 2 0.0448056 0.965496 13.4542 0.230886
346 2 0.0314522 1.16173 13.7443 2.01665
352 1 -0.131243 -4.38699 12.034 5.4665
354 2 0.00918308 -4.37885 11.1628 6.10156
355 2 0.0305517 -3.59632 12.0712 4.73153
13 4 0.702196 1.78778 9.11276 2.8661
16 4 1.27569 7.48007 6.95246 0.274538
23 4 1.56062 6.80556 8.48791 2.88896
24 4 1.45346 3.17634 10.7985 5.13787
25 4 0.647192 5.71504 11.1628 1.74172
26 4 1.42119 7.45498 8.12243 7.825
28 4 1.09798 5.91907 10.2203 6.34715
49 1 -0.102347 2.7155 6.62338 7.74238
56 3 -0.60333 2.68971 8.78762 1.60976
83 3 -0.840168 5.82004 7.45753 3.63167
84 3 -0.847271 7.473 7.72084 1.64214
86 3 -0.706884 2.50417 10.2994 3.70421
87 3 -0.741384 3.30926 12.4359 4.99216
88 3 -0.681681 2.13934 10.4406 6.36371
89 3 -0.65202 5.76605 9.63114 2.31906
90 2 -0.00487267 6.58721 12.1958 2.87755
97 3 -0.648758 7.26374 10.7552 5.57268
98 3 -0.759925 4.5625 10.0649 5.51503
99 3 -0.726618 6.16228 8.76171 7.01213
100 2 -0.0245155 5.57404 11.1731 7.74787
123 2 0.112902 3.59599 7.11953 8.13933
125 2 0.0406631 2.07161 7.24358 7.13184
137 2 0.0917978 2.2519 7.22057 4.41922
347 2 0.0331964 2.62196 13.7657 0.942735
371 3 -0.511073 6.4862 11.4167 0.302648
372 2 -0.0014806 5.88533 13.0178 5.14856
373 2 0.0521741 4.00891 11.6708 1.87906
70 1 -0.139764 9.70449 6.4331 4.37182
85 3 -0.703087 8.05306 9.20726 3.82464
92 3 -0.806652 8.22816 7.15244 6.78029
93 3 -0.743173 8.38266 9.0461 8.75285
156 2 0.0884837 9.16213 7.15589 3.76093
158 2 0.0186793 10.5056 6.85432 4.97174
222 4 0.359769 11.9026 7.31049 0.42053
224 2 0.00493123 11.635 8.66424 1.41708
228 4 0.550057 8.84332 10.2704 4.71431
229 2 -0.0353448 9.91402 11.5836 3.71414
230 2 -0.00797913 10.933 9.86215 5.78443
226 2 0.0323139 13.7792 6.45692 1.51634
180 4 0.332973 -0.107113 1.51066 11.7191
185 2 0.0389873 1.08526 0.390958 12.2406
186 3 -0.660042 0.342013 2.18256 10.3293
188 1 -0.123449 -0.574791 2.87116 12.9043
196 2 0.0442317 0.139512 3.66131 12.7252
197 2 0.0119819 -0.575506 2.53311 13.9302
198 2 0.0322575 -1.5621 3.06621 12.5061
204 1 -0.109113 0.0911696 1.94256 17.0743
213 2 0.0202157 0.999509 2.1846 16.5381
214 2 0.0461734 -0.593023 2.77783 17.2088
215 2 0.0377475 -0.393545 1.01236 16.7969
244 2 0.0640891 1.71337 -2.10134 10.9619
2 4 0.692042 4.48687 -0.993478 11.2534
6 4 1.04599 4.72961 0.281811 13.9782
11 4 1.08813 6.52711 2.83307 13.6345
12 4 0.706601 4.78413 4.32221 11.6835
32 1 -0.130625 6.23856 -0.125873 10.7257
38 3 -0.686731 4.02783 -0.469271 12.6973
39 3 -0.655552 5.30544 -0.704724 15.1263
40 1 -0.125752 3.10605 1.31194 14.8773
44 1 -0.14926 2.54465 4.41696 16.8803
50 3 -0.771016 5.83885 1.36346 13.4536
52 1 -0.0940669 3.62511 2.91702 10.813
53 3 -0.722321 6.11357 3.73101 12.3548
76 3 -0.854406 6.11419 3.50973 15.0482
77 3 -0.846048 8.0722 4.25052 16.6296
111 2 0.0447943 6.00698 0.918488 10.5617
112 2 0.00295519 6.45688 -0.700528 9.83854
113 2 0.0501306 6.91298 -0.296703 11.5558
114 2 0.0279721 2.86352 1.99123 14.0681
115 2 0.0439882 3.60026 1.72662 15.7455
116 2 0.039721 2.4669 0.446993 15.0223
122 2 0.0321956 2.87191 4.12255 15.8839
129 2 0.0520803 4.37343 2.46318 10.1846
130 2 0.0732935 2.90524 3.54736 10.3174
131 2 0.0452882 3.2621 2.33717 11.641
279 4 0.362249 6.61726 -1.58731 15.3787
280 1 -0.084018 6.03204 -3.11915 16.4117
281 1 -0.0802108 7.90204 -0.542227 16.4835
283 2 0.0871049 6.1347 -2.78799 17.4404
285 2 0.0400025 8.19523 0.347579 15.9338
287 2 0.10025 7.27335 -0.350369 17.3472
339 2 0.00751336 3.26277 -0.547365 10.1725
348 1 -0.10997 7.50247 -2.18513 13.6798
350 2 0.0336405 7.92546 -1.26114 13.3034
51 1 -0.126043 8.59145 2.6371 13.4511
73 1 -0.128997 13.7067 4.12258 13.83
75 3 -0.566831 12.7602 4.14927 16.4804
126 2 0.019021 8.67982 2.36105 12.4044
127 2 0.0377932 8.83517 1.8628 14.168
128 2 0.0928596 8.91924 3.63978 13.7008
149 2 0.0146153 10.1209 2.78503 9.46566
160 2 0.0502612 13.0091 3.28623 13.8358
169 2 0.0350717 8.46867 4.35891 10.4913
260 4 0.660209 13.0784 -0.376266 15.4237
261 4 0.267601 12.4985 -1.53466 12.6791
263 3 -0.604043 13.5368 -1.35824 16.5825
264 1 -0.122041 14.403 1.12715 15.1118
265 1 -0.110999 11.2281 0.419352 15.6291
266 3 -0.603621 13.1641 -1.27031 14.1075
268 2 -0.00232252 13.7098 -1.61919 11.4532
269 1 -0.131606 11.194 -0.196999 12.0757
270 2 0.0314833 14.1746 1.36863 14.0768
272 2 0.0522772 14.1561 1.9034 15.8288
273 2 0.0335413 10.6139 -0.391218 15.2478
274 2 0.0567234 11.2666 1.30733 14.9975
275 2 0.0569008 11.1633 0.598057 16.6998
276 2 0.014859 10.9882 -0.409391 11.0314
277 2 0.0320759 11.7633 0.706565 12.2583
278 2 0.0234648 10.3777 -0.394368 12.7613
286 2 0.078847 8.67544 -1.2942 16.6129
316 1 -0.0864484 13.5462 1.41776 9.05515
317 2 0.0258038 13.9244 2.34247 9.47513
318 2 0.0477661 13.815 0.473733 9.51429
370 3 -0.539978 10.353 3.41152 17.3983
161 2 0.0274181 14.7109 3.8886 14.1874
187 1 -0.109838 17.3007 0.264591 11.7013
193 2 0.0551237 16.5933 0.825694 11.1065
194 2 0.0178996 17.0324 0.167484 12.746
195 2 0.0530518 17.669 -0.643976 11.2442
258 2 0.030478 20.2372 -3.13546 17.532
271 2 0.0379102 15.3424 0.600764 15.2722
311 2 0.0419075 15.498 -2.17132 13.2517
312 1 -0.106185 17.8978 -1.71712 14.9486
313 2 0.070638 18.8698 -2.02564 14.601
314 2 0.0288478 17.7003 -1.8929 15.991
315 2 0.023265 17.5612 -0.776457 14.5547
74 1 -0.149128 -4.92412 6.81684 15.5782
162 2 0.0141923 -4.02592 6.3599 15.9812
163 2 0.0262181 -5.42481 7.4821 16.2744
164 2 0.0158305 -4.85131 7.21099 14.5638
166 2 0.0397016 -7.09265 8.55483 13.132
238 4 0.661336 -6.35519 10.2827 10.2385
240 3 -0.651173 -7.7441 9.44324 10.1434
241 2 0.0346757 -5.0983 9.26123 10.8417
242 3 -0.667709 -6.19856 11.4829 11.2774
246 2 0.0431282 -9.33391 12.0059 9.15019
252 1 -0.130372 -8.66059 10.4995 17.238
253 2 0.0251752 -6.64423 8.09961 16.7818
256 2 0.049116 -8.28617 10.8062 16.2639
282 2 0.0571495 -5.78715 10.8363 16.0704
284 2 0.0436152 -4.08665 10.1437 16.1163
351 2 0.0746345 -4.14111 11.4859 13.1229
120 2 0.00345274 1.71814 5.11677 16.9269
140 2 0.0160491 1.2523 11.6715 9.24137
174 2 0.0223371 1.93045 8.99924 9.99153
231 4 0.288934 -0.89847 9.35863 16.4055
232 1 -0.140118 -0.0071123 7.98898 17.1787
233 3 -0.604359 -1.72925 10.3304 17.3707
235 2 0.0156434 0.579489 7.49942 16.3995
267 2 0.00127922 0.996432 10.9565 12.6485
288 4 0.29915 -2.46067 6.44436 9.43115
289 4 0.314031 -2.35528 8.09566 11.8622
291 1 -0.122368 -1.7255 9.75033 11.5519
292 3 -0.567335 -2.88958 7.5492 10.478
293 1 -0.133742 -1.28625 6.96704 12.8353
294 2 0.0143175 -3.78507 8.34155 12.7603
298 2 0.0366154 -1.06578 9.58106 10.7082
299 2 0.01255 -1.19063 10.1662 12.4029
300 2 0.0393916 -2.61474 10.3242 11.2579
301 2 0.0338878 -0.497563 6.70411 12.1387
302 2 0.0263164 -1.90945 6.12364 13.1126
303 2 0.0128536 -0.915991 7.5001 13.705
333 1 -0.0993925 0.242601 10.391 15.236
334 2 0.0210136 0.579749 9.6755 14.502
335 2 0.0804077 1.02384 10.7751 15.8746
336 2 0.0431243 -0.416068 11.1456 14.8376
338 2 0.000679299 -2.00055 8.74326 15.2608
349 2 0.0231287 -2.56119 11.1329 13.9853
356 1 -0.118797 -0.463812 5.96679 9.3399
357 2 0.0479515 -0.242518 5.31746 10.1763
358 2 0.0308321 -0.0536192 6.96371 9.40847
360 2 0.0103328 -3.25383 4.99602 9.86581
8 4 0.659651 4.02241 5.49898 17.552
18 4 1.12409 6.46465 5.50453 9.46339
21 4 1.59854 6.63173 4.65384 16.0241
27 4 0.306223 4.26922 9.38184 10.722
29 4 1.53524 7.79481 7.11649 14.7064
30 4 1.33322 6.87042 8.74891 12.2287
54 1 -0.106675 3.707 5.45504 12.9473
69 3 -0.688913 5.18603 5.27693 10.461
78 3 -0.68561 5.4616 4.76465 17.2243
80 1 -0.0996673 8.237 5.41567 10.5866
91 3 -0.685964 6.44595 6.95507 8.81273
94 2 0.0119882 4.34512 11.0275 11.2677
95 1 -0.111891 2.40475 8.67396 10.9087
96 2 0.076968 4.82024 9.37774 9.08601
101 3 -0.852016 6.69724 6.07719 15.3287
104 3 -0.65713 8.17735 8.86657 11.093
105 3 -0.607342 5.29741 8.47263 11.5771
106 3 -0.804563 6.92189 7.67049 13.443
107 3 -0.676829 6.77166 10.2038 12.9679
132 2 0.040883 3.06553 5.97028 12.2496
133 2 0.118435 4.50059 6.04168 13.3924
134 2 0.0126086 3.23745 4.7083 13.5703
170 2 0.109285 7.88079 5.75716 11.5567
175 2 0.026835 2.09134 9.17486 11.8155
176 2 0.0615849 2.58786 7.61086 10.9936
310 4 0.338558 5.91321 11.0122 14.0825
361 1 -0.120521 3.86766 7.33532 16.7944
362 2 0.0528289 3.96401 7.20478 15.721
363 2 0.0679 4.70925 7.77866 17.2967
364 2 0.0137976 2.90679 7.6743 17.1385
366 1 -0.0873106 5.0387 9.93208 15.3568
367 2 0.0637943 4.36472 9.30599 14.7833
368 2 0.0538313 4.52255 10.6392 15.9984
369 2 0.0865364 5.85197 9.38788 15.8343
20 4 0.680868 12.8441 5.23385 15.2979
22 4 0.723945 10.5625 6.54253 13.7222
79 1 -0.106171 10.9288 8.51685 13.4754
81 1 -0.131504 11.0003 5.96252 11.825
82 3 -0.654226 11.4596 5.85866 14.8481
102 3 -0.746017 9.00619 6.29969 13.981
103 3 -0.659836 8.49838 8.23394 15.6994
155 2 0.043545 10.8845 5.53752 8.93468
159 2 0.0178768 13.6623 4.76825 12.9603
165 2 0.0767585 10.1762 8.79368 12.7355
167 2 0.051977 10.7586 8.88233 14.4805
168 2 0.0564005 8.84456 6.11118 10.01
171 2 0.018445 12.0706 5.8165 11.8331
172 2 0.0556224 10.6617 6.78041 11.1941