LAMMPS (2 Aug 2023 - Update 2)
  using 6 OpenMP thread(s) per MPI task

The 'box' command has been removed and will be ignored

Reading data file ...
  triclinic box = (0 0 0) to (19.0492 14.0575 17.55) with tilt (-10.7944 1.3894 -3.3406)
WARNING: Triclinic box skew is large. LAMMPS will run inefficiently. (src/domain.cpp:220)
  1 by 1 by 2 MPI processor grid
  reading atoms ...
  373 atoms
Finding 1-2 1-3 1-4 neighbors ...
  special bond factors lj:    0        0        0       
  special bond factors coul:  0        0        0       
     0 = max # of 1-2 neighbors
     0 = max # of 1-3 neighbors
     0 = max # of 1-4 neighbors
     1 = max # of special neighbors
  special bonds CPU = 0.000 seconds
  read_data CPU = 0.006 seconds
WARNING: Van der Waals parameters for element SI indicate inner wall+shielding, but earlier atoms indicate a different van der Waals method. This may cause division-by-zero errors. Keeping van der Waals setting for earlier atoms. (src/REAXFF/reaxff_ffield.cpp:251)
*****Minimization starts.*****

CITE-CITE-CITE-CITE-CITE-CITE-CITE-CITE-CITE-CITE-CITE-CITE-CITE

Your simulation uses code contributions which should be cited:
- pair reaxff command: doi:10.1016/j.parco.2011.08.005
- fix qeq/reaxff command: doi:10.1016/j.parco.2011.08.005
The log file lists these citations in BibTeX format.

CITE-CITE-CITE-CITE-CITE-CITE-CITE-CITE-CITE-CITE-CITE-CITE-CITE

Switching to 'neigh_modify every 1 delay 0 check yes' setting during minimization
WARNING: Fix qeq/reaxff group is not charge neutral, net charge = 39.36 (src/REAXFF/fix_qeq_reaxff.cpp:392)
Neighbor list info ...
  update: every = 1 steps, delay = 0 steps, check = yes
  max neighbors/atom: 2000, page size: 100000
  master list distance cutoff = 12
  ghost atom cutoff = 12
  binsize = 6, bins = 6 3 3
  2 neighbor lists, perpetual/occasional/extra = 2 0 0
  (1) pair reaxff, perpetual
      attributes: half, newton off, ghost
      pair build: half/bin/newtoff/ghost
      stencil: full/ghost/bin/3d
      bin: standard
  (2) fix qeq/reaxff, perpetual, copy from (1)
      attributes: half, newton off
      pair build: copy
      stencil: none
      bin: none
Setting up cg style minimization ...
  Unit style    : real
  Current step  : 0
Per MPI rank memory allocation (min/avg/max) = 201.9 | 202.1 | 202.3 Mbytes
   Step          Temp          Press         Density         Volume    
         0   0              163368.8       1.1428982      4699.6115    
        10   0              12064.125      1.1428982      4699.6115    
        20   0              6216.8179      1.1428982      4699.6115    
        30   0              4651.0271      1.1428982      4699.6115    
        34   0              2401.3981      1.1428982      4699.6115    
Loop time of 4.3937 on 12 procs for 34 steps with 373 atoms

96.9% CPU use with 2 MPI tasks x 6 OpenMP threads

Minimization stats:
  Stopping criterion = energy tolerance
  Energy initial, next-to-last, final = 
     -29573.8600648706   -33062.659785938  -33062.6882998284
  Force two-norm initial, final = 4490.9958 480.77244
  Force max component initial, final = 663.08369 248.83995
  Final line search alpha, max atom move = 0.00029193464 0.072645
  Iterations, force evaluations = 34 74

MPI task timing breakdown:
Section |  min time  |  avg time  |  max time  |%varavg| %total
---------------------------------------------------------------
Pair    | 3.2684     | 3.3225     | 3.3766     |   3.0 | 75.62
Bond    | 2.3961e-05 | 2.7285e-05 | 3.0609e-05 |   0.0 |  0.00
Neigh   | 0.044085   | 0.044139   | 0.044192   |   0.0 |  1.00
Comm    | 0.012652   | 0.066735   | 0.12082    |  20.9 |  1.52
Output  | 0.0021912  | 0.0022356  | 0.00228    |   0.1 |  0.05
Modify  | 0.95461    | 0.95465    | 0.95469    |   0.0 | 21.73
Other   |            | 0.003406   |            |       |  0.08

Nlocal:          186.5 ave         187 max         186 min
Histogram: 1 0 0 0 0 0 0 0 0 1
Nghost:           4814 ave        4816 max        4812 min
Histogram: 1 0 0 0 0 0 0 0 0 1
Neighs:          94903 ave       95297 max       94509 min
Histogram: 1 0 0 0 0 0 0 0 0 1

Total # of neighbors = 189806
Ave neighs/atom = 508.86327
Ave special neighs/atom = 0
Neighbor list builds = 1
Dangerous builds not checked
System init for write_data ...
*****Equilibration starts.*****
Setting up Verlet run ...
  Unit style    : real
  Current step  : 34
  Time step     : 0.5
Per MPI rank memory allocation (min/avg/max) = 201.6 | 201.7 | 201.9 Mbytes
   Step          Temp          Press         Density         Volume    
        34   300            5636.7331      1.1428982      4699.6115    
        40   202.80037     -4675.8892      1.1348001      4733.1486    
        50   194.87665      7664.2842      1.1381849      4719.0731    
        60   223.4176       239.59662      1.1319691      4744.9859    
        70   246.52878     -7011.5712      1.1317653      4745.8406    
        80   268.02585      2256.308       1.1344835      4734.4694    
        90   235.65626      5405.2285      1.1379469      4720.0599    
       100   282.63094     -6389.9372      1.1369297      4724.2829    
       110   271.97694     -1652.4925      1.140341       4710.1505    
       120   266.12475      8195.9336      1.1529988      4658.4415    
       130   275.93677     -4778.8178      1.1482229      4677.818     
       140   285.19797     -3917.6314      1.1490836      4674.3139    
       150   262.23256      6963.5922      1.1584962      4636.3359    
       160   267.89756     -2704.1662      1.1533931      4656.849     
       170   290.53517     -3645.0081      1.157499       4640.3303    
       180   314.00886      5436.6747      1.1650414      4610.289     
       190   323.53769      1752.4578      1.1611729      4625.6482    
       200   302.4333      -8686.5629      1.155498       4648.3659    
       210   411.82043      4006.4548      1.1663584      4605.0832    
       220   345.54043      4636.8258      1.1617942      4623.1748    
       230   284.27423     -3306.2788      1.1607758      4627.2307    
       240   293.62014      767.96674      1.1622551      4621.3414    
       250   300.41947      2907.8         1.1585227      4636.2299    
       260   318.59344     -2943.0467      1.1590853      4633.9795    
       270   342.72815     -1717.2482      1.148269       4677.6301    
       280   329.6766       7021.2897      1.1513017      4665.3085    
       290   320.85512     -5051.2408      1.1481068      4678.2909    
       300   395.80289     -5811.5612      1.1384963      4717.7822    
       310   374.973        6086.1445      1.1432808      4698.0387    
       320   337.35827     -3349.8151      1.1396175      4713.1406    
       330   337.59915     -5776.8167      1.1321276      4744.3219    
       340   320.69259      2843.6455      1.1283918      4760.0287    
       350   303.66795      1741.2492      1.1289046      4757.8668    
       360   306.23466     -6545.9829      1.1177572      4805.3171    
       370   294.49899      2996.6919      1.1176148      4805.9292    
       380   289.47517     -200.97881      1.1156737      4814.2905    
       390   305.85148     -5950.111       1.1117219      4831.4038    
       400   309.17892     -2099.9742      1.1118286      4830.9403    
       410   305.61999      5129.7808      1.1212341      4790.4157    
       420   343.10307     -178.63171      1.1182007      4803.4108    
       430   391.93238     -5028.3288      1.1123926      4828.491     
       440   329.46653      4887.9744      1.1216346      4788.7052    
       450   392.00435     -5576.034       1.110928       4834.8565    
       460   363.3346      -4733.1602      1.1101449      4838.267     
       470   305.10785      5070.4726      1.1183624      4802.7164    
       480   320.68139      5992.872       1.111747       4831.2947    
       490   315.47107     -8484.1296      1.0978934      4892.2578    
       500   311.9345      -3156.3434      1.1074506      4850.038     
       510   325.5784       2798.6874      1.0978784      4892.3248    
       520   301.79085      1300.8377      1.0966134      4897.9682    
       530   355.31525     -5004.6114      1.0947557      4906.2796    
       534   319.23694      2420.4609      1.0944654      4907.5809    
Loop time of 22.4783 on 12 procs for 500 steps with 373 atoms

Performance: 0.961 ns/day, 24.976 hours/ns, 22.244 timesteps/s, 8.297 katom-step/s
98.8% CPU use with 2 MPI tasks x 6 OpenMP threads

MPI task timing breakdown:
Section |  min time  |  avg time  |  max time  |%varavg| %total
---------------------------------------------------------------
Pair    | 16.872     | 17.107     | 17.342     |   5.7 | 76.10
Bond    | 9.3975e-05 | 0.00012029 | 0.0001466  |   0.0 |  0.00
Neigh   | 1.8543     | 1.8576     | 1.861      |   0.2 |  8.26
Comm    | 0.10752    | 0.34207    | 0.57662    |  40.1 |  1.52
Output  | 0.027774   | 0.037737   | 0.047699   |   5.1 |  0.17
Modify  | 3.1099     | 3.123      | 3.1362     |   0.7 | 13.89
Other   |            | 0.01072    |            |       |  0.05

Nlocal:          186.5 ave         188 max         185 min
Histogram: 1 0 0 0 0 0 0 0 0 1
Nghost:         4664.5 ave        4674 max        4655 min
Histogram: 1 0 0 0 0 0 0 0 0 1
Neighs:          90442 ave       91294 max       89590 min
Histogram: 1 0 0 0 0 0 0 0 0 1

Total # of neighbors = 180884
Ave neighs/atom = 484.9437
Ave special neighs/atom = 0
Neighbor list builds = 50
Dangerous builds not checked
*****Heating starts.*****
Setting up Verlet run ...
  Unit style    : real
  Current step  : 534
  Time step     : 0.5
Per MPI rank memory allocation (min/avg/max) = 202.2 | 202.3 | 202.5 Mbytes
   Step          Temp          Press         Density         Volume    
       534   319.23694      2420.6053      1.0944654      4907.5809    
       540   382.19419     -4499.0154      1.084772       4951.4344    
       550   304.62672      29445.703      1.0986526      4888.8771    
       560   320.33478      9293.4811      1.0854044      4948.5496    
       570   306.03622     -15349.948      1.0716205      5012.2014    
       580   342.63695     -506.79616      1.0836009      4956.7857    
       590   359.79022      10948.969      1.0824792      4961.9221    
       600   273.34448      4572.2876      1.0747851      4997.4432    
       610   341.87266      6851.6552      1.0816618      4965.6717    
       620   347.43822     -439.33538      1.0765679      4989.1674    
       630   326.00367     -8834.025       1.0699004      5020.2595    
       640   371.69246      6624.3499      1.0754742      4994.2413    
       650   364.97773      11273.921      1.0733787      5003.9911    
       660   378.3256       5192.3326      1.0734454      5003.6805    
       670   402.3051      -4480.0037      1.0608152      5063.2548    
       680   385.47454     -3071.6785      1.0568341      5082.3282    
       690   383.1458       3.8163711      1.0519036      5106.1502    
       700   369.05431     -2070.6588      1.0405662      5161.7836    
       710   419.59537     -3481.0783      1.0416784      5156.2723    
       720   447.57955     -4052.9854      1.0314772      5207.2673    
       730   433.33525     -4088.3928      1.0226849      5252.0355    
       740   397.49437      3822.7295      1.0212848      5259.2357    
       750   429.15712      12368.562      1.0230719      5250.0489    
       760   496.57432     -860.82399      1.0176579      5277.9797    
       770   461.98438     -16112.663      1.0086582      5325.0718    
       780   470.51395     -293.61321      1.0062913      5337.5971    
       790   513.92182      16359.485      1.0143796      5295.0371    
       800   492.35597      1992.8238      0.99937856     5374.5175    
       810   575.86592     -693.46291      0.98587136     5448.1525    
       820   613.28346      15340.832      1.0030705      5354.7357    
       830   545.04957     -14113.068      0.9759744      5503.4001    
       840   638.43569     -3000.0154      0.98556407     5449.8513    
       850   613.51154      13626.436      0.99421648     5402.4226    
       860   579.55203     -10835.49       0.97676897     5498.9232    
       870   653.6814      -11407.046      0.97814347     5491.196     
       880   680.28965      11982.806      0.98216092     5468.7347    
       890   663.19422      11224.092      0.98464228     5454.9532    
       900   687.98864     -16821.61       0.96625687     5558.7471    
       910   750.29865     -11299.955      0.95691468     5613.0162    
       920   716.44218      21447.258      0.98222593     5468.3728    
       930   754.13581     -3002.3614      0.96353567     5574.446     
       940   723.69889     -23156.516      0.94811398     5665.118     
       950   788.83034      5181.7557      0.95779659     5607.8479    
       960   769.0486       12664.88       0.94766847     5667.7812    
       970   800.39567     -9074.8736      0.9429466      5696.163     
       980   877.63842     -6320.9324      0.93251528     5759.8816    
       990   928.90036      28488.579      0.94238026     5699.5863    
      1000   940.84826      2110.8977      0.93459432     5747.0685    
      1010   973.73141     -25464.407      0.90387781     5942.3713    
      1020   1068.873       10571.685      0.92013413     5837.3854    
      1030   1042.3988      28319.702      0.92069612     5833.8223    
      1034   1051.351      -933.34124      0.90659241     5924.5781    
Loop time of 34.0603 on 12 procs for 500 steps with 373 atoms

Performance: 0.634 ns/day, 37.845 hours/ns, 14.680 timesteps/s, 5.476 katom-step/s
80.8% CPU use with 2 MPI tasks x 6 OpenMP threads

MPI task timing breakdown:
Section |  min time  |  avg time  |  max time  |%varavg| %total
---------------------------------------------------------------
Pair    | 21.931     | 21.998     | 22.064     |   1.4 | 64.59
Bond    | 0.00010159 | 0.00013112 | 0.00016065 |   0.0 |  0.00
Neigh   | 1.9492     | 2.0489     | 2.1487     |   7.0 |  6.02
Comm    | 4.8244     | 4.8919     | 4.9593     |   3.0 | 14.36
Output  | 0.034071   | 0.044932   | 0.055793   |   5.1 |  0.13
Modify  | 4.9755     | 5.0635     | 5.1514     |   3.9 | 14.87
Other   |            | 0.01303    |            |       |  0.04

Nlocal:          186.5 ave         187 max         186 min
Histogram: 1 0 0 0 0 0 0 0 0 1
Nghost:           4349 ave        4362 max        4336 min
Histogram: 1 0 0 0 0 0 0 0 0 1
Neighs:        74016.5 ave       74181 max       73852 min
Histogram: 1 0 0 0 0 0 0 0 0 1

Total # of neighbors = 148033
Ave neighs/atom = 396.87131
Ave special neighs/atom = 0
Neighbor list builds = 50
Dangerous builds not checked
Total wall time: 0:01:01
