ITEM: TIMESTEP
0
ITEM: NUMBER OF ATOMS
386
ITEM: BOX BOUNDS xy xz yz pp pp pp
-1.0522200000000000e+01 1.6607800000000001e+01 -9.4504999999999999e+00
-1.7010200000000000e-01 1.3450200000000001e+01 -1.0717000000000001e+00
0.0000000000000000e+00 1.7350200000000001e+01 -1.7010200000000000e-01
ITEM: ATOMS id type x y z
8 4 0.800089 1.16025 0.608605
12 4 -0.236915 4.06694 1.66165
170 2 -1.20235 6.33084 4.63137
15 4 -1.08469 4.30927 7.18658
25 4 4.4376 1.72286 3.75509
29 4 6.14125 1.33485 6.16051
33 4 5.14791 3.84973 1.71363
34 4 0.792154 6.34428 3.34844
36 4 4.24324 3.6023 7.31912
38 4 2.58934 5.33343 5.88659
70 1 -0.672422 2.49291 6.67444
85 1 3.31502 3.78171 1.16949
104 2 -0.714465 2.09983 4.74895
340 2 2.28958 2.03651 6.21377
257 3 -0.147707 4.84491 8.36641
111 2 3.59982 2.80103 4.7603
113 2 2.08494 6.00583 7.37032
132 2 -0.0280132 3.5682 5.60646
346 2 5.61437 0.00183375 1.86472
134 2 0.107702 2.34556 7.54977
133 2 -0.914054 1.47896 6.2242
176 2 3.01304 2.86123 0.464938
177 2 3.00717 4.77766 0.67239
178 2 2.79889 3.67876 2.13607
359 2 3.82524 5.94083 0.590612
233 3 -1.36509 3.6499 2.81306
234 3 0.48559 2.75228 0.90839
235 3 -0.974618 5.03919 0.553097
248 3 7.00767 0.120305 7.01708
237 3 -2.03424 5.45879 6.43848
339 2 1.19035 0.523321 6.58128
244 3 3.32303 0.86031 3.18051
247 3 5.47386 0.847019 4.8015
252 3 5.2966 2.49246 2.71291
254 3 0.965114 5.03761 2.3905
256 3 5.17952 2.38356 6.83574
258 3 1.51559 5.97748 4.78189
259 3 2.82811 3.77867 5.90239
338 1 2.28147 0.959451 6.47611
7 4 -1.94624 2.41929 3.61141
107 2 -2.2737 2.89852 7.30151
16 4 -3.22588 6.61563 6.26098
374 2 3.07336 0.327895 5.73604
236 3 -4.31321 6.46998 5.04145
171 2 -1.6466 6.30653 2.80122
318 4 2.93786 -0.0528836 7.96405
230 3 1.09405 -0.0117839 1.64021
10 4 1.71894 0.161789 13.3351
11 4 -0.233122 2.23638 11.5966
14 4 -2.48681 5.98751 16.8923
17 4 -0.764382 4.32797 13.9556
28 4 3.96955 2.11173 9.84028
357 2 1.75276 1.993 16.2637
31 4 3.8564 2.34818 14.6417
37 4 0.4987 6.31215 9.44469
205 2 -3.81869 4.84405 8.87933
71 1 -1.18764 2.88567 15.1279
72 1 -3.57821 5.02177 15.62
355 2 0.671655 0.374019 15.9654
78 1 1.00147 2.98363 10.3558
79 1 2.55597 3.59162 15.313
80 1 6.43928 0.397765 13.1644
260 3 4.41986 3.08895 13.3366
265 3 1.89501 6.26549 10.1073
108 2 -2.39619 4.89123 13.985
112 2 2.79359 2.40648 11.0931
135 2 -0.934795 2.02288 14.3815
136 2 -2.30634 2.89465 15.5383
137 2 -0.435101 2.89477 15.9196
255 3 3.78192 3.38718 8.77531
139 2 -3.75642 5.7442 14.6565
251 3 5.4958 1.9372 10.4294
152 2 3.7341 0.301092 11.9181
155 2 0.498928 3.67793 9.49636
156 2 1.41445 2.02226 9.92265
157 2 1.72011 3.68586 10.982
158 2 2.66886 4.73212 14.8993
159 2 2.4952 3.61485 16.4563
160 2 1.65376 3.01463 14.8708
262 3 0.290603 5.30795 14.5109
354 1 1.25346 1.0671 16.7814
250 3 4.98493 2.01368 15.7672
182 2 -1.4282 5.79042 11.1142
161 2 5.65834 -0.0784868 13.8471
231 3 -1.53828 1.79027 10.7678
232 3 0.769433 0.998392 12.278
238 3 -0.405012 3.55455 12.5528
246 3 3.42896 0.820528 9.14006
249 3 2.71553 1.05411 14.253
138 2 -3.15345 3.94828 15.3577
369 2 -2.95008 3.63508 9.53663
144 2 -3.71572 6.36807 10.5733
140 2 -4.5195 4.96186 16.233
356 2 2.01844 0.442739 17.3487
163 2 6.29936 1.54287 13.1704
150 2 -3.71622 6.56107 13.5654
1 4 -7.1831 13.0514 2.89449
2 1 -6.0102 11.657 2.3017
3 2 -6.44503 11.4438 1.26406
4 2 -6.25821 10.833 3.08551
5 2 -4.91703 12.1025 2.2953
6 3 -8.05898 12.5427 4.12065
347 2 -3.10475 12.777 3.52808
19 4 -3.36343 8.47835 1.63609
27 4 -1.27812 12.5319 7.44684
73 1 -4.4483 9.54004 0.646249
75 1 -6.05391 8.8909 8.48469
323 2 -4.22273 12.3148 8.12056
84 1 -2.3608 8.20425 5.83662
86 1 0.780372 7.41719 7.88804
88 1 -1.13031 10.4847 3.63976
109 2 -2.12495 9.54325 2.21254
83 1 -0.99798 6.79698 3.59245
224 2 0.684539 9.4888 6.92834
181 2 -0.0305858 8.21937 8.2468
142 2 -4.03286 10.5666 1.03771
143 2 -5.52563 9.27691 0.823224
320 2 -6.65867 11.6587 8.31172
241 3 -4.02036 6.86761 7.65141
172 2 -1.06358 7.95267 3.64118
173 2 -2.95656 8.45271 4.8778
174 2 -1.23709 8.16958 5.7106
175 2 -2.62166 8.84944 6.68728
179 2 0.534154 6.99272 6.88508
148 2 -5.70757 10.073 8.10751
185 2 -1.11044 10.9202 2.56037
186 2 -2.114 10.7003 4.25861
187 2 -0.856273 9.36396 3.66664
180 2 1.84668 7.92083 7.88835
239 3 -4.29503 7.88398 2.84976
240 3 -2.6049 7.3033 0.39807
272 3 -0.561156 11.703 6.1916
267 3 1.52822 7.99204 2.75473
345 2 -2.91646 11.7714 1.94691
114 2 0.387624 10.3013 2.35895
349 2 -0.377907 11.9242 0.689332
319 1 -5.06544 11.9085 7.4089
321 2 -5.02203 12.4863 6.42994
322 2 -4.75261 10.8002 7.20322
341 1 -7.41469 10.3597 6.03838
382 2 -3.29555 12.4532 0.33593
342 2 -6.57866 11.1091 5.92198
381 2 -1.39283 10.4435 0.722828
344 1 -3.05009 12.7779 2.41375
21 4 -4.4611 7.91342 8.93545
22 4 -4.63301 9.04323 14.0016
23 4 -5.1684 10.9436 11.3078
40 4 0.0568115 6.92296 15.2696
43 4 -2.5405 10.3638 9.80317
46 4 -2.93532 11.0096 15.7902
76 1 -3.40646 7.70187 13.3462
77 1 -5.83609 12.7239 12.4538
385 2 -9.76223 13.1909 10.8895
90 1 -4.40893 12.1496 16.4933
110 2 -5.99452 10.0455 10.0734
146 2 -4.99782 7.35031 11.4477
184 2 -0.287882 7.22251 11.5367
149 2 -3.26171 7.92371 12.3136
89 1 -1.93666 9.96586 17.1536
151 2 -2.47662 8.06604 13.9692
47 4 0.115698 10.2534 10.9442
153 2 -5.29724 12.6924 13.4147
154 2 -6.58302 11.9596 10.875
264 3 -1.44693 6.8964 16.0601
183 2 -1.59989 7.49585 10.1656
370 2 -4.9044 6.79141 16.6926
189 2 -2.13616 8.90544 16.8193
190 2 -5.33608 11.6434 16.0568
106 2 -7.19691 12.0783 12.5462
242 3 -5.77972 8.27659 14.7993
243 3 -5.36116 9.98565 12.5725
263 3 1.31469 7.19852 16.2497
74 1 -4.74992 6.79165 10.5223
269 3 -3.37029 9.03132 9.08068
271 3 -3.65869 11.2843 10.7466
273 3 0.0296162 8.23439 14.1626
274 3 -3.76663 10.0095 14.8244
275 3 -1.93285 12.0553 15.1051
276 3 -1.38551 9.7217 10.7099
87 1 -0.897501 6.74175 10.6729
371 2 -8.72136 12.611 14.3052
141 2 -5.15107 9.09323 16.9144
188 2 -0.814578 10.1828 17.1995
191 2 -4.19406 13.13 15.9443
162 2 -2.97683 13.3137 12.1566
270 3 -2.01187 11.4039 8.70419
49 4 12.3229 2.67921 0.131392
56 4 5.99798 6.4568 3.52368
48 4 9.69445 2.31593 3.76544
122 2 4.11964 6.10536 5.66305
51 4 12.0273 1.99667 5.48397
55 4 10.6862 4.42331 1.82756
167 2 6.98269 3.70201 8.10584
58 4 10.8985 4.46091 7.36797
91 1 7.46033 2.84977 5.92486
92 1 7.06466 5.88939 4.95084
94 1 9.16313 5.63064 7.43853
118 2 9.16206 3.34209 5.04407
368 2 8.49178 6.16796 1.50856
123 2 9.77491 5.22674 0.57935
124 2 9.09724 4.4497 7.88003
125 2 5.14671 5.0295 7.19685
353 2 9.09518 1.20503 8.42094
326 3 12.802 1.29808 0.725478
366 1 8.0043 6.09037 0.468293
192 2 7.38317 3.15502 4.86304
193 2 8.34356 2.1461 6.29061
194 2 7.13205 3.66437 6.64666
195 2 7.1986 4.70711 5.17322
367 2 6.8743 6.3482 0.540431
201 2 8.94232 6.40745 8.23438
202 2 8.37792 5.73508 6.57624
203 2 10.5424 6.09291 6.50212
245 3 7.41686 1.52534 0.593563
253 3 6.17994 3.85941 0.346853
278 3 8.43815 1.33285 3.52235
280 3 13.4247 2.59351 4.69439
281 3 10.9612 1.51974 4.37387
282 3 12.4806 0.814544 6.56158
288 3 9.85899 3.1992 2.50658
289 3 12.0412 3.83157 1.23211
290 3 10.8231 5.52309 2.96921
291 3 5.44106 5.10681 2.63737
293 3 11.2195 3.23239 6.39097
324 4 13.5653 0.359425 1.77792
325 3 14.5704 1.1476 2.67701
24 4 7.90785 0.465481 1.83894
379 2 9.81485 0.264134 0.446255
352 2 10.3019 -0.0149317 7.5858
196 2 6.41769 6.43995 5.76256
50 4 13.0945 -0.0171243 7.77737
351 1 9.46335 0.105159 8.36442
197 2 8.12263 6.5066 4.83256
9 4 13.6886 1.98951 10.1636
26 4 5.94499 2.54988 16.9152
32 4 6.77127 2.92931 10.6671
39 4 4.99131 4.42786 12.656
126 2 6.0073 5.02899 8.70979
52 4 13.3521 0.43545 14.4226
53 4 8.67512 2.7501 15.6017
54 4 11.5789 2.24547 12.6864
60 4 10.0148 4.65396 13.4764
168 2 8.55296 3.31325 9.19287
81 1 8.35643 2.07115 11.4699
82 1 7.55779 3.88282 9.08246
95 1 11.8118 4.26304 9.05339
96 1 4.6259 5.94598 15.6877
119 2 12.4505 3.3789 16.616
120 2 14.3869 1.17824 15.5361
121 2 10.0196 1.5488 12.4816
127 2 5.45511 5.46141 13.9492
226 2 10.4142 -0.085964 16.603
145 2 11.0449 5.88331 10.3998
164 2 9.21764 2.235 10.7128
165 2 8.03404 1.02393 11.6284
166 2 8.54858 2.58493 12.4941
169 2 7.68677 5.00976 9.30014
204 2 11.1742 4.62083 9.87955
30 4 7.95862 -0.0367678 14.3255
206 2 11.8446 3.04819 8.90885
207 2 3.93809 6.24262 16.6883
208 2 5.49707 5.30098 15.8995
209 2 3.85955 5.41732 14.902
261 3 6.28103 3.98734 11.8203
279 3 13.3972 1.01189 9.02485
283 3 8.39826 1.28206 14.9996
284 3 9.99923 2.60963 16.5507
285 3 7.40121 3.43802 16.2962
286 3 12.55 1.93429 11.2753
287 3 12.3164 1.52234 13.9368
41 4 3.45212 6.42666 10.8674
295 3 8.91645 3.59136 14.0958
296 3 11.263 3.76453 12.8548
297 3 10.3856 5.68824 14.7231
383 2 7.10253 4.88089 17.2223
301 3 9.35329 5.58526 12.1966
266 3 3.81976 5.26851 11.829
365 2 10.4848 -0.0734994 13.6654
105 2 15.04 0.426116 17.0787
59 4 5.92223 6.62458 9.31791
20 4 7.9083 11.1262 4.73255
42 4 1.81495 9.38316 2.19659
44 4 -0.107637 11.777 4.67544
63 4 7.34507 9.07012 2.07213
64 4 2.92056 11.6997 3.78601
65 4 6.41614 9.07752 7.53
308 3 6.16454 7.69899 8.07592
67 4 5.21695 11.4804 6.18132
69 1 9.77012 7.67724 4.28643
93 1 4.43821 7.46601 4.28761
99 1 5.98748 10.0787 1.29166
358 1 4.04196 7.01801 0.994294
101 1 1.72741 9.80057 6.73099
129 2 7.75536 9.04596 6.43461
13 4 11.3914 6.77976 3.721
198 2 4.43125 7.90533 5.3338
199 2 3.59884 6.74416 4.12465
200 2 4.46658 8.33886 3.54062
216 2 5.03286 9.45593 1.40842
131 2 9.46156 7.35718 5.33761
218 2 6.02264 11.0499 1.91843
228 2 3.80227 8.92127 8.60544
377 2 9.4995 9.39208 5.68904
223 2 1.75044 10.5413 5.84066
268 3 2.37517 9.41488 0.710669
302 3 6.81909 7.59821 2.67726
303 3 8.65084 8.73282 0.861932
304 3 7.68889 10.0876 3.59398
305 3 3.01868 10.1884 3.04378
306 3 3.17706 12.8405 2.63933
307 3 1.36951 11.656 4.29704
309 3 2.62489 12.2434 8.25125
311 3 6.70554 11.6647 5.53067
312 3 4.10894 11.6175 4.98431
313 3 5.13154 9.94728 6.9592
314 3 5.02391 12.7768 7.36525
348 1 -0.0705433 12.9351 1.25296
217 2 6.45254 10.1191 0.199184
350 2 0.521585 12.7835 2.18247
66 4 2.21816 10.6768 8.49856
384 2 2.48615 12.0693 0.35484
373 2 4.95212 12.6393 0.969429
360 2 3.4803 7.16939 2.02717
361 2 5.12953 7.27418 1.01709
375 2 9.09926 7.2818 3.4675
343 2 8.6585 10.3464 7.1435
222 2 2.43214 8.94992 6.63653
372 2 -0.49739 13.3941 4.13739
376 2 10.0036 8.79057 4.14887
147 2 10.2862 8.24763 7.50814
18 4 10.415 6.96355 15.5855
35 4 2.13385 8.1213 17.2003
277 3 0.882453 9.38942 12.0542
380 2 0.305953 13.1442 9.33439
57 4 7.58442 7.54439 17.0302
62 4 8.65215 6.84057 11.361
61 4 4.86317 7.8333 15.3641
68 4 2.33731 11.5384 15.6368
97 1 4.66009 7.95839 13.4297
98 1 8.2311 8.1443 12.5744
102 1 1.04729 12.2552 16.7267
103 1 3.65728 9.75399 9.30413
115 2 3.41738 7.7877 11.8677
116 2 2.70388 8.30209 13.5399
117 2 0.165798 11.8909 11.5186
130 2 3.50317 10.3477 16.0087
210 2 3.85562 7.03892 13.536
211 2 5.6941 7.61808 13.0937
212 2 4.3447 9.08704 12.8168
213 2 9.15072 8.8209 12.3608
214 2 8.1595 7.84064 13.6546
215 2 7.24551 8.55421 12.0987
128 2 9.92949 7.30678 10.2853
220 2 6.80363 9.68464 9.71674
225 2 0.106255 11.7053 16.5352
378 2 9.62579 8.83601 9.21084
219 2 8.56869 9.69128 8.82765
332 2 6.53054 11.5238 10.0545
229 2 3.34573 9.35845 10.4014
292 3 9.11058 7.10984 16.505
298 3 6.41959 7.99485 15.6895
299 3 3.69032 8.73073 16.1047
300 3 7.24918 6.70216 10.4464
310 3 1.03575 10.2674 9.60835
315 3 1.39695 10.4723 14.3471
316 3 3.08976 12.7871 15.0896
327 4 5.40019 11.9619 12.5016
328 1 6.06542 12.3819 10.6717
329 1 3.79744 10.8266 11.9836
330 1 6.83826 11.0767 13.564
331 2 5.13389 12.699 10.1603
386 2 6.90775 11.3422 14.6131
333 2 4.08844 9.84256 11.4376
334 2 3.18914 11.4582 11.3185
335 2 3.37628 10.6814 13.0399
336 2 7.80323 11.1408 13.0282
337 2 6.26646 10.054 13.4179
362 1 0.0978904 12.9631 13.1524
227 2 4.51661 10.4426 9.30045
364 2 -0.0985533 11.7805 13.3002
100 1 7.46764 10.1089 8.79913
294 3 4.43515 6.8993 9.73576
317 3 4.80643 13.1533 13.3119
45 4 1.20462 9.13766 13.5691
363 2 -0.0745781 13.3169 12.0994
221 2 7.50907 11.2297 8.78679
ITEM: TIMESTEP
100
ITEM: NUMBER OF ATOMS
386
ITEM: BOX BOUNDS xy xz yz pp pp pp
-1.0522200000000000e+01 1.6607800000000001e+01 -9.4504999999999999e+00
-1.7010200000000000e-01 1.3450200000000001e+01 -1.0717000000000001e+00
0.0000000000000000e+00 1.7350200000000001e+01 -1.7010200000000000e-01
ITEM: ATOMS id type x y z
8 4 0.698175 1.16013 0.404392
12 4 -0.250896 4.16032 1.47476
170 2 -0.889653 6.35953 4.74641
15 4 -0.90798 4.24378 7.201
25 4 4.38673 1.76759 3.83801
29 4 6.20255 1.43814 6.14245
33 4 5.22747 3.8077 1.73753
34 4 0.963911 6.3529 3.16364
36 4 4.27805 3.63606 7.37367
38 4 2.59103 5.32499 5.87276
70 1 -0.844419 2.38826 6.67727
85 1 3.38997 3.68924 1.23261
104 2 -0.474637 2.47813 4.73522
340 2 2.31042 1.88191 6.51894
257 3 -0.141936 4.77576 8.49031
111 2 3.47659 2.79976 4.81839
113 2 1.98639 6.07207 7.31906
132 2 0.304659 3.4953 5.86755
7 4 -1.79683 2.62134 3.62352
134 2 -0.145461 1.99761 7.45073
133 2 -1.17747 1.56758 6.01315
176 2 3.13166 2.73664 0.571899
177 2 3.18303 4.68562 0.694931
178 2 2.81937 3.65524 2.16803
359 2 3.6865 5.98352 0.861966
233 3 -1.37228 3.88319 2.71016
234 3 0.257082 2.57525 0.901039
235 3 -0.916321 4.93169 0.274326
248 3 6.90989 0.218515 6.9724
237 3 -2.05437 5.33437 6.61161
339 2 1.25459 0.157507 6.48511
244 3 3.41404 0.803654 3.17966
247 3 5.46419 0.926476 4.75529
252 3 5.20568 2.46712 2.67049
254 3 0.93112 5.19234 2.0349
256 3 5.08254 2.37681 6.87639
258 3 1.64311 5.82176 4.68838
259 3 2.78353 3.74886 5.94881
338 1 2.3395 0.663614 6.43463
230 3 1.23012 0.237465 1.57327
107 2 -2.17939 2.82812 7.65366
16 4 -3.16922 6.5984 6.35183
374 2 2.97322 0.282364 5.51517
236 3 -4.27851 6.42208 5.16298
171 2 -1.36338 6.52511 2.91073
356 2 3.08137 0.85221 0.242384
10 4 1.73361 0.161529 13.2419
11 4 0.00115645 2.28576 11.497
14 4 -2.65459 5.99219 16.9844
17 4 -0.818388 4.26413 13.9391
28 4 4.1105 2.12302 9.75869
357 2 1.76039 1.95667 16.1995
31 4 3.73669 2.26277 14.639
37 4 0.540074 6.21012 9.56332
161 2 5.35574 -0.0214953 13.673
71 1 -1.13078 2.9474 15.2751
72 1 -3.62386 5.0135 15.537
355 2 0.984751 0.117958 16.0953
78 1 1.27984 3.11936 10.3889
79 1 2.50249 3.5851 15.3023
80 1 6.36646 0.336059 13.2012
260 3 4.29232 3.12208 13.3482
265 3 1.84398 6.08611 10.3478
108 2 -2.42992 4.79069 13.9692
112 2 2.97692 2.24973 11.0533
135 2 -0.764527 2.0314 14.67
136 2 -2.23506 2.88943 15.6128
137 2 -0.458873 3.21012 16.1198
255 3 3.80806 3.51195 8.83145
139 2 -3.72148 5.68705 14.6295
251 3 5.63498 1.97053 10.2862
152 2 3.77952 0.345983 11.7928
155 2 0.607788 3.79097 9.65915
156 2 1.64574 2.14448 9.8775
157 2 2.10392 3.7587 10.8572
158 2 2.78469 4.58201 14.8546
159 2 2.41177 3.6242 16.5844
160 2 1.53658 3.23655 14.8141
262 3 0.105745 5.36374 14.5126
354 1 1.22877 1.04732 16.8259
250 3 4.95622 2.02811 15.7502
182 2 -1.11211 6.03912 11.4617
150 2 -3.91743 6.49496 13.4823
231 3 -1.45218 1.79624 10.662
232 3 0.857973 1.21963 12.2599
238 3 -0.470899 3.47693 12.5956
246 3 3.43824 0.688192 9.09468
249 3 2.85254 0.908286 14.2195
138 2 -3.01844 4.00849 15.4005
140 2 -4.57549 4.95596 16.198
162 2 6.50816 -0.110365 12.1785
1 4 -7.10288 13.193 2.82215
2 1 -6.21137 11.6072 2.23855
3 2 -6.59861 11.1052 1.2677
4 2 -6.31954 10.9063 3.14088
5 2 -5.08623 11.9122 2.20892
6 3 -7.84364 12.5839 4.14829
347 2 -3.14093 12.6866 3.28062
19 4 -3.43353 8.42877 1.67873
27 4 -1.41576 12.5587 7.57706
73 1 -4.56049 9.50759 0.768626
75 1 -6.18449 8.85339 8.30845
323 2 -4.34128 12.1743 8.2399
84 1 -2.2364 8.16247 6.05718
86 1 0.990676 7.50674 8.22819
88 1 -0.99587 10.3172 3.80858
109 2 -2.13455 9.24351 2.53882
83 1 -0.73591 6.92148 3.74813
224 2 0.688016 9.3726 7.02914
318 4 -6.46615 13.1659 7.92134
142 2 -4.22444 10.5084 1.06296
143 2 -5.56766 9.23552 1.29322
320 2 -6.65611 11.3859 8.34138
241 3 -4.02812 7.00922 7.70378
172 2 -0.85462 8.0742 3.82888
173 2 -2.49936 8.35293 4.95555
174 2 -1.12534 8.18589 6.16299
175 2 -2.77585 8.88425 6.71077
179 2 0.526298 7.41849 7.17378
148 2 -5.79056 10.0186 7.89868
185 2 -1.14512 10.9694 2.82553
186 2 -1.97741 10.1948 4.40843
187 2 -0.298158 9.33414 3.66417
180 2 2.0713 7.76285 8.26233
239 3 -4.39031 7.68813 2.79372
240 3 -2.67503 7.11002 0.439747
272 3 -0.773012 11.7128 6.16489
267 3 1.47012 7.8807 2.73009
345 2 -2.70508 11.763 1.62113
114 2 0.383503 10.2142 2.34898
349 2 -0.469223 11.9475 0.504648
319 1 -5.05929 11.7516 7.4637
321 2 -5.00913 12.5766 6.35269
322 2 -4.83219 10.7384 7.07857
341 1 -7.44521 10.3092 5.90244
382 2 -3.31529 12.5656 0.129543
342 2 -6.56652 11.0597 5.82243
381 2 -1.60524 10.5465 0.752185
344 1 -3.0774 12.7612 2.1665
346 2 -3.88237 13.3732 1.66073
147 2 -6.21423 8.15226 7.39751
188 2 0.125014 10.2022 0.0379049
21 4 -4.52935 8.10159 8.90073
22 4 -4.77646 8.87888 13.8785
23 4 -5.21 10.8078 11.2431
40 4 -0.0581331 6.85565 15.3084
43 4 -2.55883 10.5035 9.78617
46 4 -3.00958 10.8848 15.8336
76 1 -3.53264 7.56627 13.2702
77 1 -5.78042 12.7719 12.1587
385 2 -9.7163 13.1096 11.0134
90 1 -4.44874 12.194 16.3
110 2 -5.99015 10.0266 9.89835
146 2 -5.18026 7.61893 11.6142
184 2 -0.213682 7.72563 11.2985
149 2 -3.44512 7.79346 12.1712
89 1 -2.05421 9.92966 17.2328
151 2 -2.6091 7.72635 13.8463
47 4 0.119553 10.3416 11.025
153 2 -5.24738 12.6573 13.2091
154 2 -6.55932 11.7883 10.6725
264 3 -1.55641 6.90627 16.1314
183 2 -1.63974 7.32027 10.1888
370 2 -5.01208 6.80266 16.78
189 2 -2.38962 8.85171 17.007
190 2 -5.3963 11.6857 16.0693
106 2 -7.01831 12.3577 12.2176
242 3 -5.9707 8.15433 14.6818
243 3 -5.23173 9.75302 12.5976
263 3 1.31343 7.0603 16.3473
74 1 -4.94677 7.1628 10.5706
269 3 -3.55739 9.30639 9.17507
271 3 -3.71617 11.3324 10.7995
273 3 0.179008 8.01504 14.1376
274 3 -3.84718 9.85843 14.9105
275 3 -2.00008 11.9606 15.1017
276 3 -1.45133 9.83314 10.7754
87 1 -0.783621 6.93704 10.7392
371 2 -8.79757 12.4474 14.0197
141 2 -5.54851 9.12909 16.9851
181 2 0.275008 8.32184 8.93897
191 2 -4.2917 13.1252 15.7515
144 2 -3.76786 6.8481 10.5655
270 3 -2.00225 11.5874 8.68234
197 2 8.02912 6.35687 4.67663
56 4 5.84461 6.57869 3.51532
48 4 9.72239 2.33179 3.8883
122 2 4.09537 6.22597 5.69852
51 4 12.2313 2.11033 5.29991
55 4 10.6807 4.364 1.91363
167 2 7.14628 3.46778 8.22085
58 4 10.9838 4.39085 7.40124
91 1 7.48784 2.91167 5.82537
92 1 6.96687 5.94503 4.89817
94 1 9.2831 5.57491 7.16453
118 2 9.23799 3.47889 5.11843
368 2 8.35628 6.06816 1.41209
123 2 9.54347 5.04747 0.786891
124 2 9.14412 4.31127 7.62116
125 2 5.32784 4.96502 7.26821
353 2 8.98969 1.09388 8.38886
326 3 12.8667 1.51979 0.814173
366 1 7.94742 6.13908 0.377062
192 2 7.47941 3.16463 4.67516
193 2 8.41039 2.19227 6.05268
194 2 7.30197 3.72711 6.59726
195 2 7.03855 4.77306 5.16034
367 2 6.81486 6.29238 0.367002
201 2 9.12229 6.33655 7.95035
202 2 8.54309 5.71734 6.32251
203 2 10.7862 6.10085 6.4865
245 3 7.47318 1.67831 0.526962
253 3 6.04504 3.95576 0.366489
278 3 8.50995 1.30115 3.47547
280 3 13.4946 2.81348 4.55006
281 3 11.044 1.60208 4.2773
282 3 12.6593 0.975697 6.31892
288 3 9.78592 3.26226 2.57188
289 3 11.9536 3.94742 1.06761
290 3 10.9806 5.57684 2.90902
291 3 5.29134 5.20898 2.72585
293 3 11.4588 3.34519 6.26988
324 4 13.5316 0.517001 1.90443
325 3 14.6429 1.29171 2.8442
24 4 7.8573 0.529362 1.72997
379 2 9.42991 0.409225 0.0542033
352 2 10.0824 0.142785 7.11143
196 2 6.38044 6.47215 5.75121
50 4 13.1488 0.1508 7.66088
351 1 9.48066 0.129306 8.13866
49 4 12.2944 2.77821 0.0230603
9 4 13.6573 1.90608 10.2388
26 4 5.90133 2.61632 16.8519
32 4 6.80092 2.9026 10.8482
39 4 4.98459 4.46715 12.6888
126 2 6.07994 4.87977 8.88026
52 4 13.3593 0.438642 14.3783
53 4 8.61589 2.72968 15.4903
54 4 11.7205 2.30873 12.6267
60 4 10.0779 4.61504 13.5581
168 2 8.56677 2.97575 9.31213
81 1 8.31654 1.83474 11.621
82 1 7.65594 3.67368 9.22523
95 1 11.6063 4.26856 9.27351
96 1 4.3348 6.05109 15.7089
119 2 12.5319 3.30571 16.4858
120 2 14.5152 1.21578 15.4078
121 2 10.1624 1.5865 12.26
127 2 5.32813 5.4373 14.0613
59 4 6.06327 6.52057 9.37849
145 2 10.9849 6.28818 10.298
164 2 9.0731 2.03245 10.7845
165 2 7.96777 0.719267 11.6894
166 2 8.56734 2.35606 12.6253
169 2 7.94908 4.74597 9.41305
204 2 10.7583 4.802 9.95478
163 2 6.41698 1.44015 13.0743
206 2 11.6232 3.15605 9.37757
207 2 3.74505 6.09606 16.7304
208 2 5.32586 5.4241 15.816
209 2 3.61487 5.67921 14.8241
261 3 6.36791 4.17292 11.8944
279 3 13.3428 1.02917 9.01656
283 3 8.10569 1.17756 15.1691
284 3 9.97646 2.6398 16.3725
285 3 7.40351 3.50823 16.282
286 3 12.5751 1.81806 11.3009
287 3 12.3393 1.58388 13.901
41 4 3.45812 6.39432 10.9472
295 3 8.97178 3.3756 14.1117
296 3 11.3994 3.87229 12.934
297 3 10.5201 5.61204 14.7777
383 2 7.08245 4.95572 17.1699
301 3 9.14538 5.52795 12.3237
266 3 3.94578 5.10885 11.7724
365 2 10.3772 0.019985 13.909
105 2 15.0159 0.123482 16.9369
369 2 13.4279 3.51176 9.62633
363 2 9.65612 -0.103938 12.3045
205 2 12.5378 4.91197 8.98116
20 4 7.98792 11.2702 4.67618
42 4 1.82891 9.33937 2.21893
44 4 -0.161516 11.7876 4.73379
63 4 7.36716 9.19031 2.25738
64 4 3.01361 11.5225 3.80331
65 4 6.51003 8.94472 7.44919
308 3 6.36213 7.49344 7.9623
67 4 5.24278 11.5797 6.14483
69 1 9.79201 7.53366 4.41293
93 1 4.36854 7.59496 4.33876
99 1 6.03079 10.1157 1.34881
358 1 3.93155 7.0901 1.11024
101 1 1.70383 9.81742 6.83192
129 2 7.82608 8.86637 6.32328
13 4 11.4169 6.724 3.82456
198 2 4.40296 8.21264 5.28772
199 2 3.40307 6.96448 4.27721
200 2 4.37618 8.33106 3.4317
216 2 5.04753 9.57896 1.36943
131 2 9.63291 7.63415 5.55552
218 2 6.02441 11.1157 1.92967
228 2 3.55189 8.8443 8.51689
377 2 9.44825 9.24774 5.45295
223 2 1.67013 10.5699 6.01744
268 3 2.23338 9.33038 0.65403
302 3 6.58826 7.64703 2.63334
303 3 8.58366 8.86579 0.860617
304 3 7.80304 10.1612 3.35089
305 3 3.07659 10.0282 3.02776
306 3 3.2947 12.8428 2.72987
307 3 1.41032 11.7323 4.48598
309 3 2.67415 12.1896 8.07657
311 3 6.6264 11.7006 5.49909
312 3 4.13564 11.5561 5.0295
313 3 5.30363 9.8768 6.92451
314 3 5.02469 12.863 7.25238
348 1 -0.186015 13.0316 0.930446
217 2 6.63284 10.1342 0.295139
350 2 0.650779 13.0696 1.72781
66 4 2.1804 10.7571 8.52584
384 2 2.17865 11.5751 0.378888
373 2 5.08518 13.1507 0.897758
360 2 3.6727 7.42104 2.16961
361 2 5.07332 7.37303 0.856238
375 2 8.87087 7.06479 3.85986
343 2 8.71205 10.3641 6.95537
222 2 2.49406 8.9966 6.67256
221 2 7.16995 11.1198 8.25576
376 2 10.1014 8.61402 3.9077
372 2 -0.518515 13.3107 4.05197
100 1 7.49002 10.0863 8.6472
18 4 10.3671 6.89809 15.5882
35 4 2.11897 8.12324 17.1964
317 3 4.89749 13.2264 13.2245
380 2 0.651478 13.1764 9.00343
57 4 7.59543 7.6327 17.0335
62 4 8.47355 6.81496 11.4112
61 4 4.89052 7.89831 15.438
68 4 2.23412 11.291 15.7477
97 1 4.61965 7.94764 13.4926
98 1 8.08034 8.23076 12.51
102 1 0.868473 11.957 16.7349
103 1 3.65646 9.81089 9.21865
115 2 3.35642 7.70535 11.9965
116 2 2.66521 8.29318 13.6048
117 2 0.101141 11.9636 11.6625
130 2 3.3839 10.2426 16.615
210 2 3.81472 7.07632 13.5367
211 2 5.67878 7.68416 13.1284
212 2 4.29708 9.04772 13.0165
213 2 9.10474 8.83694 12.3195
214 2 8.04461 7.61745 13.5347
215 2 7.12535 8.78759 12.2966
128 2 9.78314 7.54995 10.3728
220 2 6.88426 9.74296 9.57376
225 2 -0.165255 11.7584 16.2125
336 2 7.75225 10.873 12.9635
294 3 4.58682 6.72846 9.91237
332 2 6.69644 11.4144 9.96909
229 2 3.51505 9.60927 10.3401
292 3 8.97312 7.24151 16.444
298 3 6.43971 7.92145 15.8061
299 3 3.80662 8.7647 16.2828
300 3 7.20725 6.67497 10.4303
310 3 0.899423 10.4913 9.66076
315 3 1.5187 10.3094 14.6171
316 3 3.1743 12.5768 15.1535
327 4 5.36166 11.9635 12.3179
328 1 6.21789 12.2495 10.6304
329 1 3.65763 10.8791 12.3198
330 1 6.74543 10.9041 13.4902
331 2 5.269 12.6877 10.1306
386 2 6.76167 11.3534 14.5349
333 2 3.72207 9.89059 11.7103
334 2 2.83396 11.5944 11.9722
335 2 3.62098 10.7033 13.4395
45 4 1.20672 9.04801 13.5994
337 2 6.37301 9.8476 13.5924
362 1 0.119778 12.9968 13.3473
227 2 4.58192 10.4318 8.99055
364 2 0.226805 11.8483 13.517
226 2 1.00107 13.0933 16.9196
219 2 8.56167 9.97485 8.78988
277 3 0.933953 9.52224 12.0849
378 2 9.43267 8.88422 8.857
30 4 -1.55869 13.31 14.2772
ITEM: TIMESTEP
200
ITEM: NUMBER OF ATOMS
386
ITEM: BOX BOUNDS xy xz yz pp pp pp
-1.0522200000000000e+01 1.6607800000000001e+01 -9.4504999999999999e+00
-1.7010200000000000e-01 1.3450200000000001e+01 -1.0717000000000001e+00
0.0000000000000000e+00 1.7350200000000001e+01 -1.7010200000000000e-01
ITEM: ATOMS id type x y z
8 4 0.703769 1.11551 0.494418
12 4 -0.347144 4.15681 1.40572
170 2 -0.850653 6.10638 4.77297
15 4 -0.890299 4.26947 7.33617
25 4 4.53537 1.87297 3.8193
29 4 6.21431 1.46559 6.28945
33 4 5.00431 3.9733 1.67756
34 4 1.01338 6.31275 3.16299
36 4 4.30207 3.644 7.34638
38 4 2.51464 5.35001 5.84332
70 1 -0.783642 2.3642 6.78206
85 1 3.23673 3.82554 1.12436
104 2 -0.574446 2.41287 4.84793
340 2 2.21635 1.69309 6.48386
83 1 -0.760314 6.58769 3.73114
111 2 3.5743 2.88359 4.91251
113 2 1.65105 6.00113 7.12853
132 2 0.309131 3.69629 6.03129
7 4 -1.86933 2.7351 3.67015
134 2 -0.0875568 1.90712 7.53917
133 2 -1.18875 1.55076 6.10822
176 2 2.91661 2.82837 0.456335
177 2 2.82082 4.77502 0.537636
178 2 2.70505 3.70906 2.13037
359 2 3.55386 5.90463 0.846199
233 3 -1.33269 3.83008 2.72506
234 3 0.395049 2.59372 0.899095
235 3 -1.0624 4.8822 0.242264
248 3 6.97218 0.33298 7.10532
237 3 -2.02041 5.35822 6.73547
339 2 1.27496 0.0449644 6.52198
244 3 3.42936 0.836041 3.179
247 3 5.49668 1.01486 4.73341
252 3 5.30116 2.80659 2.8495
254 3 0.850669 5.21139 1.93463
256 3 5.23222 2.50997 6.84875
258 3 1.81235 5.79632 4.51399
259 3 2.85468 3.80328 5.93509
338 1 2.31701 0.62438 6.42278
230 3 1.0599 0.0549817 1.67682
107 2 -1.9901 2.69643 7.53357
16 4 -2.99044 6.57834 6.48028
374 2 2.89797 0.327486 5.51842
236 3 -4.0096 6.46937 5.11772
171 2 -1.38765 6.0707 2.95114
356 2 3.02066 0.904633 0.119174
10 4 1.74038 0.153896 13.2068
11 4 -0.0423008 2.37027 11.6639
14 4 -2.71924 5.93949 16.7952
17 4 -0.944362 4.21398 13.9351
28 4 4.13808 2.02042 9.81757
357 2 1.54274 2.00658 16.1612
31 4 3.7756 2.32051 14.6385
37 4 0.558178 6.28139 9.62313
163 2 6.16729 1.13247 13.3398
71 1 -1.24512 2.85746 15.2872
72 1 -3.7682 4.87101 15.4534
355 2 0.737506 0.255849 15.9929
78 1 1.22793 2.89907 10.325
79 1 2.48799 3.59369 15.2162
80 1 6.26698 0.0420476 13.239
260 3 4.45366 2.85873 13.3193
265 3 2.06695 6.2664 10.3829
108 2 -2.52777 4.87378 13.8538
112 2 3.00908 2.16357 11.0665
135 2 -0.936564 1.84919 14.8753
136 2 -2.4266 2.92269 15.5549
137 2 -0.646096 3.21687 16.1068
255 3 3.97696 3.29878 8.83482
139 2 -3.81473 5.77185 14.5341
251 3 5.7534 1.88519 10.3388
152 2 3.0384 0.0520823 10.925
155 2 0.578671 3.62512 9.63812
156 2 1.65441 1.99566 9.78677
157 2 2.00634 3.56468 10.8305
158 2 2.86572 4.66036 14.7937
159 2 2.35558 3.64243 16.4623
160 2 1.59282 3.17368 14.669
262 3 0.0424035 5.29237 14.4884
354 1 1.15562 1.09058 16.742
250 3 4.87865 2.08834 15.7487
182 2 -1.2812 6.05606 11.2068
205 2 -3.9507 4.9644 8.85459
231 3 -1.39106 2.01354 10.6898
232 3 0.854025 1.24167 12.3006
238 3 -0.443626 3.55169 12.6308
246 3 3.6058 0.849639 8.87266
249 3 2.67225 0.816839 14.253
138 2 -3.40568 3.83881 14.9682
144 2 -3.76363 6.4836 10.7116
257 3 -0.160203 4.82733 8.68351
1 4 -7.19692 13.0608 2.72656
2 1 -6.12789 11.8203 1.75934
3 2 -6.51297 11.7422 0.703629
4 2 -6.30569 10.9281 2.34939
5 2 -4.86681 12.2117 1.90189
6 3 -7.79071 12.5009 4.15816
347 2 -3.19065 13.1872 3.18944
19 4 -3.3493 8.40071 1.54001
27 4 -1.45648 12.5336 7.55387
73 1 -4.42981 9.53547 0.594247
75 1 -6.01069 8.77351 8.25439
323 2 -4.19963 12.3129 8.36539
84 1 -1.94541 8.08175 6.1784
86 1 0.851645 7.50625 8.21195
88 1 -0.961197 10.1553 3.70876
109 2 -2.15746 9.39012 2.30827
147 2 -5.96063 8.02999 7.27296
224 2 0.480017 9.80152 7.39068
318 4 -6.35894 13.1992 7.86563
142 2 -3.9261 10.5214 0.985755
143 2 -5.53074 9.42751 0.820245
320 2 -6.39946 11.3927 8.40224
241 3 -3.78397 6.89977 7.88814
172 2 -0.94668 7.68654 3.77562
173 2 -2.61887 8.46848 5.23006
174 2 -0.87676 8.04338 5.90921
175 2 -2.09423 8.73511 7.09746
179 2 0.489054 7.36337 7.17569
148 2 -5.60063 9.93735 7.94433
185 2 -1.42036 10.923 2.83979
186 2 -1.66061 9.9175 4.58188
187 2 -0.502014 9.26506 3.26422
180 2 2.0026 7.57676 8.29674
239 3 -4.1981 7.73871 2.72744
240 3 -2.66141 7.17315 0.258453
272 3 -0.796283 11.7639 6.04189
267 3 1.46108 7.93564 2.8082
345 2 -2.72436 12.0228 1.7903
114 2 0.394765 10.2908 2.21774
349 2 -0.605921 12.0645 0.603072
319 1 -4.85154 11.7395 7.62822
321 2 -4.80006 12.319 6.4759
322 2 -4.37131 10.7214 7.45705
341 1 -7.51426 10.4115 6.03219
382 2 -3.34965 12.4564 0.0812455
342 2 -6.6361 11.1051 6.15696
381 2 -1.94135 10.5759 0.889246
344 1 -3.08207 13.0184 2.04855
89 1 -1.28363 10.2509 0.000206067
376 2 -6.25755 8.68351 3.77481
188 2 -0.182273 10.4422 0.0495219
346 2 -4.09406 13.3479 1.45062
21 4 -4.40263 8.00502 8.96633
22 4 -4.82723 8.75089 13.8416
23 4 -5.2587 10.7479 11.1938
40 4 -0.0954193 6.814 15.2098
43 4 -2.52927 10.5952 9.88255
46 4 -3.23932 10.8185 15.791
76 1 -3.55054 7.39833 13.3809
77 1 -6.10011 12.7935 11.7643
385 2 -9.77153 13.0649 10.9979
90 1 -4.62318 12.0101 16.3475
110 2 -5.91427 10.0209 9.73042
146 2 -5.00375 7.78372 11.3369
184 2 -0.277046 7.59818 11.5939
149 2 -2.92211 7.92255 12.6602
161 2 -4.15284 12.966 13.5827
151 2 -2.90954 7.04676 14.2117
47 4 0.188342 10.4212 11.086
153 2 -5.15504 13.096 12.3933
154 2 -6.86346 11.4161 10.6964
264 3 -1.68107 6.84981 16.0099
183 2 -1.43835 7.61869 10.1552
370 2 -5.14334 6.91126 16.704
189 2 -2.59403 8.99573 16.9978
190 2 -5.64115 11.4828 16.2502
106 2 -7.10115 12.0696 12.3588
242 3 -6.05717 8.02582 14.4864
243 3 -5.40936 9.63075 12.2857
263 3 1.26602 6.93526 16.2242
74 1 -4.77138 7.01626 10.6035
269 3 -3.41217 9.32457 9.25326
271 3 -3.75525 11.3506 10.7903
273 3 -0.0952515 8.08023 14.0669
274 3 -3.97729 9.67726 14.8645
275 3 -2.00413 11.7509 15.0514
276 3 -1.3517 9.90168 10.6997
87 1 -0.825476 7.00941 10.8082
371 2 -8.81883 12.6312 14.0483
141 2 -5.35239 9.21862 16.8555
181 2 0.174897 8.38208 8.84015
191 2 -4.62822 12.9015 15.7178
150 2 -4.23357 6.64821 12.9035
270 3 -1.93597 11.5992 8.68826
162 2 -3.02813 13.1403 12.1928
197 2 7.83812 6.54558 5.0538
56 4 5.85676 6.65926 3.59977
48 4 9.78803 2.35609 3.62971
122 2 3.96618 6.30171 6.0062
51 4 12.2861 2.3618 5.33603
55 4 10.6421 4.57293 1.78649
167 2 7.05475 3.51448 8.28626