ITEM: TIMESTEP
0
ITEM: NUMBER OF ATOMS
386
ITEM: BOX BOUNDS xy xz yz pp pp pp
-1.0387698000000000e+01 1.6607800000000001e+01 -9.3159980000000004e+00
0.0000000000000000e+00 1.3453600000000000e+01 -1.0717000000000001e+00
0.0000000000000000e+00 1.7350200000000001e+01 3.3999999999999998e-03
ITEM: ATOMS id type x y z
8 4 0.811752 1.16633 0.608605
12 4 -0.196082 4.08355 1.66165
170 2 -1.13859 6.37715 4.63137
15 4 -1.04089 4.38114 7.18658
25 4 4.45519 1.76041 3.75509
29 4 6.1552 1.39646 6.16051
33 4 5.18658 3.86687 1.71363
34 4 0.855925 6.37776 3.34844
36 4 4.27999 3.67549 7.31912
38 4 2.64325 5.3923 5.88659
70 1 -0.646839 2.55965 6.67444
85 1 3.35295 3.79341 1.16949
104 2 -0.693001 2.14732 4.74895
340 2 2.31055 2.09865 6.21377
257 3 -0.0984373 4.92857 8.36641
111 2 3.62829 2.84863 4.7603
113 2 2.14572 6.07953 7.37032
132 2 0.00821844 3.62426 5.60646
346 2 5.61457 0.020481 1.86472
134 2 0.131898 2.42106 7.54977
133 2 -0.898655 1.5412 6.2242
176 2 3.0417 2.86588 0.464938
177 2 3.05501 4.78438 0.67239
178 2 2.83588 3.70012 2.13607
359 2 3.8847 5.94674 0.590612
233 3 -1.32832 3.67803 2.81306
234 3 0.513202 2.76136 0.90839
235 3 -0.924171 5.04472 0.553097
248 3 7.00956 0.190476 7.01708
237 3 -1.97902 5.52318 6.43848
339 2 1.19623 0.589134 6.58128
244 3 3.33194 0.892116 3.18051
247 3 5.4828 0.895034 4.8015
252 3 5.32179 2.51959 2.71291
254 3 1.01572 5.06152 2.3905
256 3 5.20402 2.45192 6.83574
258 3 1.57583 6.0253 4.78189
259 3 2.86647 3.83769 5.90239
338 1 2.2917 1.02421 6.47611
7 4 -1.92169 2.4554 3.61141
107 2 -2.244 2.97154 7.30151
16 4 -3.15911 6.67824 6.26098
374 2 3.0772 0.385256 5.73604
236 3 -4.24802 6.52039 5.04145
171 2 -1.58326 6.33455 2.80122
318 4 2.93811 0.0267569 7.96405
230 3 1.09409 0.00461824 1.64021
10 4 1.72187 0.295139 13.3351
11 4 -0.209621 2.35234 11.5966
14 4 -2.42528 6.15643 16.8923
17 4 -0.719734 4.46753 13.9556
28 4 3.99163 2.21013 9.84028
357 2 1.77429 2.15563 16.2637
31 4 3.88132 2.49459 14.6417
37 4 0.562748 6.40659 9.44469
205 2 -3.76938 4.93284 8.87933
71 1 -1.1573 3.03695 15.1279
72 1 -3.52646 5.17797 15.62
355 2 0.67696 0.533673 15.9654
78 1 1.03233 3.08718 10.3558
79 1 2.59338 3.74475 15.313
80 1 6.44455 0.529409 13.1644
260 3 4.45205 3.22231 13.3366
265 3 1.95866 6.36656 10.1073
108 2 -2.34591 5.03108 13.985
112 2 2.81874 2.51741 11.0931
135 2 -0.913156 2.16669 14.3815
136 2 -2.27587 3.05004 15.5383
137 2 -0.404593 3.05397 15.9196
255 3 3.81665 3.47493 8.77531
139 2 -3.69754 5.89076 14.6565
251 3 5.51619 2.0415 10.4294
152 2 3.73828 0.420274 11.9181
155 2 0.536638 3.77289 9.49636
156 2 1.43565 2.12148 9.92265
157 2 1.75805 3.79568 10.982
158 2 2.71764 4.88111 14.8993
159 2 2.53297 3.77942 16.4563
160 2 1.68536 3.16334 14.8708
262 3 0.345105 5.45306 14.5109
354 1 1.26578 1.23491 16.7814
250 3 5.00662 2.17135 15.7672
182 2 -1.3692 5.90157 11.1142
161 2 5.65891 0.0599839 13.8471
231 3 -1.51932 1.89795 10.7678
232 3 0.780621 1.12117 12.278
238 3 -0.368236 3.68007 12.5528
246 3 3.43807 0.911928 9.14006
249 3 2.72747 1.19664 14.253
138 2 -3.11246 4.10186 15.3577
369 2 -2.9128 3.73045 9.53663
144 2 -3.651 6.4738 10.5733
140 2 -4.46829 5.12419 16.233
356 2 2.02457 0.616226 17.3487
163 2 6.31608 1.67457 13.1704
150 2 -3.64928 6.69673 13.5654
1 4 -7.0523 13.0804 2.89449
2 1 -5.8934 11.68 2.3017
3 2 -6.33047 11.4565 1.26406
4 2 -6.14958 10.8639 3.08551
5 2 -4.79578 12.1255 2.2953
6 3 -7.93314 12.5839 4.12065
347 2 -2.97664 12.8123 3.52808
19 4 -3.27848 8.49471 1.63609
27 4 -1.15207 12.6063 7.44684
73 1 -4.35284 9.5465 0.646249
75 1 -5.96417 8.97575 8.48469
323 2 -4.09878 12.396 8.12056
84 1 -2.27818 8.26261 5.83662
86 1 0.855317 7.49607 7.88804
88 1 -1.02511 10.5211 3.63976
109 2 -2.0293 9.56538 2.21254
83 1 -0.929658 6.83291 3.59245
224 2 0.780106 9.55808 6.92834
181 2 0.0524164 8.30184 8.2468
142 2 -3.9271 10.577 1.03771
143 2 -5.43278 9.28514 0.823224
320 2 -6.54127 11.7418 8.31172
241 3 -3.95093 6.94412 7.65141
172 2 -0.983693 7.98908 3.64118
173 2 -2.87155 8.50149 4.8778
174 2 -1.15483 8.22669 5.7106
175 2 -2.53251 8.91631 6.68728
179 2 0.604756 7.06157 6.88508
148 2 -5.60605 10.1541 8.10751
185 2 -1.00099 10.9459 2.56037
186 2 -2.00658 10.7429 4.25861
187 2 -0.762274 9.40062 3.66664
180 2 1.92667 7.99971 7.88835
239 3 -4.21591 7.91248 2.84976
240 3 -2.53183 7.30728 0.39807
272 3 -0.443519 11.7649 6.1916
267 3 1.60841 8.01959 2.75473
345 2 -2.79855 11.7908 1.94691
114 2 0.490868 10.3249 2.35895
349 2 -0.258597 11.9311 0.689332
319 1 -4.94563 11.9825 7.4089
321 2 -4.89654 12.5506 6.42994
322 2 -4.6439 10.8722 7.20322
341 1 -7.3105 10.42 6.03838
382 2 -3.17098 12.4565 0.33593
342 2 -6.46699 11.1683 5.92198
381 2 -1.28832 10.4507 0.722828
344 1 -2.92208 12.802 2.41375
21 4 -4.38109 8.00277 8.93545
22 4 -4.5412 9.18325 14.0016
23 4 -5.05785 11.0567 11.3078
40 4 0.127538 7.07565 15.2696
43 4 -2.4359 10.4618 9.80317
46 4 -2.82368 11.1675 15.7902
76 1 -3.32814 7.83533 13.3462
77 1 -5.70763 12.8485 12.4538
385 2 -9.62925 13.2998 10.8895
90 1 -4.28581 12.3146 16.4933
110 2 -5.89308 10.1462 10.0734
146 2 -4.92319 7.46479 11.4477
184 2 -0.214526 7.33787 11.5367
149 2 -3.18127 8.04685 12.3136
89 1 -1.83532 10.1374 17.1536
151 2 -2.39459 8.20573 13.9692
47 4 0.219305 10.3629 10.9442
153 2 -5.169 12.8266 13.4147
154 2 -6.46236 12.0683 10.875
264 3 -1.37639 7.057 16.0601
183 2 -1.52393 7.5975 10.1656
370 2 -4.83485 6.95833 16.6926
189 2 -2.04545 9.07363 16.8193
190 2 -5.21807 11.8039 16.0568
106 2 -7.07489 12.2037 12.5462
242 3 -5.6955 8.42458 14.7993
243 3 -5.26007 10.1114 12.5725
263 3 1.38827 7.36102 16.2497
74 1 -4.68097 6.89687 10.5223
269 3 -3.27909 9.12213 9.08068
271 3 -3.5448 11.3918 10.7466
273 3 0.113349 8.37602 14.1626
274 3 -3.66508 10.1578 14.8244
275 3 -1.81082 12.2064 15.1051
276 3 -1.28724 9.8288 10.7099
87 1 -0.829037 6.84848 10.6729
371 2 -8.59385 12.754 14.3052
141 2 -5.05848 9.26237 16.9144
188 2 -0.711063 10.3548 17.1995
191 2 -4.0612 13.2895 15.9443
162 2 -2.8425 13.4353 12.1566
270 3 -1.89698 11.4909 8.70419
49 4 12.3497 2.68053 0.131392
56 4 6.06289 6.49203 3.52368
48 4 9.71798 2.35358 3.76544
122 2 4.18125 6.16199 5.66305
51 4 12.0478 2.05151 5.48397
55 4 10.7306 4.44159 1.82756
167 2 7.02051 3.78306 8.10584
58 4 10.9438 4.53459 7.36797
91 1 7.48941 2.90901 5.92486
92 1 7.12404 5.9389 4.95084
94 1 9.22017 5.70502 7.43853
118 2 9.19597 3.39253 5.04407
368 2 8.55361 6.18304 1.50856
123 2 9.82723 5.23254 0.57935
124 2 9.14251 4.5285 7.88003
125 2 5.19771 5.10146 7.19685
353 2 9.10806 1.28924 8.42094
326 3 12.8151 1.30534 0.725478
366 1 8.06525 6.09505 0.468293
192 2 7.41519 3.20365 4.86304
193 2 8.36564 2.209 6.29061
194 2 7.16935 3.73083 6.64666
195 2 7.24618 4.75884 5.17322
367 2 6.93783 6.3536 0.540431
201 2 9.0072 6.48979 8.23438
202 2 8.43592 5.80085 6.57624
203 2 10.6039 6.15793 6.50212
245 3 7.43218 1.53127 0.593563
253 3 6.21857 3.86287 0.346853
278 3 8.45182 1.36807 3.52235
280 3 13.4511 2.64045 4.69439
281 3 10.9769 1.56348 4.37387
282 3 12.4894 0.88016 6.56158
288 3 9.89123 3.22427 2.50658
289 3 12.0797 3.84389 1.23211
290 3 10.8786 5.55278 2.96921
291 3 5.49239 5.13318 2.63737
293 3 11.2524 3.2963 6.39097
324 4 13.5691 0.377204 1.77792
325 3 14.5822 1.17437 2.67701
24 4 7.91269 0.483871 1.83894
379 2 9.81754 0.268596 0.446255
352 2 10.3025 0.0609264 7.5858
196 2 6.48266 6.49758 5.76256
50 4 13.0951 0.0606494 7.77737
351 1 9.46523 0.188803 8.36442
197 2 8.18817 6.55492 4.83256
9 4 13.7095 2.09115 10.1636
26 4 5.97215 2.71903 16.9152
32 4 6.80161 3.03598 10.6671
39 4 5.03683 4.55442 12.656
126 2 6.05845 5.11608 8.70979
52 4 13.3579 0.579676 14.4226
53 4 8.70415 2.90612 15.6017
54 4 11.6026 2.37233 12.6864
60 4 10.0627 4.78872 13.4764
168 2 8.587 3.40518 9.19287
81 1 8.37827 2.18585 11.4699
82 1 7.59751 3.97365 9.08246
95 1 11.8553 4.35357 9.05339
96 1 4.6869 6.10286 15.6877
119 2 12.4859 3.54506 16.616
120 2 14.4002 1.33361 15.5361
121 2 10.0363 1.67362 12.4816
127 2 5.51109 5.6009 13.9492
226 2 10.415 0.0800657 16.603
145 2 11.1047 5.98731 10.3998
164 2 9.24104 2.34213 10.7128
165 2 8.04542 1.14022 11.6284
166 2 8.57565 2.70987 12.4941
169 2 7.73778 5.10276 9.30014
204 2 11.2214 4.71963 9.87955
30 4 7.95965 0.106487 14.3255
206 2 11.876 3.13728 8.90885
207 2 4.00216 6.4095 16.6883
208 2 5.55163 5.45998 15.8995
209 2 3.91518 5.56634 14.902
261 3 6.32206 4.10554 11.8203
279 3 13.4082 1.10214 9.02485
283 3 8.41255 1.43205 14.9996
284 3 10.0269 2.77513 16.5507
285 3 7.43718 3.60099 16.2962
286 3 12.5704 2.04704 11.2753
287 3 12.333 1.66171 13.9368
41 4 3.51745 6.53533 10.8674
295 3 8.95375 3.73232 14.0958
296 3 11.3019 3.89308 12.8548
297 3 10.444 5.83547 14.7231
383 2 7.15303 5.05311 17.2223
301 3 9.41034 5.70723 12.1966
266 3 3.87361 5.3868 11.829
365 2 10.4854 0.0631544 13.6654
105 2 15.046 0.596904 17.0787
59 4 5.98939 6.71776 9.31791
20 4 8.02003 11.1735 4.73255
42 4 1.909 9.40513 2.19659
44 4 0.0105916 11.8238 4.67544
63 4 7.43597 9.09084 2.07213
64 4 3.03793 11.7376 3.78601
65 4 6.50765 9.15282 7.53
308 3 6.24232 7.77975 8.07592
67 4 5.33236 11.5422 6.18132
69 1 9.84731 7.7201 4.28643
93 1 4.51329 7.50889 4.28761
99 1 6.0884 10.0916 1.29166
358 1 4.11224 7.02795 0.994294
101 1 1.82608 9.86788 6.73099
129 2 7.84645 9.11031 6.43461
13 4 11.4596 6.81697 3.721
198 2 4.51083 7.95866 5.3338
199 2 3.66668 6.7854 4.12465
200 2 4.55032 8.37427 3.54062
216 2 5.12756 9.47002 1.40842
131 2 9.53566 7.41055 5.33761
218 2 6.13333 11.0691 1.91843
228 2 3.89233 9.00732 8.60544
377 2 9.59398 9.44897 5.68904
223 2 1.85642 10.5997 5.84066
268 3 2.46939 9.42199 0.710669
302 3 6.89533 7.62499 2.67726
303 3 8.73825 8.74144 0.861932
304 3 7.79012 10.1236 3.59398
305 3 3.12086 10.2189 3.04378
306 3 3.30572 12.8669 2.63933
307 3 1.48649 11.699 4.29704
309 3 2.74814 12.3259 8.25125
311 3 6.82273 11.72 5.53067
312 3 4.2256 11.6673 4.98431
313 3 5.23169 10.0169 6.9592
314 3 5.1524 12.8504 7.36525
348 1 0.0589308 12.9477 1.25296
217 2 6.55375 10.1211 0.199184
350 2 0.649634 12.8053 2.18247
66 4 2.32576 10.7618 8.49856
384 2 2.60688 12.0728 0.35484
373 2 5.07861 12.649 0.969429
360 2 3.5522 7.18966 2.02717
361 2 5.20238 7.28435 1.01709
375 2 9.17241 7.31647 3.4675
343 2 8.76266 10.4179 7.1435
222 2 2.52229 9.01629 6.63653
372 2 -0.363043 13.4355 4.13739
376 2 10.0919 8.83205 4.14887
147 2 10.3694 8.32271 7.50814
18 4 10.4862 7.11941 15.5855
35 4 2.21675 8.2933 17.2003
277 3 0.977529 9.50996 12.0542
380 2 0.438311 13.2376 9.33439
57 4 7.66153 7.7147 17.0302
62 4 8.72167 6.95418 11.361
61 4 4.94301 7.98694 15.3641
68 4 2.45422 11.6948 15.6368
97 1 4.741 8.09269 13.4297
98 1 8.31378 8.27004 12.5744
102 1 1.17148 12.4224 16.7267
103 1 3.75573 9.84703 9.30413
115 2 3.49642 7.90638 11.8677
116 2 2.78823 8.43749 13.5399
117 2 0.285836 12.0061 11.5186
130 2 3.60821 10.5078 16.0087
210 2 3.92733 7.17428 13.536
211 2 5.77157 7.74902 13.0937
212 2 4.43683 9.2152 12.8168
213 2 9.24014 8.94451 12.3608
214 2 8.23925 7.97719 13.6546
215 2 7.33224 8.67519 12.0987
128 2 10.0036 7.40963 10.2853
220 2 6.90143 9.78181 9.71674
225 2 0.22493 11.8707 16.5352
378 2 9.71505 8.92812 9.21084
219 2 8.66647 9.77956 8.82765
332 2 6.64677 11.6244 10.0545
229 2 3.44034 9.46247 10.4014
292 3 9.1833 7.27489 16.505
298 3 6.50108 8.15174 15.6895
299 3 3.77921 8.89177 16.1047
300 3 7.31723 6.80663 10.4464
310 3 1.13937 10.3635 9.60835
315 3 1.50308 10.6157 14.3471
316 3 3.21911 12.938 15.0896
327 4 5.52103 12.0869 12.5016
328 1 6.19029 12.4886 10.6717
329 1 3.90688 10.9464 11.9836
330 1 6.95036 11.2123 13.564
331 2 5.26188 12.8006 10.1603
386 2 7.02261 11.4883 14.6131
333 2 4.18799 9.95694 11.4376
334 2 3.30483 11.5714 11.3185
335 2 3.48438 10.8118 13.0399
336 2 7.91591 11.2711 13.0282
337 2 6.36831 10.1882 13.4179
362 1 0.228811 13.0947 13.1524
227 2 4.62195 10.5356 9.30045
364 2 0.0205558 11.9135 13.3002
100 1 7.5696 10.1969 8.79913
294 3 4.5051 6.99666 9.73576
317 3 4.93927 13.2864 13.3119
45 4 1.29733 9.27335 13.5691
363 2 0.0597767 13.4379 12.0994
221 2 7.62223 11.3176 8.78679
ITEM: TIMESTEP
100
ITEM: NUMBER OF ATOMS
386
ITEM: BOX BOUNDS xy xz yz pp pp pp
-1.0387698000000000e+01 1.6607800000000001e+01 -9.3159980000000004e+00
0.0000000000000000e+00 1.3453600000000000e+01 -1.0717000000000001e+00
0.0000000000000000e+00 1.7350200000000001e+01 3.3999999999999998e-03
ITEM: ATOMS id type x y z
8 4 0.721363 1.18008 0.412895
12 4 -0.202069 4.17547 1.49094
170 2 -0.863696 6.45457 4.74063
15 4 -0.867794 4.31653 7.20388
25 4 4.39276 1.79527 3.83829
29 4 6.2136 1.48799 6.1376
33 4 5.26085 3.83281 1.73524
34 4 1.03827 6.38642 3.16733
36 4 4.31503 3.70821 7.37216
38 4 2.61789 5.3901 5.84646
70 1 -0.793839 2.47874 6.69514
85 1 3.43122 3.71006 1.22185
104 2 -0.445752 2.4763 4.74474
340 2 2.3119 1.97625 6.41515
257 3 -0.0696428 4.86975 8.47668
111 2 3.49559 2.83373 4.82452
113 2 2.00282 6.16927 7.26854
132 2 0.322319 3.49575 5.86044
7 4 -1.77147 2.65098 3.63374
134 2 -0.150692 1.95892 7.42346
133 2 -1.25563 1.74317 6.00597
176 2 3.15256 2.75902 0.561944
177 2 3.23702 4.70931 0.673866
178 2 2.8505 3.68742 2.14656
359 2 3.76108 5.97019 0.875094
233 3 -1.32878 3.90493 2.71461
234 3 0.298196 2.59897 0.921241
235 3 -0.860014 4.93426 0.278315
248 3 6.9329 0.252113 6.985
237 3 -2.00837 5.40797 6.60687
339 2 1.28821 0.246438 6.49359
244 3 3.4102 0.842265 3.18699
247 3 5.47341 0.963954 4.7681
252 3 5.22455 2.48448 2.67452
254 3 0.980846 5.21035 2.04479
256 3 5.11384 2.44503 6.88219
258 3 1.6877 5.8674 4.65311
259 3 2.81515 3.81693 5.94751
338 1 2.35207 0.756787 6.42175
230 3 1.24407 0.254954 1.56569
107 2 -2.12665 2.94319 7.78067
16 4 -3.11254 6.66087 6.34371
374 2 2.95693 0.372635 5.47783
236 3 -4.22858 6.47031 5.16019
171 2 -1.30511 6.60169 2.90268
356 2 3.10904 0.89573 0.260576
346 2 5.61391 0.0453992 1.602
10 4 1.73587 0.301765 13.2545
11 4 0.0182365 2.40065 11.5168
14 4 -2.58822 6.18492 16.9865
17 4 -0.770938 4.41189 13.9419
28 4 4.14179 2.20665 9.76533
357 2 1.77673 2.13667 16.2049
31 4 3.75657 2.40266 14.6433
37 4 0.596839 6.30958 9.55546
162 2 6.41499 0.0995725 12.1736
71 1 -1.09878 3.0825 15.2688
72 1 -3.57297 5.1672 15.5584
355 2 1.01707 0.279577 16.1143
78 1 1.30957 3.2075 10.3938
79 1 2.53511 3.74979 15.2984
80 1 6.3851 0.515036 13.1911
260 3 4.3317 3.23902 13.3477
265 3 1.90394 6.21138 10.3432
108 2 -2.38097 4.93556 13.985
112 2 3.0078 2.3232 11.0535
135 2 -0.716393 2.17471 14.6647
136 2 -2.19959 3.03105 15.6073
137 2 -0.42566 3.36923 16.0888
255 3 3.83964 3.6002 8.83424
139 2 -3.69649 5.80686 14.62
251 3 5.66694 2.05657 10.2974
152 2 3.84568 0.469695 11.8252
155 2 0.663811 3.88934 9.64942
156 2 1.67092 2.24473 9.88156
157 2 2.13964 3.8406 10.8686
158 2 2.8189 4.74671 14.8492
159 2 2.45084 3.79897 16.5649
160 2 1.57471 3.41289 14.8123
262 3 0.173303 5.50129 14.5202
354 1 1.25161 1.2325 16.8341
250 3 4.9676 2.18816 15.7584
182 2 -1.06123 6.16151 11.462
163 2 6.35932 1.59907 13.0838
231 3 -1.42856 1.90114 10.6702
232 3 0.870272 1.33664 12.2813
238 3 -0.44373 3.60699 12.5908
246 3 3.4776 0.790206 9.1015
249 3 2.86064 1.05591 14.2471
138 2 -2.92159 4.16972 15.4514
140 2 -4.5074 5.09411 16.2528
150 2 -3.86468 6.68538 13.3508
161 2 5.52525 0.119981 13.7745
205 2 -3.98467 4.96155 8.94485
1 4 -6.95162 13.2162 2.8375
2 1 -5.99391 11.665 2.26153
3 2 -6.39742 11.2232 1.25836
4 2 -6.19495 10.9661 3.15222
5 2 -4.84808 12.019 2.26136
6 3 -7.70737 12.6144 4.14232
347 2 -3.10068 12.727 3.25979
19 4 -3.34115 8.44675 1.67608
27 4 -1.28285 12.6187 7.57165
73 1 -4.45372 9.53284 0.751352
75 1 -6.08895 8.94774 8.31108
323 2 -4.20145 12.2479 8.25263
84 1 -2.16851 8.23537 6.02627
86 1 1.03451 7.60179 8.21314
88 1 -0.889848 10.3599 3.806
109 2 -2.04724 9.26358 2.54212
83 1 -0.66257 6.99463 3.73273
224 2 0.780296 9.50881 7.12407
318 4 -6.3249 13.265 7.92863
142 2 -4.09849 10.5332 1.02493
143 2 -5.47911 9.30005 1.29357
320 2 -6.50694 11.4704 8.37633
241 3 -3.96064 7.09488 7.70389
172 2 -0.779798 8.15984 3.78807
173 2 -2.42012 8.43547 4.94445
174 2 -1.05318 8.22119 6.14399
175 2 -2.70183 8.96843 6.6934
179 2 0.547979 7.48768 7.17161
148 2 -5.68063 10.1084 7.90309
185 2 -1.05861 11.0321 2.80117
186 2 -1.8605 10.2925 4.46276
187 2 -0.167054 9.37794 3.72476
180 2 2.10055 7.87748 8.2204
239 3 -4.32632 7.69637 2.78404
240 3 -2.58793 7.12769 0.445105
272 3 -0.645146 11.7373 6.15832
267 3 1.55659 7.90006 2.72289
345 2 -2.70678 11.7376 1.65477
114 2 0.475439 10.2254 2.324
349 2 -0.363165 11.9411 0.504325
319 1 -4.93883 11.8288 7.46787
321 2 -4.92203 12.6314 6.36852
322 2 -4.71441 10.8055 7.10096
341 1 -7.35074 10.3549 5.90229
382 2 -3.18336 12.5488 0.133727
342 2 -6.48913 11.0857 5.83523
381 2 -1.48593 10.5431 0.721804
344 1 -2.97728 12.7719 2.16268
147 2 -6.1245 8.22661 7.39733
188 2 0.239449 10.1684 0.0347642
21 4 -4.44249 8.1926 8.91345
22 4 -4.68736 9.02309 13.8855
23 4 -5.10508 10.9154 11.2326
40 4 0.0122988 7.00509 15.321
43 4 -2.46118 10.5921 9.78712
46 4 -2.89843 11.0474 15.8413
76 1 -3.45019 7.71335 13.2462
77 1 -5.63051 12.8989 12.1691
385 2 -9.59744 13.212 11.017
90 1 -4.32246 12.3455 16.3065
110 2 -5.85492 10.1209 9.88405
146 2 -5.08618 7.71284 11.6187
184 2 -0.15679 7.82983 11.3047
149 2 -3.30649 8.01998 12.1823
89 1 -1.95696 10.0848 17.2638
151 2 -2.53595 7.78704 13.8642
47 4 0.224297 10.4554 11.0266
153 2 -5.14745 12.7427 13.2194
154 2 -6.40886 11.9547 10.6739
264 3 -1.47819 7.07162 16.126
183 2 -1.5509 7.42186 10.1608
370 2 -4.94634 6.94335 16.7843
189 2 -2.3244 8.99802 16.9937
190 2 -5.26849 11.8349 16.0598
106 2 -6.87864 12.5072 12.1929
242 3 -5.87228 8.30893 14.6985
243 3 -5.13362 9.89369 12.5922
263 3 1.37016 7.2156 16.3589
74 1 -4.87338 7.25487 10.577
269 3 -3.46151 9.38581 9.17675
271 3 -3.60666 11.4326 10.7773
273 3 0.261296 8.16941 14.149
274 3 -3.74311 10.01 14.9222
275 3 -1.87705 12.1174 15.0876
276 3 -1.35444 9.929 10.7782
87 1 -0.711795 7.03627 10.7344
371 2 -8.67417 12.5834 14.0313
141 2 -5.47554 9.32327 16.9628
181 2 0.321646 8.41888 8.92151
191 2 -4.15123 13.2717 15.7485
144 2 -3.66943 6.9538 10.5877
270 3 -1.88701 11.6551 8.6825
197 2 8.1349 6.41417 4.55211
56 4 5.9096 6.60877 3.50838
48 4 9.73394 2.36536 3.88005
122 2 4.13337 6.28735 5.67833
51 4 12.2483 2.16802 5.29677
55 4 10.7335 4.38885 1.91043
167 2 7.24049 3.62401 8.10241
58 4 11.0248 4.4813 7.40032
91 1 7.51009 2.96339 5.83004
92 1 7.03195 5.95823 4.88189
94 1 9.33009 5.66512 7.16885
118 2 9.25421 3.49875 5.10246
368 2 8.40418 6.05752 1.41041
123 2 9.62728 5.0825 0.765308
124 2 9.18336 4.43723 7.6509
125 2 5.35519 5.02745 7.29441
353 2 8.96671 1.15441 8.39686
326 3 12.8986 1.52256 0.795809
366 1 8.00074 6.14196 0.384162
192 2 7.47392 3.25849 4.69859
193 2 8.41352 2.17913 6.02135
194 2 7.35889 3.76539 6.68865
195 2 7.1172 4.82975 5.18882
367 2 6.87355 6.30718 0.358402
201 2 9.15203 6.43845 7.93867
202 2 8.59115 5.79147 6.30896
203 2 10.8231 6.19817 6.48729
245 3 7.49483 1.67873 0.537733
253 3 6.06781 3.97667 0.360054
278 3 8.5232 1.32817 3.45331
280 3 13.5082 2.86087 4.54336
281 3 11.0557 1.64372 4.27921
282 3 12.6707 1.05108 6.32242
288 3 9.81706 3.31292 2.5611
289 3 11.9965 3.94159 1.06643
290 3 11.0622 5.59349 2.91543
291 3 5.35056 5.25384 2.73387
293 3 11.478 3.42146 6.26106
324 4 13.5472 0.533382 1.90759
325 3 14.6518 1.3223 2.85795
24 4 7.85543 0.533869 1.73052
379 2 9.41202 0.390015 0.0751642
352 2 10.091 0.243026 7.08661
196 2 6.49911 6.54973 5.71233
50 4 13.1568 0.227307 7.6756
351 1 9.49222 0.197289 8.14041
49 4 12.3251 2.77581 0.0165353
9 4 13.6803 2.00033 10.2378
26 4 5.92879 2.79347 16.8465
32 4 6.83087 3.00544 10.8411
39 4 5.02942 4.58297 12.6929
126 2 6.12731 4.97816 8.88957
52 4 13.3768 0.578272 14.373
53 4 8.63686 2.88742 15.4894
54 4 11.7518 2.43706 12.6252
60 4 10.1252 4.7527 13.5641
168 2 8.5756 3.04593 9.28577
81 1 8.34817 1.95363 11.6349
82 1 7.69095 3.75141 9.20356
95 1 11.6373 4.36893 9.27543
96 1 4.41187 6.19561 15.7146
119 2 12.5623 3.43848 16.4641
120 2 14.5431 1.34821 15.3575
121 2 10.194 1.71918 12.2689
127 2 5.39515 5.53979 14.0764
59 4 6.12042 6.6146 9.37903
145 2 11.0737 6.33316 10.3351
164 2 9.1109 2.16141 10.818
165 2 7.98785 0.826948 11.678
166 2 8.59248 2.49418 12.6485
169 2 7.99391 4.80586 9.44705
204 2 10.7912 4.97383 9.9531
369 2 13.4778 3.60504 9.60821
206 2 11.5857 3.25704 9.32081
207 2 3.80651 6.23936 16.731
208 2 5.40137 5.56591 15.8358
209 2 3.69709 5.8019 14.8352
261 3 6.40183 4.2811 11.8897
279 3 13.3767 1.10306 9.03106
283 3 8.13079 1.32266 15.1692
284 3 9.99842 2.8032 16.3767
285 3 7.42463 3.67595 16.2656
286 3 12.6007 1.93306 11.3022
287 3 12.3684 1.72786 13.9042
41 4 3.52138 6.52007 10.9526
295 3 9.0012 3.51802 14.1117
296 3 11.4281 4.00134 12.918
297 3 10.5764 5.76305 14.7836
383 2 7.11857 5.12771 17.1777
301 3 9.19837 5.66112 12.328
266 3 4.00132 5.24882 11.7939
365 2 10.4468 0.0594785 13.8598
105 2 15.0445 0.33288 16.9233
363 2 9.59074 0.0475293 12.3054
20 4 8.10256 11.3204 4.67287
42 4 1.92815 9.35885 2.20912
44 4 -0.0548765 11.8273 4.72175
63 4 7.44856 9.21478 2.25513
64 4 3.11996 11.5561 3.79658
65 4 6.60026 9.01923 7.45995
308 3 6.43787 7.56047 7.96273
67 4 5.35549 11.6483 6.13609
69 1 9.81276 7.58394 4.38813
93 1 4.44111 7.64247 4.31546
99 1 6.12127 10.1475 1.32869
358 1 3.99765 7.08908 1.09899
101 1 1.83618 9.87056 6.86413
129 2 7.9335 8.92742 6.34471
13 4 11.489 6.74484 3.82332
198 2 4.45293 8.24435 5.26647
199 2 3.48403 7.03019 4.23159
200 2 4.48165 8.39436 3.40796
216 2 5.18487 9.49868 1.44795
131 2 9.54726 7.60614 5.52734
218 2 6.05162 11.1762 1.83322
228 2 3.75779 8.91386 8.6041
377 2 9.51571 9.29897 5.42465
223 2 1.84246 10.5626 6.02498
268 3 2.32065 9.34181 0.644257
302 3 6.65036 7.67175 2.62377
303 3 8.66101 8.86639 0.85688
304 3 7.90694 10.185 3.34342
305 3 3.1902 10.0549 3.02542
306 3 3.42239 12.8645 2.72457
307 3 1.50399 11.7736 4.43041
309 3 2.7991 12.2676 8.0803
311 3 6.73093 11.759 5.46425
312 3 4.23095 11.5999 5.03281
313 3 5.41376 9.96033 6.92232
314 3 5.15445 12.9222 7.24448
348 1 -0.0862875 13.0165 0.933198
217 2 6.70204 10.1298 0.255502
350 2 0.722554 13.0477 1.74526
66 4 2.29452 10.8423 8.53861
384 2 2.32691 11.5902 0.372943
373 2 5.24074 13.1595 0.913848
360 2 3.73597 7.44367 2.16365
361 2 5.15249 7.35887 0.856966
375 2 8.98139 7.10587 3.71605
343 2 8.80002 10.3633 6.96816
222 2 2.62294 9.01089 6.79091
376 2 10.2715 8.67331 3.9748
221 2 7.25535 11.2011 8.31834
372 2 -0.447919 13.3827 4.03846
18 4 10.4337 7.06278 15.5985
35 4 2.18723 8.28934 17.187
317 3 5.02655 13.3466 13.2115
380 2 0.779394 13.2358 8.96515
57 4 7.66013 7.80137 17.0312
62 4 8.54447 6.93244 11.4004
61 4 4.96702 8.03622 15.4217
68 4 2.35628 11.4386 15.7555
97 1 4.70661 8.07423 13.4813
98 1 8.14451 8.35894 12.4883
102 1 1.00075 12.1335 16.737
103 1 3.77821 9.88727 9.22224
115 2 3.4243 7.83257 11.9867
116 2 2.74951 8.42293 13.6097
117 2 0.222154 12.0929 11.6566
130 2 3.49259 10.3839 16.6504
210 2 3.88635 7.22426 13.5202
211 2 5.75838 7.79125 13.1161
212 2 4.39034 9.15986 12.9959
213 2 9.16262 8.96857 12.272
214 2 8.12412 7.76443 13.514
215 2 7.19139 8.91318 12.2762
128 2 9.85785 7.62533 10.3389
220 2 6.96833 9.82146 9.57832
225 2 -0.0472752 11.9394 16.2494
336 2 7.87033 10.9783 12.9665
294 3 4.64648 6.84205 9.91067
332 2 6.80156 11.5146 9.99364
229 2 3.68723 9.69752 10.3492
292 3 9.04358 7.40469 16.4479
298 3 6.51518 8.0855 15.7993
299 3 3.87394 8.91081 16.2679
300 3 7.26539 6.77457 10.4215
310 3 1.00833 10.6032 9.67058
315 3 1.62451 10.4603 14.6334
316 3 3.32007 12.7167 15.1571
327 4 5.48829 12.0819 12.3272
328 1 6.34451 12.3697 10.6405
329 1 3.76176 11.0105 12.3224
330 1 6.8746 11.0442 13.4979
331 2 5.39865 12.8097 10.1383
386 2 6.90087 11.495 14.5352
333 2 3.80403 10.0516 11.7096
334 2 2.9454 11.7497 12.0113
335 2 3.73544 10.7971 13.428
45 4 1.29817 9.19117 13.6113
337 2 6.47675 10.003 13.608
362 1 0.268193 13.1129 13.344
227 2 4.70457 10.5247 9.00142
364 2 0.323135 11.983 13.4291
100 1 7.57158 10.1664 8.68068
219 2 8.64136 10.0689 8.85174
277 3 1.0352 9.66486 12.1014
378 2 9.52689 8.97357 8.86779
226 2 1.1429 13.2673 16.9079
30 4 -1.43237 13.4513 14.2871
ITEM: TIMESTEP
200
ITEM: NUMBER OF ATOMS
386
ITEM: BOX BOUNDS xy xz yz pp pp pp
-1.0387698000000000e+01 1.6607800000000001e+01 -9.3159980000000004e+00
0.0000000000000000e+00 1.3453600000000000e+01 -1.0717000000000001e+00
0.0000000000000000e+00 1.7350200000000001e+01 3.3999999999999998e-03
ITEM: ATOMS id type x y z
8 4 0.740288 1.11878 0.53729
12 4 -0.286908 4.17037 1.42547
170 2 -0.75867 6.21441 4.79587
15 4 -0.842334 4.34168 7.336
25 4 4.53971 1.91984 3.84927
29 4 6.22588 1.51732 6.28788
33 4 5.03695 3.98636 1.66383
34 4 1.08383 6.3241 3.15501
36 4 4.32347 3.73317 7.33982
38 4 2.52584 5.39784 5.82337
70 1 -0.77857 2.47669 6.84159
85 1 3.25041 3.85885 1.09523
104 2 -0.585438 2.39622 4.90216
340 2 2.43396 1.88986 6.23925
257 3 -0.06445 4.9128 8.64696
111 2 3.58226 2.93847 4.9329
113 2 1.68129 6.10407 7.08279
132 2 0.296247 3.67362 5.97771
7 4 -1.84176 2.76954 3.68748
134 2 -0.0598256 2.06368 7.59577
133 2 -1.2204 1.63244 6.18312
176 2 2.95794 2.85064 0.432698
177 2 2.93698 4.80807 0.524676
178 2 2.68954 3.75378 2.11202
359 2 3.55145 5.97821 1.02309
233 3 -1.29214 3.85856 2.73907
234 3 0.464953 2.61341 0.940484
235 3 -0.99255 4.89471 0.252412
248 3 6.96971 0.334114 7.10103
237 3 -1.97261 5.43593 6.76789
339 2 1.31451 0.340772 6.49676
244 3 3.44596 0.897043 3.22971
247 3 5.52775 1.08626 4.74511
252 3 5.31805 2.82608 2.85044
254 3 0.906044 5.24084 1.94496
256 3 5.22342 2.57074 6.83844
258 3 1.88428 5.82894 4.51746
259 3 2.8423 3.84116 5.95695
338 1 2.42019 0.828735 6.39439
230 3 1.0617 0.0561466 1.69045
107 2 -2.15096 2.88438 7.63342
16 4 -2.9404 6.66177 6.49321
374 2 3.11482 0.270336 5.5946
236 3 -4.02538 6.53567 5.15592
171 2 -1.32994 6.08244 2.95942
356 2 3.13193 0.891625 0.0469236
83 1 -0.692178 6.63852 3.70223
10 4 1.72802 0.296092 13.2423
11 4 -0.0128315 2.53075 11.6854
14 4 -2.6247 6.11558 16.791
17 4 -0.921961 4.38604 13.9472
28 4 4.18492 2.12221 9.80842
357 2 1.55413 2.1508 16.1711
31 4 3.79793 2.46198 14.6231
37 4 0.620157 6.38012 9.6074
163 2 6.09901 1.33673 13.2314
71 1 -1.23015 2.99165 15.2724
72 1 -3.71454 5.08028 15.4335
355 2 0.754749 0.44039 16.0191
78 1 1.27521 3.01756 10.3541
79 1 2.53652 3.76301 15.201
80 1 6.31308 0.243709 13.2515
260 3 4.47992 2.97509 13.3012
265 3 2.11699 6.38997 10.3889
108 2 -2.46942 5.08848 13.8188
112 2 3.0545 2.28731 11.0696
135 2 -0.849049 1.96139 14.909
136 2 -2.3163 2.99 15.6507
137 2 -0.60771 3.38767 16.0912
255 3 4.02247 3.40551 8.84282
139 2 -3.9238 5.86056 14.5322
251 3 5.80516 1.96172 10.3187
152 2 3.14188 0.180037 10.9691
155 2 0.663456 3.70954 9.63791
156 2 1.67685 2.08323 9.84048
157 2 2.03385 3.68069 10.8761
158 2 2.88989 4.82016 14.7522
159 2 2.40492 3.82875 16.4072
160 2 1.62006 3.32115 14.6607
262 3 0.119426 5.4169 14.4885
354 1 1.22797 1.25045 16.7598
250 3 4.89587 2.25957 15.7431
182 2 -1.334 6.15751 11.1479
205 2 -3.89764 4.94938 8.83421
231 3 -1.38547 2.11978 10.6931
232 3 0.83741 1.37537 12.3698
238 3 -0.44515 3.7323 12.614
246 3 3.63182 0.948432 8.8861
249 3 2.69541 0.932862 14.2641
138 2 -3.341 4.04775 15.0172
150 2 -4.12705 6.71485 12.8462
144 2 -3.50849 6.67673 10.575
1 4 -7.03696 13.0949 2.71043
2 1 -5.9145 11.8401 1.82776
3 2 -6.17538 11.6953 0.708272
4 2 -6.1471 10.9747 2.44913
5 2 -4.84749 12.1609 2.02089
6 3 -7.64227 12.4546 4.17553
347 2 -3.05721 13.2719 3.20988
19 4 -3.27093 8.43584 1.50011
27 4 -1.33125 12.5552 7.54393
73 1 -4.34205 9.561 0.556843
75 1 -5.93851 8.85779 8.24927
323 2 -4.05159 12.3882 8.37339
84 1 -1.9126 8.18393 6.13658
86 1 0.886405 7.59945 8.17437
88 1 -0.89411 10.2127 3.7035
109 2 -2.04432 9.35123 2.3622
89 1 -1.17186 10.2644 0.00480799
224 2 0.565396 9.63503 7.26067
318 4 -6.23127 13.3189 7.86467
142 2 -3.90861 10.5443 0.929983
143 2 -5.38547 9.3033 0.901661
320 2 -6.29646 11.5328 8.33631
241 3 -3.70438 6.96244 7.92337
172 2 -0.847875 7.81105 3.68451
173 2 -2.6091 8.52377 5.18299
174 2 -0.845517 8.09104 5.87315
175 2 -2.06207 8.84148 7.0553
179 2 0.411552 7.39393 7.19041
148 2 -5.47745 10.0135 7.96811
185 2 -1.18888 10.8965 2.78408
186 2 -1.7843 10.0683 4.45585
187 2 -0.476651 9.13822 3.42925
180 2 2.0461 7.69045 8.11478
239 3 -4.1618 7.79155 2.76667
240 3 -2.60507 7.21495 0.277808
272 3 -0.642203 11.7486 6.03005
267 3 1.59106 7.98579 2.80201
345 2 -2.69169 12.0053 1.86137
114 2 0.44322 10.2415 2.2324
349 2 -0.503469 12.0715 0.653311
319 1 -4.70365 11.8217 7.64532
321 2 -4.67019 12.3562 6.52045
322 2 -4.26529 10.7611 7.44782
341 1 -7.39569 10.3668 5.98828
382 2 -3.20937 12.4249 0.132857
342 2 -6.4885 11.0681 6.08268
381 2 -1.85732 10.5847 0.885998
344 1 -2.95336 13.0301 2.07456
147 2 -5.81992 8.15203 7.30282
346 2 -3.79665 13.4406 1.44132
188 2 -0.065829 10.4128 0.0688792
21 4 -4.29812 8.09116 8.97918
22 4 -4.73931 8.90789 13.831
23 4 -5.14799 10.8866 11.1877
40 4 -0.0386642 6.97331 15.2281
43 4 -2.41343 10.6621 9.88726
46 4 -3.13037 10.9742 15.7759
76 1 -3.50509 7.54068 13.3446
77 1 -5.9362 12.9162 11.8416
385 2 -9.60629 13.0985 10.9761
90 1 -4.5117 12.1719 16.3959
110 2 -5.77556 10.0613 9.75919
146 2 -4.91203 7.68575 11.5671
184 2 -0.235214 7.60396 11.5848
149 2 -2.88562 8.0876 12.6093
189 2 -2.47423 9.09907 16.9746
151 2 -2.86846 7.22123 14.2054
47 4 0.285411 10.5494 11.1121
153 2 -5.08018 13.2209 12.5405
154 2 -6.67712 11.6624 10.6392
264 3 -1.59721 7.01679 15.994
183 2 -1.31758 7.7038 10.086
370 2 -5.11321 7.07851 16.6966
162 2 -2.63896 13.1767 12.3199
190 2 -5.47568 11.5669 16.3001
106 2 -7.066 12.1851 12.3837
242 3 -5.94668 8.15462 14.4876
243 3 -5.33358 9.81034 12.3242
263 3 1.32937 7.05915 16.2699
74 1 -4.68549 7.13228 10.6443
269 3 -3.31459 9.38089 9.25582
271 3 -3.62706 11.4181 10.7598
273 3 0.0114626 8.23041 14.0815
274 3 -3.88444 9.80678 14.8448
275 3 -1.90556 11.8999 15.0678
276 3 -1.22875 9.97866 10.7031
87 1 -0.773884 7.0533 10.7815
371 2 -8.70408 12.7842 14.0783
141 2 -5.3526 9.4331 16.7932
181 2 0.288377 8.48893 8.82864
191 2 -4.57729 13.0873 15.7846
161 2 -3.90009 13.1324 13.7829
270 3 -1.81779 11.6468 8.67927
197 2 7.91905 6.55952 5.03671
56 4 5.95647 6.69179 3.5851
48 4 9.77384 2.38975 3.62124
122 2 4.0021 6.31782 5.94746
51 4 12.2913 2.43054 5.32435
55 4 10.6931 4.58496 1.76761
167 2 7.029 3.6361 8.27055
58 4 11.0228 4.56575 7.40665
91 1 7.60249 2.88761 6.03519
92 1 6.94431 5.99464 5.05193