ITEM: TIMESTEP
0
ITEM: NUMBER OF ATOMS
386
ITEM: BOX BOUNDS xy xz yz pp pp pp
-1.0522200000000000e+01 1.6607800000000001e+01 -9.4504999999999999e+00
0.0000000000000000e+00 1.3453600000000000e+01 -1.0717000000000001e+00
0.0000000000000000e+00 1.7523702000000000e+01 3.3999999999999998e-03
ITEM: ATOMS id type x y z
8 4 0.754202 1.14229 0.772312
12 4 -0.0818407 4.18137 1.65024
107 2 -2.36935 3.09487 7.83984
15 4 -1.16741 4.15984 7.30237
25 4 5.03783 1.45635 3.74983
29 4 6.20214 1.07248 6.35831
34 4 1.07068 6.44611 3.66135
171 2 -1.28514 6.52521 3.05658
36 4 4.66432 3.68874 7.19193
38 4 2.45237 5.40257 6.30312
70 1 0.060484 3.02138 6.23329
85 1 3.31042 3.67651 1.93851
104 2 -0.83384 2.2713 4.59324
340 2 3.4433 0.344011 5.77473
33 4 5.23541 3.90641 1.99742
111 2 3.53936 1.88615 4.70494
113 2 1.46733 4.22673 6.95864
132 2 -0.0847567 3.72967 5.31476
133 2 -0.871991 2.14843 6.31983
134 2 0.978815 2.29158 6.10933
339 2 2.62726 1.99449 6.21042
176 2 3.2324 2.57135 1.47559
177 2 2.66121 4.3876 1.31722
178 2 3.0166 3.72318 2.96879
230 3 1.9274 0.531582 1.57568
233 3 -1.40644 3.84914 2.54017
234 3 0.371042 2.64014 1.20521
235 3 -0.426935 5.13985 0.390281
374 2 1.50837 0.611964 5.50293
237 3 -1.76465 5.3628 6.43891
170 2 -1.06623 6.32376 5.04104
244 3 4.50543 0.475984 2.67849
247 3 6.12703 0.808563 4.78341
252 3 5.6266 2.84581 3.17792
254 3 0.949858 5.07609 2.45689
256 3 5.05779 2.24766 6.68157
258 3 1.67938 5.89417 5.00887
259 3 3.86135 4.82658 6.15318
338 1 2.4784 0.926581 6.07659
122 2 2.29124 6.6501 7.46591
24 4 7.94855 0.288003 1.61382
257 3 -0.248927 4.8181 8.43586
360 2 3.12122 6.28547 1.57209
7 4 -2.06633 2.69815 3.46865
245 3 7.23246 1.31356 0.662597
255 3 3.85338 3.45266 8.60123
358 1 3.75124 6.2891 0.610336
10 4 1.49947 0.82805 13.4913
11 4 -0.511523 2.56543 11.9657
150 2 -3.95656 6.63566 13.1107
17 4 -1.23168 4.54931 14.2141
28 4 3.65448 2.23122 9.67382
354 1 0.526604 0.884235 16.6266
31 4 3.3746 2.6638 15.1673
37 4 0.438666 6.32755 9.52432
356 2 -0.455093 0.936082 15.9651
71 1 -0.981836 3.24607 15.594
72 1 -3.85936 5.05531 16.1704
144 2 -4.37016 5.82995 10.8764
78 1 0.766526 3.1968 10.5895
79 1 2.09802 3.70637 16.2308
80 1 5.94993 0.661602 13.5375
162 2 6.32774 0.53123 12.3948
106 2 2.49681 0.46097 12.1694
108 2 -2.86525 5.01836 14.397
112 2 2.67126 2.73658 10.9632
135 2 -0.190277 2.62824 14.9528
136 2 -2.00093 2.78773 15.7951
137 2 -0.461826 3.64445 16.5238
138 2 -3.09228 4.20035 16.1501
231 3 -1.78775 1.71848 10.9099
369 2 -2.37009 4.11421 9.83307
163 2 5.98814 1.75335 13.9313
155 2 0.282541 3.80305 9.64081
156 2 1.19054 2.14908 10.3087
157 2 1.45673 3.93657 11.0277
158 2 2.21034 3.71192 17.4401
159 2 0.986228 3.55322 15.9339
160 2 2.45303 4.70725 15.719
14 4 -2.42658 6.19475 17.204
359 2 2.524 5.34714 17.3363
260 3 4.03232 3.53471 13.9357
182 2 -1.33684 5.65123 10.8889
262 3 -0.0169857 5.66307 14.5442
161 2 5.08008 0.109453 13.834
232 3 0.347897 1.6055 12.8423
238 3 -1.17725 3.75221 12.7727
246 3 2.86581 1.01455 9.03905
249 3 2.49831 1.46913 14.5062
250 3 4.59053 2.09716 16.0693
251 3 5.14867 1.91757 10.3136
265 3 1.83772 6.29197 10.3409
355 2 1.15375 1.9158 16.4504
266 3 3.77728 5.17899 11.9902
74 1 -5.24872 6.57327 10.6884
370 2 -5.02389 6.58979 16.6288
140 2 -4.47859 5.03176 17.152
139 2 -4.43959 5.16317 15.145
1 4 -6.36571 13.0289 2.28413
2 1 -5.78349 11.6851 0.99549
381 2 -1.88601 10.2077 0.176122
4 2 -5.63491 10.6923 1.5477
5 2 -4.97088 11.8821 0.190731
6 3 -7.04029 12.3586 3.59127
345 2 -2.07238 11.5201 1.72884
19 4 -2.84804 8.24226 1.75471
27 4 -1.65813 12.1867 7.68358
73 1 -3.94907 8.9772 0.479397
75 1 -5.35771 8.76619 8.48077
16 4 -3.03307 6.73652 6.62199
84 1 -2.05545 8.28909 6.3653
86 1 0.679289 7.62658 8.15642
88 1 -0.652493 10.3034 3.92252
109 2 -1.57644 9.24895 2.64551
347 2 -2.75341 12.5041 3.25005
221 2 -7.52924 10.5675 7.36663
346 2 -3.96962 12.0782 1.76042
142 2 -3.7864 10.1155 0.810584
143 2 -4.96837 8.53489 0.746587
147 2 -5.50799 8.35998 7.42691
343 2 -6.31906 11.0692 6.39892
172 2 -0.780904 8.04424 4.16763
173 2 -2.49855 8.58058 5.32736
174 2 -0.892001 7.99275 6.283
175 2 -2.29011 9.04501 7.1871
179 2 0.184888 7.15963 7.15978
114 2 0.862414 10.0903 2.66009
185 2 -0.53611 11.229 2.9424
186 2 -1.49248 10.4511 4.65545
187 2 0.358207 9.68321 4.35463
382 2 -3.2137 12.3675 0.115774
239 3 -3.81533 7.74341 2.93965
240 3 -2.2415 7.06383 0.829201
3 2 -6.84933 11.6265 0.465023
267 3 1.84722 7.72404 3.05321
270 3 -2.15732 10.6824 8.39
148 2 -5.0413 9.86621 8.52103
320 2 -8.05557 12.2421 8.33523
319 1 -5.49148 12.1371 7.92563
321 2 -5.16712 12.3224 6.79495
322 2 -5.68745 11.0099 8.08529
13 4 -4.79688 6.84525 3.92356
180 2 1.6199 8.45188 7.75239
342 2 -5.91224 10.3042 4.69167
318 4 -6.88861 13.4211 7.90477
344 1 -2.8629 12.4201 2.10455
20 4 -8.09873 11.4097 4.34416
341 1 -6.7542 10.5191 5.46389
236 3 -4.27072 6.80752 5.53304
349 2 -0.478105 11.8141 0.0816964
272 3 -0.605446 12.0141 6.18602
241 3 -3.54089 6.78091 8.22891
248 3 -3.05598 13.1911 7.19383
83 1 -0.722833 6.92468 4.08248
323 2 -4.70656 12.4966 8.67747
181 2 -0.103354 8.38288 8.66869
21 4 -4.13312 7.60648 9.4224
22 4 -4.84773 8.88184 13.7801
23 4 -5.29774 10.7701 11.1711
40 4 -0.192324 7.15865 15.1522
43 4 -2.41474 10.3585 10.0865
46 4 -3.27508 10.9935 15.576
76 1 -3.52199 7.5495 13.522
77 1 -5.84135 12.2157 12.2789
89 1 -2.21593 10.0017 16.8008
90 1 -4.48962 12.3296 16.4214
110 2 -6.52968 10.6377 9.89612
184 2 -0.367481 7.07314 11.8527
141 2 -4.59587 8.73672 16.9745
149 2 -2.90862 8.08466 12.6859
332 2 -9.2916 12.4442 12.168
151 2 -2.88993 7.37299 14.4668
264 3 -1.9339 7.12408 16.0487
153 2 -5.97131 11.9649 13.3869
154 2 -6.85088 12.3713 11.6798
152 2 -5.0493 13.0207 12.1311
183 2 -1.69725 7.48018 10.5671
188 2 -1.06604 10.4564 16.8883
189 2 -2.19735 8.8718 16.4099
190 2 -5.39413 11.5853 16.1332
191 2 -4.48431 13.3413 15.8968
242 3 -5.95232 7.98776 14.4992
243 3 -5.33638 9.48057 12.2354
263 3 0.96572 7.36034 16.2326
371 2 -8.51172 12.7483 14.0378
269 3 -2.94962 8.72654 10.2081
271 3 -3.88776 11.0468 10.4629
273 3 -0.0807563 8.27092 13.8739
274 3 -4.21487 10.0245 14.6806
275 3 -2.262 12.0016 14.9253
276 3 -1.09538 10.757 10.8648
146 2 -5.49136 7.16836 11.5866
386 2 -9.53233 12.6642 15.6601
378 2 -6.20734 8.53802 9.21883
87 1 -0.89721 6.74038 10.8559
357 2 -8.31398 13.3791 16.4417
168 2 7.21965 3.39179 8.37794
105 2 16.0015 0.219333 1.1396
48 4 9.59131 2.38287 3.71982
50 4 13.4759 0.45071 7.28468
51 4 12.1563 2.48426 5.35894
55 4 10.7632 4.56785 2.11083
196 2 8.48498 5.84556 5.36046
58 4 10.6357 4.54973 7.52214
91 1 7.84424 2.24904 6.81288
92 1 7.82217 5.50922 4.41701
94 1 9.79339 6.35735 6.84198
118 2 8.53659 2.92069 5.06434
325 3 14.1662 1.27579 2.78819
123 2 10.02 5.61819 0.935513
124 2 8.8735 4.73899 6.87014
125 2 6.08446 4.61777 7.55765
279 3 13.476 1.77847 8.63626
368 2 8.50958 6.29118 1.69269
366 1 8.12795 6.14789 0.641885
192 2 7.49626 3.16722 6.19402
193 2 8.43599 1.44814 6.18851
194 2 8.66488 2.67318 7.6507
195 2 7.42752 4.49358 4.61673
361 2 4.82567 6.55318 0.841002
326 3 12.3326 1.15886 0.765485
126 2 6.54241 6.00452 8.58699
203 2 10.8736 6.45335 7.36417
49 4 11.992 2.54809 0.134724
253 3 5.90195 3.74624 0.529444
278 3 8.87155 1.02509 3.06643
280 3 13.5106 3.14325 4.50806
281 3 10.9172 2.07187 4.4534
282 3 12.632 1.19207 6.19533
288 3 9.68147 3.72558 2.82574
289 3 11.7085 3.64338 1.25139
290 3 11.5799 5.49143 3.19845
291 3 5.64481 5.36439 2.70564
293 3 11.4515 3.72735 6.46799
324 4 13.275 0.37271 1.85357
197 2 8.41711 5.38831 3.44249
56 4 6.26477 6.55433 3.68411
199 2 3.90439 6.66773 4.54874
383 2 8.50472 5.25604 0.0433352
352 2 8.66743 0.869598 8.70227
367 2 6.99248 6.30068 0.531417
198 2 5.41955 6.68161 5.88417
9 4 13.7105 2.5802 10.2314
26 4 5.6589 2.66391 17.1598
32 4 6.33707 2.86977 10.8208
39 4 4.78035 4.49523 12.9199
206 2 10.2209 2.30394 8.90669
52 4 12.6359 0.78871 14.4115
53 4 8.37281 2.647 15.6583
54 4 11.3662 2.82365 12.3164
60 4 9.43672 4.65887 13.7235
317 3 14.1062 0.0815857 14.0345
81 1 8.0107 1.87964 11.0944
82 1 6.89811 4.18736 9.28075
301 3 8.54295 5.79398 12.6338
96 1 4.80258 5.76537 15.9025
119 2 12.2083 3.21099 16.7012
120 2 12.9708 1.77518 15.7069
121 2 9.82602 2.24008 11.7177
127 2 5.48748 5.59177 14.0073
385 2 15.1771 0.0828172 11.4176
145 2 10.4477 6.01295 10.2614
164 2 8.84551 2.3869 10.3393
165 2 8.01031 0.685454 11.0578
166 2 8.10494 2.25328 12.209
169 2 7.69446 4.83736 9.66934
95 1 9.9992 3.41478 8.98449
205 2 10.6933 4.00185 9.74531
204 2 8.81314 3.63316 9.13104
207 2 4.49516 5.46734 16.9376
208 2 5.8277 5.31403 15.6438
209 2 4.02445 5.56385 15.0394
261 3 5.96049 3.68729 12.2037
365 2 9.8712 0.515728 12.8235
283 3 8.11092 1.1133 15.2144
284 3 9.69087 2.56936 16.6216
285 3 7.06585 3.24228 16.5175
286 3 12.2952 2.86174 11.004
287 3 11.9482 1.72254 13.3763
379 2 8.22975 0.183486 17.1234
295 3 8.53269 3.46069 14.1115
296 3 10.9898 4.24232 13.0301
297 3 9.78332 5.57672 15.1021
41 4 3.34251 6.46096 10.9962
167 2 5.81947 4.61935 9.30692
377 2 9.20796 9.64596 5.70018
42 4 2.26332 9.10636 2.38487
44 4 0.305744 11.8701 4.93696
63 4 7.41124 9.25538 2.14492
64 4 3.29973 11.4801 3.82264
65 4 6.66732 9.73833 8.08199
350 2 0.81326 12.878 1.05974
67 4 5.68682 11.9781 5.97152
69 1 10.1174 7.72919 3.84473
93 1 4.92027 7.10253 4.83324
99 1 5.81924 9.78835 1.30302
384 2 2.09511 12.4061 0.438894
101 1 2.84506 9.87815 7.02788
129 2 8.03323 9.0511 7.22751
202 2 9.91673 6.9179 5.66911
66 4 2.79403 11.1947 8.55981
201 2 8.98971 6.89765 7.44185
200 2 4.90736 8.24764 4.83674
216 2 5.01719 9.81605 2.11474
131 2 10.0094 8.67219 4.53225
218 2 6.18262 10.8693 0.991743
376 2 10.075 8.01934 2.71424
222 2 1.77882 9.68854 6.62734
223 2 3.33015 8.9882 7.47748
268 3 2.57846 9.04506 0.845396
302 3 6.92013 7.91441 2.88033
303 3 8.41927 8.8552 0.843375
304 3 7.96453 10.4193 3.26624
305 3 3.42963 9.84444 3.18535
306 3 3.14585 12.5531 2.58158
307 3 1.86213 11.5145 4.87345
309 3 3.11712 12.5742 7.76292
311 3 7.26509 12.1555 5.24361
312 3 4.6185 11.6592 4.79716
313 3 5.88624 10.6468 6.96444
373 2 4.86878 13.0989 0.795836
348 1 -0.177825 12.884 0.500617
224 2 3.4485 10.3765 6.25168
372 2 -0.0122867 13.165 3.93879
217 2 5.45446 9.1675 0.273735
314 3 5.48463 13.4194 6.89487
380 2 0.505717 12.9525 8.29866
100 1 8.69418 10.3234 8.5525
375 2 9.24401 6.90531 4.06201
18 4 10.1875 7.00845 15.7244
35 4 2.06334 7.84846 17.2792
353 2 -0.69558 12.9214 9.88966
45 4 1.11569 9.20093 13.3859
57 4 7.62784 7.74363 17.1479
130 2 2.26212 10.9166 17.2129
61 4 4.82 7.64048 15.593
68 4 1.4213 11.7536 15.3097
97 1 4.53535 7.77632 13.5932
98 1 8.0496 8.67569 12.9076
102 1 1.04883 11.5017 17.2069
103 1 4.17819 10.957 9.77898
115 2 3.22764 7.7606 12.1154
116 2 2.60149 8.33122 13.6715
117 2 0.929839 12.1364 11.7083
30 4 -1.84175 13.3902 14.1742
210 2 3.66091 7.01115 13.5861
211 2 5.40925 7.38722 13.0121
212 2 4.28767 8.88914 13.2958
59 4 5.98117 7.18233 9.67087
214 2 7.87639 8.09904 13.894
215 2 7.15176 9.32251 12.6684
128 2 9.55557 7.40556 10.7118
220 2 7.58865 10.9829 9.31812
47 4 0.497213 10.6899 10.893
226 2 -0.149965 12.2842 15.9048
227 2 4.90167 11.753 9.32563
62 4 8.20531 7.13105 11.7874
229 2 4.02666 11.0584 10.9778
292 3 9.18725 7.59091 16.8315
298 3 6.47645 8.04609 15.8285
299 3 3.71444 8.3786 16.3889
228 2 4.41959 9.8744 9.46443
310 3 1.32038 10.9151 9.46233
315 3 1.30457 10.4606 14.3441
316 3 2.29745 13.0013 14.9175
327 4 5.3693 12.1414 13.5229
328 1 6.20068 12.4206 11.8063
329 1 3.81517 10.8273 12.9674
330 1 6.67135 11.7416 15.0149
331 2 5.99347 11.582 11.0532
219 2 8.92393 9.2675 8.93131
333 2 4.12982 10.1039 12.1544
334 2 2.81386 11.3018 12.7307
335 2 3.99318 10.3965 14.0459
308 3 6.14503 8.47725 8.83513
337 2 5.99386 11.018 15.5789
362 1 -0.347603 13.1283 12.8597
300 3 6.94053 7.08507 10.9005
213 2 9.15237 9.13199 12.8424
363 2 -0.921559 13.0551 11.7772
277 3 1.09449 9.52037 11.7231
364 2 0.0781193 12.1209 13.1594
336 2 7.51458 11.0808 14.4473
294 3 4.47815 6.74917 10.0127
225 2 0.184198 10.7686 17.379
351 1 -0.591782 13.2345 8.77805
ITEM: TIMESTEP
100
ITEM: NUMBER OF ATOMS
386
ITEM: BOX BOUNDS xy xz yz pp pp pp
-1.0522200000000000e+01 1.6607800000000001e+01 -9.4504999999999999e+00
0.0000000000000000e+00 1.3453600000000000e+01 -1.0717000000000001e+00
0.0000000000000000e+00 1.7523702000000000e+01 3.3999999999999998e-03
ITEM: ATOMS id type x y z
8 4 0.749478 1.0257 0.666263
12 4 -0.149275 4.11232 1.60752
107 2 -2.14113 2.95616 7.73093
15 4 -1.05413 4.30576 7.27845
25 4 5.19207 1.48772 3.82104
29 4 6.42834 1.16631 6.43825
34 4 1.12068 6.09611 3.53857
171 2 -1.37959 6.2274 2.97413
36 4 4.67178 3.65455 7.19108
38 4 2.39023 5.19238 6.26925
70 1 -0.11685 2.91605 6.30241
85 1 3.3404 3.65069 1.88062
104 2 -0.662482 2.33856 4.48255
340 2 3.50961 0.283064 5.76825
33 4 5.255 3.93901 2.00233
111 2 3.73647 1.85536 4.70216
113 2 1.38931 3.95428 6.99211
132 2 -0.119726 3.76169 5.31072
133 2 -1.10234 2.21703 6.41206
134 2 0.884657 2.21996 6.22367
339 2 2.70404 2.09216 6.17876
176 2 3.34367 2.55687 1.42846
177 2 2.82257 4.39929 1.26643
178 2 2.92513 3.60006 2.87573
230 3 1.91171 0.408303 1.52448
233 3 -1.54628 3.92299 2.41835
234 3 0.367898 2.58801 0.889313
235 3 -0.188704 5.26645 0.313331
374 2 1.58398 0.679109 5.56179
237 3 -1.72315 5.33783 6.30997
170 2 -1.08758 6.13922 4.8639
244 3 4.45354 0.591058 2.80433
247 3 6.35224 0.832138 4.83661
252 3 5.64522 2.76097 3.05918
254 3 0.941509 4.71355 2.71005
256 3 5.17595 2.14758 6.64695
258 3 1.79723 5.70181 4.99746
259 3 3.78515 4.58428 6.16023
338 1 2.50241 0.997623 6.03769
122 2 2.22594 6.43688 7.40927
140 2 -3.16899 4.83725 0.0586829
257 3 -0.19419 4.80557 8.55427
360 2 2.41925 6.33901 1.23135
7 4 -2.00708 2.68272 3.47373
83 1 -0.699473 6.61309 3.85814
255 3 3.77789 3.49106 8.57535
358 1 3.34912 6.3742 0.49779
241 3 -3.52655 6.68438 8.21561
236 3 -4.14308 6.71386 5.44406
10 4 1.55045 0.796752 13.4177
11 4 -0.598536 2.42264 11.9281
150 2 -3.94921 6.6513 13.1542
17 4 -1.1585 4.54949 14.291
28 4 3.7197 2.33669 9.68099
354 1 0.30871 1.00877 16.459
31 4 3.3353 2.65962 15.0977
37 4 0.518484 6.33961 9.46198
356 2 -0.561122 0.937234 15.7747
71 1 -1.28561 3.15683 15.6394
72 1 -3.66983 5.0036 16.5461
144 2 -4.24184 5.66994 10.6961
78 1 0.838787 3.15606 10.7949
79 1 2.04618 3.72839 16.2029
80 1 5.79216 0.657436 13.3724
162 2 6.04361 0.269495 12.3004
106 2 2.6326 0.319552 12.2173
108 2 -2.67438 5.16601 14.8128
112 2 2.81737 3.22749 10.8478
135 2 -0.851507 2.33107 14.878
136 2 -2.16838 2.75935 16.1622
137 2 -0.548247 3.61348 16.3687
138 2 -2.80494 4.14938 16.3121
231 3 -1.76037 1.75843 11.019
369 2 -2.26665 4.09165 10.0552
163 2 5.72133 1.72903 13.5311
155 2 0.429906 3.80164 9.98188
156 2 1.40507 2.17622 10.3635
157 2 1.40175 3.7118 11.564
158 2 2.21685 3.63253 17.3638
159 2 0.971639 3.87898 15.9719
160 2 2.61199 4.7029 15.8121
14 4 -2.32147 6.28092 17.2826
357 2 0.982612 0.0509949 16.5959
260 3 3.79996 3.532 13.8939
182 2 -1.0295 5.71272 11.1344
262 3 0.119323 5.60153 14.6571
139 2 -4.45252 5.21326 15.7174
232 3 0.300918 1.46067 12.7911
238 3 -1.12531 3.87262 12.8669
246 3 2.76766 1.04722 9.01964
249 3 2.26063 1.56576 14.4993
250 3 4.66245 2.00912 16.0254
251 3 5.13957 1.775 10.4482
265 3 1.90329 6.37388 10.1989
355 2 1.02303 2.03333 16.3007
266 3 3.7239 5.21932 11.8439
74 1 -5.07556 6.55269 10.6939
370 2 -5.07073 6.48936 16.7674
161 2 4.90603 0.0764519 13.8509
359 2 2.2478 5.44966 17.3582
1 4 -6.36671 13.1673 2.3698
2 1 -5.67632 11.6199 1.38349
381 2 -1.40043 10.3381 0.226005
4 2 -5.33666 10.8709 2.15603
5 2 -4.85631 11.8035 0.552674
6 3 -7.10249 12.5469 3.78095
345 2 -2.02959 11.4376 1.73672
19 4 -2.89419 8.22253 1.69823
27 4 -1.51721 12.1096 7.56675
73 1 -3.98175 9.26751 0.697625
75 1 -5.18278 8.82959 8.31667
248 3 -2.81228 13.2488 7.24041
84 1 -2.15081 8.37893 6.39915
86 1 0.750277 7.65673 8.06798
88 1 -0.646141 9.94923 3.85767
109 2 -1.54462 9.24042 2.48391
347 2 -2.49392 12.3472 3.28895
221 2 -7.61508 10.6097 7.56682
346 2 -3.81616 12.1193 1.88094
142 2 -3.45646 10.2891 1.01188
143 2 -5.05182 9.16376 0.990975
147 2 -5.20603 8.37363 7.28376
343 2 -6.48515 11.147 6.32148
172 2 -0.692626 7.80228 3.99667
173 2 -2.66112 8.70305 5.41597
174 2 -1.04224 7.94151 6.26234
175 2 -2.15357 9.23198 7.23777
179 2 0.306375 7.03907 7.20764
114 2 0.618983 9.99073 2.36722
185 2 -0.502165 11.1755 3.36247
186 2 -1.30982 9.99245 4.74209
187 2 0.388201 9.43001 4.05257
382 2 -3.12716 12.1644 0.162343
239 3 -3.8256 7.77672 2.99561
240 3 -2.06137 7.22464 0.897533
3 2 -6.69203 11.3045 0.904375
267 3 1.56391 7.62989 2.86363
270 3 -2.12846 10.6021 8.27744
148 2 -4.85643 9.9839 8.27594
320 2 -8.19937 12.3338 8.20851
319 1 -5.55794 12.1056 7.91511
321 2 -5.09728 12.397 6.85585
322 2 -5.79023 10.9619 7.99199
13 4 -4.89704 6.81721 3.90453
180 2 1.52992 8.46921 7.72003
342 2 -6.04423 10.3053 4.72339
318 4 -6.84855 13.445 7.8144
344 1 -2.6417 12.2539 2.14445
20 4 -8.13656 11.4258 4.28897
341 1 -6.91462 10.4989 5.45187
181 2 -0.0924466 8.32394 8.63608
349 2 -0.441956 11.8289 0.163535
272 3 -0.554145 11.9084 6.21859
16 4 -2.99184 6.73383 6.62443
323 2 -4.89673 12.5424 8.73846
21 4 -4.04354 7.6978 9.38603
22 4 -4.88121 8.74371 13.8413
23 4 -5.32424 10.5928 11.1309
40 4 -0.161706 7.15649 15.169
43 4 -2.44718 10.3538 9.94244
46 4 -3.29641 11.0378 15.7231
76 1 -3.41448 7.58401 13.4952
77 1 -6.16817 11.9304 12.0878
89 1 -1.99883 10.0693 16.7683
90 1 -4.56828 12.2107 16.6034
110 2 -6.58273 10.5889 9.87329
184 2 -0.03212 7.19658 11.7375
141 2 -4.84391 8.91907 17.2015
149 2 -2.75393 8.08537 12.7021
332 2 -9.09146 12.3882 12.0826
151 2 -2.83159 7.44898 14.5139
264 3 -1.92467 7.20524 16.0318
153 2 -6.12928 11.6224 13.1906
154 2 -7.21345 12.0899 11.6894
152 2 -5.42847 12.8292 11.7758
183 2 -1.51114 7.48356 10.543
188 2 -0.878523 10.3766 16.7333
189 2 -2.07237 8.92053 16.5065
190 2 -5.45095 11.4434 16.3508
191 2 -4.66261 13.2582 16.1852
242 3 -6.02252 8.02327 14.73
243 3 -5.40643 9.31562 12.2885
263 3 1.03915 7.66322 16.1354
371 2 -8.24836 12.7565 14.0628
269 3 -2.77208 8.74236 10.1012
271 3 -3.84631 11.1257 10.6197
273 3 -0.0996028 8.12869 13.8367
274 3 -4.08541 10.0235 14.7964
275 3 -2.31659 12.2006 14.8432
276 3 -1.09529 10.7606 10.6442
146 2 -5.19641 7.02353 11.7301
386 2 -9.52368 12.6604 15.5132
378 2 -6.09858 8.54123 8.99375
87 1 -0.671129 6.74794 10.8992
168 2 7.22103 3.5061 8.40445
199 2 4.25145 6.57046 4.78364
48 4 9.57437 2.40852 3.80465
50 4 13.5117 0.471194 7.31082
51 4 12.3074 2.52406 5.35822
55 4 10.6947 4.4277 2.00198
196 2 8.31914 5.81683 5.61456
58 4 10.6083 4.44472 7.58642
91 1 7.92819 2.3932 6.85135
92 1 7.70463 5.43831 4.67259
94 1 9.66278 6.37749 7.05274
118 2 8.47602 3.02433 5.06684
325 3 14.2789 1.35409 2.68995
123 2 9.67475 5.37145 0.940418
124 2 8.86292 4.78352 6.89322
125 2 6.05907 4.67015 7.57104
279 3 13.6975 1.83678 8.53764
368 2 8.3831 6.20212 1.85845
366 1 7.90372 6.23429 0.806702
192 2 7.62238 3.2748 6.15688
193 2 8.6657 1.69665 6.22666
194 2 8.45416 2.70243 7.80109
195 2 6.99639 4.58581 4.9813
361 2 4.31038 6.42911 1.15816
326 3 12.4276 1.15121 0.738274
126 2 6.56092 5.95687 8.64072
203 2 10.7977 6.39844 7.50987
49 4 11.9492 2.55601 0.0903223
253 3 5.81191 3.739 0.498729
278 3 8.96433 1.06824 3.07283
280 3 13.5575 3.15554 4.57703
281 3 10.9654 2.07861 4.38736
282 3 12.7577 1.21606 6.12355
288 3 9.60538 3.50536 2.63388
289 3 11.7802 3.76493 1.08133
290 3 11.3044 5.58361 3.04344
291 3 5.4595 5.39831 2.60276
293 3 11.5951 3.63565 6.56241
324 4 13.2551 0.359074 1.88461
197 2 8.40454 5.16237 3.74753
56 4 6.31683 6.50805 3.71092
383 2 8.09494 5.31758 0.166434
367 2 6.76375 6.52991 0.892013
245 3 7.32291 1.37357 0.620502
24 4 7.98281 0.315455 1.67442
352 2 8.17005 0.82256 8.67074
9 4 13.6811 2.5239 10.2266
26 4 5.65121 2.69221 17.1565
32 4 6.34005 2.81368 11.0021
39 4 4.61807 4.44346 12.9403
30 4 7.46958 0.123366 14.1682
52 4 12.6578 0.809684 14.4068
53 4 8.32352 2.75457 15.7039
54 4 11.3262 2.57945 12.3022
60 4 9.45808 4.73835 13.7241
317 3 14.0726 0.170081 13.8722
81 1 8.00506 1.92484 11.1712
82 1 6.70465 4.13283 9.3326
301 3 8.70439 5.88537 12.7563
96 1 4.79422 5.83371 15.8303
119 2 12.3095 3.13983 16.8921
120 2 12.9052 1.73828 15.8118
121 2 9.89856 1.80665 11.6834
127 2 5.34001 5.6747 13.9005
167 2 5.60418 4.49076 9.12727
145 2 10.6043 6.1564 10.2141
164 2 8.77265 2.44061 10.3105
165 2 7.91191 0.75556 11.0156
166 2 8.21877 2.26116 12.2819
169 2 7.3795 4.93096 9.82458
95 1 9.94044 3.54588 9.08764
205 2 10.6232 4.20901 9.83154
204 2 8.65442 3.75389 9.23222
207 2 4.38285 5.6363 16.9217
208 2 5.71926 5.26562 15.6005
209 2 3.89796 5.74235 15.037
261 3 5.85242 3.67947 12.1428
206 2 10.2165 2.47033 9.15818
283 3 7.98496 1.27197 15.1553
284 3 9.65642 2.62621 16.6291
285 3 6.92017 3.51443 16.5119
286 3 12.3652 2.67328 11.0225
287 3 12.0029 1.77461 13.4055
379 2 8.57381 0.17158 17.4582
295 3 8.59438 3.54705 14.2797
296 3 10.8441 4.02808 12.754
297 3 10.0164 5.47308 15.0989
41 4 3.39635 6.46126 10.9795
377 2 9.20972 9.49559 5.80731
42 4 2.07758 9.09047 2.34941
44 4 0.350985 11.8124 4.81568
63 4 7.25547 9.28837 2.04387
64 4 3.27547 11.4272 3.90157
65 4 6.63374 9.85468 7.97302
350 2 0.659231 12.7236 1.54303
67 4 5.751 12.0152 5.74442
69 1 10.0709 7.61914 4.05554
93 1 5.20484 7.15115 5.11711
99 1 5.62712 9.96123 1.29895
384 2 2.35469 12.3298 0.171519
101 1 2.88055 9.93925 7.17807
129 2 8.1615 9.15958 7.29624
202 2 9.84279 6.73246 5.94137
66 4 2.68643 11.3308 8.59711
201 2 9.01832 7.10322 7.63734
200 2 5.26776 8.27539 4.84878
216 2 4.75816 9.84863 2.09861
131 2 10.1151 8.61872 4.74947
218 2 5.92286 11.0319 1.11824
376 2 9.90826 7.98908 2.99716
222 2 1.81647 10.0719 6.75332
223 2 3.05812 8.90194 7.61786
268 3 2.5647 8.98202 0.921073
302 3 6.81895 7.82799 2.86205
303 3 8.48118 9.03451 0.810798
304 3 7.83949 10.3147 3.13265
305 3 3.30089 9.83016 3.20092
306 3 3.11403 12.6999 2.78354
307 3 1.85968 11.4336 4.75227
309 3 3.12986 12.8931 8.12917
311 3 7.33009 12.02 5.10299
312 3 4.68504 11.5771 4.7156
313 3 5.89148 10.7231 6.87259
373 2 4.83931 12.9305 0.915708
348 1 -0.155064 12.8396 0.68721
224 2 3.66276 10.2807 6.415
372 2 0.0606569 13.2969 3.98448
217 2 5.40491 9.37032 0.29638
105 2 6.57691 13.4151 0.841134
380 2 0.323047 13.4077 8.27245
100 1 8.58729 10.433 8.63051
314 3 5.36699 13.2872 6.62849
198 2 5.62846 6.84011 6.14456
375 2 9.15872 6.82748 4.33248
351 1 -0.731144 13.3498 8.76086
18 4 10.1851 6.8332 15.8568
35 4 2.09095 8.01807 17.2203
353 2 -0.643942 12.8801 9.773
45 4 1.02466 9.24637 13.4754
57 4 7.61269 7.76705 17.3315
130 2 2.19983 10.7396 17.0198
61 4 4.95553 7.73876 15.6318
68 4 1.31393 11.8193 15.2111
97 1 4.53272 7.9246 13.6396
98 1 7.96003 8.63884 13.0325
102 1 1.15286 11.4443 17.1119
103 1 4.11172 11.0228 9.82166
115 2 3.45292 7.87179 11.9755
116 2 2.67539 8.63103 13.6433
117 2 0.835387 12.1079 11.8305
385 2 6.09041 13.2718 11.2787
210 2 3.6129 7.21133 13.6618
211 2 5.43062 7.5833 13.0482
212 2 4.33228 9.03351 13.467
59 4 5.93276 7.21552 9.62917
214 2 7.83427 7.95889 14.0718
215 2 7.12345 9.36611 12.7739
128 2 9.84252 7.45699 11.1011
220 2 7.18803 11.2815 9.19
47 4 0.444141 10.6881 10.9037
226 2 -0.219976 12.2262 15.9969
227 2 4.91943 11.779 9.45477
62 4 8.27289 7.18806 11.9347
229 2 4.0078 11.0638 10.986
292 3 8.94645 7.21734 16.7608
298 3 6.5697 8.04636 16.0602
299 3 3.84241 8.46923 16.4309
228 2 4.25067 9.8701 9.38993
310 3 1.30706 10.9164 9.55221
315 3 1.18062 10.5838 14.3196
316 3 2.32257 13.0398 14.8517
327 4 5.44607 12.257 13.5102
328 1 6.50119 12.3618 11.745
329 1 3.96775 10.9174 13.0309
330 1 6.83512 11.7076 14.7877
331 2 6.24087 11.3231 11.2197
219 2 8.80481 9.36206 9.07685
333 2 4.2919 10.0823 12.2859
334 2 2.85808 11.316 12.8742
335 2 4.06093 10.5585 14.1625
308 3 6.08806 8.64427 8.85178
337 2 6.08387 11.0213 15.3755
362 1 -0.530886 13.0937 12.817
300 3 7.01403 7.15181 10.8609
213 2 9.00221 9.20407 12.9213
363 2 -0.657111 13.4014 11.6921
277 3 0.973447 9.58325 11.843
364 2 -0.864562 11.9389 12.9516
336 2 7.69892 11.1651 14.4297
294 3 4.46402 6.8341 9.85457
225 2 0.202891 10.7931 17.5001
365 2 0.521848 13.2672 13.2244
ITEM: TIMESTEP
200
ITEM: NUMBER OF ATOMS
386
ITEM: BOX BOUNDS xy xz yz pp pp pp
-1.0522200000000000e+01 1.6607800000000001e+01 -9.4504999999999999e+00
0.0000000000000000e+00 1.3453600000000000e+01 -1.0717000000000001e+00
0.0000000000000000e+00 1.7523702000000000e+01 3.3999999999999998e-03
ITEM: ATOMS id type x y z
8 4 0.751546 1.0185 0.623355
12 4 -0.063634 4.09735 1.49586
107 2 -2.27412 3.11956 7.96705
15 4 -1.00534 4.25241 7.32237
25 4 5.14134 1.547 3.86467
29 4 6.53899 1.20745 6.45052
34 4 0.981113 6.01281 3.5881
171 2 -1.4612 6.18436 2.99614
36 4 4.73196 3.67184 7.30269
38 4 2.423 5.08405 6.34088
70 1 -0.0407451 3.12852 6.11732
85 1 3.41929 3.24512 1.62229
104 2 -0.600301 2.45312 4.32968
340 2 3.37376 0.507961 5.60947
33 4 5.20266 3.8927 2.01716
111 2 3.75983 1.9584 4.85829
113 2 1.5459 3.83616 7.0158
132 2 -0.0476333 3.98881 5.23275
133 2 -1.03136 2.38362 6.04864
134 2 0.96806 2.40583 6.08245
339 2 2.59707 2.15767 6.16223
176 2 3.57804 2.43056 0.905815
177 2 2.93505 4.15567 1.00565
178 2 2.79156 2.96082 2.49774
230 3 1.87398 0.360288 1.49266
233 3 -1.7373 3.75656 2.26035
234 3 0.3409 2.61566 0.935884
235 3 -0.155756 5.3501 0.379653
374 2 1.43093 0.743924 5.51239
237 3 -1.60456 5.50223 6.54045
170 2 -1.00056 6.10122 4.94172
244 3 4.43963 0.571798 2.8698
247 3 6.25401 0.828558 4.73704
252 3 5.67042 2.88931 3.17407
254 3 1.00643 4.6628 2.55818
256 3 5.38836 2.22647 6.86979
258 3 1.65556 5.508 4.98672
259 3 3.85705 4.55033 6.18839
338 1 2.44083 1.05312 6.0306
122 2 2.20055 6.36402 7.52036
140 2 -3.0366 4.95327 0.160568
257 3 -0.142017 4.73334 8.52197
360 2 2.59742 6.2744 1.18376
7 4 -2.05527 2.70109 3.40949
83 1 -0.74149 6.5559 3.89001
255 3 3.87059 3.45053 8.65587
358 1 3.37999 6.30957 0.34535
16 4 -3.02874 6.65539 6.45238
236 3 -4.27836 6.54862 5.40026
318 4 2.53388 0.0542874 7.77448
245 3 7.22553 1.30874 0.57624
241 3 -3.53166 6.67213 8.1782
10 4 1.57877 0.66653 13.3676
11 4 -0.638154 2.57236 12.0327
150 2 -4.0971 6.37529 13.4745
17 4 -1.26299 4.57664 14.2952
28 4 3.70762 2.24529 9.69824
354 1 0.622574 0.878781 16.5113
31 4 3.33908 2.59948 14.9701
37 4 0.561362 6.36716 9.3799
356 2 -0.321045 0.837381 15.8239
71 1 -1.24394 3.09856 15.5555
72 1 -3.66613 5.00171 16.4927
144 2 -4.46611 5.82345 10.8847
78 1 0.7159 3.19764 10.759
79 1 2.09719 3.68902 16.02
80 1 5.64739 0.642126 13.1576
162 2 5.79884 0.352372 12.0417
106 2 2.50939 0.345689 11.9555
108 2 -2.75934 5.30747 14.7385
112 2 2.61844 2.71633 10.9826
135 2 -1.04383 2.32485 14.7187
136 2 -2.21569 2.92128 16.1688
137 2 -0.346076 3.18243 16.2948
138 2 -2.85084 4.12661 16.2678
231 3 -1.81646 1.97478 11.0212
369 2 -2.96821 4.19124 10.0118
163 2 5.43662 1.74598 13.2138
155 2 0.320235 3.76229 9.86658
156 2 1.08232 2.11003 10.5325
157 2 1.45072 3.82097 11.3613
158 2 2.32041 3.5039 17.1525
159 2 0.962475 3.52293 15.8142
160 2 2.33881 4.77963 15.697
14 4 -2.28059 6.30924 17.2275
370 2 -4.93325 6.50425 16.9297
260 3 3.82679 3.55085 13.8448
182 2 -1.10557 5.76563 11.04
262 3 -0.0722857 5.45924 14.6914
359 2 2.23247 5.38778 17.1723
232 3 0.31192 1.54563 12.9522
238 3 -1.2144 3.87101 12.8609
246 3 2.81991 1.05625 8.92552
249 3 2.5214 1.2999 14.4979
250 3 4.53645 2.19151 15.9794
251 3 5.14356 1.87607 10.219
265 3 1.98937 6.43232 10.0439
355 2 1.21896 1.91177 16.321
266 3 3.63797 5.17554 11.7273
30 4 7.17827 0.120058 14.1764
1 4 -6.32716 13.0967 2.47106
2 1 -5.65404 11.5346 1.68769
381 2 -1.38325 10.3434 0.232205
4 2 -5.28026 10.9436 2.58006
5 2 -4.82652 11.6525 0.808028
6 3 -7.09481 12.4656 3.8773
345 2 -1.81415 11.5897 1.81903
19 4 -2.93911 8.24857 1.7564
27 4 -1.62739 12.1659 7.61828
73 1 -3.98885 9.31256 0.751966
75 1 -5.16995 8.83431 8.25485
248 3 -2.73192 13.3182 7.17427
84 1 -2.27443 8.30271 6.10589
86 1 0.736159 7.5695 7.88766
88 1 -0.613494 9.84687 4.15829
109 2 -1.68843 9.09183 2.92209
347 2 -2.37459 12.6499 3.42255
221 2 -7.45372 10.7204 7.75829
346 2 -3.72806 12.2144 2.11218
142 2 -3.45668 10.3616 1.20078
143 2 -5.1436 9.20723 0.953992
147 2 -5.16168 8.49657 7.10197
343 2 -6.39091 11.2394 6.32721
172 2 -0.675961 7.8618 4.00834
173 2 -2.78179 8.51184 5.04036
174 2 -1.14869 8.15921 6.0438
175 2 -2.56966 9.09568 6.9238
179 2 0.443252 7.05892 6.89509
114 2 0.590725 9.75806 2.58339
185 2 -0.492126 11.1679 3.16089
186 2 -1.29792 9.95029 5.10152
187 2 0.365446 9.29892 4.37735
382 2 -3.04995 12.0877 0.394202
239 3 -3.9151 7.49576 2.83742
240 3 -2.05943 7.36013 0.802149
3 2 -6.66568 11.0567 1.29495
267 3 1.95254 7.52681 2.9658
270 3 -2.243 10.8466 8.34046
148 2 -4.93475 10.0027 8.3564
320 2 -8.1804 12.3126 8.13866
319 1 -5.38141 12.3602 7.69332
321 2 -5.26158 12.585 6.51332
322 2 -5.48129 11.2108 8.05445
13 4 -4.93969 6.73712 3.79982
180 2 1.60561 8.28602 7.81085
342 2 -6.1965 10.1666 4.73437
272 3 -0.533348 11.8007 6.21586
344 1 -2.50899 12.4647 2.28124
20 4 -8.1807 11.4235 4.4708
341 1 -6.92094 10.4913 5.53764
181 2 -0.339136 8.06234 8.32707
349 2 -0.29602 11.9441 0.0986104
323 2 -4.67903 12.9077 8.34539
21 4 -4.0565 7.70181 9.28458
22 4 -4.77499 8.76343 13.9952
23 4 -5.27797 10.4555 11.197
40 4 -0.205647 7.20677 15.163
43 4 -2.45095 10.2796 9.92743
46 4 -3.29706 10.9485 15.7648
76 1 -3.51725 7.35574 13.5959
77 1 -6.22556 11.9543 11.7948
89 1 -1.81611 10.1613 16.8471
90 1 -4.54024 11.9635 16.7889
110 2 -6.55027 10.1604 9.96192
184 2 0.143636 7.00959 11.644
141 2 -4.66487 8.99106 17.1839
149 2 -3.00303 7.58015 12.639
332 2 -9.19572 12.2528 11.9671
151 2 -2.85557 7.31939 14.5066
264 3 -1.78298 7.24234 16.0207
153 2 -6.87105 12.1115 12.7467
154 2 -6.94897 12.0735 10.8533
152 2 -5.34837 12.7152 11.7944
183 2 -1.27561 7.65926 10.5798
188 2 -0.779054 10.784 16.7387
189 2 -1.71188 9.05932 16.5904
190 2 -5.37121 11.2149 16.6478
191 2 -4.65558 12.9477 16.2032
242 3 -5.88629 8.01785 14.8936
243 3 -5.31098 9.43868 12.3867
263 3 1.01481 7.78211 16.0074
371 2 -8.38904 12.5676 13.8483
269 3 -2.69085 8.66357 9.99108
271 3 -3.88613 10.859 10.5327
273 3 -0.312584 8.18902 13.8121
274 3 -4.04021 9.85629 14.8323
275 3 -2.72218 12.2287 14.907
276 3 -1.1359 10.6965 10.8148
146 2 -5.09457 7.38041 11.7185
386 2 -9.49265 12.738 15.3252
378 2 -6.12015 8.56098 8.82153
87 1 -0.562713 6.74696 10.8604