ITEM: TIMESTEP
0
ITEM: NUMBER OF ATOMS
243
ITEM: BOX BOUNDS xy xz yz pp pp pp
-7.6648620000000003e+00 1.4691300000000000e+01 -7.3456000000000001e+00
0.0000000000000000e+00 1.2723000000000001e+01 -3.1926199999999999e-01
0.0000000000000000e+00 1.5963100000000001e+01 0.0000000000000000e+00
ITEM: ATOMS id type x y z
134 1 3.76856 5.62945 1.22538
139 1 2.76841 6.14883 4.03709
31 2 6.97505 0.0202689 7.01734
6 2 1.37247 2.35454 5.33539
10 2 -0.0746607 4.28614 1.74312
13 2 -0.367454 4.28715 7.03388
93 1 -2.11476 6.11276 4.04481
29 2 3.77122 2.10353 3.50832
140 1 3.73671 5.4476 6.45084
1 2 2.24911 0.111152 1.7336
37 2 4.68104 4.40254 1.76119
40 2 4.57877 4.31541 7.12148
82 1 1.27905 1.24783 1.14951
83 1 0.365902 1.81378 4.21593
84 1 1.57625 1.24249 6.47239
88 1 -0.853606 3.10124 2.39925
89 1 0.934652 3.68999 0.660708
90 1 -0.862881 5.50469 1.12237
91 1 -1.32849 3.24337 7.77253
92 1 0.563646 3.57576 5.9709
135 1 3.69421 3.21437 7.89294
94 1 -1.12393 5.44752 6.26287
118 1 3.18862 0.689869 2.90145
119 1 2.83639 2.67339 4.71555
120 1 6.12981 1.13728 0.99193
123 1 5.27837 2.02117 4.06932
124 1 6.10603 1.17901 6.38083
130 1 3.69099 3.23321 2.31805
132 1 0.811165 4.93765 2.9555
2 2 -1.04128 2.00379 3.51177
28 2 7.07799 0.138599 1.76996
41 2 1.15402 6.20177 8.846
9 2 1.07336 2.29902 10.5993
16 2 -0.359829 4.29919 12.33
32 2 3.62675 1.98873 8.89948
14 2 -3.78268 6.28635 8.75149
35 2 3.51668 2.01186 14.0514
7 2 2.05741 0.0266733 12.3447
43 2 4.47131 4.31198 12.4145
44 2 1.13543 6.28958 14.1171
85 1 0.128108 1.77005 14.7745
86 1 0.173083 1.8024 9.31302
87 1 1.09736 1.24002 11.7668
95 1 -1.13259 3.07583 13.0059
96 1 0.479152 3.6887 11.0735
97 1 -2.36555 5.97449 14.9366
98 1 -2.36434 6.06799 9.42475
99 1 -1.34126 5.4504 11.8429
121 1 3.20978 0.630868 8.23926
122 1 2.51497 2.2906 9.98211
125 1 3.03449 0.58557 13.4423
126 1 5.00065 2.04174 14.6171
127 1 2.53961 2.44179 15.2737
128 1 5.04923 1.87744 9.53915
129 1 6.1419 1.25187 11.7438
137 1 0.508549 4.9351 8.16817
141 1 3.54755 3.09644 12.8823
143 1 0.617553 4.98094 13.4033
144 1 2.52179 6.17145 14.8795
146 1 2.58051 5.96173 9.53323
147 1 3.63844 5.4212 11.6584
8 2 -1.2997 1.90294 14.1568
17 2 -3.72405 6.202 14.178
3 2 1.02084 2.30422 15.9009
5 2 -1.32385 2.01703 8.80078
34 2 6.98087 0.0925119 12.4616
21 2 -3.63372 10.6784 0.0339124
15 2 -1.12017 6.55497 5.14261
19 2 -2.52707 8.56542 1.75997
161 1 1.23694 9.53316 6.38498
22 2 -2.69381 8.48645 7.02775
24 2 -3.57811 10.8004 5.22823
46 2 2.2139 8.63884 1.76037
47 2 -1.10855 10.4938 3.57017
49 2 2.24854 8.43724 7.00953
100 1 -3.53188 7.42181 2.31197
101 1 -1.7797 8.03501 0.412366
102 1 -6.05421 11.6662 2.30429
103 1 -3.56641 9.69505 1.31053
104 1 -4.15127 12.0472 0.698388
105 1 -3.5349 7.27254 7.5125
106 1 -1.65414 7.86851 5.91095
107 1 -5.92424 11.5417 7.57468
108 1 -4.65836 10.5183 4.11155
109 1 -3.46209 9.64002 6.26704
110 1 -4.06033 12.0916 5.91862
133 1 0.352004 6.84609 4.60779
148 1 1.22931 7.49101 2.32503
150 1 -1.67014 9.16953 2.88099
151 1 -0.944862 11.5344 2.32216
152 1 -2.13267 11.0115 4.6431
153 1 1.37601 9.80813 1.14974
155 1 1.30783 7.2792 7.6779
158 1 -1.21551 11.5626 7.73267
160 1 0.341174 10.3241 4.17914
20 2 -6.03449 10.4673 3.32957
11 2 -3.5591 6.36419 3.48466
38 2 1.3305 6.37368 3.43182
4 2 -4.9986 12.7082 7.03774
18 2 -1.41028 6.48842 10.5757
25 2 -2.83733 8.47673 12.4405
27 2 -3.76903 10.7994 10.6603
50 2 -1.34794 10.4492 8.8847
12 2 -1.35372 6.59072 15.9075
53 2 -1.43137 10.4827 14.1866
111 1 -3.6592 7.34713 13.0513
112 1 -1.94201 7.8434 11.2775
113 1 -4.91944 10.1757 14.8834
114 1 -6.17988 11.5765 13.082
115 1 -4.64327 10.2618 9.4199
116 1 -3.68246 9.73001 11.8316
117 1 -4.47313 12.1999 11.0991
138 1 0.0784425 6.74299 9.99282
145 1 0.113569 6.86366 15.3117
157 1 -2.03902 9.06553 8.36018
159 1 -2.21546 10.9971 10.1204
163 1 1.30315 7.31479 12.9244
165 1 -1.88947 9.12109 13.539
166 1 -0.0153526 10.2795 14.88
167 1 -1.33577 11.6753 13.1519
168 1 -2.41535 10.8411 15.3834
169 1 0.14444 10.2182 9.44422
170 1 1.19319 9.66796 11.8265
26 2 -6.3202 10.4988 14.2541
23 2 -6.15605 10.478 8.76788
196 1 8.67407 5.38976 1.09168
204 1 8.62458 5.36499 6.489
203 1 7.67776 6.06229 4.15714
193 1 5.60487 4.90407 2.90069
198 1 10.5584 3.62179 5.90755
56 2 8.62996 2.08712 3.5295
197 1 8.82573 3.08419 7.78139
136 1 5.60824 3.6327 6.10163
60 2 11.0363 2.2454 5.21253
64 2 9.63947 4.30037 1.75998
65 2 6.2268 6.17906 3.59156
67 2 9.60296 4.25975 7.05663
131 1 5.62965 3.5789 0.653458
33 2 6.19133 2.36119 5.35981
172 1 13.0214 0.58076 3.0388
173 1 7.95391 0.799415 2.88417
174 1 7.64258 2.5658 4.70567
176 1 11.1922 1.2478 1.25296
180 1 12.4835 2.49354 4.53073
181 1 10.1106 1.86487 4.05362
182 1 11.1418 1.02903 6.22285
190 1 8.73169 3.06482 2.26755
191 1 10.6962 3.69387 0.683174
192 1 10.452 5.04869 2.90425
55 2 12.0572 0.0823296 1.90038
57 2 11.2008 2.33043 0.0344504
71 2 5.86865 6.28049 14.163
213 1 8.49882 5.45058 11.8713
212 1 7.44545 6.00516 9.57115
209 1 7.32281 5.88884 14.6486
36 2 6.10311 2.39018 10.5855
59 2 8.5546 1.98483 8.84366
208 1 5.21673 4.99892 13.6074
62 2 8.4661 1.9903 14.2549
63 2 10.8777 2.13959 10.6528
68 2 6.07822 6.18391 8.82243
70 2 9.4023 4.18554 12.3711
30 2 5.95969 2.33267 15.9001
142 1 5.54818 3.73825 11.2885
175 1 12.386 2.57337 15.295
207 1 10.356 4.84035 13.4934
178 1 7.86236 0.77784 8.08276
179 1 7.63985 2.40303 10.0806
183 1 12.8161 0.501276 13.5534
184 1 7.93341 0.660715 13.6173
185 1 9.91384 1.84393 14.8186
186 1 7.48819 2.44886 15.3964
187 1 12.3673 2.45674 10.0595
188 1 9.94829 1.6184 9.4554
189 1 10.997 1.10288 11.8973
199 1 10.4447 4.90929 8.16254
177 1 12.885 0.617699 8.08536
205 1 8.54593 3.08265 13.1217
206 1 10.2265 3.51983 11.1781
200 1 5.48932 4.86587 8.27795
232 1 5.7274 12.0178 5.99876
227 1 3.68467 11.5116 7.75212
42 2 3.72401 6.51099 5.29446
229 1 7.59357 10.7966 4.61284
51 2 1.28588 10.7915 5.35978
230 1 5.10743 10.3327 4.15234
69 2 8.6527 6.50691 5.35957
73 2 7.20026 8.41563 1.6819
74 2 3.66802 10.5061 3.53875
231 1 6.16893 9.52486 6.45788
76 2 7.17102 8.44161 7.05473
78 2 6.15394 10.622 5.31156
149 1 3.32707 8.03664 0.715085
154 1 0.75784 12.3037 0.650796
156 1 3.20158 7.90939 5.82076
162 1 0.641313 12.0724 5.99569
194 1 5.19916 6.64766 4.76072
202 1 10.1599 6.74917 4.69995
214 1 6.27863 7.31073 2.46661
215 1 8.05626 7.73263 0.512663
216 1 8.14089 9.10967 2.73827
217 1 3.06617 9.10326 3.0023
218 1 3.83262 11.5882 2.44167
219 1 2.71941 11.1122 4.74136
221 1 6.26532 9.56635 1.09102
222 1 5.6721 12.0737 0.76573
223 1 6.22536 7.24615 7.59042
224 1 8.12641 7.92271 5.85564
75 2 6.25695 10.7246 0.0448067
58 2 4.6055 12.5801 6.98702
39 2 3.85117 6.67125 0.0428902
48 2 1.2562 10.8774 0.0339623
242 1 6.36137 9.78086 11.7203
243 1 5.3586 11.9803 11.2139
45 2 3.61024 6.56981 10.5408
54 2 1.07717 10.7324 10.6212
72 2 8.46667 6.46965 10.6482
77 2 3.6468 10.42 8.82468
79 2 7.04918 8.48774 12.4018
80 2 3.46692 10.4873 14.285
81 2 6.09885 10.7699 10.5554
164 1 3.16175 7.99475 11.1982
171 1 0.431842 12.1136 11.2441
195 1 9.7904 6.61982 15.2183
201 1 5.03002 6.81358 9.83581
210 1 4.97808 6.81613 15.4108
211 1 9.80145 6.71439 9.79312
220 1 7.3453 10.991 15.3622
225 1 7.98916 9.07939 8.19469
226 1 3.15804 9.10983 8.09925
228 1 2.57026 10.8337 9.97432
233 1 6.05923 7.33454 12.9863
234 1 8.01625 7.80949 11.2944
235 1 7.86821 9.07737 13.5998
236 1 2.99289 9.16208 13.5449
237 1 4.94022 10.3318 14.8235
238 1 3.5238 11.594 13.101
239 1 2.41505 11.0018 15.3634
240 1 7.52022 11.0942 9.87169
241 1 5.15368 10.2867 9.41228
61 2 4.54611 12.6417 12.4491
66 2 8.28414 6.40163 15.8535
52 2 2.17816 8.56078 12.4006
ITEM: TIMESTEP
100
ITEM: NUMBER OF ATOMS
243
ITEM: BOX BOUNDS xy xz yz pp pp pp
-7.6648620000000003e+00 1.4691300000000000e+01 -7.3456000000000001e+00
0.0000000000000000e+00 1.2723000000000001e+01 -3.1926199999999999e-01
0.0000000000000000e+00 1.5963100000000001e+01 0.0000000000000000e+00
ITEM: ATOMS id type x y z
134 1 3.8861 5.56207 1.2172
139 1 2.8469 6.04872 4.13638
38 2 1.40779 6.28522 3.54636
6 2 1.37876 2.31588 5.3022
10 2 -0.00143248 4.32686 1.7637
13 2 -0.308949 4.27594 7.0209
93 1 -2.1791 6.2854 4.12106
29 2 3.73348 2.12366 3.49182
140 1 3.69109 5.45655 6.49748
1 2 2.40363 0.121042 1.77988
37 2 4.74307 4.32613 1.73224
40 2 4.49067 4.24686 7.17075
82 1 1.67461 1.41546 1.15273
83 1 0.454713 1.84706 4.10218
84 1 1.35552 1.12584 6.34708
88 1 -0.863658 3.13176 2.33266
89 1 0.944995 3.82511 0.582371
90 1 -0.909424 5.49951 1.2852
91 1 -1.12605 3.11449 7.68434
92 1 0.734703 3.60719 6.02142
135 1 3.50122 3.09244 7.80013
94 1 -1.24369 5.38671 6.3437
118 1 3.32958 0.672252 2.97962
119 1 2.79782 2.63676 4.64984
120 1 6.14256 1.23881 1.01408
123 1 5.23581 1.94953 4.03408
124 1 6.15427 1.16693 6.40923
130 1 3.81416 3.08022 2.22985
132 1 0.910265 4.84129 2.98274
2 2 -1.08626 2.13084 3.60186
28 2 7.04313 0.118099 1.65352
11 2 -3.65469 6.29037 3.56413
4 2 2.31189 0.0480405 7.04776
31 2 7.0982 0.0565734 7.05764
41 2 1.12387 6.24311 8.76959
9 2 1.10699 2.27516 10.6434
16 2 -0.344052 4.31867 12.3578
32 2 3.61207 2.06456 9.01302
14 2 -3.67138 6.26279 8.80419
35 2 3.53695 2.01243 14.0162
7 2 2.00407 0.0338857 12.3334
43 2 4.46354 4.31847 12.3712
44 2 1.05584 6.25788 14.2576
85 1 0.0877891 2.04559 14.8672
86 1 0.181268 1.7391 9.41442
87 1 1.09207 1.20512 11.8709
95 1 -1.31188 3.1629 12.9902
96 1 0.580563 3.68673 11.2154
97 1 -2.36826 6.21496 14.8123
98 1 -2.2113 6.0502 9.43784
99 1 -1.1302 5.48298 11.7529
121 1 3.22229 0.646465 8.31025
122 1 2.58873 2.50151 10.1155
125 1 3.03642 0.614671 13.3989
126 1 5.0271 1.88185 14.6254
127 1 2.52561 2.47646 15.1672
128 1 5.11797 2.03292 9.57997
129 1 6.04909 1.22038 11.8538
137 1 0.606556 4.91318 8.12373
141 1 3.47797 3.14855 12.8618
143 1 0.560218 4.89589 13.5685
144 1 2.49454 6.11255 14.8733
146 1 2.52581 6.10508 9.51781
147 1 3.77006 5.57957 11.7354
3 2 1.11424 2.47954 15.9324
8 2 -1.24947 1.9872 14.0543
17 2 -3.80162 6.23534 14.1236
5 2 -1.27373 2.00214 8.84957
21 2 -3.53771 10.8551 0.051131
15 2 -1.14512 6.58719 5.26746
19 2 -2.63067 8.48394 1.80142
161 1 1.32704 9.7512 6.54869
22 2 -2.63569 8.51387 7.00697
24 2 -3.61325 10.8316 5.27413
46 2 2.26417 8.62038 1.77831
47 2 -1.13686 10.5405 3.47057
12 2 -1.08521 6.49136 0.0549975
100 1 -3.62049 7.39233 2.45958
101 1 -1.60081 7.89016 0.730695
102 1 -5.83113 11.5908 2.35469
103 1 -3.46421 9.69541 1.10361
104 1 -4.01987 12.2246 0.679092
105 1 -3.54461 7.38494 7.68051
106 1 -1.49152 7.95585 6.02814
107 1 -5.91534 11.5978 7.7417
108 1 -4.54127 10.3619 4.0077
109 1 -3.57441 9.53086 6.29278
110 1 -4.12726 12.1725 5.90682
133 1 0.372584 6.68726 4.74919
148 1 1.38967 7.44211 2.41747
150 1 -1.67626 9.10808 2.94907
151 1 -1.10103 11.5531 2.2104
152 1 -2.16868 11.0001 4.55667
153 1 1.42942 9.94666 1.28186
155 1 1.34769 7.33249 7.65039
158 1 -1.24782 11.622 7.64517
160 1 0.33917 10.363 4.12452
20 2 -5.9708 10.4102 3.38412
49 2 2.27666 8.53095 7.04343
18 2 -1.29463 6.53501 10.6151
25 2 -2.87747 8.46756 12.3683
27 2 -3.75191 10.7357 10.683
50 2 -1.33917 10.544 8.82932
52 2 2.05096 8.45845 12.4876
53 2 -1.3581 10.4475 14.2559
111 1 -3.76267 7.25642 12.9561
112 1 -1.90964 7.89137 11.22
113 1 -4.82863 10.4192 14.8219
114 1 -6.21297 11.5673 12.9319
115 1 -4.67486 10.1579 9.45205
116 1 -3.79971 9.5666 11.7531
117 1 -4.41896 12.1864 11.111
138 1 0.134982 6.77555 9.89968
145 1 0.0767866 6.71475 15.3683
157 1 -1.87816 9.17075 8.21499
159 1 -2.32735 10.9408 10.0387
163 1 1.12047 7.26773 12.999
165 1 -1.99729 9.09644 13.5664
166 1 0.165252 10.2223 14.7972
167 1 -1.38185 11.5686 13.0542
168 1 -2.37235 10.9325 15.4386
169 1 0.0399597 10.2602 9.57212
170 1 1.23466 9.6356 11.808
23 2 -6.13483 10.5198 8.93463
34 2 -0.40781 12.7204 12.4703
26 2 -6.28026 10.5599 14.181
196 1 8.72616 5.42721 1.10743
204 1 8.72749 5.37214 6.54748
203 1 7.65756 5.90708 4.19257
193 1 5.61571 4.83533 2.90891
198 1 10.5712 3.57376 5.95138
56 2 8.5857 2.11602 3.53414
197 1 8.76269 3.05049 7.77736
136 1 5.4146 3.55067 6.04729
60 2 11.0889 2.29259 5.17658
64 2 9.64289 4.29256 1.74379
65 2 6.17885 6.13736 3.57017
67 2 9.64656 4.18291 7.07789
131 1 5.61077 3.77991 0.478997
33 2 6.16633 2.33227 5.34196
172 1 13.1411 0.666051 3.01645
173 1 7.96971 0.807044 2.79651
174 1 7.5996 2.5467 4.68959
176 1 11.5484 1.28523 1.19843
180 1 12.5777 2.62259 4.70073
181 1 10.0254 1.77657 4.06759
182 1 11.241 1.09129 6.22753
190 1 8.65818 3.18791 2.34907
191 1 10.768 3.62423 0.701455
192 1 10.4955 4.95912 2.87354
71 2 5.81579 6.25484 14.1758
213 1 8.59351 5.2778 11.7249
212 1 7.41371 6.06242 9.47209
209 1 7.36312 5.95829 14.7179
36 2 6.16026 2.37048 10.7506
59 2 8.58778 1.92851 8.92453
208 1 5.21686 4.88235 13.6266
62 2 8.39609 1.95592 14.3166
63 2 11.0229 2.18293 10.7069
68 2 5.95089 6.271 8.77703
70 2 9.46181 4.1755 12.44
30 2 5.88595 2.36979 15.902
142 1 5.59727 3.74193 11.352
175 1 12.3518 2.42446 15.2038
207 1 10.4429 4.79554 13.5733
178 1 7.97863 0.561136 8.31587
179 1 7.59934 2.49448 10.022
183 1 12.9753 0.597862 13.4319
184 1 7.81677 0.642948 13.6181
185 1 9.75129 1.7637 15.079
186 1 7.35039 2.49714 15.3473
187 1 12.5288 2.3519 10.1496
188 1 9.99274 1.73863 9.58939
189 1 10.9844 1.10222 11.8653
199 1 10.6085 4.81969 8.22107
177 1 12.7158 0.701282 8.24493
205 1 8.5308 3.02499 13.0728
206 1 10.4823 3.60553 11.2839
200 1 5.37906 4.87831 8.37452
57 2 10.9314 2.32068 15.9308
232 1 5.76443 12.0657 5.9875
227 1 3.89848 11.4976 7.60913
42 2 3.71742 6.56186 5.37016
229 1 7.7199 11.0725 4.51048
51 2 1.31162 10.7814 5.29722
230 1 5.25654 10.2998 4.06114
69 2 8.63348 6.43236 5.34179
73 2 7.18394 8.37782 1.68866
74 2 3.78645 10.5121 3.50116
231 1 6.40372 9.58559 6.34226
76 2 7.20232 8.43718 7.08597
78 2 6.2816 10.7454 5.27826
149 1 3.06647 8.02318 0.573357
154 1 0.675259 12.3254 0.473652
156 1 3.12007 7.93824 5.83007
162 1 0.737327 12.0773 6.00668
194 1 5.23015 6.70454 4.78808
202 1 10.0868 6.71314 4.75823
214 1 6.3723 7.2226 2.42236
215 1 7.97882 7.85052 0.488324
216 1 8.16669 9.03176 2.75802
217 1 3.35095 9.06318 2.89586
218 1 3.84323 11.6582 2.40742
219 1 2.77972 10.8471 4.70031
221 1 6.22037 9.61465 1.23347
222 1 5.90523 12.0948 0.749066
223 1 6.18431 7.26602 7.55491
224 1 8.168 7.78066 5.94849
75 2 6.2574 10.6901 0.0495719
58 2 4.73534 12.6884 6.97944
39 2 3.84149 6.6944 0.127279
48 2 1.30827 10.9132 0.0623938
55 2 4.89623 12.709 1.83097
242 1 6.00476 9.48625 11.5918
243 1 5.35951 12.0177 11.185
45 2 3.56226 6.69362 10.5281
54 2 1.15982 10.7048 10.6236
72 2 8.52674 6.38468 10.6482
77 2 3.735 10.4351 8.78232
79 2 6.99284 8.56179 12.4302
80 2 3.48572 10.4495 14.1789
81 2 6.07347 10.7348 10.5682
164 1 2.94925 7.97496 11.2524
171 1 0.54078 11.986 11.385
195 1 9.85529 6.62051 15.2564
201 1 4.97018 6.92266 9.82407
210 1 4.96988 6.87502 15.3999
211 1 9.91866 6.65319 9.89273
220 1 7.34717 11.0044 15.308
225 1 7.91984 9.25067 8.2913
226 1 3.21699 9.03793 8.21234
228 1 2.57832 10.9344 9.85061
233 1 5.99213 7.42726 13.0835
234 1 7.96698 7.76312 11.3729
235 1 7.78667 9.20164 13.5854
236 1 2.97383 9.03336 13.6489
237 1 4.88989 10.3855 14.8646
238 1 3.65277 11.5048 13.0021
239 1 2.485 11.1331 15.3698
240 1 7.59434 10.9615 10.0989
241 1 5.17109 10.1939 9.32653
61 2 4.59298 12.6627 12.4236
66 2 8.32183 6.52226 15.8501
ITEM: TIMESTEP
200
ITEM: NUMBER OF ATOMS
243
ITEM: BOX BOUNDS xy xz yz pp pp pp
-7.6648620000000003e+00 1.4691300000000000e+01 -7.3456000000000001e+00
0.0000000000000000e+00 1.2723000000000001e+01 -3.1926199999999999e-01
0.0000000000000000e+00 1.5963100000000001e+01 0.0000000000000000e+00
ITEM: ATOMS id type x y z
134 1 3.96645 5.56384 1.10665
139 1 2.82964 6.03809 4.18892
38 2 1.37951 6.15793 3.63985
6 2 1.42117 2.42629 5.3585
10 2 -0.019487 4.30679 1.81473
13 2 -0.223997 4.18886 7.18987
93 1 -2.12172 6.12848 4.22803
29 2 3.7564 2.11063 3.45738
140 1 3.74279 5.5627 6.60286
1 2 2.39215 0.0654976 1.72435
37 2 4.73694 4.2931 1.65427
40 2 4.54703 4.27734 7.19856
82 1 1.58093 1.28992 1.07123
83 1 0.413949 2.02017 4.09732
84 1 1.38302 1.11901 6.26104
88 1 -0.939885 3.12381 2.27801
89 1 0.939577 3.73139 0.608216
90 1 -1.00687 5.43922 1.23152
91 1 -1.25518 3.09172 7.75271
92 1 0.787147 3.73489 5.98982
135 1 3.51799 3.17495 7.74996
94 1 -1.03821 5.38953 6.50151
118 1 3.10487 0.751695 2.98275
119 1 2.83404 2.59957 4.65378
120 1 6.18134 1.24946 1.03982
123 1 5.20373 1.94938 4.20119
124 1 6.31169 1.14506 6.35648
130 1 3.85425 3.12179 2.24286
132 1 0.811363 4.84518 3.00041
2 2 -1.08997 2.12527 3.48995
28 2 7.0593 0.0690495 1.65036
11 2 -3.55965 6.25623 3.64908
41 2 1.09773 6.28751 8.80781
9 2 1.18382 2.28822 10.6495
16 2 -0.355096 4.20787 12.307
32 2 3.61469 2.05754 8.92635
14 2 -3.69145 6.22056 8.93993
35 2 3.4766 2.07107 14.0698
7 2 2.06843 0.0142365 12.2898
43 2 4.56251 4.30518 12.35
44 2 0.951787 6.13954 14.2337
85 1 -0.0332035 1.96276 14.8969
86 1 0.220294 1.78993 9.48553
87 1 1.06903 1.13137 11.7222
95 1 -1.31205 3.08352 12.9985
96 1 0.62043 3.72873 11.1512
97 1 -2.48944 6.11194 14.9786
98 1 -2.24989 6.09477 9.57423
99 1 -1.0919 5.57725 11.8166
121 1 3.06936 0.621447 8.2595
122 1 2.72314 2.41976 10.2024
125 1 2.88793 0.687501 13.4761
126 1 4.96836 1.76164 14.6348
127 1 2.59233 2.575 15.2717
128 1 5.11653 1.91251 9.4771
129 1 5.94668 1.15938 11.8294
137 1 0.652548 4.85139 8.27632
141 1 3.54004 3.11213 12.8139
143 1 0.548796 4.69884 13.5239
144 1 2.52418 6.02934 14.7789
146 1 2.45787 6.10521 9.61123
147 1 3.6822 5.54512 11.7771
3 2 1.1623 2.42836 15.8797
8 2 -1.42137 1.97925 14.1009
17 2 -3.79035 6.22306 14.1542
5 2 -1.30754 1.96713 8.88646
34 2 6.94965 0.0670759 12.3984
4 2 -5.07943 12.7103 7.04877
15 2 -1.15665 6.51424 5.3923
19 2 -2.71039 8.50795 1.71507
161 1 1.26751 9.70958 6.51196
22 2 -2.71637 8.48615 7.07831
24 2 -3.59993 10.7804 5.2772
46 2 2.24562 8.50854 1.76599
47 2 -1.17912 10.5222 3.55922
12 2 -1.13777 6.55434 0.121777
100 1 -3.57782 7.3166 2.37977
101 1 -1.63479 7.93854 0.719301
102 1 -5.90132 11.6508 2.2498
103 1 -3.62765 9.63965 1.01799
104 1 -3.94488 12.1993 0.656422
105 1 -3.60266 7.26045 7.65371
106 1 -1.66814 7.91229 5.98614
107 1 -5.97271 11.4888 7.65239
108 1 -4.48943 10.3185 4.01196
109 1 -3.58618 9.65805 6.38038
110 1 -4.06828 12.1771 5.91086
133 1 0.30682 6.69601 4.72991
148 1 1.49051 7.29878 2.48009
150 1 -1.90031 9.1836 2.96221
151 1 -1.00757 11.6406 2.42327
152 1 -2.13692 10.9527 4.75751
153 1 1.44982 9.70046 1.1767
155 1 1.23783 7.35793 7.6052
158 1 -1.0366 11.5988 7.65421
160 1 0.231098 10.2883 4.22573
20 2 -5.89773 10.4957 3.36973
49 2 2.22626 8.54765 7.04823
18 2 -1.29767 6.72368 10.6576
25 2 -2.93655 8.49658 12.4203
27 2 -3.7452 10.7572 10.5924
50 2 -1.24476 10.6165 8.85997
52 2 2.08267 8.51314 12.4639
53 2 -1.41977 10.5391 14.1912
111 1 -3.64486 7.22775 12.9574
112 1 -2.02004 8.08795 11.196
113 1 -4.80704 10.4478 14.6779
114 1 -6.25601 11.608 12.8849
115 1 -4.64696 10.0832 9.52844
116 1 -3.6846 9.73245 11.8048
117 1 -4.32152 12.2209 11.0832
138 1 0.196716 6.99099 9.96345
145 1 -0.0204322 6.56831 15.4079
157 1 -1.81698 9.21193 8.26992
159 1 -2.3745 11.1149 9.88863
163 1 1.22961 7.26674 13.0688
165 1 -1.98424 9.12286 13.5559
166 1 0.11029 10.259 14.7759
167 1 -1.28299 11.5991 12.9446
168 1 -2.35996 10.9278 15.3962
169 1 0.21916 10.3102 9.45504
170 1 1.2188 9.72097 11.8205
23 2 -6.07742 10.3613 8.81805
26 2 -6.25103 10.4845 13.9907
21 2 -3.85644 10.8034 15.8718
196 1 8.84688 5.55579 1.09797
204 1 8.73882 5.32146 6.50281
203 1 7.59275 5.99417 4.28218
193 1 5.7425 4.72981 2.81681
198 1 10.4646 3.49152 5.99746
56 2 8.57109 2.09352 3.5534
197 1 8.60176 3.13511 7.88064
136 1 5.51308 3.62915 6.08552
60 2 11.0976 2.28007 5.24744
64 2 9.70658 4.34565 1.71312
65 2 6.19535 6.0713 3.49555
67 2 9.60159 4.19074 7.1391
131 1 5.65439 3.75483 0.452451
33 2 6.20277 2.4098 5.35726
172 1 13.1282 0.638982 3.04204
173 1 7.99299 0.814408 2.7759
174 1 7.58511 2.5847 4.69389
176 1 11.3843 1.11627 1.18034
180 1 12.5507 2.55839 4.56772
181 1 10.07 1.89602 4.14112
182 1 11.2007 1.06809 6.25616
190 1 8.74336 3.27487 2.50423
191 1 10.4278 3.61214 0.521216
192 1 10.6798 4.90484 2.89259
55 2 12.3014 0.0102884 1.82562
31 2 7.24427 0.0162878 7.03386
71 2 5.85139 6.16556 14.2474
213 1 8.49657 5.26242 11.7644
212 1 7.38169 6.07665 9.5347
209 1 7.35372 5.96178 14.7637
36 2 6.0506 2.32035 10.7192
59 2 8.62177 1.94609 9.05185
208 1 5.2116 4.83678 13.7199
62 2 8.41141 1.92939 14.2625
63 2 11.0564 2.36298 10.6513
68 2 5.98322 6.30671 8.81317
70 2 9.45161 4.18841 12.4803
30 2 5.87513 2.32996 15.8355
142 1 5.64593 3.7249 11.395
175 1 12.2124 2.50875 15.181
207 1 10.2827 4.85276 13.6284
178 1 7.97978 0.673064 8.30897
179 1 7.57232 2.28403 10.2408
183 1 12.877 0.648962 13.4469
184 1 7.69548 0.663559 13.6283
185 1 9.81892 1.68836 14.8979
186 1 7.31817 2.45763 15.2414
187 1 12.5524 2.47098 10.1423
188 1 10.2237 1.85893 9.38538
189 1 11.003 1.19191 11.7521
199 1 10.6123 4.86615 8.22056
177 1 12.9164 0.652994 8.13918
205 1 8.64465 2.89595 13.054
206 1 10.4481 3.64306 11.3186
200 1 5.45775 4.89844 8.30535
61 2 11.9296 0.0455691 12.3124
57 2 10.83 2.26261 15.934
232 1 5.90319 12.1432 6.02646
227 1 3.73237 11.5646 7.45754
42 2 3.76018 6.60772 5.39055
229 1 7.8477 10.8295 4.61462
51 2 1.33074 10.7733 5.31595
230 1 5.29234 10.371 4.18399
69 2 8.66036 6.45305 5.43038
73 2 7.31119 8.42427 1.64551
74 2 3.88285 10.4988 3.50711
231 1 6.37759 9.72869 6.34663
76 2 7.04726 8.46094 6.99493
78 2 6.36464 10.8287 5.22427
149 1 3.03762 7.95479 0.482486
154 1 0.724787 12.3195 0.499008
156 1 3.2371 8.04791 5.94931
162 1 0.806657 12.2123 5.87299
194 1 5.17543 6.56082 4.59265
202 1 10.0989 6.67681 4.79205
214 1 6.49984 7.25934 2.36282
215 1 8.13669 7.91617 0.436009
216 1 8.23858 9.09497 2.74475
217 1 3.35009 9.19716 2.76249
218 1 4.06474 11.5932 2.31662
219 1 2.76373 10.8023 4.60376
221 1 6.38735 9.60248 1.10785
222 1 5.94082 12.2049 0.696914
223 1 6.15301 7.37038 7.63384
224 1 8.11089 7.80029 6.03698
75 2 6.30453 10.8035 0.0118027
48 2 1.27332 10.8328 0.0145058
58 2 4.75479 12.7032 6.92324
242 1 6.128 9.6258 11.7297
243 1 5.40942 12.1256 11.1447
45 2 3.52588 6.61152 10.6726
54 2 1.16407 10.8263 10.6606
72 2 8.44982 6.41929 10.6905
77 2 3.66746 10.5342 8.7164
79 2 6.96633 8.41445 12.4199
80 2 3.52138 10.5843 14.1762
81 2 6.02774 10.7599 10.5304
164 1 3.08864 8.01055 11.3311
171 1 0.551034 12.1799 11.3067
195 1 9.86292 6.77542 15.1786
201 1 4.94122 6.86425 9.91551
210 1 4.89672 6.92547 15.2463
211 1 9.93573 6.46587 10.1056
220 1 7.42549 10.8217 15.2345
225 1 7.89499 9.00818 8.26513
226 1 3.10917 9.0374 8.31742
228 1 2.58401 10.9576 9.87965
233 1 5.96241 7.18713 12.9956
234 1 7.98053 7.81633 11.3113
235 1 7.89496 9.06234 13.5585
236 1 3.01567 9.18116 13.629
237 1 4.93674 10.4481 14.8303
238 1 3.6793 11.6674 13.0323
239 1 2.43641 11.0496 15.298
240 1 7.53567 10.9323 10.0011
241 1 5.23122 10.3638 9.19897
66 2 8.44397 6.57893 15.7957
39 2 3.43358 6.66145 15.9485
ITEM: TIMESTEP
300
ITEM: NUMBER OF ATOMS
243
ITEM: BOX BOUNDS xy xz yz pp pp pp
-7.6648620000000003e+00 1.4691300000000000e+01 -7.3456000000000001e+00
0.0000000000000000e+00 1.2723000000000001e+01 -3.1926199999999999e-01
0.0000000000000000e+00 1.5963100000000001e+01 0.0000000000000000e+00
ITEM: ATOMS id type x y z
134 1 3.86405 5.45243 1.14657
139 1 2.70139 6.04303 4.29213
38 2 1.31804 6.24176 3.5127
6 2 1.37813 2.32423 5.3316
10 2 -0.0975028 4.27878 1.81649
13 2 -0.216465 4.26963 7.20772
93 1 -2.16615 6.00507 4.31562
29 2 3.8864 2.07999 3.46937
140 1 3.86659 5.47637 6.51769
1 2 2.42207 0.0662892 1.7819
37 2 4.8055 4.26104 1.67671
40 2 4.7139 4.26521 7.13258
82 1 1.52029 1.2766 1.17903
83 1 0.368161 1.98492 4.04454
84 1 1.33182 1.12706 6.35622
88 1 -1.07374 3.08685 2.28296
89 1 0.780837 3.77632 0.594819
90 1 -0.89278 5.61162 1.27143
91 1 -1.19066 3.11368 7.6837
92 1 0.739468 3.55801 6.13376
135 1 3.72677 3.20438 7.78068
94 1 -1.09874 5.40045 6.5227
118 1 3.38456 0.6227 2.95305
119 1 2.86207 2.56615 4.67191
120 1 6.29886 1.20321 1.01478
123 1 5.45609 1.84025 3.91929
124 1 6.41553 1.30933 6.47622
130 1 3.87799 3.12793 2.27532
132 1 0.807466 4.86281 2.99372
2 2 -1.13688 2.08641 3.5168
28 2 7.14714 0.0750446 1.7577
11 2 -3.54679 6.24348 3.5922
4 2 2.26098 0.0267289 7.02757
3 2 1.29907 2.3866 0.0156144
31 2 7.18309 0.011931 7.00457
41 2 1.13506 6.31504 8.92004
9 2 1.13231 2.28235 10.5942
16 2 -0.443596 4.23099 12.3316
32 2 3.66356 1.91599 8.8257
14 2 -3.72255 6.21894 8.91147
35 2 3.38309 2.00654 14.1229
5 2 -1.29616 1.98811 8.88455
43 2 4.62072 4.23697 12.4022
44 2 1.04567 6.26249 14.1678
85 1 0.043677 1.93425 14.7562
86 1 0.272044 1.78648 9.33172
87 1 1.06694 1.2608 11.7509
95 1 -1.4328 3.16452 12.9945
96 1 0.50671 3.68919 11.1998
97 1 -2.46717 5.92053 14.8971
98 1 -2.3065 5.96405 9.55672
99 1 -1.29198 5.49861 11.8357
121 1 3.25887 0.610951 8.07817
122 1 2.60252 2.33333 9.95246
125 1 2.83952 0.637744 13.4881
126 1 4.82644 1.70837 14.7625
127 1 2.38139 2.57977 15.225
128 1 5.13165 1.8704 9.43196
129 1 6.05398 1.1057 11.7027
137 1 0.52097 4.91842 8.4987
141 1 3.61101 3.06142 12.9125
143 1 0.486402 4.88366 13.4536
144 1 2.42579 5.91196 14.8225
146 1 2.58539 6.34986 9.49167
147 1 3.7398 5.36214 11.6028
7 2 1.93824 0.034683 12.3487
8 2 -1.4364 2.11309 14.1865
49 2 2.19573 8.40753 7.05167
15 2 -1.11409 6.48279 5.43312
19 2 -2.54751 8.55428 1.76481
161 1 1.38251 9.71737 6.4339
22 2 -2.70406 8.46645 7.10048
24 2 -3.60527 10.7014 5.29086
160 1 0.32342 10.2991 4.15365
47 2 -1.17838 10.6435 3.5511
20 2 -5.949 10.4997 3.43506
100 1 -3.39226 7.31743 2.44742
101 1 -1.55494 8.02412 0.637856
102 1 -5.86507 11.6239 2.27587
103 1 -3.53985 9.57573 0.973051
104 1 -4.16432 12.0846 0.555465
105 1 -3.57256 7.31721 7.78011
106 1 -1.6433 7.8876 6.01403
107 1 -5.83771 11.5608 7.67665
108 1 -4.5051 10.3584 4.04714
109 1 -3.61205 9.49141 6.26765
110 1 -4.22828 12.0112 5.94038
133 1 0.294875 6.64308 4.72234
148 1 1.5762 7.38743 2.4013
150 1 -1.74472 9.25719 2.97442
151 1 -1.01637 11.7475 2.43877
152 1 -2.11449 10.9342 4.77521
153 1 1.39689 9.7384 1.12213
155 1 1.26379 7.23112 7.6376
158 1 -1.13036 11.6462 7.65867
18 2 -1.35896 6.56258 10.6642
25 2 -2.86021 8.62347 12.4199
27 2 -3.73186 10.8513 10.5743
50 2 -1.22365 10.5569 8.83214
52 2 2.13291 8.57562 12.3674
53 2 -1.42983 10.5034 14.1856
111 1 -3.75767 7.32254 12.9331
112 1 -1.93857 7.88247 11.3435
113 1 -4.79589 10.3335 14.7151
114 1 -6.21794 11.431 12.7446
115 1 -4.62507 10.3756 9.37404
116 1 -3.68857 9.80011 11.7919
117 1 -4.53764 12.171 11.1371
138 1 0.045136 6.88913 9.99888
145 1 -0.0996254 6.85009 15.121
157 1 -1.87852 9.19691 8.26469
159 1 -2.24865 11.0022 10.0119
163 1 1.32371 7.32904 12.9423
165 1 -2.02191 9.1131 13.7714
166 1 0.049806 10.3568 14.727
167 1 -1.42802 11.5685 13.0292
168 1 -2.38111 11.0409 15.3457
169 1 0.201197 10.3349 9.4967
170 1 1.23568 9.70894 11.7027
23 2 -6.09927 10.441 8.81358
21 2 -3.83807 10.7675 15.8459
26 2 -6.21497 10.4402 14.0161
34 2 -0.437238 12.6812 12.3611
12 2 -1.45058 6.60314 15.9329
196 1 8.93425 5.61508 1.11374
204 1 8.6929 5.45563 6.59166
203 1 7.64214 5.91398 4.21795
193 1 5.75366 4.83629 2.85596
198 1 10.4763 3.50718 6.1026
56 2 8.64812 2.09568 3.50715
197 1 8.56778 3.18945 7.81097
136 1 5.56587 3.69945 5.96326
60 2 11.1202 2.25271 5.31332
64 2 9.6386 4.30383 1.7191
65 2 6.23652 6.23737 3.45516
67 2 9.52153 4.23142 7.14088
131 1 5.69626 3.6742 0.483724
33 2 6.24336 2.39956 5.24687
172 1 13.0429 0.650635 2.97835
173 1 8.1116 0.757949 2.84425
174 1 7.72571 2.61402 4.71748
176 1 11.2787 1.17993 1.11185
180 1 12.4923 2.59388 4.5909
181 1 10.159 1.90103 4.12566
182 1 11.4111 1.07166 6.31557
190 1 8.63352 3.2319 2.41138
191 1 10.5262 3.65045 0.589606
192 1 10.5445 4.92428 2.89539
55 2 12.2537 0.0686822 1.74464
71 2 5.99378 6.3185 14.1432
213 1 8.50931 5.28367 11.6733
212 1 7.42468 6.19517 9.44295
209 1 7.40649 6.07776 14.7907
36 2 6.1198 2.25171 10.6114
59 2 8.54719 2.04054 8.91295
208 1 5.4003 4.95051 13.5828
62 2 8.44533 1.84837 14.1986
63 2 11.0294 2.40001 10.63
68 2 6.0048 6.34026 8.81444
70 2 9.37303 4.23175 12.4118
30 2 5.92525 2.30509 15.779
142 1 5.58567 3.58667 11.338
175 1 12.2158 2.53196 15.2981
207 1 10.19 4.79354 13.6339
178 1 8.17724 0.665544 8.13475
179 1 7.60955 2.36327 10.127
183 1 12.8223 0.716854 13.5606
184 1 7.79532 0.509079 13.5727
185 1 9.9162 1.62869 14.7735
186 1 7.43262 2.45304 15.2409
187 1 12.5088 2.66016 10.0182
188 1 10.0256 1.8614 9.49566
189 1 11.1322 1.27512 11.8074
199 1 10.3563 4.82717 8.38845
177 1 12.7528 0.594073 8.34521
205 1 8.39052 2.92245 12.9946
206 1 10.3958 3.70833 11.2669
200 1 5.49281 4.91784 8.29673
61 2 11.9743 0.0585311 12.3956
17 2 10.8188 6.20094 14.1165
57 2 10.8052 2.22929 15.9487
232 1 5.61877 11.9408 5.89673
227 1 3.74626 11.4911 7.52819
42 2 3.78673 6.56961 5.34227
229 1 7.7423 10.9695 4.5997
51 2 1.37044 10.7967 5.2441
230 1 5.2932 10.257 4.0801
69 2 8.62291 6.51839 5.35685
73 2 7.28063 8.54897 1.72107
74 2 3.83506 10.4958 3.45354
231 1 6.23058 9.68033 6.44261
76 2 7.11324 8.4448 7.02673
78 2 6.28186 10.6761 5.199
149 1 3.23609 7.94645 0.439233
154 1 0.668483 12.16 0.610791
156 1 3.23272 7.8592 5.95484
162 1 0.810767 12.1588 5.84738
194 1 5.20512 6.7175 4.56593
202 1 10.0626 6.76827 4.66539
214 1 6.43499 7.23626 2.26216
215 1 8.16887 7.98122 0.563331
216 1 8.1784 9.12834 2.87333
217 1 3.39739 9.0884 2.86241
218 1 4.00873 11.5463 2.28977
219 1 2.80986 10.9404 4.57056
221 1 6.38865 9.77903 1.13334
222 1 6.00804 12.3208 0.643573
223 1 6.23934 7.28858 7.55726
224 1 7.96391 7.86399 5.87528
58 2 4.78025 12.5893 7.03032
75 2 6.41223 10.9225 0.00820187
46 2 2.39568 8.5531 1.72162
242 1 6.17197 9.67284 11.6799
243 1 5.45517 12.1657 11.175
45 2 3.63845 6.63367 10.6631
54 2 1.28189 10.8794 10.5929
72 2 8.45314 6.51141 10.5964
77 2 3.63013 10.4558 8.74991
79 2 7.05459 8.49351 12.3054
80 2 3.50105 10.6696 14.2396
81 2 6.05445 10.7934 10.5706
164 1 3.13667 7.93532 11.3938
171 1 0.611925 12.1112 11.2711
195 1 9.8374 6.90117 15.2215
201 1 4.97735 6.91823 9.87764
210 1 4.86856 6.76601 15.252
211 1 9.88872 6.76793 9.91983
220 1 7.47667 11.0214 15.1906
225 1 8.04542 9.06099 8.17453
226 1 3.01589 9.02616 8.27382
228 1 2.71222 11.0478 9.92213
233 1 6.12143 7.35823 12.8904
234 1 7.9951 7.89537 11.1745
235 1 7.8924 9.0839 13.5215
236 1 2.91695 9.24154 13.618
237 1 4.96544 10.548 14.8673
238 1 3.68485 11.6731 13.0465