ITEM: TIMESTEP
0
ITEM: NUMBER OF ATOMS
243
ITEM: BOX BOUNDS xy xz yz pp pp pp
-7.1986879999999998e+00 1.4397474000000001e+01 -7.1986879999999998e+00
0.0000000000000000e+00 1.2723000000000001e+01 0.0000000000000000e+00
0.0000000000000000e+00 1.5963100000000001e+01 0.0000000000000000e+00
ITEM: ATOMS id type x y z
134 1 3.71721 5.62945 1.22538
139 1 2.79217 6.14883 4.03709
31 2 6.97309 0.0202689 7.01734
6 2 1.44959 2.35454 5.33539
10 2 -0.0390023 4.28614 1.74312
13 2 -0.222241 4.28715 7.03388
93 1 -1.99319 6.11276 4.04481
29 2 3.76456 2.10353 3.50832
140 1 3.78841 5.4476 6.45084
1 2 2.23811 0.111152 1.7336
37 2 4.62194 4.40254 1.76119
40 2 4.62677 4.31541 7.12148
82 1 1.276 1.24783 1.14951
83 1 0.441217 1.81378 4.21593
84 1 1.67159 1.24249 6.47239
88 1 -0.789508 3.10124 2.39925
89 1 0.928909 3.68999 0.660708
90 1 -0.823625 5.50469 1.12237
91 1 -1.14958 3.24337 7.77253
92 1 0.669403 3.57576 5.9709
135 1 3.77503 3.21437 7.89294
94 1 -0.978701 5.44752 6.26287
118 1 3.18172 0.689869 2.90145
119 1 2.87209 2.67339 4.71555
120 1 6.02665 1.13728 0.99193
123 1 5.25256 2.02117 4.06932
124 1 6.10897 1.17901 6.38083
130 1 3.6626 3.23321 2.31805
132 1 0.85287 4.93765 2.9555
2 2 -0.951622 2.00379 3.51177
28 2 6.97113 0.138599 1.76996
41 2 1.30432 6.20177 8.846
9 2 1.25964 2.29902 10.5993
16 2 -0.110963 4.29919 12.33
32 2 3.72865 1.98873 8.89948
14 2 -3.5355 6.28635 8.75149
35 2 3.72175 2.01186 14.0514
7 2 2.25822 0.0266733 12.3447
43 2 4.62521 4.31198 12.4145
44 2 1.38942 6.28958 14.1171
85 1 0.415127 1.77005 14.7745
86 1 0.352156 1.8024 9.31302
87 1 1.30604 1.24002 11.7668
95 1 -0.855023 3.07583 13.0059
96 1 0.686611 3.6887 11.0735
97 1 -2.02548 5.97449 14.9366
98 1 -2.13232 6.06799 9.42475
99 1 -1.08231 5.4504 11.8429
121 1 3.30707 0.630868 8.23926
122 1 2.66032 2.2906 9.98211
125 1 3.23727 0.58557 13.4423
126 1 5.18713 2.04174 14.6171
127 1 2.78818 2.44179 15.2737
128 1 5.13521 1.87744 9.53915
129 1 6.24924 1.25187 11.7438
137 1 0.658474 4.9351 8.16817
141 1 3.72909 3.09644 12.8823
143 1 0.867907 4.98094 13.4033
144 1 2.76299 6.17145 14.8795
146 1 2.71575 5.96173 9.53323
147 1 3.79418 5.4212 11.6584
8 2 -0.996234 1.90294 14.1568
17 2 -3.37168 6.202 14.178
3 2 1.31208 2.30422 15.9009
5 2 -1.12488 2.01703 8.80078
34 2 7.0855 0.0925119 12.4616
21 2 -3.56038 10.6784 0.0339124
15 2 -0.996975 6.55497 5.14261
19 2 -2.44203 8.56542 1.75997
161 1 1.33735 9.53316 6.38498
22 2 -2.50219 8.48645 7.02775
24 2 -3.40408 10.8004 5.22823
46 2 2.20413 8.63884 1.76037
47 2 -1.01641 10.4938 3.57017
49 2 2.34096 8.43724 7.00953
100 1 -3.41593 7.42181 2.31197
101 1 -1.73602 8.03501 0.412366
102 1 -5.88796 11.6662 2.30429
103 1 -3.46939 9.69505 1.31053
104 1 -4.05455 12.0472 0.698388
105 1 -3.31696 7.27254 7.5125
106 1 -1.5052 7.86851 5.91095
107 1 -5.65729 11.5417 7.57468
108 1 -4.48461 10.5183 4.11155
109 1 -3.27002 9.64002 6.26704
110 1 -3.86312 12.0916 5.91862
133 1 0.435277 6.84609 4.60779
148 1 1.2503 7.49101 2.32503
150 1 -1.58027 9.16953 2.88099
151 1 -0.88045 11.5344 2.32216
152 1 -1.99901 11.0115 4.6431
153 1 1.37103 9.80813 1.14974
155 1 1.43216 7.2792 7.6779
158 1 -1.03964 11.5626 7.73267
160 1 0.416262 10.3241 4.17914
20 2 -5.84854 10.4673 3.32957
11 2 -3.41962 6.36419 3.48466
38 2 1.37115 6.37368 3.43182
4 2 -4.76069 12.7082 7.03774
18 2 -1.17479 6.48842 10.5757
25 2 -2.53675 8.47673 12.4405
27 2 -3.48471 10.7994 10.6603
50 2 -1.14685 10.4492 8.8847
12 2 -1.01485 6.59072 15.9075
53 2 -1.12468 10.4827 14.1866
111 1 -3.33021 7.34713 13.0513
112 1 -1.68213 7.8434 11.2775
113 1 -4.52933 10.1757 14.8834
114 1 -5.79987 11.5765 13.082
115 1 -4.36577 10.2618 9.4199
116 1 -3.37691 9.73001 11.8316
117 1 -4.16613 12.1999 11.0991
138 1 0.272733 6.74299 9.99282
145 1 0.411406 6.86366 15.3117
157 1 -1.83438 9.06553 8.36018
159 1 -1.97279 10.9971 10.1204
163 1 1.53041 7.31479 12.9244
165 1 -1.58632 9.12109 13.539
166 1 0.276602 10.2795 14.88
167 1 -1.05128 11.6753 13.1519
168 1 -2.06553 10.8411 15.3834
169 1 0.326658 10.2182 9.44422
170 1 1.40112 9.66796 11.8265
26 2 -5.91442 10.4988 14.2541
23 2 -5.86108 10.478 8.76788
196 1 8.52199 5.38976 1.09168
204 1 8.57927 5.36499 6.489
203 1 7.60568 6.06229 4.15714
193 1 5.54962 4.90407 2.90069
198 1 10.463 3.62179 5.90755
56 2 8.52654 2.08712 3.5295
197 1 8.80173 3.08419 7.78139
136 1 5.61567 3.6327 6.10163
60 2 10.9178 2.2454 5.21253
64 2 9.48117 4.30037 1.75998
65 2 6.17266 6.17906 3.59156
67 2 9.54921 4.25975 7.05663
131 1 5.52986 3.5789 0.653458
33 2 6.17255 2.36119 5.35981
172 1 12.8206 0.58076 3.0388
173 1 7.85136 0.799415 2.88417
174 1 7.58196 2.5658 4.70567
176 1 10.993 1.2478 1.25296
180 1 12.3226 2.49354 4.53073
181 1 9.98779 1.86487 4.05362
182 1 11.0409 1.02903 6.22285
190 1 8.6015 3.06482 2.26755
191 1 10.4957 3.69387 0.683174
192 1 10.2999 5.04869 2.90425
55 2 11.8533 0.0823296 1.90038
57 2 10.9774 2.33043 0.0344504
71 2 6.02887 6.28049 14.163
213 1 8.56152 5.45058 11.8713
212 1 7.48414 6.00516 9.57115
209 1 7.46347 5.88884 14.6486
36 2 6.18852 2.39018 10.5855
59 2 8.55684 1.98483 8.84366
208 1 5.3791 4.99892 13.6074
62 2 8.57618 1.9903 14.2549
63 2 10.8689 2.13959 10.6528
68 2 6.12957 6.18391 8.82243
70 2 9.45673 4.18554 12.3711
30 2 6.15214 2.33267 15.9001
142 1 5.65847 3.73825 11.2885
175 1 12.438 2.57337 15.295
207 1 10.4133 4.84035 13.4934
178 1 7.86354 0.77784 8.08276
179 1 7.68464 2.40303 10.0806
183 1 12.8254 0.501276 13.5534
184 1 8.04164 0.660715 13.6173
185 1 10.006 1.84393 14.8186
186 1 7.6402 2.44886 15.3964
187 1 12.3171 2.45674 10.0595
188 1 9.93465 1.6184 9.4554
189 1 11.0103 1.10288 11.8973
199 1 10.3958 4.90929 8.16254
177 1 12.7858 0.617699 8.08536
205 1 8.6322 3.08265 13.1217
206 1 10.241 3.51983 11.1781
200 1 5.54178 4.86587 8.27795
232 1 5.73043 12.0178 5.99876
227 1 3.76291 11.5116 7.75212
42 2 3.7533 6.51099 5.29446
229 1 7.53211 10.7966 4.61284
51 2 1.36521 10.7915 5.35978
230 1 5.08667 10.3327 4.15234
69 2 8.58469 6.50691 5.35957
73 2 7.08922 8.41563 1.6819
74 2 3.66402 10.5061 3.53875
231 1 6.17213 9.52486 6.45788
76 2 7.16588 8.44161 7.05473
78 2 6.13496 10.622 5.31156
149 1 3.27455 8.03664 0.715085
154 1 0.755439 12.3037 0.650796
156 1 3.25164 7.90939 5.82076
162 1 0.746002 12.0724 5.99569
194 1 5.18848 6.64766 4.76072
202 1 10.0488 6.74917 4.69995
214 1 6.2014 7.31073 2.46661
215 1 7.90519 7.73263 0.512663
216 1 8.03174 9.10967 2.73827
217 1 3.06369 9.10326 3.0023
218 1 3.80383 11.5882 2.44167
219 1 2.75795 11.1122 4.74136
221 1 6.16139 9.56635 1.09102
222 1 5.57367 12.0737 0.76573
223 1 6.24963 7.24615 7.59042
224 1 8.07865 7.92271 5.85564
75 2 6.13269 10.7246 0.0448067
58 2 4.65034 12.5801 6.98702
39 2 3.77499 6.67125 0.0428902
48 2 1.23174 10.8774 0.0339623
242 1 6.46386 9.78086 11.7203
243 1 5.47122 11.9803 11.2139
45 2 3.74463 6.56981 10.5408
54 2 1.2638 10.7324 10.6212
72 2 8.50604 6.46965 10.6482
77 2 3.74683 10.42 8.82468
79 2 7.15127 8.48774 12.4018
80 2 3.67757 10.4873 14.285
81 2 6.18376 10.7699 10.5554
164 1 3.318 7.99475 11.1982
171 1 0.64359 12.1136 11.2441
195 1 9.89287 6.61982 15.2183
201 1 5.1222 6.81358 9.83581
210 1 5.18057 6.81613 15.4108
211 1 9.79737 6.71439 9.79312
220 1 7.49949 10.991 15.3622
225 1 7.99 9.07939 8.19469
226 1 3.25363 9.10983 8.09925
228 1 2.71435 10.8337 9.97432
233 1 6.19258 7.33454 12.9863
234 1 8.0773 7.80949 11.2944
235 1 7.9774 9.07737 13.5998
236 1 3.19852 9.16208 13.5449
237 1 5.13196 10.3318 14.8235
238 1 3.7101 11.594 13.101
239 1 2.66787 11.0018 15.3634
240 1 7.5633 11.0942 9.87169
241 1 5.23508 10.2867 9.41228
61 2 4.69919 12.6417 12.4491
66 2 8.42919 6.40163 15.8535
52 2 2.37764 8.56078 12.4006
ITEM: TIMESTEP
100
ITEM: NUMBER OF ATOMS
243
ITEM: BOX BOUNDS xy xz yz pp pp pp
-7.1986879999999998e+00 1.4397474000000001e+01 -7.1986879999999998e+00
0.0000000000000000e+00 1.2723000000000001e+01 0.0000000000000000e+00
0.0000000000000000e+00 1.5963100000000001e+01 0.0000000000000000e+00
ITEM: ATOMS id type x y z
134 1 3.79055 5.5168 1.15458
139 1 2.87721 6.03938 4.08423
31 2 7.04626 0.00555627 7.01837
6 2 1.47797 2.36197 5.28477
10 2 -0.0289899 4.31243 1.75079
13 2 -0.143162 4.24843 7.02483
93 1 -1.92839 6.16066 4.1358
29 2 3.85742 2.11989 3.50935
140 1 3.65928 5.42372 6.50447
1 2 2.37058 0.225516 1.77395
37 2 4.62726 4.3215 1.73845
40 2 4.58192 4.25243 7.11794
82 1 1.58715 1.46495 1.10051
83 1 0.528896 1.74831 4.10106
84 1 1.52477 1.32062 6.51786
88 1 -0.751266 3.03925 2.36477
89 1 0.855524 3.81744 0.496594
90 1 -1.06426 5.45379 1.23691
91 1 -0.97611 3.06822 7.71021
92 1 0.827972 3.71231 5.92155
135 1 3.65369 3.16049 7.82345
94 1 -1.08382 5.39584 6.45885
118 1 3.21306 0.724695 3.01534
119 1 2.97154 2.61486 4.82522
120 1 5.96265 1.36938 1.07272
123 1 5.32697 1.83921 3.99791
124 1 6.05258 1.13111 6.43188
130 1 3.73215 3.173 2.28089
132 1 0.803122 4.94815 2.91179
2 2 -0.95261 2.02954 3.57001
28 2 6.86903 0.108258 1.61181
11 2 -3.41884 6.32697 3.55967
4 2 2.41697 0.124824 7.14927
38 2 1.4628 6.35233 3.47569
41 2 1.29389 6.23688 8.74363
9 2 1.30654 2.24977 10.6439
16 2 -0.0949176 4.31023 12.4252
32 2 3.77732 2.07635 9.03768
14 2 -3.44681 6.15037 8.8886
35 2 3.75406 2.02465 13.9784
7 2 2.21588 0.0360732 12.3904
43 2 4.65225 4.35812 12.3935
44 2 1.30951 6.31821 14.2366
85 1 0.43256 1.90755 14.8182
86 1 0.349408 1.75251 9.43775
87 1 1.25987 1.15688 11.8369
95 1 -1.06441 3.14706 13.0042
96 1 0.805055 3.68455 11.2219
97 1 -2.01677 6.16231 14.8112
98 1 -2.00966 6.05439 9.53148
99 1 -0.826394 5.58776 11.8311
121 1 3.31157 0.675178 8.38976
122 1 2.76059 2.52071 10.1114
125 1 3.23914 0.629323 13.4368
126 1 5.27256 1.91288 14.5754
127 1 2.7829 2.58806 15.096
128 1 5.28776 2.03938 9.57053
129 1 6.15138 1.18119 11.9167
137 1 0.745496 4.84419 8.22319
141 1 3.64597 3.19155 12.8309
143 1 0.750445 4.84417 13.6957
144 1 2.78795 6.22021 14.8
146 1 2.70717 6.15223 9.41571
147 1 3.94634 5.54653 11.6126
8 2 -0.979481 2.00062 14.1265
3 2 1.42528 2.48845 15.847
17 2 -3.41559 6.22797 14.1065
21 2 -3.45388 10.8731 0.018922
15 2 -0.990854 6.54782 5.34193
19 2 -2.501 8.52421 1.77301
161 1 1.37647 9.78764 6.5537
22 2 -2.57212 8.51965 7.06789
24 2 -3.4037 10.7916 5.19443
46 2 2.25803 8.63188 1.77946
47 2 -1.00921 10.5208 3.46633
49 2 2.26137 8.5238 7.03039
100 1 -3.48382 7.40154 2.42073
101 1 -1.46836 7.87541 0.727785
102 1 -5.66721 11.6234 2.30323
103 1 -3.37751 9.6189 1.05016
104 1 -3.93179 12.2805 0.654639
105 1 -3.41019 7.32489 7.78082
106 1 -1.4381 7.91017 6.07776
107 1 -5.74483 11.5946 7.67877
108 1 -4.35644 10.3067 3.97061
109 1 -3.39863 9.62485 6.32505
110 1 -3.98209 12.1265 5.93849
133 1 0.519022 6.73763 4.75799
148 1 1.40159 7.38799 2.29326
150 1 -1.51642 9.13227 2.87949
151 1 -1.13447 11.671 2.24885
152 1 -1.93917 11.0417 4.61961
153 1 1.38119 9.87133 1.14693
155 1 1.35211 7.24862 7.55638
158 1 -1.11419 11.6022 7.63028
160 1 0.50871 10.3477 4.06357
20 2 -5.75628 10.3795 3.32266
12 2 -1.03727 6.53729 0.0399869
18 2 -1.05667 6.57819 10.6182
25 2 -2.57567 8.44178 12.3594
27 2 -3.50872 10.7484 10.649
50 2 -1.13927 10.5797 8.89816
52 2 2.21012 8.50702 12.5055
53 2 -1.13707 10.3684 14.2001
111 1 -3.36486 7.2744 12.9934
112 1 -1.60613 7.95457 11.2234
113 1 -4.40473 10.3971 14.7661
114 1 -5.75927 11.5403 12.9957
115 1 -4.35204 10.141 9.3559
116 1 -3.47015 9.61253 11.7773
117 1 -4.1538 12.1583 11.1406
138 1 0.31702 6.78875 9.93398
145 1 0.44685 6.79556 15.4574
157 1 -1.67732 9.14703 8.20805
159 1 -2.00952 11.0122 10.1158
163 1 1.24818 7.30839 12.9691
165 1 -1.63201 8.99292 13.5594
166 1 0.411386 10.3308 14.7798
167 1 -1.10239 11.5243 13.0895
168 1 -1.97872 10.8492 15.4259
169 1 0.304477 10.3063 9.55201
170 1 1.36665 9.63154 11.7933
23 2 -5.83314 10.4861 8.85382
26 2 -5.87292 10.4841 14.1868
34 2 -0.133512 12.6985 12.4905
196 1 8.4573 5.4652 1.17413
204 1 8.56902 5.41898 6.62503
203 1 7.60909 5.91903 4.17025
193 1 5.55547 4.84034 2.90332
198 1 10.4478 3.59868 5.89363
56 2 8.48394 2.11329 3.51234
197 1 8.75471 3.05525 7.74371
136 1 5.45321 3.59903 5.96982
60 2 10.9502 2.28682 5.19369
64 2 9.45042 4.33563 1.72747
65 2 6.12525 6.15568 3.61469
67 2 9.58738 4.1911 7.04688
131 1 5.52232 3.84081 0.479616
33 2 6.15335 2.3283 5.32322
172 1 12.931 0.58437 3.03945
173 1 7.84534 0.781942 2.79593
174 1 7.62213 2.52439 4.7729
176 1 11.3038 1.32056 1.2584
180 1 12.4621 2.57382 4.68263
181 1 9.95289 1.70808 4.03533
182 1 11.1056 1.11172 6.27152
190 1 8.55787 3.2155 2.38358
191 1 10.5504 3.66358 0.656247
192 1 10.3504 5.0035 2.83182
71 2 6.03876 6.23663 14.2012
213 1 8.67217 5.23246 11.6925
212 1 7.47764 6.09166 9.44104
209 1 7.61133 5.99689 14.6706
36 2 6.27903 2.2973 10.7785
59 2 8.61266 1.9473 8.87258
208 1 5.40084 4.86046 13.7068
62 2 8.55353 1.94149 14.2961
63 2 10.9753 2.12652 10.7267
68 2 6.04987 6.27544 8.75634
70 2 9.50943 4.05885 12.3807
30 2 6.10495 2.39265 15.8631
142 1 5.76315 3.73424 11.4171
175 1 12.4161 2.48547 15.2865
207 1 10.5328 4.81251 13.4379
178 1 7.87337 0.596413 8.25171
179 1 7.70782 2.47838 10.0107
183 1 12.8974 0.589183 13.4896
184 1 7.95068 0.561706 13.6385
185 1 9.91584 1.70506 15.0015
186 1 7.59369 2.51959 15.3917
187 1 12.4856 2.33741 10.181
188 1 9.99737 1.61793 9.5367
189 1 10.9893 1.1429 11.9533
199 1 10.4907 4.79037 8.19132
177 1 12.5889 0.614515 8.32141
205 1 8.58742 3.01793 13.0636
206 1 10.4487 3.56437 11.2148
200 1 5.39492 4.87414 8.37029
5 2 13.2742 1.94515 8.8843
57 2 11.0083 2.32104 15.9371
232 1 5.78293 12.084 6.00245
227 1 3.90156 11.461 7.61079
42 2 3.74306 6.50346 5.35662
229 1 7.69501 11.0171 4.56247
51 2 1.38695 10.7948 5.30068
230 1 5.257 10.2603 4.09498
69 2 8.54796 6.45315 5.34911
73 2 7.01386 8.45468 1.72131
74 2 3.77203 10.5472 3.5716
231 1 6.38698 9.53498 6.29584
76 2 7.17907 8.41823 7.07159
78 2 6.26952 10.7523 5.27568
149 1 3.11369 8.08725 0.583218
154 1 0.715058 12.316 0.43595
156 1 3.15272 7.90226 5.84735
162 1 0.790588 12.1675 5.87682
194 1 5.23993 6.585 4.88909
202 1 10.0543 6.64548 4.80746
214 1 6.14386 7.25939 2.44664
215 1 7.81979 7.84845 0.497624
216 1 8.11775 9.00818 2.74436
217 1 3.25046 9.17368 2.90071
218 1 3.76138 11.718 2.43802
219 1 2.97131 10.9003 4.96081
221 1 6.17239 9.70237 1.2163
222 1 5.73043 12.0729 0.697559
223 1 6.26607 7.21531 7.49264
224 1 8.17386 7.89675 5.92281
39 2 3.77511 6.68121 0.0820219
58 2 4.73719 12.7019 7.01343
55 2 4.80918 12.7214 1.85348
242 1 6.12283 9.5578 11.6371
243 1 5.39321 11.9971 11.1319
45 2 3.59067 6.72189 10.5367
54 2 1.3653 10.7616 10.6144
72 2 8.52106 6.47545 10.5931
77 2 3.77252 10.4128 8.80408
79 2 7.06501 8.55132 12.4523
80 2 3.68471 10.4527 14.1873
81 2 6.13565 10.7179 10.5358
164 1 3.12435 8.03336 11.3247
171 1 0.808595 12.1029 11.3369
195 1 9.97649 6.54063 15.2811
201 1 5.03359 6.97418 9.82826
210 1 5.22432 6.82777 15.4604
211 1 9.93742 6.70716 9.94451
220 1 7.59301 10.8987 15.4257
225 1 7.86927 9.22659 8.29473
226 1 3.27241 9.0421 8.19493
228 1 2.8074 10.8452 9.95682
233 1 6.07685 7.40085 13.1014
234 1 8.06299 7.76665 11.4037
235 1 8.02732 9.15307 13.4579
236 1 3.08247 9.067 13.6949
237 1 5.12353 10.3308 14.7918
238 1 3.77655 11.4851 12.9912
239 1 2.8298 11.1669 15.3916
240 1 7.63975 10.9596 10.0572
241 1 5.23555 10.1884 9.2694
61 2 4.7024 12.6656 12.4292
66 2 8.47503 6.50233 15.9256
75 2 6.15391 10.7147 15.9231
48 2 1.35166 10.9143 15.963
ITEM: TIMESTEP
200
ITEM: NUMBER OF ATOMS
243
ITEM: BOX BOUNDS xy xz yz pp pp pp
-7.1986879999999998e+00 1.4397474000000001e+01 -7.1986879999999998e+00
0.0000000000000000e+00 1.2723000000000001e+01 0.0000000000000000e+00
0.0000000000000000e+00 1.5963100000000001e+01 0.0000000000000000e+00
ITEM: ATOMS id type x y z
134 1 3.73812 5.5882 1.03201
139 1 2.80848 6.11841 4.1422
31 2 7.05149 0.0566845 7.07255
6 2 1.5322 2.38094 5.42251
10 2 -0.11914 4.28697 1.69284
13 2 -0.1329 4.19838 7.08956
93 1 -1.89679 6.2753 4.07998
29 2 3.82603 2.08575 3.41097
140 1 3.71846 5.36409 6.47012
1 2 2.41949 0.139516 1.67689
37 2 4.67771 4.43268 1.63473
40 2 4.58296 4.22841 7.17739
82 1 1.47315 1.25672 1.01887
83 1 0.650459 1.90517 4.20022
84 1 1.50434 1.31641 6.63532
88 1 -0.89595 3.00236 2.29983
89 1 0.767255 3.76349 0.497568
90 1 -1.07444 5.45404 1.18338
91 1 -0.97889 2.89796 7.54069
92 1 0.897313 3.70921 5.98867
135 1 3.75992 3.0527 7.78285
94 1 -0.979031 5.37179 6.41618
118 1 3.17073 0.725131 2.9793
119 1 2.98181 2.62714 4.70748
120 1 5.98114 1.28578 0.988422
123 1 5.21234 1.77796 4.04967
124 1 6.06511 1.21231 6.56782
130 1 3.81768 3.25694 2.29515
132 1 0.766938 4.99924 2.809
2 2 -0.781924 1.97325 3.54235
28 2 6.89237 0.120203 1.67959
11 2 -3.35466 6.1979 3.53642
4 2 2.33666 0.043905 7.12568
38 2 1.35888 6.327 3.46922
41 2 1.27896 6.27641 8.81208
9 2 1.34742 2.33951 10.6779
16 2 -0.109523 4.23668 12.4672
32 2 3.74416 1.9853 8.98311
14 2 -3.39987 6.16187 8.89796
35 2 3.66747 2.17386 14.0055
5 2 -0.980639 1.97129 8.80884
34 2 7.0553 0.0389782 12.4654
44 2 1.26129 6.2157 14.2422
85 1 0.36444 1.7772 14.7013
86 1 0.393073 1.83837 9.52343
87 1 1.37395 1.10554 11.7166
95 1 -1.02361 2.98896 12.9325
96 1 0.873527 3.73931 11.2917
97 1 -1.96626 5.9885 14.7175
98 1 -1.99387 5.90953 9.63945
99 1 -0.864545 5.54702 11.8702
121 1 3.28043 0.572253 8.28002
122 1 2.80991 2.53568 10.1171
125 1 3.146 0.779106 13.4682
126 1 5.15729 1.88581 14.6022
127 1 2.69942 2.62379 15.1646
128 1 5.15745 1.94598 9.66852
129 1 6.20466 1.28591 11.8945
137 1 0.634508 4.84357 8.37327
141 1 3.81292 3.16047 12.7531
143 1 0.742272 4.72023 13.7216
144 1 2.78935 6.06662 14.7119
146 1 2.68608 6.04664 9.42387
147 1 3.8901 5.57456 11.6939
8 2 -1.08365 1.99034 14.1094
3 2 1.3013 2.3617 15.8553
17 2 -3.42688 6.18027 14.0691
160 1 0.342683 10.3991 4.08652
15 2 -0.970168 6.53736 5.32539
19 2 -2.65607 8.54436 1.81285
161 1 1.24545 9.76459 6.44406
22 2 -2.51118 8.48705 7.10895
24 2 -3.43619 10.7494 5.36703
20 2 -5.63248 10.4756 3.37067
47 2 -1.10268 10.6038 3.57995
49 2 2.14974 8.57234 6.98104
100 1 -3.49942 7.31232 2.39961
101 1 -1.72259 7.80486 0.709511
102 1 -5.72478 11.6753 2.22107
103 1 -3.45132 9.6805 1.03201
104 1 -3.74592 12.2564 0.629348
105 1 -3.33275 7.24899 7.72632
106 1 -1.46618 7.87385 6.05141
107 1 -5.83867 11.5999 7.72457
108 1 -4.22648 10.3971 4.01062
109 1 -3.49617 9.60714 6.45202
110 1 -3.95892 12.1559 5.95407
133 1 0.446854 6.82591 4.71597
148 1 1.41011 7.44584 2.3444
150 1 -1.7496 9.3117 2.87881
151 1 -1.10962 11.6784 2.43794
152 1 -1.96304 10.9703 4.88478
153 1 1.58183 9.70564 1.14878
155 1 1.16897 7.38978 7.56607
158 1 -1.03132 11.5756 7.6779
18 2 -0.983741 6.6084 10.6936
25 2 -2.59124 8.47931 12.4173
27 2 -3.47752 10.6923 10.6116
50 2 -1.07556 10.5879 8.85953
52 2 2.06768 8.5311 12.4164
53 2 -1.04115 10.4907 14.1099
111 1 -3.35275 7.18677 12.8876
112 1 -1.61494 7.98684 11.2472
113 1 -4.32711 10.4902 14.7042
114 1 -5.8219 11.5877 13.0744
115 1 -4.30348 10.2098 9.38014
116 1 -3.50282 9.60794 11.8204
117 1 -4.05506 12.0815 11.1804
138 1 0.386883 6.95302 9.99503
145 1 0.359736 6.85568 15.3973
157 1 -1.72874 9.25729 8.27953
159 1 -2.04234 11.0389 10.0783
163 1 1.28002 7.27259 12.976
165 1 -1.72003 9.14526 13.5871
166 1 0.498067 10.2521 14.6771
167 1 -1.03813 11.5163 12.8783
168 1 -1.8716 11.1075 15.4
169 1 0.399259 10.4821 9.45803
170 1 1.20812 9.70707 11.7271
23 2 -5.78987 10.4039 8.81841
26 2 -5.86653 10.5158 14.179
7 2 -4.92304 12.717 12.3918
12 2 -1.11942 6.51264 15.9601
21 2 -3.32357 10.922 15.931
196 1 8.55246 5.43073 1.14879
204 1 8.64679 5.42752 6.5907
203 1 7.68308 5.93578 4.24199
193 1 5.59541 5.00719 2.80965
198 1 10.3631 3.63886 5.88996
56 2 8.54384 2.09004 3.5401
197 1 8.69662 3.09686 7.80218
136 1 5.55974 3.64445 6.01059
60 2 11.0156 2.37483 5.23876
64 2 9.54181 4.34044 1.70449
65 2 6.16806 6.21168 3.61423
67 2 9.55177 4.20474 7.10928
131 1 5.50287 3.67089 0.501547
33 2 6.03655 2.22495 5.3671
172 1 13.0913 0.567357 3.04105
173 1 7.90576 0.72348 2.88689
174 1 7.49377 2.43882 4.72433
176 1 11.1005 1.37809 1.36469
180 1 12.4792 2.50396 4.54963
181 1 9.97935 1.83131 4.16959
182 1 11.1784 1.24928 6.35889
190 1 8.62664 3.22776 2.46338
191 1 10.2931 3.70609 0.469491
192 1 10.5691 4.88501 2.76857
55 2 12.0108 0.0771406 1.91913
57 2 10.9192 2.31564 0.0528728
58 2 11.9372 0.0586934 7.03824
71 2 6.11935 6.34882 14.1904
213 1 8.54485 5.2919 11.7532
212 1 7.568 5.94399 9.43826
209 1 7.63737 5.98966 14.6393
36 2 6.20227 2.35335 10.7348
59 2 8.61527 1.90685 8.88024
208 1 5.42792 4.97621 13.6874
62 2 8.55869 1.90936 14.2827
63 2 11.0246 2.1239 10.5771
68 2 6.14382 6.24862 8.76871
70 2 9.44875 4.1772 12.3984
30 2 6.07626 2.34562 15.8137
142 1 5.88905 3.80479 11.3338
175 1 12.3607 2.50837 15.3338
207 1 10.4504 4.82697 13.4432
178 1 7.99027 0.616239 8.2129
179 1 7.63848 2.21706 10.1139
183 1 12.8221 0.606589 13.5823
184 1 7.82038 0.636678 13.73
185 1 9.91753 1.65093 14.9834
186 1 7.59488 2.47553 15.3623
187 1 12.4258 2.49028 9.94091
188 1 10.1585 1.65679 9.34854
189 1 10.9873 1.03478 11.7585
199 1 10.479 4.84675 8.21476
177 1 12.7864 0.601131 8.2654
205 1 8.6772 3.00199 13.1924
206 1 10.2901 3.41979 11.1651
200 1 5.59413 4.83327 8.23449
43 2 4.71269 4.39756 12.3464
232 1 5.76882 12.0927 6.01294
227 1 3.74197 11.6581 7.57403
42 2 3.75061 6.52483 5.3397
229 1 7.80541 10.9264 4.57218
51 2 1.31747 10.8526 5.31129
230 1 5.37569 10.4072 4.01177
69 2 8.66772 6.44666 5.40833
73 2 7.18725 8.48376 1.74458
74 2 3.8139 10.5895 3.61769
231 1 6.26198 9.60315 6.2726
76 2 7.12992 8.45659 6.94712
78 2 6.31184 10.8468 5.24521
149 1 3.30567 7.99326 0.62139
154 1 0.647691 12.1817 0.563055
156 1 3.15735 7.96526 5.89138
162 1 0.836454 12.2714 5.93818
194 1 5.24125 6.59538 4.85778
202 1 10.063 6.57725 4.71282
214 1 6.27096 7.42376 2.54168
215 1 7.88267 7.75743 0.536377
216 1 8.21104 9.12807 2.75237
217 1 3.18664 9.30206 2.99336
218 1 3.74287 11.7718 2.58337
219 1 2.81715 10.966 4.81893
221 1 6.25818 9.57914 1.08646
222 1 5.57487 12.0407 0.743792
223 1 6.31123 7.18343 7.49075
224 1 8.08675 7.90501 5.82936
46 2 2.3955 8.5661 1.82798
242 1 6.17633 9.67675 11.7234
243 1 5.71594 12.0985 11.1719
45 2 3.66746 6.58559 10.5399
54 2 1.37326 10.8481 10.6868
72 2 8.53374 6.45793 10.6792
77 2 3.74674 10.5608 8.76107
79 2 7.03621 8.5041 12.4338
80 2 3.71488 10.4511 14.1799
81 2 6.14957 10.6947 10.5162
164 1 2.97376 7.91288 11.1577
171 1 0.873438 12.1842 11.3664
195 1 10.0498 6.76902 15.2829
201 1 5.0879 6.75292 9.84346
210 1 5.25634 6.84945 15.4443
211 1 10.0244 6.76716 10.0633
220 1 7.59542 11.0169 15.3512
225 1 8.09627 9.07157 8.10929
226 1 3.06721 9.14969 8.19142
228 1 2.8208 10.8745 10.0357
233 1 6.01039 7.39989 13.0652
234 1 7.88114 7.80319 11.2699
235 1 7.95319 9.16589 13.6026
236 1 3.06242 9.13615 13.569
237 1 5.14669 10.3248 14.8132
238 1 3.89372 11.4704 12.9904
239 1 2.76035 11.0877 15.2947
240 1 7.65339 10.8523 10.0755
241 1 5.27075 10.3033 9.19567
61 2 4.75391 12.6495 12.3255
66 2 8.584 6.47166 15.8761
39 2 3.73589 6.66459 15.8562
48 2 1.31305 10.7612 15.9321
75 2 6.15071 10.7555 15.9522
ITEM: TIMESTEP
300
ITEM: NUMBER OF ATOMS
243
ITEM: BOX BOUNDS xy xz yz pp pp pp
-7.1986879999999998e+00 1.4397474000000001e+01 -7.1986879999999998e+00
0.0000000000000000e+00 1.2723000000000001e+01 0.0000000000000000e+00
0.0000000000000000e+00 1.5963100000000001e+01 0.0000000000000000e+00
ITEM: ATOMS id type x y z
134 1 3.72503 5.58925 1.07919
139 1 2.90307 6.29282 4.09611
31 2 7.0703 0.0843915 7.08109
6 2 1.56912 2.34471 5.36288
10 2 -0.0924088 4.29745 1.7754
13 2 -0.0310215 4.27666 6.95069
93 1 -1.99312 6.17283 4.09178
29 2 3.84746 2.04285 3.41846
140 1 3.71667 5.49235 6.43561
1 2 2.30674 0.104404 1.64794
38 2 1.39323 6.2985 3.56003
40 2 4.76032 4.27497 6.94791
82 1 1.38859 1.19747 1.00417
83 1 0.491038 1.868 4.30301
84 1 1.59971 1.29769 6.55923
88 1 -0.874615 3.06688 2.407
89 1 0.768084 3.66733 0.550252
90 1 -1.09203 5.30748 1.08329
91 1 -0.896381 3.0699 7.6296
92 1 1.08246 3.70588 5.94831
135 1 3.90386 3.10878 7.63802
94 1 -0.966577 5.39366 6.26928
118 1 3.19893 0.816231 2.79856
119 1 3.06109 2.55771 4.68687
120 1 6.2573 1.2817 1.1231
123 1 5.25327 1.77947 4.07098
124 1 6.19742 1.30527 6.50669
130 1 3.85974 3.23389 2.31323
132 1 0.911978 4.88735 2.92014
2 2 -0.910055 2.02767 3.63868
28 2 7.04583 0.0741959 1.72524
11 2 -3.40668 6.22688 3.42127
37 2 4.66284 4.38949 1.61973
41 2 1.2833 6.27035 8.85994
9 2 1.34175 2.34304 10.6106
16 2 -0.145665 4.21279 12.4463
32 2 3.74468 2.01227 8.77286
14 2 -3.45877 6.20429 8.95544
35 2 3.69001 2.12571 14.0321
5 2 -1.04857 2.00775 8.80575
34 2 7.07758 0.0321716 12.4326
44 2 1.23551 6.29003 14.1948
85 1 0.439346 1.84217 14.6396
86 1 0.443694 1.93691 9.3989
87 1 1.33517 1.20024 11.733
95 1 -1.05357 3.04309 12.954
96 1 0.892008 3.68492 11.3585
97 1 -2.00629 6.0759 14.7404
98 1 -2.01203 6.11528 9.65007
99 1 -0.968342 5.425 11.8445
121 1 3.22002 0.551333 8.36014
122 1 2.83433 2.44455 9.9971
125 1 3.19153 0.664824 13.524
126 1 5.07943 1.97682 14.7299
127 1 2.69349 2.63332 15.1923
128 1 5.22524 1.75535 9.39793
129 1 6.2136 1.2136 11.7656
137 1 0.635599 4.99577 8.17937
141 1 3.81148 3.11967 12.8243
143 1 0.721664 4.91685 13.6056
144 1 2.76604 6.10538 14.7169
146 1 2.72636 5.93535 9.43268
147 1 3.94693 5.55844 11.7576
7 2 2.23207 0.0509713 12.3262
3 2 1.34351 2.35471 15.8787
17 2 -3.4836 6.19369 14.0801
8 2 -1.07582 1.90299 14.0632
160 1 0.443369 10.4585 3.98419
15 2 -1.03357 6.62901 5.27266
19 2 -2.62221 8.54082 1.72432
161 1 1.22903 9.6575 6.39692
22 2 -2.51905 8.47199 7.12114
24 2 -3.41028 10.7423 5.28837
20 2 -5.72126 10.4998 3.48179
47 2 -1.10716 10.522 3.46787
49 2 2.2979 8.60553 7.11954
100 1 -3.56427 7.37759 2.29239
101 1 -1.84119 7.81423 0.50898
102 1 -5.69162 11.6519 2.33008
103 1 -3.30787 9.82355 1.0979
104 1 -3.98807 12.252 0.506136
105 1 -3.37662 7.2568 7.79184
106 1 -1.55788 7.98167 5.94666
107 1 -5.66235 11.5185 7.73025
108 1 -4.25974 10.2564 4.0549
109 1 -3.4504 9.49492 6.31452
110 1 -4.01877 12.0662 5.96358
133 1 0.439961 6.82393 4.77859
148 1 1.3511 7.46732 2.49662
150 1 -1.68475 9.07286 2.93709
151 1 -1.0952 11.6571 2.36815
152 1 -1.93035 10.9669 4.72424
153 1 1.47844 9.61463 1.07711
155 1 1.50877 7.40324 7.75825
158 1 -1.09036 11.7394 7.79213
46 2 2.32988 8.49833 1.81313
12 2 -1.09967 6.50011 0.0304625
4 2 -4.85614 12.7019 7.12856
18 2 -0.978147 6.63285 10.744
25 2 -2.57864 8.53077 12.4094
27 2 -3.42433 10.7824 10.5831
50 2 -1.01419 10.5029 8.85747
52 2 2.23626 8.49941 12.2858
53 2 -0.974789 10.388 14.1279
111 1 -3.5021 7.44173 13.1136
112 1 -1.55932 7.93446 11.4049
113 1 -4.42022 10.404 14.7712
114 1 -5.89333 11.6583 13.0447
115 1 -4.33031 10.201 9.42401
116 1 -3.39565 9.76062 11.8063
117 1 -4.05603 12.1671 11.156
138 1 0.423718 6.79247 10.0964
145 1 0.354155 6.68973 15.4207
157 1 -1.56303 9.07541 8.36955
159 1 -1.94128 11.0105 10.074
163 1 1.3161 7.40696 13.0847
165 1 -1.69307 9.10615 13.5981
166 1 0.429244 10.1541 14.7471
167 1 -0.952601 11.5139 12.9719
168 1 -1.94341 11.0012 15.3118
169 1 0.507865 10.4389 9.43986
170 1 1.29469 9.73795 11.7714
23 2 -5.77162 10.3213 8.77803
26 2 -5.89816 10.6016 14.2008
21 2 -3.42644 10.8642 15.9135
196 1 8.53872 5.4314 1.06194
204 1 8.5853 5.56279 6.64557
203 1 7.61049 5.73993 4.09871
193 1 5.61713 5.07981 2.65959
198 1 10.3238 3.61239 6.02303
56 2 8.59877 1.94258 3.51193
197 1 8.57223 3.11187 7.80599
136 1 5.59353 3.6653 5.71889
60 2 10.9287 2.31757 5.36899
64 2 9.49566 4.30474 1.62721
65 2 6.1511 6.26554 3.56143
67 2 9.49685 4.29575 7.19949
131 1 5.59885 3.78982 0.465981
33 2 6.16861 2.24574 5.22215
172 1 12.9527 0.636479 3.08115
173 1 8.18203 0.663702 2.69176
174 1 7.69511 2.35375 4.80154
176 1 11.2267 1.40894 1.35707
180 1 12.4004 2.53734 4.75151
181 1 10.02 1.76249 4.19569
182 1 11.1261 1.15006 6.50241
190 1 8.67191 3.1739 2.45062
191 1 10.2355 3.63632 0.479487
192 1 10.499 4.85202 2.78482
55 2 11.9882 0.123868 1.90228
57 2 10.984 2.29762 0.0288681
58 2 12.0606 0.00523725 7.02897
71 2 6.10087 6.3442 14.1742
213 1 8.49434 5.31314 11.7515
212 1 7.57856 6.20674 9.46179
209 1 7.65696 6.20425 14.6361
36 2 6.17017 2.3005 10.609
59 2 8.59342 1.96107 8.89354
208 1 5.66725 4.95869 13.5422
62 2 8.51747 1.91774 14.2362
63 2 11.0144 2.30732 10.724
68 2 6.15853 6.27319 8.74729
70 2 9.37149 4.19669 12.4078
30 2 6.1178 2.35263 15.907
142 1 5.65932 3.70225 11.181
175 1 12.3426 2.39608 15.18
207 1 10.3403 4.79819 13.4835
178 1 8.13844 0.590786 8.18071
179 1 7.6183 2.49287 10.0656
183 1 12.8277 0.580968 13.4222
184 1 7.79396 0.568484 13.705
185 1 9.9187 1.66262 14.9713
186 1 7.6136 2.57087 15.4107
187 1 12.4374 2.3925 10.0682
188 1 10.0318 1.69693 9.5091
189 1 10.9715 1.22569 11.8889
199 1 10.4684 4.79078 8.35642
177 1 13.0279 0.637188 8.05235
205 1 8.57169 2.99213 13.076
206 1 10.2878 3.69046 11.2276
200 1 5.6524 4.90159 8.05248
43 2 4.7911 4.29407 12.3435
232 1 5.5468 12.0468 5.72035
227 1 3.93044 11.6912 7.738
42 2 3.75528 6.67151 5.36284
229 1 7.77787 10.9981 4.73003
51 2 1.24556 10.8023 5.28747
230 1 5.29726 10.2926 3.99869
69 2 8.58045 6.39074 5.23975
73 2 7.18553 8.56242 1.7202
74 2 3.7404 10.626 3.61592
231 1 6.32575 9.62645 6.36604
76 2 7.21275 8.40453 6.90983
78 2 6.2526 10.7388 5.18809
149 1 3.29348 7.96594 0.672272
154 1 0.629247 12.0574 0.592431
156 1 3.21654 8.07016 5.96381
162 1 0.618531 12.2073 5.79138
194 1 5.24889 6.66639 4.79785
202 1 10.0407 6.49201 4.64391
214 1 6.40991 7.53306 2.63056
215 1 8.04645 7.90913 0.544336
216 1 8.10916 9.22886 2.76269
217 1 3.16706 9.32642 2.90697
218 1 3.7864 11.7719 2.5052
219 1 2.79861 11.0931 4.83653
221 1 6.25819 9.711 1.1076
222 1 5.59013 12.2071 0.691191
223 1 6.22872 7.32076 7.54933
224 1 7.97696 7.82025 5.5731
75 2 6.15763 10.8794 0.027081
242 1 6.25149 9.72894 11.7455
243 1 5.63768 12.1532 11.1198
45 2 3.77687 6.51514 10.5041
54 2 1.42525 10.8733 10.7055
72 2 8.46527 6.50357 10.7555
77 2 3.78121 10.5759 8.89881
79 2 7.10415 8.54494 12.4001
80 2 3.71329 10.4861 14.1283
81 2 6.20783 10.7526 10.5812
164 1 3.06271 7.87585 11.0585
171 1 0.803031 12.239 11.2398
195 1 9.97764 6.57329 15.3623
201 1 5.19659 6.76616 9.84871
210 1 5.22525 6.84146 15.4295
211 1 9.89897 6.67905 10.0815
220 1 7.6203 10.9372 15.4512
225 1 8.09482 8.99085 8.09392
226 1 3.10604 9.27924 8.26745
228 1 2.91669 10.9948 10.1576
233 1 6.16095 7.493 13.0089
234 1 8.00457 7.92203 11.3036
235 1 7.96006 9.25636 13.5523
236 1 3.18576 9.17464 13.3844
237 1 5.15332 10.3457 14.8451
238 1 3.85567 11.5831 12.9502
239 1 2.74216 11.0913 15.1836