ITEM: TIMESTEP
0
ITEM: NUMBER OF ATOMS
243
ITEM: BOX BOUNDS xy xz yz pp pp pp
-7.3456000000000001e+00 1.4691300000000000e+01 -7.3456000000000001e+00
0.0000000000000000e+00 1.2723000000000001e+01 0.0000000000000000e+00
0.0000000000000000e+00 1.6282361999999999e+01 0.0000000000000000e+00
ITEM: ATOMS id type x y z
134 1 3.79307 5.62945 1.24988
139 1 2.84915 6.14883 4.11783
31 2 7.1154 0.0202689 7.15769
6 2 1.47918 2.35454 5.4421
10 2 -0.0397982 4.28614 1.77798
13 2 -0.226776 4.28715 7.17456
93 1 -2.03386 6.11276 4.12571
29 2 3.84138 2.10353 3.57849
140 1 3.86572 5.4476 6.57986
1 2 2.28378 0.111152 1.76827
37 2 4.71626 4.40254 1.79641
40 2 4.7212 4.31541 7.26391
82 1 1.30205 1.24783 1.1725
83 1 0.450221 1.81378 4.30025
84 1 1.7057 1.24249 6.60184
88 1 -0.805621 3.10124 2.44723
89 1 0.947866 3.68999 0.673922
90 1 -0.840433 5.50469 1.14482
91 1 -1.17304 3.24337 7.92799
92 1 0.683064 3.57576 6.09032
135 1 3.85207 3.21437 8.05079
94 1 -0.998675 5.44752 6.38813
118 1 3.24665 0.689869 2.95948
119 1 2.9307 2.67339 4.80986
120 1 6.14964 1.13728 1.01177
123 1 5.35975 2.02117 4.15071
124 1 6.23364 1.17901 6.50844
130 1 3.73735 3.23321 2.36441
132 1 0.870275 4.93765 3.01461
2 2 -0.971043 2.00379 3.582
28 2 7.11339 0.138599 1.80535
41 2 1.33094 6.20177 9.02292
9 2 1.28535 2.29902 10.8113
16 2 -0.113228 4.29919 12.5766
32 2 3.80474 1.98873 9.07746
14 2 -3.60765 6.28635 8.92652
35 2 3.7977 2.01186 14.3324
7 2 2.3043 0.0266733 12.5916
43 2 4.7196 4.31198 12.6628
44 2 1.41777 6.28958 14.3994
85 1 0.423599 1.77005 15.07
86 1 0.359343 1.8024 9.49928
87 1 1.33269 1.24002 12.0021
95 1 -0.872473 3.07583 13.2661
96 1 0.700623 3.6887 11.295
97 1 -2.06682 5.97449 15.2353
98 1 -2.17584 6.06799 9.61325
99 1 -1.1044 5.4504 12.0797
121 1 3.37457 0.630868 8.40404
122 1 2.71462 2.2906 10.1818
125 1 3.30334 0.58557 13.7111
126 1 5.29299 2.04174 14.9095
127 1 2.84508 2.44179 15.5792
128 1 5.24001 1.87744 9.72993
129 1 6.37677 1.25187 11.9786
137 1 0.671913 4.9351 8.33153
141 1 3.8052 3.09644 13.1399
143 1 0.885619 4.98094 13.6714
144 1 2.81938 6.17145 15.1771
146 1 2.77117 5.96173 9.7239
147 1 3.87161 5.4212 11.8916
8 2 -1.01657 1.90294 14.4399
17 2 -3.44049 6.202 14.4616
3 2 1.33886 2.30422 16.2189
5 2 -1.14784 2.01703 8.97679
34 2 7.2301 0.0925119 12.7108
21 2 -3.63304 10.6784 0.0345907
15 2 -1.01732 6.55497 5.24546
19 2 -2.49187 8.56542 1.79517
161 1 1.36464 9.53316 6.51268
22 2 -2.55325 8.48645 7.1683
24 2 -3.47355 10.8004 5.3328
46 2 2.24911 8.63884 1.79558
47 2 -1.03715 10.4938 3.64157
49 2 2.38873 8.43724 7.14972
100 1 -3.48564 7.42181 2.35821
101 1 -1.77145 8.03501 0.420613
102 1 -6.00812 11.6662 2.35038
103 1 -3.54019 9.69505 1.33674
104 1 -4.1373 12.0472 0.712356
105 1 -3.38465 7.27254 7.66275
106 1 -1.53592 7.86851 6.02917
107 1 -5.77274 11.5417 7.72618
108 1 -4.57613 10.5183 4.19379
109 1 -3.33675 9.64002 6.39238
110 1 -3.94196 12.0916 6.037
133 1 0.44416 6.84609 4.69994
148 1 1.27581 7.49101 2.37153
150 1 -1.61252 9.16953 2.93861
151 1 -0.898418 11.5344 2.36861
152 1 -2.03981 11.0115 4.73596
153 1 1.39901 9.80813 1.17274
155 1 1.46139 7.2792 7.83145
158 1 -1.06086 11.5626 7.88733
160 1 0.424757 10.3241 4.26272
20 2 -5.9679 10.4673 3.39616
11 2 -3.48941 6.36419 3.55436
38 2 1.39914 6.37368 3.50045
4 2 -4.85785 12.7082 7.1785
18 2 -1.19876 6.48842 10.7872
25 2 -2.58852 8.47673 12.6893
27 2 -3.55583 10.7994 10.8735
50 2 -1.17025 10.4492 9.0624
12 2 -1.03557 6.59072 16.2257
53 2 -1.14763 10.4827 14.4704
111 1 -3.39818 7.34713 13.3124
112 1 -1.71646 7.8434 11.5031
113 1 -4.62177 10.1757 15.1811
114 1 -5.91824 11.5765 13.3437
115 1 -4.45487 10.2618 9.6083
116 1 -3.44582 9.73001 12.0682
117 1 -4.25115 12.1999 11.3211
138 1 0.278299 6.74299 10.1927
145 1 0.419802 6.86366 15.6179
157 1 -1.87182 9.06553 8.52738
159 1 -2.01305 10.9971 10.3228
163 1 1.56164 7.31479 13.1829
165 1 -1.61869 9.12109 13.8097
166 1 0.282247 10.2795 15.1776
167 1 -1.07273 11.6753 13.415
168 1 -2.10768 10.8411 15.691
169 1 0.333325 10.2182 9.6331
170 1 1.42972 9.66796 12.063
26 2 -6.03512 10.4988 14.5391
23 2 -5.98069 10.478 8.94324
196 1 8.69591 5.38976 1.11351
204 1 8.75436 5.36499 6.61878
203 1 7.7609 6.06229 4.24028
193 1 5.66288 4.90407 2.95871
198 1 10.6765 3.62179 6.0257
56 2 8.70055 2.08712 3.60009
197 1 8.98136 3.08419 7.93702
136 1 5.73027 3.6327 6.22366
60 2 11.1406 2.2454 5.31678
64 2 9.67467 4.30037 1.79518
65 2 6.29863 6.17906 3.66339
67 2 9.74409 4.25975 7.19776
131 1 5.64271 3.5789 0.666527
33 2 6.29852 2.36119 5.46701
172 1 13.0822 0.58076 3.09958
173 1 8.01159 0.799415 2.94185
174 1 7.7367 2.5658 4.79978
176 1 11.2173 1.2478 1.27802
180 1 12.5741 2.49354 4.62134
181 1 10.1916 1.86487 4.1347
182 1 11.2662 1.02903 6.3473
190 1 8.77704 3.06482 2.3129
191 1 10.7099 3.69387 0.696837
192 1 10.5101 5.04869 2.96233
55 2 12.0952 0.0823296 1.93838
57 2 11.2015 2.33043 0.0351394
71 2 6.15191 6.28049 14.4462
213 1 8.73625 5.45058 12.1087
212 1 7.63687 6.00516 9.76257
209 1 7.61578 5.88884 14.9415
36 2 6.31482 2.39018 10.7972
59 2 8.73147 1.98483 9.02053
208 1 5.48888 4.99892 13.8796
62 2 8.7512 1.9903 14.54
63 2 11.0908 2.13959 10.8659
68 2 6.25467 6.18391 8.99888
70 2 9.64973 4.18554 12.6186
30 2 6.27769 2.33267 16.2181
142 1 5.77395 3.73825 11.5143
175 1 12.6919 2.57337 15.6009
207 1 10.6258 4.84035 13.7633
178 1 8.02402 0.77784 8.24442
179 1 7.84147 2.40303 10.2822
183 1 13.0872 0.501276 13.8245
184 1 8.20576 0.660715 13.8896
185 1 10.2102 1.84393 15.115
186 1 7.79612 2.44886 15.7043
187 1 12.5685 2.45674 10.2607
188 1 10.1374 1.6184 9.6445
189 1 11.235 1.10288 12.1353
199 1 10.608 4.90929 8.32579
177 1 13.0467 0.617699 8.24706
205 1 8.80837 3.08265 13.3842
206 1 10.45 3.51983 11.4016
200 1 5.65488 4.86587 8.44351
232 1 5.84738 12.0178 6.11874
227 1 3.83971 11.5116 7.90716
42 2 3.8299 6.51099 5.40035
229 1 7.68583 10.7966 4.7051
51 2 1.39307 10.7915 5.46698
230 1 5.19048 10.3327 4.23539
69 2 8.75989 6.50691 5.46676
73 2 7.2339 8.41563 1.71554
74 2 3.7388 10.5061 3.60953
231 1 6.29809 9.52486 6.58704
76 2 7.31212 8.44161 7.19582
78 2 6.26017 10.622 5.41779
149 1 3.34138 8.03664 0.729387
154 1 0.770856 12.3037 0.663812
156 1 3.318 7.90939 5.93717
162 1 0.761227 12.0724 6.11561
194 1 5.29437 6.64766 4.85593
202 1 10.2539 6.74917 4.79395
214 1 6.32796 7.31073 2.51594
215 1 8.06652 7.73263 0.522916
216 1 8.19566 9.10967 2.79304
217 1 3.12621 9.10326 3.06235
218 1 3.88145 11.5882 2.49051
219 1 2.81424 11.1122 4.83619
221 1 6.28714 9.56635 1.11284
222 1 5.68742 12.0737 0.781045
223 1 6.37717 7.24615 7.74223
224 1 8.24352 7.92271 5.97275
75 2 6.25785 10.7246 0.0457028
58 2 4.74524 12.5801 7.12676
39 2 3.85203 6.67125 0.043748
48 2 1.25687 10.8774 0.0346416
242 1 6.59578 9.78086 11.9547
243 1 5.58288 11.9803 11.4381
45 2 3.82105 6.56981 10.7516
54 2 1.28959 10.7324 10.8337
72 2 8.67963 6.46965 10.8611
77 2 3.8233 10.42 9.00117
79 2 7.29722 8.48774 12.6499
80 2 3.75262 10.4873 14.5707
81 2 6.30996 10.7699 10.7665
164 1 3.38571 7.99475 11.4221
171 1 0.656725 12.1136 11.469
195 1 10.0948 6.61982 15.5226
201 1 5.22673 6.81358 10.0325
210 1 5.28629 6.81613 15.719
211 1 9.99731 6.71439 9.98898
220 1 7.65254 10.991 15.6694
225 1 8.15306 9.07939 8.35858
226 1 3.32003 9.10983 8.26123
228 1 2.76975 10.8337 10.1738
233 1 6.31896 7.33454 13.2461
234 1 8.24214 7.80949 11.5203
235 1 8.14021 9.07737 13.8718
236 1 3.26379 9.16208 13.8158
237 1 5.23669 10.3318 15.12
238 1 3.78582 11.594 13.363
239 1 2.72232 11.0018 15.6707
240 1 7.71766 11.0942 10.0691
241 1 5.34192 10.2867 9.60052
61 2 4.79509 12.6417 12.6981
66 2 8.60121 6.40163 16.1706
52 2 2.42617 8.56078 12.6486
ITEM: TIMESTEP
100
ITEM: NUMBER OF ATOMS
243
ITEM: BOX BOUNDS xy xz yz pp pp pp
-7.3456000000000001e+00 1.4691300000000000e+01 -7.3456000000000001e+00
0.0000000000000000e+00 1.2723000000000001e+01 0.0000000000000000e+00
0.0000000000000000e+00 1.6282361999999999e+01 0.0000000000000000e+00
ITEM: ATOMS id type x y z
134 1 3.92212 5.5212 1.18142
139 1 2.90894 6.1077 4.27947
4 2 2.48356 0.0692995 7.20387
6 2 1.39792 2.30385 5.38838
10 2 0.0371193 4.32314 1.72011
13 2 -0.172431 4.25995 7.15348
93 1 -2.05996 6.11884 4.18807
29 2 3.81037 2.1331 3.64105
140 1 3.93248 5.50962 6.67679
1 2 2.41758 0.100574 1.82012
37 2 4.77113 4.29394 1.7953
40 2 4.726 4.25731 7.31073
82 1 1.56275 1.37966 1.14706
83 1 0.467329 1.85548 4.22712
84 1 1.51832 1.08955 6.44333
88 1 -0.851497 3.21488 2.41299
89 1 0.942274 3.7118 0.571633
90 1 -0.925792 5.50282 1.23038
91 1 -0.926647 3.0682 7.85686
92 1 0.854216 3.64921 6.1037
135 1 3.74675 3.16658 8.04425
94 1 -1.09539 5.35415 6.41
118 1 3.37078 0.76782 2.9537
119 1 2.8495 2.63788 4.7926
120 1 6.10442 1.26731 1.03296
123 1 5.31795 2.00866 4.23852
124 1 6.23871 1.09201 6.60225
130 1 3.80142 3.1457 2.38688
132 1 0.865018 4.95383 2.94221
2 2 -1.04709 2.09827 3.58252
28 2 7.12377 0.15234 1.69947
11 2 -3.51993 6.31749 3.64018
38 2 1.48104 6.33727 3.64242
41 2 1.25509 6.23682 8.92954
9 2 1.24215 2.2465 10.8448
16 2 0.000595202 4.27745 12.6572
32 2 3.8663 2.04819 9.24053
3 2 1.43012 2.37999 16.2046
35 2 3.86088 2.04346 14.3087
7 2 2.22414 0.019078 12.6117
43 2 4.70327 4.40969 12.6287
17 2 -3.48842 6.17877 14.3256
85 1 0.413411 1.79693 15.1234
86 1 0.26964 1.77731 9.68371
87 1 1.29643 1.2039 12.1133
95 1 -0.934242 3.12646 13.3
96 1 0.786417 3.66494 11.3809
97 1 -2.05129 6.15741 15.039
98 1 -2.10301 6.20828 9.74378
99 1 -0.913134 5.46021 11.9784
121 1 3.34283 0.701386 8.46098
122 1 2.81679 2.43294 10.405
125 1 3.43993 0.644407 13.5787
126 1 5.34742 1.93761 14.9001
127 1 2.81906 2.40426 15.4506
128 1 5.38685 1.87673 9.80761
129 1 6.37725 1.17429 12.0321
137 1 0.698937 4.92376 8.31289
141 1 3.7612 3.27938 13.2024
143 1 0.824592 5.01161 13.8207
144 1 2.7837 6.11952 15.2274
146 1 2.61528 6.18555 9.72243
147 1 3.88232 5.52925 11.9005
8 2 -0.979531 2.00095 14.4044
20 2 -5.86962 10.4682 3.43104
15 2 -1.03951 6.54945 5.3506
19 2 -2.61186 8.50025 1.81852
161 1 1.45531 9.73565 6.65627
22 2 -2.59293 8.46129 7.20217
24 2 -3.47495 10.8597 5.34097
31 2 -0.152203 12.7222 7.20962
47 2 -1.0943 10.5459 3.52067
49 2 2.40781 8.55086 7.23043
100 1 -3.51528 7.36972 2.45701
101 1 -1.61667 7.85095 0.694348
102 1 -5.77516 11.6256 2.38451
103 1 -3.48197 9.66033 1.06906
104 1 -4.15158 12.228 0.564761
105 1 -3.57773 7.28054 7.92757
106 1 -1.52787 7.80752 6.12554
107 1 -5.68033 11.5657 7.87285
108 1 -4.4505 10.3379 4.09333
109 1 -3.38824 9.6633 6.45581
110 1 -4.02336 12.1837 6.02219
133 1 0.446893 6.76191 4.80285
148 1 1.52578 7.44068 2.51422
150 1 -1.6277 9.15293 2.9661
151 1 -1.07491 11.6989 2.34928
152 1 -2.07538 11.1261 4.59515
153 1 1.46953 9.8311 1.19736
155 1 1.47253 7.30587 7.76072
158 1 -1.06759 11.5539 7.88017
160 1 0.411681 10.3807 4.14661
18 2 -1.10381 6.58953 10.8807
25 2 -2.51266 8.53726 12.6753
27 2 -3.58672 10.7397 10.8896
50 2 -1.15263 10.3827 9.01297
21 2 -3.63328 10.8265 16.2714
53 2 -1.11111 10.4517 14.4688
111 1 -3.49288 7.32802 13.2139
112 1 -1.57964 7.90941 11.5321
113 1 -4.59426 10.1557 15.1881
114 1 -5.88311 11.5827 13.368
115 1 -4.48 10.1053 9.67573
116 1 -3.41424 9.65121 12.0107
117 1 -4.27434 12.0708 11.4546
138 1 0.287389 6.76886 10.078
145 1 0.366648 6.82745 15.6712
157 1 -1.65729 9.00002 8.33088
159 1 -2.20586 10.92 10.1129
163 1 1.44097 7.36585 13.325
165 1 -1.59433 9.07873 13.8313
166 1 0.381994 10.3333 15.1926
167 1 -1.08067 11.5448 13.3054
168 1 -2.25555 10.9184 15.5361
169 1 0.252793 10.2001 9.73984
170 1 1.42203 9.69761 12.003
26 2 -6.00338 10.475 14.5194
23 2 -5.92081 10.441 9.03783
52 2 2.28411 8.57573 12.7206
34 2 -0.0834192 12.6989 12.7641
44 2 1.39005 6.37257 14.5427
12 2 -1.09493 6.53574 16.2727
196 1 8.79283 5.39544 1.11142
204 1 8.79641 5.38547 6.7204
203 1 7.7188 5.8863 4.32493
193 1 5.68763 4.84667 2.94257
198 1 10.5994 3.55845 5.99901
56 2 8.69377 2.10039 3.57764
197 1 8.92511 3.09424 7.94536
136 1 5.60066 3.55328 6.19882
60 2 11.159 2.24648 5.2762
64 2 9.71083 4.30006 1.79852
65 2 6.24654 6.13902 3.6389
67 2 9.79813 4.20498 7.20007
131 1 5.602 3.72288 0.538682
33 2 6.28543 2.29621 5.48703
172 1 13.2457 0.648237 3.0445
173 1 8.03866 0.865809 2.79745
174 1 7.76196 2.45459 4.86345
176 1 11.6168 1.29705 1.20708
180 1 12.6402 2.61646 4.73042
181 1 10.1785 1.67648 4.12022
182 1 11.3369 1.07517 6.33253
190 1 8.77694 3.27085 2.49968
191 1 10.7675 3.6091 0.723518
192 1 10.5688 5.03765 2.87245
55 2 12.3188 0.0126894 1.9045
71 2 6.1307 6.32644 14.4704
213 1 8.91057 5.40352 12.1144
212 1 7.54376 5.99292 9.75394
209 1 7.72853 5.99807 15.0088
36 2 6.33176 2.37821 10.9463
59 2 8.74949 1.9695 9.08492
208 1 5.52948 4.94952 13.8606
62 2 8.70983 1.97822 14.63
63 2 11.1354 2.12296 10.8879
68 2 6.13351 6.29475 8.98374
70 2 9.69826 4.1417 12.7058
30 2 6.21899 2.34669 16.1862
142 1 5.82843 3.74636 11.7012
175 1 12.6792 2.43888 15.5806
207 1 10.7999 4.74658 13.6661
178 1 8.06375 0.626655 8.48137
179 1 7.77603 2.55916 10.1844
183 1 13.1375 0.620709 13.7538
184 1 8.12382 0.692355 13.8711
185 1 10.0476 1.74857 15.436
186 1 7.68299 2.53236 15.6783
187 1 12.5788 2.39991 10.191
188 1 10.1342 1.64227 9.78499
189 1 11.2945 1.08598 12.0678
199 1 10.7292 4.80349 8.3773
177 1 12.9223 0.69029 8.31557
205 1 8.73599 3.09876 13.4367
206 1 10.6119 3.48923 11.5261
200 1 5.60021 4.83208 8.49702
5 2 13.5346 1.9893 8.98274
14 2 11.123 6.16686 9.09701
57 2 11.2302 2.30775 16.2571
232 1 5.8509 12.0087 6.10354
227 1 4.02866 11.5022 7.80396
42 2 3.853 6.58873 5.52434
229 1 7.78185 11.0738 4.56852
51 2 1.38285 10.7616 5.39378
230 1 5.35399 10.2924 4.20082
69 2 8.74921 6.38066 5.45773
73 2 7.23689 8.40847 1.71506
74 2 3.87523 10.5101 3.58937
231 1 6.58144 9.57584 6.45983
76 2 7.3394 8.40478 7.23591
78 2 6.39099 10.7282 5.38656
149 1 3.08253 8.00453 0.6
154 1 0.71712 12.3112 0.525087
156 1 3.26052 7.96428 6.00302
162 1 0.837271 12.0791 6.10451
194 1 5.30034 6.70693 4.8607
202 1 10.1876 6.67189 4.83907
214 1 6.45431 7.2556 2.5037
215 1 7.99845 7.7873 0.521731
216 1 8.23551 9.14292 2.73845
217 1 3.45001 9.14575 2.92501
218 1 3.93911 11.6972 2.50156
219 1 2.84617 10.8125 4.78774
221 1 6.22801 9.5966 1.19115
222 1 5.94444 12.0838 0.776552
223 1 6.29694 7.25091 7.68599
224 1 8.28168 7.7526 6.07401
75 2 6.33308 10.714 0.0350922
58 2 4.86182 12.6892 7.07698
39 2 3.85651 6.68209 0.102998
48 2 1.41503 10.9615 0.0732451
46 2 2.36555 8.64759 1.83774
242 1 6.26672 9.5752 11.8556
243 1 5.67033 12.0238 11.4792
45 2 3.66229 6.67295 10.7832
54 2 1.30418 10.7207 10.8083
72 2 8.60986 6.45271 10.9093
77 2 3.84225 10.4633 8.99991
79 2 7.24585 8.52619 12.6138
80 2 3.81189 10.5085 14.4606
81 2 6.23356 10.7508 10.7648
164 1 3.2401 8.01134 11.567
171 1 0.877233 12.1331 11.5203
195 1 10.1907 6.57109 15.5077
201 1 5.02552 6.85468 10.0132
210 1 5.24657 6.92566 15.6519
211 1 10.0406 6.59824 10.1909
220 1 7.79452 10.8896 15.7677
225 1 8.17543 9.1194 8.41601
226 1 3.25354 9.08089 8.44504
228 1 2.78782 10.886 10.1482
233 1 6.24545 7.3138 13.2503
234 1 8.20614 7.8126 11.4956
235 1 8.06421 9.15422 13.8443
236 1 3.12703 9.19874 13.8938
237 1 5.25057 10.3963 15.1387
238 1 3.97929 11.4555 13.2451
239 1 2.86229 11.2439 15.6333
240 1 7.70999 10.9768 10.0952
241 1 5.27542 10.1507 9.58094
61 2 4.86453 12.6766 12.674
66 2 8.7145 6.48024 16.2164
ITEM: TIMESTEP
200
ITEM: NUMBER OF ATOMS
243
ITEM: BOX BOUNDS xy xz yz pp pp pp
-7.3456000000000001e+00 1.4691300000000000e+01 -7.3456000000000001e+00
0.0000000000000000e+00 1.2723000000000001e+01 0.0000000000000000e+00
0.0000000000000000e+00 1.6282361999999999e+01 0.0000000000000000e+00
ITEM: ATOMS id type x y z
134 1 3.97109 5.68712 1.21569
139 1 2.77689 6.24207 4.35508
11 2 -3.45918 6.27805 3.5738
6 2 1.46379 2.315 5.55
10 2 0.0208249 4.35286 1.68958
13 2 -0.121862 4.18023 7.28889
93 1 -2.00329 6.03296 4.12101
29 2 3.74885 2.06066 3.60609
140 1 3.91225 5.49023 6.65017
1 2 2.52942 0.0681061 1.69213
37 2 4.79053 4.39807 1.6713
40 2 4.80111 4.30891 7.32794
82 1 1.57483 1.27635 1.26187
83 1 0.450586 2.00302 4.37364
84 1 1.4735 1.19831 6.73864
88 1 -0.885727 3.08158 2.29001
89 1 0.967829 3.71359 0.526359
90 1 -1.00349 5.32497 0.972172
91 1 -0.966719 2.89902 7.79109
92 1 0.843452 3.66329 6.19224
135 1 3.8531 3.13301 8.03443
94 1 -0.957211 5.29324 6.53127
118 1 3.36966 0.628414 2.93358
119 1 2.78155 2.63343 4.72311
120 1 6.10516 1.24088 0.994143
123 1 5.06612 1.87515 4.48361
124 1 6.21287 0.97092 6.64687
130 1 3.928 3.21149 2.45687
132 1 0.882959 5.05461 2.82204
2 2 -0.974983 2.06813 3.54722
28 2 7.14017 0.157051 1.65273
41 2 1.29527 6.34956 8.93526
9 2 1.32382 2.28851 10.9247
16 2 -0.146752 4.29593 12.7692
32 2 3.77053 1.95851 9.13609
3 2 1.42095 2.29728 16.2267
35 2 3.76528 2.11131 14.2864
34 2 7.22291 0.0380484 12.6915
43 2 4.73727 4.43252 12.6694
17 2 -3.39327 6.23406 14.4809
85 1 0.274456 1.84234 15.2561
86 1 0.312277 1.87192 9.83074
87 1 1.30594 1.17248 12.0502
95 1 -1.07379 3.06834 13.2327
96 1 0.881271 3.65073 11.7151
97 1 -1.94575 6.05595 15.0527
98 1 -2.29173 6.13782 9.90511
99 1 -0.876129 5.4806 12.0102
121 1 3.27886 0.622984 8.37059
122 1 2.77471 2.35154 10.3272
125 1 3.22907 0.70729 13.628
126 1 5.29436 1.85062 14.746
127 1 2.83277 2.439 15.5224
128 1 5.22761 1.67471 9.84605
129 1 6.35235 1.21511 12.085
137 1 0.645945 4.9326 8.52337
141 1 3.71235 3.27567 13.1707
143 1 0.707158 4.90055 13.937
144 1 2.93429 5.98073 15.0945
146 1 2.69296 6.13922 9.67454
147 1 3.89131 5.5081 11.8793
8 2 -1.10303 2.019 14.431
44 2 1.39777 6.20172 14.5457
14 2 -3.59959 6.27585 9.04562
5 2 -1.06042 1.84327 9.04173
20 2 -5.80182 10.4967 3.47653
15 2 -1.07262 6.37503 5.39591
19 2 -2.58322 8.64783 1.7865
161 1 1.2988 9.5986 6.51932
22 2 -2.64056 8.51884 7.20448
24 2 -3.4507 10.7877 5.47788
31 2 -0.120636 12.6665 7.18425
47 2 -1.08242 10.5662 3.55251
49 2 2.38237 8.57677 7.17171
100 1 -3.50158 7.49221 2.52648
101 1 -1.82823 7.82104 0.650447
102 1 -5.76357 11.6135 2.28813
103 1 -3.42031 9.8355 1.09138
104 1 -3.87204 12.279 0.518615
105 1 -3.59968 7.40368 7.90688
106 1 -1.86401 7.71898 6.01942
107 1 -5.70989 11.4734 7.76454
108 1 -4.39873 10.2638 4.26286
109 1 -3.49896 9.76728 6.67923
110 1 -3.92714 12.2386 6.02783
133 1 0.335468 6.72288 4.76397
148 1 1.53119 7.53403 2.48921
150 1 -1.62817 9.17543 2.96753
151 1 -1.03257 11.5836 2.29509
152 1 -2.00916 10.8316 4.81839
153 1 1.44594 9.86717 1.31567
155 1 1.38514 7.33795 7.68092
158 1 -0.977999 11.4315 7.73808
160 1 0.399592 10.4865 4.19286
38 2 1.38668 6.37517 3.5851
4 2 -4.91422 12.7153 7.1992
12 2 -1.0388 6.55543 0.00654896
18 2 -1.08933 6.58325 10.8933
25 2 -2.46626 8.58117 12.7449
27 2 -3.6305 10.7263 10.8424
50 2 -1.1498 10.4159 8.97469
21 2 -3.5136 10.8456 16.1494
53 2 -1.0361 10.5037 14.4687
111 1 -3.37027 7.37145 13.3085
112 1 -1.51446 8.00066 11.5581
113 1 -4.62024 10.233 15.0744
114 1 -5.91862 11.6589 13.5013
115 1 -4.58924 10.1515 9.70137
116 1 -3.30262 9.75498 12.1108
117 1 -4.25178 12.0575 11.4368
138 1 0.264352 6.84977 10.0893
145 1 0.474107 6.72537 15.7206
157 1 -1.58661 9.05888 8.30358
159 1 -2.21013 10.9592 10.0885
163 1 1.44539 7.45802 13.5406
165 1 -1.56918 9.164 13.9036
166 1 0.387891 10.2771 15.1568
167 1 -0.91297 11.5044 13.1739
168 1 -2.08402 11.0252 15.5055
169 1 0.26808 10.5329 9.64122
170 1 1.43141 9.71279 11.9728
7 2 -5.14374 12.6921 12.602
23 2 -5.96688 10.3549 8.85695
52 2 2.3285 8.61677 12.7603
196 1 8.99145 5.50894 1.11816
204 1 8.96618 5.37019 6.75626
203 1 7.69345 5.80904 4.42058
193 1 5.80431 4.8304 2.85611
198 1 10.5585 3.49214 6.06119
56 2 8.60877 2.02604 3.61061
197 1 8.99221 3.15346 7.98879
136 1 5.69191 3.56674 6.24395
60 2 11.0757 2.2117 5.35321
64 2 9.77432 4.31998 1.82442
65 2 6.32731 6.11218 3.64608
67 2 9.86405 4.21493 7.28178
131 1 5.42262 3.73981 0.318091
33 2 6.16718 2.20585 5.54065
172 1 13.3074 0.645968 3.01366
173 1 8.13567 0.727508 2.77952
174 1 7.55187 2.35707 4.76826
176 1 11.4814 1.19554 1.21112
180 1 12.502 2.50491 4.55726
181 1 10.0607 1.76975 4.2215
182 1 11.3096 1.15857 6.57644
190 1 8.77872 3.29183 2.59979
191 1 10.6388 3.60679 0.730827
192 1 10.7589 4.9392 2.86012
55 2 12.3722 0.0332425 1.8475
69 2 8.84837 6.33169 5.45304
57 2 11.1872 2.29104 0.0262741
71 2 6.17213 6.29092 14.4691
213 1 8.81972 5.30932 12.1131
212 1 7.56247 5.99686 9.92455
209 1 7.57343 6.01791 15.1576
36 2 6.17405 2.32746 10.9115
59 2 8.69886 1.95915 9.09957
208 1 5.49703 4.95355 13.9988
62 2 8.67841 1.99072 14.555
63 2 11.1682 2.21118 10.8224
68 2 6.19615 6.31858 9.06876
70 2 9.85707 4.28484 12.7786
30 2 6.11381 2.35936 16.0965
142 1 5.64704 3.63268 11.5487
175 1 12.5567 2.53728 15.4764
207 1 10.8462 4.86405 13.8732
178 1 8.14791 0.68904 8.24166
179 1 7.60195 2.46681 10.2114
183 1 13.1022 0.627932 13.8563
184 1 8.07248 0.677267 13.8514
185 1 10.0734 1.82843 15.2535
186 1 7.6111 2.54134 15.5941
187 1 12.5744 2.38162 10.084
188 1 10.174 1.62186 9.71555
189 1 11.4036 1.19204 12.0069
199 1 10.8211 4.88409 8.32847
177 1 13.128 0.463432 8.4243
205 1 8.86205 3.04408 13.4071
206 1 10.5865 3.57178 11.4924
200 1 5.69199 4.93924 8.44711
232 1 5.8099 12.0382 6.07474
227 1 3.82144 11.6431 7.75558
42 2 3.82225 6.57713 5.48579
229 1 7.84948 10.8952 4.63083
51 2 1.43733 10.7552 5.38881
230 1 5.41852 10.2817 4.28883
46 2 2.37744 8.66582 1.74359
73 2 7.38701 8.48758 1.75506
74 2 3.97835 10.5376 3.58671
231 1 6.51928 9.60777 6.40364
76 2 7.28722 8.4127 7.09587
78 2 6.42767 10.7611 5.36033
149 1 3.17335 7.98317 0.522648
154 1 0.722722 12.387 0.455263
156 1 3.42621 8.03694 6.02655
162 1 0.89236 12.1481 6.03083
194 1 5.26543 6.53507 4.69501
202 1 10.2145 6.5483 4.69223
214 1 6.72972 7.25678 2.52027
215 1 8.39542 8.04855 0.498042
216 1 8.30265 9.12781 2.87997
217 1 3.47132 9.23659 2.82944
218 1 4.10285 11.6674 2.48472
219 1 2.869 10.8377 4.71328
221 1 6.36036 9.4976 1.10203
222 1 5.85986 12.1023 0.667586
223 1 6.26782 7.36248 7.83273
224 1 8.21965 7.69119 6.07811
75 2 6.24276 10.7352 0.0487509
48 2 1.34289 10.9054 0.0423959
58 2 4.85908 12.7077 7.19477
242 1 6.25978 9.527 11.8083
243 1 5.8634 12.0683 11.4909
45 2 3.69675 6.59819 10.7999
54 2 1.31549 10.8111 10.8151
72 2 8.64383 6.39751 10.9761
77 2 3.80261 10.5998 8.98689
79 2 7.1091 8.42738 12.5844
80 2 3.80676 10.665 14.4728
81 2 6.25975 10.7489 10.6686
164 1 3.20762 7.90073 11.6421
171 1 0.89984 12.2084 11.5372
195 1 10.1869 6.69089 15.4871
201 1 5.07811 6.86108 10.0991
210 1 5.25085 6.86941 15.624
211 1 10.0253 6.54471 10.1619
220 1 7.65634 10.8272 15.6306
225 1 8.17484 9.01729 8.22803
226 1 3.19664 9.23139 8.36166
228 1 2.74702 11.0435 10.1787
233 1 6.33996 7.20814 13.1847
234 1 8.09328 7.79689 11.4564
235 1 7.92174 9.26295 13.6235
236 1 3.26196 9.26353 13.8878
237 1 5.21714 10.3892 15.1753
238 1 3.92099 11.6188 13.2464
239 1 2.86012 11.159 15.6933
240 1 7.72304 10.8558 10.047
241 1 5.29299 10.3693 9.45051
61 2 4.92925 12.703 12.6113
66 2 8.75544 6.59725 16.1539
26 2 8.61635 10.4124 14.4749
39 2 3.80038 6.65326 16.2373
ITEM: TIMESTEP
300
ITEM: NUMBER OF ATOMS
243
ITEM: BOX BOUNDS xy xz yz pp pp pp
-7.3456000000000001e+00 1.4691300000000000e+01 -7.3456000000000001e+00
0.0000000000000000e+00 1.2723000000000001e+01 0.0000000000000000e+00
0.0000000000000000e+00 1.6282361999999999e+01 0.0000000000000000e+00
ITEM: ATOMS id type x y z
134 1 3.89695 5.55936 1.09816
139 1 2.81799 6.06514 4.1707
11 2 -3.5117 6.20666 3.57403
6 2 1.44693 2.43128 5.4457
10 2 0.000143465 4.37535 1.79018
13 2 -0.0918928 4.31504 7.22314
93 1 -2.03665 5.98839 4.17394
29 2 3.87729 2.06882 3.53417
140 1 3.96112 5.56954 6.61107
1 2 2.48527 0.136335 1.75462
28 2 7.15667 0.132389 1.71933
40 2 4.7719 4.3205 7.31107
82 1 1.51968 1.26417 1.09819
83 1 0.333332 1.87188 4.51296
84 1 1.64261 1.2865 6.56596
88 1 -0.661927 3.06841 2.46208
89 1 0.838466 3.71012 0.622356
90 1 -1.04357 5.34702 1.06179
91 1 -0.79526 3.03248 7.8299
92 1 0.957686 3.84799 6.1139
135 1 3.81494 3.1345 7.9654
94 1 -1.00375 5.27401 6.38575
118 1 3.43701 0.73411 2.86225
119 1 2.8134 2.52912 4.61402
120 1 6.39691 1.31736 1.06641
123 1 5.30631 1.97752 4.18876
124 1 6.28254 1.19648 6.54791
130 1 3.799 3.24411 2.31511
132 1 0.818236 5.16735 2.90888
2 2 -0.974397 1.98 3.62409
37 2 4.82405 4.33398 1.66732
31 2 7.2605 0.0686462 7.10319
5 2 -1.00546 1.92415 8.9876
9 2 1.31089 2.31104 10.9756
16 2 -0.218616 4.31867 12.7665
32 2 3.76377 1.9339 9.05388
3 2 1.39097 2.36584 16.2092
35 2 3.79157 1.95177 14.4056
34 2 7.25162 0.12758 12.7443
43 2 4.68025 4.22547 12.6327
17 2 -3.44064 6.28435 14.3901
85 1 0.403524 1.80105 15.0638
86 1 0.364598 1.71578 9.78151
87 1 1.36736 1.17351 12.0757
95 1 -1.14013 3.12828 13.3748
96 1 0.719072 3.61593 11.6413
97 1 -1.94369 6.1627 15.0131
98 1 -2.16396 6.14432 9.80325
99 1 -1.10427 5.47278 12.0602
121 1 3.21535 0.55398 8.47544
122 1 2.74091 2.40842 10.2256
125 1 3.28457 0.552649 13.7043
126 1 5.21951 1.68919 15.0526
127 1 2.77389 2.49468 15.4451
128 1 5.23129 1.77657 9.61686
129 1 6.23086 1.19026 12.0341
137 1 0.696807 4.9935 8.46566
141 1 3.86163 3.06332 13.2692
143 1 0.763687 4.90938 13.9338
144 1 2.84957 6.08442 15.0496
146 1 2.81477 6.20908 9.62334
147 1 3.77372 5.38198 11.9409
41 2 1.32758 6.33461 9.09152
44 2 1.35929 6.28022 14.5303
20 2 -5.86026 10.5959 3.56972
15 2 -1.08866 6.46845 5.35934
19 2 -2.4202 8.53139 1.81528
161 1 1.48287 9.61698 6.3813
22 2 -2.54817 8.49402 7.23732
24 2 -3.42637 10.8245 5.41695
4 2 -4.92194 12.6551 7.23655
47 2 -1.06053 10.5413 3.53826
49 2 2.30842 8.38754 7.13384
100 1 -3.41517 7.38895 2.41692
101 1 -1.57742 7.75157 0.736694
102 1 -5.67184 11.6231 2.40711
103 1 -3.24358 9.73273 1.0785
104 1 -4.05544 12.224 0.511826
105 1 -3.51249 7.41362 7.99799
106 1 -1.81118 7.67132 6.11792
107 1 -5.84837 11.4477 7.76122
108 1 -4.42511 10.3635 4.22523
109 1 -3.37431 9.62403 6.44186
110 1 -4.09291 12.1548 5.98156
133 1 0.360291 6.91261 4.82334
148 1 1.511 7.60241 2.44979
150 1 -1.57362 9.11166 2.99632
151 1 -1.02396 11.6898 2.44861
152 1 -2.07244 10.9855 4.67978
153 1 1.50474 9.88963 1.14316
155 1 1.41818 7.27581 7.73283
158 1 -1.02965 11.591 7.75233
160 1 0.456221 10.297 4.10406
38 2 1.35742 6.49442 3.59741
18 2 -1.0948 6.60033 10.9438
25 2 -2.48197 8.59125 12.7902
27 2 -3.56807 10.6947 10.8818
50 2 -1.06896 10.5287 8.968
21 2 -3.41901 10.9004 16.2726
53 2 -0.946103 10.5091 14.4774
111 1 -3.42696 7.38387 13.2287
112 1 -1.55336 8.00203 11.5863
113 1 -4.51288 10.3943 15.108
114 1 -6.05494 11.5953 13.2248
115 1 -4.52813 10.1774 9.71641
116 1 -3.41135 9.74364 12.1643
117 1 -4.15966 12.0439 11.4594
138 1 0.255613 6.86605 10.1607
145 1 0.44888 6.73957 15.7901
157 1 -1.73282 9.21371 8.37886
159 1 -2.14355 10.9606 10.1183
163 1 1.38938 7.28586 13.221
165 1 -1.43449 9.07638 13.9726
166 1 0.594081 10.3213 14.9649
167 1 -0.854094 11.5046 13.2441
168 1 -1.97734 10.9797 15.5612
169 1 0.346847 10.4142 9.75218
170 1 1.37956 9.76046 12.0112
26 2 -6.00392 10.5589 14.5147
23 2 -5.95842 10.4283 8.92139
52 2 2.29064 8.52762 12.5794
12 2 -1.0269 6.51819 16.2616
7 2 -5.06661 12.6712 12.6155
196 1 8.96322 5.52056 1.17993
204 1 8.88455 5.44317 6.70095
203 1 7.80428 5.76053 4.29774
193 1 5.95231 4.84919 2.68064
198 1 10.6262 3.54967 5.99448
56 2 8.69853 2.04106 3.5899
197 1 8.92468 3.17749 7.92229
136 1 5.65516 3.6529 6.11711
60 2 11.1584 2.25936 5.31446
64 2 9.74964 4.26249 1.84304
65 2 6.38074 6.0674 3.54096
67 2 9.86055 4.28999 7.20494
131 1 5.5046 3.63627 0.421495
33 2 6.20338 2.32558 5.43444
172 1 13.1919 0.656648 2.91943
173 1 8.1095 0.764315 2.83374
174 1 7.59268 2.46291 4.70515
176 1 11.3745 1.25106 1.27405
180 1 12.4996 2.58316 4.54269
181 1 10.0138 1.66604 4.37035
182 1 11.3684 1.14138 6.45887
190 1 8.85823 3.11005 2.47906
191 1 10.4965 3.61251 0.636271
192 1 10.6858 4.76885 3.02268
55 2 12.2627 0.0376467 1.81989
57 2 11.1589 2.27748 0.0462544
71 2 6.26645 6.33183 14.4752
213 1 8.90928 5.44204 12.1781
212 1 7.52697 5.92588 9.98555
209 1 7.74959 6.19395 15.128
36 2 6.14924 2.28642 10.8043
59 2 8.59546 2.0187 9.0139
208 1 5.63584 4.91991 13.793
62 2 8.7044 1.99943 14.5349
63 2 11.217 2.28701 10.8321
68 2 6.22943 6.26071 9.10052
70 2 9.79383 4.26938 12.7861
30 2 6.12237 2.29765 16.1778
142 1 5.62659 3.63031 11.5058
175 1 12.5733 2.55408 15.6576
207 1 10.8088 4.845 13.8476
178 1 8.16287 0.654498 8.34003
179 1 7.6436 2.30127 10.2534
183 1 12.9613 0.641146 13.8491
184 1 8.04988 0.729633 13.954
185 1 10.1407 1.73868 15.2106
186 1 7.58485 2.57884 15.5425
187 1 12.5827 2.44993 10.0294
188 1 10.0401 1.88908 9.68246
189 1 11.3094 1.13298 11.9286
199 1 10.8795 4.88105 8.29104
177 1 13.1254 0.584426 8.30591
205 1 8.85268 3.10753 13.4694
206 1 10.5708 3.5806 11.5506
200 1 5.65267 4.90388 8.47299
14 2 11.0993 6.20886 9.13408
8 2 13.5563 1.95036 14.5246
232 1 5.62568 12.0137 6.02789
227 1 3.8457 11.7482 7.99471
42 2 3.86185 6.54254 5.34041
229 1 7.78213 11.0932 4.71557
51 2 1.43797 10.7769 5.31117
230 1 5.37746 10.2359 4.14876
46 2 2.34911 8.70675 1.71976
73 2 7.40486 8.47643 1.85328
74 2 3.88578 10.5123 3.57094
231 1 6.52689 9.64197 6.42659
76 2 7.41709 8.46967 7.09232
78 2 6.34483 10.7557 5.31453
149 1 3.15876 7.99995 0.487304
154 1 0.718514 12.2497 0.563012
156 1 3.3463 7.96279 5.97985
162 1 0.826358 12.1127 5.89047
194 1 5.28079 6.59587 4.67685
202 1 10.1861 6.72295 4.74832
214 1 6.54848 7.33703 2.53242
215 1 8.30567 7.87558 0.657108
216 1 8.40011 9.16871 2.90668
217 1 3.39549 9.15057 2.79857
218 1 4.06278 11.5653 2.4199
219 1 2.94236 10.949 4.79664
221 1 6.5202 9.66144 1.20062
222 1 5.77417 12.2156 0.579382
223 1 6.52106 7.30832 7.86912
224 1 8.04106 7.76944 5.85797
75 2 6.25099 10.7763 0.0676942
69 2 8.73942 6.4031 5.42173
58 2 4.8465 12.7098 7.17394
242 1 6.18654 9.53311 11.7885
243 1 5.6901 11.9802 11.4783
45 2 3.74455 6.60311 10.8251
54 2 1.29288 10.9538 10.8875
72 2 8.63989 6.50633 10.9782
77 2 3.70826 10.4852 8.97772
79 2 7.22384 8.54307 12.6467
80 2 3.79728 10.5365 14.4164
81 2 6.16646 10.6965 10.6887
164 1 3.28357 7.99465 11.4742
171 1 0.818704 12.3035 11.5887
195 1 10.249 6.77807 15.5556
201 1 5.25277 6.81212 10.224
210 1 5.32916 6.8453 15.6018
211 1 10.0416 6.41874 10.235
220 1 7.70423 11.008 15.6593
225 1 8.36825 9.06512 8.2027
226 1 3.03478 9.18744 8.30216
228 1 2.8001 11.0026 10.2507
233 1 6.30246 7.41353 13.2912
234 1 8.23274 7.96417 11.5433
235 1 8.03148 9.27552 13.7621
236 1 3.20693 9.11046 13.8047
237 1 5.23513 10.3725 15.1556
238 1 3.85005 11.6119 13.1687
239 1 2.87551 11.1282 15.6332