ITEM: TIMESTEP
0
ITEM: NUMBER OF ATOMS
243
ITEM: BOX BOUNDS xy xz yz pp pp pp
-7.4925120000000005e+00 1.4985125999999999e+01 -7.4925120000000005e+00
0.0000000000000000e+00 1.2723000000000001e+01 0.0000000000000000e+00
0.0000000000000000e+00 1.5963100000000001e+01 0.0000000000000000e+00
ITEM: ATOMS id type x y z
134 1 3.86893 5.62945 1.22538
139 1 2.90614 6.14883 4.03709
31 2 7.25771 0.0202689 7.01734
6 2 1.50876 2.35454 5.33539
10 2 -0.0405942 4.28614 1.74312
13 2 -0.231312 4.28715 7.03388
93 1 -2.07454 6.11276 4.04481
29 2 3.91821 2.10353 3.50832
140 1 3.94304 5.4476 6.45084
1 2 2.32946 0.111152 1.7336
37 2 4.81059 4.40254 1.76119
40 2 4.81562 4.31541 7.12148
82 1 1.32809 1.24783 1.14951
83 1 0.459226 1.81378 4.21593
84 1 1.73981 1.24249 6.47239
88 1 -0.821733 3.10124 2.39925
89 1 0.966823 3.68999 0.660708
90 1 -0.857242 5.50469 1.12237
91 1 -1.1965 3.24337 7.77253
92 1 0.696725 3.57576 5.9709
135 1 3.92911 3.21437 7.89294
94 1 -1.01865 5.44752 6.26287
118 1 3.31158 0.689869 2.90145
119 1 2.98932 2.67339 4.71555
120 1 6.27264 1.13728 0.99193
123 1 5.46695 2.02117 4.06932
124 1 6.35832 1.17901 6.38083
130 1 3.81209 3.23321 2.31805
132 1 0.887681 4.93765 2.9555
2 2 -0.990463 2.00379 3.51177
28 2 7.25566 0.138599 1.76996
41 2 1.35755 6.20177 8.846
9 2 1.31105 2.29902 10.5993
16 2 -0.115493 4.29919 12.33
32 2 3.88084 1.98873 8.89948
14 2 -3.6798 6.28635 8.75149
35 2 3.87366 2.01186 14.0514
7 2 2.35039 0.0266733 12.3447
43 2 4.81399 4.31198 12.4145
44 2 1.44613 6.28958 14.1171
85 1 0.432071 1.77005 14.7745
86 1 0.36653 1.8024 9.31302
87 1 1.35935 1.24002 11.7668
95 1 -0.889922 3.07583 13.0059
96 1 0.714636 3.6887 11.0735
97 1 -2.10816 5.97449 14.9366
98 1 -2.21936 6.06799 9.42475
99 1 -1.12649 5.4504 11.8429
121 1 3.44206 0.630868 8.23926
122 1 2.76891 2.2906 9.98211
125 1 3.36941 0.58557 13.4423
126 1 5.39885 2.04174 14.6171
127 1 2.90198 2.44179 15.2737
128 1 5.34481 1.87744 9.53915
129 1 6.50431 1.25187 11.7438
137 1 0.685351 4.9351 8.16817
141 1 3.8813 3.09644 12.8823
143 1 0.903332 4.98094 13.4033
144 1 2.87576 6.17145 14.8795
146 1 2.8266 5.96173 9.53323
147 1 3.94904 5.4212 11.6584
8 2 -1.0369 1.90294 14.1568
17 2 -3.5093 6.202 14.178
3 2 1.36564 2.30422 15.9009
5 2 -1.17079 2.01703 8.80078
34 2 7.3747 0.0925119 12.4616
21 2 -3.7057 10.6784 0.0339124
15 2 -1.03767 6.55497 5.14261
19 2 -2.54171 8.56542 1.75997
161 1 1.39193 9.53316 6.38498
22 2 -2.60432 8.48645 7.02775
24 2 -3.54302 10.8004 5.22823
46 2 2.29409 8.63884 1.76037
47 2 -1.05789 10.4938 3.57017
49 2 2.43651 8.43724 7.00953
100 1 -3.55536 7.42181 2.31197
101 1 -1.80688 8.03501 0.412366
102 1 -6.12829 11.6662 2.30429
103 1 -3.611 9.69505 1.31053
104 1 -4.22005 12.0472 0.698388
105 1 -3.45235 7.27254 7.5125
106 1 -1.56664 7.86851 5.91095
107 1 -5.8882 11.5417 7.57468
108 1 -4.66765 10.5183 4.11155
109 1 -3.40349 9.64002 6.26704
110 1 -4.0208 12.0916 5.91862
133 1 0.453043 6.84609 4.60779
148 1 1.30133 7.49101 2.32503
150 1 -1.64477 9.16953 2.88099
151 1 -0.916387 11.5344 2.32216
152 1 -2.08061 11.0115 4.6431
153 1 1.42699 9.80813 1.14974
155 1 1.49061 7.2792 7.6779
158 1 -1.08208 11.5626 7.73267
160 1 0.433252 10.3241 4.17914
20 2 -6.08726 10.4673 3.32957
11 2 -3.5592 6.36419 3.48466
38 2 1.42712 6.37368 3.43182
4 2 -4.95501 12.7082 7.03774
18 2 -1.22274 6.48842 10.5757
25 2 -2.64029 8.47673 12.4405
27 2 -3.62694 10.7994 10.6603
50 2 -1.19366 10.4492 8.8847
12 2 -1.05628 6.59072 15.9075
53 2 -1.17058 10.4827 14.1866
111 1 -3.46614 7.34713 13.0513
112 1 -1.75079 7.8434 11.2775
113 1 -4.7142 10.1757 14.8834
114 1 -6.0366 11.5765 13.082
115 1 -4.54397 10.2618 9.4199
116 1 -3.51474 9.73001 11.8316
117 1 -4.33617 12.1999 11.0991
138 1 0.283865 6.74299 9.99282
145 1 0.428198 6.86366 15.3117
157 1 -1.90926 9.06553 8.36018
159 1 -2.05331 10.9971 10.1204
163 1 1.59287 7.31479 12.9244
165 1 -1.65107 9.12109 13.539
166 1 0.287892 10.2795 14.88
167 1 -1.09419 11.6753 13.1519
168 1 -2.14984 10.8411 15.3834
169 1 0.339991 10.2182 9.44422
170 1 1.45831 9.66796 11.8265
26 2 -6.15582 10.4988 14.2541
23 2 -6.10031 10.478 8.76788
196 1 8.86983 5.38976 1.09168
204 1 8.92945 5.36499 6.489
203 1 7.91612 6.06229 4.15714
193 1 5.77614 4.90407 2.90069
198 1 10.8901 3.62179 5.90755
56 2 8.87456 2.08712 3.5295
197 1 9.16099 3.08419 7.78139
136 1 5.84488 3.6327 6.10163
60 2 11.3634 2.2454 5.21253
64 2 9.86816 4.30037 1.75998
65 2 6.42461 6.17906 3.59156
67 2 9.93897 4.25975 7.05663
131 1 5.75557 3.5789 0.653458
33 2 6.42449 2.36119 5.35981
172 1 13.3439 0.58076 3.0388
173 1 8.17182 0.799415 2.88417
174 1 7.89143 2.5658 4.70567
176 1 11.4416 1.2478 1.25296
180 1 12.8256 2.49354 4.53073
181 1 10.3955 1.86487 4.05362
182 1 11.4915 1.02903 6.22285
190 1 8.95258 3.06482 2.26755
191 1 10.9241 3.69387 0.683174
192 1 10.7203 5.04869 2.90425
55 2 12.3371 0.0823296 1.90038
57 2 11.4255 2.33043 0.0344504
71 2 6.27494 6.28049 14.163
213 1 8.91097 5.45058 11.8713
212 1 7.78961 6.00516 9.57115
209 1 7.7681 5.88884 14.6486
36 2 6.44112 2.39018 10.5855
59 2 8.9061 1.98483 8.84366
208 1 5.59866 4.99892 13.6074
62 2 8.92623 1.9903 14.2549
63 2 11.3126 2.13959 10.6528
68 2 6.37976 6.18391 8.82243
70 2 9.84272 4.18554 12.3711
30 2 6.40325 2.33267 15.9001
142 1 5.88943 3.73825 11.2885
175 1 12.9457 2.57337 15.295
207 1 10.8383 4.84035 13.4934
178 1 8.1845 0.77784 8.08276
179 1 7.9983 2.40303 10.0806
183 1 13.3489 0.501276 13.5534
184 1 8.36988 0.660715 13.6173
185 1 10.4144 1.84393 14.8186
186 1 7.95204 2.44886 15.3964
187 1 12.8198 2.45674 10.0595
188 1 10.3401 1.6184 9.4554
189 1 11.4597 1.10288 11.8973
199 1 10.8201 4.90929 8.16254
177 1 13.3077 0.617699 8.08536
205 1 8.98453 3.08265 13.1217
206 1 10.659 3.51983 11.1781
200 1 5.76798 4.86587 8.27795
232 1 5.96433 12.0178 5.99876
227 1 3.9165 11.5116 7.75212
42 2 3.9065 6.51099 5.29446
229 1 7.83954 10.7966 4.61284
51 2 1.42093 10.7915 5.35978
230 1 5.29429 10.3327 4.15234
69 2 8.93509 6.50691 5.35957
73 2 7.37858 8.41563 1.6819
74 2 3.81357 10.5061 3.53875
231 1 6.42405 9.52486 6.45788
76 2 7.45836 8.44161 7.05473
78 2 6.38537 10.622 5.31156
149 1 3.4082 8.03664 0.715085
154 1 0.786273 12.3037 0.650796
156 1 3.38436 7.90939 5.82076
162 1 0.776451 12.0724 5.99569
194 1 5.40026 6.64766 4.76072
202 1 10.459 6.74917 4.69995
214 1 6.45452 7.31073 2.46661
215 1 8.22785 7.73263 0.512663
216 1 8.35957 9.10967 2.73827
217 1 3.18874 9.10326 3.0023
218 1 3.95908 11.5882 2.44167
219 1 2.87052 11.1122 4.74136
221 1 6.41288 9.56635 1.09102
222 1 5.80117 12.0737 0.76573
223 1 6.50472 7.24615 7.59042
224 1 8.40839 7.92271 5.85564
75 2 6.38301 10.7246 0.0448067
58 2 4.84015 12.5801 6.98702
39 2 3.92907 6.67125 0.0428902
48 2 1.28201 10.8774 0.0339623
242 1 6.72769 9.78086 11.7203
243 1 5.69454 11.9803 11.2139
45 2 3.89747 6.56981 10.5408
54 2 1.31539 10.7324 10.6212
72 2 8.85322 6.46965 10.6482
77 2 3.89976 10.42 8.82468
79 2 7.44316 8.48774 12.4018
80 2 3.82767 10.4873 14.285
81 2 6.43615 10.7699 10.5554
164 1 3.45343 7.99475 11.1982
171 1 0.669859 12.1136 11.2441
195 1 10.2967 6.61982 15.2183
201 1 5.33127 6.81358 9.83581
210 1 5.39202 6.81613 15.4108
211 1 10.1973 6.71439 9.79312
220 1 7.80559 10.991 15.3622
225 1 8.31612 9.07939 8.19469
226 1 3.38643 9.10983 8.09925
228 1 2.82514 10.8337 9.97432
233 1 6.44534 7.33454 12.9863
234 1 8.40698 7.80949 11.2944
235 1 8.30301 9.07737 13.5998
236 1 3.32907 9.16208 13.5449
237 1 5.34142 10.3318 14.8235
238 1 3.86154 11.594 13.101
239 1 2.77677 11.0018 15.3634
240 1 7.87201 11.0942 9.87169
241 1 5.44876 10.2867 9.41228
61 2 4.89099 12.6417 12.4491
66 2 8.77324 6.40163 15.8535
52 2 2.47469 8.56078 12.4006
ITEM: TIMESTEP
100
ITEM: NUMBER OF ATOMS
243
ITEM: BOX BOUNDS xy xz yz pp pp pp
-7.4925120000000005e+00 1.4985125999999999e+01 -7.4925120000000005e+00
0.0000000000000000e+00 1.2723000000000001e+01 0.0000000000000000e+00
0.0000000000000000e+00 1.5963100000000001e+01 0.0000000000000000e+00
ITEM: ATOMS id type x y z
134 1 4.07094 5.58259 1.24528
139 1 2.85229 6.10287 4.18019
4 2 2.53277 0.0699159 7.11025
6 2 1.4515 2.32913 5.28162
10 2 -0.042123 4.26905 1.69921
13 2 -0.232457 4.28067 7.04202
93 1 -2.12722 6.23312 4.10251
29 2 3.93174 2.11716 3.60275
140 1 3.92561 5.46381 6.49674
1 2 2.3969 0.121129 1.72533
37 2 4.87634 4.27433 1.8032
40 2 4.78143 4.27643 7.18269
82 1 1.61422 1.39849 1.13744
83 1 0.487411 1.93299 4.07562
84 1 1.55441 1.14213 6.34502
88 1 -0.940777 3.19607 2.46932
89 1 0.884259 3.70941 0.547458
90 1 -0.888979 5.41805 1.15403
91 1 -1.04232 3.08982 7.68548
92 1 0.852761 3.59613 6.10965
135 1 3.94792 3.10969 7.83429
94 1 -1.14147 5.43171 6.37624
118 1 3.33541 0.774472 2.91224
119 1 2.93209 2.73532 4.77373
120 1 6.3465 1.28239 1.06241
123 1 5.44068 1.82069 4.12013
124 1 6.58466 1.19456 6.39928
130 1 3.89694 3.18401 2.38101
132 1 0.894195 4.89393 2.8383
2 2 -1.0698 2.08413 3.56011
28 2 7.33562 0.127623 1.67851
11 2 -3.61619 6.34011 3.55361
38 2 1.41825 6.30099 3.47189
41 2 1.24183 6.24371 8.79996
9 2 1.31948 2.27796 10.6267
16 2 -0.0437667 4.33656 12.3972
32 2 3.92876 2.10953 9.06738
3 2 1.45608 2.36267 15.8888
35 2 3.96538 2.01386 14.0264
7 2 2.31001 0.0538075 12.3514
43 2 4.82597 4.36435 12.3827
44 2 1.38177 6.3209 14.2547
85 1 0.372082 1.79409 14.8656
86 1 0.315303 1.83375 9.46772
87 1 1.39089 1.21833 11.8307
95 1 -0.929063 3.16109 13.0906
96 1 0.840597 3.66266 11.2339
97 1 -2.15224 6.12838 14.7684
98 1 -2.21409 6.10205 9.60755
99 1 -0.972468 5.44815 11.7404
121 1 3.38588 0.683162 8.39301
122 1 2.88325 2.45245 10.2153
125 1 3.48487 0.67623 13.2579
126 1 5.43158 1.85231 14.6338
127 1 2.88693 2.3551 15.1445
128 1 5.46693 1.97696 9.62487
129 1 6.57065 1.1933 11.8122
137 1 0.69745 4.91234 8.18931
141 1 3.94034 3.20485 12.9722
143 1 0.828185 5.00887 13.5158
144 1 2.77856 6.06648 14.9425
146 1 2.66494 6.12997 9.53951
147 1 3.96952 5.49266 11.6573
8 2 -1.02172 1.96579 14.1345
17 2 -3.57249 6.17781 14.0413
14 2 -3.65911 6.24846 8.86987
5 2 -1.1341 2.03932 8.8573
20 2 -5.97813 10.4683 3.32874
15 2 -1.10286 6.53596 5.26652
19 2 -2.63534 8.58839 1.80926
161 1 1.57141 9.72681 6.50308
22 2 -2.61664 8.44926 7.07869
24 2 -3.55341 10.8332 5.29517
46 2 2.35759 8.56821 1.789
47 2 -1.11884 10.5516 3.50061
49 2 2.47354 8.5074 7.08952
100 1 -3.63008 7.44349 2.38251
101 1 -1.73158 7.92602 0.608098
102 1 -5.96297 11.6743 2.27084
103 1 -3.52166 9.74882 1.15936
104 1 -4.23942 12.1188 0.545815
105 1 -3.50013 7.2407 7.68808
106 1 -1.54268 7.88156 6.01568
107 1 -5.79435 11.5283 7.67185
108 1 -4.56707 10.3305 4.07674
109 1 -3.4061 9.61674 6.35682
110 1 -4.07833 12.1967 5.92224
133 1 0.354192 6.75433 4.61488
148 1 1.52959 7.38148 2.31789
150 1 -1.62446 9.18764 2.85819
151 1 -1.01459 11.6938 2.36601
152 1 -2.12627 11.0129 4.55966
153 1 1.44906 9.8234 1.19055
155 1 1.51211 7.26489 7.59865
158 1 -1.05079 11.6302 7.76533
160 1 0.37545 10.3467 4.13094
31 2 -0.108296 12.6966 7.064
18 2 -1.07963 6.56095 10.6526
25 2 -2.58403 8.52148 12.4301
27 2 -3.59996 10.7261 10.5966
50 2 -1.17234 10.4828 8.89194
12 2 -1.10924 6.50572 15.9322
53 2 -1.11954 10.4109 14.192
111 1 -3.56652 7.36355 12.9746
112 1 -1.66319 7.8971 11.2499
113 1 -4.64608 10.1214 14.8646
114 1 -5.95046 11.5399 13.0225
115 1 -4.55099 10.0129 9.45001
116 1 -3.47989 9.71671 11.8222
117 1 -4.44628 12.0433 11.1385
138 1 0.238227 6.81251 9.83908
145 1 0.354826 6.82935 15.3505
157 1 -1.66044 9.0715 8.20819
159 1 -2.19103 10.9984 9.95358
163 1 1.46557 7.39476 13.0745
165 1 -1.57509 8.99906 13.5535
166 1 0.416994 10.3783 14.7721
167 1 -1.16661 11.5174 13.0732
168 1 -2.18964 10.9158 15.3359
169 1 0.26124 10.3487 9.55914
170 1 1.41756 9.63927 11.7662
26 2 -6.07866 10.4742 14.2401
23 2 -5.9932 10.4042 8.83211
52 2 2.31288 8.5695 12.4702
34 2 -0.120175 12.6713 12.5163
21 2 -3.66084 10.7357 15.938
196 1 8.952 5.39319 1.10715
204 1 9.05687 5.40901 6.52488
203 1 7.84305 5.92323 4.2407
193 1 5.79856 4.83993 2.94322
198 1 10.867 3.5574 5.89954
56 2 8.86254 2.12703 3.51803
197 1 9.07156 3.07261 7.76625
136 1 5.6831 3.60025 6.01963
60 2 11.4093 2.24195 5.17212
64 2 9.89009 4.28981 1.75907
65 2 6.36297 6.17697 3.58411
67 2 9.98474 4.17049 7.06797
131 1 5.66531 3.78102 0.540241
33 2 6.43329 2.35307 5.33233
172 1 13.4957 0.627998 3.00964
173 1 8.24643 0.84032 2.78829
174 1 7.88189 2.57172 4.71315
176 1 11.8462 1.31612 1.21516
180 1 12.888 2.61108 4.65518
181 1 10.3174 1.73557 4.09254
182 1 11.6397 1.04162 6.1853
190 1 8.9359 3.24737 2.41261
191 1 10.9622 3.59973 0.705406
192 1 10.772 5.00659 2.83948
55 2 12.5278 0.0543917 1.89381
71 2 6.31232 6.32965 14.183
213 1 9.04065 5.32677 11.7567
212 1 7.70502 5.93959 9.53532
209 1 7.83544 5.98867 14.7184
36 2 6.50326 2.42398 10.7406
59 2 8.92965 1.97148 8.90364
208 1 5.68537 5.01089 13.5516
62 2 8.8537 1.96196 14.3215
63 2 11.3312 2.12348 10.6913
68 2 6.30819 6.26695 8.83062
70 2 9.8449 4.1474 12.4912
30 2 6.24878 2.40231 15.8843
142 1 5.87625 3.75232 11.3561
175 1 12.8958 2.43788 15.248
207 1 11.028 4.7339 13.4251
178 1 8.24146 0.624926 8.31278
179 1 7.93939 2.62165 9.99325
183 1 13.3761 0.649938 13.448
184 1 8.28748 0.596154 13.634
185 1 10.3277 1.72659 14.9802
186 1 7.72539 2.53914 15.3162
187 1 12.8049 2.28339 10.0022
188 1 10.325 1.61013 9.56936
189 1 11.5557 1.0612 11.8355
199 1 10.9038 4.79605 8.26691
177 1 13.3055 0.70765 8.16635
205 1 8.94563 3.05391 13.1536
206 1 10.8063 3.48135 11.3347
200 1 5.64716 4.89343 8.3273
57 2 11.4421 2.29101 15.9264
232 1 6.02395 11.9998 6.00954
227 1 4.12023 11.5196 7.67814
42 2 3.8766 6.55437 5.33839
229 1 7.97464 11.1153 4.46597
51 2 1.39582 10.7752 5.31673
230 1 5.42403 10.3473 4.04449
69 2 8.89316 6.44131 5.30881
73 2 7.40505 8.44461 1.70225
74 2 3.91393 10.5367 3.5462
231 1 6.66063 9.53841 6.2978
76 2 7.52176 8.43295 7.04295
78 2 6.54906 10.7317 5.21641
149 1 3.22368 8.01598 0.544431
154 1 0.740232 12.2473 0.510405
156 1 3.34669 7.95262 5.86736
162 1 0.786916 12.0511 5.9802
194 1 5.35433 6.74402 4.72512
202 1 10.3833 6.6722 4.74412
214 1 6.55478 7.24219 2.40084
215 1 8.28839 7.79425 0.551296
216 1 8.41912 9.12897 2.69991
217 1 3.41214 9.17447 2.87868
218 1 4.03427 11.7809 2.53381
219 1 2.86225 10.9316 4.65588
221 1 6.43414 9.54952 1.10927
222 1 5.95527 12.0842 0.790692
223 1 6.55601 7.28194 7.57642
224 1 8.49136 7.83369 5.91258
75 2 6.42419 10.7391 0.0563801
58 2 5.02814 12.6742 6.97282
39 2 3.90668 6.66091 0.0668346
242 1 6.43748 9.62354 11.6973
243 1 5.78077 12.066 11.1466
45 2 3.74437 6.63425 10.536
54 2 1.38873 10.719 10.6151
72 2 8.79169 6.46318 10.5878
77 2 3.93377 10.4289 8.84574
79 2 7.42331 8.59643 12.423
80 2 3.8356 10.5535 14.2403
81 2 6.42653 10.7481 10.549
164 1 3.30497 7.99652 11.3596
171 1 0.840146 12.0756 11.3172
195 1 10.3663 6.45698 15.2048
201 1 5.17571 6.88107 9.8148
210 1 5.31434 6.83314 15.3258
211 1 10.1835 6.64116 9.85642
220 1 7.85225 10.8838 15.3674
225 1 8.26872 9.16363 8.2201
226 1 3.28407 9.15309 8.24187
228 1 2.88402 10.8614 9.9665
233 1 6.45203 7.43418 13.0795
234 1 8.38076 7.82961 11.3309
235 1 8.32299 9.13232 13.5696
236 1 3.19638 9.22532 13.6723
237 1 5.28594 10.4103 14.9251
238 1 3.95621 11.5325 13.0274
239 1 2.90618 11.1767 15.3914
240 1 7.97621 10.8749 9.96576
241 1 5.36162 10.132 9.41252
61 2 4.95893 12.5824 12.3674
66 2 8.86777 6.44242 15.8754
48 2 1.3896 10.8644 15.9306
ITEM: TIMESTEP
200
ITEM: NUMBER OF ATOMS
243
ITEM: BOX BOUNDS xy xz yz pp pp pp
-7.4925120000000005e+00 1.4985125999999999e+01 -7.4925120000000005e+00
0.0000000000000000e+00 1.2723000000000001e+01 0.0000000000000000e+00
0.0000000000000000e+00 1.5963100000000001e+01 0.0000000000000000e+00
ITEM: ATOMS id type x y z
134 1 3.96098 5.69578 1.2397
139 1 2.87687 6.0927 4.13403
31 2 7.36981 0.0834939 7.05316
6 2 1.44213 2.34593 5.40885
10 2 -0.0905496 4.36786 1.65013
13 2 -0.185494 4.24066 7.18865
93 1 -2.19675 6.00178 4.16473
29 2 3.86781 2.18524 3.54912
140 1 3.87313 5.47345 6.53155
1 2 2.51506 0.123839 1.72017
37 2 4.77663 4.42816 1.79872
40 2 4.78399 4.27311 7.15272
82 1 1.49417 1.25777 1.21109
83 1 0.539309 1.99592 4.14278
84 1 1.47573 1.10385 6.41524
88 1 -1.00057 3.1775 2.26159
89 1 0.862794 3.72166 0.521067
90 1 -1.086 5.42737 1.10158
91 1 -1.08296 3.01814 7.66173
92 1 0.789713 3.72807 6.01503
135 1 3.87748 3.18098 7.7849
94 1 -0.977669 5.39873 6.46088
118 1 3.39372 0.752727 2.93145
119 1 2.93738 2.58597 4.77861
120 1 6.26856 1.12128 0.938078
123 1 5.38309 2.0332 4.19693
124 1 6.38404 1.31212 6.53913
130 1 3.86935 3.31469 2.41668
132 1 0.913635 4.81811 2.81361
2 2 -0.942824 2.10365 3.48251
28 2 7.35113 0.123465 1.66958
11 2 -3.59128 6.18219 3.48052
38 2 1.42785 6.21265 3.53063
41 2 1.31944 6.24446 8.75576
9 2 1.39015 2.33321 10.7107
16 2 -0.123235 4.36227 12.512
32 2 3.81786 2.08166 8.94319
3 2 1.41583 2.29261 15.9557
35 2 3.8211 2.03245 14.028
5 2 -1.03788 1.92714 8.82236
34 2 7.40942 0.00258631 12.423
44 2 1.32951 6.35317 14.3308
85 1 0.429683 1.87844 14.7817
86 1 0.353113 2.00751 9.59071
87 1 1.36408 1.01962 11.6108
95 1 -1.05097 3.12989 12.9792
96 1 1.07045 3.69084 11.6123
97 1 -2.16254 6.07922 14.7802
98 1 -2.3321 5.98884 9.59714
99 1 -0.820847 5.54496 11.6379
121 1 3.24168 0.722827 8.23006
122 1 2.82589 2.53229 10.0701
125 1 3.27369 0.770642 13.1105
126 1 5.30371 1.81175 14.6095
127 1 2.82835 2.36366 15.2238
128 1 5.26641 1.76298 9.71178
129 1 6.5589 1.21962 11.861
137 1 0.501897 4.94262 8.41428
141 1 3.94293 3.28208 13.0021
143 1 0.709091 4.97255 13.7562
144 1 2.79298 5.96109 14.8459
146 1 2.76682 6.07739 9.39726
147 1 4.22619 5.51281 11.6157
8 2 -1.05446 2.01263 14.1569
20 2 -5.98154 10.5247 3.38338
15 2 -1.13901 6.47015 5.32867
19 2 -2.66842 8.62734 1.80516
161 1 1.56997 9.75263 6.5179
22 2 -2.53655 8.48288 7.13429
24 2 -3.53858 10.7182 5.32844
46 2 2.41717 8.54877 1.71079
47 2 -1.02754 10.504 3.55349
49 2 2.44103 8.50063 7.08444
100 1 -3.49008 7.4557 2.55291
101 1 -1.84551 7.92426 0.600608
102 1 -5.88113 11.7 2.31003
103 1 -3.50003 9.82931 1.20419
104 1 -4.0292 12.3068 0.547556
105 1 -3.43651 7.29948 7.76659
106 1 -1.6148 7.83214 5.97579
107 1 -5.86998 11.4762 7.71016
108 1 -4.54125 10.4245 4.117
109 1 -3.51485 9.5306 6.39526
110 1 -3.97812 12.1046 6.01545
133 1 0.334658 6.55136 4.60813
148 1 1.55189 7.40211 2.38449
150 1 -1.55794 9.1719 2.85087
151 1 -0.924195 11.7487 2.52385
152 1 -2.07854 10.8211 4.69989
153 1 1.44216 9.60861 1.06884
155 1 1.49582 7.27987 7.49586
158 1 -1.03954 11.6337 7.59454
160 1 0.421158 10.271 4.17211
4 2 -5.0833 12.6949 7.03378
12 2 -1.20758 6.57522 0.00594075
18 2 -1.08777 6.63737 10.4846
25 2 -2.63089 8.42463 12.3966
27 2 -3.55479 10.6932 10.5409
50 2 -1.06264 10.6399 8.88776
26 2 -6.14045 10.4889 14.2417
53 2 -1.04078 10.4696 14.0984
111 1 -3.52736 7.21279 12.9998
112 1 -1.77357 7.92854 11.1407
113 1 -4.69756 10.3286 14.8403
114 1 -6.02342 11.7103 13.2327
115 1 -4.52205 10.0388 9.41553
116 1 -3.45199 9.60997 11.7757
117 1 -4.41496 11.9944 11.0082
138 1 0.307329 6.94849 9.74435
145 1 0.271984 6.85429 15.3729
157 1 -1.63428 9.20784 8.28455
159 1 -2.15945 11.1252 9.95573
163 1 1.50447 7.53144 13.2506
165 1 -1.71229 9.06325 13.5635
166 1 0.409351 10.1951 14.7484
167 1 -0.960499 11.4452 12.8307
168 1 -2.10784 10.8727 15.2227
169 1 0.429051 10.4403 9.47878
170 1 1.46972 9.80093 11.9459
21 2 -3.55741 10.8468 15.9451
23 2 -6.02443 10.3124 8.8161
52 2 2.37606 8.627 12.5407
7 2 -5.21181 12.6391 12.2289
196 1 9.0186 5.41775 1.08707
204 1 8.93279 5.21161 6.55351
203 1 7.88327 5.94999 4.29125
193 1 5.8027 4.87269 3.00744
198 1 10.7932 3.50438 5.91806
56 2 8.87475 2.13898 3.58169
197 1 9.02144 2.98039 7.70265
136 1 5.73648 3.70327 6.07001
60 2 11.4194 2.22816 5.20673
64 2 9.92241 4.31977 1.67225
65 2 6.45308 6.17132 3.65012
67 2 9.95921 4.11919 7.12805
131 1 5.55853 3.64759 0.618382
33 2 6.39941 2.3839 5.37462
172 1 13.5487 0.68467 2.95955
173 1 8.27657 0.864832 2.82325
174 1 7.87193 2.50986 4.75902
176 1 11.6932 1.28859 1.21046
180 1 12.882 2.59691 4.55608
181 1 10.4201 1.80005 4.01409
182 1 11.5967 1.07134 6.38363
190 1 8.96175 3.34964 2.51371
191 1 10.7073 3.56616 0.509974
192 1 10.9362 4.8445 2.73266
55 2 12.5147 0.100846 1.88646
58 2 12.5683 0.0139776 7.02745
69 2 8.95203 6.32788 5.42727
71 2 6.34472 6.33534 14.1282
213 1 9.04932 5.28423 11.716
212 1 7.66217 6.07478 9.68534
209 1 7.79608 6.05129 14.7225
36 2 6.45286 2.31019 10.688
59 2 8.7967 1.9347 8.89564
208 1 5.7328 4.92683 13.5997
62 2 8.80081 1.90831 14.2579
63 2 11.4096 2.17609 10.5142
68 2 6.31302 6.32578 8.79596
70 2 9.94555 4.13631 12.3924
30 2 6.24932 2.41508 15.7883
142 1 6.02414 3.62813 11.4995
175 1 12.7568 2.44397 15.1845
207 1 10.8463 4.76358 13.5402
178 1 8.25798 0.573432 8.24811
179 1 7.82176 2.58054 9.98793
183 1 13.4226 0.680573 13.4406
184 1 8.10565 0.574909 13.7202
185 1 10.2076 1.54772 14.9435
186 1 7.81418 2.56407 15.3759
187 1 12.8458 2.41998 9.85878
188 1 10.2816 1.67896 9.5349
189 1 11.517 1.04839 11.6732
199 1 10.7977 4.7667 8.24895
177 1 13.4333 0.494987 8.26179
205 1 9.0084 3.02666 13.0834
206 1 10.9269 3.52355 11.2649
200 1 5.73095 4.95065 8.20999
57 2 11.3421 2.24688 15.92
14 2 11.272 6.15849 8.82193
17 2 11.3496 6.11224 14.1371
43 2 4.93048 4.35911 12.4094
232 1 6.13649 12.2457 5.92291
227 1 4.13456 11.5734 7.62679
42 2 3.87968 6.57826 5.32144
229 1 7.99868 10.9376 4.53351
51 2 1.46701 10.8017 5.29035
230 1 5.45128 10.3552 4.16127
75 2 6.41756 10.7449 0.0728784
73 2 7.5351 8.49524 1.69248
74 2 3.98528 10.5977 3.56526
231 1 6.57146 9.67174 6.29614
76 2 7.44747 8.51833 6.9346
78 2 6.51262 10.8651 5.20885
149 1 3.26346 7.99697 0.500994
154 1 0.681855 12.0386 0.570943
156 1 3.4402 7.98495 5.90885
162 1 0.818389 12.1465 5.8842
194 1 5.32721 6.5817 4.6618
202 1 10.3243 6.44972 4.66456
214 1 6.66376 7.29749 2.416
215 1 8.47175 7.81188 0.588845
216 1 8.39447 9.12432 2.88416
217 1 3.34435 9.30841 2.7804
218 1 4.05733 11.7636 2.43055
219 1 2.93559 10.9034 4.6824
221 1 6.57205 9.54954 1.06176
222 1 5.85636 12.0669 0.742143
223 1 6.59124 7.27868 7.55557
224 1 8.41327 7.7735 5.92767
242 1 6.48622 9.78309 11.8642
243 1 6.03873 12.1836 11.1876
45 2 3.78315 6.62941 10.5268
54 2 1.41628 10.7737 10.6974
72 2 8.86193 6.49441 10.6566
77 2 3.87759 10.5447 8.85485
79 2 7.35917 8.51022 12.3826
80 2 3.94231 10.5675 14.2527
81 2 6.46264 10.7535 10.5929
164 1 3.20881 7.88243 11.3502
171 1 0.923369 12.215 11.3191
195 1 10.4147 6.6522 15.2699
201 1 5.16723 6.9688 9.75834
210 1 5.28627 6.78137 15.1939
211 1 10.2497 6.65285 9.93386
220 1 7.79253 10.875 15.2944
225 1 8.40597 9.06343 8.10585
226 1 3.33777 9.15116 8.2433
228 1 2.86053 10.8927 10.0489
233 1 6.29732 7.35047 12.9058
234 1 8.29979 7.84548 11.3526
235 1 8.36744 9.12174 13.5302
236 1 3.32713 9.25032 13.6882
237 1 5.35818 10.3742 14.9098
238 1 4.21649 11.5696 13.0056
239 1 2.8768 11.192 15.3041
240 1 7.91595 10.8315 9.99041
241 1 5.40465 10.2679 9.44589
61 2 5.04111 12.7157 12.3296
66 2 8.93637 6.43959 15.827
48 2 1.44776 10.7529 15.8847
39 2 3.84278 6.59807 15.8886
ITEM: TIMESTEP
300
ITEM: NUMBER OF ATOMS
243
ITEM: BOX BOUNDS xy xz yz pp pp pp
-7.4925120000000005e+00 1.4985125999999999e+01 -7.4925120000000005e+00
0.0000000000000000e+00 1.2723000000000001e+01 0.0000000000000000e+00
0.0000000000000000e+00 1.5963100000000001e+01 0.0000000000000000e+00
ITEM: ATOMS id type x y z
134 1 4.08869 5.52264 1.20151
139 1 2.88566 6.02287 4.25621
31 2 7.34722 0.0494229 7.07418
6 2 1.58554 2.33564 5.40203
10 2 -0.0423814 4.4226 1.66675
13 2 -0.0867942 4.31075 7.13629
93 1 -2.09017 6.06938 4.13108
29 2 4.0148 2.08995 3.53161
140 1 3.99418 5.44172 6.48724
1 2 2.47418 0.118778 1.6771
37 2 4.95746 4.23071 1.69068
40 2 4.82285 4.30146 7.20958
82 1 1.47797 1.29463 1.22598
83 1 0.414148 2.1164 4.2952
84 1 1.55133 0.969789 6.15508
88 1 -0.839164 3.15114 2.36137
89 1 0.834299 3.7465 0.471927
90 1 -1.13976 5.52819 1.17403
91 1 -0.966164 2.97505 7.52793
92 1 1.10382 3.6475 6.18332
135 1 3.88182 3.13667 7.69617
94 1 -1.04418 5.26957 6.35626
118 1 3.44908 0.781658 2.81479
119 1 2.97885 2.47482 4.74126
120 1 6.2759 1.16822 1.11835
123 1 5.49623 2.0058 4.10864
124 1 6.3614 1.17912 6.4359
130 1 3.99037 3.19174 2.35542
132 1 0.92248 5.14274 2.73148
2 2 -0.994084 1.98851 3.52673
28 2 7.25355 0.0720097 1.80693
11 2 -3.52123 6.16563 3.41229
38 2 1.46818 6.35165 3.59543
41 2 1.35555 6.28516 8.8075
9 2 1.31803 2.29032 10.6319
16 2 -0.0714424 4.36755 12.5088
32 2 3.73515 2.09315 8.88379
3 2 1.37233 2.28352 15.9304
35 2 3.87124 2.04621 14.0782
5 2 -1.07949 1.99045 8.76687
147 1 4.15345 5.4686 11.5941
8 2 -1.15608 2.06452 14.1011
85 1 0.252522 1.80476 14.8544
86 1 0.367985 2.05213 9.37747
87 1 1.3017 1.00666 11.653
95 1 -1.0707 3.30262 13.0821
96 1 0.893894 3.59415 11.5136
97 1 -2.16483 5.9668 14.8255
98 1 -2.21001 6.05252 9.5808
99 1 -0.823707 5.48892 11.7263
121 1 3.13995 0.718189 8.27321
122 1 2.82913 2.46087 10.1677
125 1 3.23147 0.695886 13.4224
126 1 5.31338 1.73876 14.5871
127 1 2.76815 2.45582 15.149
128 1 5.26141 1.87919 9.41645
129 1 6.42754 0.991112 11.6232
137 1 0.663214 4.91897 8.36302
141 1 3.92776 3.19463 12.9378
143 1 0.623732 5.01017 13.8032
144 1 2.80739 6.03707 14.8905
146 1 2.78495 6.12529 9.47617
17 2 -3.58978 6.16514 14.1556
20 2 -5.96853 10.5854 3.40195
15 2 -1.06609 6.47518 5.29672
19 2 -2.53543 8.63626 1.76931
161 1 1.40741 9.61366 6.3524
22 2 -2.59573 8.43669 7.02945
24 2 -3.53782 10.7331 5.31553
4 2 -5.06569 12.6721 7.07867
47 2 -1.02633 10.5595 3.60959
49 2 2.34644 8.45645 6.95387
100 1 -3.44973 7.56219 2.59794
101 1 -1.89083 7.90195 0.484888
102 1 -5.85951 11.6653 2.31859
103 1 -3.45449 9.79036 1.20085
104 1 -4.0881 12.2289 0.554724
105 1 -3.39111 7.23298 7.65984
106 1 -1.64522 7.83174 5.92078
107 1 -6.00048 11.4847 7.68029
108 1 -4.5745 10.3955 4.14079
109 1 -3.55655 9.58166 6.4417
110 1 -4.05296 12.0521 5.99648
133 1 0.410635 6.63201 4.72524
148 1 1.6349 7.51093 2.51033
150 1 -1.412 9.26611 2.733
151 1 -1.15092 11.7415 2.56874
152 1 -2.08802 10.7322 4.79961
153 1 1.45451 9.72212 1.10289
155 1 1.56238 7.18775 7.48511
158 1 -1.04325 11.5513 7.60294
160 1 0.551809 10.4505 4.00004
18 2 -1.07692 6.55075 10.5968
25 2 -2.60899 8.46434 12.3242
27 2 -3.61656 10.788 10.4936
50 2 -1.07799 10.5281 8.81897
26 2 -6.17091 10.5536 14.2419
53 2 -1.06385 10.4003 14.0769
111 1 -3.39604 7.2228 12.9212
112 1 -1.60142 7.96349 11.1986
113 1 -4.58653 10.3674 14.8129
114 1 -6.14861 11.4546 12.9448
115 1 -4.58409 10.3261 9.32344
116 1 -3.39952 9.65922 11.6328
117 1 -4.19552 12.0005 11.3129
138 1 0.243844 6.88652 9.82961
145 1 0.290072 6.84025 15.5669
157 1 -1.69454 9.16874 8.18465
159 1 -2.16036 11.0449 9.8299
163 1 1.40734 7.4486 13.185
165 1 -1.69264 9.00389 13.5217
166 1 0.333055 10.2971 14.8784
167 1 -0.886885 11.4336 12.9117
168 1 -2.07252 10.9838 15.2513
169 1 0.394384 10.5678 9.49685
170 1 1.57197 9.79083 11.8041
21 2 -3.50353 10.8318 15.9376
23 2 -6.04757 10.3115 8.7594
44 2 1.32801 6.37161 14.3713
7 2 -5.20745 12.6542 12.3449
34 2 -0.057112 12.717 12.4392
52 2 2.39663 8.57486 12.4596
12 2 -1.22743 6.54255 15.9513
196 1 9.06888 5.56494 1.00351
204 1 9.002 5.40848 6.56139
203 1 7.8755 5.79666 4.2747
193 1 6.03834 4.77716 2.76623
198 1 10.8253 3.62458 5.87668
56 2 8.87283 2.04488 3.6086
197 1 8.92088 2.96844 7.68526
136 1 5.82892 3.66587 6.1072
60 2 11.3798 2.26735 5.25651
64 2 9.87735 4.3158 1.64213
65 2 6.44822 6.11807 3.56161
67 2 9.90367 4.14952 7.0385
131 1 5.60871 3.51835 0.450522
33 2 6.38789 2.3964 5.32666
172 1 13.5947 0.634947 2.79626
173 1 8.23399 0.797832 2.8543
174 1 7.87893 2.56297 4.8073
176 1 11.4626 1.24544 1.18875
180 1 12.8326 2.4777 4.56933
181 1 10.2798 1.68932 4.23715
182 1 11.6461 1.15669 6.47737
190 1 9.06082 3.13757 2.40017
191 1 10.6061 3.54992 0.476463
192 1 11.0268 4.89511 2.53648
55 2 12.4448 0.0940524 1.81209
14 2 11.3601 6.14067 8.81512
213 1 9.07982 5.44209 11.6604
212 1 7.74332 6.06135 9.55106
209 1 7.86965 6.21436 14.7807
36 2 6.31692 2.25248 10.5644
59 2 8.84207 1.86639 8.90511
208 1 5.81518 5.01649 13.5297
62 2 8.74505 2.09307 14.2488
63 2 11.3827 2.30425 10.5828
43 2 4.99313 4.27675 12.3348
70 2 9.8979 4.23786 12.4171
30 2 6.26181 2.19315 15.8387
142 1 5.91944 3.65403 11.2065
175 1 12.689 2.3527 15.1792
207 1 10.7974 4.80541 13.5981
178 1 8.19459 0.574342 8.35208
179 1 7.85491 2.4052 10.033
183 1 13.3608 0.701925 13.4055
184 1 8.10464 0.774625 13.6567
185 1 10.217 1.69858 14.8449
186 1 7.68988 2.6556 15.3392
187 1 12.8601 2.4734 9.881
188 1 10.3695 1.84362 9.42527
189 1 11.617 1.12434 11.6557
199 1 10.8398 4.7511 8.20795
177 1 13.4694 0.534056 8.27241
205 1 8.98524 3.01453 12.9544
206 1 10.8257 3.70199 11.2168
200 1 5.69653 4.99364 8.36812
57 2 11.2652 2.23906 15.9403
232 1 5.93149 12.1215 5.8889
227 1 4.06224 11.5314 7.75377
42 2 3.96336 6.55039 5.33617
229 1 8.00948 11.0096 4.57065
51 2 1.47722 10.8788 5.26674
230 1 5.43162 10.402 4.20583
75 2 6.42808 10.7292 0.0662601
73 2 7.43862 8.53674 1.8158
74 2 3.93874 10.6468 3.58496
231 1 6.6378 9.73345 6.48087
76 2 7.51384 8.46206 6.94276
78 2 6.54684 10.7994 5.3103
149 1 3.23357 7.92795 0.50681
154 1 0.664903 12.1674 0.693264
156 1 3.47884 7.98817 5.85404
162 1 0.78156 12.2241 5.83344
194 1 5.42832 6.72973 4.60919
46 2 2.44632 8.63868 1.69089
214 1 6.80033 7.3003 2.53782
215 1 8.27038 8.00583 0.527308
216 1 8.50112 9.25874 2.70257
217 1 3.46758 9.36636 2.73617
218 1 3.96275 11.8514 2.57273
219 1 2.9919 11.0711 4.81997
221 1 6.36533 9.65268 1.32849
222 1 5.82952 12.0552 0.682028
223 1 6.52017 7.38597 7.59317
224 1 8.3048 7.76376 5.7546
58 2 5.01739 12.6763 7.10186
202 1 10.3273 6.4781 4.54396
48 2 1.33176 10.8849 0.0128359
69 2 8.93321 6.36841 5.30343
242 1 6.46695 9.61449 11.8042
243 1 6.00717 12.1012 11.197
45 2 3.86567 6.62177 10.5651
54 2 1.54719 10.9097 10.6331
72 2 8.85358 6.59508 10.5692
77 2 3.93541 10.3504 8.8329
79 2 7.45026 8.54983 12.4366
80 2 3.91649 10.5455 14.1935
81 2 6.48465 10.6799 10.6207
164 1 3.23426 7.87534 11.296
171 1 1.10604 12.2358 11.4967
195 1 10.4082 6.79192 15.2905
201 1 5.22584 7.03506 9.78629
210 1 5.23564 6.88761 15.1744
211 1 10.1644 6.71391 9.72741
220 1 7.83597 10.96 15.3935
225 1 8.484 8.91904 8.13659
226 1 3.27081 9.01916 8.20659
228 1 3.00277 10.9483 9.97362
233 1 6.45792 7.40338 12.9413
234 1 8.34295 7.92972 11.3157
235 1 8.27861 9.1001 13.6875
236 1 3.37996 9.15963 13.5708
237 1 5.40278 10.2779 14.9055
238 1 4.16529 11.6664 13.0581
239 1 2.83606 10.9871 15.3449
240 1 7.93184 10.7472 9.96607