LAMMPS (2 Aug 2023 - Update 2)
OMP_NUM_THREADS environment is not set. Defaulting to 1 thread. (src/comm.cpp:98)
  using 1 OpenMP thread(s) per MPI task
Reading data file ...
  triclinic box = (0 0 0) to (15.4114 12.7411 17.5034) with tilt (-7.2027 -1.8261 0.3384)
WARNING: Triclinic box skew is large. LAMMPS will run inefficiently. (src/domain.cpp:220)
  1 by 1 by 1 MPI processor grid
  reading atoms ...
  310 atoms
Finding 1-2 1-3 1-4 neighbors ...
  special bond factors lj:    0        0        0       
  special bond factors coul:  0        0        0       
     0 = max # of 1-2 neighbors
     0 = max # of 1-3 neighbors
     0 = max # of 1-4 neighbors
     1 = max # of special neighbors
  special bonds CPU = 0.000 seconds
  read_data CPU = 0.013 seconds
*****Minimization starts.*****

CITE-CITE-CITE-CITE-CITE-CITE-CITE-CITE-CITE-CITE-CITE-CITE-CITE

Your simulation uses code contributions which should be cited:
- pair reaxff command: doi:10.1016/j.parco.2011.08.005
- fix qeq/reaxff command: doi:10.1016/j.parco.2011.08.005
The log file lists these citations in BibTeX format.

CITE-CITE-CITE-CITE-CITE-CITE-CITE-CITE-CITE-CITE-CITE-CITE-CITE

Switching to 'neigh_modify every 1 delay 0 check yes' setting during minimization
WARNING: Fix qeq/reaxff group is not charge neutral, net charge = 22.14 (src/REAXFF/fix_qeq_reaxff.cpp:392)
Neighbor list info ...
  update: every = 1 steps, delay = 0 steps, check = yes
  max neighbors/atom: 2000, page size: 100000
  master list distance cutoff = 12
  ghost atom cutoff = 12
  binsize = 6, bins = 5 3 3
  2 neighbor lists, perpetual/occasional/extra = 2 0 0
  (1) pair reaxff, perpetual
      attributes: half, newton off, ghost
      pair build: half/bin/newtoff/ghost
      stencil: full/ghost/bin/3d
      bin: standard
  (2) fix qeq/reaxff, perpetual, copy from (1)
      attributes: half, newton off
      pair build: copy
      stencil: none
      bin: none
Setting up cg style minimization ...
  Unit style    : real
  Current step  : 0
Per MPI rank memory allocation (min/avg/max) = 235.8 | 235.8 | 235.8 Mbytes
   Step          Temp          Press         Density         PotEng         TotEng    
         0   0              116060.1       1.4204665     -32388.564     -32388.564    
        25   0             -109.66113      1.4204665     -33927.68      -33927.68     
Loop time of 27.9984 on 1 procs for 25 steps with 310 atoms

22.0% CPU use with 1 MPI tasks x 1 OpenMP threads

Minimization stats:
  Stopping criterion = energy tolerance
  Energy initial, next-to-last, final = 
       -32388.56430767  -33927.6562774549   -33927.680395363
  Force two-norm initial, final = 2091.6772 144.25906
  Force max component initial, final = 278.81621 49.43244
  Final line search alpha, max atom move = 0.0021989668 0.1087003
  Iterations, force evaluations = 25 63

MPI task timing breakdown:
Section |  min time  |  avg time  |  max time  |%varavg| %total
---------------------------------------------------------------
Pair    | 23.043     | 23.043     | 23.043     |   0.0 | 82.30
Bond    | 3.352e-05  | 3.352e-05  | 3.352e-05  |   0.0 |  0.00
Neigh   | 0          | 0          | 0          |   0.0 |  0.00
Comm    | 0.035823   | 0.035823   | 0.035823   |   0.0 |  0.13
Output  | 0          | 0          | 0          |   0.0 |  0.00
Modify  | 4.9174     | 4.9174     | 4.9174     |   0.0 | 17.56
Other   |            | 0.002187   |            |       |  0.01

Nlocal:            310 ave         310 max         310 min
Histogram: 1 0 0 0 0 0 0 0 0 0
Nghost:           5704 ave        5704 max        5704 min
Histogram: 1 0 0 0 0 0 0 0 0 0
Neighs:         171196 ave      171196 max      171196 min
Histogram: 1 0 0 0 0 0 0 0 0 0

Total # of neighbors = 171196
Ave neighs/atom = 552.24516
Ave special neighs/atom = 0
Neighbor list builds = 0
Dangerous builds not checked
System init for write_data ...
*****Equilibration starts.*****
Setting up Verlet run ...
  Unit style    : real
  Current step  : 0
  Time step     : 0.5
Per MPI rank memory allocation (min/avg/max) = 234.2 | 234.2 | 234.2 Mbytes
   Step          Temp          Press         Density         PotEng         TotEng    
         0   300            3565.1846      1.4204665     -33927.681     -33651.359    
       100   269.15537     -2129.4205      1.417659      -33865.748     -33617.837    
       200   376.58379     -6937.5329      1.4204593     -33954.015     -33607.155    
       300   367.36532     -3888.7526      1.4342053     -34020.743     -33682.374    
       400   350.19069     -4674.0638      1.3968494     -34078.229     -33755.678    
       500   324.00345     -4649.863       1.3843415     -34126.516     -33828.086    
       600   311.7495      -5611.0857      1.3820003     -34173.723     -33886.58     
       700   300.19652      16148.75       1.3827717     -34199.713     -33923.211    
       800   285.81344      1626.7997      1.3885679     -34208.303     -33945.048    
       900   289.60331     -7053.332       1.3869742     -34231.2       -33964.455    
      1000   287.29868     -2531.5478      1.375084      -34245.376     -33980.753    
      1100   277.31933     -5197.2327      1.3743694     -34239.464     -33984.033    
      1200   312.66612      2784.4003      1.3817678     -34256.914     -33968.926    
      1300   310.72953     -3993.5994      1.3797582     -34256.521     -33970.317    
      1400   302.84014     -4768.6371      1.3867241     -34268.329     -33989.392    
      1500   285.77417     -8466.4547      1.4018875     -34265.083     -34001.865    
      1600   290.53656     -2188.3603      1.4076216     -34269.38      -34001.776    
      1700   337.39734     -7753.9714      1.4084976     -34285.344     -33974.578    
      1800   317.31086      1127.6429      1.4205562     -34266.198     -33973.932    
      1900   298.57179     -7928.7693      1.4145961     -34286.492     -34011.487    
      2000   293.27767      249.56994      1.4316614     -34289.695     -34019.565    
      2100   285.02895     -720.87782      1.437777      -34280.59      -34018.058    
      2200   304.48853      571.27746      1.421137      -34285.188     -34004.733    
      2300   313.26956      8005.0886      1.4179009     -34277.518     -33988.974    
      2400   322.67667      4768.2514      1.4014579     -34286.48      -33989.272    
      2500   307.07027     -6988.8822      1.4018903     -34309.337     -34026.503    
      2600   299.11379      9487.0437      1.418572      -34313.161     -34037.656    
      2700   309.93423     -226.82605      1.4210774     -34339.104     -34053.633    
      2800   291.89141      3164.7029      1.421753      -34335.232     -34066.38     
      2900   294.44076     -15489.756      1.4273119     -34345.54      -34074.339    
      3000   303.92869     -3039.5985      1.429531      -34333.92      -34053.981    
      3100   328.67412      14455.887      1.4400743     -34343.87      -34041.138    
      3200   308.47271      6311.5687      1.4489118     -34336.94      -34052.815    
      3300   295.46606     -9858.9245      1.4511123     -34356.935     -34084.79     
      3400   296.58292      5836.406       1.4413755     -34362.657     -34089.484    
      3500   331.56521     -4365.7349      1.4429416     -34390.855     -34085.46     
      3600   312.28403      8952.7981      1.4491759     -34398.24      -34110.604    
      3700   299.64877     -6594.3933      1.4426367     -34410.858     -34134.861    
      3800   286.15024      1449.4017      1.4394045     -34392.928     -34129.363    
      3900   299.47106      8366.8705      1.4427253     -34387.365     -34111.531    
      4000   301.56734      5613.0152      1.4291316     -34376.204     -34098.439    
      4100   307.0479      -4408.6317      1.4227572     -34384.095     -34101.283    
      4200   291.01952      4654.751       1.4242103     -34407.322     -34139.272    
      4300   277.96275      3878.3524      1.4315139     -34407.755     -34151.731    
      4400   300.91283      9835.8796      1.4311512     -34413.055     -34135.894    
      4500   301.44393      4031.8027      1.442247      -34402.964     -34125.313    
      4600   312.65186     -11871.757      1.4377969     -34408.863     -34120.888    
      4700   315.79228     -3734.589       1.4407711     -34421.615     -34130.748    
      4800   291.78724      5532.1828      1.4519114     -34425.768     -34157.011    
      4900   280.42493     -326.62534      1.457795      -34427.704     -34169.412    
      5000   294.37271      14400.579      1.4472773     -34434.797     -34163.659    
Loop time of 2168.58 on 1 procs for 5000 steps with 310 atoms

Performance: 0.100 ns/day, 240.953 hours/ns, 2.306 timesteps/s, 714.755 atom-step/s
22.2% CPU use with 1 MPI tasks x 1 OpenMP threads

MPI task timing breakdown:
Section |  min time  |  avg time  |  max time  |%varavg| %total
---------------------------------------------------------------
Pair    | 1789.2     | 1789.2     | 1789.2     |   0.0 | 82.50
Bond    | 0.0014585  | 0.0014585  | 0.0014585  |   0.0 |  0.00
Neigh   | 146.92     | 146.92     | 146.92     |   0.0 |  6.77
Comm    | 1.2295     | 1.2295     | 1.2295     |   0.0 |  0.06
Output  | 0.13037    | 0.13037    | 0.13037    |   0.0 |  0.01
Modify  | 230.86     | 230.86     | 230.86     |   0.0 | 10.65
Other   |            | 0.2743     |            |       |  0.01

Nlocal:            310 ave         310 max         310 min
Histogram: 1 0 0 0 0 0 0 0 0 0
Nghost:           5707 ave        5707 max        5707 min
Histogram: 1 0 0 0 0 0 0 0 0 0
Neighs:         174582 ave      174582 max      174582 min
Histogram: 1 0 0 0 0 0 0 0 0 0

Total # of neighbors = 174582
Ave neighs/atom = 563.16774
Ave special neighs/atom = 0
Neighbor list builds = 500
Dangerous builds not checked
*****Heat starts.*****
Setting up Verlet run ...
  Unit style    : real
  Current step  : 5000
  Time step     : 0.5
Per MPI rank memory allocation (min/avg/max) = 236.3 | 236.3 | 236.3 Mbytes
   Step          Temp          Press         Density         PotEng         TotEng    
      5000   294.37271      14400.579      1.4472773     -34434.797     -34163.659    
      5100   307.72037      12198.923      1.4472773     -34421.148     -34137.716    
      5200   348.22922     -2021.7479      1.4472773     -34397.799     -34077.055    
      5300   387.31847     -8527.5397      1.4472773     -34339.082     -33982.334    
      5400   449.348        12059.964      1.4472773     -34272.714     -33858.833    
      5500   518.8399       11743.84       1.4472773     -34179.802     -33701.914    
      5600   632.7981       13625.969      1.4472773     -34097.375     -33514.524    
      5700   732.93229      5660.6724      1.4472773     -33969.995     -33294.913    
      5800   875.60599     -6598.0813      1.4472773     -33850.728     -33044.233    
      5900   976.44664      17369.33       1.4472773     -33674.668     -32775.292    
      6000   1137.3467      4286.34        1.4472773     -33541.226     -32493.65     
      6100   1203.7541      12923.927      1.4472773     -33340.374     -32231.632    
      6200   1463.1954     -1609.0708      1.4472773     -33308.507     -31960.801    
      6300   1555.3741      6673.6379      1.4472773     -33133.423     -31700.814    
      6400   1630.3142      13910.813      1.4472773     -32931.754     -31430.12     
      6500   1891.9402      38291.607      1.4472773     -32953.7       -31211.09     
      6600   1788.9541      17238.876      1.4472773     -32747.49      -31099.737    
      6700   1870.7617      7762.6528      1.4472773     -32683.631     -30960.528    
      6800   1851.5812      15808.085      1.4472773     -32485.629     -30780.192    
      6900   2156.2377      12137.16       1.4472773     -32475.355     -30489.309    
      7000   2217.7422      45168.93       1.4472773     -32275.591     -30232.895    
Loop time of 819.769 on 1 procs for 2000 steps with 310 atoms

Performance: 0.105 ns/day, 227.714 hours/ns, 2.440 timesteps/s, 756.311 atom-step/s
22.2% CPU use with 1 MPI tasks x 1 OpenMP threads

MPI task timing breakdown:
Section |  min time  |  avg time  |  max time  |%varavg| %total
---------------------------------------------------------------
Pair    | 672.35     | 672.35     | 672.35     |   0.0 | 82.02
Bond    | 0.00046087 | 0.00046087 | 0.00046087 |   0.0 |  0.00
Neigh   | 51.617     | 51.617     | 51.617     |   0.0 |  6.30
Comm    | 0.63074    | 0.63074    | 0.63074    |   0.0 |  0.08
Output  | 0.039534   | 0.039534   | 0.039534   |   0.0 |  0.00
Modify  | 95.101     | 95.101     | 95.101     |   0.0 | 11.60
Other   |            | 0.02525    |            |       |  0.00

Nlocal:            310 ave         310 max         310 min
Histogram: 1 0 0 0 0 0 0 0 0 0
Nghost:           5787 ave        5787 max        5787 min
Histogram: 1 0 0 0 0 0 0 0 0 0
Neighs:         173938 ave      173938 max      173938 min
Histogram: 1 0 0 0 0 0 0 0 0 0

Total # of neighbors = 173938
Ave neighs/atom = 561.09032
Ave special neighs/atom = 0
Neighbor list builds = 200
Dangerous builds not checked
*****Middle equilibration starts.*****
*****Cool starts.*****
Setting up Verlet run ...
  Unit style    : real
  Current step  : 7000
  Time step     : 0.5
Per MPI rank memory allocation (min/avg/max) = 236.3 | 236.3 | 236.3 Mbytes
   Step          Temp          Press         Density         PotEng         TotEng    
      7000   300            21232.037      1.4472773     -32275.591     -31999.27     
      7100   1501.9384      51500.553      1.4472773     -33120.574     -31737.183    
      7200   1715.5338     -19242.608      1.4472773     -32918.772     -31338.645    
      7300   1869.5346      16111.725      1.4472773     -32635.568     -30913.596    
      7400   2099.7426      14461.277      1.4472773     -32457.317     -30523.306    
      7500   2041.9071      39151.487      1.4472773     -32132.426     -30251.686    
      7600   2231.8786      9470.8632      1.4472773     -32111.009     -30055.292    
      7700   2121.1605      21375.473      1.4472773     -32013.18      -30059.442    
      7800   2132.77       -7717.9117      1.4472773     -32206.232     -30241.801    
      7900   1987.2129      28796.183      1.4472773     -32334.214     -30503.852    
      8000   1930.9277      24877.016      1.4472773     -32446.205     -30667.685    
      8100   1894.5887      48828.764      1.4472773     -32511.494     -30766.444    
      8200   1894.8444      40728.557      1.4472773     -32524.487     -30779.202    
      8300   2001.5644      15823.456      1.4472773     -32484.734     -30641.153    
      8400   2023.4666      3948.1714      1.4472773     -32457.794     -30594.039    
      8500   2007.8336      69886.621      1.4472773     -32581.534     -30732.178    
      8600   1800.5992      14584.385      1.4472773     -32528.363     -30869.885    
      8700   1852.6263      15609.621      1.4472773     -32581.994     -30875.595    
      8800   1804.2601      27145.984      1.4472773     -32468.452     -30806.602    
      8900   1912.1119      16582.415      1.4472773     -32350.54      -30589.351    
      9000   2004.9136      8534.885       1.4472773     -32456.4       -30609.733    
      9100   1864.2875      29886.259      1.4472773     -32468.285     -30751.145    
      9200   1877.7876      29184.793      1.4472773     -32565.695     -30836.121    
      9300   1920.3457     -4189.4557      1.4472773     -32700.599     -30931.825    
      9400   1793.2052      12891.325      1.4472773     -32659.294     -31007.626    
      9500   1829.8666      29535.002      1.4472773     -32687.664     -31002.228    
      9600   1708.3484     -13754.61       1.4472773     -32639.339     -31065.83     
      9700   1691.3287      24614.575      1.4472773     -32652.157     -31094.324    
      9800   1613.7186      12651.718      1.4472773     -32654.453     -31168.105    
      9900   1644.8879      8620.0078      1.4472773     -32751.165     -31236.107    
     10000   1657.0431      6152.3442      1.4472773     -32833.315     -31307.062    
     10100   1647.0244     -1776.0323      1.4472773     -32979.707     -31462.682    
     10200   1623.2253      16711.013      1.4472773     -33063.796     -31568.691    
     10300   1629.8668      10501.88       1.4472773     -33037.609     -31536.387    
     10400   1485.5561      6457.1629      1.4472773     -32885.389     -31517.087    
     10500   1600.7508      24073.116      1.4472773     -32941.322     -31466.918    
     10600   1605.7231     -37007.672      1.4472773     -32903.148     -31424.164    
     10700   1480.6633     -4558.6928      1.4472773     -32935.997     -31572.202    
     10800   1437.5999      24372.462      1.4472773     -32989.994     -31665.864    
     10900   1364.409       29255.249      1.4472773     -32967.115     -31710.398    
     11000   1334.5242     -15956.712      1.4472773     -32996.26      -31767.069    
     11100   1438.6898      24240.12       1.4472773     -33199.128     -31873.994    
     11200   1330.4035     -298.65332      1.4472773     -33211.282     -31985.887    
     11300   1340.1742     -5422.8143      1.4472773     -33187.494     -31953.099    
     11400   1395.0043      11568.689      1.4472773     -33125.18      -31840.283    
     11500   1373.7342      759.4204       1.4472773     -33128.025     -31862.719    
     11600   1361.7999     -16230.662      1.4472773     -33182.194     -31927.881    
     11700   1264.1639     -2322.5872      1.4472773     -33189.862     -32025.478    
     11800   1283.0351     -2684.3787      1.4472773     -33253.896     -32072.13     
     11900   1244.364       12464.929      1.4472773     -33235.109     -32088.962    
     12000   1323.5931      27860.609      1.4472773     -33317.27      -32098.147    
     12100   1228.8432      26169.075      1.4472773     -33310.042     -32178.191    
     12200   1119.8493     -10656.975      1.4472773     -33356.638     -32325.178    
     12300   1125.9405     -9691.6441      1.4472773     -33378.799     -32341.728    
     12400   1212.6395      15402.673      1.4472773     -33456.466     -32339.54     
     12500   1254.3077      19852.623      1.4472773     -33481.132     -32325.826    
     12600   1211.5464     -9608.7779      1.4472773     -33511.836     -32395.917    
     12700   1126.5821      1819.4317      1.4472773     -33556.269     -32518.607    
     12800   1063.6237      6769.7195      1.4472773     -33536.041     -32556.369    
     12900   1067.2718      18353.362      1.4472773     -33555.726     -32572.694    
     13000   1021.5388      6454.8844      1.4472773     -33555.816     -32614.907    
     13100   1006.721       23981.554      1.4472773     -33657.115     -32729.854    
     13200   1067.4095      16452.841      1.4472773     -33741.215     -32758.056    
     13300   1052.7924      21664.432      1.4472773     -33723.866     -32754.17     
     13400   968.8871       10731.321      1.4472773     -33687.358     -32794.945    
     13500   907.49683      13545.688      1.4472773     -33742.461     -32906.592    
     13600   917.02824      2509.8836      1.4472773     -33767.009     -32922.362    
     13700   991.25221     -6100.6848      1.4472773     -33807.473     -32894.46     
     13800   911.05823      8405.4612      1.4472773     -33691.714     -32852.565    
     13900   972.40136      16591.514      1.4472773     -33751.159     -32855.509    
     14000   920.2181       2463.4675      1.4472773     -33815.616     -32968.03     
     14100   874.72882      26853.929      1.4472773     -33849.419     -33043.733    
     14200   835.0603       6827.4541      1.4472773     -33874.161     -33105.012    
     14300   806.17196     -12519.307      1.4472773     -33884.953     -33142.412    
     14400   837.55628      4289.6215      1.4472773     -33930.778     -33159.33     
     14500   799.03894      6410.5304      1.4472773     -33957.442     -33221.471    
     14600   708.18048      26438.609      1.4472773     -33944.914     -33292.63     
     14700   754.12374     -2399.0732      1.4472773     -33982.246     -33287.645    
     14800   749.72419      22861.386      1.4472773     -33998.327     -33307.779    
     14900   713.16958     -8368.7305      1.4472773     -34048.387     -33391.508    
     15000   700.47901      1708.1487      1.4472773     -34062.866     -33417.675    
     15100   697.4056       1912.2525      1.4472773     -34082.723     -33440.364    
     15200   670.04313     -3694.1045      1.4472773     -34122.689     -33505.533    
     15300   645.00045      29325.608      1.4472773     -34131.521     -33537.43     
     15400   639.07606      661.86244      1.4472773     -34141.44      -33552.806    
     15500   608.70195      6135.9343      1.4472773     -34158.295     -33597.638    
     15600   596.37939      4934.082       1.4472773     -34186.591     -33637.284    
     15700   571.52178      15410.083      1.4472773     -34190.449     -33664.037    
     15800   532.78155     -3053.3677      1.4472773     -34192.676     -33701.947    
     15900   562.46234      18048.991      1.4472773     -34258.629     -33740.562    
     16000   473.97036      7424.6491      1.4472773     -34219.773     -33783.213    
     16100   517.39615     -4140.4786      1.4472773     -34282.874     -33806.315    
     16200   465.5231      -6517.9112      1.4472773     -34279.484     -33850.704    
     16300   470.11502      14959.903      1.4472773     -34324.006     -33890.997    
     16400   443.38213      1185.9125      1.4472773     -34337.156     -33928.77     
     16500   410.91517     -12194.667      1.4472773     -34353.143     -33974.661    
     16600   383.6797      -2062.8641      1.4472773     -34366.736     -34013.34     
     16700   380.29428      1526.574       1.4472773     -34402.891     -34052.613    
     16800   339.21045     -14854.101      1.4472773     -34406.064     -34093.627    
     16900   337.17373      2508.34        1.4472773     -34438.995     -34128.435    
     17000   333.28124     -7917.7697      1.4472773     -34476.728     -34169.752    
Loop time of 4120.51 on 1 procs for 10000 steps with 310 atoms

Performance: 0.105 ns/day, 228.917 hours/ns, 2.427 timesteps/s, 752.335 atom-step/s
22.2% CPU use with 1 MPI tasks x 1 OpenMP threads

MPI task timing breakdown:
Section |  min time  |  avg time  |  max time  |%varavg| %total
---------------------------------------------------------------
Pair    | 3374.2     | 3374.2     | 3374.2     |   0.0 | 81.89
Bond    | 0.0022916  | 0.0022916  | 0.0022916  |   0.0 |  0.00
Neigh   | 257.09     | 257.09     | 257.09     |   0.0 |  6.24
Comm    | 3.23       | 3.23       | 3.23       |   0.0 |  0.08
Output  | 0.31973    | 0.31973    | 0.31973    |   0.0 |  0.01
Modify  | 485.07     | 485.07     | 485.07     |   0.0 | 11.77
Other   |            | 0.5442     |            |       |  0.01

Nlocal:            310 ave         310 max         310 min
Histogram: 1 0 0 0 0 0 0 0 0 0
Nghost:           5685 ave        5685 max        5685 min
Histogram: 1 0 0 0 0 0 0 0 0 0
Neighs:         174947 ave      174947 max      174947 min
Histogram: 1 0 0 0 0 0 0 0 0 0

Total # of neighbors = 174947
Ave neighs/atom = 564.34516
Ave special neighs/atom = 0
Neighbor list builds = 1000
Dangerous builds not checked
*****final equilibration starts.*****
Setting up Verlet run ...
  Unit style    : real
  Current step  : 17000
  Time step     : 0.5
Per MPI rank memory allocation (min/avg/max) = 236.3 | 236.3 | 236.3 Mbytes
   Step          Temp          Press         Density         PotEng         TotEng    
     17000   333.28124     -7917.7085      1.4472773     -34476.728     -34169.752    
     17100   301.08608      1137.433       1.4570043     -34470.587     -34193.265    
     17200   302.3654       5539.6805      1.4569426     -34494.977     -34216.477    
     17300   302.03305     -2719.8209      1.4381207     -34506.188     -34227.994    
     17400   298.6802      -1562.0807      1.4374496     -34511.182     -34236.076    
     17500   279.92543     -3438.8672      1.4415522     -34503.045     -34245.214    
     17600   282.57752     -11240.13       1.437614      -34532.197     -34271.923    
     17700   279.87492     -15263.991      1.4327901     -34537.6       -34279.816    
     17800   319.97542      11895.651      1.4496656     -34544.658     -34249.938    
     17900   305.8406       19704.742      1.4569273     -34527.62      -34245.919    
     18000   310.85651     -11930.025      1.4789484     -34536.642     -34250.321    
     18100   314.55716     -1810.4701      1.485856      -34561.743     -34272.014    
     18200   281.30689     -10060.279      1.4681204     -34553.87      -34294.767    
     18300   279.16087     -3953.0911      1.4590303     -34545.665     -34288.539    
     18400   283.94334     -2093.5266      1.4608566     -34535.819     -34274.288    
     18500   303.94035     -6689.6837      1.462343      -34549.126     -34269.176    
     18600   303.28941     -6183.783       1.4673548     -34553.397     -34274.046    
     18700   277.83194     -6469.8582      1.4561998     -34562.156     -34306.253    
     18800   289.13311      5726.0494      1.4603743     -34575.239     -34308.927    
     18900   301.49813     -5226.6778      1.4703913     -34562.42      -34284.719    
     19000   303.26586      6381.7141      1.4711385     -34549.695     -34270.365    
     19100   303.71765      2428.3808      1.4730545     -34550.2       -34270.455    
     19200   272.80109     -3861.0574      1.4567855     -34531.231     -34279.962    
     19300   284.79761     -3667.5051      1.4721246     -34550.768     -34288.45     
     19400   286.4997      -2578.4497      1.471109      -34569.641     -34305.755    
     19500   275.5573      -2551.7768      1.4597526     -34553.36      -34299.552    
     19600   319.18218     -13167.224      1.4625708     -34563.463     -34269.474    
     19700   297.0825       10228.906      1.4738137     -34537.205     -34263.571    
     19800   298.75944      6291.2037      1.4727055     -34552.785     -34277.606    
     19900   277.21096     -7819.1062      1.4510173     -34551.395     -34296.064    
     20000   279.281       -4404.1292      1.4485314     -34548.941     -34291.703    
     20100   315.52229      6161.185       1.4498207     -34538.032     -34247.414    
     20200   319.54638     -9774.2199      1.4543667     -34545.162     -34250.837    
     20300   316.34218     -5706.2126      1.4559904     -34569.33      -34277.957    
     20400   312.02495      13313.403      1.4574932     -34585.169     -34297.772    
     20500   295.48172      17318.14       1.4614975     -34572.188     -34300.029    
     20600   307.8268       4396.1229      1.4649581     -34566.808     -34283.278    
     20700   322.807       -9906.8874      1.4516608     -34545.587     -34248.259    
     20800   307.85493     -9646.1195      1.458423      -34529.87      -34246.314    
     20900   305.01476      1466.8939      1.4736046     -34537.912     -34256.972    
     21000   319.34738      13647.689      1.4615451     -34563.804     -34269.662    
     21100   281.91223      4892.7548      1.4653477     -34550.15      -34290.489    
     21200   295.05678     -941.62335      1.4614546     -34569.356     -34297.588    
     21300   285.66405      770.93093      1.462679      -34548.67      -34285.553    
     21400   315.93283     -2108.6312      1.4775309     -34558.803     -34267.807    
     21500   308.14534      584.59599      1.4794104     -34548.451     -34264.627    
     21600   308.68779     -1911.3265      1.4705353     -34562.188     -34277.865    
     21700   279.72291     -713.25062      1.4649578     -34563.045     -34305.401    
     21800   272.45611      19456.651      1.4880735     -34558.077     -34307.125    
     21900   302.32429     -2813.488       1.4787757     -34560.95      -34282.488    
     22000   306.67512      2038.5957      1.4789743     -34547.282     -34264.813    
Loop time of 1640.53 on 1 procs for 5000 steps with 310 atoms

Performance: 0.132 ns/day, 182.281 hours/ns, 3.048 timesteps/s, 944.815 atom-step/s
27.3% CPU use with 1 MPI tasks x 1 OpenMP threads

MPI task timing breakdown:
Section |  min time  |  avg time  |  max time  |%varavg| %total
---------------------------------------------------------------
Pair    | 1348.5     | 1348.5     | 1348.5     |   0.0 | 82.20
Bond    | 0.0011551  | 0.0011551  | 0.0011551  |   0.0 |  0.00
Neigh   | 106.41     | 106.41     | 106.41     |   0.0 |  6.49
Comm    | 1.2492     | 1.2492     | 1.2492     |   0.0 |  0.08
Output  | 0.14133    | 0.14133    | 0.14133    |   0.0 |  0.01
Modify  | 184.07     | 184.07     | 184.07     |   0.0 | 11.22
Other   |            | 0.2147     |            |       |  0.01

Nlocal:            310 ave         310 max         310 min
Histogram: 1 0 0 0 0 0 0 0 0 0
Nghost:           5854 ave        5854 max        5854 min
Histogram: 1 0 0 0 0 0 0 0 0 0
Neighs:         178720 ave      178720 max      178720 min
Histogram: 1 0 0 0 0 0 0 0 0 0

Total # of neighbors = 178720
Ave neighs/atom = 576.51613
Ave special neighs/atom = 0
Neighbor list builds = 500
Dangerous builds not checked
System init for write_data ...
Total wall time: 2:26:21
