LAMMPS (2 Aug 2023 - Update 2)
OMP_NUM_THREADS environment is not set. Defaulting to 1 thread. (src/comm.cpp:98)
  using 1 OpenMP thread(s) per MPI task
Reading data file ...
  triclinic box = (0 0 0) to (16.8189 12.842 16.0755) with tilt (-8.3798 1.195 0.4312)
WARNING: Triclinic box skew is large. LAMMPS will run inefficiently. (src/domain.cpp:220)
  2 by 2 by 2 MPI processor grid
  reading atoms ...
  274 atoms
Finding 1-2 1-3 1-4 neighbors ...
  special bond factors lj:    0        0        0       
  special bond factors coul:  0        0        0       
     0 = max # of 1-2 neighbors
     0 = max # of 1-3 neighbors
     0 = max # of 1-4 neighbors
     1 = max # of special neighbors
  special bonds CPU = 0.001 seconds
  read_data CPU = 0.007 seconds
*****Minimization starts.*****
Setting up cg style minimization ...
  Unit style    : real
  Current step  : 0
WARNING: No pairwise cutoff or binsize set. Atom sorting therefore disabled. (src/atom.cpp:2366)
WARNING: Communication cutoff is 0.0. No ghost atoms will be generated. Atoms may get lost. (src/comm_brick.cpp:210)
Per MPI rank memory allocation (min/avg/max) = 6.364 | 6.364 | 6.364 Mbytes
   Step          Temp          E_pair         E_mol          TotEng         Press     
         0   0              0              0              0              0            
         1   0              0              0              0              0            
Loop time of 5.36656e-05 on 8 procs for 1 steps with 274 atoms

50.5% CPU use with 8 MPI tasks x 1 OpenMP threads

Minimization stats:
  Stopping criterion = search direction is not downhill
  Energy initial, next-to-last, final = 
                     0                  0                  0
  Force two-norm initial, final = 0 0
  Force max component initial, final = 0 0
  Final line search alpha, max atom move = 0 0
  Iterations, force evaluations = 1 0

MPI task timing breakdown:
Section |  min time  |  avg time  |  max time  |%varavg| %total
---------------------------------------------------------------
Pair    | 0          | 0          | 0          |   0.0 |  0.00
Bond    | 1.43e-07   | 2.225e-07  | 3.41e-07   |   0.0 |  0.41
Neigh   | 0          | 0          | 0          |   0.0 |  0.00
Comm    | 8e-07      | 1.3763e-06 | 1.852e-06  |   0.0 |  2.56
Output  | 0          | 0          | 0          |   0.0 |  0.00
Modify  | 0          | 0          | 0          |   0.0 |  0.00
Other   |            | 5.207e-05  |            |       | 97.02

Nlocal:          34.25 ave          40 max          23 min
Histogram: 1 0 0 0 0 0 2 3 1 1
Nghost:              0 ave           0 max           0 min
Histogram: 8 0 0 0 0 0 0 0 0 0
Neighs:              0 ave           0 max           0 min
Histogram: 8 0 0 0 0 0 0 0 0 0

Total # of neighbors = 0
Ave neighs/atom = 0
Ave special neighs/atom = 0
Neighbor list builds = 0
Dangerous builds = 0
System init for write_data ...
WARNING: Communication cutoff is 0.0. No ghost atoms will be generated. Atoms may get lost. (src/comm_brick.cpp:210)
WARNING: New thermo_style command, previous thermo_modify settings will be lost (src/output.cpp:903)

CITE-CITE-CITE-CITE-CITE-CITE-CITE-CITE-CITE-CITE-CITE-CITE-CITE

Your simulation uses code contributions which should be cited:
- pair reaxff command: doi:10.1016/j.parco.2011.08.005
- fix qeq/reaxff command: doi:10.1016/j.parco.2011.08.005
The log file lists these citations in BibTeX format.

CITE-CITE-CITE-CITE-CITE-CITE-CITE-CITE-CITE-CITE-CITE-CITE-CITE

WARNING: Fix qeq/reaxff group is not charge neutral, net charge = -8.2 (src/REAXFF/fix_qeq_reaxff.cpp:392)
Neighbor list info ...
  update: every = 10 steps, delay = 0 steps, check = no
  max neighbors/atom: 2000, page size: 100000
  master list distance cutoff = 12
  ghost atom cutoff = 12
  binsize = 6, bins = 5 3 3
  2 neighbor lists, perpetual/occasional/extra = 2 0 0
  (1) pair reaxff, perpetual
      attributes: half, newton off, ghost
      pair build: half/bin/newtoff/ghost
      stencil: full/ghost/bin/3d
      bin: standard
  (2) fix qeq/reaxff, perpetual, copy from (1)
      attributes: half, newton off
      pair build: copy
      stencil: none
      bin: none
Setting up Verlet run ...
  Unit style    : real
  Current step  : 0
  Time step     : 0.5
Per MPI rank memory allocation (min/avg/max) = 109.8 | 110.8 | 111.6 Mbytes
   Step          Temp          PotEng         Press         Density         Volume    
         0   300           -29524.072      53373.102      1.4594291      3472.1201    
       100   940.83325     -30895.433     -22221.566      1.4594291      3472.1201    
       200   655.32859     -31410.555     -8415.0945      1.4594291      3472.1201    
       300   492.44705     -31703.584     -1794.1004      1.4594291      3472.1201    
       400   382.80684     -31863.571     -399.08344      1.4594291      3472.1201    
       500   340.51122     -31988.881     -4396.9622      1.4594291      3472.1201    
       600   278.76054     -32030.093     -12030.124      1.4594291      3472.1201    
       700   252.54387     -32039.073     -16008.085      1.4594291      3472.1201    
       800   303.17696     -32059.227     -7196.0812      1.4594291      3472.1201    
       900   316.31868     -32035.623      1880.9547      1.4594291      3472.1201    
      1000   302.25251     -32011.681      399.58501      1.4594291      3472.1201    
      1100   315.72134     -32030.621     -1937.705       1.4594291      3472.1201    
      1200   304.92451     -32062.996     -4858.2292      1.4594291      3472.1201    
      1300   271.27974     -32068.968     -12188.651      1.4594291      3472.1201    
      1400   282.30555     -32083.975     -5263.1535      1.4594291      3472.1201    
      1500   284.15138     -32063.957     -2027.0405      1.4594291      3472.1201    
      1600   304.84901     -32054.903     -8468.5027      1.4594291      3472.1201    
      1700   320.05144     -32056.724     -12833.076      1.4594291      3472.1201    
      1800   304.8515      -32060.022     -6647.9777      1.4594291      3472.1201    
      1900   292.71773     -32083.757     -1193.4113      1.4594291      3472.1201    
