LAMMPS (2 Aug 2023 - Update 2)
  using 2 OpenMP thread(s) per MPI task
Reading data file ...
  triclinic box = (0 0 0) to (16.8189 12.842 16.0755) with tilt (-8.3798 1.195 0.4312)
WARNING: Triclinic box skew is large. LAMMPS will run inefficiently. (src/domain.cpp:220)
  2 by 2 by 2 MPI processor grid
  reading atoms ...
  274 atoms
Finding 1-2 1-3 1-4 neighbors ...
  special bond factors lj:    0        0        0       
  special bond factors coul:  0        0        0       
     0 = max # of 1-2 neighbors
     0 = max # of 1-3 neighbors
     0 = max # of 1-4 neighbors
     1 = max # of special neighbors
  special bonds CPU = 0.001 seconds
  read_data CPU = 0.007 seconds
*****Minimization starts.*****
Setting up cg style minimization ...
  Unit style    : real
  Current step  : 0
WARNING: No pairwise cutoff or binsize set. Atom sorting therefore disabled. (src/atom.cpp:2366)
WARNING: Communication cutoff is 0.0. No ghost atoms will be generated. Atoms may get lost. (src/comm_brick.cpp:210)
Per MPI rank memory allocation (min/avg/max) = 6.864 | 6.864 | 6.864 Mbytes
   Step          Temp          E_pair         E_mol          TotEng         Press     
         0   300            0              0              244.12834      3214.0773    
         1   300            0              0              244.12834      3214.0773    
Loop time of 6.02657e-05 on 16 procs for 1 steps with 274 atoms

54.6% CPU use with 8 MPI tasks x 2 OpenMP threads

Minimization stats:
  Stopping criterion = search direction is not downhill
  Energy initial, next-to-last, final = 
                     0                  0                  0
  Force two-norm initial, final = 0 0
  Force max component initial, final = 0 0
  Final line search alpha, max atom move = 0 0
  Iterations, force evaluations = 1 0

MPI task timing breakdown:
Section |  min time  |  avg time  |  max time  |%varavg| %total
---------------------------------------------------------------
Pair    | 0          | 0          | 0          |   0.0 |  0.00
Bond    | 1.5e-07    | 2.1013e-07 | 3.3e-07    |   0.0 |  0.35
Neigh   | 0          | 0          | 0          |   0.0 |  0.00
Comm    | 1.166e-06  | 1.4004e-06 | 1.805e-06  |   0.0 |  2.32
Output  | 0          | 0          | 0          |   0.0 |  0.00
Modify  | 0          | 0          | 0          |   0.0 |  0.00
Other   |            | 5.866e-05  |            |       | 97.33

Nlocal:          34.25 ave          40 max          23 min
Histogram: 1 0 0 0 0 0 2 3 1 1
Nghost:              0 ave           0 max           0 min
Histogram: 8 0 0 0 0 0 0 0 0 0
Neighs:              0 ave           0 max           0 min
Histogram: 8 0 0 0 0 0 0 0 0 0

Total # of neighbors = 0
Ave neighs/atom = 0
Ave special neighs/atom = 0
Neighbor list builds = 0
Dangerous builds = 0
System init for write_data ...
WARNING: Communication cutoff is 0.0. No ghost atoms will be generated. Atoms may get lost. (src/comm_brick.cpp:210)
WARNING: New thermo_style command, previous thermo_modify settings will be lost (src/output.cpp:903)

CITE-CITE-CITE-CITE-CITE-CITE-CITE-CITE-CITE-CITE-CITE-CITE-CITE

Your simulation uses code contributions which should be cited:
- pair reaxff command: doi:10.1016/j.parco.2011.08.005
- fix qeq/reaxff command: doi:10.1016/j.parco.2011.08.005
The log file lists these citations in BibTeX format.

CITE-CITE-CITE-CITE-CITE-CITE-CITE-CITE-CITE-CITE-CITE-CITE-CITE

WARNING: Fix qeq/reaxff group is not charge neutral, net charge = -8.2 (src/REAXFF/fix_qeq_reaxff.cpp:392)
Neighbor list info ...
  update: every = 10 steps, delay = 0 steps, check = no
  max neighbors/atom: 2000, page size: 100000
  master list distance cutoff = 12
  ghost atom cutoff = 12
  binsize = 6, bins = 5 3 3
  2 neighbor lists, perpetual/occasional/extra = 2 0 0
  (1) pair reaxff, perpetual
      attributes: half, newton off, ghost
      pair build: half/bin/newtoff/ghost
      stencil: full/ghost/bin/3d
      bin: standard
  (2) fix qeq/reaxff, perpetual, copy from (1)
      attributes: half, newton off
      pair build: copy
      stencil: none
      bin: none
Setting up Verlet run ...
  Unit style    : real
  Current step  : 0
  Time step     : 0.5
Per MPI rank memory allocation (min/avg/max) = 111.1 | 112 | 112.9 Mbytes
   Step          Temp          PotEng         Press        f_avgp[1]       Density         Volume    
         0   300           -29524.072      53373.102      0              1.4594291      3472.1201    
       100   864.57199     -31300.975     -6488.5945     -20903.11       1.4594291      3472.1201    
       200   491.31096     -31665.672     -10908.189     -9215.3323      1.4594291      3472.1201    
       300   349.49231     -31832.277      2775.3677     -210.47415      1.4594291      3472.1201    
       400   366.00602     -31887.429      7168.5321     -2948.1329      1.4594291      3472.1201    
       500   339.67941     -31936.868     -7882.2673     -2619.9659      1.4594291      3472.1201    
       600   304.5391      -31946.807      3418.1519     -3922.0508      1.4594291      3472.1201    
       700   360.28626     -31984.443      3332.0923     -1288.8078      1.4594291      3472.1201    
       800   319.38677     -32002.455     -3260.9004     -2433.0472      1.4594291      3472.1201    
       900   294.26309     -32008.813     -7248.9518     -4432.2807      1.4594291      3472.1201    
      1000   311.45732     -32013.898      7120.181       474.64571      1.4594291      3472.1201    
      1100   312.62652     -32011.045      6082.6101      2053.2606      1.4594291      3472.1201    
      1200   327.11532     -32004.494      5471.0302      6303.1709      1.4594291      3472.1201    
      1300   304.74375     -32024.271     -733.52502      7421.2326      1.4594291      3472.1201    
      1400   300.99326     -32008.408      1889.6708     -3560.5822      1.4594291      3472.1201    
      1500   328.05572     -32011.516      8984.4241     -1131.3849      1.4594291      3472.1201    
      1600   321.59958     -31984.14      -1128.5195      1532.1938      1.4594291      3472.1201    
      1700   294.90843     -31994.162     -1747.404       2261.8839      1.4594291      3472.1201    
      1800   312.07414     -32011.536      4003.4013     -4427.0397      1.4594291      3472.1201    
      1900   328.76919     -32035.189     -3871.5172     -7796.2859      1.4594291      3472.1201    
      2000   330.08776     -32036.358      676.94255      366.861        1.4594291      3472.1201    
Loop time of 78.3803 on 16 procs for 2000 steps with 274 atoms

Performance: 1.102 ns/day, 21.772 hours/ns, 25.517 timesteps/s, 6.992 katom-step/s
98.7% CPU use with 8 MPI tasks x 2 OpenMP threads

MPI task timing breakdown:
Section |  min time  |  avg time  |  max time  |%varavg| %total
---------------------------------------------------------------
Pair    | 53.862     | 56.707     | 58.836     |  22.9 | 72.35
Bond    | 0.00065755 | 0.00078783 | 0.00094264 |   0.0 |  0.00
Neigh   | 4.1931     | 4.2492     | 4.3069     |   1.9 |  5.42
Comm    | 5.6642     | 7.7826     | 10.608     |  61.4 |  9.93
Output  | 0.0010786  | 0.0012825  | 0.0025198  |   1.3 |  0.00
Modify  | 9.2732     | 9.3479     | 9.4211     |   1.6 | 11.93
Other   |            | 0.2921     |            |       |  0.37

Nlocal:          34.25 ave          42 max          27 min
Histogram: 1 0 2 0 2 1 0 0 0 2
Nghost:         2826.5 ave        2853 max        2798 min
Histogram: 2 0 1 1 0 0 1 0 0 3
Neighs:        18947.4 ave       23148 max       15138 min
Histogram: 1 0 2 0 2 1 0 0 0 2

Total # of neighbors = 151579
Ave neighs/atom = 553.20803
Ave special neighs/atom = 0
Neighbor list builds = 200
Dangerous builds not checked
System init for write_restart ...
  using 2 OpenMP thread(s) per MPI task
Reading restart file ...
  restart file = 2 Aug 2023, LAMMPS = 2 Aug 2023
  restoring atom style full from restart
  triclinic box = (0 0 0) to (16.8189 12.842 16.0755) with tilt (-8.3798 1.195 0.4312)
WARNING: Triclinic box skew is large. LAMMPS will run inefficiently. (src/domain.cpp:220)
  2 by 2 by 2 MPI processor grid
  pair style reaxff stores no restart info
  274 atoms
Finding 1-2 1-3 1-4 neighbors ...
  special bond factors lj:    0        0        0       
  special bond factors coul:  0        0        0       
     0 = max # of 1-2 neighbors
     0 = max # of 1-3 neighbors
     0 = max # of 1-4 neighbors
     1 = max # of special neighbors
  special bonds CPU = 0.001 seconds
  read_restart CPU = 0.005 seconds
*****Negative-deform 1 starts.*****
Neighbor list info ...
  update: every = 10 steps, delay = 0 steps, check = no
  max neighbors/atom: 2000, page size: 100000
  master list distance cutoff = 12
  ghost atom cutoff = 12
  binsize = 6, bins = 5 3 3
  2 neighbor lists, perpetual/occasional/extra = 2 0 0
  (1) pair reaxff, perpetual
      attributes: half, newton off, ghost
      pair build: half/bin/newtoff/ghost
      stencil: full/ghost/bin/3d
      bin: standard
  (2) fix qeq/reaxff, perpetual, copy from (1)
      attributes: half, newton off
      pair build: copy
      stencil: none
      bin: none
Setting up Verlet run ...
  Unit style    : real
  Current step  : 0
  Time step     : 0.5
Per MPI rank memory allocation (min/avg/max) = 110.3 | 111.5 | 112.7 Mbytes
   Step          Temp          PotEng         Press        f_avgp[1]        Volume    
         0   330.08776     -32036.358      676.89364      0              3472.1201    
       100   302.064       -32034.384      5252.441      -4566.6395      3470.3841    
       200   311.90759     -32035.693      5738.6027     -5483.4782      3468.648     
       300   281.7023      -32048.523     -4628.4467     -7847.5013      3466.912     
       400   299.26577     -32051.756     -5965.7377     -4355.7927      3465.1759    
       500   293.35852     -32045.065      3521.5728     -5744.8613      3463.4398    
       600   315.73075     -32074.157      5853.4735     -2293.6798      3461.7038    
       700   290.02021     -32063.489     -7673.5133     -1680.7065      3459.9677    
       800   296.89028     -32072.942      3111.7732      227.01646      3458.2317    
       900   321.72311     -32094.783     -7586.4779     -5908.5828      3456.4956    
      1000   297.01877     -32067.893      665.29615     -2934.946       3454.7595    
      1100   299.11917     -32092.4       -8833.3074     -4265.792       3453.0235    
      1200   301.27159     -32086.695     -102.64487     -7957.0227      3451.2874    
      1300   302.77625     -32099.019     -4957.2324     -3656.5774      3449.5514    
      1400   285.57585     -32075.615     -2015.3041     -3821.021       3447.8153    
      1500   301.05518     -32087.419     -7251.006      -6162.9586      3446.0792    
      1600   296.14237     -32099.859     -5634.2566     -7906.1254      3444.3432    
      1700   291.06154     -32097.809      11362.005     -3367.1158      3442.6071    
      1800   295.47168     -32111.469     -3606.7586     -7736.3774      3440.8711    
      1900   302.80918     -32115.219     -355.45054     -6056.6004      3439.135     
      2000   310.46312     -32096.3       -13107.943     -6513.6513      3437.3989    
Loop time of 79.8051 on 16 procs for 2000 steps with 274 atoms

Performance: 1.083 ns/day, 22.168 hours/ns, 25.061 timesteps/s, 6.867 katom-step/s
98.8% CPU use with 8 MPI tasks x 2 OpenMP threads

MPI task timing breakdown:
Section |  min time  |  avg time  |  max time  |%varavg| %total
---------------------------------------------------------------
Pair    | 54.919     | 57.601     | 59.424     |  20.0 | 72.18
Bond    | 0.00068953 | 0.00081858 | 0.00095393 |   0.0 |  0.00
Neigh   | 4.2342     | 4.2879     | 4.4163     |   2.5 |  5.37
Comm    | 6.2405     | 8.0815     | 10.79      |  53.2 | 10.13
Output  | 0.006266   | 0.011184   | 0.01753    |   3.7 |  0.01
Modify  | 9.3153     | 9.4671     | 9.5529     |   2.1 | 11.86
Other   |            | 0.3561     |            |       |  0.45

Nlocal:          34.25 ave          43 max          26 min
Histogram: 1 1 1 0 1 2 0 0 1 1
Nghost:        2849.75 ave        2882 max        2824 min
Histogram: 1 1 0 2 1 1 0 1 0 1
Neighs:          19115 ave       23838 max       14731 min
Histogram: 1 1 1 0 1 2 0 0 1 1

Total # of neighbors = 152920
Ave neighs/atom = 558.10219
Ave special neighs/atom = 0
Neighbor list builds = 200
Dangerous builds not checked
  using 2 OpenMP thread(s) per MPI task
Reading restart file ...
  restart file = 2 Aug 2023, LAMMPS = 2 Aug 2023
  restoring atom style full from restart
  triclinic box = (0 0 0) to (16.8189 12.842 16.0755) with tilt (-8.3798 1.195 0.4312)
WARNING: Triclinic box skew is large. LAMMPS will run inefficiently. (src/domain.cpp:220)
  2 by 2 by 2 MPI processor grid
  pair style reaxff stores no restart info
  274 atoms
Finding 1-2 1-3 1-4 neighbors ...
  special bond factors lj:    0        0        0       
  special bond factors coul:  0        0        0       
     0 = max # of 1-2 neighbors
     0 = max # of 1-3 neighbors
     0 = max # of 1-4 neighbors
     1 = max # of special neighbors
  special bonds CPU = 0.000 seconds
  read_restart CPU = 0.004 seconds
*****Positive-deform 1 starts.*****
Neighbor list info ...
  update: every = 10 steps, delay = 0 steps, check = no
  max neighbors/atom: 2000, page size: 100000
  master list distance cutoff = 12
  ghost atom cutoff = 12
  binsize = 6, bins = 5 3 3
  2 neighbor lists, perpetual/occasional/extra = 2 0 0
  (1) pair reaxff, perpetual
      attributes: half, newton off, ghost
      pair build: half/bin/newtoff/ghost
      stencil: full/ghost/bin/3d
      bin: standard
  (2) fix qeq/reaxff, perpetual, copy from (1)
      attributes: half, newton off
      pair build: copy
      stencil: none
      bin: none
Setting up Verlet run ...
  Unit style    : real
  Current step  : 0
  Time step     : 0.5
Per MPI rank memory allocation (min/avg/max) = 110.3 | 111.5 | 112.7 Mbytes
   Step          Temp          PotEng         Press        f_avgp[1]        Volume    
         0   330.08776     -32036.358      676.89364      0              3472.1201    
       100   302.064       -32034.384      5247.1912     -4566.817       3473.8562    
       200   311.90002     -32035.582      5567.1332     -5821.9451      3475.5923    
       300   282.92492     -32052.021      2086.1055     -7448.5013      3477.3283    
       400   286.74932     -32037.495     -9510.8991     -2701.2061      3479.0644    
       500   312.81347     -32061.048     -6194.0881     -886.81784      3480.8004    
       600   292.24237     -32048.201     -8094.5055     -1149.5408      3482.5365    
       700   290.45756     -32064.029     -2040.8589     -1820.6403      3484.2726    
       800   314.13943     -32062.878      3869.6245     -4021.2322      3486.0086    
       900   284.17005     -32069.427      1587.2098     -33.109233      3487.7447    
      1000   269.44933     -32069.732      2605.5776     -3053.43        3489.4807    
      1100   292.03017     -32094.331      5526.6359     -6155.5198      3491.2168    
      1200   295.85286     -32079.663     -7454.0097      1628.8743      3492.9529    
      1300   316.10125     -32065.618      3707.1089     -5281.8674      3494.6889    
      1400   280.82039     -32049.844     -11246.067     -7771.2222      3496.425     
      1500   315.85735     -32086.981     -16742.104     -5313.0447      3498.161     
      1600   304.21839     -32080.172     -1690.8807     -5449.0024      3499.8971    
      1700   286.51515     -32072.625      2880.0472     -4615.995       3501.6332    
      1800   317.88128     -32091.777     -7425.4617     -7830.5267      3503.3692    
      1900   296.86327     -32075.688     -2428.1735     -4151.4438      3505.1053    
      2000   305.12799     -32079.063     -8921.1629     -12385.691      3506.8413    
Loop time of 79.6505 on 16 procs for 2000 steps with 274 atoms

Performance: 1.085 ns/day, 22.125 hours/ns, 25.110 timesteps/s, 6.880 katom-step/s
98.6% CPU use with 8 MPI tasks x 2 OpenMP threads

MPI task timing breakdown:
Section |  min time  |  avg time  |  max time  |%varavg| %total
---------------------------------------------------------------
Pair    | 54.713     | 57.404     | 60.533     |  24.1 | 72.07
Bond    | 0.0006856  | 0.00079154 | 0.0009342  |   0.0 |  0.00
Neigh   | 4.2347     | 4.2855     | 4.363      |   2.2 |  5.38
Comm    | 4.9559     | 8.044      | 10.716     |  64.2 | 10.10
Output  | 0.0059835  | 0.012267   | 0.016979   |   4.4 |  0.02
Modify  | 9.3772     | 9.5423     | 9.6655     |   3.0 | 11.98
Other   |            | 0.3617     |            |       |  0.45

Nlocal:          34.25 ave          39 max          25 min
Histogram: 1 0 0 1 0 1 0 2 0 3
Nghost:        2820.75 ave        2851 max        2789 min
Histogram: 1 1 0 1 0 2 1 0 0 2
Neighs:        18758.2 ave       21208 max       13950 min
Histogram: 1 0 0 1 0 1 0 2 0 3

Total # of neighbors = 150066
Ave neighs/atom = 547.68613
Ave special neighs/atom = 0
Neighbor list builds = 200
Dangerous builds not checked
  using 2 OpenMP thread(s) per MPI task
Reading restart file ...
  restart file = 2 Aug 2023, LAMMPS = 2 Aug 2023
  restoring atom style full from restart
  triclinic box = (0 0 0) to (16.8189 12.842 16.0755) with tilt (-8.3798 1.195 0.4312)
WARNING: Triclinic box skew is large. LAMMPS will run inefficiently. (src/domain.cpp:220)
  2 by 2 by 2 MPI processor grid
  pair style reaxff stores no restart info
  274 atoms
Finding 1-2 1-3 1-4 neighbors ...
  special bond factors lj:    0        0        0       
  special bond factors coul:  0        0        0       
     0 = max # of 1-2 neighbors
     0 = max # of 1-3 neighbors
     0 = max # of 1-4 neighbors
     1 = max # of special neighbors
  special bonds CPU = 0.001 seconds
  read_restart CPU = 0.004 seconds
*****Negative-deform 2 starts.*****
Neighbor list info ...
  update: every = 10 steps, delay = 0 steps, check = no
  max neighbors/atom: 2000, page size: 100000
  master list distance cutoff = 12
  ghost atom cutoff = 12
  binsize = 6, bins = 5 3 3
  2 neighbor lists, perpetual/occasional/extra = 2 0 0
  (1) pair reaxff, perpetual
      attributes: half, newton off, ghost
      pair build: half/bin/newtoff/ghost
      stencil: full/ghost/bin/3d
      bin: standard
  (2) fix qeq/reaxff, perpetual, copy from (1)
      attributes: half, newton off
      pair build: copy
      stencil: none
      bin: none
Setting up Verlet run ...
  Unit style    : real
  Current step  : 0
  Time step     : 0.5
Per MPI rank memory allocation (min/avg/max) = 110.3 | 111.5 | 112.7 Mbytes
   Step          Temp          PotEng         Press        f_avgp[1]        Volume    
         0   330.08776     -32036.358      676.89364      0              3472.1201    
       100   302.064       -32034.384      5252.441      -4566.6395      3470.3841    
       200   311.85465     -32035.439      6022.0989     -5533.3453      3468.648     
       300   283.25772     -32048.57      -3548.088      -8096.3421      3466.912     
       400   281.51339     -32060.386     -5512.4901     -5387.3107      3465.1759    
       500   315.62748     -32063.198     -1088.2838     -3346.4511      3463.4398    
       600   320.57412     -32071.507      1749.8861     -5480.639       3461.7038    
       700   306.37191     -32059.327     -7763.6348     -6531.9083      3459.9677    
       800   299.9417      -32084.504     -8227.415      -4061.1896      3458.2317    
       900   289.6893      -32092.87       2849.5652     -2745.6129      3456.4956    
      1000   307.52067     -32071.031      2290.6409     -4598.5032      3454.7595    
      1100   305.66773     -32092.177     -12966.985     -2318.9119      3453.0235    
      1200   303.09398     -32079.174      3827.4461     -7443.8402      3451.2874    
      1300   304.19237     -32097.894     -5981.6793     -5219.3535      3449.5514    
      1400   316.59418     -32099.834      11496.169     -4844.2531      3447.8153    
      1500   295.4623      -32102.968     -9441.8493     -4077.826       3446.0792    
      1600   309.22182     -32102.053     -5665.4149     -3666.7647      3444.3432    
      1700   280.11187     -32091.631     -675.17963     -6161.3788      3442.6071    
      1800   294.18489     -32106.878     -8663.6371     -3505.8848      3440.8711    
      1900   283.74605     -32113.434      3237.4592     -2084.6928      3439.135     
      2000   279.09133     -32114.502     -4613.6249     -3508.9308      3437.3989    
Loop time of 79.8954 on 16 procs for 2000 steps with 274 atoms

Performance: 1.081 ns/day, 22.193 hours/ns, 25.033 timesteps/s, 6.859 katom-step/s
98.9% CPU use with 8 MPI tasks x 2 OpenMP threads

MPI task timing breakdown:
Section |  min time  |  avg time  |  max time  |%varavg| %total
---------------------------------------------------------------
Pair    | 55.399     | 57.836     | 60.864     |  26.4 | 72.39
Bond    | 0.00064305 | 0.00077577 | 0.00091999 |   0.0 |  0.00
Neigh   | 4.2256     | 4.3209     | 4.4147     |   3.0 |  5.41
Comm    | 5.0305     | 8.003      | 10.431     |  70.9 | 10.02
Output  | 0.0073361  | 0.011651   | 0.015124   |   3.1 |  0.01
Modify  | 9.1956     | 9.3578     | 9.5096     |   3.0 | 11.71
Other   |            | 0.3651     |            |       |  0.46

Nlocal:          34.25 ave          40 max          28 min
Histogram: 2 1 0 0 0 1 1 0 1 2
Nghost:        2857.62 ave        2871 max        2847 min
Histogram: 2 0 1 1 1 1 0 0 1 1
Neighs:        19151.5 ave       22247 max       15720 min
Histogram: 2 1 0 0 1 0 1 0 1 2

Total # of neighbors = 153212
Ave neighs/atom = 559.16788
Ave special neighs/atom = 0
Neighbor list builds = 200
Dangerous builds not checked
  using 2 OpenMP thread(s) per MPI task
Reading restart file ...
  restart file = 2 Aug 2023, LAMMPS = 2 Aug 2023
  restoring atom style full from restart
  triclinic box = (0 0 0) to (16.8189 12.842 16.0755) with tilt (-8.3798 1.195 0.4312)
WARNING: Triclinic box skew is large. LAMMPS will run inefficiently. (src/domain.cpp:220)
  2 by 2 by 2 MPI processor grid
  pair style reaxff stores no restart info
  274 atoms
Finding 1-2 1-3 1-4 neighbors ...
  special bond factors lj:    0        0        0       
  special bond factors coul:  0        0        0       
     0 = max # of 1-2 neighbors
     0 = max # of 1-3 neighbors
     0 = max # of 1-4 neighbors
     1 = max # of special neighbors
  special bonds CPU = 0.000 seconds
  read_restart CPU = 0.003 seconds
*****Positive-deform 2 starts.*****
Neighbor list info ...
  update: every = 10 steps, delay = 0 steps, check = no
  max neighbors/atom: 2000, page size: 100000
  master list distance cutoff = 12
  ghost atom cutoff = 12
  binsize = 6, bins = 5 3 3
  2 neighbor lists, perpetual/occasional/extra = 2 0 0
  (1) pair reaxff, perpetual
      attributes: half, newton off, ghost
      pair build: half/bin/newtoff/ghost
      stencil: full/ghost/bin/3d
      bin: standard
  (2) fix qeq/reaxff, perpetual, copy from (1)
      attributes: half, newton off
      pair build: copy
      stencil: none
      bin: none
Setting up Verlet run ...
  Unit style    : real
  Current step  : 0
  Time step     : 0.5
Per MPI rank memory allocation (min/avg/max) = 110.3 | 111.5 | 112.7 Mbytes
   Step          Temp          PotEng         Press        f_avgp[1]        Volume    
         0   330.08776     -32036.358      676.89364      0              3472.1201    
       100   302.064       -32034.384      5247.1912     -4566.817       3473.8562    
       200   309.97439     -32034.254      8193.5633     -6369.3298      3475.5923    
       300   312.94767     -32050.174     -2421.5479     -4534.1068      3477.3283    
       400   293.93493     -32058.679     -5363.3707     -7433.3965      3479.0644    
       500   315.34242     -32060.779     -8472.7479     -5952.7616      3480.8004    
       600   315.68666     -32069.52      -10931.873     -9976.8356      3482.5365    
       700   329.40103     -32079.347     -6986.8906     -2280.7575      3484.2726    
       800   280.13735     -32071.29      -6380.9081     -4049.7353      3486.0086    
       900   295.23468     -32070.441     -9197.7008     -2171.9386      3487.7447    
      1000   287.52427     -32080.487     -1002.5419     -1594.04        3489.4807    
      1100   299.30251     -32062.212     -1157.6623     -5049.1838      3491.2168    
      1200   286.06422     -32087.892      9553.7066      327.87266      3492.9529    
      1300   285.2989      -32081.161     -17049.557     -6529.4876      3494.6889    
      1400   273.29348     -32073.204     -1643.1721     -8164.4373      3496.425     
      1500   300.49703     -32098.975     -4136.9546     -8334.7264      3498.161     
      1600   278.71908     -32110.203     -9370.0066     -9342.2581      3499.8971    
      1700   297.81807     -32093.04      -21630.105     -10042.322      3501.6332    
      1800   280.64278     -32113.863     -3686.0247     -6705.4819      3503.3692    
      1900   310.84916     -32091.959     -5167.9398     -6877.0827      3505.1053    
      2000   277.96654     -32086.387     -10682.249     -7426.7567      3506.8413    
Loop time of 78.8925 on 16 procs for 2000 steps with 274 atoms

Performance: 1.095 ns/day, 21.915 hours/ns, 25.351 timesteps/s, 6.946 katom-step/s
98.7% CPU use with 8 MPI tasks x 2 OpenMP threads

MPI task timing breakdown:
Section |  min time  |  avg time  |  max time  |%varavg| %total
---------------------------------------------------------------
Pair    | 54.616     | 56.508     | 59.315     |  21.3 | 71.63
Bond    | 0.00066155 | 0.00080383 | 0.00096487 |   0.0 |  0.00
Neigh   | 4.1319     | 4.2017     | 4.2894     |   2.8 |  5.33
Comm    | 5.4998     | 8.2884     | 10.18      |  55.1 | 10.51
Output  | 0.006004   | 0.011856   | 0.017858   |   4.2 |  0.02
Modify  | 9.4017     | 9.5097     | 9.6275     |   2.1 | 12.05
Other   |            | 0.3722     |            |       |  0.47

Nlocal:          34.25 ave          41 max          28 min
Histogram: 2 0 1 0 1 0 2 0 1 1
Nghost:        2822.25 ave        2856 max        2786 min
Histogram: 1 0 1 1 0 2 1 0 1 1
Neighs:        18783.4 ave       22354 max       15546 min
Histogram: 2 0 1 0 1 0 2 0 1 1

Total # of neighbors = 150267
Ave neighs/atom = 548.41971
Ave special neighs/atom = 0
Neighbor list builds = 200
Dangerous builds not checked
  using 2 OpenMP thread(s) per MPI task
Reading restart file ...
  restart file = 2 Aug 2023, LAMMPS = 2 Aug 2023
  restoring atom style full from restart
  triclinic box = (0 0 0) to (16.8189 12.842 16.0755) with tilt (-8.3798 1.195 0.4312)
WARNING: Triclinic box skew is large. LAMMPS will run inefficiently. (src/domain.cpp:220)
  2 by 2 by 2 MPI processor grid
  pair style reaxff stores no restart info
  274 atoms
Finding 1-2 1-3 1-4 neighbors ...
  special bond factors lj:    0        0        0       
  special bond factors coul:  0        0        0       
     0 = max # of 1-2 neighbors
     0 = max # of 1-3 neighbors
     0 = max # of 1-4 neighbors
     1 = max # of special neighbors
  special bonds CPU = 0.000 seconds
  read_restart CPU = 0.003 seconds
*****Negative-deform 3 starts.*****
Neighbor list info ...
  update: every = 10 steps, delay = 0 steps, check = no
  max neighbors/atom: 2000, page size: 100000
  master list distance cutoff = 12
  ghost atom cutoff = 12
  binsize = 6, bins = 5 3 3
  2 neighbor lists, perpetual/occasional/extra = 2 0 0
  (1) pair reaxff, perpetual
      attributes: half, newton off, ghost
      pair build: half/bin/newtoff/ghost
      stencil: full/ghost/bin/3d
      bin: standard
  (2) fix qeq/reaxff, perpetual, copy from (1)
      attributes: half, newton off
      pair build: copy
      stencil: none
      bin: none
Setting up Verlet run ...
  Unit style    : real
  Current step  : 0
  Time step     : 0.5
Per MPI rank memory allocation (min/avg/max) = 110.3 | 111.5 | 112.7 Mbytes
   Step          Temp          PotEng         Press        f_avgp[1]        Volume    
         0   330.08776     -32036.358      676.89364      0              3472.1201    
       100   302.064       -32034.384      5252.441      -4566.6395      3470.3841    
       200   311.95004     -32035.422      5704.7015     -5588.2146      3468.648     
       300   301.74056     -32047.565      5641.0204     -5023.0024      3466.912     
       400   296.34109     -32054.371     -3331.132      -5655.1575      3465.1759    
       500   292.1857      -32063.646      12836.843     -518.06655      3463.4398    
       600   302.38841     -32054.192      8254.0987     -1053.2288      3461.7038    
       700   318.05592     -32062.924     -11215.212     -6923.3091      3459.9677    
       800   329.22581     -32076.275     -13121.477     -6061.5218      3458.2317    
       900   300.57091     -32066.932     -7225.0661     -465.16761      3456.4956    
      1000   282.35864     -32091.961      11.033189     -10249.074      3454.7595    
      1100   295.99249     -32086.9       -4599.0773     -12392.943      3453.0235    
      1200   294.73645     -32087.001     -6519.1546     -5941.0115      3451.2874    
      1300   307.49687     -32077.53      -5677.8501     -5955.1932      3449.5514    
      1400   281.86261     -32089.452     -566.77413     -3895.9025      3447.8153    
      1500   294.83887     -32096.852     -8052.5777     -7705.8257      3446.0792    
      1600   298.08892     -32094.422     -9035.6514     -9081.3785      3444.3432    
      1700   286.10181     -32105.298     -372.32912     -7918.9545      3442.6071    
      1800   330.46206     -32081.8        11034.497     -4759.274       3440.8711    
      1900   325.50938     -32086.246      9298.6999      829.73082      3439.135     
      2000   338.46386     -32068.918      15062.5        1678.3625      3437.3989    
Loop time of 80.4759 on 16 procs for 2000 steps with 274 atoms

Performance: 1.074 ns/day, 22.354 hours/ns, 24.852 timesteps/s, 6.809 katom-step/s
98.8% CPU use with 8 MPI tasks x 2 OpenMP threads

MPI task timing breakdown:
Section |  min time  |  avg time  |  max time  |%varavg| %total
---------------------------------------------------------------
Pair    | 55.681     | 58.404     | 61.355     |  26.4 | 72.57
Bond    | 0.00067368 | 0.00078516 | 0.00090595 |   0.0 |  0.00
Neigh   | 4.2555     | 4.3236     | 4.3908     |   2.6 |  5.37
Comm    | 5.0534     | 7.9195     | 10.72      |  71.5 |  9.84
Output  | 0.0052652  | 0.0082744  | 0.010553   |   2.5 |  0.01
Modify  | 9.343      | 9.4557     | 9.5293     |   2.1 | 11.75
Other   |            | 0.3641     |            |       |  0.45

Nlocal:          34.25 ave          40 max          27 min
Histogram: 1 0 0 2 1 0 1 1 1 1
Nghost:        2850.12 ave        2864 max        2837 min
Histogram: 1 2 1 0 0 0 0 2 1 1
Neighs:        19178.6 ave       22272 max       15347 min
Histogram: 1 0 1 1 1 0 1 1 1 1

Total # of neighbors = 153429
Ave neighs/atom = 559.95985
Ave special neighs/atom = 0
Neighbor list builds = 200
Dangerous builds not checked
  using 2 OpenMP thread(s) per MPI task
Reading restart file ...
  restart file = 2 Aug 2023, LAMMPS = 2 Aug 2023
  restoring atom style full from restart
  triclinic box = (0 0 0) to (16.8189 12.842 16.0755) with tilt (-8.3798 1.195 0.4312)
WARNING: Triclinic box skew is large. LAMMPS will run inefficiently. (src/domain.cpp:220)
  2 by 2 by 2 MPI processor grid
  pair style reaxff stores no restart info
  274 atoms
Finding 1-2 1-3 1-4 neighbors ...
  special bond factors lj:    0        0        0       
  special bond factors coul:  0        0        0       
     0 = max # of 1-2 neighbors
     0 = max # of 1-3 neighbors
     0 = max # of 1-4 neighbors
     1 = max # of special neighbors
  special bonds CPU = 0.000 seconds
  read_restart CPU = 0.004 seconds
*****Positive-deform 3 starts.*****
Neighbor list info ...
  update: every = 10 steps, delay = 0 steps, check = no
  max neighbors/atom: 2000, page size: 100000
  master list distance cutoff = 12
  ghost atom cutoff = 12
  binsize = 6, bins = 5 3 3
  2 neighbor lists, perpetual/occasional/extra = 2 0 0
  (1) pair reaxff, perpetual
      attributes: half, newton off, ghost
      pair build: half/bin/newtoff/ghost
      stencil: full/ghost/bin/3d
      bin: standard
  (2) fix qeq/reaxff, perpetual, copy from (1)
      attributes: half, newton off
      pair build: copy
      stencil: none
      bin: none
Setting up Verlet run ...
  Unit style    : real
  Current step  : 0
  Time step     : 0.5
Per MPI rank memory allocation (min/avg/max) = 110.3 | 111.5 | 112.7 Mbytes
   Step          Temp          PotEng         Press        f_avgp[1]        Volume    
         0   330.08776     -32036.358      676.89364      0              3472.1201    
       100   302.064       -32034.384      5247.1912     -4566.817       3473.8562    
       200   311.82851     -32036.588      6130.2806     -5781.5981      3475.5923    
       300   281.19907     -32061.676      3707.0268     -3471.3747      3477.3283    
       400   317.8818      -32069.43      -3695.1687      1678.7559      3479.0644    
       500   293.62054     -32071.867     -2084.4857     -2782.3378      3480.8004    
       600   297.73927     -32079.256      5373.5743     -5334.7408      3482.5365    
       700   285.89196     -32086.843      1702.8305     -2805.7453      3484.2726    
       800   286.64531     -32081.043      9897.5495     -3254.375       3486.0086    
       900   301.14285     -32095.079     -12766.58      -6249.4638      3487.7447    
      1000   303.80137     -32070.068      214.19618     -14.448818      3489.4807    
      1100   332.49484     -32087.969     -2646.0477     -1395.7342      3491.2168    
      1200   310.90821     -32081.039     -886.41416     -5054.0336      3492.9529    
      1300   318.19368     -32092.885     -10781.936     -7052.2183      3494.6889    
      1400   283.71332     -32090.55      -13313.644     -6482.5918      3496.425     
      1500   274.74469     -32096.251      250.24914     -7300.9865      3498.161     
      1600   304.81709     -32089.316     -11303.995     -7239.8263      3499.8971    
      1700   293.00649     -32077.794     -11535.877     -6262.6139      3501.6332    
      1800   299.56006     -32094.233     -9065.9233     -8025.3787      3503.3692    
      1900   276.73797     -32101.512     -21344.345     -8950.1595      3505.1053    
      2000   288.97149     -32107.886      6886.7767     -5798.1989      3506.8413    
Loop time of 79.3454 on 16 procs for 2000 steps with 274 atoms

Performance: 1.089 ns/day, 22.040 hours/ns, 25.206 timesteps/s, 6.907 katom-step/s
98.7% CPU use with 8 MPI tasks x 2 OpenMP threads

MPI task timing breakdown:
Section |  min time  |  avg time  |  max time  |%varavg| %total
---------------------------------------------------------------
Pair    | 54.73      | 57.683     | 60.644     |  24.2 | 72.70
Bond    | 0.000696   | 0.00081935 | 0.00097914 |   0.0 |  0.00
Neigh   | 4.2612     | 4.3017     | 4.3774     |   1.7 |  5.42
Comm    | 4.602      | 7.5455     | 10.535     |  67.2 |  9.51
Output  | 0.0073289  | 0.011524   | 0.016607   |   3.1 |  0.01
Modify  | 9.3683     | 9.4543     | 9.5213     |   1.6 | 11.92
Other   |            | 0.3489     |            |       |  0.44

Nlocal:          34.25 ave          43 max          27 min
Histogram: 1 1 0 2 1 0 2 0 0 1
Nghost:        2818.62 ave        2836 max        2800 min
Histogram: 1 1 1 1 0 0 1 1 0 2
Neighs:        18760.8 ave       23301 max       15015 min
Histogram: 1 1 0 2 1 0 2 0 0 1

Total # of neighbors = 150086
Ave neighs/atom = 547.75912
Ave special neighs/atom = 0
Neighbor list builds = 200
Dangerous builds not checked
  using 2 OpenMP thread(s) per MPI task
Reading restart file ...
  restart file = 2 Aug 2023, LAMMPS = 2 Aug 2023
  restoring atom style full from restart
  triclinic box = (0 0 0) to (16.8189 12.842 16.0755) with tilt (-8.3798 1.195 0.4312)
WARNING: Triclinic box skew is large. LAMMPS will run inefficiently. (src/domain.cpp:220)
  2 by 2 by 2 MPI processor grid
  pair style reaxff stores no restart info
  274 atoms
Finding 1-2 1-3 1-4 neighbors ...
  special bond factors lj:    0        0        0       
  special bond factors coul:  0        0        0       
     0 = max # of 1-2 neighbors
     0 = max # of 1-3 neighbors
     0 = max # of 1-4 neighbors
     1 = max # of special neighbors
  special bonds CPU = 0.000 seconds
  read_restart CPU = 0.003 seconds
*****Negative-deform 4 starts.*****
Neighbor list info ...
  update: every = 10 steps, delay = 0 steps, check = no
  max neighbors/atom: 2000, page size: 100000
  master list distance cutoff = 12
  ghost atom cutoff = 12
  binsize = 6, bins = 5 3 3
  2 neighbor lists, perpetual/occasional/extra = 2 0 0
  (1) pair reaxff, perpetual
      attributes: half, newton off, ghost
      pair build: half/bin/newtoff/ghost
      stencil: full/ghost/bin/3d
      bin: standard
  (2) fix qeq/reaxff, perpetual, copy from (1)
      attributes: half, newton off
      pair build: copy
      stencil: none
      bin: none
Setting up Verlet run ...
  Unit style    : real
  Current step  : 0
  Time step     : 0.5
Per MPI rank memory allocation (min/avg/max) = 110.3 | 111.5 | 112.7 Mbytes
   Step          Temp          PotEng         Press        f_avgp[1]        Volume    
         0   330.08776     -32036.358      676.89364      0              3472.1201    
       100   302.064       -32034.384      5249.8148     -4566.7283      3472.1201    
       200   311.89585     -32035.675      5613.8983     -5642.9651      3472.1201    
       300   282.16191     -32052.63       2584.3267     -6604.4325      3472.1201    
       400   284.26364     -32050.804     -7185.3577     -3643.2102      3472.1201    
       500   284.49037     -32063.737     -1045.1263     -2184.2527      3472.1201    
       600   300.56855     -32070.503      15445.261     -1736.8899      3472.1201    
       700   307.43102     -32066.07      -485.49265      2197.9792      3472.1201    
       800   299.03313     -32079.845      455.41062     -1279.4793      3472.1201    
       900   279.59149     -32074.539     -15412.303     -3870.4168      3472.1201    
      1000   297.88764     -32084.239      4357.4451     -8123.6814      3472.1201    
      1100   306.69618     -32099.935      3134.2802     -1451.4741      3472.1201    
      1200   304.14203     -32077.004     -2329.2963     -5806.1545      3472.1201    
      1300   289.06077     -32074.5       -2901.5904     -9023.5869      3472.1201    
      1400   282.20682     -32081.409     -5788.5467     -10057.862      3472.1201    
      1500   305.69946     -32068.312     -742.7368      -6406.4991      3472.1201    
      1600   302.24478     -32083.102     -8471.4733     -3114.7812      3472.1201    
      1700   317.96785     -32106.432     -5469.8742     -5444.4447      3472.1201    
      1800   304.54036     -32092.699      6458.0806     -6146.3615      3472.1201    
      1900   306.08313     -32094.677     -7905.8488     -11521.942      3472.1201    
      2000   305.6701      -32090.161     -7741.8075     -6271.7362      3472.1201    
Loop time of 80.0897 on 16 procs for 2000 steps with 274 atoms

Performance: 1.079 ns/day, 22.247 hours/ns, 24.972 timesteps/s, 6.842 katom-step/s
98.7% CPU use with 8 MPI tasks x 2 OpenMP threads

MPI task timing breakdown:
Section |  min time  |  avg time  |  max time  |%varavg| %total
---------------------------------------------------------------
Pair    | 55.208     | 57.886     | 60.28      |  19.4 | 72.28
Bond    | 0.00068129 | 0.00080179 | 0.00093734 |   0.0 |  0.00
Neigh   | 4.2393     | 4.2975     | 4.3841     |   2.2 |  5.37
Comm    | 5.6686     | 8.0245     | 10.651     |  51.6 | 10.02
Output  | 0.0077463  | 0.011458   | 0.016445   |   2.8 |  0.01
Modify  | 9.3636     | 9.4995     | 9.6163     |   3.1 | 11.86
Other   |            | 0.3699     |            |       |  0.46

Nlocal:          34.25 ave          41 max          24 min
Histogram: 1 0 1 1 0 0 0 2 2 1
Nghost:        2832.12 ave        2845 max        2816 min
Histogram: 1 0 0 1 2 1 0 1 1 1
Neighs:        18953.6 ave       22479 max       13523 min
Histogram: 1 0 1 1 0 0 0 2 2 1

Total # of neighbors = 151629
Ave neighs/atom = 553.39051
Ave special neighs/atom = 0
Neighbor list builds = 200
Dangerous builds not checked
  using 2 OpenMP thread(s) per MPI task
Reading restart file ...
  restart file = 2 Aug 2023, LAMMPS = 2 Aug 2023
  restoring atom style full from restart
  triclinic box = (0 0 0) to (16.8189 12.842 16.0755) with tilt (-8.3798 1.195 0.4312)
WARNING: Triclinic box skew is large. LAMMPS will run inefficiently. (src/domain.cpp:220)
  2 by 2 by 2 MPI processor grid
  pair style reaxff stores no restart info
  274 atoms
Finding 1-2 1-3 1-4 neighbors ...
  special bond factors lj:    0        0        0       
  special bond factors coul:  0        0        0       
     0 = max # of 1-2 neighbors
     0 = max # of 1-3 neighbors
     0 = max # of 1-4 neighbors
     1 = max # of special neighbors
  special bonds CPU = 0.000 seconds
  read_restart CPU = 0.004 seconds
*****Positive-deform 4 starts.*****
Neighbor list info ...
  update: every = 10 steps, delay = 0 steps, check = no
  max neighbors/atom: 2000, page size: 100000
  master list distance cutoff = 12
  ghost atom cutoff = 12
  binsize = 6, bins = 5 3 3
  2 neighbor lists, perpetual/occasional/extra = 2 0 0
  (1) pair reaxff, perpetual
      attributes: half, newton off, ghost
      pair build: half/bin/newtoff/ghost
      stencil: full/ghost/bin/3d
      bin: standard
  (2) fix qeq/reaxff, perpetual, copy from (1)
      attributes: half, newton off
      pair build: copy
      stencil: none
      bin: none
Setting up Verlet run ...
  Unit style    : real
  Current step  : 0
  Time step     : 0.5
Per MPI rank memory allocation (min/avg/max) = 110.3 | 111.5 | 112.7 Mbytes
   Step          Temp          PotEng         Press        f_avgp[1]        Volume    
         0   330.08776     -32036.358      676.89364      0              3472.1201    
       100   302.064       -32034.384      5249.8148     -4566.7283      3472.1201    
       200   311.93205     -32035.654      5710.4342     -5638.8721      3472.1201    
       300   285.90407     -32050.79      -39.395516     -6532.2099      3472.1201    
       400   289.06231     -32073.571     -9174.0469     -4111.3948      3472.1201    
       500   295.71604     -32073.551     -9344.0319     -2405.524       3472.1201    
       600   288.38588     -32050.359     -3580.7313     -6366.4851      3472.1201    
       700   318.97919     -32093.289     -6503.1345     -3157.6188      3472.1201    
       800   330.0251      -32065.857      1079.8123     -4046.9816      3472.1201    
       900   322.25398     -32085.919     -1971.5852     -1550.1254      3472.1201    
      1000   288.3082      -32074.458     -8763.7378     -3420.9579      3472.1201    
      1100   295.3659      -32066.185     -2361.093      -2101.0006      3472.1201    
      1200   294.66216     -32062.97      -2556.5151      4052.0472      3472.1201    
      1300   312.86111     -32093.195     -13629.94      -1899.138       3472.1201    
      1400   316.17306     -32093.568      2211.4703     -8071.2838      3472.1201    
      1500   272.32587     -32091.015     -22583.214     -5999.8408      3472.1201    
      1600   275.38356     -32100.708      3249.6691     -2204.8964      3472.1201    
      1700   268.43745     -32090.026      1941.4844      895.78662      3472.1201    
      1800   326.50768     -32097.356     -2079.7876      1027.2317      3472.1201    
      1900   306.16217     -32069.457      3176.0868     -2480.1784      3472.1201    
      2000   298.90966     -32093.193     -5167.8006     -6867.9329      3472.1201    
Loop time of 79.5781 on 16 procs for 2000 steps with 274 atoms

Performance: 1.086 ns/day, 22.105 hours/ns, 25.133 timesteps/s, 6.886 katom-step/s
98.7% CPU use with 8 MPI tasks x 2 OpenMP threads

MPI task timing breakdown:
Section |  min time  |  avg time  |  max time  |%varavg| %total
---------------------------------------------------------------
Pair    | 54.6       | 57.03      | 60.399     |  24.2 | 71.67
Bond    | 0.00067233 | 0.00080373 | 0.00093874 |   0.0 |  0.00
Neigh   | 4.1659     | 4.252      | 4.3618     |   3.7 |  5.34
Comm    | 5.1293     | 8.4724     | 10.932     |  63.1 | 10.65
Output  | 0.0052889  | 0.0079796  | 0.010275   |   2.3 |  0.01
Modify  | 9.3233     | 9.4627     | 9.5721     |   3.0 | 11.89
Other   |            | 0.3517     |            |       |  0.44

Nlocal:          34.25 ave          41 max          26 min
Histogram: 1 0 2 0 0 0 1 1 2 1
Nghost:        2839.12 ave        2860 max        2817 min
Histogram: 1 0 1 2 0 0 1 2 0 1
Neighs:        18957.4 ave       22423 max       14495 min
Histogram: 1 0 2 0 0 0 1 1 2 1

Total # of neighbors = 151659
Ave neighs/atom = 553.5
Ave special neighs/atom = 0
Neighbor list builds = 200
Dangerous builds not checked
  using 2 OpenMP thread(s) per MPI task
Reading restart file ...
  restart file = 2 Aug 2023, LAMMPS = 2 Aug 2023
  restoring atom style full from restart
  triclinic box = (0 0 0) to (16.8189 12.842 16.0755) with tilt (-8.3798 1.195 0.4312)
WARNING: Triclinic box skew is large. LAMMPS will run inefficiently. (src/domain.cpp:220)
  2 by 2 by 2 MPI processor grid
  pair style reaxff stores no restart info
  274 atoms
Finding 1-2 1-3 1-4 neighbors ...
  special bond factors lj:    0        0        0       
  special bond factors coul:  0        0        0       
     0 = max # of 1-2 neighbors
     0 = max # of 1-3 neighbors
     0 = max # of 1-4 neighbors
     1 = max # of special neighbors
  special bonds CPU = 0.000 seconds
  read_restart CPU = 0.003 seconds
*****Negative-deform 5 starts.*****
Neighbor list info ...
  update: every = 10 steps, delay = 0 steps, check = no
  max neighbors/atom: 2000, page size: 100000
  master list distance cutoff = 12
  ghost atom cutoff = 12
  binsize = 6, bins = 5 3 3
  2 neighbor lists, perpetual/occasional/extra = 2 0 0
  (1) pair reaxff, perpetual
      attributes: half, newton off, ghost
      pair build: half/bin/newtoff/ghost
      stencil: full/ghost/bin/3d
      bin: standard
  (2) fix qeq/reaxff, perpetual, copy from (1)
      attributes: half, newton off
      pair build: copy
      stencil: none
      bin: none
Setting up Verlet run ...
  Unit style    : real
  Current step  : 0
  Time step     : 0.5
Per MPI rank memory allocation (min/avg/max) = 110.3 | 111.5 | 112.7 Mbytes
   Step          Temp          PotEng         Press        f_avgp[1]        Volume    
         0   330.08776     -32036.358      676.89364      0              3472.1201    
       100   302.064       -32034.384      5249.8148     -4566.7283      3472.1201    
       200   311.6714      -32035.376      5712.9213     -5637.5577      3472.1201    
       300   283.02588     -32052.55       2201.8724     -6857.2586      3472.1201    
       400   288.68743     -32041.195     -9370.4751     -2239.7239      3472.1201    
       500   294.71114     -32062.668     -7468.5939     -2357.8438      3472.1201    
       600   315.0383      -32057.323     -3949.2076     -886.85765      3472.1201    
       700   306.60281     -32044.574      5438.3704     -1569.4431      3472.1201    
       800   327.9958      -32073.738      5084.0016      1424.9963      3472.1201    
       900   309.15869     -32091.237     -4164.9089     -1625.0571      3472.1201    
      1000   300.39603     -32103.904      1160.1502     -9602.0096      3472.1201    
      1100   295.82337     -32102.336     -6631.9737     -5134.3016      3472.1201    
      1200   294.2685      -32091.811     -7580.4344     -2317.75        3472.1201    
      1300   295.86819     -32093.122      2018.7257     -6790.8358      3472.1201    
      1400   268.50054     -32094.042     -12750.375     -7365.5052      3472.1201    
      1500   272.57463     -32087.713      2625.1229      40.613037      3472.1201    
      1600   286.05409     -32088.272      2513.4183     -2535.9317      3472.1201    
      1700   301.76357     -32103.823      2673.4089     -6319.1416      3472.1201    
      1800   300.3156      -32071.392      2508.125      -1695.8659      3472.1201    
      1900   298.45124     -32065.199      5195.5177     -3527.6547      3472.1201    
      2000   323.99266     -32091.208     -2192.9899     -4361.7433      3472.1201    
Loop time of 79.8869 on 16 procs for 2000 steps with 274 atoms

Performance: 1.082 ns/day, 22.191 hours/ns, 25.035 timesteps/s, 6.860 katom-step/s
98.9% CPU use with 8 MPI tasks x 2 OpenMP threads

MPI task timing breakdown:
Section |  min time  |  avg time  |  max time  |%varavg| %total
---------------------------------------------------------------
Pair    | 54.621     | 57.876     | 60.724     |  25.6 | 72.45
Bond    | 0.00067163 | 0.00077999 | 0.00095948 |   0.0 |  0.00
Neigh   | 4.1115     | 4.297      | 4.4092     |   4.9 |  5.38
Comm    | 5.1184     | 7.9104     | 11.138     |  68.9 |  9.90
Output  | 0.006935   | 0.014304   | 0.020981   |   4.8 |  0.02
Modify  | 9.256      | 9.3891     | 9.6492     |   3.7 | 11.75
Other   |            | 0.3989     |            |       |  0.50

Nlocal:          34.25 ave          40 max          26 min
Histogram: 1 1 0 0 1 1 0 1 1 2
Nghost:        2836.12 ave        2847 max        2824 min
Histogram: 1 0 2 0 0 1 1 2 0 1
Neighs:        18975.1 ave       22057 max       14623 min
Histogram: 1 1 0 0 1 1 0 1 1 2

Total # of neighbors = 151801
Ave neighs/atom = 554.01825
Ave special neighs/atom = 0
Neighbor list builds = 200
Dangerous builds not checked
  using 2 OpenMP thread(s) per MPI task
Reading restart file ...
  restart file = 2 Aug 2023, LAMMPS = 2 Aug 2023
  restoring atom style full from restart
  triclinic box = (0 0 0) to (16.8189 12.842 16.0755) with tilt (-8.3798 1.195 0.4312)
WARNING: Triclinic box skew is large. LAMMPS will run inefficiently. (src/domain.cpp:220)
  2 by 2 by 2 MPI processor grid
  pair style reaxff stores no restart info
  274 atoms
Finding 1-2 1-3 1-4 neighbors ...
  special bond factors lj:    0        0        0       
  special bond factors coul:  0        0        0       
     0 = max # of 1-2 neighbors
     0 = max # of 1-3 neighbors
     0 = max # of 1-4 neighbors
     1 = max # of special neighbors
  special bonds CPU = 0.001 seconds
  read_restart CPU = 0.005 seconds
*****Positive-deform 5 starts.*****
Neighbor list info ...
  update: every = 10 steps, delay = 0 steps, check = no
  max neighbors/atom: 2000, page size: 100000
  master list distance cutoff = 12
  ghost atom cutoff = 12
  binsize = 6, bins = 5 3 3
  2 neighbor lists, perpetual/occasional/extra = 2 0 0
  (1) pair reaxff, perpetual
      attributes: half, newton off, ghost
      pair build: half/bin/newtoff/ghost
      stencil: full/ghost/bin/3d
      bin: standard
  (2) fix qeq/reaxff, perpetual, copy from (1)
      attributes: half, newton off
      pair build: copy
      stencil: none
      bin: none
Setting up Verlet run ...
  Unit style    : real
  Current step  : 0
  Time step     : 0.5
Per MPI rank memory allocation (min/avg/max) = 110.3 | 111.5 | 112.7 Mbytes
   Step          Temp          PotEng         Press        f_avgp[1]        Volume    
         0   330.08776     -32036.358      676.89364      0              3472.1201    
       100   302.064       -32034.384      5249.8148     -4566.7283      3472.1201    
       200   312.08382     -32035.901      5635.5355     -5637.3989      3472.1201    
       300   282.98715     -32053.127      2652.4427     -6528.8229      3472.1201    
       400   287.45169     -32056.964     -7061.9408     -4063.1658      3472.1201    
       500   283.02191     -32042.246      2296.577      -691.02338      3472.1201    
       600   263.80119     -32051.294     -11710.149     -5894.5979      3472.1201    
       700   314.68238     -32041.158     -12592.247     -2142.353       3472.1201    
       800   317.9793      -32051.367      1206.2685      382.06693      3472.1201    
       900   316.07004     -32068.532     -6856.8341      525.7789       3472.1201    
      1000   279.00771     -32060.64      -22733.091     -1568.4141      3472.1201    
      1100   297.90602     -32075.276      17010.446     -4507.9153      3472.1201    
      1200   309.13934     -32060.778      6817.0182      1026.9853      3472.1201    
      1300   305.98836     -32071.239      1894.614      -2659.7293      3472.1201    
      1400   303.19491     -32080.179     -5063.9557     -5978.9824      3472.1201    
      1500   313.55712     -32070.905     -14227.651     -6038.5876      3472.1201    
      1600   294.64363     -32070.535     -246.90981     -3106.6237      3472.1201    
      1700   312.95575     -32054.913     -14040.31      -6194.1768      3472.1201    
      1800   290.16576     -32075.544     -4863.7919     -2680.315       3472.1201    
      1900   283.39401     -32058.63      -748.35761     -2058.5707      3472.1201    
      2000   324.95373     -32079.21      -5469.1814     -7067.3305      3472.1201    
Loop time of 79.7353 on 16 procs for 2000 steps with 274 atoms

Performance: 1.084 ns/day, 22.149 hours/ns, 25.083 timesteps/s, 6.873 katom-step/s
98.9% CPU use with 8 MPI tasks x 2 OpenMP threads

MPI task timing breakdown:
Section |  min time  |  avg time  |  max time  |%varavg| %total
---------------------------------------------------------------
Pair    | 55.058     | 57.904     | 59.936     |  23.0 | 72.62
Bond    | 0.00064568 | 0.0007758  | 0.00094153 |   0.0 |  0.00
Neigh   | 4.2897     | 4.3351     | 4.4067     |   1.8 |  5.44
Comm    | 5.6632     | 7.6725     | 10.587     |  63.8 |  9.62
Output  | 0.0063985  | 0.010562   | 0.015751   |   3.2 |  0.01
Modify  | 9.324      | 9.4472     | 9.5365     |   2.1 | 11.85
Other   |            | 0.3655     |            |       |  0.46

Nlocal:          34.25 ave          40 max          27 min
Histogram: 2 0 0 0 2 0 0 1 1 2
Nghost:        2819.12 ave        2841 max        2803 min
Histogram: 2 1 0 2 0 0 1 0 1 1
Neighs:        18964.8 ave       21985 max       15063 min
Histogram: 2 0 0 0 2 0 0 1 1 2

Total # of neighbors = 151718
Ave neighs/atom = 553.71533
Ave special neighs/atom = 0
Neighbor list builds = 200
Dangerous builds not checked
  using 2 OpenMP thread(s) per MPI task
Reading restart file ...
  restart file = 2 Aug 2023, LAMMPS = 2 Aug 2023
  restoring atom style full from restart
  triclinic box = (0 0 0) to (16.8189 12.842 16.0755) with tilt (-8.3798 1.195 0.4312)
WARNING: Triclinic box skew is large. LAMMPS will run inefficiently. (src/domain.cpp:220)
  2 by 2 by 2 MPI processor grid
  pair style reaxff stores no restart info
  274 atoms
Finding 1-2 1-3 1-4 neighbors ...
  special bond factors lj:    0        0        0       
  special bond factors coul:  0        0        0       
     0 = max # of 1-2 neighbors
     0 = max # of 1-3 neighbors
     0 = max # of 1-4 neighbors
     1 = max # of special neighbors
  special bonds CPU = 0.000 seconds
  read_restart CPU = 0.003 seconds
*****Negative-deform 6 starts.*****
Neighbor list info ...
  update: every = 10 steps, delay = 0 steps, check = no
  max neighbors/atom: 2000, page size: 100000
  master list distance cutoff = 12
  ghost atom cutoff = 12
  binsize = 6, bins = 5 3 3
  2 neighbor lists, perpetual/occasional/extra = 2 0 0
  (1) pair reaxff, perpetual
      attributes: half, newton off, ghost
      pair build: half/bin/newtoff/ghost
      stencil: full/ghost/bin/3d
      bin: standard
  (2) fix qeq/reaxff, perpetual, copy from (1)
      attributes: half, newton off
      pair build: copy
      stencil: none
      bin: none
Setting up Verlet run ...
  Unit style    : real
  Current step  : 0
  Time step     : 0.5
Per MPI rank memory allocation (min/avg/max) = 110.3 | 111.5 | 112.7 Mbytes
   Step          Temp          PotEng         Press        f_avgp[1]        Volume    
         0   330.08776     -32036.358      676.89364      0              3472.1201    
       100   302.064       -32034.384      5249.8148     -4566.7283      3472.1201    
       200   311.6601      -32035.493      5773.3732     -5630.4066      3472.1201    
       300   283.0325      -32052.723      2101.4762     -6666.8341      3472.1201    
       400   299.86846     -32045.382     -4209.5253     -3353.7425      3472.1201    
       500   304.90718     -32079.063      1453.0068     -1076.6936      3472.1201    
       600   306.60889     -32060.82      -5438.2956     -5241.0717      3472.1201    
       700   320.30605     -32060.046      2479.6403     -3460.0227      3472.1201    
       800   310.43108     -32054.456     -2749.6948     -2671.6189      3472.1201    
       900   292.50143     -32072.212      6065.2608     -5433.9914      3472.1201    
      1000   308.70186     -32070.934      479.44126     -1970.4012      3472.1201    
      1100   295.874       -32061.517      3161.345       2804.8731      3472.1201    
      1200   299.16204     -32070.042      5362.1204     -1485.6784      3472.1201    
      1300   306.82413     -32063.248     -793.85271     -2957.3369      3472.1201    
      1400   313.91441     -32069.812     -4011.2869     -10437.922      3472.1201    
      1500   318.45379     -32091.675     -7263.2011     -13195.709      3472.1201    
      1600   294.82205     -32087.656     -8350.0386     -8309.5902      3472.1201    
      1700   307.75233     -32077.915      1025.6201     -2637.515       3472.1201    
      1800   296.92171     -32082.249     -123.36019     -10133.151      3472.1201    
      1900   299.41726     -32088.428      2338.8362     -9096.5845      3472.1201    
      2000   301.96555     -32092.132      3293.5889     -3086.9562      3472.1201    
Loop time of 78.6025 on 16 procs for 2000 steps with 274 atoms

Performance: 1.099 ns/day, 21.834 hours/ns, 25.444 timesteps/s, 6.972 katom-step/s
98.8% CPU use with 8 MPI tasks x 2 OpenMP threads

MPI task timing breakdown:
Section |  min time  |  avg time  |  max time  |%varavg| %total
---------------------------------------------------------------
Pair    | 55.997     | 57.603     | 60.078     |  15.9 | 73.28
Bond    | 0.00067446 | 0.00079346 | 0.00096382 |   0.0 |  0.00
Neigh   | 4.0916     | 4.2789     | 4.3515     |   3.7 |  5.44
Comm    | 4.8424     | 7.3        | 8.9143     |  44.9 |  9.29
Output  | 0.0051699  | 0.011547   | 0.023552   |   5.6 |  0.01
Modify  | 8.9454     | 9.0577     | 9.235      |   3.0 | 11.52
Other   |            | 0.3508     |            |       |  0.45

Nlocal:          34.25 ave          40 max          26 min
Histogram: 1 0 1 1 0 1 1 0 0 3
Nghost:        2810.62 ave        2845 max        2784 min
Histogram: 3 0 1 0 0 1 0 1 1 1
Neighs:        18962.2 ave       22076 max       14587 min
Histogram: 1 0 1 1 0 1 1 0 0 3

Total # of neighbors = 151698
Ave neighs/atom = 553.64234
Ave special neighs/atom = 0
Neighbor list builds = 200
Dangerous builds not checked
  using 2 OpenMP thread(s) per MPI task
Reading restart file ...
  restart file = 2 Aug 2023, LAMMPS = 2 Aug 2023
  restoring atom style full from restart
  triclinic box = (0 0 0) to (16.8189 12.842 16.0755) with tilt (-8.3798 1.195 0.4312)
WARNING: Triclinic box skew is large. LAMMPS will run inefficiently. (src/domain.cpp:220)
  2 by 2 by 2 MPI processor grid
  pair style reaxff stores no restart info
  274 atoms
Finding 1-2 1-3 1-4 neighbors ...
  special bond factors lj:    0        0        0       
  special bond factors coul:  0        0        0       
     0 = max # of 1-2 neighbors
     0 = max # of 1-3 neighbors
     0 = max # of 1-4 neighbors
     1 = max # of special neighbors
  special bonds CPU = 0.002 seconds
  read_restart CPU = 0.008 seconds
*****Positive-deform 6 starts.*****
Neighbor list info ...
  update: every = 10 steps, delay = 0 steps, check = no
  max neighbors/atom: 2000, page size: 100000
  master list distance cutoff = 12
  ghost atom cutoff = 12
  binsize = 6, bins = 5 3 3
  2 neighbor lists, perpetual/occasional/extra = 2 0 0
  (1) pair reaxff, perpetual
      attributes: half, newton off, ghost
      pair build: half/bin/newtoff/ghost
      stencil: full/ghost/bin/3d
      bin: standard
  (2) fix qeq/reaxff, perpetual, copy from (1)
      attributes: half, newton off
      pair build: copy
      stencil: none
      bin: none
Setting up Verlet run ...
  Unit style    : real
  Current step  : 0
  Time step     : 0.5
Per MPI rank memory allocation (min/avg/max) = 110.3 | 111.5 | 112.7 Mbytes
   Step          Temp          PotEng         Press        f_avgp[1]        Volume    
         0   330.08776     -32036.358      676.89364      0              3472.1201    
       100   302.064       -32034.384      5249.8148     -4566.7283      3472.1201    
       200   312.15149     -32035.827      5555.964      -5689.788       3472.1201    
       300   282.45159     -32052.937      2825.6737     -6650.4671      3472.1201    
       400   288.76059     -32041.178     -9475.8039     -2196.5527      3472.1201    
       500   311.11221     -32059.499     -5618.5319     -3233.3981      3472.1201    
       600   290.9615      -32063.08      -3752.4339     -3491.8879      3472.1201    
       700   318.99038     -32074.835     -4822.2439     -2965.5949      3472.1201    
       800   306.83552     -32081.831      677.72716     -8103.1381      3472.1201    
       900   311.01302     -32067.045     -8003.5835     -9657.7958      3472.1201    
      1000   301.69666     -32085.039     -12190.205     -6612.3947      3472.1201    
      1100   320.70734     -32098.049     -720.66457     -5291.2173      3472.1201    
      1200   316.16162     -32068.017     -862.21277     -6019.4319      3472.1201    
      1300   306.55678     -32081.872     -4820.189      -6372.7205      3472.1201    
      1400   331.21383     -32069.497     -6671.1528     -2161.6332      3472.1201    
      1500   295.33587     -32063.568     -8098.3956     -4951.3533      3472.1201    
      1600   289.11736     -32083.248     -10014.357     -2832.1584      3472.1201    
      1700   296.96897     -32101.001     -18454.928     -3847.4362      3472.1201    
      1800   275.3007      -32081.054     -15362.324     -6733.5875      3472.1201    
      1900   294.19611     -32097.138      1239.6535     -4538.6057      3472.1201    
      2000   297.04603     -32102.308     -1036.0571     -5893.6484      3472.1201    
Loop time of 73.0331 on 16 procs for 2000 steps with 274 atoms

Performance: 1.183 ns/day, 20.287 hours/ns, 27.385 timesteps/s, 7.503 katom-step/s
99.1% CPU use with 8 MPI tasks x 2 OpenMP threads

MPI task timing breakdown:
Section |  min time  |  avg time  |  max time  |%varavg| %total
---------------------------------------------------------------
Pair    | 40.194     | 49.511     | 58.384     | 104.4 | 67.79
Bond    | 0.00058075 | 0.00070442 | 0.00087417 |   0.0 |  0.00
Neigh   | 3.3586     | 3.908      | 4.4809     |  23.6 |  5.35
Comm    | 1.6474     | 10.578     | 19.92      | 226.4 | 14.48
Output  | 0.0034204  | 0.005504   | 0.0071275  |   2.1 |  0.01
Modify  | 8.3486     | 8.9217     | 9.4693     |  15.6 | 12.22
Other   |            | 0.1079     |            |       |  0.15

Nlocal:          34.25 ave          42 max          25 min
Histogram: 1 0 1 1 0 1 1 2 0 1
Nghost:           2833 ave        2845 max        2820 min
Histogram: 1 0 2 0 1 1 0 1 1 1
Neighs:        18957.2 ave       23004 max       14021 min
Histogram: 1 0 1 1 0 1 1 2 0 1

Total # of neighbors = 151658
Ave neighs/atom = 553.49635
Ave special neighs/atom = 0
Neighbor list builds = 200
Dangerous builds not checked
Total wall time: 0:17:08
