ITEM: TIMESTEP
0
ITEM: NUMBER OF ATOMS
274
ITEM: BOX BOUNDS xy xz yz pp pp pp
-7.5321989999999994e+00 1.6478000000000002e+01 -7.5321989999999994e+00
0.0000000000000000e+00 1.5100700000000000e+01 9.9190000000000000e-01
0.0000000000000000e+00 1.6771000000000001e+01 1.0307999999999999e+00
ITEM: ATOMS id type x y z
58 1 1.75395 5.37881 8.12375
13 4 1.27511 1.85747 5.72135
15 4 -0.452416 3.98266 1.91553
200 2 2.48202 6.67371 3.14124
17 4 0.332216 4.49169 7.32891
18 4 -1.4742 6.72764 5.60536
27 4 3.74682 2.31665 3.73724
28 4 5.84524 2.36205 0.232016
30 4 6.43808 2.41051 5.47126
33 4 4.3933 4.60999 1.92071
34 4 0.207719 7.02927 2.77594
56 1 0.550195 2.84362 0.784288
106 3 -0.772118 7.25494 3.96875
36 4 5.84644 4.2765 7.76318
65 1 6.40136 0.639858 6.32595
177 2 2.74232 4.92 7.7068
193 2 6.21603 0.807467 7.45031
80 3 1.52794 0.613008 6.72143
82 3 -1.18547 3.08108 3.01298
83 3 -1.442 4.67349 0.839292
85 3 1.07364 3.29578 6.58787
86 3 -0.514911 5.62954 6.41759
96 3 2.4527 1.94105 4.64345
97 3 6.53062 1.12358 1.0294
176 2 1.61755 6.4731 7.79873
100 3 5.00803 2.46812 4.79801
103 3 3.42029 3.55249 2.77901
104 3 5.63567 3.68789 1.14901
105 3 0.450272 5.478 2.4512
107 3 3.65743 5.4882 0.904481
148 2 4.0882 1.06628 2.69581
172 2 1.61411 3.35741 1.09947
171 2 0.479476 1.75313 1.05155
108 3 4.49988 3.67627 8.35028
79 3 -0.25384 1.4329 4.98214
61 1 -1.28033 6.59026 9.73492
14 4 1.6694 2.46856 11.1837
19 4 0.460501 4.45824 13.3528
20 4 -0.725431 7.05546 11.4813
29 4 3.87586 2.52216 9.30788
31 4 4.28733 3.0543 15.226
32 4 6.18885 2.68105 11.3458
196 2 4.31932 1.4405 13.3091
37 4 5.3503 5.15138 12.9071
38 4 1.63117 6.88354 14.8704
184 2 -0.866009 7.26389 8.96442
178 2 1.58061 5.19919 9.25017
66 1 3.93684 1.40259 14.3857
81 3 0.31429 2.10406 10.5138
170 2 1.17601 4.12325 16.5182
87 3 1.307 3.2908 12.5497
88 3 -0.296538 5.72936 12.3433
99 3 2.60416 3.35297 10.2151
101 3 5.36025 2.77719 16.2762
102 3 4.94638 2.01414 10.6216
197 2 2.80422 1.46637 14.4338
110 3 4.72608 4.19085 14.1264
84 3 -0.706265 3.84108 8.74154
112 3 1.48971 5.16329 14.448
113 3 2.84028 7.20179 15.798
114 3 0.242045 7.37104 15.4279
144 2 2.5633 1.02646 11.5795
145 2 0.481966 7.40464 10.2641
149 2 2.86198 3.46587 16.1124
150 2 6.45521 1.78569 12.6518
153 2 4.03843 5.97141 12.2387
16 4 -0.919132 6.85955 16.4796
183 2 -1.13238 5.48665 9.39243
111 3 6.04944 4.21215 11.7465
35 4 4.21704 7.53939 16.5946
154 2 1.88291 7.66704 13.4353
98 3 3.29898 1.2121 8.60661
185 2 -2.47036 6.77914 9.98536
201 2 4.86363 6.37316 8.48456
21 4 -2.85303 9.49389 7.0226
23 4 -3.73081 12.1193 5.62136
117 3 0.552921 13.0942 0.681485
39 4 -1.02887 12.2336 4.03523
41 4 -1.19331 11.6801 8.34409
118 3 -1.78073 10.3494 7.81558
57 1 -2.3029 7.45475 0.751202
89 3 -2.14386 8.06739 6.29971
91 3 -3.78223 10.6129 5.88726
92 3 -3.93104 13.1542 6.8468
11 4 -5.01804 14.0136 7.80861
115 3 -0.960025 13.3797 2.93169
116 3 -2.41144 12.4011 4.86419
198 2 1.9187 7.4781 4.78528
174 2 -2.11415 7.30883 1.85965
120 3 0.291256 12.0537 4.86765
70 1 3.5813 8.53369 6.35819
146 2 -4.9548 12.4151 4.53962
151 2 -0.470748 7.79993 1.39018
155 2 -1.15023 10.8434 3.248
156 2 -1.32054 12.9338 7.15717
173 2 -1.85796 8.35415 0.231881
207 2 2.92815 8.34351 5.39226
175 2 -3.48183 7.35673 0.510415
240 1 0.889674 10.1823 0.667503
268 2 1.31705 10.5275 1.82341
262 2 3.15888 8.00743 0.6418
199 2 1.87006 8.53797 3.05988
67 1 1.85246 7.47841 3.62082
205 2 0.64214 9.76283 8.09327
208 2 3.28743 7.76573 7.21017
121 3 2.36525 11.0952 6.34007
195 2 -2.12358 14.392 5.85894
26 4 -0.0918706 14.1512 1.82967
194 2 -0.239263 14.1978 5.8453
269 2 -0.198118 9.85717 0.688698
246 2 1.587 9.42267 0.190466
222 2 3.41135 8.40325 2.5066
24 4 -2.27489 9.45978 12.913
25 4 -3.21159 11.7528 10.6426
93 3 -1.51267 8.21932 12.209
63 1 -2.61663 9.72922 14.834
64 1 -3.80523 13.4429 11.4108
69 1 1.58985 9.92704 8.74371
90 3 -5.96631 13.1728 8.86886
267 2 -3.2583 14.6365 15.0705
94 3 -4.54228 11.1904 9.84699
95 3 -2.85886 10.71 11.7729
119 3 -1.82305 12.0874 9.74891
147 2 -0.953535 9.97264 13.9868
204 2 1.87737 8.94881 9.20855
157 2 0.487676 11.5248 8.44571
206 2 1.45314 10.663 9.60897
188 2 -2.14516 9.44207 15.8938
187 2 -3.60961 9.13822 9.22027
190 2 -3.15265 10.6824 14.8495
191 2 -3.35108 13.2486 12.4781
192 2 -4.93663 13.4015 11.3824
245 2 1.32637 11.9501 15.669
266 2 -3.38469 14.4694 11.0276
228 2 2.0951 11.8534 9.89777
238 4 2.32412 12.9158 16.7533
1 4 13.9326 1.76096 3.96554
179 2 12.9008 4.71586 5.46557
3 1 12.2546 2.18337 4.85883
72 1 8.97256 1.64395 8.00818
5 3 13.4177 0.602582 2.95964
6 2 12.226 0.440213 0.481797
7 2 11.5253 1.2066 5.01967
8 2 11.9171 2.97563 4.01845
9 2 12.6003 2.68763 5.82374
213 2 7.93778 1.32934 7.39073
203 2 5.41436 5.95199 6.52767
43 4 8.90193 2.234 3.41232
47 4 8.29915 4.91134 2.29113
48 4 5.72284 7.03051 3.9869
273 2 9.8753 0.924023 7.86023
122 3 8.88697 0.88661 2.58694
123 3 7.68423 2.21796 4.41949
128 3 9.05836 3.5833 2.58065
235 2 11.0073 3.46228 0.358935
130 3 8.41721 5.70883 0.996146
158 2 10.3497 2.11578 4.17307
161 2 8.58826 5.95536 3.58363
162 2 6.64478 4.76343 2.7179
159 2 9.26076 2.8335 7.81376
166 2 7.65996 6.22053 7.27808
59 1 12.4294 5.786 5.23675
263 2 11.6409 6.08918 5.90532
256 2 12.7802 0.879162 6.25004
129 3 5.42035 5.68039 3.17571
131 3 6.9703 7.04639 4.84626
50 4 7.83859 7.35012 6.01559
180 2 12.3135 6.0135 4.13264
165 2 9.46095 7.07058 5.59633
109 3 6.75101 3.52376 6.69348
152 2 6.35997 7.33532 7.77717
10 2 14.4931 0.596619 0.033836
68 1 5.79503 6.26518 7.8903
44 4 8.84902 1.98762 9.85677
264 2 13.7802 3.51382 13.4446
46 4 11.8577 2.15932 11.3965
49 4 9.45656 7.51263 16.1202
51 4 6.53822 7.5342 14.515
127 3 12.2299 0.896836 12.3525
181 2 14.767 2.36034 14.6601
73 1 11.3203 3.78383 12.461
237 2 10.2335 4.7123 16.6412
125 3 13.095 2.54705 10.4796
126 3 10.3278 2.05179 10.6019
232 1 11.2785 4.53702 16.2604
132 3 6.29978 6.21928 13.4723
133 3 7.98351 7.46898 15.3552
134 3 5.27096 7.9403 15.5229
259 2 7.23607 3.86212 14.6075
12 4 14.4945 2.45025 9.52284
202 2 6.9477 5.15988 8.89956
214 2 12.1054 4.42626 11.934
215 2 11.5101 3.43586 13.5103
216 2 10.2674 4.16937 12.3114
182 2 14.3087 4.20056 15.0913
231 4 11.9181 5.77054 15.0215
160 2 14.7024 1.87067 13.0477
233 3 10.5691 6.80087 15.1565
234 2 12.171 5.29642 13.319
124 3 7.50797 2.53083 10.4625
236 2 11.3674 3.58527 15.5874
254 3 14.1558 1.36274 8.40383
260 2 8.84034 3.3067 15.4376
257 1 7.90274 3.95252 15.5165
60 1 14.5857 3.42942 14.2729
261 3 13.2472 6.30173 15.6525
258 2 8.14148 5.03698 15.7481
226 2 8.226 11.0775 5.11943
52 4 3.90111 11.0151 2.62455
53 4 7.52705 10.3081 7.23385
271 2 7.19968 12.7668 0.605691
2 4 5.50415 13.6381 1.84013
71 1 2.71592 13.706 5.07322
4 1 6.40978 13.7075 0.195039
76 1 4.22421 9.05774 1.96409
77 1 7.75444 11.6841 5.90869
255 2 7.18883 13.3106 6.85303
135 3 4.75476 12.3368 2.21664
136 3 2.66065 11.3371 3.55205
137 3 7.78494 8.81903 6.6097
42 4 1.90358 11.9443 5.02202
227 2 8.34232 12.5931 6.15609
164 2 5.82382 8.4424 2.91032
168 2 5.8814 10.3844 7.77205
139 3 4.28867 10.6786 8.20839
186 2 11.198 7.85185 7.92247
250 2 4.98349 9.59744 0.167534
209 2 4.66545 8.68175 6.19979
210 2 2.77727 13.87 3.94739
211 2 3.68339 13.5736 5.59098
217 2 9.0138 8.3636 0.58681
253 4 6.01575 14.2659 7.61216
167 2 3.31004 10.2061 1.01032
223 2 5.20458 9.92618 3.30647
224 2 4.92588 8.44009 1.34309
225 2 6.57802 11.8044 5.76522
62 1 11.2851 8.93533 8.24837
265 2 10.2797 9.59252 8.17757
140 3 4.96022 13.4484 8.35861
163 2 4.33244 7.34141 4.93515
212 2 1.90728 14.246 5.6648
138 3 8.60613 10.7044 8.31482
40 4 3.06718 10.0673 7.45846
22 4 9.41508 11.6436 9.47186
54 4 4.74932 12.196 9.39231
55 4 7.11856 12.0891 11.444
75 1 6.61252 9.10619 13.4113
218 2 9.16191 9.88003 15.6958
272 2 1.32015 14.3721 9.41708
189 2 11.9852 8.62974 14.3319
141 3 8.62501 11.7115 10.8352
142 3 5.92676 11.8122 10.4398
143 3 6.97262 13.5546 11.9883
169 2 6.9055 10.9209 12.6688
274 2 11.0711 9.48729 15.7049
270 2 6.86955 14.3792 16.0324
221 2 5.6422 10.003 13.5885
230 2 3.35928 12.2228 11.2978
239 4 5.16544 12.4514 15.1281
241 1 4.21992 11.391 13.8879
242 1 6.33444 11.1735 15.8534
243 3 6.08352 13.9837 14.3964
244 3 3.83152 12.9543 16.2545
248 2 4.57804 11.4478 12.8315
247 2 4.07062 10.2902 14.218
229 2 2.87333 13.5335 10.0409
252 2 6.56532 10.4197 14.9761
45 4 6.16948 14.5285 12.9356
220 2 7.62031 9.5186 13.5622
219 2 6.4258 8.63672 12.3678
78 1 3.07544 12.4496 10.2107
249 2 3.18994 12.0145 14.0539
74 1 9.97309 9.3023 16.1948
251 2 7.17694 11.9191 16.0757
ITEM: TIMESTEP
100
ITEM: NUMBER OF ATOMS
274
ITEM: BOX BOUNDS xy xz yz pp pp pp
-7.5321989999999994e+00 1.6478000000000002e+01 -7.5321989999999994e+00
0.0000000000000000e+00 1.5100700000000000e+01 9.9190000000000000e-01
0.0000000000000000e+00 1.6771000000000001e+01 1.0307999999999999e+00
ITEM: ATOMS id type x y z
58 1 1.63755 5.55007 8.07623
13 4 1.10868 1.80786 5.58428
15 4 -0.417147 3.99657 1.78555
200 2 2.47996 6.90805 3.04027
17 4 0.310164 4.53523 7.26484
18 4 -1.60734 6.74206 5.49818
27 4 3.69087 2.36348 3.68502
28 4 5.67584 2.21536 0.24741
30 4 6.4569 2.2797 5.36947
33 4 4.29905 4.56676 1.86504
34 4 0.0316684 6.93093 2.75209
56 1 0.793702 2.79289 0.853025
106 3 -1.03088 7.08008 3.88815
36 4 5.61632 4.31324 7.57276
65 1 6.45752 0.725954 6.52845
177 2 2.63185 5.24218 7.61543
193 2 6.60762 1.07813 7.58223
80 3 1.35077 0.537424 6.63746
82 3 -1.11427 3.13528 2.92432
83 3 -1.44981 4.59263 0.654942
85 3 0.904848 3.289 6.51357
86 3 -0.650705 5.6485 6.42174
96 3 2.38765 1.98417 4.61237
97 3 6.72513 1.22395 1.06881
176 2 1.35659 6.65137 7.93826
100 3 5.11777 2.3585 4.47539
103 3 3.37438 3.81838 3.0055
104 3 5.30852 3.47489 1.11815
105 3 0.46629 5.41149 2.40031
107 3 3.54752 5.42603 0.767468
148 2 3.78171 1.1727 2.54739
172 2 1.73625 3.4728 0.792442
171 2 0.994383 1.8335 1.39688
203 2 4.49723 5.63612 6.53452
79 3 -0.262073 1.62081 4.89489
26 4 7.71555 0.136595 1.74733
61 1 -1.33136 6.64385 9.92788
14 4 1.59003 2.32157 11.1957
19 4 0.483601 4.39592 13.3552
20 4 -0.780885 6.88326 11.7387
29 4 3.85699 2.40454 9.40182
31 4 4.12854 3.09018 15.0891
32 4 6.17402 2.73302 11.3583
196 2 3.69088 1.51128 13.1596
37 4 5.25216 5.16836 13.0251
38 4 1.65137 6.89749 14.8245
184 2 -0.879352 7.45044 9.22663
178 2 1.55434 5.22196 9.17365
66 1 3.59132 1.51601 14.2469
81 3 0.360058 1.88045 10.339
170 2 1.18397 3.69861 16.6752
87 3 1.21029 3.16591 12.5935
88 3 -0.318264 5.45418 12.4775
99 3 2.58167 3.19733 10.238
101 3 5.32019 2.63078 16.3204
102 3 4.91109 1.91278 10.7778
197 2 2.43974 1.60573 14.65
110 3 4.7647 4.07988 14.0606
84 3 -0.599739 3.94106 8.77866
112 3 1.43545 5.29873 14.4416
113 3 2.92078 7.22273 15.6472
114 3 0.291401 7.49808 15.5075
144 2 2.32063 0.856459 11.5814
145 2 0.350275 7.39933 10.5648
149 2 2.7613 3.89325 15.9001
150 2 6.42073 1.92785 12.8293
153 2 3.9378 5.89313 12.4078
16 4 -0.928077 6.88725 16.4442
183 2 -1.15999 5.58995 9.5652
111 3 5.8766 4.31219 11.7862
35 4 4.22775 7.59953 16.5656
154 2 1.81075 7.80109 13.4075
98 3 3.35185 1.18958 8.43892
185 2 -2.52158 6.80297 10.274
201 2 4.65393 6.42605 8.59787
259 2 7.37932 3.14903 14.6312
108 3 4.60306 3.40465 8.43325
21 4 -2.86217 9.55803 6.97225
23 4 -3.6009 12.1028 5.66966
269 2 -0.523282 10.2342 0.614377
39 4 -0.908578 12.207 4.0678
194 2 -0.218438 14.1853 6.05553
118 3 -1.69361 10.3781 7.77688
57 1 -2.51143 7.42147 0.751004
89 3 -1.94997 8.11355 6.27674
91 3 -3.79388 10.5013 5.92847
92 3 -3.9913 13.0352 6.92038
11 4 -5.05908 14.0729 7.72887
115 3 -0.635989 13.2767 2.90323
116 3 -2.23924 12.4605 4.95906
198 2 1.77214 7.81652 4.6938
174 2 -2.38238 7.41656 1.90061
120 3 0.362975 12.1439 4.98439
70 1 3.53335 8.434 6.31933
146 2 -4.76528 12.3508 4.47034
151 2 -0.594842 7.68435 1.30622
155 2 -1.08542 10.7723 3.31162
156 2 -1.23684 12.9667 7.35597
173 2 -2.01383 8.33109 0.300748
207 2 2.86538 8.33633 5.33468
175 2 -3.63233 7.27066 0.503398
240 1 0.578694 10.2914 0.771557
268 2 0.876261 10.6313 1.89107
262 2 3.04399 8.00586 0.718598
199 2 1.56039 8.70542 2.96634
67 1 1.66147 7.6557 3.47702
205 2 0.62645 9.98108 8.00422
208 2 3.2636 7.684 7.14306
222 2 3.32808 8.41664 2.56658
246 2 1.13991 9.38198 0.413258
195 2 -2.12015 14.3881 6.26501
24 4 -2.27438 9.4766 12.9281
25 4 -3.31627 11.7246 10.6927
93 3 -1.45496 8.21875 12.3643
63 1 -2.63473 9.91175 14.8206
64 1 -4.01014 13.3471 11.5766
69 1 1.58125 9.91775 8.63474
90 3 -5.85046 13.2715 8.85828
267 2 -3.26001 14.7817 14.6739
94 3 -4.44863 11.1568 9.77875
95 3 -2.91107 10.7006 11.7493
119 3 -1.82372 12.1571 9.80611
147 2 -1.08161 10.383 14.0478
204 2 1.67115 8.8449 9.02941
157 2 0.560155 11.6759 8.54053
206 2 1.66792 10.7053 9.45755
188 2 -2.21559 9.30231 15.8135
187 2 -3.48756 8.88284 9.24483
190 2 -3.17276 10.876 14.9907
191 2 -3.71887 13.0752 12.6481
192 2 -5.09449 13.1573 11.3931
245 2 1.1751 12.2011 15.8074
266 2 -3.53854 14.2878 11.1444
41 4 -1.15711 11.6655 8.45274
272 2 0.82532 14.4506 9.10802
1 4 14.0651 1.76702 3.85906
179 2 12.3747 4.97245 5.75152
3 1 12.3732 2.07967 4.92249
72 1 9.13381 1.81899 7.98592
5 3 13.7965 0.407927 3.05123
6 2 12.2747 0.549531 0.761039
7 2 11.5785 1.18509 5.04862
8 2 12.0944 2.91094 4.11133
9 2 12.6677 2.54367 5.88879
213 2 8.13933 1.34769 7.353
212 2 9.53134 0.382599 5.52101
43 4 9.02762 2.36025 3.44948
47 4 8.3456 5.1157 2.56269
48 4 5.75067 7.08508 3.91531
273 2 10.1061 1.26396 7.67072
122 3 8.91626 1.06553 2.50999
123 3 7.85786 2.30049 4.64047
128 3 9.04603 3.75981 2.70933
235 2 11.0617 3.31181 0.327274
130 3 8.2825 5.73563 1.08779
158 2 10.5224 2.30059 4.22501
161 2 8.92613 6.28386 3.70565
162 2 6.6962 4.93765 3.02763
159 2 9.2777 3.06675 7.9279
166 2 7.35352 6.34509 7.47273
59 1 12.2122 5.9044 5.13534
263 2 11.496 6.70441 5.603
256 2 13.0087 0.708998 6.19891
129 3 5.3274 5.81447 3.02492
131 3 6.95789 7.02506 4.85154
50 4 7.74049 7.35584 6.15499
180 2 12.1038 5.80512 4.0292
165 2 9.34544 6.81772 6.02822
109 3 6.60455 3.66101 6.56894
152 2 5.77658 7.33763 7.51702
68 1 5.41983 6.2606 7.7742
44 4 8.88319 1.89475 9.82261
264 2 13.7983 3.1445 13.8004
46 4 11.8733 2.20241 11.3275
49 4 9.35575 7.52443 16.1416
51 4 6.5593 7.57833 14.5523
127 3 12.2609 0.889824 12.3727
181 2 15.1944 2.58468 14.9515
73 1 11.765 3.74831 12.424
237 2 10.1738 4.56519 16.6089
125 3 13.1515 2.69638 10.3725
126 3 10.3644 2.07643 10.5452
232 1 11.2708 4.35427 16.266
132 3 6.14551 6.27534 13.6592
133 3 7.95122 7.55126 15.3412
134 3 5.40945 7.88696 15.6031
258 2 7.35724 4.86638 15.3371
12 4 14.5912 2.50175 9.48049
202 2 6.56814 5.3782 8.82305
214 2 12.706 4.30161 11.9735
215 2 11.9443 3.39222 13.5273
216 2 10.7063 4.2131 12.1802
182 2 14.4705 4.30543 15.2818
231 4 11.8302 5.80475 15.2141
160 2 14.6661 1.85632 13.2846
233 3 10.5154 6.89506 15.216
234 2 12.2578 5.24505 13.6371
124 3 7.44811 2.48748 10.4487
236 2 11.3545 3.49133 15.5458
254 3 14.1932 1.35532 8.43279
260 2 8.80385 3.71488 15.6997
257 1 7.67552 3.7967 15.4891
60 1 14.719 3.45905 14.4448
261 3 13.1704 6.30376 15.8238
10 2 15.2395 1.99039 16.7363
226 2 8.13212 11.039 4.98533
52 4 3.87136 10.9715 2.52964
53 4 7.615 10.3446 7.22201
271 2 7.46577 13.1634 0.680054
2 4 5.71789 13.6186 1.89654
71 1 2.80797 13.6852 5.37198
4 1 6.34902 13.9705 0.10877
76 1 4.1982 9.01091 2.00267
77 1 7.79855 11.6984 5.86315
255 2 7.4443 13.1839 7.13437
135 3 4.88479 12.2322 2.14364
136 3 2.66871 11.2641 3.55137
137 3 7.70077 8.87092 6.6475
42 4 2.03015 11.9823 4.95271
227 2 8.50544 12.5348 6.15049
164 2 5.82127 8.38343 2.86113
168 2 5.96638 10.4124 7.81769
139 3 4.4711 10.5037 8.25949
186 2 11.4751 7.66047 7.8239
250 2 5.03564 9.77208 0.273395
209 2 4.61575 8.55411 6.20305
210 2 3.44201 13.8093 4.42011
211 2 3.41699 13.4027 6.32092
217 2 9.15496 8.3552 0.593049
253 4 6.21532 14.1855 7.63363
167 2 3.2961 10.0381 0.918009
223 2 4.89751 9.81761 3.51447
224 2 4.94808 8.40179 1.36948
225 2 6.65985 11.9632 5.89232
62 1 11.4568 8.74714 8.25182
265 2 10.342 9.18624 8.33017
140 3 5.05526 13.3019 8.29278
163 2 4.37299 7.66208 4.70632
117 3 0.856903 13.2496 0.70765
138 3 8.58823 10.8151 8.319
40 4 3.15045 9.97147 7.39511
121 3 2.65873 11.051 6.22016
238 4 1.40334 11.8753 0.0650123
22 4 9.3525 11.732 9.38919
54 4 4.78019 12.1197 9.32829
55 4 7.01632 12.1669 11.3891
75 1 6.66338 9.23996 13.4431
218 2 9.08297 9.84983 15.8362
251 2 7.31279 11.8148 15.8918
189 2 11.8494 8.79995 14.151
141 3 8.51332 11.7526 10.7646
142 3 5.8995 11.8816 10.3773
143 3 7.05396 13.6134 12.0378
169 2 6.84867 11.0032 12.6818
274 2 11.0523 9.569 15.6273
270 2 6.81769 14.6186 15.9178
221 2 5.68689 9.98536 13.6331
230 2 3.63851 12.9294 11.3434
239 4 5.11053 12.453 15.1668
241 1 4.23472 11.3718 13.836
242 1 6.34414 11.2377 15.9366
243 3 6.06445 13.8879 14.4172
244 3 3.83767 12.7015 16.2288
248 2 4.8878 11.3758 12.9114
247 2 4.02717 10.3547 14.2473
229 2 2.93668 13.4567 9.79978
252 2 6.47848 10.376 15.154
45 4 6.169 14.5287 12.9883
220 2 7.64305 9.58991 13.665
219 2 6.60109 8.61302 12.4451
78 1 3.215 12.5104 10.3823
249 2 3.31876 11.9784 13.6828
74 1 10.015 9.29601 16.2051
228 2 2.41841 11.7808 10.4898
ITEM: TIMESTEP
200
ITEM: NUMBER OF ATOMS
274
ITEM: BOX BOUNDS xy xz yz pp pp pp
-7.5321989999999994e+00 1.6478000000000002e+01 -7.5321989999999994e+00
0.0000000000000000e+00 1.5100700000000000e+01 9.9190000000000000e-01
0.0000000000000000e+00 1.6771000000000001e+01 1.0307999999999999e+00
ITEM: ATOMS id type x y z
58 1 1.58405 5.75721 7.78606
13 4 1.21393 1.92609 5.62712
15 4 -0.448545 4.01631 1.76349
200 2 2.43786 6.97344 2.96345
17 4 0.257302 4.57199 7.26021
18 4 -1.81941 6.69919 5.43678
27 4 3.65099 2.36893 3.70605
28 4 5.6772 2.14978 0.303961
30 4 6.46027 2.34959 5.34266
33 4 4.28881 4.61599 1.93773
34 4 0.0384045 6.8183 2.84364
56 1 0.971367 2.89118 0.944725
106 3 -0.919743 6.76747 4.09043
36 4 5.36904 4.34619 7.52639
65 1 6.41392 0.819325 6.55411
177 2 2.48325 5.14786 7.3289
193 2 6.42362 1.12169 7.63689
80 3 1.59579 0.627932 6.5447
82 3 -1.19445 3.00652 2.76545
83 3 -1.39789 4.65705 0.620498
85 3 0.99358 3.40099 6.48142
86 3 -0.798359 5.5915 6.5049
96 3 2.35076 1.99409 4.61704
97 3 6.60997 1.11918 1.07245
176 2 1.3771 6.75454 7.23984
100 3 5.07615 2.2823 4.43868
103 3 3.42587 3.81396 3.06616
104 3 5.32098 3.47891 1.20005
105 3 0.39564 5.3533 2.33697
107 3 3.46192 5.38811 0.867345
148 2 3.65835 1.27589 2.44172
172 2 1.85602 3.60795 0.878954
171 2 1.19877 1.9746 1.56614
203 2 4.22298 5.73444 6.74311
79 3 -0.183344 1.67003 4.91834
174 2 -2.45634 7.01076 1.9788
109 3 6.22533 3.61807 6.26986
195 2 5.31254 0.55625 6.21143
170 2 0.39881 2.67413 0.000619753
61 1 -1.4294 6.3801 10.0411
14 4 1.51806 2.27272 11.2394
19 4 0.510813 4.44382 13.5252
20 4 -0.916142 6.78352 11.7942
29 4 3.84141 2.30558 9.45973
31 4 4.12561 3.04906 15.1421
32 4 6.21712 2.71014 11.3768
196 2 3.56052 2.03745 13.0334
37 4 5.21203 4.99544 12.8423
38 4 1.61206 6.88419 14.8802
184 2 -1.20558 7.36287 9.53953
178 2 1.55691 5.77742 8.91847
66 1 3.34438 1.69694 14.103
81 3 0.144027 2.0879 10.5465
182 2 -0.858207 4.27866 15.4639
87 3 1.22195 3.24491 12.6257
88 3 -0.381511 5.46475 12.6434
99 3 2.6043 2.99904 10.2951
101 3 5.08814 2.44215 16.2336
102 3 5.03507 1.81198 10.7839
197 2 2.27927 1.83663 14.4103
110 3 4.76598 3.97472 13.953
84 3 -0.631209 3.81829 8.74715
112 3 1.56325 5.31355 14.419
113 3 2.80718 7.22877 15.8127
114 3 0.16196 7.34548 15.5237
144 2 2.22885 0.740026 11.7857
145 2 0.177053 7.33874 10.5986
149 2 2.96355 4.08132 16.0227
150 2 6.48625 2.03405 13.011
153 2 3.8422 5.72832 12.3393
16 4 -0.989868 6.86014 16.4827
183 2 -1.12449 5.36079 9.47539
111 3 5.92004 4.26018 11.5195
35 4 4.06596 7.58568 16.6342
98 3 3.40713 1.11985 8.53315
108 3 4.66284 3.35429 8.44406
259 2 6.99821 3.49469 14.7325
201 2 4.63626 6.32391 8.95205
154 2 1.87461 7.82284 13.4533
21 4 -2.6075 9.50756 7.06193
23 4 -3.53341 12.1135 5.48782
269 2 -0.573751 10.7365 1.20303
39 4 -0.732429 12.3414 4.11049
194 2 -0.274746 14.1808 6.33697
118 3 -1.62901 10.4687 7.92389
57 1 -2.57593 7.30992 0.903756
89 3 -2.15917 8.17979 6.20292
91 3 -3.50711 10.6596 6.05951
92 3 -3.92404 13.0702 6.73068
11 4 -4.9156 14.0271 7.58805
115 3 -0.412708 13.4043 3.04302
116 3 -2.13904 12.4638 4.80597
198 2 1.71937 7.95065 4.48291
62 1 -3.87569 8.72115 8.27072
120 3 0.473526 12.3506 5.1606
70 1 3.37961 8.37071 6.34482
146 2 -4.77961 12.2156 4.34815
151 2 -0.757503 7.67039 1.51415
155 2 -0.687733 10.802 3.32996
156 2 -1.13691 13.0534 7.3306
173 2 -2.22652 8.35274 0.627642
207 2 2.7236 8.2011 5.42254
175 2 -3.70058 7.16584 0.511227
240 1 0.449528 10.4152 0.802953
268 2 1.29035 10.3034 1.71055
262 2 2.85305 7.93537 0.818243
199 2 1.48534 8.6767 2.66445
67 1 1.62418 7.74497 3.38032
205 2 0.614194 9.85776 8.22553
208 2 3.16671 7.66404 7.21654
222 2 3.22723 8.55282 2.47868
246 2 0.387208 9.4634 0.182396
24 4 -2.31641 9.47259 13.0136
25 4 -3.27288 11.7805 10.7276
93 3 -1.60072 8.10816 12.4708
63 1 -2.60233 9.82142 14.9422
64 1 -3.95323 13.3739 11.507
69 1 1.61998 9.86725 8.69218
90 3 -5.88394 13.2834 8.63308
267 2 -3.77774 14.7775 14.4939
94 3 -4.56365 11.2367 9.7853
95 3 -2.75967 10.5472 12.0218
119 3 -1.99729 12.2907 9.8169
147 2 -1.01869 10.1842 14.225
204 2 1.99521 8.84637 9.02661
157 2 0.459821 11.5445 8.84836
206 2 1.83068 10.6093 9.46763
188 2 -2.27617 9.27323 15.8501
187 2 -3.60744 9.01909 9.32251
190 2 -3.05301 10.8291 15.2083
191 2 -3.7921 13.0115 12.6244
192 2 -5.01843 13.333 11.1654
245 2 0.942839 12.4973 16.0186
266 2 -3.44509 14.3822 11.2581
41 4 -1.16985 11.8078 8.53668
228 2 2.52073 11.4795 10.3266
1 4 14.1779 1.78742 3.80831
179 2 12.0705 5.10548 6.08553
3 1 12.5247 2.10446 4.85992
72 1 9.03462 2.10419 8.00886
5 3 13.8616 0.393779 2.87309
6 2 12.1118 0.417145 0.749751
7 2 11.7597 1.13435 4.99575
8 2 12.1673 3.03447 4.25934
9 2 13.1036 2.40842 5.80341
213 2 8.04338 1.61989 7.41007
68 1 5.26353 6.27716 8.00507
43 4 9.18199 2.43932 3.46187
47 4 8.31769 5.13685 2.44801
48 4 5.66798 7.13578 3.83222
273 2 9.97673 1.75391 7.5384
122 3 8.99825 1.19483 2.47665
123 3 7.89555 2.30086 4.63868
128 3 9.15433 3.83349 2.76749
254 3 14.1966 1.2458 8.25737
130 3 8.39371 5.91535 1.08586
158 2 10.7193 2.09425 4.07047
161 2 8.52249 6.32362 3.65087
162 2 6.66771 4.884 2.76606
159 2 8.94033 3.40205 8.07953
166 2 7.0523 6.52053 7.27844
59 1 12.0021 5.84532 5.2323
263 2 11.315 6.72335 5.42022
256 2 13.0999 0.542666 5.95798
129 3 5.24238 5.81539 2.95846
131 3 6.96486 7.09639 4.64042
26 4 7.83001 0.220961 1.916
180 2 11.8475 5.27946 4.21459
165 2 9.12003 6.72906 5.94132
212 2 9.86079 0.382385 5.06614
152 2 5.6085 7.29583 7.73598
237 2 9.88061 3.43411 0.337084
44 4 8.97411 2.03334 9.86764
264 2 13.7629 3.39945 14.1916
46 4 11.9539 2.19548 11.2983
49 4 9.45903 7.57735 16.2752
51 4 6.4499 7.65808 14.6429
127 3 12.4409 0.927048 12.3075
181 2 15.1358 2.49422 15.2015
73 1 11.8681 3.66566 12.6164
261 3 13.1795 6.36489 15.6857
125 3 13.0875 2.62602 10.3048
126 3 10.5129 2.07246 10.5495
232 1 11.5685 4.24764 16.2782
132 3 6.07756 6.16739 13.5438
133 3 7.96724 7.64384 15.4256
185 2 12.8522 6.41891 10.3808
258 2 7.55577 5.01557 15.7589
12 4 14.4757 2.4112 9.49752
202 2 6.60541 5.38595 8.60531
214 2 12.8097 4.21609 12.3621
215 2 11.8 3.26443 13.6396
216 2 10.9657 4.26158 12.3495
60 1 14.7834 3.49216 14.6974
231 4 11.8393 5.71706 15.1575
160 2 14.6794 1.91292 13.5281
233 3 10.5492 6.71092 15.4944
234 2 11.9159 5.44862 13.4318
124 3 7.68993 2.41428 10.718
236 2 11.1341 3.55323 15.4321
257 1 7.59842 3.87579 15.6392
260 2 8.68537 3.4844 15.6761
10 2 15.2664 1.8162 16.5857
235 2 12.5482 3.87055 16.703
226 2 8.01088 11.1765 4.63173
52 4 3.92694 10.998 2.52126
53 4 7.55837 10.3459 7.05995
271 2 7.23771 13.1128 0.167175
2 4 5.63064 13.5645 1.74777
71 1 3.05093 13.5712 5.18155
4 1 6.33798 13.8348 0.0127064
76 1 4.13403 9.06728 1.92035
77 1 7.74819 11.6018 5.63963
255 2 7.37322 13.1948 6.77225
135 3 5.02756 12.1295 2.11101
136 3 2.64352 11.3944 3.37774
137 3 7.65989 8.95483 6.33664
42 4 2.08093 11.9427 4.99019
227 2 8.50215 12.4176 5.90727
164 2 5.79966 8.572 2.78773
168 2 5.95246 10.3418 7.74397
139 3 4.43346 10.4836 8.20728
186 2 11.8002 7.59019 8.17217
250 2 5.07846 9.76921 0.255245
209 2 4.54723 8.53479 6.1189
210 2 3.85072 13.5113 4.4019
211 2 3.45728 13.4656 6.27146
217 2 9.11733 8.36326 0.77762
253 4 6.155 14.1366 7.46007
167 2 3.33622 10.126 0.824163
223 2 4.75455 9.70795 3.53461
224 2 4.76252 8.27603 1.42299
225 2 6.55157 11.8897 5.72666
50 4 7.6557 7.48099 5.93721
265 2 10.5534 9.00951 7.94575
140 3 5.16277 13.2322 8.2021
163 2 4.2787 7.53664 4.77394
117 3 1.10309 13.3273 0.861458
138 3 8.4985 10.8237 8.19744
40 4 3.1003 9.99224 7.32069
121 3 2.60544 10.9906 6.12695
238 4 1.36313 11.9522 0.114281
22 4 9.43551 11.796 9.33428
54 4 4.74376 12.1271 9.27884
55 4 7.16736 12.1177 11.5594
75 1 6.68188 9.06083 13.41
218 2 9.10501 9.94294 16.0866
251 2 7.10784 12.2884 16.3498
189 2 11.6323 8.99669 14.1629
141 3 8.59937 11.9001 10.8481
142 3 5.94495 11.9576 10.5979
143 3 7.14842 13.5018 12.336
169 2 6.96394 10.9166 12.8022
274 2 11.0363 9.62654 15.7772
270 2 6.65112 14.4737 15.8362
221 2 5.7706 9.82853 13.566
230 2 3.35341 13.0047 10.9929
239 4 4.9999 12.2883 15.1635
241 1 4.42678 11.3229 13.5475
242 1 6.44734 11.3826 16.0816
243 3 5.74209 13.7989 14.4909
244 3 3.67475 12.5741 16.0345
248 2 5.2096 11.4041 12.7401
247 2 4.10106 10.2866 13.8321
229 2 2.5075 13.0021 9.21554
252 2 6.83182 10.792 15.1777
45 4 6.20816 14.5646 13.0713
220 2 7.70272 9.49111 13.7089
219 2 6.54835 8.52707 12.3915
78 1 3.11639 12.4535 10.023
249 2 3.52257 11.9772 13.3455
74 1 10.0057 9.3768 16.39
272 2 1.38448 14.5536 9.09795
134 3 5.27612 7.99782 15.6455
ITEM: TIMESTEP
300
ITEM: NUMBER OF ATOMS
274
ITEM: BOX BOUNDS xy xz yz pp pp pp
-7.5321989999999994e+00 1.6478000000000002e+01 -7.5321989999999994e+00
0.0000000000000000e+00 1.5100700000000000e+01 9.9190000000000000e-01
0.0000000000000000e+00 1.6771000000000001e+01 1.0307999999999999e+00
ITEM: ATOMS id type x y z
58 1 1.37496 5.90526 7.8282
13 4 1.34164 2.02931 5.60248
15 4 -0.366066 3.90939 1.76912
200 2 2.35575 6.66586 3.14425
17 4 0.187076 4.54198 7.30482
18 4 -1.79195 6.58731 5.75403
27 4 3.72437 2.25307 3.59414
28 4 5.69893 2.22435 0.317779
30 4 6.42363 2.41454 5.36321
33 4 4.30702 4.62901 1.93332
34 4 -0.025897 6.78713 2.99822
56 1 0.921182 2.91419 0.741607
106 3 -1.05168 6.84914 4.13486
36 4 5.33964 4.35981 7.61342
65 1 6.57478 0.882943 6.55671
177 2 2.3295 5.49122 7.28189
193 2 6.25026 1.23358 7.59232
80 3 1.64719 0.933731 6.81037
82 3 -0.976145 2.99161 2.86154
83 3 -1.51298 4.4822 0.651145
85 3 1.02058 3.39037 6.31226
86 3 -1.07969 5.4058 6.52479
96 3 2.53355 2.03108 4.56333
97 3 6.65471 1.10398 0.997814
176 2 0.988058 6.90916 7.49009
100 3 5.12226 1.98787 4.36252
103 3 3.40428 3.75767 2.89022
104 3 5.22335 3.45262 1.14259
105 3 0.40184 5.39029 2.465
107 3 3.51025 5.48851 0.853018
148 2 3.61123 1.08625 2.36685
172 2 1.75903 3.78252 0.607156
171 2 1.28565 2.0064 1.3244
203 2 4.52729 5.918 6.77458
79 3 -0.127151 1.36043 4.79925
109 3 6.15175 3.60266 6.38223
174 2 -2.50929 6.78124 1.85689
61 1 -1.81669 6.12509 10.1238
14 4 1.52389 2.31622 11.2919
19 4 0.538166 4.36037 13.5674
20 4 -1.146 6.70334 11.7945
29 4 3.85303 2.26826 9.50629
31 4 4.21748 3.09855 15.0897
32 4 6.20135 2.60212 11.4653
196 2 3.80643 1.50851 13.3932
37 4 5.30082 5.02446 12.8537
38 4 1.54977 6.91297 14.9256
184 2 -1.88541 6.98772 9.33651
178 2 1.38129 5.79319 8.95941
66 1 3.25487 1.61803 14.409
81 3 0.252003 1.81574 10.5742
170 2 1.33597 3.67381 16.5249
87 3 1.17571 3.28228 12.5574
88 3 -0.42148 5.49625 12.6086
99 3 2.5653 2.96257 10.2511
101 3 5.24645 2.60474 16.144
102 3 5.03807 1.86256 10.6905
197 2 2.12846 1.89031 14.3349
110 3 4.77959 3.97628 13.8923
84 3 -0.362576 3.79971 8.78928
112 3 1.47906 5.28071 14.6053
113 3 2.71348 7.31575 15.8652
114 3 0.136868 7.55437 15.5741
144 2 2.29956 0.884068 11.9133
145 2 -0.109353 7.07552 10.4483
149 2 2.98792 4.06424 15.8503
150 2 6.19901 1.85432 13.0105
153 2 3.9721 5.64582 12.033
16 4 -0.974341 6.69778 16.4656
183 2 -1.30155 5.1805 9.67438
111 3 6.1305 4.19697 11.6536
35 4 4.06502 7.58551 16.5933
98 3 3.54333 0.909654 8.71749
108 3 4.29038 3.50423 8.51736
154 2 1.69118 7.72261 13.4517
201 2 4.61148 6.36354 8.91802
182 2 -0.503776 4.05902 15.6849
21 4 -2.60277 9.60512 7.03314
23 4 -3.52826 12.1251 5.51208
269 2 -0.793098 10.8339 1.15407
39 4 -0.670354 12.4965 4.13493
195 2 -1.78262 14.3368 5.99936
118 3 -1.52375 10.5616 7.83868
57 1 -2.64166 7.16412 0.795984
89 3 -2.06643 8.06897 6.37547
91 3 -3.51972 10.592 5.92791
92 3 -3.80913 13.2597 6.65222
11 4 -4.91746 14.0905 7.61409
115 3 -0.384853 13.5927 3.04252
116 3 -2.16921 12.4362 4.66922
198 2 1.8447 7.70189 4.76556
62 1 -3.83309 8.99301 8.36056
120 3 0.442203 12.4447 5.20748
70 1 3.60826 8.41416 6.40891
146 2 -4.77722 12.2395 4.39509
151 2 -0.922148 7.56261 1.67396
155 2 -0.535671 10.9845 3.27114
156 2 -1.09028 13.2078 7.52184
173 2 -2.17146 8.20687 0.630807
207 2 2.95714 8.26037 5.45725
194 2 -0.0202076 14.2686 6.47217
240 1 0.195544 10.475 0.778488
268 2 1.05692 10.4013 1.70367
262 2 2.90816 8.10561 0.605113
199 2 1.49632 8.48482 2.96633
67 1 1.67153 7.47318 3.60378
205 2 0.586997 9.93495 8.07569
208 2 3.21111 7.7245 7.31429
222 2 3.17332 8.3674 2.57075
246 2 0.14671 9.53771 0.176127
238 4 1.23575 11.9303 0.105011
24 4 -2.35468 9.45583 12.9979
25 4 -3.34158 11.8445 10.734
93 3 -1.73739 8.02207 12.5222
63 1 -2.55142 9.76203 14.9328
64 1 -4.00321 13.4135 11.626
69 1 1.56811 9.87089 8.68511
90 3 -5.81192 13.1051 8.41509
267 2 -4.04147 14.7525 14.9896
94 3 -4.56921 11.2161 9.88073
95 3 -2.92744 10.7041 11.899
119 3 -1.9454 12.145 9.8752
147 2 -0.99971 10.1156 14.1035
204 2 1.81112 8.71437 8.86945
157 2 0.645353 11.6546 8.79338
206 2 1.62172 10.5609 9.7113
188 2 -2.2999 9.14612 15.8984
187 2 -3.45037 9.28513 9.41122
190 2 -2.94318 10.7503 15.2485
191 2 -3.78043 13.087 12.7209
192 2 -5.13657 13.23 11.2579
245 2 0.782692 12.544 15.9297
266 2 -3.45198 14.3754 11.2753
41 4 -1.07723 11.8452 8.56032
1 4 14.0754 1.77064 3.78826
179 2 12.1289 4.88454 5.72233
3 1 12.4484 2.28516 4.77381
72 1 8.98694 2.3865 8.09351
5 3 13.6317 0.493369 2.78523
6 2 12.2687 0.255916 0.494393
7 2 11.7596 1.28894 4.8708
8 2 12.1661 3.13269 3.95284
9 2 12.8466 2.72352 5.76693
213 2 8.10431 1.83656 7.50814
68 1 5.37289 6.33452 8.13862