ITEM: TIMESTEP
0
ITEM: NUMBER OF ATOMS
274
ITEM: BOX BOUNDS xy xz yz pp pp pp
-7.3914999999999997e+00 1.6478000000000002e+01 -7.3914999999999997e+00
0.0000000000000000e+00 1.4932990000000000e+01 9.9190000000000000e-01
0.0000000000000000e+00 1.6771000000000001e+01 8.6308999999999991e-01
ITEM: ATOMS id type x y z
152 2 6.64798 2.25513 8.01688
13 4 1.02853 1.71651 5.2826
15 4 -0.107095 4.42579 1.84304
108 3 4.29347 3.71719 8.22151
17 4 -0.311481 4.26227 7.24103
18 4 -1.84026 6.83298 5.56521
27 4 3.76348 2.45204 3.52222
28 4 6.26142 2.75529 0.588908
30 4 6.50889 2.47703 5.23031
33 4 4.73842 4.94158 2.14741
34 4 0.466473 7.13146 3.47242
56 1 1.30213 3.43342 1.05706
58 1 1.04919 5.28266 8.00489
174 2 -2.77147 6.86951 1.41359
65 1 6.29623 0.958164 6.59443
67 1 2.14713 7.17293 4.34969
163 2 4.65049 6.56841 5.84916
80 3 1.33696 0.517149 6.25197
195 2 5.23624 1.15273 7.06837
83 3 -0.954658 5.00433 0.456999
85 3 0.452005 3.0064 6.14223
86 3 -1.08104 5.39898 6.51847
96 3 2.43788 2.1088 4.39437
97 3 6.80654 1.41835 1.3966
82 3 -1.08977 3.24652 2.65531
100 3 5.19884 2.34639 4.33906
103 3 3.51683 3.93484 2.89916
200 2 2.51058 6.06998 4.28496
105 3 0.366216 5.63737 2.79734
107 3 4.05105 5.74349 0.829128
148 2 3.85674 1.34949 2.20867
208 2 3.64679 7.3249 7.94397
171 2 0.870187 2.3884 1.30793
172 2 2.29067 3.70994 1.67907
176 2 1.02919 6.32781 7.63865
177 2 1.93113 4.66538 7.56315
193 2 7.06485 0.696257 7.46077
36 4 5.88229 3.78154 7.72454
98 3 3.30318 1.12026 7.93943
26 4 7.7383 0.181514 2.04132
267 2 3.56538 1.57887 13.9312
14 4 1.37009 2.40521 10.8044
19 4 0.711404 5.06773 12.7478
20 4 -0.590785 7.43649 10.8876
29 4 3.57371 2.37941 8.8525
31 4 4.65743 3.13452 15.4184
32 4 5.75247 2.12583 11.4912
35 4 4.5549 7.42482 16.3065
37 4 5.68508 4.86592 12.8652
38 4 2.02791 7.06602 14.7716
183 2 -1.69958 6.01756 9.46165
61 1 -2.17659 6.77243 10.1769
66 1 4.29849 1.40767 14.7624
16 4 -0.645438 6.88096 16.2174
114 3 0.584502 7.71674 15.2504
87 3 1.25154 3.64343 11.8748
88 3 0.153046 6.28146 11.7999
99 3 2.0249 2.88882 9.40182
101 3 5.89436 3.26974 16.3346
102 3 4.54941 1.96767 10.4739
178 2 0.874122 5.12592 9.22911
110 3 4.96781 4.07928 14.1235
111 3 6.10193 3.76881 11.7172
112 3 2.00728 5.86919 13.7648
113 3 3.09661 6.95155 15.9891
124 3 7.19021 1.53142 11.0144
144 2 2.1798 1.04825 11.4641
182 2 -0.504177 4.64124 14.9214
149 2 3.18205 3.62186 16.162
150 2 5.2151 1.48393 13.0054
153 2 4.5616 5.8787 12.1219
196 2 3.69897 1.05598 15.7463
60 1 -0.669292 4.38686 13.8076
170 2 2.10439 4.72594 16.731
21 4 -2.71646 9.56137 7.13157
23 4 -3.45714 12.013 5.43507
205 2 0.864325 9.96203 8.29048
39 4 -0.737062 12.0751 3.805
199 2 2.84396 7.949 3.94821
238 4 1.08691 11.5367 0.570216
41 4 -1.34762 11.9311 8.31906
89 3 -2.16299 8.14207 6.5116
91 3 -3.68802 10.4819 6.12855
92 3 -3.86825 13.2213 6.3851
11 4 -4.92144 13.9643 7.30757
115 3 -0.532989 13.5383 3.27638
116 3 -2.07085 12.0594 4.73413
117 3 0.829263 13.0579 1.06944
118 3 -1.51472 10.4232 7.80214
120 3 0.585739 11.7687 4.65034
173 2 -1.43339 8.20237 0.801125
146 2 -4.50606 12.116 4.16573
151 2 0.417528 8.42309 2.22429
155 2 -0.86686 11.0122 2.4034
156 2 -1.34735 13.1461 7.03818
70 1 3.90492 7.93366 7.01311
106 3 -0.764182 7.30603 4.47986
207 2 3.28916 7.70448 6.01541
268 2 1.22393 10.4781 2.11162
240 1 -0.130259 9.87834 1.03756
269 2 -1.14882 9.56543 1.49933
194 2 -1.12489 14.2594 5.75384
246 2 0.266877 9.08325 0.336743
57 1 -2.26463 7.432 0.520293
198 2 1.67359 7.45818 5.44401
40 4 3.30626 9.67581 7.58257
204 2 1.45919 8.172 8.31759
24 4 -1.32481 10.0654 12.4887
25 4 -3.31435 11.9993 10.7394
247 2 2.45527 9.71606 14.6794
63 1 -1.23597 9.87464 14.3436
64 1 -4.06609 13.521 11.6107
69 1 1.67791 9.25966 8.64115
241 1 3.3434 10.111 14.2188
93 3 -0.961661 8.73145 11.686
272 2 -0.269299 14.13 9.05503
95 3 -2.31879 11.1288 11.6753
119 3 -2.33589 12.385 9.4961
147 2 0.144256 10.7709 13.17
228 2 2.26668 11.9988 9.77842
192 2 -3.58756 14.4875 11.1945
72 1 0.910472 14.1753 8.97536
188 2 -1.08774 10.8823 14.8624
189 2 -0.452969 9.01724 14.6882
190 2 -2.45221 9.45334 14.3382
191 2 -5.21639 13.4745 11.5241
94 3 -4.72533 11.083 10.0908
187 2 -3.61659 9.3219 9.55867
154 2 2.64238 8.38115 13.7033
266 2 -3.74882 13.2943 12.6698
145 2 0.431509 7.97 9.49534
206 2 1.95045 9.33852 9.75779
157 2 0.287408 12.3079 8.72797
245 2 0.436323 11.9709 16.5357
90 3 -5.69202 12.9524 8.39846
249 2 3.03037 10.5947 13.2361
175 2 -2.12366 8.76184 16.6311
62 1 -3.91661 8.92606 8.5378
197 2 -2.20293 14.8089 14.5381
184 2 -2.74217 7.59124 9.56873
262 2 4.39853 9.07049 16.7639
1 4 14.0692 1.77739 3.45645
6 2 11.0069 0.42544 0.572504
3 1 12.6227 2.18868 4.76162
165 2 9.59742 6.44689 6.17912
5 3 13.3438 0.773713 2.3667
59 1 12.0387 6.11703 4.79534
7 2 12.0871 1.1422 4.57134
8 2 12.2572 3.12689 4.10561
9 2 13.1252 2.36441 5.7399
263 2 11.9157 5.14407 5.40448
213 2 8.76901 0.566243 8.04263
43 4 9.22403 2.31902 3.53045
47 4 9.13894 5.21734 2.73265
48 4 5.66044 6.86007 4.4435
256 2 12.9562 0.595753 5.9736
122 3 9.17069 1.03799 2.59908
123 3 8.02222 2.3697 4.56113
128 3 9.45281 3.72407 2.60022
129 3 5.27135 5.99192 3.16705
130 3 8.79208 5.92003 1.41302
158 2 10.6863 2.13142 4.46015
161 2 10.3654 6.04623 3.56748
162 2 7.85049 5.48858 3.71829
260 2 8.66911 3.31181 0.0217789
166 2 7.66899 5.85653 7.50755
50 4 7.94979 6.9868 6.22923
131 3 7.22773 6.75919 4.81707
236 2 10.8361 3.56056 0.924201
104 3 5.96152 3.91536 1.56302
180 2 11.3735 6.99743 5.08704
179 2 12.3302 5.96283 3.75144
254 3 14.0724 0.935378 8.29396
109 3 6.27316 3.951 6.17732
79 3 15.2134 1.22764 4.35556
237 2 12.4627 2.93363 0.119848
44 4 8.46359 1.69306 10.0979
49 4 9.62348 7.35077 16.5677
46 4 11.4889 1.97192 11.4004
81 3 15.3767 1.88735 10.3291
51 4 7.05327 7.20687 14.3202
259 2 8.90916 3.08658 15.4729
257 1 8.72231 3.91718 16.1914
73 1 11.4492 3.58095 12.4929
159 2 8.25032 2.97569 8.93703
125 3 12.6423 2.13157 10.2353
126 3 9.96269 1.83111 10.7812
270 2 13.4631 2.00881 15.6712
132 3 6.9747 5.70079 13.3457
133 3 8.34952 7.24952 15.4721
68 1 7.11868 4.57857 8.98154
12 4 14.1247 2.16983 9.36512
134 3 5.5732 7.33957 15.102
202 2 6.82372 4.23896 10.0394
214 2 10.355 3.79768 12.3711
215 2 12.1633 4.38384 12.1061
216 2 11.8281 2.98373 13.4648
4 1 13.3334 0.985297 16.2594
231 4 12.034 5.48845 15.5363
232 1 12.3179 4.11915 16.7018
233 3 10.8746 6.38067 16.0554
234 2 11.5704 4.76603 14.0438
235 2 11.7254 3.27935 16.1325
258 2 8.31006 4.88186 15.676
160 2 13.8429 0.886122 14.3655
181 2 14.7156 3.27177 13.6331
185 2 12.7926 6.35529 11.051
201 2 8.23672 4.85122 8.84029
203 2 6.4322 5.62948 8.88712
127 3 12.1407 0.879416 12.3113
261 3 13.4128 6.30473 15.3609
84 3 14.2619 3.52952 8.46235
264 2 13.9189 5.10767 13.3038
225 2 8.4651 12.1757 6.19722
52 4 4.28408 10.7996 2.58907
53 4 7.60321 9.90054 7.34462
212 2 1.84344 13.9984 5.33033
217 2 8.03705 8.88215 0.0735714
71 1 2.79129 13.405 5.49229
211 2 3.25417 13.4801 6.56484
76 1 5.85189 10.1525 3.42607
77 1 7.80415 11.2273 5.95245
250 2 4.84415 9.21252 0.687778
135 3 4.74307 12.2476 1.91862
136 3 3.20073 11.1021 3.76031
137 3 7.76193 8.4548 6.79512
2 4 5.22627 13.6956 1.36627
226 2 6.71529 11.4782 5.7945
164 2 5.07389 8.43825 4.14793
140 3 4.88635 13.1971 8.23156
167 2 3.56777 9.82742 1.35366
168 2 6.00776 10.1188 7.97901
227 2 8.27096 10.5628 5.1297
209 2 5.0124 8.15547 6.81679
210 2 3.56957 13.6029 4.59626
255 2 7.31917 12.9054 6.85796
253 4 6.08847 13.906 7.44159
224 2 6.75128 10.7564 3.20117
222 2 5.78911 9.10583 2.68603
223 2 5.68004 10.0056 4.53709
265 2 10.656 9.45685 8.12844
42 4 2.3258 11.6433 4.98141
274 2 9.87843 8.42299 0.367174
121 3 2.88218 10.5783 6.36324
22 4 9.43507 11.7449 9.39477
54 4 4.65612 11.956 9.48659
55 4 7.13601 12.0194 11.4664
75 1 7.23419 8.88783 13.4436
251 2 6.42209 11.4976 16.2623
271 2 5.55225 14.2121 15.6044
273 2 1.61186 13.394 9.50415
141 3 8.34041 12.2822 10.567
142 3 5.87868 11.7994 10.4588
143 3 6.88067 13.1995 12.4841
169 2 7.38681 10.5719 12.392
78 1 3.11841 12.0772 10.5006
220 2 8.17923 9.42804 13.7954
221 2 6.28057 9.46367 13.5724
10 2 7.48326 14.4478 16.7099
239 4 4.3512 11.4872 15.2363
139 3 4.45358 10.3129 8.4289
242 1 5.6559 10.6054 16.4454
243 3 5.05344 12.7561 14.2263
138 3 8.60166 10.4671 8.48078
218 2 10.0818 9.32413 15.1922
244 3 3.22739 11.9723 16.2938
229 2 3.21954 13.1218 10.9727
252 2 5.84123 9.77837 15.6019
74 1 9.92616 9.17054 16.4041
45 4 5.65248 13.8873 13.2195
219 2 7.35015 8.48094 12.3591
248 2 4.18562 9.38966 14.0961
230 2 3.15661 11.2605 11.3357
186 2 11.3406 7.83076 8.63561
ITEM: TIMESTEP
100
ITEM: NUMBER OF ATOMS
274
ITEM: BOX BOUNDS xy xz yz pp pp pp
-7.3914999999999997e+00 1.6478000000000002e+01 -7.3914999999999997e+00
0.0000000000000000e+00 1.4932990000000000e+01 9.9190000000000000e-01
0.0000000000000000e+00 1.6771000000000001e+01 8.6308999999999991e-01
ITEM: ATOMS id type x y z
152 2 6.52111 2.08943 8.15189
13 4 0.98634 1.76766 5.38587
15 4 -0.304545 4.36118 1.83031
108 3 4.35692 3.70253 8.2346
17 4 -0.293069 4.04896 7.1688
18 4 -1.87783 6.73216 5.52813
27 4 3.84054 2.51442 3.59627
79 3 -0.0954384 1.4476 4.28203
30 4 6.45649 2.34743 5.21695
33 4 4.80891 4.97803 2.10172
34 4 0.442224 7.19398 3.23541
56 1 1.21018 3.50379 1.08732
58 1 1.15008 4.96873 7.95883
170 2 1.25334 4.11104 0.0934667
65 1 6.56827 0.911361 6.55277
109 3 6.28823 3.74884 6.33605
163 2 4.58502 6.52299 5.73158
80 3 1.20029 0.459004 6.29707
195 2 5.5214 0.935749 6.87037
83 3 -1.21342 4.96317 0.565141
85 3 0.461133 3.07887 6.2319
86 3 -1.33274 5.3964 6.23848
96 3 2.50769 2.1488 4.46256
97 3 7.03685 1.31121 1.17897
82 3 -1.20212 3.2513 2.76696
100 3 5.25687 2.20391 4.2599
103 3 3.74717 3.97301 3.13153
200 2 2.35009 6.22431 4.08639
105 3 0.396423 5.7567 2.56307
107 3 4.06237 5.59 0.857113
148 2 3.73743 1.50351 2.22502
208 2 3.61734 7.27152 7.82519
171 2 0.96282 2.39426 1.00805
172 2 2.06682 3.78856 1.84054
176 2 1.06315 6.00023 7.48442
177 2 2.05949 4.34834 7.59436
193 2 7.18879 0.650922 7.50282
36 4 5.97363 3.66147 7.86778
98 3 3.3851 1.07615 8.06613
26 4 7.81758 0.203234 2.10785
267 2 3.99093 1.02544 13.7781
14 4 1.38551 2.40797 10.8544
19 4 0.881859 4.98703 12.7759
20 4 -0.453885 7.45026 10.8199
29 4 3.65333 2.38725 8.99503
31 4 4.71154 3.18306 15.474
32 4 5.80222 2.28601 11.5179
35 4 4.58295 7.28821 16.3052
37 4 5.59913 4.90395 13.067
38 4 2.01397 7.05672 14.6781
183 2 -1.90137 6.03585 9.52226
61 1 -2.14046 6.93915 10.1419
66 1 4.42816 1.41007 14.7326
16 4 -0.623312 6.96624 16.1627
114 3 0.522801 7.56256 15.1792
87 3 1.45471 3.60193 11.9552
88 3 0.277205 6.24572 11.7483
99 3 2.22379 2.97796 9.61795
101 3 6.03469 3.20633 16.3076
102 3 4.63101 1.92489 10.5479
178 2 1.0608 4.97432 9.01589
110 3 4.79302 4.08374 14.1894
111 3 5.84491 4.04731 11.7622
112 3 1.75116 5.54969 14.018
113 3 3.11012 6.96873 15.8459
124 3 7.24352 1.75834 11.1882
144 2 2.13792 1.01212 11.4932
182 2 -0.580591 4.28458 14.7378
149 2 3.41429 3.73011 16.4995
150 2 5.48857 1.60723 13.054
153 2 4.53623 6.09295 12.5934
196 2 3.64723 1.23111 15.7658
60 1 -0.699028 4.24799 13.5719
84 3 -1.12809 3.52986 8.42195
264 2 -1.44154 4.97534 13.08
197 2 5.49785 1.00848 14.9081
21 4 -2.662 9.54806 7.01186
23 4 -3.49124 11.8693 5.28068
90 3 -5.69552 13.0292 8.34819
39 4 -0.650489 12.165 3.91125
199 2 2.49319 8.20591 3.89329
238 4 0.958019 11.5274 0.531307
41 4 -1.36607 12.0517 8.22049
89 3 -2.31514 8.05676 6.41483
91 3 -3.60505 10.3488 5.96242
92 3 -3.97675 13.0216 6.31887
11 4 -4.94637 13.9287 7.24084
115 3 -0.546174 13.5564 3.20597
116 3 -2.09512 12.1067 4.63298
117 3 0.878539 12.9621 1.1228
118 3 -1.27529 10.5857 7.7717
120 3 0.60443 11.7344 4.77711
173 2 -1.53697 8.42152 0.682547
146 2 -4.61811 11.854 4.0709
151 2 0.668792 8.61644 2.19026
155 2 -0.92204 11.1088 2.62181
156 2 -1.56858 13.2101 6.99159
70 1 3.82881 7.89967 6.87097
106 3 -0.751954 7.34548 4.23797
207 2 3.07037 7.62619 5.9267
268 2 1.13597 10.3661 2.06712
240 1 -0.288095 9.95124 1.16454
269 2 -1.18784 9.59008 1.69453
194 2 -0.752335 14.1604 5.73049
246 2 0.0529142 9.13379 0.455845
57 1 -2.24896 7.61639 0.399004
198 2 1.54197 7.44977 5.47062
40 4 3.14857 9.5022 7.62005
204 2 0.772321 8.64694 7.79532
121 3 2.66858 10.4117 6.42051
67 1 1.92161 7.30479 4.36832
174 2 -2.74981 7.22519 1.35684
24 4 -1.31794 10.1522 12.4657
25 4 -3.32401 11.9494 10.5384
247 2 2.4695 10.0036 14.5548
63 1 -1.30655 9.97957 14.3366
64 1 -3.97248 13.5529 11.3834
69 1 1.44506 9.11485 8.57489
241 1 3.45723 10.1296 14.1563
93 3 -0.706682 8.83153 11.613
272 2 -0.151824 14.0395 9.18329
95 3 -2.50097 11.0836 11.8589
119 3 -2.36692 12.3944 9.41475
147 2 -0.103489 11.1532 13.2729
62 1 -3.81714 9.0249 8.41502
192 2 -3.5007 14.5317 11.0002
72 1 0.971514 14.3125 9.10897
188 2 -1.36567 10.941 14.9121
189 2 -0.59038 9.23447 14.7308
190 2 -2.50541 9.40419 14.2092
191 2 -5.11444 13.4701 11.1331
94 3 -4.57499 11.1601 10.0363
187 2 -3.58598 9.40642 9.46819
154 2 2.65695 8.21537 13.5802
266 2 -3.79922 13.3843 12.5236
145 2 0.482482 7.60905 9.3945
206 2 2.01428 8.43327 9.32122
157 2 0.218633 12.537 8.62558
245 2 0.273901 12.0639 16.615
184 2 -2.64609 7.74383 9.48167
205 2 1.0416 10.0423 9.09855
175 2 -2.00657 8.83134 16.3756
1 4 14.0673 1.86621 3.61866
6 2 11.4485 0.752415 0.78904
3 1 12.582 2.02638 5.01241
165 2 9.55612 7.25521 6.21808
5 3 13.5033 0.67078 2.49267
59 1 12.0386 6.32806 4.49697
7 2 11.8737 1.21009 4.66889
8 2 12.3967 3.12485 4.57541
9 2 12.6819 2.08255 6.18043
263 2 12.1991 5.22619 4.33745
213 2 8.74254 0.907154 8.09604
43 4 9.24434 2.41748 3.6249
47 4 9.14327 5.23092 2.69145
48 4 5.72219 6.85572 4.39949
28 4 6.40758 2.62979 0.509053
122 3 9.09458 0.860735 2.90901
123 3 8.00366 2.59124 4.56965
128 3 9.46721 3.69328 2.59738
129 3 5.24454 6.1034 3.11372
130 3 8.49832 5.99324 1.5349
158 2 10.6783 2.33071 4.60213
161 2 10.5537 6.05043 3.2033
162 2 8.20337 5.64313 3.98394
260 2 8.33175 3.83976 0.224344
166 2 7.66105 5.93547 7.54331
50 4 7.90873 7.15558 6.36479
131 3 7.17682 6.71481 4.91905
236 2 10.5779 3.42205 0.755435
104 3 5.98302 3.91179 1.43845
180 2 11.2811 6.54634 5.33868
237 2 12.4349 3.24483 0.306578
254 3 14.0998 0.824392 8.37277
179 2 11.8837 6.94164 3.61
44 4 8.43488 1.80058 10.2044
49 4 9.59908 7.2879 16.516
46 4 11.6488 1.91839 11.3854
127 3 12.1803 0.721368 12.5701
51 4 6.94867 7.15966 14.4964
259 2 9.36232 3.40707 15.6089
257 1 8.74169 4.17472 16.1299
73 1 11.4003 3.47544 12.4526
159 2 8.21124 3.41111 9.50226
125 3 12.6655 2.41112 10.2472
126 3 10.0056 1.7017 10.7526
270 2 13.3962 1.93918 15.6536
132 3 6.99186 5.71155 13.5455
133 3 8.14149 7.22282 15.5524
68 1 6.96688 4.8562 9.05004
12 4 14.172 2.18734 9.38058
134 3 5.55494 7.38078 15.1247
202 2 6.68158 4.57967 10.1183
214 2 10.1745 3.4529 12.2847
215 2 11.9514 4.40147 11.9934
216 2 11.8436 2.98334 13.4759
4 1 13.3547 1.14662 16.3625
231 4 12.1226 5.4724 15.4356
232 1 12.327 4.16674 16.7097
233 3 10.8919 6.3468 15.9556
234 2 11.8098 4.75445 13.8764
235 2 12.0265 3.21614 15.9566
258 2 8.18567 4.86954 15.4207
81 3 15.2787 1.97566 10.5008
181 2 14.6592 3.20336 13.142
185 2 12.811 6.75657 11.1371
201 2 8.10505 4.87369 8.91977
203 2 6.48567 5.81906 8.75331
160 2 13.9462 0.814214 14.4462
261 3 13.5627 6.18089 15.4987
225 2 8.25724 12.0901 5.81765
52 4 4.23421 11.0253 2.39229
53 4 7.38776 10.0276 7.44859
212 2 1.91384 14.0468 5.45347
274 2 9.54811 8.31478 0.625789
71 1 2.73761 13.2773 5.40703
211 2 3.2607 13.1383 6.4081
76 1 5.633 10.1433 3.31654
77 1 7.67471 11.1196 5.86618
250 2 5.03234 9.29048 0.601159
135 3 4.90279 12.2867 1.81595
136 3 3.15045 11.2021 3.55397
137 3 7.61301 8.58431 6.90762
2 4 5.40952 13.8091 1.4904
226 2 6.53273 11.209 5.65805
164 2 5.32268 8.48147 4.36095
140 3 4.94713 12.8987 8.16206
167 2 3.63593 10.0295 1.08248
168 2 5.72029 10.1386 7.98195
227 2 8.18311 10.1959 5.24885
209 2 4.92911 7.98101 6.62451
210 2 3.46787 13.3342 4.51341
255 2 7.30974 12.903 6.67085
253 4 6.06499 13.8236 7.48735
224 2 6.69389 10.6023 3.27119
222 2 5.47569 9.12222 2.6741
223 2 5.09292 10.2256 4.35289
256 2 5.44977 14.3759 5.94853
42 4 2.14914 11.5464 5.03041
265 2 10.7532 9.61365 8.0089
262 2 3.61189 8.0958 0.0725444
22 4 9.33638 11.7885 9.29482
54 4 4.73483 11.9468 9.38212
55 4 7.1573 11.967 11.4249
75 1 7.18027 8.67439 13.1714
251 2 6.40448 11.4827 15.9914
271 2 5.37839 14.2512 15.9137
217 2 9.02865 9.62426 16.2105
141 3 8.50476 12.2585 10.68
142 3 5.92225 11.7251 10.4061
143 3 6.88022 13.1462 12.39
169 2 7.23472 10.4978 12.3808
78 1 3.23615 12.4658 10.4413
220 2 7.68653 9.46637 13.7674
221 2 6.12612 8.83001 12.9422
10 2 7.56002 14.7814 16.6943
239 4 4.26337 11.5207 15.2071
139 3 4.2604 10.1627 8.61499
242 1 5.77773 10.4214 16.3265
243 3 4.90724 12.7411 14.2627
138 3 8.48102 10.6847 8.49021
218 2 10.7068 9.07958 15.5925
244 3 3.06593 11.9481 16.2208
229 2 3.23138 13.5911 10.3701
252 2 6.01668 9.57161 15.6002
74 1 10.0056 9.07574 16.3795
45 4 5.74307 13.838 13.3885
219 2 7.80921 8.1733 12.36
273 2 1.74277 13.5498 9.56527
230 2 3.46907 12.023 11.4438
228 2 2.35119 11.9013 9.95173
248 2 4.25494 9.34266 14.4841
249 2 3.67502 10.6799 13.1027
186 2 11.4591 7.90878 8.42885
ITEM: TIMESTEP
200
ITEM: NUMBER OF ATOMS
274
ITEM: BOX BOUNDS xy xz yz pp pp pp
-7.3914999999999997e+00 1.6478000000000002e+01 -7.3914999999999997e+00
0.0000000000000000e+00 1.4932990000000000e+01 9.9190000000000000e-01
0.0000000000000000e+00 1.6771000000000001e+01 8.6308999999999991e-01
ITEM: ATOMS id type x y z
152 2 6.48752 1.96374 8.15228
13 4 1.20998 1.8374 5.35974
15 4 -0.30477 4.40163 1.8047
108 3 4.39124 3.57727 8.16886
17 4 -0.238115 4.24505 7.09414
18 4 -1.77156 6.7631 5.34459
27 4 3.81031 2.58221 3.76614
79 3 -0.0262763 1.33516 4.29484
30 4 6.49805 2.47355 5.27007
33 4 4.86065 4.86477 2.08848
98 3 3.45225 1.0239 7.98335
56 1 1.06939 3.41065 0.902547
58 1 1.13757 5.18896 7.93897
67 1 2.04481 7.14858 4.08174
65 1 6.5267 0.865214 6.49477
34 4 0.338762 7.16149 3.16977
163 2 4.63742 6.4628 5.72171
80 3 1.42704 0.591612 6.30161
195 2 5.39649 0.862161 6.80065
83 3 -1.21032 4.97623 0.50484
85 3 0.477824 3.07881 6.27071
86 3 -1.14066 5.42929 6.11541
96 3 2.5591 2.30134 4.69172
97 3 7.10016 1.27366 1.28683
82 3 -1.1923 3.40932 3.00347
100 3 5.16498 2.33663 4.42319
103 3 3.71941 3.93791 2.97949
200 2 2.55954 6.14341 3.88821
105 3 0.322859 5.73261 2.51812
107 3 4.0448 5.58421 0.849341
148 2 3.7883 1.39771 2.56464
208 2 3.42814 7.106 7.54614
171 2 1.26199 2.37708 1.23362
172 2 1.95672 4.13849 1.15275
176 2 0.979531 6.23867 7.56399
177 2 2.06313 4.63408 7.41204
193 2 7.14455 0.677352 7.43507
36 4 5.96843 3.51218 7.88935
174 2 -2.76736 6.95293 1.42507
198 2 1.61715 7.2442 5.15202
84 3 -1.10278 3.50941 8.38267
267 2 3.53712 1.49245 14.0259
14 4 1.42445 2.42589 10.9861
19 4 0.791688 4.97903 12.7119
20 4 -0.406092 7.50065 10.8777
29 4 3.56063 2.19665 8.99363
31 4 4.82892 3.10044 15.5011
32 4 5.87258 2.4653 11.5774
35 4 4.46716 7.41859 16.4282
37 4 5.42111 5.01578 13.0383
38 4 2.04509 7.06188 14.7755
183 2 -1.7192 5.88867 9.46014
61 1 -1.9458 6.76542 10.0579
66 1 4.34758 1.3884 14.7791
16 4 -0.758636 6.96617 16.2488
114 3 0.640905 7.77588 15.3194
87 3 1.45905 3.55518 12.1479
88 3 0.324568 6.19467 11.5229
99 3 2.14855 2.79112 9.63756
101 3 6.13302 2.93059 16.3944
102 3 4.80969 1.90814 10.4104
178 2 1.0511 5.04403 9.06909
110 3 4.88991 4.03719 14.214
111 3 5.92557 4.15448 11.7337
112 3 1.82664 5.7519 13.9283
113 3 2.94419 6.98988 16.0582
124 3 7.39411 1.99681 11.3595
144 2 2.15878 0.968117 11.7237
182 2 -0.599336 4.37995 14.5769
149 2 3.45013 3.59076 16.4475
150 2 5.4266 1.87466 13.1452
153 2 4.18546 6.03213 12.5373
196 2 3.90233 1.03776 15.8947
60 1 -0.792489 4.2752 13.4652
197 2 5.23783 0.774633 14.3979
81 3 -0.102635 2.06622 10.5142
170 2 1.65164 4.29107 16.5928
261 3 -1.89231 6.34544 15.2298
185 2 -2.39575 6.46661 11.1271
21 4 -2.5955 9.46347 7.07774
23 4 -3.61071 11.8532 5.21383
121 3 2.50532 10.4589 6.27818
39 4 -0.743242 12.1656 3.89584
199 2 2.5728 8.06632 3.68807
238 4 1.01022 11.4545 0.571208
41 4 -1.30274 12.0592 8.16836
89 3 -2.12414 8.06961 6.47419
91 3 -3.61061 10.3634 5.87697
92 3 -4.01822 12.9008 6.34223
11 4 -4.85436 13.9403 7.33417
115 3 -0.516875 13.6324 3.32373
116 3 -2.14454 12.0993 4.56135
117 3 0.992877 12.9006 1.2151
118 3 -1.37496 10.4799 7.71487
120 3 0.473549 11.6885 4.7446
173 2 -1.70696 8.43984 0.722908
146 2 -4.7457 11.9227 3.98233
151 2 0.23867 8.36696 1.88153
155 2 -0.835938 10.9433 2.64137
156 2 -1.60302 13.107 6.83346
70 1 3.72252 7.8489 6.73677
106 3 -0.919954 7.2937 4.09765
207 2 3.16464 7.53277 5.75526
268 2 0.954751 10.1977 2.01939
240 1 -0.431414 9.99758 0.983494
269 2 -1.39936 9.99236 1.60239
194 2 -0.679455 14.0698 5.77024
246 2 -0.326567 9.08766 0.317855
57 1 -2.48703 7.51549 0.474182
204 2 0.586666 9.23916 8.17264
40 4 3.0576 9.47028 7.59495
42 4 2.1054 11.4602 5.05719
262 2 3.33073 8.2432 0.086018
24 4 -1.37845 10.1544 12.3201
25 4 -3.36469 12.0083 10.5338
247 2 2.27838 9.8636 14.19
63 1 -1.15587 9.92861 14.1862
64 1 -3.92089 13.6213 11.395
69 1 1.53869 8.96258 8.71297
241 1 3.42093 9.99031 13.8521
93 3 -0.750546 8.90716 11.6658
272 2 -0.181792 14.3794 9.33382
95 3 -2.58563 11.0938 11.6112
119 3 -2.25436 12.356 9.34662
147 2 -0.13716 11.1143 13.0112
62 1 -3.73816 8.93618 8.46145
192 2 -3.37984 14.5782 10.9833
175 2 -2.45255 8.66175 16.6144
188 2 -1.07598 10.9524 14.6756
189 2 -0.401331 9.1621 14.6205
190 2 -2.29732 9.4888 14.3006
191 2 -5.10008 13.479 11.1578
94 3 -4.82449 11.144 9.87594
187 2 -3.49932 9.41595 9.49034
154 2 2.62952 8.19976 13.5666
266 2 -3.57739 13.3531 12.5075
145 2 0.0339629 7.79332 9.21849
206 2 1.82176 7.8201 8.59124
157 2 0.263629 12.7055 8.51742
245 2 0.32119 12.2397 16.5708
184 2 -2.5912 7.58025 9.49228
205 2 1.59581 9.44278 9.69458
90 3 -5.68698 13.0439 8.48116
1 4 14.0802 1.94619 3.67161
6 2 11.5562 1.17004 0.670616
3 1 12.6541 2.14435 4.97954
165 2 9.4651 6.93148 5.85218
5 3 13.5031 0.840466 2.47372
59 1 12.0517 6.30446 4.42495
7 2 12.0363 1.27072 4.50441
8 2 12.3001 3.23912 4.54796
9 2 12.7209 2.11061 6.11165
263 2 12.111 5.18921 4.42143
213 2 8.71302 1.28285 8.10622
43 4 9.27238 2.44035 3.63332
47 4 8.9734 5.14439 2.67331
48 4 5.7649 6.83574 4.45987
26 4 7.88422 0.143168 2.18223
122 3 9.35869 0.917708 2.81402
123 3 8.01438 2.53876 4.59744
128 3 9.33139 3.62069 2.53499
129 3 5.55684 6.08174 3.16899
130 3 8.53054 5.9061 1.32865
158 2 10.7071 2.45346 4.6246
161 2 10.3051 5.91074 3.43971
162 2 7.84738 5.29688 3.84759
256 2 13.1576 0.479071 6.04226
166 2 7.80044 5.89321 7.52855
50 4 7.96021 7.18143 6.37489
131 3 7.21262 6.81989 4.9826
236 2 10.3019 3.5295 0.610979
104 3 6.02577 3.83262 1.62175
180 2 11.3302 6.72857 5.23328
237 2 12.2046 3.39982 0.325556
179 2 11.9895 6.76564 3.40884
109 3 6.40178 3.78484 6.39349
28 4 6.44876 2.58959 0.503067
44 4 8.60423 1.99507 10.2557
49 4 9.64488 7.3749 16.4894
46 4 11.6919 1.87325 11.4677
260 2 9.58241 4.40644 16.6709
51 4 6.8886 7.20811 14.5322
259 2 9.12271 2.96827 15.4993
257 1 8.80712 3.90112 16.0513
73 1 11.5291 3.44339 12.5033
159 2 8.45607 3.53614 9.41387
125 3 12.7444 2.26783 10.3838
126 3 10.087 1.86935 10.8986
270 2 13.6075 2.12498 15.4949
132 3 6.81535 5.89943 13.6224
133 3 8.27706 7.34279 15.5322
68 1 7.01694 4.87269 9.03116
12 4 14.1302 2.10683 9.44961
134 3 5.52036 7.45423 15.2323
202 2 6.67766 4.58627 10.1244
214 2 10.4126 3.75756 12.435
215 2 12.301 4.16523 12.0475
216 2 11.904 2.96469 13.5279
4 1 13.441 1.27453 16.3015
231 4 12.0717 5.5836 15.3359
232 1 12.1404 4.23057 16.6095
233 3 10.8041 6.47105 15.7031
234 2 11.5266 4.89765 13.8682
235 2 11.9607 3.28519 15.8309
258 2 8.25121 4.64601 15.3757
254 3 13.9273 0.810927 8.64381
181 2 14.6561 3.19063 13.084
264 2 13.9077 5.01407 13.136
201 2 8.10094 5.02093 8.97504
203 2 6.37979 5.69191 8.53575
225 2 8.3035 11.9445 5.93991
52 4 4.10313 11.0204 2.43687
53 4 7.28733 10.0261 7.42166
212 2 1.95135 13.8691 5.65657
274 2 8.67077 8.61248 0.682723
71 1 2.76268 13.0886 5.66698
211 2 3.23367 12.8976 6.69373
76 1 5.55874 10.1283 3.24403
77 1 7.38848 11.3003 5.94871
250 2 4.79166 9.01524 0.461966
135 3 4.8596 12.5467 1.87948
136 3 2.90956 11.0424 3.45704
137 3 7.71492 8.53908 7.00742
2 4 5.47839 13.961 1.41763
226 2 6.35768 11.8266 5.99142
164 2 5.18318 8.44369 4.26214
140 3 5.01104 12.9385 8.05145
167 2 3.61441 10.2002 0.907377
168 2 5.66205 10.009 8.02335
227 2 7.44934 10.3657 5.14247
209 2 4.81209 8.077 6.69051
210 2 3.51917 13.2797 4.83723
255 2 7.50735 12.9016 7.16065
253 4 6.13205 13.8676 7.55113
224 2 6.50696 10.6403 3.00709
222 2 5.27862 9.09776 2.6248
223 2 5.13944 10.2497 4.37452
138 3 8.24996 10.8276 8.3826
265 2 10.7672 9.4266 8.03292
22 4 9.28247 11.7717 9.33531
54 4 4.70452 11.9749 9.38316
55 4 7.12235 11.8394 11.486
75 1 7.2458 8.60443 13.2061
251 2 6.44997 11.1465 16.1464
271 2 5.46363 14.5431 15.9312
217 2 9.97593 9.50895 15.5685
141 3 8.52009 12.2865 10.7272
142 3 5.82571 11.7602 10.5235
143 3 6.9829 12.7694 12.801
169 2 7.41234 10.2551 12.1217
78 1 3.32544 12.69 10.3914
220 2 7.86774 9.39068 13.7337
221 2 6.10594 8.87039 12.9869
10 2 7.64941 14.6559 16.6548
239 4 4.13475 11.3056 15.0389
139 3 4.19184 10.1676 8.59408
242 1 5.65226 10.3948 16.2297
243 3 4.72805 12.4704 14.0989
127 3 4.92837 14.5037 12.4212
218 2 11.4563 9.07325 16.6444
244 3 3.06019 11.8463 16.2502
229 2 3.23744 13.7143 9.83822
252 2 5.74886 9.65345 15.3411
74 1 10.3213 9.11006 16.5639
45 4 5.71181 13.5834 13.3484
219 2 7.76665 8.05081 12.3549
273 2 1.55347 13.657 9.20639
230 2 3.58241 12.8038 11.4954
228 2 2.50571 11.8522 10.0504
160 2 6.54689 14.4655 14.5993
249 2 3.51071 10.1898 12.7196
72 1 0.896839 14.5301 9.07789
186 2 11.6367 7.73047 8.51602
248 2 4.1714 9.1725 14.2454
ITEM: TIMESTEP
300
ITEM: NUMBER OF ATOMS
274
ITEM: BOX BOUNDS xy xz yz pp pp pp
-7.3914999999999997e+00 1.6478000000000002e+01 -7.3914999999999997e+00
0.0000000000000000e+00 1.4932990000000000e+01 9.9190000000000000e-01
0.0000000000000000e+00 1.6771000000000001e+01 8.6308999999999991e-01
ITEM: ATOMS id type x y z
152 2 6.5377 2.15805 8.2322
13 4 1.18859 1.95118 5.46494
15 4 -0.350942 4.45787 1.66737
108 3 4.39284 3.71916 8.13737
17 4 -0.295551 4.2798 7.17492
18 4 -1.86744 6.81551 5.36546
27 4 3.79916 2.65616 3.66953
79 3 -0.0458153 1.4114 4.44146
30 4 6.65787 2.45071 5.30212
33 4 4.85156 4.92365 2.14509
98 3 3.71202 0.912462 8.14489
56 1 1.04516 3.23861 0.947209
58 1 1.02786 5.38612 8.01395
28 4 6.39714 2.50713 0.542991
65 1 6.37301 0.965089 6.64948
34 4 0.471707 7.13028 3.01679
163 2 4.57401 6.52416 5.70254
80 3 1.49251 0.780327 6.4203
195 2 5.40904 0.879837 7.13352
83 3 -1.34238 4.9093 0.470914
85 3 0.563635 3.24372 6.3162
86 3 -1.27841 5.46636 6.28331
96 3 2.47977 2.3107 4.52511
97 3 7.16314 1.15075 1.39202
82 3 -1.01226 3.43334 2.71873
100 3 5.17691 2.55609 4.47968
103 3 3.58017 3.99833 2.85749
200 2 2.65749 6.45289 3.70509
105 3 0.433626 5.74998 2.28511
107 3 4.11994 5.85228 1.06798
148 2 3.8713 1.43516 2.5728
208 2 3.72784 7.05068 7.53225
171 2 1.19693 2.29017 1.54463
172 2 1.94328 3.94237 0.911891
176 2 0.67097 6.41252 7.60427
177 2 2.04199 4.98163 7.56113
193 2 7.20059 0.790785 7.3788
36 4 5.96123 3.72114 7.85987
174 2 -2.48054 6.93586 1.59707
198 2 1.5316 7.15677 5.1368
267 2 3.92046 1.3715 13.4964
14 4 1.43817 2.37653 10.9284
19 4 0.882882 5.10955 12.8179
20 4 -0.529604 7.26951 10.7457
29 4 3.70444 2.2337 8.98546
31 4 4.75476 2.99758 15.5036
32 4 5.90448 2.45833 11.5085
35 4 4.49003 7.46183 16.5508
37 4 5.45204 4.94395 13.1133
38 4 1.94098 7.07283 14.9484
183 2 -1.38799 5.76553 9.19408
61 1 -1.93129 6.54092 9.82585
66 1 4.35642 1.35928 14.5773
16 4 -0.760191 6.94979 16.2352
264 2 -1.51997 5.34634 12.9928
87 3 1.39831 3.67109 11.8934
88 3 0.454631 6.28108 11.7061
99 3 2.20347 2.64942 9.5878
101 3 6.08457 2.86086 16.4496
102 3 4.71041 1.9215 10.5005
178 2 1.01621 5.30034 9.20862
110 3 5.12157 3.97702 14.3293
111 3 5.75774 3.98326 11.6926
112 3 1.59186 5.744 14.1128
113 3 3.03534 6.84967 16.0733
124 3 7.31656 1.84421 11.2856
144 2 2.33269 1.14647 11.695
182 2 -0.672645 4.72672 14.6313
149 2 3.49887 3.7067 16.4686
150 2 5.54141 1.66435 13.0047
153 2 4.10568 5.91306 12.7671
196 2 3.51551 1.07579 15.3686
60 1 -0.845979 4.62827 13.5121
261 3 -2.07423 6.53621 15.2221
170 2 1.5993 3.96282 16.6497
197 2 5.31262 0.789812 14.8009
81 3 -0.0563629 1.93458 10.6738
184 2 -2.58803 7.38587 9.2598
84 3 -1.02616 3.57514 8.4316
21 4 -2.47613 9.47258 7.01776
23 4 -3.59002 11.8079 5.42985
121 3 2.42721 10.3708 6.2887
39 4 -0.871247 12.1122 3.82447
199 2 2.41358 8.37329 3.93838
238 4 0.922174 11.2915 0.509288
41 4 -1.41122 12.1102 8.20929
89 3 -2.10664 8.13487 6.23865
91 3 -3.49906 10.3425 6.14414
92 3 -3.98663 12.9317 6.42356
11 4 -4.86125 13.905 7.32445
115 3 -0.401365 13.5952 3.40506
116 3 -2.2755 12.0374 4.60615
117 3 1.00041 12.7383 1.1481
118 3 -1.20747 10.6024 7.78417
120 3 0.222576 11.6027 4.8328
173 2 -1.66373 8.27446 0.585151
146 2 -4.85037 11.6901 4.30581
151 2 0.42282 8.39995 1.78261
155 2 -0.942859 11.1053 2.38919
156 2 -1.50635 13.0955 6.83338
70 1 3.75042 7.88167 6.78307
106 3 -0.784641 7.33079 3.98813
207 2 3.13982 7.58763 5.83041
268 2 1.03706 10.0653 1.90631
240 1 -0.488581 9.88286 0.921923
269 2 -1.37146 9.76328 1.60047
194 2 -0.950479 14.3201 5.64737
246 2 -0.373378 8.9605 0.217471
57 1 -2.45539 7.4051 0.596496
206 2 1.6046 8.03967 8.31403
40 4 3.10166 9.57027 7.46372
42 4 2.03146 11.4026 5.06213
175 2 -3.43874 7.76858 0.222291
67 1 2.01017 7.32909 4.1272
262 2 3.27129 8.29409 0.16396
24 4 -1.38482 10.0448 12.2652
25 4 -3.39035 11.8844 10.5704
247 2 2.11015 9.76144 14.2086
63 1 -1.1482 10.1158 14.1359
64 1 -3.99551 13.5312 11.3716
69 1 1.65118 9.0563 8.75718
241 1 3.19846 10.032 13.8065
93 3 -0.960868 8.72842 11.5172
273 2 1.11699 13.6437 9.83477
95 3 -2.45346 11.0216 11.6356
119 3 -2.42892 12.4062 9.31207
147 2 0.0223291 10.9029 12.7881
62 1 -3.69574 8.92555 8.39546
192 2 -3.51449 14.5161 10.9767
249 2 3.22739 10.4697 12.8199
188 2 -0.962711 11.1564 14.5397
189 2 -0.416987 9.29985 14.5855
190 2 -2.35292 9.77495 14.2624
191 2 -5.14068 13.4673 11.2722
94 3 -4.77334 11.1529 9.9252
187 2 -3.45519 9.17047 9.51687
154 2 2.5609 8.11871 13.7725
266 2 -3.66079 13.3168 12.421
145 2 0.351051 7.67513 9.29114
72 1 0.66024 14.4702 9.23229
157 2 0.136953 12.6235 8.69291
245 2 0.105833 11.9485 16.5445
244 3 2.96109 11.6656 16.1233