ITEM: TIMESTEP
0
ITEM: NUMBER OF ATOMS
274
ITEM: BOX BOUNDS xy xz yz pp pp pp
-7.3914999999999997e+00 1.6310290000000002e+01 -7.3914999999999997e+00
0.0000000000000000e+00 1.5100700000000000e+01 8.2418999999999998e-01
0.0000000000000000e+00 1.6771000000000001e+01 1.0307999999999999e+00
ITEM: ATOMS id type x y z
58 1 1.72151 5.37881 8.12375
13 4 1.23295 1.85747 5.72135
15 4 -0.432922 3.98266 1.91553
200 2 2.51541 6.67371 3.14124
17 4 0.29934 4.49169 7.32891
18 4 -1.46643 6.72764 5.60536
27 4 3.73031 2.31665 3.73724
28 4 5.8664 2.36205 0.232016
30 4 6.40411 2.41051 5.47126
33 4 4.41902 4.60999 1.92071
34 4 0.248546 7.02927 2.77594
56 1 0.570306 2.84362 0.784288
106 3 -0.741695 7.25494 3.96875
36 4 5.8068 4.2765 7.76318
65 1 6.34061 0.639858 6.32595
177 2 2.70972 4.92 7.7068
193 2 6.14502 0.807467 7.45031
80 3 1.46272 0.613008 6.72143
82 3 -1.18665 3.08108 3.01298
83 3 -1.40418 4.67349 0.839292
85 3 1.03667 3.29578 6.58787
86 3 -0.526736 5.62954 6.41759
96 3 2.42282 1.94105 4.64345
97 3 6.53092 1.12358 1.0294
176 2 1.5995 6.4731 7.79873
100 3 4.98178 2.46812 4.79801
103 3 3.42632 3.55249 2.77901
104 3 5.66036 3.68789 1.14901
105 3 0.479034 5.478 2.4512
107 3 3.70271 5.4882 0.904481
148 2 4.07025 1.06628 2.69581
172 2 1.63602 3.35741 1.09947
171 2 0.485845 1.75313 1.05155
108 3 4.44801 3.67627 8.35028
79 3 -0.292395 1.4329 4.98214
61 1 -1.31776 6.59026 9.73492
14 4 1.57538 2.46856 11.1837
19 4 0.363348 4.45824 13.3528
20 4 -0.776746 7.05546 11.4813
29 4 3.80228 2.52216 9.30788
31 4 4.15626 3.0543 15.226
32 4 6.09523 2.68105 11.3458
196 2 4.19245 1.4405 13.3091
37 4 5.26481 5.15138 12.9071
38 4 1.54216 6.88354 14.8704
184 2 -0.888524 7.26389 8.96442
178 2 1.53441 5.19919 9.25017
66 1 3.79817 1.40259 14.3857
81 3 0.22373 2.10406 10.5138
170 2 1.04191 4.12325 16.5182
87 3 1.2067 3.2908 12.5497
88 3 -0.370263 5.72936 12.3433
99 3 2.52926 3.35297 10.2151
101 3 5.21526 2.77719 16.2762
102 3 4.85378 2.01414 10.6216
197 2 2.66568 1.46637 14.4338
110 3 4.61804 4.19085 14.1264
84 3 -0.760643 3.84108 8.74154
112 3 1.38798 5.16329 14.448
113 3 2.74461 7.20179 15.798
114 3 0.151993 7.37104 15.4279
144 2 2.45065 1.02646 11.5795
145 2 0.447063 7.40464 10.2641
149 2 2.72562 3.46587 16.1124
150 2 6.33877 1.78569 12.6518
153 2 3.96824 5.97141 12.2387
16 4 -1.02546 6.85955 16.4796
183 2 -1.17722 5.48665 9.39243
111 3 5.96688 4.21215 11.7465
35 4 4.11629 7.53939 16.5946
154 2 1.81697 7.66704 13.4353
98 3 3.21975 1.2121 8.60661
185 2 -2.50856 6.77914 9.98536
201 2 4.8373 6.37316 8.48456
21 4 -2.83263 9.49389 7.0226
23 4 -3.66929 12.1193 5.62136
117 3 0.67663 13.0942 0.681485
39 4 -0.949369 12.2336 4.03523
41 4 -1.16508 11.6801 8.34409
118 3 -1.76019 10.3494 7.81558
57 1 -2.23633 7.45475 0.751202
89 3 -2.13005 8.06739 6.29971
91 3 -3.73859 10.6129 5.88726
92 3 -3.87218 13.1542 6.8468
11 4 -4.96079 14.0136 7.80861
115 3 -0.857346 13.3797 2.93169
116 3 -2.33906 12.4011 4.86419
198 2 1.94268 7.4781 4.78528
174 2 -2.0608 7.30883 1.85965
120 3 0.360125 12.0537 4.86765
70 1 3.59915 8.53369 6.35819
146 2 -4.87884 12.4151 4.53962
151 2 -0.407505 7.79993 1.39018
155 2 -1.07627 10.8434 3.248
156 2 -1.26718 12.9338 7.15717
173 2 -1.77688 8.35415 0.231881
207 2 2.95435 8.34351 5.39226
175 2 -3.41368 7.35673 0.510415
240 1 0.984412 10.1823 0.667503
268 2 1.40297 10.5275 1.82341
262 2 3.23214 8.00743 0.6418
199 2 1.92296 8.53797 3.05988
67 1 1.88881 7.47841 3.62082
205 2 0.653861 9.76283 8.09327
208 2 3.28855 7.76573 7.21017
121 3 2.40891 11.0952 6.34007
195 2 -2.04185 14.392 5.85894
26 4 0.0302197 14.1512 1.82967
194 2 -0.159331 14.1978 5.8453
269 2 -0.106857 9.85717 0.688698
246 2 1.6792 9.42267 0.190466
222 2 3.46878 8.40325 2.5066
24 4 -2.31736 9.45978 12.913
25 4 -3.20702 11.7528 10.6426
93 3 -1.56007 8.21932 12.209
63 1 -2.6768 9.72922 14.834
64 1 -3.79192 13.4429 11.4108
69 1 1.5963 9.92704 8.74371
90 3 -5.92872 13.1728 8.86886
267 2 -3.2719 14.6365 15.0705
94 3 -4.5349 11.1904 9.84699
95 3 -2.87672 10.71 11.7729
119 3 -1.80566 12.0874 9.74891
147 2 -1.00227 9.97264 13.9868
204 2 1.86911 8.94881 9.20855
157 2 0.513276 11.5248 8.44571
206 2 1.45778 10.663 9.60897
188 2 -2.21945 9.44207 15.8938
187 2 -3.61609 9.13822 9.22027
190 2 -3.20345 10.6824 14.8495
191 2 -3.35104 13.2486 12.4781
192 2 -4.92343 13.4015 11.3824
245 2 1.27955 11.9501 15.669
266 2 -3.35705 14.4694 11.0276
228 2 2.10857 11.8534 9.89777
238 4 2.27544 12.9158 16.7533
1 4 13.9081 1.76096 3.96554
179 2 12.8899 4.71586 5.46557
3 1 12.2249 2.18337 4.85883
72 1 8.90399 1.64395 8.00818
5 3 13.3923 0.602582 2.95964
6 2 12.2253 0.440213 0.481797
7 2 11.4841 1.2066 5.01967
8 2 11.9042 2.97563 4.01845
9 2 12.5654 2.68763 5.82374
213 2 7.87262 1.32934 7.39073
203 2 5.40459 5.95199 6.52767
43 4 8.88805 2.234 3.41232
47 4 8.32395 4.91134 2.29113
48 4 5.75082 7.03051 3.9869
273 2 9.80111 0.924023 7.86023
122 3 8.86838 0.88661 2.58694
123 3 7.6595 2.21796 4.41949
128 3 9.0668 3.5833 2.58065
235 2 11.0381 3.46228 0.358935
130 3 8.46373 5.70883 0.996146
158 2 10.3266 2.11578 4.17307
161 2 8.60977 5.95536 3.58363
162 2 6.66356 4.76343 2.7179
159 2 9.20616 2.8335 7.81376
166 2 7.64491 6.22053 7.27808
59 1 12.4317 5.786 5.23675
263 2 11.6391 6.08918 5.90532
256 2 12.7226 0.879162 6.25004
129 3 5.44345 5.68039 3.17571
131 3 6.98932 7.04639 4.84626
50 4 7.84824 7.35012 6.01559
180 2 12.3298 6.0135 4.13264
165 2 9.47225 7.07058 5.59633
109 3 6.7152 3.52376 6.69348
152 2 6.35077 7.33532 7.77717
10 2 14.4987 0.596619 0.033836
68 1 5.77393 6.26518 7.8903
44 4 8.76427 1.98762 9.85677
264 2 13.6727 3.51382 13.4446
46 4 11.7583 2.15932 11.3965
49 4 9.36058 7.51263 16.1202
51 4 6.45949 7.5342 14.515
127 3 12.1077 0.896836 12.3525
181 2 14.635 2.36034 14.6601
73 1 11.2259 3.78383 12.461
237 2 10.104 4.7123 16.6412
125 3 13.0092 2.54705 10.4796
126 3 10.2358 2.05179 10.6019
232 1 11.1513 4.53702 16.2604
132 3 6.21897 6.21928 13.4723
133 3 7.89521 7.46898 15.3552
134 3 5.1856 7.9403 15.5229
259 2 7.11963 3.86212 14.6075
12 4 14.4179 2.45025 9.52284
202 2 6.90484 5.15988 8.89956
214 2 12.0229 4.42626 11.934
215 2 11.401 3.43586 13.5103
216 2 10.1784 4.16937 12.3114
182 2 14.1905 4.20056 15.0913
231 4 11.8163 5.77054 15.0215
160 2 14.5826 1.87067 13.0477
233 3 10.4762 6.80087 15.1565
234 2 12.0826 5.29642 13.319
124 3 7.42222 2.53083 10.4625
236 2 11.2378 3.58527 15.5874
254 3 14.0802 1.36274 8.40383
260 2 8.70954 3.3067 15.4376
257 1 7.77756 3.95252 15.5165
60 1 14.4685 3.42942 14.2729
261 3 13.1441 6.30173 15.6525
258 2 8.02469 5.03698 15.7481
226 2 8.28243 11.0775 5.11943
52 4 3.9834 11.0151 2.62455
53 4 7.55335 10.3081 7.23385
271 2 7.32092 12.7668 0.605691
2 4 5.621 13.6381 1.84013
71 1 2.79913 13.706 5.07322
4 1 6.54478 13.7075 0.195039
76 1 4.29394 9.05774 1.96409
77 1 7.80856 11.6841 5.90869
255 2 7.2492 13.3106 6.85303
135 3 4.8546 12.3368 2.21664
136 3 2.73632 11.3371 3.55205
137 3 7.80297 8.81903 6.6097
42 4 1.96971 11.9443 5.02202
227 2 8.40291 12.5931 6.15609
164 2 5.87735 8.4424 2.91032
168 2 5.90274 10.3844 7.77205
139 3 4.30833 10.6786 8.20839
186 2 11.1925 7.85185 7.92247
250 2 5.07769 9.59744 0.167534
209 2 4.68646 8.68175 6.19979
210 2 2.87407 13.87 3.94739
211 2 3.75978 13.5736 5.59098
217 2 9.09121 8.3636 0.58681
253 4 6.07761 14.2659 7.61216
167 2 3.40137 10.2061 1.01032
223 2 5.26875 9.92618 3.30647
224 2 4.99603 8.44009 1.34309
225 2 6.63487 11.8044 5.76522
62 1 11.2869 8.93533 8.24837
265 2 10.2889 9.59252 8.17757
140 3 5.00598 13.4484 8.35861
163 2 4.35347 7.34141 4.93515
212 2 1.98961 14.246 5.6648
138 3 8.62492 10.7044 8.31482
40 4 3.08868 10.0673 7.45846
22 4 9.43098 11.6436 9.47186
54 4 4.77159 12.196 9.39231
55 4 7.11798 12.0891 11.444
75 1 6.56122 9.10619 13.4113
218 2 9.09411 9.88003 15.6958
272 2 1.36392 14.3721 9.41708
189 2 11.9193 8.62974 14.3319
141 3 8.62711 11.7115 10.8352
142 3 5.93407 11.8122 10.4398
143 3 6.98091 13.5546 11.9883
169 2 6.88024 10.9209 12.6688
274 2 10.9993 9.48729 15.7049
270 2 6.84317 14.3792 16.0324
221 2 5.59799 10.003 13.5885
230 2 3.36159 12.2228 11.2978
239 4 5.12938 12.4514 15.1281
241 1 4.18641 11.391 13.8879
242 1 6.27789 11.1735 15.8534
243 3 6.07054 13.9837 14.3964
244 3 3.78853 12.9543 16.2545
248 2 4.55632 11.4478 12.8315
247 2 4.0226 10.2902 14.218
229 2 2.90208 13.5335 10.0409
252 2 6.51055 10.4197 14.9761
45 4 6.17746 14.5285 12.9356
220 2 7.57153 9.5186 13.5622
219 2 6.38088 8.63672 12.3678
78 1 3.09155 12.4496 10.2107
249 2 3.16091 12.0145 14.0539
74 1 9.89422 9.3023 16.1948
251 2 7.12549 11.9191 16.0757
ITEM: TIMESTEP
100
ITEM: NUMBER OF ATOMS
274
ITEM: BOX BOUNDS xy xz yz pp pp pp
-7.3914999999999997e+00 1.6310290000000002e+01 -7.3914999999999997e+00
0.0000000000000000e+00 1.5100700000000000e+01 8.2418999999999998e-01
0.0000000000000000e+00 1.6771000000000001e+01 1.0307999999999999e+00
ITEM: ATOMS id type x y z
58 1 1.60127 5.55077 8.0877
13 4 1.06922 1.81025 5.59177
15 4 -0.383706 3.98437 1.78338
200 2 2.50166 6.93256 2.99353
17 4 0.2679 4.53965 7.26826
18 4 -1.59972 6.74862 5.48681
27 4 3.67256 2.36257 3.68255
28 4 5.69358 2.21457 0.251986
30 4 6.42103 2.27035 5.37584
33 4 4.31362 4.56878 1.8714
34 4 0.0657201 6.91778 2.75515
56 1 0.822769 2.77836 0.862292
106 3 -0.994982 7.08545 3.89904
36 4 5.57057 4.30488 7.57665
65 1 6.40747 0.703248 6.51064
177 2 2.59455 5.18529 7.66879
193 2 6.55124 1.06282 7.57281
80 3 1.30005 0.532616 6.632
82 3 -1.11526 3.12473 2.91768
83 3 -1.39045 4.58898 0.660768
85 3 0.870695 3.28665 6.51659
86 3 -0.644697 5.62724 6.43437
96 3 2.36099 1.99673 4.60859
97 3 6.72276 1.22375 1.0673
176 2 1.35562 6.6475 7.89465
100 3 5.08073 2.34815 4.46825
103 3 3.36796 3.80918 2.99402
104 3 5.33066 3.47343 1.13447
105 3 0.496661 5.39724 2.41451
107 3 3.5932 5.4405 0.761439
148 2 3.76089 1.16302 2.55259
172 2 1.76055 3.48113 0.83435
171 2 1.05143 1.82322 1.40043
203 2 4.46702 5.63558 6.54477
79 3 -0.294291 1.624 4.89286
26 4 7.69643 0.124123 1.75654
208 2 3.43197 7.42027 6.97495
61 1 -1.36976 6.64061 9.91462
14 4 1.50814 2.32354 11.1917
19 4 0.396941 4.396 13.3589
20 4 -0.843946 6.88356 11.7354
29 4 3.7817 2.40666 9.40164
31 4 3.98324 3.12418 15.0872
32 4 6.08938 2.73219 11.3612
196 2 3.55804 1.49435 13.1708
37 4 5.15709 5.16897 13.0251
38 4 1.54187 6.89304 14.8116
184 2 -0.89496 7.44596 9.22961
178 2 1.48401 5.27105 9.19013
66 1 3.45799 1.54202 14.2505
81 3 0.277828 1.87175 10.3422
170 2 1.0892 3.65185 16.6406
87 3 1.123 3.17901 12.5888
88 3 -0.405168 5.45682 12.4715
99 3 2.49668 3.21359 10.2248
101 3 5.1671 2.63189 16.3099
102 3 4.82787 1.93059 10.7702
197 2 2.27493 1.6509 14.5966
110 3 4.64528 4.0771 14.0634
84 3 -0.670464 3.94431 8.78354
112 3 1.34303 5.28512 14.4544
113 3 2.81061 7.22346 15.6387
114 3 0.181639 7.49656 15.5142
144 2 2.2541 0.883792 11.5777
145 2 0.306291 7.39043 10.5657
149 2 2.67182 3.95838 15.938
150 2 6.3367 1.90586 12.8215
153 2 3.86432 5.90514 12.3885
16 4 -1.0431 6.89385 16.4395
183 2 -1.19028 5.58411 9.55521
111 3 5.79294 4.30644 11.8014
35 4 4.12372 7.60552 16.5408
154 2 1.68108 7.7856 13.378
98 3 3.2751 1.19264 8.45096
185 2 -2.55569 6.81261 10.2268
201 2 4.62866 6.4273 8.60658
259 2 7.22627 3.15561 14.6326
108 3 4.54399 3.40265 8.44286
21 4 -2.82956 9.56613 6.96932
23 4 -3.53903 12.1237 5.66091
269 2 -0.406744 10.2408 0.592119
39 4 -0.83277 12.2112 4.06458
194 2 -0.151915 14.1181 6.05901
118 3 -1.66611 10.38 7.7801
57 1 -2.46724 7.44263 0.716695
89 3 -1.93279 8.11512 6.26967
91 3 -3.7516 10.516 5.91327
92 3 -3.91112 13.0349 6.9289
11 4 -4.99696 14.0663 7.72658
115 3 -0.549073 13.2783 2.90655
116 3 -2.17484 12.4595 4.94945
198 2 1.79296 7.75943 4.64001
174 2 -2.36782 7.38681 1.8728
120 3 0.436461 12.1642 4.97978
70 1 3.55303 8.37424 6.37224
146 2 -4.70307 12.4037 4.47475
151 2 -0.556912 7.69241 1.32351
155 2 -0.991759 10.7741 3.31272
156 2 -1.29307 12.9836 7.36767
173 2 -1.97818 8.37914 0.316916
207 2 2.92652 8.37731 5.38322
175 2 -3.59601 7.30391 0.431613
240 1 0.694308 10.2933 0.752724
268 2 0.993661 10.6297 1.86819
262 2 3.12782 8.01176 0.702606
199 2 1.60092 8.71179 3.00281
67 1 1.6982 7.655 3.4693
205 2 0.675261 10.0079 7.9527
246 2 1.25434 9.38124 0.393056
222 2 3.38789 8.40949 2.54696
195 2 -2.03264 14.3847 6.2588
24 4 -2.28297 9.4913 12.962
25 4 -3.30528 11.7204 10.6899
93 3 -1.51908 8.20894 12.3737
63 1 -2.75172 9.85177 14.7678
64 1 -3.98562 13.3297 11.5728
69 1 1.63831 9.94964 8.59362
90 3 -5.80917 13.2691 8.85299
267 2 -3.31408 14.7698 14.6807
94 3 -4.43461 11.1503 9.7795
95 3 -2.91402 10.7007 11.7528
119 3 -1.79468 12.1392 9.81352
147 2 -1.08004 10.2702 13.9567
204 2 1.78754 8.89833 8.95478
157 2 0.576328 11.6844 8.53904
206 2 1.73955 10.7577 9.43914
188 2 -2.27225 9.30937 15.7641
187 2 -3.50718 8.87529 9.25018
190 2 -3.2499 10.8522 14.9202
191 2 -3.72498 13.0903 12.6512
192 2 -5.06948 13.1971 11.3907
245 2 1.12149 12.1923 15.7997
266 2 -3.50393 14.2667 11.1552
41 4 -1.14094 11.6709 8.45041
1 4 14.04 1.76239 3.84267
179 2 12.3806 4.98596 5.72771
3 1 12.3379 2.0735 4.9225
72 1 9.06118 1.82122 7.98706
5 3 13.7662 0.4034 3.04999
6 2 12.2555 0.543059 0.755578
7 2 11.5369 1.1755 5.03501
8 2 12.0884 2.90358 4.13169
9 2 12.6242 2.52405 5.89809
213 2 8.08273 1.35272 7.34453
212 2 9.49174 0.394609 5.5005
43 4 9.00077 2.35427 3.46207
47 4 8.37868 5.12387 2.55962
48 4 5.78742 7.10245 3.92863
273 2 10.0407 1.27165 7.69347
122 3 8.893 1.04853 2.53444
123 3 7.82154 2.29644 4.64261
128 3 9.04201 3.74918 2.72058
235 2 11.1202 3.31515 0.337313
130 3 8.35066 5.74464 1.09508
158 2 10.4933 2.30719 4.2336
161 2 8.97733 6.28494 3.70326
162 2 6.70798 5.00323 2.99298
159 2 9.18751 3.06349 7.92859
166 2 7.32214 6.32747 7.49031
59 1 12.2165 5.9252 5.10908
263 2 11.4842 6.71693 5.56232
256 2 12.9621 0.689606 6.18663
129 3 5.32739 5.81638 3.04684
131 3 6.99246 7.01842 4.86181
50 4 7.74732 7.3348 6.17887
180 2 12.1255 5.83384 4.00308
165 2 9.35572 6.7917 6.0809
109 3 6.55992 3.63127 6.58607
152 2 5.74299 7.33848 7.53045
68 1 5.38833 6.26289 7.77617
44 4 8.79412 1.89807 9.82619
264 2 13.7353 3.17837 13.7403
46 4 11.772 2.21162 11.3166
49 4 9.25943 7.53278 16.1401
51 4 6.46584 7.573 14.5556
127 3 12.1623 0.89744 12.3648
181 2 15.0897 2.58876 14.9458
73 1 11.6625 3.75739 12.4106
237 2 10.0802 4.53877 16.5968
125 3 13.0686 2.70623 10.3567
126 3 10.2728 2.09592 10.5376
232 1 11.1756 4.35324 16.268
132 3 6.05771 6.26852 13.6651
133 3 7.85942 7.55627 15.343
134 3 5.30824 7.88409 15.5968
258 2 7.22827 4.86863 15.3412
12 4 14.5014 2.50383 9.48275
202 2 6.50683 5.35738 8.80602
214 2 12.5927 4.32751 11.9679
215 2 11.8352 3.42261 13.5226
216 2 10.5992 4.20112 12.1402
182 2 14.3327 4.30847 15.2594
231 4 11.7316 5.80345 15.2033
160 2 14.5452 1.8209 13.3299
233 3 10.4227 6.8861 15.2129
234 2 12.1563 5.26141 13.616
124 3 7.3629 2.485 10.4484
236 2 11.2812 3.48416 15.5605
254 3 14.1051 1.35253 8.43656
260 2 8.66096 3.69706 15.6951
257 1 7.53489 3.79538 15.4906
60 1 14.6119 3.46019 14.4492
261 3 13.0675 6.30304 15.8139
10 2 15.0618 1.96216 16.7663
226 2 8.16762 11.0162 4.97976
52 4 3.96542 10.9807 2.53033
53 4 7.64048 10.3423 7.21795
271 2 7.56271 13.1292 0.718741
2 4 5.82301 13.6121 1.90246
71 1 2.91047 13.6781 5.37888
4 1 6.47473 13.9432 0.126935
76 1 4.25727 9.01777 1.99896
77 1 7.84947 11.6951 5.86078
255 2 7.50998 13.14 7.19971
135 3 4.97999 12.2228 2.15555
136 3 2.75862 11.2861 3.54829
137 3 7.72308 8.85926 6.66092
42 4 2.11491 11.987 4.96117
227 2 8.5592 12.5356 6.10983
164 2 5.88914 8.3817 2.83574
168 2 5.9865 10.3989 7.80754
139 3 4.48648 10.4993 8.24808
186 2 11.4806 7.66855 7.83243
250 2 5.12725 9.76649 0.274006
209 2 4.69309 8.62592 6.23191
210 2 3.56212 13.7927 4.4426
211 2 3.49063 13.3984 6.35746
217 2 9.2748 8.36539 0.570276
253 4 6.28139 14.1729 7.64645
167 2 3.41287 10.0682 0.935075
223 2 4.95118 9.79502 3.51359
224 2 5.00307 8.38405 1.38169
225 2 6.70359 11.9681 5.90519
62 1 11.4699 8.75814 8.24715
265 2 10.3573 9.19574 8.31522
140 3 5.09329 13.3144 8.28485
163 2 4.41657 7.79751 4.70706
117 3 0.977823 13.2433 0.719478
138 3 8.59911 10.825 8.31814
40 4 3.18966 9.99686 7.38784
121 3 2.70453 11.0753 6.23143
238 4 1.51875 11.8754 0.0515291
22 4 9.37007 11.7408 9.3838
54 4 4.80028 12.1159 9.32098
55 4 7.02757 12.1597 11.3895
75 1 6.60175 9.23744 13.4409
218 2 8.97797 9.85283 15.8463
251 2 7.2443 11.7974 15.9137
189 2 11.7404 8.78215 14.2426
141 3 8.52973 11.7638 10.7521
142 3 5.91719 11.8759 10.3791
143 3 7.0663 13.5895 12.0625
169 2 6.83139 10.9804 12.6702
274 2 10.9291 9.5898 15.6094
270 2 6.79497 14.602 15.9174
221 2 5.63637 10.0014 13.6224
230 2 3.63891 12.9445 11.3316
239 4 5.07335 12.4543 15.1806
241 1 4.1919 11.3983 13.827
242 1 6.28105 11.2278 15.9476
243 3 6.04758 13.8673 14.4255
244 3 3.78743 12.7062 16.2176
248 2 4.86152 11.406 12.9137
247 2 3.96496 10.3749 14.2111
229 2 2.94729 13.4531 9.78741
252 2 6.42365 10.3723 15.1768
45 4 6.18022 14.5123 13.0003
220 2 7.59 9.56056 13.6765
219 2 6.53724 8.59975 12.4509
78 1 3.23076 12.5156 10.3533
249 2 3.28992 12.0163 13.6443
74 1 9.92383 9.31381 16.2033
272 2 0.897531 14.4525 9.11127
228 2 2.44239 11.7492 10.4226
ITEM: TIMESTEP
200
ITEM: NUMBER OF ATOMS
274
ITEM: BOX BOUNDS xy xz yz pp pp pp
-7.3914999999999997e+00 1.6310290000000002e+01 -7.3914999999999997e+00
0.0000000000000000e+00 1.5100700000000000e+01 8.2418999999999998e-01
0.0000000000000000e+00 1.6771000000000001e+01 1.0307999999999999e+00
ITEM: ATOMS id type x y z
58 1 1.58852 5.72083 7.81266
13 4 1.17009 1.92557 5.63549
15 4 -0.419054 4.01108 1.7681
200 2 2.55768 6.95317 3.02588
17 4 0.238313 4.55759 7.27138
18 4 -1.8024 6.70561 5.43085
27 4 3.62594 2.37829 3.6869
28 4 5.68027 2.16915 0.323137
30 4 6.41138 2.34153 5.3375
33 4 4.2993 4.6163 1.94588
34 4 0.0998727 6.79135 2.84834
56 1 1.00858 2.87472 0.988562
106 3 -0.872375 6.77856 4.0807
36 4 5.32163 4.31881 7.52581
65 1 6.34861 0.805864 6.53733
177 2 2.56395 5.18136 7.56782
193 2 6.37886 1.13152 7.59626
80 3 1.54509 0.613496 6.52416
82 3 -1.21845 2.99591 2.74869
83 3 -1.31724 4.65674 0.606838
85 3 0.945116 3.38363 6.53364
86 3 -0.818603 5.59604 6.51062
96 3 2.31987 2.02298 4.63206
97 3 6.60984 1.12678 1.07826
176 2 1.44014 6.62708 7.11294
100 3 5.05714 2.29921 4.41659
103 3 3.38962 3.80711 3.04477
104 3 5.35851 3.49906 1.22667
105 3 0.423652 5.32192 2.36207
107 3 3.50408 5.40705 0.864184
148 2 3.61561 1.26291 2.43757
172 2 1.88937 3.62155 0.960139
171 2 1.26519 1.94411 1.58457
203 2 4.18295 5.71752 6.751
79 3 -0.200196 1.69888 4.90746
174 2 -2.47211 7.0549 1.96579
208 2 3.04108 7.41123 7.10832
109 3 6.17485 3.59656 6.29279
195 2 5.23395 0.546383 6.17896
170 2 0.489922 2.63971 0.0377118
61 1 -1.49603 6.39601 10.0212
14 4 1.43206 2.27796 11.2372
19 4 0.414654 4.43033 13.5145
20 4 -0.99657 6.77131 11.7819
29 4 3.75602 2.31246 9.46412
31 4 3.95986 3.08916 15.1443
32 4 6.14081 2.70934 11.387
196 2 3.38314 2.00623 13.0224
37 4 5.12671 5.00904 12.8429
38 4 1.50691 6.88912 14.8715
184 2 -1.26123 7.38074 9.50843
178 2 1.46638 5.93872 8.90521
66 1 3.17186 1.7457 14.1027
81 3 0.0434213 2.09789 10.5623
259 2 6.85016 3.52548 14.7589
87 3 1.14666 3.24596 12.6258
88 3 -0.476818 5.44682 12.6346
99 3 2.51104 3.02066 10.2807
101 3 4.91889 2.46523 16.262
102 3 4.94147 1.81507 10.7848
197 2 2.07649 1.88781 14.4158
110 3 4.64774 4.02106 13.972
84 3 -0.692403 3.81852 8.72964
112 3 1.45546 5.31787 14.4277
113 3 2.68924 7.24608 15.8129
114 3 0.0439464 7.35396 15.4991
144 2 2.13935 0.734766 11.7557
145 2 0.142593 7.31605 10.5856
149 2 2.83008 4.10553 16.0456
150 2 6.42566 2.02938 13.0156
153 2 3.76478 5.74937 12.3146
16 4 -1.10089 6.86332 16.4716
183 2 -1.18333 5.37046 9.46687
111 3 5.83599 4.25305 11.5469
35 4 3.9506 7.6031 16.6259
154 2 1.80763 7.81104 13.4445
98 3 3.32014 1.11575 8.54569
108 3 4.58059 3.34632 8.44072
201 2 4.53048 6.27989 8.93002
21 4 -2.57315 9.50674 7.0368
23 4 -3.46855 12.1473 5.48255
269 2 -0.454253 10.7061 1.14172
39 4 -0.648772 12.3481 4.10007
194 2 -0.188595 14.1952 6.32027
118 3 -1.57125 10.4516 7.92345
57 1 -2.52378 7.32031 0.871486
89 3 -2.14858 8.21271 6.18254
91 3 -3.48355 10.67 6.03808
92 3 -3.80429 13.0881 6.74581
11 4 -4.83578 14.0241 7.59049
115 3 -0.348728 13.4072 3.02833
116 3 -2.08106 12.4447 4.78463
198 2 1.73107 7.93804 4.4987
62 1 -3.85209 8.7291 8.24904
120 3 0.552379 12.3944 5.16078
70 1 3.39504 8.22674 6.41313
146 2 -4.72836 12.34 4.35444
151 2 -0.689929 7.62234 1.50644
155 2 -0.561517 10.8141 3.32372
156 2 -0.969161 13.0513 7.36066
173 2 -2.08386 8.32533 0.585811
207 2 2.88979 8.21551 5.38575
175 2 -3.61858 7.22136 0.447422
240 1 0.582971 10.3995 0.752424
268 2 1.40799 10.285 1.6772
262 2 2.9131 7.97269 0.810458
199 2 1.52896 8.61671 2.5844
67 1 1.69537 7.70707 3.38513
205 2 0.697038 9.98576 8.00472
246 2 0.541592 9.45899 0.113031
222 2 3.2742 8.56909 2.47543
24 4 -2.2966 9.47954 13.0379
25 4 -3.23149 11.7862 10.7321
93 3 -1.63642 8.13097 12.4697
63 1 -2.79943 9.70447 14.8704
64 1 -3.90558 13.3898 11.5047
69 1 1.67533 9.93894 8.54814
90 3 -5.81959 13.2758 8.62027
267 2 -3.84571 14.8436 14.5775
94 3 -4.53542 11.2333 9.80027
95 3 -2.71258 10.5573 11.9899
119 3 -1.97172 12.2595 9.81365
147 2 -1.10624 10.1943 14.207
204 2 1.91659 8.81842 8.84296
157 2 0.479981 11.5332 8.86347
206 2 1.81165 10.5753 9.45748
188 2 -2.5317 9.2262 15.8134
187 2 -3.55064 8.97555 9.28635
190 2 -3.0766 10.7997 15.061
191 2 -3.79936 13.0473 12.6256
192 2 -4.95848 13.3497 11.1316
245 2 0.86177 12.537 16.0065
266 2 -3.36691 14.3768 11.2586
41 4 -1.13693 11.8036 8.55368
1 4 14.1545 1.77858 3.79502
179 2 12.0032 5.14962 6.01217
3 1 12.4926 2.1091 4.86122
72 1 8.95854 2.1272 8.00597
5 3 13.826 0.385601 2.88725
6 2 12.0926 0.39366 0.728543
7 2 11.7471 1.14073 4.96065
8 2 12.1396 3.00022 4.27048
9 2 13.096 2.42474 5.81685
213 2 7.95549 1.61732 7.40404
212 2 9.79564 0.402903 5.15976
43 4 9.1399 2.42976 3.488
47 4 8.34364 5.14648 2.45525
48 4 5.66951 7.15679 3.89526
273 2 9.90758 1.74445 7.55099
122 3 8.97175 1.1672 2.52323
123 3 7.86187 2.30259 4.66408
128 3 9.10343 3.80937 2.76287
237 2 9.95038 3.427 0.293503
130 3 8.45235 5.92812 1.08899
158 2 10.6539 2.08942 4.1603
161 2 8.63535 6.32164 3.65551
162 2 6.6737 5.02746 2.77845
159 2 8.87804 3.40733 8.07208
166 2 7.01717 6.51388 7.28784
59 1 12.003 5.89539 5.15406
263 2 11.3367 6.78333 5.32499
256 2 13.0602 0.545419 5.94958
129 3 5.22582 5.82535 2.99868
131 3 6.99745 7.08581 4.66017
26 4 7.7905 0.216839 1.92934
180 2 11.8783 5.32525 4.13464
165 2 9.11359 6.68606 5.99241
254 3 14.1091 1.24549 8.27017
152 2 5.56962 7.27445 7.7473
68 1 5.2093 6.25443 8.0064
44 4 8.8945 2.04569 9.87081
264 2 13.7043 3.33184 14.1697
46 4 11.868 2.20721 11.2961
49 4 9.33932 7.5596 16.3002
51 4 6.346 7.65226 14.6464
127 3 12.3407 0.947754 12.2963
181 2 15.1032 2.48178 15.1883
73 1 11.7729 3.69494 12.5948
261 3 13.0703 6.37195 15.6703
125 3 13.0095 2.64047 10.2935
126 3 10.424 2.06542 10.5403
232 1 11.5035 4.26315 16.2567
132 3 5.98951 6.17353 13.5412
133 3 7.84789 7.60959 15.4438
185 2 12.7815 6.44252 10.3556
258 2 7.41285 5.00754 15.7696
12 4 14.3946 2.40778 9.48611
202 2 6.57484 5.37027 8.62367
214 2 12.7217 4.25733 12.3587
215 2 11.7014 3.28778 13.6138
216 2 10.8635 4.28752 12.3303
60 1 14.7024 3.48484 14.7166
231 4 11.7293 5.72629 15.155
160 2 14.5576 1.91087 13.523
233 3 10.4383 6.72386 15.4886
234 2 11.818 5.47302 13.432
124 3 7.60082 2.42784 10.7082
236 2 11.0706 3.53976 15.3914
257 1 7.45334 3.89169 15.6497
260 2 8.50754 3.51346 15.6619
10 2 15.1217 1.76838 16.6446
235 2 12.4586 3.85123 16.7101
182 2 14.5062 4.24209 15.495
134 3 5.16316 7.9952 15.638
226 2 7.93491 11.1134 4.5828
52 4 4.00658 10.9823 2.54015
53 4 7.61764 10.3497 7.05641
271 2 7.39983 13.059 0.18615
2 4 5.74534 13.5451 1.75681
71 1 3.1446 13.5783 5.2071
4 1 6.47706 13.7963 0.0413315
76 1 4.19784 9.06259 1.92273
77 1 7.76987 11.5917 5.61388
255 2 7.42812 13.1445 6.81768
135 3 5.12006 12.1072 2.12274
136 3 2.72883 11.3981 3.38744
137 3 7.70032 8.94073 6.36029
42 4 2.16846 11.9715 4.98437
227 2 8.60862 12.3744 5.8396
164 2 5.83116 8.56805 2.84236
168 2 5.97735 10.3172 7.74506
139 3 4.4676 10.5236 8.17953
186 2 11.8067 7.605 8.09039
250 2 5.10553 9.71997 0.240288
209 2 4.54592 8.35778 6.39686
210 2 3.9579 13.5639 4.42865
211 2 3.53506 13.3577 6.30548
217 2 9.18257 8.36568 0.765532
253 4 6.22802 14.1322 7.4673
167 2 3.40929 10.1608 0.864733
223 2 4.80615 9.69273 3.56898
224 2 4.85406 8.29149 1.46219
225 2 6.61775 11.9563 5.77601
121 3 2.67627 10.9405 6.08126
265 2 10.5759 9.02717 7.97723
140 3 5.20377 13.2381 8.19942
163 2 4.31301 7.64737 4.76081
117 3 1.21427 13.3053 0.885856
138 3 8.54725 10.8218 8.21017
40 4 3.14507 9.95133 7.29865
50 4 7.65826 7.46042 5.96541
238 4 1.47871 11.957 0.105452
22 4 9.47398 11.8048 9.34476
54 4 4.77754 12.1575 9.28117
55 4 7.18605 12.1105 11.5689
75 1 6.61981 9.05873 13.4315
218 2 8.98131 9.93858 16.0672
251 2 7.08776 12.1506 16.2996
189 2 11.4877 8.9725 14.1855
141 3 8.63693 11.9083 10.8445
142 3 5.97118 11.9716 10.5949
143 3 7.15926 13.4798 12.3481
169 2 7.01488 10.8907 12.8059
274 2 10.8483 9.54768 15.7466
270 2 6.62413 14.4525 15.8444
221 2 5.72263 9.85875 13.5207
230 2 3.28618 13.1066 10.9283
239 4 4.94916 12.2906 15.1474
241 1 4.39323 11.369 13.507
242 1 6.35313 11.306 16.0537
243 3 5.72091 13.7751 14.5093
244 3 3.62096 12.5829 16.0241
248 2 5.16333 11.373 12.6882
247 2 4.01552 10.3833 13.8624
229 2 2.50047 12.9164 9.13476
252 2 6.72846 10.6778 15.1765
45 4 6.23542 14.5487 13.0724
220 2 7.64106 9.47447 13.7259
219 2 6.50077 8.51072 12.4088
78 1 3.11084 12.4596 9.97879
249 2 3.49815 12.0355 13.2681
74 1 9.8869 9.37802 16.3779
272 2 1.40852 14.5676 9.09957
228 2 2.6121 11.4347 10.2744
ITEM: TIMESTEP
300
ITEM: NUMBER OF ATOMS
274
ITEM: BOX BOUNDS xy xz yz pp pp pp
-7.3914999999999997e+00 1.6310290000000002e+01 -7.3914999999999997e+00
0.0000000000000000e+00 1.5100700000000000e+01 8.2418999999999998e-01
0.0000000000000000e+00 1.6771000000000001e+01 1.0307999999999999e+00
ITEM: ATOMS id type x y z
58 1 1.36352 5.84145 7.8824
13 4 1.32573 2.00671 5.60415
15 4 -0.352765 3.89173 1.75898
200 2 2.51322 6.75344 3.11761
17 4 0.146462 4.54553 7.32641
18 4 -1.7468 6.62397 5.6974
27 4 3.70889 2.26684 3.59562
28 4 5.72102 2.26734 0.354692
30 4 6.37616 2.42308 5.34528
33 4 4.31803 4.65313 1.95126
34 4 0.0388825 6.77033 2.97575
56 1 0.96583 2.8597 0.820989
106 3 -1.00266 6.84466 4.14835
36 4 5.29083 4.3619 7.60756
65 1 6.46366 0.905503 6.56496
177 2 2.35649 5.5354 7.45955
193 2 6.22991 1.40652 7.56548
80 3 1.58699 0.8765 6.7674
82 3 -1.03205 2.97542 2.83103
83 3 -1.447 4.50009 0.618685
85 3 0.999956 3.36693 6.37452
86 3 -1.07365 5.42859 6.49621
96 3 2.50203 2.08659 4.60601
97 3 6.67466 1.13404 1.0145
176 2 0.89454 6.79426 7.43446
100 3 5.09388 1.98154 4.34389
103 3 3.39835 3.74035 2.85629
104 3 5.27782 3.50571 1.16741
105 3 0.442586 5.36198 2.49695
107 3 3.56317 5.52315 0.858582
148 2 3.59075 1.08319 2.38157
172 2 1.76533 3.73799 0.764398
171 2 1.34146 1.94934 1.36105
203 2 4.44441 5.859 6.76828
79 3 -0.162332 1.38686 4.78135
109 3 6.08933 3.62598 6.35067
174 2 -2.4027 6.86892 1.85345
61 1 -1.91033 6.1424 10.1305
14 4 1.43393 2.32664 11.29
19 4 0.435324 4.33899 13.5569
20 4 -1.20727 6.67808 11.7963
29 4 3.7943 2.25885 9.521
31 4 4.03907 3.14625 15.1176
32 4 6.12973 2.61875 11.4734
196 2 3.3972 1.43484 13.3969
37 4 5.19676 5.03702 12.8418
38 4 1.46086 6.94425 14.9066
184 2 -1.93848 7.0396 9.37445
178 2 1.35756 5.87027 9.01104
66 1 3.14745 1.59939 14.5037
81 3 0.163365 1.82614 10.5697
201 2 4.49382 6.27331 8.94428
87 3 1.08104 3.29985 12.5446
88 3 -0.557424 5.42381 12.6333
99 3 2.48102 2.98211 10.2626
101 3 5.07152 2.67506 16.2234
102 3 4.93085 1.85429 10.7122
197 2 2.07615 2.08369 14.648
110 3 4.62536 4.02016 13.9156
84 3 -0.466658 3.81193 8.82458
112 3 1.36164 5.30756 14.5491
113 3 2.5989 7.33742 15.8591
114 3 0.0195122 7.56374 15.5204
144 2 2.12012 0.877751 11.9089
145 2 -0.154456 6.90122 10.4712
149 2 2.83546 4.12302 15.9539
150 2 6.15037 1.86489 13.0238
153 2 3.88692 5.67545 11.9898
16 4 -1.06364 6.7317 16.4385
183 2 -1.42286 5.17216 9.66235
111 3 6.05313 4.19768 11.6748
35 4 3.94671 7.61121 16.5945
154 2 1.62028 7.7636 13.4637
98 3 3.43407 0.91539 8.72833
108 3 4.25269 3.47778 8.51535
170 2 1.31048 3.6537 16.545
182 2 -0.550836 4.03453 15.6543
21 4 -2.57094 9.62126 7.02998
23 4 -3.44996 12.1576 5.50055
269 2 -0.669022 10.7904 1.09008
39 4 -0.574551 12.4917 4.14129
208 2 3.30258 7.59351 7.2625
118 3 -1.55072 10.5868 7.79364
57 1 -2.52998 7.17329 0.747593
89 3 -2.0029 8.05613 6.33008
91 3 -3.50113 10.5925 5.92506
92 3 -3.66088 13.2805 6.65086
11 4 -4.84367 14.0825 7.62846
115 3 -0.312838 13.586 3.04317
116 3 -2.05154 12.4033 4.6996
198 2 1.83529 7.48398 4.7123
62 1 -3.80314 9.00876 8.35565
120 3 0.529516 12.4194 5.2326
70 1 3.54858 8.32833 6.44434
146 2 -4.67876 12.3557 4.35849
151 2 -0.810598 7.55629 1.6458
155 2 -0.431654 10.9958 3.2772
156 2 -1.06868 13.2297 7.52979
173 2 -2.05362 8.18979 0.522735
207 2 2.85564 8.19407 5.53209
195 2 -1.71401 14.2771 6.22084
240 1 0.330082 10.4506 0.729049
268 2 1.17899 10.398 1.67673
262 2 2.92973 8.13477 0.599987
199 2 1.56601 8.50326 3.13209
67 1 1.74897 7.43395 3.58989
205 2 0.600613 10.0676 8.06004
246 2 0.305838 9.50191 0.138272
222 2 3.20313 8.40462 2.56715
175 2 -3.65277 7.12074 0.442806
238 4 1.34548 11.9278 0.0938508
194 2 0.0566676 14.4093 6.44644
24 4 -2.2863 9.47151 12.9996
25 4 -3.30273 11.8539 10.7554
93 3 -1.71335 8.08409 12.4356
63 1 -2.82424 9.66452 14.8266
64 1 -3.95353 13.4172 11.634
69 1 1.58862 9.89229 8.64536
90 3 -5.71841 13.0861 8.42596
267 2 -4.08475 14.6787 14.9706
94 3 -4.53503 11.1985 9.91455
95 3 -2.83241 10.7233 11.9501
119 3 -1.88001 12.1617 9.83628
147 2 -1.08875 10.1244 14.1569
204 2 1.79727 8.67733 8.72092
157 2 0.693398 11.6267 8.83104
206 2 1.72028 10.4615 9.68854
188 2 -2.44899 9.02101 15.8168
187 2 -3.42573 9.27834 9.39179
190 2 -3.08451 10.7027 15.1365
191 2 -3.78186 13.0885 12.7402
192 2 -5.08961 13.3026 11.2713
245 2 0.733713 12.5488 15.9235
266 2 -3.4045 14.3874 11.3516
41 4 -1.03491 11.8506 8.54371
1 4 14.0071 1.76495 3.76416
179 2 12.1281 4.92247 5.69041
3 1 12.3776 2.24959 4.75302
72 1 8.88798 2.4038 8.08775
5 3 13.6322 0.468783 2.7832
6 2 12.3119 0.248245 0.468075
7 2 11.708 1.21891 4.8557
8 2 12.0845 3.03172 3.90451
9 2 12.8208 2.72864 5.71567
213 2 7.96564 1.85827 7.4632