ITEM: TIMESTEP
0
ITEM: NUMBER OF ATOMS
274
ITEM: BOX BOUNDS xy xz yz pp pp pp
-7.3914999999999997e+00 1.6478000000000002e+01 -7.3914999999999997e+00
0.0000000000000000e+00 1.4949693000000000e+01 9.9190000000000000e-01
0.0000000000000000e+00 1.6771000000000001e+01 1.0204920000000000e+00
ITEM: ATOMS id type x y z
58 1 1.80274 5.32503 8.12375
13 4 1.29017 1.8389 5.72135
15 4 -0.413767 3.94284 1.91553
200 2 2.54682 6.60697 3.14124
17 4 0.372629 4.44678 7.32891
18 4 -1.41037 6.66036 5.60536
27 4 3.76769 2.29349 3.73724
28 4 5.86872 2.33843 0.232016
30 4 6.45882 2.38641 5.47126
33 4 4.43822 4.56389 1.92071
34 4 0.276305 6.95898 2.77594
56 1 0.578149 2.81519 0.784288
106 3 -0.702008 7.18239 3.96875
36 4 5.88443 4.23374 7.76318
65 1 6.40387 0.633459 6.32595
177 2 2.78679 4.8708 7.7068
193 2 6.21953 0.799392 7.45031
80 3 1.52994 0.606878 6.72143
82 3 -1.15652 3.05027 3.01298
83 3 -1.39579 4.62675 0.839292
85 3 1.10255 3.26282 6.58787
86 3 -0.46256 5.57325 6.41759
96 3 2.46925 1.92164 4.64345
97 3 6.54122 1.11235 1.0294
176 2 1.67749 6.40837 7.79873
100 3 5.02976 2.44344 4.79801
103 3 3.45411 3.51696 2.77901
104 3 5.67185 3.65102 1.14901
105 3 0.503546 5.42322 2.4512
107 3 3.71175 5.43332 0.904481
148 2 4.09721 1.05561 2.69581
172 2 1.64701 3.32384 1.09947
171 2 0.496361 1.73559 1.05155
108 3 4.53151 3.6395 8.35028
79 3 -0.242573 1.41857 4.98214
61 1 -1.22041 6.52435 9.73492
14 4 1.68722 2.44388 11.1837
19 4 0.496876 4.41365 13.3528
20 4 -0.661933 6.9849 11.4813
29 4 3.89536 2.49694 9.30788
31 4 4.30852 3.02376 15.226
32 4 6.20869 2.65424 11.3458
196 2 4.32554 1.4261 13.3091
37 4 5.39388 5.09987 12.9071
38 4 1.69087 6.8147 14.8704
184 2 -0.79888 7.19125 8.96442
178 2 1.62691 5.1472 9.25017
66 1 3.94202 1.38856 14.3857
81 3 0.328868 2.08302 10.5138
170 2 1.20709 4.08201 16.5182
87 3 1.3322 3.25789 12.5497
88 3 -0.246831 5.67207 12.3433
99 3 2.63141 3.31944 10.2151
101 3 5.37802 2.74942 16.2762
102 3 4.96 1.994 10.6216
197 2 2.81001 1.45171 14.4338
110 3 4.75931 4.14894 14.1264
84 3 -0.673227 3.80267 8.74154
112 3 1.53246 5.11165 14.448
113 3 2.90259 7.12977 15.798
114 3 0.306272 7.29733 15.4279
144 2 2.56645 1.01619 11.5795
145 2 0.549704 7.33059 10.2641
149 2 2.88674 3.43121 16.1124
150 2 6.46529 1.76783 12.6518
153 2 4.09062 5.91169 12.2387
16 4 -0.860666 6.79095 16.4796
183 2 -1.08329 5.43178 9.39243
111 3 6.08435 4.17003 11.7465
35 4 4.28223 7.46399 16.5946
154 2 1.95132 7.59037 13.4353
98 3 3.30581 1.19998 8.60661
185 2 -2.40871 6.71135 9.98536
201 2 4.92214 6.30942 8.48456
21 4 -2.7624 9.39895 7.0226
23 4 -3.61307 11.9982 5.62136
117 3 0.683444 12.9633 0.681485
39 4 -0.909017 12.1112 4.03523
41 4 -1.08163 11.5633 8.34409
118 3 -1.68204 10.2459 7.81558
57 1 -2.22881 7.38021 0.751202
89 3 -2.06705 7.98671 6.29971
91 3 -3.67972 10.5068 5.88726
92 3 -3.80371 13.0226 6.8468
11 4 -4.8827 13.8735 7.80861
115 3 -0.828029 13.2459 2.93169
116 3 -2.29042 12.2771 4.86419
198 2 1.99054 7.40332 4.78528
174 2 -2.0422 7.23574 1.85965
120 3 0.408801 11.9331 4.86765
70 1 3.66273 8.44835 6.35819
146 2 -4.83344 12.2909 4.53962
151 2 -0.393603 7.72193 1.39018
155 2 -1.04379 10.7349 3.248
156 2 -1.19561 12.8045 7.15717
173 2 -1.77456 8.27061 0.231881
207 2 3.00827 8.26007 5.39226
175 2 -3.40857 7.28316 0.510415
240 1 0.991087 10.0805 0.667503
268 2 1.4212 10.4222 1.82341
262 2 3.23856 7.92736 0.6418
199 2 1.95356 8.45259 3.05988
67 1 1.92502 7.40363 3.62082
205 2 0.734794 9.6652 8.09327
208 2 3.36066 7.68808 7.21017
121 3 2.47231 10.9842 6.34007
195 2 -1.98327 14.2481 5.85894
26 4 0.0485164 14.0096 1.82967
194 2 -0.100878 14.0558 5.8453
269 2 -0.0999698 9.7586 0.688698
246 2 1.68111 9.32844 0.190466
222 2 3.49385 8.31922 2.5066
24 4 -2.18823 9.36518 12.913
25 4 -3.1006 11.6352 10.6426
93 3 -1.43798 8.13713 12.209
63 1 -2.52846 9.63193 14.834
64 1 -3.67782 13.3084 11.4108
69 1 1.68374 9.82777 8.74371
90 3 -5.84003 13.041 8.86886
267 2 -3.12119 14.4901 15.0705
94 3 -4.43643 11.0785 9.84699
95 3 -2.75899 10.6029 11.7729
119 3 -1.70817 11.9665 9.74891
147 2 -0.862406 9.87291 13.9868
204 2 1.9612 8.85933 9.20855
157 2 0.597733 11.4096 8.44571
206 2 1.55387 10.5564 9.60897
188 2 -2.06051 9.34765 15.8938
187 2 -3.52389 9.04684 9.22027
190 2 -3.05495 10.5755 14.8495
191 2 -3.22626 13.1161 12.4781
192 2 -4.80961 13.2675 11.3824
245 2 1.43624 11.8306 15.669
266 2 -3.24678 14.3247 11.0276
228 2 2.20755 11.7348 9.89777
238 4 2.44298 12.7866 16.7533
1 4 13.9477 1.74335 3.96554
179 2 12.9446 4.6687 5.46557
3 1 12.2735 2.16153 4.85883
72 1 8.98408 1.62751 8.00818
5 3 13.4219 0.596556 2.95964
6 2 12.2301 0.435811 0.481797
7 2 11.5343 1.19454 5.01967
8 2 11.9444 2.94588 4.01845
9 2 12.6236 2.66075 5.82374
213 2 7.94653 1.31604 7.39073
203 2 5.46987 5.89247 6.52767
43 4 8.92218 2.21166 3.41232
47 4 8.34686 4.86222 2.29113
48 4 5.79069 6.9602 3.9869
273 2 9.87971 0.914782 7.86023
122 3 8.89425 0.877744 2.58694
123 3 7.70369 2.19579 4.41949
128 3 9.09261 3.54747 2.58065
235 2 11.0417 3.42766 0.358935
130 3 8.47369 5.65174 0.996146
158 2 10.3683 2.09462 4.17307
161 2 8.64561 5.89581 3.58363
162 2 6.69074 4.71579 2.7179
159 2 9.28429 2.80516 7.81376
166 2 7.71769 6.15833 7.27808
59 1 12.484 5.72814 5.23675
263 2 11.6981 6.02829 5.90532
256 2 12.7851 0.870371 6.25004
129 3 5.4752 5.62359 3.17571
131 3 7.03778 6.97593 4.84626
50 4 7.90839 7.27661 6.01559
180 2 12.3711 5.95337 4.13264
165 2 9.52822 6.99987 5.59633
109 3 6.78213 3.48852 6.69348
152 2 6.42855 7.26197 7.77717
10 2 14.4991 0.590653 0.033836
68 1 5.85284 6.20253 7.8903
44 4 8.86284 1.96774 9.85677
264 2 13.8071 3.47868 13.4446
46 4 11.8722 2.13773 11.3965
49 4 9.52178 7.4375 16.1202
51 4 6.60464 7.45886 14.515
127 3 12.2312 0.887868 12.3525
181 2 14.7816 2.33674 14.6601
73 1 11.3505 3.746 12.461
237 2 10.2704 4.66517 16.6412
125 3 13.114 2.52158 10.4796
126 3 10.3418 2.03128 10.6019
232 1 11.3139 4.49165 16.2604
132 3 6.35369 6.15709 13.4723
133 3 8.04876 7.39429 15.3552
134 3 5.34083 7.8609 15.5229
259 2 7.26571 3.8235 14.6075
12 4 14.5132 2.42574 9.52284
202 2 6.99383 5.10829 8.89956
214 2 12.1423 4.382 11.934
215 2 11.5361 3.4015 13.5103
216 2 10.3015 4.12767 12.3114
182 2 14.3414 4.15856 15.0913
231 4 11.9666 5.71283 15.0215
160 2 14.713 1.85196 13.0477
233 3 10.6278 6.73286 15.1565
234 2 12.2158 5.24345 13.319
124 3 7.52684 2.50552 10.4625
236 2 11.3936 3.54941 15.5874
254 3 14.1642 1.34911 8.40383
260 2 8.86392 3.27364 15.4376
257 1 7.93273 3.91299 15.5165
60 1 14.6113 3.39513 14.2729
261 3 13.3006 6.23871 15.6525
258 2 8.18217 4.98661 15.7481
226 2 8.33363 10.9667 5.11943
52 4 4.00964 10.9049 2.62455
53 4 7.62568 10.205 7.23385
271 2 7.32698 12.6392 0.605691
2 4 5.6394 13.5018 1.84013
71 1 2.84987 13.569 5.07322
4 1 6.54673 13.5705 0.195039
76 1 4.31358 8.96716 1.96409
77 1 7.86764 11.5673 5.90869
255 2 7.31773 13.1775 6.85303
135 3 4.87677 12.2134 2.21664
136 3 2.77184 11.2237 3.55205
137 3 7.86907 8.73084 6.6097
42 4 2.01993 11.8248 5.02202
227 2 8.46447 12.4671 6.15609
164 2 5.90645 8.35798 2.91032
168 2 5.98046 10.2806 7.77205
139 3 4.39042 10.5718 8.20839
186 2 11.2717 7.77333 7.92247
250 2 5.07936 9.50147 0.167534
209 2 4.74846 8.59493 6.19979
210 2 2.91355 13.7313 3.94739
211 2 3.81569 13.4379 5.59098
217 2 9.09707 8.27996 0.58681
253 4 6.15373 14.1232 7.61216
167 2 3.41148 10.104 1.01032
223 2 5.30181 9.82692 3.30647
224 2 5.00946 8.35569 1.34309
225 2 6.69252 11.6864 5.76522
62 1 11.3694 8.84597 8.24837
265 2 10.3706 9.4966 8.17757
140 3 5.08956 13.3139 8.35861
163 2 4.40282 7.26799 4.93515
212 2 2.04626 14.1035 5.6648
138 3 8.70807 10.5973 8.31482
40 4 3.16327 9.96662 7.45846
22 4 9.5257 11.5271 9.47186
54 4 4.86551 12.074 9.39231
55 4 7.23242 11.9682 11.444
75 1 6.69534 9.01513 13.4113
218 2 9.25107 9.78123 15.6958
272 2 1.45809 14.2284 9.41708
189 2 12.0626 8.54344 14.3319
141 3 8.73546 11.5944 10.8352
142 3 6.03847 11.6941 10.4398
143 3 7.1008 13.419 11.9883
169 2 7.00693 10.8117 12.6688
274 2 11.1563 9.39242 15.7049
270 2 7.00349 14.2354 16.0324
221 2 5.73388 9.90295 13.5885
230 2 3.47457 12.1005 11.2978
239 4 5.28066 12.3269 15.1281
241 1 4.32529 11.2771 13.8879
242 1 6.43643 11.0618 15.8534
243 3 6.21451 13.8438 14.3964
244 3 3.95107 12.8248 16.2545
248 2 4.68463 11.3333 12.8315
247 2 4.16478 10.1873 14.218
229 2 3.00249 13.3982 10.0409
252 2 6.66031 10.3155 14.9761
45 4 6.30681 14.3832 12.9356
220 2 7.70716 9.42341 13.5622
219 2 6.50456 8.55035 12.3678
78 1 3.19365 12.3251 10.2107
249 2 3.30145 11.8944 14.0539
74 1 10.0562 9.20927 16.1948
251 2 7.28625 11.8 16.0757
ITEM: TIMESTEP
100
ITEM: NUMBER OF ATOMS
274
ITEM: BOX BOUNDS xy xz yz pp pp pp
-7.3914999999999997e+00 1.6478000000000002e+01 -7.3914999999999997e+00
0.0000000000000000e+00 1.4949693000000000e+01 9.9190000000000000e-01
0.0000000000000000e+00 1.6771000000000001e+01 1.0204920000000000e+00
ITEM: ATOMS id type x y z
58 1 1.68134 5.53536 8.0712
13 4 1.12908 1.78103 5.57538
15 4 -0.363646 3.94713 1.7794
200 2 2.54885 6.7994 3.06713
17 4 0.348415 4.51988 7.26413
18 4 -1.55132 6.68083 5.4842
27 4 3.7146 2.32719 3.68349
28 4 5.69865 2.1941 0.229878
30 4 6.47773 2.26464 5.36568
33 4 4.32626 4.52519 1.86905
34 4 0.106827 6.87905 2.7551
56 1 0.818761 2.7211 0.839389
106 3 -0.964697 7.03109 3.89224
36 4 5.65411 4.28528 7.59121
65 1 6.49038 0.707164 6.52988
177 2 2.68214 5.20554 7.63728
193 2 6.62943 1.07639 7.57798
80 3 1.36278 0.526498 6.62575
82 3 -1.07488 3.10477 2.92746
83 3 -1.39489 4.54161 0.659296
85 3 0.955135 3.26018 6.48694
86 3 -0.581944 5.57988 6.42321
96 3 2.39875 1.94004 4.60002
97 3 6.74014 1.21517 1.05316
176 2 1.40597 6.62668 7.91466
100 3 5.12737 2.33761 4.48598
103 3 3.39771 3.75686 2.99037
104 3 5.34816 3.45763 1.1157
105 3 0.520415 5.3754 2.3965
107 3 3.59481 5.40185 0.769642
148 2 3.83993 1.12766 2.56256
172 2 1.74894 3.37094 0.775914
171 2 1.00552 1.75064 1.40634
203 2 4.56861 5.63449 6.56356
79 3 -0.252151 1.59189 4.89646
26 4 7.73287 0.124448 1.74438
61 1 -1.28016 6.61733 9.92406
14 4 1.61516 2.31193 11.1892
19 4 0.515685 4.3406 13.3638
20 4 -0.713768 6.82323 11.7328
29 4 3.87147 2.39031 9.41652
31 4 4.14644 3.05362 15.0851
32 4 6.19721 2.697 11.3552
196 2 3.73004 1.46428 13.1641
37 4 5.28859 5.12572 13.0246
38 4 1.69809 6.84089 14.8162
259 2 7.40026 3.1341 14.6107
178 2 1.57831 5.22979 9.16729
66 1 3.59756 1.47961 14.2456
81 3 0.36612 1.86266 10.3563
170 2 1.25495 3.59589 16.6606
87 3 1.21414 3.14899 12.6176
88 3 -0.283174 5.40198 12.456
99 3 2.59379 3.20064 10.2514
101 3 5.33473 2.60122 16.3142
102 3 4.93317 1.86647 10.782
197 2 2.47302 1.5198 14.5981
110 3 4.78597 4.05091 14.0555
84 3 -0.577645 3.92962 8.79091
112 3 1.49983 5.25242 14.4438
113 3 2.96717 7.17817 15.65
114 3 0.3427 7.44391 15.5088
144 2 2.26134 0.814517 11.6453
145 2 0.42251 7.33455 10.554
149 2 2.76771 3.84948 15.8753
150 2 6.48054 1.88738 12.822
153 2 3.99679 5.89449 12.4075
16 4 -0.879247 6.84358 16.4491
183 2 -1.1005 5.56327 9.56756
111 3 5.88148 4.25299 11.7805
35 4 4.27954 7.55115 16.549
201 2 4.73168 6.39868 8.6498
98 3 3.35566 1.1812 8.44369
185 2 -2.45923 6.78039 10.2524
184 2 -0.813784 7.41639 9.21923
108 3 4.62409 3.3881 8.43478
154 2 1.83597 7.75192 13.4064
21 4 -2.77636 9.4317 6.97518
23 4 -3.48943 11.9827 5.66933
205 2 0.672952 9.83139 8.13153
39 4 -0.796444 12.067 4.06944
238 4 1.51553 11.7449 0.0606176
118 3 -1.58854 10.2468 7.79844
57 1 -2.44406 7.39402 0.73261
89 3 -1.89416 8.04015 6.27337
91 3 -3.68861 10.3863 5.91429
92 3 -3.84299 12.8956 6.93893
11 4 -4.91867 13.9244 7.73431
115 3 -0.523526 13.1124 2.89655
116 3 -2.12812 12.3248 4.94207
198 2 1.76543 7.70148 4.66091
174 2 -2.35217 7.34098 1.88662
120 3 0.470515 12.034 5.00047
70 1 3.60943 8.30462 6.32592
146 2 -4.66185 12.2771 4.48866
151 2 -0.540023 7.65062 1.31265
155 2 -0.942873 10.6122 3.34419
156 2 -1.27105 12.8637 7.36699
173 2 -1.93914 8.34082 0.329672
207 2 3.021 8.25599 5.352
175 2 -3.59438 7.2808 0.458884
240 1 0.693361 10.1562 0.755812
268 2 1.00376 10.4878 1.89977
262 2 3.10936 7.97274 0.686724
199 2 1.65202 8.62952 2.96012
67 1 1.73458 7.56982 3.47799
269 2 -0.40957 10.1012 0.618935
208 2 3.24852 7.56925 7.15555
222 2 3.42458 8.30522 2.5672
246 2 1.24207 9.22393 0.40069
194 2 -0.0576169 13.9865 6.08787
195 2 -1.95073 14.2399 6.24772
24 4 -2.14915 9.40039 12.9824
25 4 -3.19172 11.5942 10.6822
93 3 -1.37882 8.12385 12.3885
63 1 -2.58967 9.78602 14.7956
64 1 -3.89007 13.1903 11.5622
69 1 1.68851 9.86083 8.66457
90 3 -5.72267 13.1429 8.8736
267 2 -3.10135 14.6238 14.6838
94 3 -4.31448 11.0181 9.75903
95 3 -2.8258 10.5725 11.7647
119 3 -1.67205 12.0154 9.82767
147 2 -0.923704 10.2202 13.9764
204 2 1.83961 8.81816 9.07467
157 2 0.671534 11.596 8.44061
206 2 1.75386 10.6794 9.5014
188 2 -2.10361 9.26836 15.8027
187 2 -3.40282 8.73112 9.23778
190 2 -3.08246 10.8058 14.9219
191 2 -3.58729 12.9192 12.6542
192 2 -4.9716 13.0319 11.443
245 2 1.31401 12.0392 15.7986
266 2 -3.42051 14.1558 11.1775
41 4 -1.06866 11.5484 8.44036
228 2 2.44307 11.6641 10.4181
1 4 14.0791 1.75286 3.8492
179 2 12.4428 4.85344 5.7367
3 1 12.3919 2.08843 4.94553
72 1 9.15854 1.79996 7.97487
5 3 13.8085 0.395838 3.06086
6 2 12.3069 0.59242 0.771196
7 2 11.5907 1.20557 5.04884
8 2 12.1302 2.91813 4.14218
9 2 12.6608 2.55192 5.93105
213 2 8.17301 1.3231 7.36808
212 2 9.53202 0.381165 5.46268
43 4 9.05646 2.33302 3.43717
47 4 8.39244 5.08021 2.55965
48 4 5.8332 7.02989 3.89799
273 2 10.1571 1.25129 7.66665
122 3 8.93054 1.02659 2.51797
123 3 7.86244 2.28787 4.62971
128 3 9.12984 3.73435 2.72441
235 2 11.1028 3.28001 0.356281
130 3 8.33594 5.69039 1.12249
158 2 10.5549 2.28599 4.22145
161 2 8.93957 6.27397 3.69106
162 2 6.74095 4.87169 3.0077
159 2 9.28065 3.05212 7.90614
166 2 7.41947 6.25364 7.49129
59 1 12.2704 5.83654 5.12307
263 2 11.5658 6.62265 5.5907
256 2 12.9987 0.698452 6.20438
129 3 5.37049 5.75038 3.03528
131 3 7.01889 6.94371 4.8532
50 4 7.82084 7.24322 6.15991
180 2 12.1771 5.75035 4.00843
165 2 9.4062 6.67698 6.00762
109 3 6.63319 3.64587 6.57909
152 2 5.86555 7.32124 7.56904
68 1 5.49924 6.24399 7.79978
44 4 8.89982 1.86503 9.80672
264 2 13.8114 3.20138 13.8271
46 4 11.8612 2.19687 11.308
49 4 9.42144 7.48473 16.1289
51 4 6.61876 7.48521 14.5678
127 3 12.2725 0.885617 12.3883
181 2 15.186 2.53972 14.9925
73 1 11.7486 3.76813 12.3919
237 2 10.2053 4.49096 16.5735
125 3 13.1513 2.70078 10.3679
126 3 10.3732 2.06643 10.5316
232 1 11.3304 4.28786 16.2637
132 3 6.21743 6.18284 13.6715
133 3 8.01248 7.46383 15.3416
134 3 5.46483 7.8291 15.5968
10 2 15.2712 1.98436 16.7483
12 4 14.598 2.48222 9.49188
202 2 6.59308 5.27816 8.82724
214 2 12.6311 4.39049 11.9449
215 2 11.9273 3.44278 13.506
216 2 10.6698 4.12891 12.1193
182 2 14.5148 4.29993 15.3221
231 4 11.8962 5.73512 15.2128
160 2 14.6508 1.86757 13.3272
233 3 10.5889 6.82803 15.1998
234 2 12.3505 5.18996 13.6211
124 3 7.46187 2.44493 10.4322
236 2 11.4648 3.43491 15.5483
254 3 14.2036 1.32771 8.43491
260 2 8.82191 3.65005 15.6735
257 1 7.70351 3.75909 15.4722
60 1 14.7484 3.45379 14.4933
261 3 13.2303 6.24696 15.8311
258 2 7.4048 4.83038 15.3202
226 2 8.33779 10.873 5.00288
52 4 3.97929 10.8425 2.52731
53 4 7.72314 10.2354 7.20098
271 2 7.60027 13.0283 0.675529
2 4 5.85202 13.4902 1.89806
71 1 2.96347 13.5598 5.38495
4 1 6.50843 13.834 0.115498
76 1 4.29039 8.89908 2.00065
77 1 7.92744 11.5762 5.82868
255 2 7.57887 13.0077 7.19905
135 3 4.99602 12.1175 2.14388
136 3 2.77484 11.1504 3.55187
137 3 7.81194 8.75025 6.64103
42 4 2.15591 11.8682 4.96165
227 2 8.60906 12.4501 6.07427
164 2 5.98819 8.30831 2.79864
168 2 6.04532 10.2955 7.79662
139 3 4.5718 10.3801 8.27323
186 2 11.574 7.53647 7.79189
250 2 5.1494 9.66729 0.259734
209 2 4.70572 8.3715 6.25614
210 2 3.64801 13.6616 4.47784
211 2 3.5067 13.2707 6.37096
217 2 9.18373 8.29656 0.565658
253 4 6.3494 14.0297 7.64244
167 2 3.44448 9.91199 0.935819
223 2 4.98993 9.69532 3.52868
224 2 5.04102 8.25117 1.36635
225 2 6.77441 11.7852 5.76428
62 1 11.531 8.60972 8.24644
265 2 10.434 9.05256 8.33666
140 3 5.1728 13.1721 8.2989
163 2 4.46922 7.6857 4.65441
117 3 0.966494 13.1049 0.689361
138 3 8.70145 10.7118 8.3127
40 4 3.24711 9.86807 7.40721
121 3 2.7631 10.9528 6.22599
22 4 9.47508 11.6006 9.39773
54 4 4.88966 12.0036 9.33269
55 4 7.14206 12.0442 11.3849
75 1 6.74396 9.12331 13.4216
218 2 9.13096 9.78958 15.8191
251 2 7.448 11.6298 15.9281
189 2 11.8669 8.69754 14.2794
141 3 8.63281 11.5903 10.7664
142 3 6.01226 11.7385 10.3842
143 3 7.18807 13.4827 12.0378
169 2 6.96597 10.9169 12.6928
274 2 11.1021 9.53856 15.6468
270 2 6.97623 14.4766 15.921
221 2 5.77115 9.85251 13.5939
230 2 3.66188 12.7474 11.3734
239 4 5.23975 12.3189 15.1695
241 1 4.33738 11.2717 13.826
242 1 6.4527 11.1071 15.9338
243 3 6.20595 13.7653 14.4309
244 3 3.94775 12.574 16.2453
248 2 5.00271 11.2627 12.9086
247 2 4.11732 10.251 14.2291
229 2 3.05457 13.3744 9.83235
252 2 6.59128 10.2567 15.1499
45 4 6.30186 14.3927 12.993
220 2 7.7166 9.49347 13.6785
219 2 6.71964 8.50181 12.462
78 1 3.29492 12.3871 10.3842
249 2 3.43114 11.8837 13.6376
74 1 10.0539 9.25391 16.204
272 2 1.0093 14.2616 9.08933
ITEM: TIMESTEP
200
ITEM: NUMBER OF ATOMS
274
ITEM: BOX BOUNDS xy xz yz pp pp pp
-7.3914999999999997e+00 1.6478000000000002e+01 -7.3914999999999997e+00
0.0000000000000000e+00 1.4949693000000000e+01 9.9190000000000000e-01
0.0000000000000000e+00 1.6771000000000001e+01 1.0204920000000000e+00
ITEM: ATOMS id type x y z
58 1 1.60836 5.73974 7.80492
13 4 1.25215 1.87932 5.62051
15 4 -0.397802 3.97836 1.7558
200 2 2.60706 6.98355 3.10653
17 4 0.307812 4.5397 7.24791
18 4 -1.76014 6.60731 5.41311
27 4 3.67795 2.32792 3.69195
28 4 5.68976 2.15762 0.295647
30 4 6.46526 2.34442 5.32483
33 4 4.31486 4.57616 1.92804
34 4 0.144453 6.7876 2.81263
56 1 0.989866 2.79875 0.961842
106 3 -0.857766 6.7253 4.03881
36 4 5.39975 4.33533 7.56338
65 1 6.42785 0.834698 6.54544
177 2 2.5164 5.17236 7.312
193 2 6.46297 1.09814 7.65823
80 3 1.5985 0.573801 6.53993
82 3 -1.17957 2.99475 2.77372
83 3 -1.33087 4.6131 0.608477
85 3 1.0663 3.36578 6.48735
86 3 -0.750486 5.54612 6.45537
96 3 2.38669 1.92776 4.58988
97 3 6.6313 1.13045 1.09784
176 2 1.33033 6.72278 7.29165
100 3 5.09483 2.281 4.43745
103 3 3.44201 3.74615 3.04011
104 3 5.34741 3.45472 1.15281
105 3 0.470679 5.29326 2.31028
107 3 3.49584 5.38748 0.886343
148 2 3.71419 1.23028 2.4229
172 2 1.91736 3.45551 0.96767
171 2 1.13525 1.87616 1.59653
203 2 4.34604 5.70764 6.88132
79 3 -0.149246 1.67001 4.9105
195 2 5.26354 0.621868 6.18044
109 3 6.23118 3.59493 6.28026
61 1 -1.3587 6.37814 10.0319
14 4 1.52636 2.25007 11.2596
19 4 0.532363 4.39918 13.5266
20 4 -0.858221 6.71596 11.8096
29 4 3.8222 2.31345 9.46144
31 4 4.12124 3.00821 15.1346
32 4 6.22922 2.66356 11.3608
196 2 3.60108 1.92437 13.0563
37 4 5.23827 4.9394 12.8468
38 4 1.64974 6.87982 14.8768
259 2 6.99875 3.54192 14.7316
178 2 1.56761 5.70914 8.93187
66 1 3.37971 1.61537 14.1054
81 3 0.141447 2.11531 10.5688
170 2 1.43122 3.64124 16.7605
87 3 1.23441 3.21078 12.7031
88 3 -0.3592 5.3751 12.6457
99 3 2.60405 2.99176 10.319
101 3 5.10509 2.40683 16.2234
102 3 5.05533 1.7775 10.7782
197 2 2.29815 1.75823 14.4243
110 3 4.79459 3.90046 13.9427
84 3 -0.582958 3.81783 8.71408
112 3 1.58613 5.30941 14.4003
113 3 2.85978 7.20785 15.808
114 3 0.209814 7.34342 15.5157
144 2 2.23763 0.721038 11.7778
145 2 0.276303 7.26298 10.6338
149 2 2.96306 4.0482 16.0389
150 2 6.51736 1.97173 12.9977
153 2 3.85637 5.70811 12.3706
16 4 -0.937421 6.82878 16.4894
183 2 -1.06328 5.38644 9.4737
111 3 5.92054 4.20967 11.5245
35 4 4.10767 7.56576 16.6292
201 2 4.7646 6.36521 9.02491
98 3 3.38533 1.1393 8.53276
108 3 4.66277 3.35452 8.463
184 2 -1.15227 7.37273 9.54143
182 2 -0.770435 4.21953 15.5517
21 4 -2.54392 9.35846 7.0611
23 4 -3.4319 12 5.50326
205 2 0.807677 9.84892 8.12161
39 4 -0.607435 12.2013 4.1123
238 4 1.49385 11.7906 0.0918098
118 3 -1.49926 10.2926 7.94234
57 1 -2.5307 7.29401 0.935353
89 3 -2.11978 8.10144 6.20424
91 3 -3.46169 10.5241 6.06317
92 3 -3.73049 12.9334 6.78558
11 4 -4.76127 13.8844 7.61723
115 3 -0.281833 13.2377 3.01952
116 3 -2.03659 12.3037 4.7778
198 2 1.66978 7.90682 4.4742
194 2 -0.154251 14.0174 6.26558
120 3 0.596601 12.269 5.18139
70 1 3.55269 8.24566 6.42636
146 2 -4.71347 12.1904 4.41475
151 2 -0.670834 7.64335 1.45991
155 2 -0.530784 10.6328 3.36736
156 2 -0.962429 12.9198 7.30035
173 2 -2.13679 8.27878 0.618301
207 2 2.98563 8.05586 5.44755
175 2 -3.59543 7.17411 0.522225
240 1 0.580689 10.2465 0.769172
268 2 1.3949 10.1706 1.67108
262 2 2.88161 7.98554 0.797323
199 2 1.64628 8.58206 2.65269
67 1 1.71941 7.66369 3.37413
269 2 -0.45145 10.567 1.15033
208 2 3.15318 7.59634 7.32611
222 2 3.33218 8.47988 2.48232
246 2 0.529218 9.2874 0.173456
174 2 -2.49719 7.12527 2.02836
24 4 -2.20309 9.39809 13.0816
25 4 -3.12416 11.6302 10.7277
93 3 -1.46256 8.07405 12.5091
63 1 -2.59828 9.71851 14.9488
64 1 -3.86579 13.2091 11.4758
69 1 1.71092 9.77234 8.72004
90 3 -5.73283 13.1636 8.69143
267 2 -3.60661 14.5834 14.5149
94 3 -4.44064 11.0498 9.77434
95 3 -2.63747 10.4511 11.9866
119 3 -1.85406 12.1087 9.83306
147 2 -0.97145 10.1548 14.25
204 2 2.03326 8.74668 9.01965
157 2 0.593428 11.461 8.78204
206 2 1.84305 10.5327 9.58063
188 2 -2.28329 9.16409 15.8545
187 2 -3.52804 8.82844 9.32294
190 2 -2.90849 10.7727 15.176
191 2 -3.61953 12.8289 12.6095
192 2 -4.9513 13.2095 11.1649
245 2 1.04211 12.3396 15.9906
266 2 -3.31372 14.1833 11.1918
41 4 -1.07035 11.6716 8.53295
154 2 1.93221 7.81346 13.4627
1 4 14.1954 1.76687 3.82982
179 2 12.0766 4.978 6.07704
3 1 12.5441 2.07232 4.89631
72 1 9.05067 2.10798 7.96526
5 3 13.8512 0.392871 2.89459
6 2 12.1299 0.441833 0.735829
7 2 11.7854 1.15498 5.0362
8 2 12.2302 2.96057 4.18745
9 2 13.1099 2.4398 5.8524
213 2 8.05742 1.66369 7.38971
212 2 9.86958 0.390871 5.21499
43 4 9.22269 2.41708 3.44729
47 4 8.37268 5.1065 2.4212
48 4 5.72531 7.06309 3.8214
273 2 9.96691 1.7771 7.48
122 3 9.00994 1.17373 2.45569
123 3 7.91064 2.3239 4.62396
128 3 9.19304 3.80332 2.7413
237 2 9.94362 3.44296 0.285919
130 3 8.43439 5.90092 1.07886
158 2 10.7444 2.0616 4.0878
161 2 8.57575 6.26863 3.64208
162 2 6.72963 4.83193 2.70048
159 2 8.95841 3.39327 8.05988
166 2 7.15502 6.45727 7.31588
59 1 12.0554 5.75954 5.16681
263 2 11.3224 6.55708 5.28856
256 2 13.1681 0.518434 5.96742
129 3 5.30196 5.73749 2.95265
131 3 6.99785 6.99985 4.65328
254 3 14.1782 1.23011 8.28412
180 2 12.0848 5.21803 4.18247
165 2 9.19297 6.58314 5.86738
26 4 7.81727 0.20868 1.88961
152 2 5.79786 7.28069 7.80364
68 1 5.39542 6.26895 8.09344
186 2 11.9084 7.41504 8.11901
44 4 8.99262 2.00747 9.82299
264 2 13.8749 3.3269 14.2776
46 4 11.941 2.19634 11.2916
49 4 9.49519 7.50756 16.3125
51 4 6.51868 7.56095 14.666
127 3 12.438 0.973005 12.3349
181 2 15.243 2.48172 15.2281
73 1 11.7337 3.72677 12.5067
60 1 14.8572 3.47646 14.7577
125 3 13.0913 2.65158 10.3103
126 3 10.4964 2.00358 10.5041
232 1 11.645 4.17902 16.2468
132 3 6.1446 6.06768 13.5608
133 3 8.00699 7.53156 15.4451
185 2 12.9271 6.39803 10.4015
258 2 7.70505 4.97211 15.7528
12 4 14.4827 2.42558 9.5059
202 2 6.70473 5.31595 8.6614
214 2 12.6656 4.27929 12.2216
215 2 11.6738 3.37657 13.5666
216 2 10.782 4.28682 12.1846
261 3 13.2269 6.35426 15.7269
231 4 11.9288 5.70016 15.189
160 2 14.6843 1.91351 13.5458
233 3 10.6118 6.65016 15.4982
234 2 12.0389 5.40827 13.4538
124 3 7.68893 2.38358 10.6672
236 2 11.2399 3.36665 15.5253
10 2 15.2959 1.77657 16.5884
260 2 8.67916 3.38226 15.6078
257 1 7.63466 3.8486 15.6188
235 2 12.6634 3.90788 16.7181
134 3 5.32636 7.91103 15.6283
226 2 8.06951 10.8032 4.68169
52 4 4.03097 10.881 2.51561
53 4 7.67948 10.2401 7.05249
271 2 7.37725 12.9251 0.164944
2 4 5.7659 13.4289 1.75191
71 1 3.18473 13.4264 5.2264
4 1 6.48414 13.6802 0.0112159
76 1 4.24441 8.95859 1.9108
77 1 7.87018 11.5089 5.60309
255 2 7.55384 12.9907 6.90875
135 3 5.13108 12.0118 2.09746
136 3 2.75679 11.2648 3.40071
137 3 7.81472 8.83742 6.31186
42 4 2.1904 11.8026 5.00445
227 2 8.75307 12.2341 5.82733
164 2 5.93047 8.44882 2.77795
168 2 6.05413 10.2346 7.66204
139 3 4.55823 10.3732 8.19028
121 3 2.66706 10.857 6.16293
250 2 5.14131 9.6506 0.24786
209 2 4.68535 8.21209 6.37681
210 2 3.93274 13.3891 4.3769
211 2 3.65932 13.2508 6.27883
217 2 9.13493 8.37634 0.789095
253 4 6.30612 13.9651 7.4903
167 2 3.46625 10.0145 0.827119
223 2 4.85445 9.55234 3.55714
224 2 4.84575 8.16362 1.43145
225 2 6.75529 11.8857 5.73908
62 1 11.6846 8.53203 8.25345
265 2 10.6035 8.78903 7.92462
140 3 5.25742 13.0969 8.22051
163 2 4.35797 7.48081 4.77831
117 3 1.22261 13.1432 0.826796
138 3 8.63938 10.7171 8.19543
40 4 3.21056 9.90167 7.35633
50 4 7.75686 7.36112 5.92997
22 4 9.56721 11.6336 9.32157
54 4 4.88552 11.9812 9.27992
55 4 7.29525 12.0135 11.5599
75 1 6.78387 8.9608 13.4134
218 2 9.12616 9.91817 16.0179
251 2 7.34414 11.9858 16.2155
189 2 11.6762 8.95139 14.1712
141 3 8.71391 11.7403 10.8367
142 3 6.07057 11.8346 10.5924
143 3 7.27385 13.3987 12.3253
169 2 7.06176 10.7975 12.8395
274 2 11.0509 9.4989 15.767
270 2 6.79231 14.3261 15.8444
221 2 5.89123 9.77614 13.5021
230 2 3.53718 12.8722 11.013
239 4 5.14975 12.1787 15.1579
241 1 4.5185 11.2588 13.5175
242 1 6.54592 11.1746 16.0372
243 3 5.87005 13.608 14.5262
244 3 3.82745 12.4154 16.0146
248 2 5.28728 11.4128 12.7183
247 2 4.24121 10.1746 13.7576
229 2 2.60318 12.9268 9.29925
252 2 6.78433 10.4631 15.1217
45 4 6.34013 14.4393 13.0717
220 2 7.82476 9.36369 13.7248
219 2 6.72673 8.50605 12.4038
78 1 3.23832 12.3333 10.0615
249 2 3.56469 11.8977 13.3512
74 1 10.0373 9.32723 16.3703
272 2 1.51243 14.3995 9.01401
228 2 2.68814 11.3288 10.3374
ITEM: TIMESTEP
300
ITEM: NUMBER OF ATOMS
274
ITEM: BOX BOUNDS xy xz yz pp pp pp
-7.3914999999999997e+00 1.6478000000000002e+01 -7.3914999999999997e+00
0.0000000000000000e+00 1.4949693000000000e+01 9.9190000000000000e-01
0.0000000000000000e+00 1.6771000000000001e+01 1.0204920000000000e+00
ITEM: ATOMS id type x y z
58 1 1.38136 5.85556 7.84872
13 4 1.39531 1.98964 5.59972
15 4 -0.322421 3.86944 1.7639
200 2 2.55065 6.76614 3.19383
17 4 0.245567 4.45236 7.2732
18 4 -1.70236 6.47993 5.63894
27 4 3.76965 2.23209 3.58089
28 4 5.71912 2.21245 0.316132
30 4 6.41741 2.40313 5.35126
33 4 4.31327 4.60094 1.93918
34 4 0.0884305 6.75471 2.94832
56 1 0.939773 2.81569 0.768454
106 3 -1.0039 6.77484 4.03613
36 4 5.38096 4.35187 7.63841
65 1 6.49249 0.876278 6.58632
177 2 2.36163 5.43507 7.37095
193 2 6.27563 1.36643 7.58147
80 3 1.6176 0.830559 6.77006
82 3 -0.985206 3.01779 2.89212
83 3 -1.43012 4.4866 0.651064
85 3 1.11599 3.34591 6.33092
86 3 -0.98254 5.28085 6.41422
96 3 2.58523 1.97401 4.56237
97 3 6.66294 1.09657 0.974213
176 2 1.00133 6.81711 7.44308
100 3 5.16587 1.98251 4.34536
103 3 3.40427 3.67536 2.86572
104 3 5.25125 3.4438 1.11791
105 3 0.494574 5.33421 2.43695
107 3 3.52073 5.47216 0.85067
148 2 3.70075 1.03141 2.35838
172 2 1.73566 3.68119 0.580984
171 2 1.2865 1.94955 1.42032
203 2 4.65082 5.91647 6.8471
79 3 -0.115333 1.38401 4.77147
109 3 6.15643 3.58505 6.34823
174 2 -2.39896 6.77828 1.87691
208 2 3.49705 7.38457 7.10117
61 1 -1.68966 6.13924 10.1385
14 4 1.51874 2.30155 11.3179
19 4 0.56802 4.35218 13.5839
20 4 -1.06684 6.63811 11.8473
29 4 3.84813 2.29882 9.52028
31 4 4.23131 3.01746 15.0883
32 4 6.23317 2.5537 11.4298
196 2 3.87257 1.43152 13.4677
37 4 5.31687 4.95326 12.8561
38 4 1.60205 6.95807 14.9133
144 2 2.24073 0.882875 11.9153
178 2 1.37434 5.81349 8.97924
66 1 3.27567 1.52862 14.4463
81 3 0.235944 1.85548 10.6015
170 2 1.40205 3.49174 16.5707
87 3 1.22832 3.27045 12.6485
88 3 -0.43695 5.342 12.6836
99 3 2.596 2.98389 10.2946
101 3 5.24872 2.53855 16.1679
102 3 5.06369 1.83205 10.6938
197 2 2.14901 1.71383 14.2898
110 3 4.78517 3.93416 13.914
84 3 -0.402422 3.78674 8.75418
112 3 1.52037 5.30664 14.5633
113 3 2.7621 7.3179 15.8434
114 3 0.167194 7.56999 15.601
182 2 -0.473509 4.0299 15.7556
145 2 0.103145 6.90275 10.5749
149 2 2.89722 3.87821 15.7914
150 2 6.27608 1.76273 12.9519
153 2 3.98852 5.58328 11.9993
16 4 -0.900102 6.72928 16.4955
183 2 -1.28559 5.14999 9.65165
111 3 6.15984 4.14101 11.6733
35 4 4.09924 7.5827 16.6099
201 2 4.78658 6.29893 9.02297
98 3 3.47091 0.987608 8.70651
108 3 4.31806 3.58231 8.55252
184 2 -1.67432 7.05073 9.37255
60 1 -0.395419 3.33725 14.8762
21 4 -2.51608 9.486 7.05124
23 4 -3.40704 12.0385 5.53414
205 2 0.762255 9.91036 8.03166
39 4 -0.548035 12.3392 4.12853
246 2 0.400454 9.35093 0.149067
118 3 -1.44803 10.4132 7.77912
57 1 -2.55399 7.18364 0.835055
89 3 -1.98494 7.87793 6.29061
91 3 -3.46371 10.4742 5.99095
92 3 -3.53715 13.1817 6.6714
11 4 -4.76627 13.9588 7.6248
115 3 -0.292832 13.4819 3.05843
116 3 -2.04701 12.2647 4.65479
198 2 1.84757 7.56181 4.71884
238 4 1.34571 11.8014 0.074039
120 3 0.567164 12.2478 5.22304
70 1 3.70888 8.29919 6.42239
146 2 -4.67409 12.2741 4.45481
151 2 -0.755843 7.50618 1.59401
155 2 -0.386803 10.8487 3.21591
156 2 -0.967596 13.0415 7.48959
173 2 -2.18916 8.24126 0.658105
207 2 3.03711 8.26904 5.50336
195 2 -1.6292 14.0898 6.21927
240 1 0.371924 10.2946 0.746092
268 2 1.20023 10.2643 1.68728
262 2 2.93099 8.05703 0.649748
199 2 1.60857 8.48011 3.04439
67 1 1.76438 7.39143 3.61019
269 2 -0.641521 10.5885 1.0948
194 2 0.108093 14.313 6.46173
222 2 3.32095 8.37158 2.54789
24 4 -2.23267 9.39113 13.0345
25 4 -3.22869 11.6913 10.7449
93 3 -1.63219 8.0046 12.5217
63 1 -2.53223 9.70055 14.9666
64 1 -3.87701 13.2842 11.6149
69 1 1.68743 9.65776 8.64399
90 3 -5.58062 12.9407 8.44716
267 2 -3.86137 14.5528 15.0667
94 3 -4.49621 11.005 9.89623
95 3 -2.77092 10.6116 11.9485
119 3 -1.84415 11.9788 9.79351
147 2 -0.896565 10.0587 14.0951
204 2 1.93728 8.4783 8.77027
157 2 0.749824 11.436 8.90537
206 2 1.81625 10.279 9.58089
188 2 -2.24919 9.11323 15.9189
187 2 -3.29834 9.09872 9.43757
190 2 -2.76218 10.7508 15.2429
191 2 -3.63755 12.9879 12.6976
192 2 -4.99798 13.1102 11.3842
245 2 0.920412 12.3602 15.9038
266 2 -3.33535 14.2525 11.2601
41 4 -0.93675 11.69 8.53853
154 2 1.73186 7.81112 13.4632
62 1 -3.71467 8.86049 8.38935
1 4 14.0937 1.78079 3.79413
179 2 12.0593 4.72936 5.58969
3 1 12.463 2.26024 4.76562
72 1 8.96858 2.39554 8.00864
5 3 13.6744 0.495658 2.78936
6 2 12.3722 0.29325 0.463741
7 2 11.7174 1.27402 4.87057
8 2 12.1519 3.10278 4.00669
9 2 12.8491 2.71768 5.74599