ITEM: TIMESTEP
0
ITEM: NUMBER OF ATOMS
274
ITEM: BOX BOUNDS xy xz yz pp pp pp
-7.3914999999999997e+00 1.6478000000000002e+01 -7.3914999999999997e+00
0.0000000000000000e+00 1.4932990000000000e+01 9.9190000000000000e-01
0.0000000000000000e+00 1.6771000000000001e+01 8.6308999999999991e-01
ITEM: ATOMS id type x y z
58 1 1.80274 5.29758 8.12375
13 4 1.29017 1.80026 5.72135
15 4 -0.413767 3.96351 1.91553
200 2 2.54682 6.6423 3.14124
17 4 0.372629 4.4184 7.32891
18 4 -1.41037 6.67158 5.60536
27 4 3.76769 2.27928 3.73724
28 4 5.86872 2.35973 0.232016
30 4 6.45882 2.3558 5.47126
33 4 4.43822 4.59078 1.92071
34 4 0.276305 7.00151 2.77594
56 1 0.578149 2.83578 0.784288
106 3 -0.702008 7.21526 3.96875
36 4 5.88443 4.19887 7.76318
65 1 6.40387 0.576598 6.32595
177 2 2.78679 4.84293 7.7068
193 2 6.21953 0.732964 7.45031
80 3 1.52994 0.545793 6.72143
82 3 -1.15652 3.05095 3.01298
83 3 -1.39579 4.6651 0.839292
85 3 1.10255 3.2299 6.58787
86 3 -0.46256 5.56536 6.41759
96 3 2.46925 1.89462 4.64345
97 3 6.54122 1.11329 1.0294
176 2 1.67749 6.39511 7.79873
100 3 5.02976 2.42014 4.79801
103 3 3.45411 3.5247 2.77901
104 3 5.67185 3.6764 1.14901
105 3 0.503546 5.45348 2.4512
107 3 3.71175 5.47915 0.904481
148 2 4.09721 1.03932 2.69581
172 2 1.64701 3.34641 1.09947
171 2 0.496361 1.74261 1.05155
108 3 4.53151 3.59276 8.35028
79 3 -0.242573 1.38307 4.98214
61 1 -1.22041 6.49291 9.73492
14 4 1.68722 2.35673 11.1837
19 4 0.496876 4.32471 13.3528
20 4 -0.661933 6.94065 11.4813
29 4 3.89536 2.42908 9.30788
31 4 4.30852 2.90204 15.226
32 4 6.20869 2.5676 11.3458
196 2 4.32554 1.30741 13.3091
37 4 5.39388 5.02231 12.9071
38 4 1.69087 6.73484 14.8704
184 2 -0.79888 7.17425 8.96442
178 2 1.62691 5.10669 9.25017
66 1 3.94202 1.25873 14.3857
81 3 0.328868 1.99892 10.5138
170 2 1.20709 3.95806 16.5182
87 3 1.3322 3.1653 12.5497
88 3 -0.246831 5.60593 12.3433
99 3 2.63141 3.25082 10.2151
101 3 5.37802 2.61443 16.2762
102 3 4.96 1.90792 10.6216
197 2 2.81001 1.32203 14.4338
110 3 4.75931 4.04958 14.1264
84 3 -0.673227 3.75366 8.74154
112 3 1.53246 5.01881 14.448
113 3 2.90259 7.04381 15.798
114 3 0.306272 7.21676 15.4279
144 2 2.56645 0.910664 11.5795
145 2 0.549704 7.302 10.2641
149 2 2.88674 3.30475 16.1124
150 2 6.46529 1.65917 12.6518
153 2 4.09062 5.84902 12.2387
16 4 -0.860666 6.69475 16.4796
183 2 -1.08329 5.39272 9.39243
111 3 6.08435 4.09468 11.7465
35 4 4.28223 7.37344 16.5946
154 2 1.95132 7.53269 13.4353
98 3 3.30581 1.12604 8.60661
185 2 -2.40871 6.67929 9.98536
201 2 4.92214 6.28831 8.48456
21 4 -2.7624 9.42367 7.0226
23 4 -3.61307 12.0631 5.62136
117 3 0.683444 13.0874 0.681485
39 4 -0.909017 12.1932 4.03523
41 4 -1.08163 11.5967 8.34409
118 3 -1.68204 10.2713 7.81558
57 1 -2.22881 7.44724 0.751202
89 3 -2.06705 8.00439 6.29971
91 3 -3.67972 10.554 5.88726
92 3 -3.80371 13.0857 6.8468
11 4 -4.8827 13.9355 7.80861
115 3 -0.828029 13.3504 2.93169
116 3 -2.29042 12.3525 4.86419
198 2 1.99054 7.43025 4.78528
174 2 -2.0422 7.29024 1.85965
120 3 0.408801 12.005 4.86765
70 1 3.66273 8.4701 6.35819
146 2 -4.83344 12.3697 4.53962
151 2 -0.393603 7.78603 1.39018
155 2 -1.04379 10.8109 3.248
156 2 -1.19561 12.8622 7.15717
173 2 -1.77456 8.35183 0.231881
207 2 3.00827 8.28959 5.39226
175 2 -3.40857 7.35163 0.510415
240 1 0.991087 10.1756 0.667503
268 2 1.4212 10.5092 1.82341
262 2 3.23856 8.00101 0.6418
199 2 1.95356 8.50737 3.05988
67 1 1.92502 7.4422 3.62082
205 2 0.734794 9.68189 8.09327
208 2 3.36066 7.69363 7.21017
121 3 2.47231 11.0318 6.34007
195 2 -1.98327 14.3334 5.85894
26 4 0.0485164 14.1329 1.82967
194 2 -0.100878 14.1393 5.8453
269 2 -0.0999698 9.85028 0.688698
246 2 1.68111 9.42077 0.190466
222 2 3.49385 8.37819 2.5066
24 4 -2.18823 9.33065 12.913
25 4 -3.1006 11.6463 10.6426
93 3 -1.43798 8.09723 12.209
63 1 -2.52846 9.58088 14.834
64 1 -3.67782 13.3288 11.4108
69 1 1.68374 9.8396 8.74371
90 3 -5.84003 13.0841 8.86886
267 2 -3.12119 14.4858 15.0705
94 3 -4.43643 11.0919 9.84699
95 3 -2.75899 10.5923 11.7729
119 3 -1.70817 11.9899 9.74891
147 2 -0.862406 9.83277 13.9868
204 2 1.9612 8.85673 9.20855
157 2 0.597733 11.4404 8.44571
206 2 1.55387 10.5669 9.60897
188 2 -2.06051 9.28313 15.8938
187 2 -3.52389 9.04602 9.22027
190 2 -3.05495 10.5339 14.8495
191 2 -3.22626 13.1238 12.4781
192 2 -4.80961 13.2877 11.3824
245 2 1.43624 11.7934 15.669
266 2 -3.24678 14.3592 11.0276
228 2 2.20755 11.7544 9.89777
238 4 2.44298 12.7483 16.7533
1 4 13.9477 1.72131 3.96554
179 2 12.9446 4.6612 5.46557
3 1 12.2735 2.13478 4.85883
72 1 8.98408 1.56387 8.00818
5 3 13.4219 0.572986 2.95964
6 2 12.2301 0.435395 0.481797
7 2 11.5343 1.15641 5.01967
8 2 11.9444 2.93545 4.01845
9 2 12.6236 2.62939 5.82374
213 2 7.94653 1.25543 7.39073
203 2 5.46987 5.88672 6.52767
43 4 8.92218 2.19987 3.41232
47 4 8.34686 4.88843 2.29113
48 4 5.79069 6.99064 3.9869
273 2 9.87971 0.84542 7.86023
122 3 8.89425 0.860741 2.58694
123 3 7.70369 2.17377 4.41949
128 3 9.09261 3.55749 2.58065
235 2 11.0417 3.45869 0.358935
130 3 8.47369 5.69887 0.996146
158 2 10.3683 2.07405 4.17307
161 2 8.64561 5.91952 3.58363
162 2 6.69074 4.73625 2.7179
159 2 9.28429 2.75536 7.81376
166 2 7.71769 6.14775 7.27808
59 1 12.484 5.73363 5.23675
263 2 11.6981 6.03013 5.90532
256 2 12.7851 0.816662 6.25004
129 3 5.4752 5.64864 3.17571
131 3 7.03778 6.99793 4.84626
50 4 7.90839 7.28996 6.01559
180 2 12.3711 5.97218 4.13264
165 2 9.52822 7.01462 5.59633
109 3 6.78213 3.45682 6.69348
152 2 6.42855 7.25755 7.77717
10 2 14.4991 0.596281 0.033836
68 1 5.85284 6.18628 7.8903
44 4 8.86284 1.88905 9.85677
264 2 13.8071 3.37937 13.4446
46 4 11.8722 2.04536 11.3965
49 4 9.52178 7.35142 16.1202
51 4 6.60464 7.38905 14.515
127 3 12.2312 0.773311 12.3525
181 2 14.7816 2.21374 14.6601
73 1 11.3505 3.65922 12.461
237 2 10.2704 4.54588 16.6412
125 3 13.114 2.44225 10.4796
126 3 10.3418 1.94577 10.6019
232 1 11.3139 4.37442 16.2604
132 3 6.35369 6.08456 13.4723
133 3 8.04876 7.31543 15.3552
134 3 5.34083 7.78507 15.5229
259 2 7.26571 3.71605 14.6075
12 4 14.5132 2.35502 9.52284
202 2 6.99383 5.07089 8.89956
214 2 12.1423 4.30692 11.934
215 2 11.5361 3.30076 13.5103
216 2 10.3015 4.04625 12.3114
182 2 14.3414 4.04965 15.0913
231 4 11.9666 5.62032 15.0215
160 2 14.713 1.74019 13.0477
233 3 10.6278 6.64931 15.1565
234 2 12.2158 5.16323 13.319
124 3 7.52684 2.42621 10.4625
236 2 11.3936 3.42939 15.5874
254 3 14.1642 1.2787 8.40383
260 2 8.86392 3.15233 15.4376
257 1 7.93273 3.79735 15.5165
60 1 14.6113 3.28669 14.2729
261 3 13.3006 6.1452 15.6525
258 2 8.18217 4.8795 15.7481
226 2 8.33363 11.0263 5.11943
52 4 4.00964 10.9888 2.62455
53 4 7.62568 10.2357 7.23385
271 2 7.32698 12.7608 0.605691
2 4 5.6394 13.6197 1.84013
71 1 2.84987 13.6553 5.07322
4 1 6.54673 13.7056 0.195039
76 1 4.31358 9.0381 1.96409
77 1 7.86764 11.625 5.90869
255 2 7.31773 13.242 6.85303
135 3 4.87677 12.3146 2.21664
136 3 2.77184 11.3015 3.55205
137 3 7.86907 8.75293 6.6097
42 4 2.01993 11.8941 5.02202
227 2 8.46447 12.5315 6.15609
164 2 5.90645 8.4133 2.91032
168 2 5.98046 10.3067 7.77205
139 3 4.39042 10.5965 8.20839
186 2 11.2717 7.77262 7.92247
250 2 5.07936 9.59576 0.167534
209 2 4.74846 8.61975 6.19979
210 2 2.91355 13.8306 3.94739
211 2 3.81569 13.5177 5.59098
217 2 9.09707 8.35773 0.58681
253 4 6.15373 14.1898 7.61216
167 2 3.41148 10.196 1.01032
223 2 5.30181 9.89311 3.30647
224 2 5.00946 8.42666 1.34309
225 2 6.69252 11.7468 5.76522
62 1 11.3694 8.85284 8.24837
265 2 10.3706 9.51074 8.17757
140 3 5.08956 13.3648 8.35861
163 2 4.40282 7.29206 4.93515
212 2 2.04626 14.1893 5.6648
138 3 8.70807 10.6212 8.31482
40 4 3.16327 9.99271 7.45846
22 4 9.5257 11.5489 9.47186
54 4 4.86551 12.102 9.39231
55 4 7.23242 11.9747 11.444
75 1 6.69534 8.97207 13.4113
218 2 9.25107 9.72307 15.6958
272 2 1.45809 14.278 9.41708
189 2 12.0626 8.48642 14.3319
141 3 8.73546 11.6032 10.8352
142 3 6.03847 11.7078 10.4398
143 3 7.1008 13.4347 11.9883
169 2 7.00693 10.7942 12.6688
274 2 11.1563 9.33024 15.7049
270 2 7.00349 14.2189 16.0324
221 2 5.73388 9.86709 13.5885
230 2 3.47457 12.1098 11.2978
239 4 5.28066 12.3001 15.1281
241 1 4.32529 11.2521 13.8879
242 1 6.43643 11.015 15.8534
243 3 6.21451 13.8397 14.3964
244 3 3.95107 12.7918 16.2545
248 2 4.68463 11.3195 12.8315
247 2 4.16478 10.148 14.218
229 2 3.00249 13.4331 10.0409
252 2 6.66031 10.2699 14.9761
45 4 6.30681 14.3992 12.9356
220 2 7.70716 9.38297 13.5622
219 2 6.50456 8.51304 12.3678
78 1 3.19365 12.3475 10.2107
249 2 3.30145 11.874 14.0539
74 1 10.0562 9.14035 16.1948
251 2 7.28625 11.7584 16.0757
ITEM: TIMESTEP
100
ITEM: NUMBER OF ATOMS
274
ITEM: BOX BOUNDS xy xz yz pp pp pp
-7.3914999999999997e+00 1.6478000000000002e+01 -7.3914999999999997e+00
0.0000000000000000e+00 1.4932990000000000e+01 9.9190000000000000e-01
0.0000000000000000e+00 1.6771000000000001e+01 8.6308999999999991e-01
ITEM: ATOMS id type x y z
58 1 1.67696 5.46772 8.08889
13 4 1.1302 1.75402 5.57739
15 4 -0.372884 3.96169 1.78504
200 2 2.55242 6.93 2.98069
17 4 0.344179 4.46757 7.26968
18 4 -1.53941 6.68935 5.49628
27 4 3.71708 2.32554 3.68041
28 4 5.69857 2.19978 0.2448
30 4 6.47008 2.21571 5.37239
33 4 4.33261 4.54736 1.86611
34 4 0.0955528 6.89445 2.75041
56 1 0.827544 2.75648 0.865961
106 3 -0.948197 7.04236 3.90498
36 4 5.65331 4.24106 7.58811
65 1 6.46679 0.651593 6.51575
177 2 2.6681 5.14595 7.61441
193 2 6.61637 1.02851 7.57155
80 3 1.36033 0.466624 6.6228
82 3 -1.10047 3.10678 2.93724
83 3 -1.39606 4.60703 0.655962
85 3 0.944277 3.20858 6.50416
86 3 -0.595066 5.57943 6.42158
96 3 2.41333 1.93539 4.59931
97 3 6.72391 1.20545 1.0756
176 2 1.40176 6.57181 7.96693
100 3 5.1396 2.30118 4.47183
103 3 3.40154 3.7983 3.01257
104 3 5.34513 3.4633 1.12442
105 3 0.524552 5.37707 2.39625
107 3 3.59345 5.42074 0.764829
148 2 3.81079 1.1538 2.53212
172 2 1.73861 3.43691 0.838489
171 2 1.05324 1.77063 1.38343
203 2 4.51119 5.54788 6.56941
79 3 -0.239036 1.57644 4.88667
26 4 7.7129 0.113068 1.75129
61 1 -1.27 6.53367 9.92808
14 4 1.60901 2.21594 11.1866
19 4 0.522509 4.2639 13.3544
20 4 -0.716087 6.77056 11.737
29 4 3.87709 2.31525 9.40378
31 4 4.14655 2.9623 15.0907
32 4 6.19269 2.62187 11.3542
196 2 3.71499 1.38033 13.152
37 4 5.29021 5.04199 13.0391
38 4 1.7066 6.74401 14.8261
184 2 -0.798824 7.33236 9.2337
178 2 1.59033 5.13031 9.17932
66 1 3.60868 1.39081 14.2395
81 3 0.372002 1.78237 10.3351
170 2 1.27291 3.46937 16.6327
87 3 1.22738 3.05889 12.6017
88 3 -0.278216 5.3196 12.4737
99 3 2.59573 3.11436 10.2441
101 3 5.34061 2.46942 16.2968
102 3 4.93176 1.81191 10.7585
197 2 2.44757 1.51148 14.631
110 3 4.80627 3.93453 14.0708
84 3 -0.582469 3.85701 8.78545
112 3 1.49106 5.14932 14.4389
113 3 2.97789 7.05591 15.6507
114 3 0.351384 7.34095 15.5166
144 2 2.35922 0.767696 11.571
145 2 0.430804 7.26731 10.5663
149 2 2.81392 3.79417 15.9213
150 2 6.43946 1.81002 12.8255
153 2 3.97492 5.77619 12.4406
16 4 -0.878156 6.73096 16.4522
183 2 -1.09348 5.48125 9.57637
111 3 5.89017 4.18937 11.7889
35 4 4.2922 7.43323 16.5602
154 2 1.86021 7.65119 13.4078
98 3 3.3616 1.11727 8.43371
185 2 -2.45416 6.70912 10.2437
201 2 4.71446 6.34786 8.62551
259 2 7.41699 2.96352 14.632
108 3 4.62777 3.32917 8.45497
21 4 -2.75942 9.49689 6.96534
23 4 -3.48419 12.0546 5.6684
269 2 -0.405491 10.2411 0.612968
39 4 -0.781845 12.1688 4.05829
194 2 -0.0693349 14.0886 6.05773
118 3 -1.58972 10.3178 7.75507
57 1 -2.44716 7.42757 0.751026
89 3 -1.87601 8.05438 6.27982
91 3 -3.69001 10.4521 5.91301
92 3 -3.85629 12.9698 6.92732
11 4 -4.91798 13.9837 7.72504
115 3 -0.508688 13.2592 2.91406
116 3 -2.12498 12.3959 4.9416
198 2 1.8647 7.78314 4.66046
174 2 -2.33038 7.40555 1.9092
120 3 0.48482 12.1121 4.98388
70 1 3.59541 8.33071 6.3398
146 2 -4.65997 12.325 4.48539
151 2 -0.532412 7.67393 1.34353
155 2 -0.926952 10.7432 3.28214
156 2 -1.20481 12.9359 7.39466
173 2 -1.90874 8.32501 0.300969
207 2 2.9497 8.2748 5.33725
175 2 -3.58604 7.30834 0.490306
240 1 0.695726 10.2783 0.762553
268 2 1.00678 10.607 1.86282
262 2 3.11792 8.00713 0.725623
199 2 1.62726 8.68198 2.96048
67 1 1.73542 7.63732 3.44063
205 2 0.687511 9.88329 8.07334
208 2 3.35262 7.51465 7.1087
222 2 3.43892 8.37959 2.55024
246 2 1.24597 9.36585 0.380008
195 2 -1.98155 14.3287 6.25142
24 4 -2.17856 9.36532 12.9374
25 4 -3.19557 11.6108 10.6964
93 3 -1.37431 8.09249 12.369
63 1 -2.59262 9.75977 14.8267
64 1 -3.88032 13.2171 11.5873
69 1 1.68708 9.87305 8.63395
90 3 -5.72133 13.191 8.85467
267 2 -3.12575 14.6392 14.659
94 3 -4.33058 11.0602 9.768
95 3 -2.80377 10.5744 11.7547
119 3 -1.70352 12.0446 9.81884
147 2 -0.96936 10.2142 14.0166
204 2 1.85356 8.82051 8.96956
157 2 0.675993 11.6324 8.48014
206 2 1.71833 10.6198 9.49632
188 2 -2.12444 9.18151 15.8005
187 2 -3.42001 8.81031 9.23911
190 2 -3.13902 10.739 15.0274
191 2 -3.59967 12.9922 12.6791
192 2 -4.96084 13.0601 11.4092
245 2 1.30264 12.0304 15.7823
266 2 -3.40705 14.1465 11.1363
41 4 -1.05359 11.598 8.44904
1 4 14.0812 1.72492 3.86512
179 2 12.4378 4.91689 5.7123
3 1 12.3852 2.02675 4.94431
72 1 9.15113 1.72826 7.97381
5 3 13.8032 0.371083 3.05079
6 2 12.2659 0.53412 0.771855
7 2 11.5912 1.1375 5.06795
8 2 12.1262 2.8698 4.12964
9 2 12.7067 2.47603 5.9149
213 2 8.1604 1.26275 7.33668
212 2 9.53505 0.341886 5.54397
43 4 9.05054 2.3232 3.44848
47 4 8.39205 5.08122 2.5548
48 4 5.81953 7.0507 3.90635
273 2 10.122 1.17109 7.65903
122 3 8.93246 1.03251 2.5106
123 3 7.86546 2.24217 4.64172
128 3 9.09316 3.72432 2.71217
235 2 11.1033 3.30169 0.335922
130 3 8.34853 5.72654 1.0911
158 2 10.5335 2.25318 4.24384
161 2 8.96499 6.24345 3.70209
162 2 6.74285 4.90084 3.00869
159 2 9.29589 2.98251 7.93334
166 2 7.38773 6.26972 7.47023
59 1 12.2717 5.85838 5.11955
263 2 11.5365 6.6441 5.5861
256 2 13.0168 0.626248 6.18753
129 3 5.36561 5.77865 3.0325
131 3 7.01721 6.96876 4.84533
50 4 7.80638 7.27082 6.15696
180 2 12.1857 5.77883 4.01039
165 2 9.40241 6.69516 6.03349
109 3 6.62704 3.57583 6.58197
152 2 5.79719 7.26092 7.49911
68 1 5.44802 6.18724 7.77305
44 4 8.9014 1.78656 9.80995
264 2 13.8413 3.03653 13.8015
46 4 11.8824 2.0901 11.3193
49 4 9.41446 7.36382 16.1498
51 4 6.61982 7.43411 14.5584
127 3 12.2748 0.777565 12.3742
181 2 15.236 2.47357 14.969
73 1 11.766 3.64492 12.4164
237 2 10.2332 4.3984 16.5976
125 3 13.1703 2.59955 10.3743
126 3 10.3839 1.9718 10.531
232 1 11.3294 4.20411 16.2636
132 3 6.20378 6.13321 13.6637
133 3 8.01409 7.40448 15.3482
134 3 5.46977 7.73506 15.606
10 2 15.2373 1.78732 16.7589
12 4 14.6 2.40822 9.48543
202 2 6.62331 5.30887 8.84986
214 2 12.6611 4.26225 11.9744
215 2 11.9479 3.32073 13.5264
216 2 10.6694 4.01933 12.1399
182 2 14.4909 4.20252 15.2737
231 4 11.8943 5.64998 15.2082
160 2 14.6532 1.70878 13.3589
233 3 10.5831 6.73311 15.2146
234 2 12.3488 5.11172 13.6133
124 3 7.46719 2.36103 10.4466
236 2 11.4318 3.35272 15.5208
254 3 14.1878 1.25729 8.42573
260 2 8.82941 3.52371 15.7074
257 1 7.70636 3.61723 15.4885
60 1 14.7483 3.33694 14.4671
261 3 13.233 6.14505 15.8257
258 2 7.39881 4.69 15.3237
226 2 8.28408 10.9346 4.9964
52 4 3.98388 10.9552 2.52527
53 4 7.7245 10.2611 7.21033
271 2 7.56891 13.1167 0.675521
2 4 5.84593 13.5917 1.89953
71 1 2.9399 13.6408 5.37849
4 1 6.47541 13.9406 0.116278
76 1 4.29866 8.994 1.991
77 1 7.92005 11.6098 5.84982
255 2 7.58114 13.0812 7.15932
135 3 4.99761 12.1999 2.1474
136 3 2.79608 11.2536 3.56222
137 3 7.7996 8.78299 6.65968
42 4 2.15257 11.9376 4.95456
227 2 8.61216 12.4506 6.11878
164 2 5.91648 8.33874 2.84687
168 2 6.07669 10.332 7.80676
139 3 4.57417 10.4356 8.25082
186 2 11.5605 7.58289 7.8277
250 2 5.14781 9.76799 0.277533
209 2 4.7035 8.52552 6.2602
210 2 3.5606 13.7727 4.44516
211 2 3.55925 13.357 6.32001
217 2 9.23132 8.38178 0.603635
253 4 6.35003 14.0919 7.63333
167 2 3.40074 10.0257 0.907456
223 2 5.01006 9.79977 3.49857
224 2 5.02845 8.37494 1.33184
225 2 6.74726 11.8315 5.85962
62 1 11.5485 8.67479 8.23886
265 2 10.4393 9.11987 8.31739
140 3 5.17108 13.2357 8.29914
163 2 4.44602 7.67395 4.67977
117 3 0.965303 13.2354 0.706248
138 3 8.69865 10.7477 8.30392
40 4 3.2523 9.92542 7.39227
121 3 2.76288 11.0132 6.23081
238 4 1.52074 11.8707 0.0605222
22 4 9.47877 11.6464 9.38264
54 4 4.89143 12.0388 9.32576
55 4 7.13708 12.0386 11.3854
75 1 6.74925 9.08809 13.4358
218 2 9.12248 9.67934 15.8806
251 2 7.42749 11.6615 15.9034
189 2 11.9513 8.75295 14.2395
141 3 8.6316 11.6354 10.7552
142 3 6.01868 11.7762 10.3604
143 3 7.17671 13.463 12.0656
169 2 6.94376 10.8281 12.6367
274 2 11.0785 9.41943 15.6489
270 2 6.94459 14.4388 15.9121
221 2 5.79479 9.85824 13.6293
230 2 3.72437 12.8527 11.3529
239 4 5.22994 12.2986 15.1766
241 1 4.34272 11.2517 13.8313
242 1 6.45887 11.0807 15.9475
243 3 6.17196 13.7418 14.4224
244 3 3.94687 12.5449 16.2412
248 2 5.00653 11.2508 12.9201
247 2 4.12632 10.2377 14.2316
229 2 3.04955 13.3973 9.81497
252 2 6.59279 10.2404 15.1554
45 4 6.3031 14.3896 13.0033
220 2 7.75086 9.4086 13.6446
219 2 6.6723 8.44845 12.451
78 1 3.33041 12.4449 10.3868
249 2 3.43352 11.8584 13.6537
74 1 10.0701 9.14459 16.2371
272 2 0.998605 14.3454 9.09523
228 2 2.53958 11.7238 10.4714
ITEM: TIMESTEP
200
ITEM: NUMBER OF ATOMS
274
ITEM: BOX BOUNDS xy xz yz pp pp pp
-7.3914999999999997e+00 1.6478000000000002e+01 -7.3914999999999997e+00
0.0000000000000000e+00 1.4932990000000000e+01 9.9190000000000000e-01
0.0000000000000000e+00 1.6771000000000001e+01 8.6308999999999991e-01
ITEM: ATOMS id type x y z
58 1 1.64656 5.67947 7.8024
13 4 1.24017 1.84611 5.61759
15 4 -0.408887 3.9866 1.76939
200 2 2.51562 6.90546 3.04251
17 4 0.313228 4.49134 7.26789
18 4 -1.73462 6.63827 5.44147
27 4 3.66831 2.32907 3.69017
28 4 5.69173 2.14627 0.311816
30 4 6.48899 2.28897 5.34395
33 4 4.32331 4.60015 1.94592
34 4 0.117326 6.77739 2.82908
56 1 0.979408 2.82313 0.989961
106 3 -0.809427 6.72837 4.09755
36 4 5.39553 4.25951 7.51919
65 1 6.4165 0.753035 6.52578
177 2 2.58281 5.12902 7.49646
193 2 6.45591 1.13226 7.59632
80 3 1.60348 0.538608 6.50777
82 3 -1.20022 2.96421 2.7619
83 3 -1.34764 4.65933 0.610293
85 3 1.03579 3.33255 6.51179
86 3 -0.749372 5.52715 6.5139
96 3 2.36949 1.93224 4.59688
97 3 6.61524 1.11299 1.09219
176 2 1.44106 6.59314 7.12335
100 3 5.09459 2.26398 4.43063
103 3 3.43953 3.78737 3.05092
104 3 5.34771 3.46626 1.19093
105 3 0.44414 5.30201 2.34376
107 3 3.50724 5.39382 0.870416
148 2 3.68769 1.2333 2.42674
172 2 1.91096 3.53277 1.02762
171 2 1.1983 1.84857 1.52827
203 2 4.26146 5.64171 6.74109
79 3 -0.154954 1.64807 4.89046
174 2 -2.44522 7.00148 1.95437
195 2 5.30968 0.484956 6.17627
109 3 6.23915 3.54873 6.30569
61 1 -1.37955 6.27585 10.0429
14 4 1.52439 2.15578 11.2367
19 4 0.537705 4.29131 13.5272
20 4 -0.867721 6.66989 11.8152
29 4 3.85246 2.21638 9.47101
31 4 4.14317 2.92878 15.1562
32 4 6.24025 2.59735 11.3757
196 2 3.53155 1.90971 13.0187
37 4 5.26419 4.87865 12.8574
38 4 1.66716 6.74662 14.8843
184 2 -1.13097 7.26729 9.54984
178 2 1.56647 5.85838 8.9087
66 1 3.33366 1.60425 14.0818
81 3 0.14325 1.99162 10.5401
170 2 1.45675 3.52294 16.7493
87 3 1.22194 3.10939 12.6543
88 3 -0.351937 5.33543 12.6584
99 3 2.60257 2.91481 10.3023
101 3 5.09237 2.28181 16.2428
102 3 5.01782 1.67792 10.7579
197 2 2.26694 1.75045 14.3899
110 3 4.78638 3.8831 13.9801
84 3 -0.608519 3.72456 8.70819
112 3 1.60831 5.17572 14.4247
113 3 2.86762 7.07832 15.8176
114 3 0.221305 7.19606 15.528
98 3 3.3906 1.05034 8.51239
145 2 0.225438 7.24102 10.6239
149 2 2.99597 3.91543 16.0928
150 2 6.52788 1.9096 12.9932
153 2 3.91848 5.65036 12.3432
16 4 -0.924839 6.6985 16.4882
183 2 -1.10565 5.30071 9.45345
111 3 5.94593 4.12887 11.5346
35 4 4.12756 7.42055 16.6382
154 2 1.93791 7.69154 13.4758
108 3 4.68729 3.28268 8.45157
259 2 7.11145 3.29307 14.7076
201 2 4.63115 6.26303 8.92504
21 4 -2.5008 9.44532 7.03397
23 4 -3.41299 12.0599 5.4764
269 2 -0.46314 10.6806 1.16205
39 4 -0.605253 12.3085 4.09531
194 2 -0.107251 14.1437 6.29649
118 3 -1.49404 10.4106 7.90289
57 1 -2.51622 7.31293 0.899348
89 3 -2.0867 8.145 6.2014
91 3 -3.42677 10.5982 6.02155
92 3 -3.7449 13.0074 6.73672
11 4 -4.76491 13.9588 7.5794
115 3 -0.292136 13.4018 3.05427
116 3 -2.02463 12.3805 4.77376
198 2 1.74948 7.95058 4.45395
246 2 0.538855 9.44588 0.137597
120 3 0.589761 12.3338 5.16578
70 1 3.38147 8.19517 6.39797
146 2 -4.67553 12.2349 4.35757
151 2 -0.706948 7.61962 1.49198
155 2 -0.517157 10.781 3.29018
156 2 -0.950812 13.0079 7.34695
173 2 -2.11681 8.33164 0.663002
207 2 2.84419 8.1647 5.3325
175 2 -3.6333 7.24341 0.507346
240 1 0.576442 10.3756 0.784734
268 2 1.38561 10.2794 1.67334
262 2 2.91923 7.95218 0.819356
199 2 1.64876 8.55874 2.56177
67 1 1.70892 7.72 3.31474
205 2 0.751277 9.95995 8.01332
238 4 1.48097 11.9256 0.109956
222 2 3.36128 8.55535 2.50159
62 1 -3.76475 8.67136 8.25887
208 2 2.92746 7.41737 7.09279
24 4 -2.21104 9.36897 13.0303
25 4 -3.14147 11.6725 10.7321
93 3 -1.49913 7.99671 12.5046
63 1 -2.59755 9.6312 14.9829
64 1 -3.80225 13.2655 11.5217
69 1 1.69695 9.84415 8.59988
90 3 -5.74292 13.2206 8.64083
267 2 -3.67014 14.6899 14.4926
94 3 -4.43677 11.1523 9.77947
95 3 -2.65329 10.4559 12.0448
119 3 -1.85692 12.1623 9.83677
147 2 -0.991404 10.0978 14.2331
204 2 1.98908 8.75463 8.87651
157 2 0.577465 11.4726 8.91149
206 2 1.97099 10.5802 9.43668
188 2 -2.24799 9.07605 15.8952
187 2 -3.41346 8.90303 9.28948
190 2 -2.98397 10.6657 15.2361
191 2 -3.70874 13.0004 12.6335
192 2 -4.86876 13.1994 11.1594
245 2 1.06615 12.3123 16.0121
266 2 -3.2768 14.252 11.2363
41 4 -1.04511 11.7499 8.53195
144 2 -5.17047 14.6632 11.7247
1 4 14.1912 1.7586 3.79893
179 2 12.0806 5.06438 6.0268
3 1 12.5426 2.05893 4.87165
72 1 9.02938 2.02189 7.98547
5 3 13.868 0.360671 2.88504
6 2 12.1164 0.404208 0.752426
7 2 11.7662 1.10695 5.01602
8 2 12.1812 2.99018 4.34093
9 2 13.1778 2.32066 5.80714
213 2 8.0736 1.54882 7.39962
212 2 9.85704 0.376982 5.15356
43 4 9.21011 2.39143 3.46011
47 4 8.35055 5.10174 2.4538
48 4 5.70942 7.10733 3.85909
273 2 9.96574 1.66723 7.5168
122 3 9.01772 1.14749 2.46587
123 3 7.91876 2.26287 4.64218
128 3 9.16382 3.78837 2.77604
237 2 9.92344 3.4757 0.288657
130 3 8.44119 5.87801 1.0912
158 2 10.7625 2.07147 4.01901
161 2 8.63099 6.29745 3.62125
162 2 6.70948 4.90084 2.78676
159 2 8.95379 3.29839 8.05946
166 2 7.06645 6.43356 7.24819
59 1 12.0784 5.81197 5.17748
263 2 11.3685 6.68943 5.34541
256 2 13.132 0.463181 5.91088
129 3 5.2662 5.78988 2.97858
131 3 7.01994 7.02829 4.63644
26 4 7.81165 0.200702 1.91253
180 2 11.9799 5.26087 4.14085
165 2 9.16385 6.57522 5.94894
254 3 14.1973 1.14866 8.26042
152 2 5.61895 7.20341 7.68192
68 1 5.25729 6.19703 7.97399
44 4 8.99884 1.91965 9.84313
264 2 13.8432 3.21897 14.1981
46 4 11.9749 2.08167 11.299
49 4 9.52042 7.39352 16.2951
51 4 6.50891 7.50479 14.6485
127 3 12.4507 0.83205 12.3008
181 2 15.2244 2.33892 15.2021
73 1 11.8002 3.56953 12.5758
261 3 13.2433 6.20574 15.7004
125 3 13.1089 2.54697 10.3085
126 3 10.5226 1.90455 10.511
232 1 11.6623 4.11632 16.2728
132 3 6.15068 6.03484 13.5594
133 3 8.02491 7.47368 15.4408
185 2 12.9168 6.32935 10.3577
258 2 7.60459 4.79679 15.7342
12 4 14.4894 2.32032 9.47917
202 2 6.59114 5.3276 8.62409
214 2 12.7232 4.14358 12.3042
215 2 11.7812 3.14478 13.6084
216 2 10.8563 4.15032 12.3395
60 1 14.8308 3.35827 14.736
231 4 11.9102 5.58056 15.1611
160 2 14.6898 1.76319 13.5668
233 3 10.6069 6.57869 15.4792
234 2 12.0138 5.31279 13.4523
124 3 7.70674 2.29673 10.6983
236 2 11.2495 3.38167 15.4176
257 1 7.65092 3.66656 15.6391
260 2 8.7272 3.29949 15.7117
10 2 15.3041 1.60866 16.6019
235 2 12.6145 3.7335 16.7411
182 2 14.645 4.09309 15.5197
226 2 8.11197 11.101 4.57593
52 4 4.03707 10.9769 2.52707
53 4 7.67642 10.2667 7.05467
271 2 7.38805 13.0651 0.151165
2 4 5.76676 13.5379 1.75037
71 1 3.16753 13.5455 5.22271
4 1 6.47607 13.811 0.0194704
76 1 4.24911 9.04256 1.91299
77 1 7.85489 11.5042 5.6089
255 2 7.49441 13.0706 6.79193
135 3 5.14143 12.1108 2.11813
136 3 2.76476 11.3646 3.39157
137 3 7.7769 8.85721 6.34851
42 4 2.19903 11.9174 5.01321
227 2 8.632 12.2881 5.93917
164 2 5.90573 8.50118 2.78509
168 2 6.06668 10.2869 7.69778
139 3 4.53774 10.4678 8.17069
186 2 11.8511 7.5416 8.09446
250 2 5.17159 9.75071 0.232314
209 2 4.54273 8.2188 6.41576
210 2 3.9724 13.5181 4.4494
211 2 3.56893 13.3823 6.31505
217 2 9.19472 8.35426 0.813337
253 4 6.28892 14.0477 7.45175
167 2 3.44221 10.0898 0.859567
223 2 4.87752 9.65364 3.55655
224 2 4.87086 8.28092 1.3886
225 2 6.69235 11.8448 5.72545
121 3 2.69746 10.9368 6.14072
265 2 10.6654 9.001 8.01373
140 3 5.2866 13.1646 8.19663
163 2 4.33786 7.6042 4.76164
117 3 1.19369 13.2703 0.851525
138 3 8.64658 10.7371 8.18214
40 4 3.20249 9.92161 7.31019
50 4 7.72143 7.38448 5.93794
22 4 9.57615 11.7212 9.32152
54 4 4.88558 12.0682 9.28021
55 4 7.29358 11.9921 11.5647
75 1 6.77918 8.91639 13.4393
218 2 9.17937 9.81116 16.135
251 2 7.23244 12.0675 16.3281
189 2 11.6765 8.89677 14.2913
141 3 8.72933 11.8017 10.8348
142 3 6.08487 11.8657 10.5803
143 3 7.26827 13.3535 12.3569
169 2 7.13598 10.7634 12.7786
274 2 11.0712 9.41494 15.8342
270 2 6.77273 14.3157 15.841
221 2 5.84968 9.70313 13.535
230 2 3.4522 13.0507 11.0016
239 4 5.11071 12.1522 15.164
241 1 4.52568 11.1905 13.5446
242 1 6.53987 11.1863 16.0587
243 3 5.83894 13.6494 14.5192
244 3 3.81143 12.395 16.0299
248 2 5.30639 11.2836 12.7354
247 2 4.18726 10.1516 13.8294
229 2 2.65779 12.8733 9.22103
252 2 6.92561 10.609 15.158
45 4 6.34665 14.4175 13.082
220 2 7.74339 9.38301 13.6661
219 2 6.6517 8.32252 12.4532
78 1 3.25623 12.408 10.0813
249 2 3.60854 11.8605 13.3499
74 1 10.0544 9.2021 16.4221
272 2 1.51687 14.4455 9.04553
228 2 2.72007 11.413 10.3547
134 3 5.33488 7.84408 15.6589
ITEM: TIMESTEP
300
ITEM: NUMBER OF ATOMS
274
ITEM: BOX BOUNDS xy xz yz pp pp pp
-7.3914999999999997e+00 1.6478000000000002e+01 -7.3914999999999997e+00
0.0000000000000000e+00 1.4932990000000000e+01 9.9190000000000000e-01
0.0000000000000000e+00 1.6771000000000001e+01 8.6308999999999991e-01
ITEM: ATOMS id type x y z
58 1 1.42591 5.8373 7.85867
13 4 1.40328 1.94768 5.58929
15 4 -0.359327 3.86289 1.74141
200 2 2.46828 6.67962 3.10489
17 4 0.237228 4.48576 7.31037
18 4 -1.67127 6.54169 5.71682
27 4 3.75905 2.21279 3.57006
28 4 5.71941 2.24287 0.333422
30 4 6.46322 2.38144 5.35708
33 4 4.31846 4.62109 1.94533
34 4 0.072918 6.74723 2.98472
56 1 0.906509 2.82618 0.802864
106 3 -0.918754 6.80171 4.16562
36 4 5.3485 4.28495 7.60711
65 1 6.56392 0.832482 6.54252
177 2 2.42262 5.54055 7.41357
193 2 6.34705 1.26512 7.59645
80 3 1.64518 0.812911 6.75365
82 3 -1.03283 2.96938 2.87223
83 3 -1.44645 4.45678 0.620002
85 3 1.1198 3.33066 6.33865
86 3 -0.984615 5.31444 6.51542
96 3 2.57299 1.96471 4.54771
97 3 6.63468 1.09542 0.993501
176 2 0.935961 6.77824 7.46357
100 3 5.16081 1.98612 4.34054
103 3 3.41014 3.71215 2.83859
104 3 5.27277 3.49365 1.15598
105 3 0.472318 5.35468 2.46313
107 3 3.56556 5.5219 0.874513
148 2 3.69152 1.04144 2.33794
172 2 1.73292 3.66634 0.77353
171 2 1.22102 1.86559 1.34212
203 2 4.53974 5.83962 6.77254
79 3 -0.120884 1.35544 4.77119
174 2 -2.45186 6.79519 1.93112
109 3 6.19902 3.56187 6.37936
175 2 -3.61975 7.04587 0.519657
61 1 -1.78385 6.02393 10.1504
14 4 1.52317 2.21038 11.2871
19 4 0.546352 4.2145 13.5889
20 4 -1.08185 6.58331 11.8388
29 4 3.86504 2.18479 9.51003
31 4 4.2254 2.99423 15.1038
32 4 6.23696 2.47834 11.4625
196 2 3.68127 1.41827 13.377
37 4 5.35266 4.89388 12.8689
38 4 1.61766 6.77812 14.9359
184 2 -1.82159 6.93105 9.41824
178 2 1.36885 5.74846 8.99926
66 1 3.26495 1.50045 14.4351
81 3 0.257425 1.7103 10.5496
170 2 1.41862 3.50068 16.5232
87 3 1.17124 3.18448 12.5664
88 3 -0.444927 5.34766 12.6814
99 3 2.60342 2.86651 10.2902
101 3 5.2514 2.48335 16.1657
102 3 5.02486 1.76584 10.6687
197 2 2.15807 1.90908 14.5026
110 3 4.79841 3.88416 13.9257
84 3 -0.332107 3.73541 8.81524
112 3 1.51944 5.13011 14.6054
113 3 2.78324 7.16971 15.8632
114 3 0.19651 7.4173 15.5762
98 3 3.51516 0.834341 8.70401
145 2 -0.00627055 6.88358 10.4857
149 2 2.98432 3.89454 15.9308
150 2 6.24622 1.70975 13.001
153 2 4.02076 5.52878 12.0462
16 4 -0.899964 6.5606 16.4712
183 2 -1.29084 5.05454 9.70565
111 3 6.1767 4.05232 11.6861
35 4 4.13216 7.44536 16.5885
154 2 1.7665 7.57871 13.4612
108 3 4.29423 3.45522 8.48766
144 2 2.22449 0.803825 11.9798
201 2 4.55733 6.25816 8.91335
182 2 -0.471126 3.86635 15.6962
21 4 -2.49512 9.5787 7.02987
23 4 -3.40559 12.0746 5.49034
269 2 -0.682162 10.6985 1.1137
39 4 -0.528078 12.454 4.12644
238 4 1.29974 11.885 0.114533
118 3 -1.43665 10.5177 7.80364
57 1 -2.55453 7.13018 0.841324
89 3 -1.93246 7.96178 6.352
91 3 -3.41715 10.532 5.93152
92 3 -3.6245 13.1977 6.6466
11 4 -4.77953 14.0097 7.59023
115 3 -0.287248 13.6107 3.07355
116 3 -2.02974 12.3473 4.65238
198 2 1.81887 7.63546 4.73077
246 2 0.364141 9.42203 0.216985
120 3 0.5639 12.3791 5.21399
70 1 3.46089 8.24236 6.40885
146 2 -4.65753 12.2223 4.37988
151 2 -0.808151 7.56486 1.69432
155 2 -0.345236 10.9805 3.19444
156 2 -0.841095 13.2036 7.59752
173 2 -2.07238 8.16479 0.647156
207 2 3.06133 8.49604 5.35917
195 2 -1.608 14.2773 6.14371
240 1 0.334365 10.3869 0.77947
268 2 1.18242 10.3643 1.78398
262 2 2.98815 8.15116 0.56556
199 2 1.62108 8.49998 2.98393
67 1 1.75573 7.4429 3.56761
205 2 0.730174 10.0437 7.97839
62 1 -3.70093 8.97834 8.3834
222 2 3.27874 8.39763 2.55987
208 2 2.90213 7.4246 6.98367
194 2 0.169441 14.3154 6.38707
24 4 -2.25214 9.34751 13.0346
25 4 -3.21404 11.7658 10.7306
93 3 -1.65031 7.89455 12.5628
63 1 -2.49914 9.62593 14.9796
64 1 -3.86508 13.3445 11.6176
69 1 1.66873 9.81894 8.61844
90 3 -5.64013 13.0022 8.39724
267 2 -3.9412 14.5815 14.905
94 3 -4.43837 11.1147 9.88286
95 3 -2.76062 10.5637 11.9709
119 3 -1.82059 12.0632 9.86682
147 2 -0.956316 9.9988 14.1934
204 2 1.83253 8.63582 8.73993
157 2 0.742033 11.5716 8.83351
206 2 1.87302 10.4483 9.61225
188 2 -2.17026 8.99397 15.948
187 2 -3.24623 9.21588 9.40881
190 2 -2.66812 10.6591 15.3041
191 2 -3.69446 13.0324 12.6872
192 2 -4.99333 13.2521 11.2532
245 2 0.847671 12.2876 15.9635
266 2 -3.29461 14.3028 11.3381
41 4 -0.975204 11.7808 8.55923
1 4 14.0634 1.73932 3.76959
179 2 12.1875 4.85943 5.68893
3 1 12.4513 2.22505 4.82152
72 1 8.98812 2.30649 8.07023
5 3 13.654 0.456903 2.78264
6 2 12.308 0.262415 0.481556
7 2 11.7449 1.2258 4.90042
8 2 12.167 3.03472 4.01564
9 2 12.8294 2.64863 5.80673