ITEM: TIMESTEP
0
ITEM: NUMBER OF ATOMS
274
ITEM: BOX BOUNDS xy xz yz pp pp pp
-7.3914999999999997e+00 1.6478000000000002e+01 -7.3914999999999997e+00
0.0000000000000000e+00 1.5100700000000000e+01 9.9190000000000000e-01
0.0000000000000000e+00 1.6938710000000000e+01 1.0307999999999999e+00
ITEM: ATOMS id type x y z
152 2 6.64798 2.3353 8.09705
13 4 1.02853 1.76934 5.33543
15 4 -0.107095 4.44422 1.86147
108 3 4.29347 3.7994 8.30372
17 4 -0.311481 4.33468 7.31344
18 4 -1.84026 6.88864 5.62086
27 4 3.76348 2.48727 3.55744
28 4 6.26142 2.76118 0.594797
30 4 6.50889 2.52934 5.28261
33 4 4.73842 4.96305 2.16888
34 4 0.466473 7.16619 3.50714
56 1 1.30213 3.44399 1.06763
58 1 1.04919 5.36271 8.08494
174 2 -2.77147 6.88364 1.42772
65 1 6.29623 1.02411 6.66037
67 1 2.14713 7.21643 4.39319
163 2 4.65049 6.6269 5.90765
80 3 1.33696 0.579668 6.31449
195 2 5.23624 1.22341 7.13906
83 3 -0.954658 5.0089 0.461569
85 3 0.452005 3.06782 6.20365
86 3 -1.08104 5.46416 6.58365
96 3 2.43788 2.15274 4.43831
97 3 6.80654 1.43232 1.41056
82 3 -1.08977 3.27307 2.68186
100 3 5.19884 2.38978 4.38245
103 3 3.51683 3.96383 2.92815
200 2 2.51058 6.11283 4.32781
105 3 0.366216 5.66534 2.82531
107 3 4.05105 5.75178 0.837419
148 2 3.85674 1.37158 2.23076
208 2 3.64679 7.40434 8.02341
171 2 0.870187 2.40148 1.321
172 2 2.29067 3.72673 1.69586
176 2 1.02919 6.4042 7.71504
177 2 1.93113 4.74101 7.63878
193 2 7.06485 0.770865 7.53538
36 4 5.88229 3.85878 7.80178
98 3 3.30318 1.19965 8.01882
26 4 7.7383 0.201927 2.06174
267 2 3.56538 1.71819 14.0705
14 4 1.37009 2.51325 10.9125
19 4 0.711404 5.1952 12.8753
20 4 -0.590785 7.54536 10.9964
29 4 3.57371 2.46793 8.94103
31 4 4.65743 3.28871 15.5726
32 4 5.75247 2.24074 11.6061
35 4 4.5549 7.58788 16.4695
37 4 5.68508 4.99457 12.9939
38 4 2.02791 7.21374 14.9193
183 2 -1.69958 6.11217 9.55627
61 1 -2.17659 6.8742 10.2786
66 1 4.29849 1.55529 14.91
16 4 -0.645438 7.04313 16.3796
114 3 0.584502 7.86924 15.4029
87 3 1.25154 3.76218 11.9936
88 3 0.153046 6.39946 11.9179
99 3 2.0249 2.98284 9.49583
101 3 5.89436 3.43309 16.498
102 3 4.54941 2.0724 10.5786
178 2 0.874122 5.21822 9.3214
110 3 4.96781 4.22051 14.2648
111 3 6.10193 3.88599 11.8343
112 3 2.00728 6.00684 13.9025
113 3 3.09661 7.11144 16.149
124 3 7.19021 1.64156 11.1246
144 2 2.1798 1.16289 11.5788
182 2 -0.504177 4.79045 15.0706
149 2 3.18205 3.78348 16.3237
150 2 5.2151 1.61398 13.1355
153 2 4.5616 5.99992 12.2431
196 2 3.69897 1.21344 15.9038
60 1 -0.669292 4.52493 13.9457
170 2 2.10439 4.89326 16.8983
21 4 -2.71646 9.63269 7.20289
23 4 -3.45714 12.0673 5.48942
205 2 0.864325 10.0449 8.37338
39 4 -0.737062 12.1132 3.84305
199 2 2.84396 7.98849 3.98769
238 4 1.08691 11.5424 0.575919
41 4 -1.34762 12.0143 8.40225
89 3 -2.16299 8.20719 6.57671
91 3 -3.68802 10.5431 6.18983
92 3 -3.86825 13.2852 6.44895
11 4 -4.92144 14.0374 7.38065
115 3 -0.532989 13.5711 3.30914
116 3 -2.07085 12.1068 4.78147
117 3 0.829263 13.0686 1.08013
118 3 -1.51472 10.5012 7.88016
120 3 0.585739 11.8152 4.69685
173 2 -1.43339 8.21038 0.809137
146 2 -4.50606 12.1576 4.20739
151 2 0.417528 8.44533 2.24653
155 2 -0.86686 11.0363 2.42743
156 2 -1.34735 13.2165 7.10856
70 1 3.90492 8.0038 7.08324
106 3 -0.764182 7.35083 4.52466
207 2 3.28916 7.76463 6.07557
268 2 1.22393 10.4992 2.13273
240 1 -0.130259 9.88871 1.04794
269 2 -1.14882 9.58042 1.51432
194 2 -1.12489 14.3169 5.81137
246 2 0.266877 9.08662 0.34011
57 1 -2.26463 7.43721 0.525496
198 2 1.67359 7.51262 5.49845
40 4 3.30626 9.75164 7.6584
204 2 1.45919 8.25518 8.40077
24 4 -1.32481 10.1903 12.6136
25 4 -3.31435 12.1067 10.8468
247 2 2.45527 9.86285 14.8262
63 1 -1.23597 10.0181 14.4871
64 1 -4.06609 13.6371 11.7268
69 1 1.67791 9.34608 8.72756
241 1 3.3434 10.2532 14.3609
93 3 -0.961661 8.84831 11.8029
272 2 -0.269299 14.2206 9.14558
95 3 -2.31879 11.2456 11.792
119 3 -2.33589 12.48 9.59106
147 2 0.144256 10.9026 13.3017
228 2 2.26668 12.0966 9.8762
192 2 -3.58756 14.5994 11.3064
72 1 0.910472 14.2651 9.06511
188 2 -1.08774 11.0309 15.011
189 2 -0.452969 9.16413 14.8351
190 2 -2.45221 9.59672 14.4816
191 2 -5.21639 13.5898 11.6393
94 3 -4.72533 11.1839 10.1917
187 2 -3.61659 9.41748 9.65425
154 2 2.64238 8.51818 13.8403
266 2 -3.74882 13.421 12.7965
145 2 0.431509 8.06495 9.5903
206 2 1.95045 9.4361 9.85537
157 2 0.287408 12.3952 8.81525
245 2 0.436323 12.1362 16.701
90 3 -5.69202 13.0364 8.48244
249 2 3.03037 10.7271 13.3684
175 2 -2.12366 8.92815 16.7974
62 1 -3.91661 9.01144 8.62318
197 2 -2.20293 14.9543 14.6835
184 2 -2.74217 7.68693 9.66442
262 2 4.39853 9.23813 16.9315
1 4 14.0692 1.81196 3.49101
6 2 11.0069 0.431165 0.578229
3 1 12.6227 2.2363 4.80923
165 2 9.59742 6.50868 6.24091
5 3 13.3438 0.79738 2.39037
59 1 12.0387 6.16498 4.84329
7 2 12.0871 1.18791 4.61705
8 2 12.2572 3.16794 4.14667
9 2 13.1252 2.42181 5.7973
263 2 11.9157 5.19811 5.45852
213 2 8.76901 0.646669 8.12306
43 4 9.22403 2.35433 3.56575
47 4 9.13894 5.24466 2.75997
48 4 5.66044 6.90451 4.48794
256 2 12.9562 0.655489 6.03334
122 3 9.17069 1.06398 2.62507
123 3 8.02222 2.41531 4.60674
128 3 9.45281 3.75007 2.62622
129 3 5.27135 6.02359 3.19872
130 3 8.79208 5.93416 1.42715
158 2 10.6863 2.17603 4.50475
161 2 10.3654 6.08191 3.60315
162 2 7.85049 5.52577 3.75547
260 2 8.66911 3.31203 0.0219967
166 2 7.66899 5.93161 7.58263
50 4 7.94979 7.04909 6.29152
131 3 7.22773 6.80736 4.86525
236 2 10.8361 3.5698 0.933443
104 3 5.96152 3.93099 1.57865
180 2 11.3735 7.0483 5.13791
179 2 12.3302 6.00035 3.78895
254 3 14.0724 1.01832 8.37689
109 3 6.27316 4.01277 6.23909
79 3 15.2134 1.27119 4.39911
237 2 12.4627 2.93483 0.121046
44 4 8.46359 1.79404 10.1988
49 4 9.62348 7.51644 16.7334
46 4 11.4889 2.08592 11.5144
81 3 15.3767 1.99064 10.4324
51 4 7.05327 7.35007 14.4634
259 2 8.90916 3.24131 15.6276
257 1 8.72231 4.07909 16.3533
73 1 11.4492 3.70588 12.6179
159 2 8.25032 3.06506 9.0264
125 3 12.6423 2.23392 10.3376
126 3 9.96269 1.93892 10.889
270 2 13.4631 2.16552 15.8279
132 3 6.9747 5.83425 13.4792
133 3 8.34952 7.40424 15.6268
68 1 7.11868 4.66839 9.07135
12 4 14.1247 2.26348 9.45877
134 3 5.5732 7.49059 15.253
202 2 6.82372 4.33935 10.1398
214 2 10.355 3.92139 12.4948
215 2 12.1633 4.5049 12.2272
216 2 11.8281 3.11838 13.5995
4 1 13.3334 1.14789 16.422
231 4 12.034 5.64381 15.6916
232 1 12.3179 4.28617 16.8688
233 3 10.8746 6.54122 16.2159
234 2 11.5704 4.90646 14.1843
235 2 11.7254 3.44068 16.2938
258 2 8.31006 5.03862 15.8327
160 2 13.8429 1.02978 14.5092
181 2 14.7156 3.4081 13.7695
185 2 12.7926 6.4658 11.1615
201 2 8.23672 4.93962 8.92869
203 2 6.4322 5.71835 8.97599
127 3 12.1407 1.00253 12.4344
261 3 13.4128 6.45833 15.5145
84 3 14.2619 3.61415 8.54698
264 2 13.9189 5.2407 13.4368
225 2 8.4651 12.2377 6.25919
52 4 4.28408 10.8255 2.61496
53 4 7.60321 9.97399 7.41807
212 2 1.84344 14.0517 5.38364
217 2 8.03705 8.88289 0.0743071
71 1 2.79129 13.4599 5.54722
211 2 3.25417 13.5458 6.63049
76 1 5.85189 10.1868 3.46033
77 1 7.80415 11.2869 6.01197
250 2 4.84415 9.21939 0.694656
135 3 4.74307 12.2667 1.93781
136 3 3.20073 11.1397 3.79792
137 3 7.76193 8.52275 6.86307
2 4 5.22627 13.7092 1.37993
226 2 6.71529 11.5361 5.85245
164 2 5.07389 8.47973 4.18941
140 3 4.88635 13.2794 8.31388
167 2 3.56777 9.84096 1.3672
168 2 6.00776 10.1986 8.0588
227 2 8.27096 10.6141 5.181
209 2 5.0124 8.22364 6.88496
210 2 3.56957 13.6489 4.64222
255 2 7.31917 12.974 6.92654
253 4 6.08847 13.9804 7.516
224 2 6.75128 10.7884 3.23319
222 2 5.78911 9.13269 2.71289
223 2 5.68004 10.051 4.58246
265 2 10.656 9.53813 8.20972
42 4 2.3258 11.6931 5.03122
274 2 9.87843 8.42667 0.370845
121 3 2.88218 10.642 6.42687
22 4 9.43507 11.8389 9.48871
54 4 4.65612 12.0509 9.58146
55 4 7.13601 12.1341 11.5811
75 1 7.23419 9.02226 13.5781
251 2 6.42209 11.6602 16.425
271 2 5.55225 14.3681 15.7604
273 2 1.61186 13.4891 9.59919
141 3 8.34041 12.3879 10.6727
142 3 5.87868 11.9039 10.5634
143 3 6.88067 13.3243 12.6089
169 2 7.38681 10.6958 12.5159
78 1 3.11841 12.1822 10.6056
220 2 8.17923 9.56599 13.9334
221 2 6.28057 9.59939 13.7081
10 2 7.48326 14.6149 16.877
239 4 4.3512 11.6396 15.3887
139 3 4.45358 10.3972 8.51319
242 1 5.6559 10.7698 16.6098
243 3 5.05344 12.8983 14.3685
138 3 8.60166 10.5519 8.56559
218 2 10.0818 9.47605 15.3441
244 3 3.22739 12.1352 16.4568
229 2 3.21954 13.2316 11.0825
252 2 5.84123 9.93439 15.7579
74 1 9.92616 9.33458 16.5681
45 4 5.65248 14.0195 13.3517
219 2 7.35015 8.60453 12.4827
248 2 4.18562 9.53062 14.2371
230 2 3.15661 11.3738 11.4491
186 2 11.3406 7.91711 8.72196
ITEM: TIMESTEP
100
ITEM: NUMBER OF ATOMS
274
ITEM: BOX BOUNDS xy xz yz pp pp pp
-7.3914999999999997e+00 1.6478000000000002e+01 -7.3914999999999997e+00
0.0000000000000000e+00 1.5100700000000000e+01 9.9190000000000000e-01
0.0000000000000000e+00 1.6938710000000000e+01 1.0307999999999999e+00
ITEM: ATOMS id type x y z
152 2 6.51879 2.13321 8.26262
13 4 0.989163 1.82061 5.44422
15 4 -0.297358 4.37962 1.84823
108 3 4.3536 3.77213 8.298
17 4 -0.294631 4.1161 7.22716
18 4 -1.89619 6.79346 5.58443
27 4 3.84736 2.55573 3.64896
28 4 6.38788 2.65023 0.517241
30 4 6.46006 2.40402 5.28265
33 4 4.81004 4.99514 2.13543
34 4 0.433449 7.22578 3.27621
56 1 1.21141 3.51245 1.07477
58 1 1.13806 5.04189 8.01458
109 3 6.28944 3.79473 6.40081
65 1 6.59152 0.972043 6.64181
170 2 1.28314 4.13417 0.109655
163 2 4.5951 6.5935 5.74416
80 3 1.20826 0.510081 6.36343
195 2 5.55046 0.938285 6.93508
83 3 -1.2064 4.97603 0.584224
85 3 0.456414 3.1319 6.30434
86 3 -1.35879 5.457 6.30523
96 3 2.51033 2.20622 4.51686
97 3 7.03259 1.32841 1.20983
82 3 -1.18843 3.28022 2.78817
100 3 5.25613 2.264 4.34175
103 3 3.7588 4.00312 3.13594
200 2 2.37526 6.33762 4.23163
105 3 0.402395 5.79605 2.58224
107 3 4.06342 5.61682 0.865906
148 2 3.76468 1.48222 2.312
208 2 3.54122 7.33048 7.80651
171 2 0.918287 2.39473 0.979943
172 2 2.03654 3.76612 1.86232
176 2 1.0758 6.08136 7.53007
177 2 2.0466 4.37308 7.63796
193 2 7.21323 0.691911 7.59551
36 4 5.95836 3.70466 7.94044
98 3 3.37234 1.15441 8.16076
26 4 7.80807 0.226542 2.1346
79 3 -0.104451 1.49607 4.34821
267 2 4.00354 1.17306 13.9324
14 4 1.38793 2.52767 10.9526
19 4 0.895754 5.12935 12.9142
20 4 -0.454957 7.56401 10.9435
29 4 3.64738 2.46289 9.0848
31 4 4.71211 3.35336 15.6272
32 4 5.80259 2.42165 11.6368
35 4 4.57955 7.44465 16.4574
37 4 5.60999 5.02712 13.1974
38 4 2.01343 7.19256 14.8219
183 2 -1.80856 6.10637 9.65015
61 1 -2.11309 7.07804 10.2623
66 1 4.44432 1.57695 14.8826
16 4 -0.617955 7.12978 16.3118
114 3 0.532584 7.70807 15.3315
87 3 1.44903 3.72157 12.0541
88 3 0.281868 6.37136 11.8837
99 3 2.23537 3.089 9.70347
101 3 6.04032 3.37576 16.484
102 3 4.64117 2.05146 10.6651
178 2 1.03746 5.04376 9.06294
110 3 4.8061 4.22949 14.3385
111 3 5.85018 4.1898 11.8771
112 3 1.74828 5.70641 14.1296
113 3 3.11255 7.07796 16.0048
124 3 7.2327 1.88326 11.3081
144 2 2.14167 1.13382 11.6004
182 2 -0.611388 4.45107 14.8951
149 2 3.40733 3.86608 16.6743
150 2 5.46718 1.7564 13.188
153 2 4.53628 6.20916 12.7293
196 2 3.66578 1.38479 15.9237
60 1 -0.687471 4.42162 13.724
264 2 -1.42126 5.12338 13.2326
197 2 5.51509 1.18703 15.0487
21 4 -2.65024 9.6212 7.07726
23 4 -3.49324 11.9401 5.35442
90 3 -5.68941 13.1149 8.44218
39 4 -0.648837 12.2082 3.95451
199 2 2.49433 8.24293 3.93374
238 4 0.953303 11.53 0.5503
41 4 -1.36897 12.1463 8.29703
89 3 -2.31271 8.13364 6.4646
91 3 -3.59909 10.4392 6.04565
92 3 -3.94818 13.1075 6.40907
11 4 -4.94021 14.0001 7.31772
115 3 -0.551459 13.579 3.22583
116 3 -2.10527 12.1582 4.68513
117 3 0.917832 12.9672 1.13684
118 3 -1.27137 10.6722 7.85285
120 3 0.612611 11.7745 4.80529
173 2 -1.517 8.42357 0.695331
146 2 -4.64999 11.9297 4.17135
151 2 0.678115 8.67269 2.29534
155 2 -0.926835 11.1313 2.67142
156 2 -1.57998 13.2707 7.05464
70 1 3.83033 7.99174 6.8729
106 3 -0.741984 7.36299 4.27245
207 2 3.13359 7.73267 5.98327
268 2 1.13744 10.3795 2.11514
240 1 -0.295242 9.96734 1.20366
269 2 -1.20659 9.63529 1.73844
194 2 -0.672254 14.2388 5.77124
246 2 8.3371e-07 9.18034 0.447429
57 1 -2.20675 7.6148 0.365178
198 2 1.40497 7.54759 5.42367
40 4 3.15399 9.56517 7.67433
204 2 0.77585 8.65814 7.87051
121 3 2.67687 10.4739 6.47106
67 1 1.91903 7.34652 4.41715
174 2 -2.74791 7.18489 1.31205
24 4 -1.32161 10.2738 12.578
25 4 -3.33711 12.0437 10.6283
247 2 2.42522 10.1079 14.6717
63 1 -1.30376 10.0969 14.4395
64 1 -3.98074 13.6567 11.4458
69 1 1.45083 9.19617 8.64959
241 1 3.42403 10.2704 14.3391
93 3 -0.721919 8.94767 11.7335
272 2 -0.162004 14.1438 9.31299
95 3 -2.5113 11.1959 11.9697
119 3 -2.3718 12.4634 9.50784
147 2 -0.114287 11.2662 13.377
205 2 1.03768 10.1913 9.11688
192 2 -3.48089 14.6314 11.0955
72 1 0.972441 14.408 9.22506
188 2 -1.35223 11.0409 15.0285
189 2 -0.576937 9.34824 14.8288
190 2 -2.5061 9.51827 14.354
191 2 -5.12349 13.5969 11.1647
94 3 -4.59766 11.2463 10.1415
187 2 -3.57681 9.50561 9.54654
154 2 2.64586 8.45462 13.7572
266 2 -3.8232 13.4574 12.57
145 2 0.489182 7.73602 9.47277
206 2 2.07422 8.57275 9.42017
157 2 0.204748 12.6661 8.68263
245 2 0.263995 12.235 16.8069
184 2 -2.61868 7.85808 9.55063
228 2 2.36039 11.9595 10.0585
175 2 -1.94371 9.05855 16.5409
62 1 -3.80627 9.12651 8.48985
1 4 14.0707 1.88618 3.65071
6 2 11.4275 0.822559 0.682922
3 1 12.5789 2.07918 5.03392
165 2 9.53014 7.31174 6.29177
5 3 13.4817 0.704432 2.50063
59 1 12.0363 6.39539 4.53684
7 2 11.8891 1.22688 4.67791
8 2 12.386 3.17688 4.57116
9 2 12.6796 2.17764 6.19799
263 2 12.1837 5.28089 4.39378
213 2 8.72688 0.961567 8.20678
43 4 9.22452 2.43808 3.66911
47 4 9.17851 5.27287 2.71849
48 4 5.72608 6.89045 4.4481
256 2 12.8884 0.422768 6.0516
122 3 9.07697 0.884441 2.93863
123 3 7.9961 2.62875 4.62411
128 3 9.43684 3.73117 2.65248
129 3 5.2633 6.09001 3.1519
130 3 8.54212 6.00095 1.54756
158 2 10.668 2.32341 4.6363
161 2 10.5714 6.06571 3.22575
162 2 8.28708 5.76971 4.01235
260 2 8.33481 3.84457 0.243382
166 2 7.65448 5.99579 7.6053
50 4 7.88045 7.21876 6.42325
131 3 7.17238 6.75711 4.96852
236 2 10.5731 3.3335 0.730362
104 3 5.96989 3.92573 1.44381
180 2 11.2782 6.66788 5.38842
237 2 12.4532 3.30791 0.279387
179 2 11.8946 7.01233 3.63551
44 4 8.41317 1.90075 10.3204
49 4 9.60647 7.43777 16.6618
46 4 11.6651 2.03554 11.52
127 3 12.192 0.855554 12.6959
51 4 6.94019 7.29573 14.6364
259 2 9.36753 3.58598 15.7962
257 1 8.74041 4.35893 16.3252
73 1 11.4161 3.60163 12.6044
159 2 8.18621 3.46974 9.55893
125 3 12.6819 2.51515 10.3704
126 3 9.99269 1.81309 10.8718
270 2 13.4302 2.07417 15.7695
132 3 6.99015 5.85539 13.6897
133 3 8.12437 7.37299 15.6865
68 1 6.93818 4.92155 9.10493
12 4 14.1727 2.27843 9.47672
134 3 5.55321 7.52039 15.2811
202 2 6.69454 4.6606 10.1764
214 2 10.2134 3.55963 12.4591
215 2 11.964 4.48164 12.0556
216 2 11.893 3.11434 13.5921
4 1 13.3892 1.27943 16.4898
231 4 12.1173 5.60502 15.5843
232 1 12.3304 4.30652 16.8587
233 3 10.8763 6.48974 16.0887
234 2 11.8305 4.85948 13.9874
235 2 12.1075 3.35135 16.1054
258 2 8.1967 5.05756 15.6138
81 3 15.2984 2.07332 10.5749
181 2 14.6804 3.36426 13.3073
185 2 12.8097 6.88884 11.2543
201 2 8.06945 4.95277 8.94926
203 2 6.42309 5.86662 8.79178
160 2 13.938 0.926861 14.5642
254 3 14.1086 0.903481 8.48547
84 3 14.3568 3.59957 8.4894
261 3 13.5693 6.33004 15.6506
225 2 8.29312 12.1671 5.93079
52 4 4.22947 11.068 2.42379
53 4 7.38667 10.0995 7.53523
212 2 1.87113 14.0526 5.46356
274 2 9.52901 8.3035 0.605675
71 1 2.74966 13.3052 5.42951
211 2 3.30357 13.2221 6.45442
76 1 5.64691 10.1934 3.34526
77 1 7.67076 11.2258 5.96861
250 2 4.96432 9.26646 0.644827
135 3 4.88584 12.3348 1.84888
136 3 3.15476 11.2313 3.59712
137 3 7.59859 8.66337 6.97802
2 4 5.43953 13.8214 1.49365
226 2 6.54254 11.3445 5.79909
164 2 5.3335 8.52157 4.36974
140 3 4.95034 12.9831 8.25136
167 2 3.60759 10.08 1.06341
168 2 5.73591 10.2064 8.08551
227 2 8.1214 10.3045 5.32391
209 2 4.9983 7.99824 6.73799
210 2 3.47584 13.3602 4.52331
255 2 7.32868 13.0121 6.79559
253 4 6.07109 13.9126 7.5873
224 2 6.66407 10.7363 3.24359
222 2 5.50967 9.13206 2.71028
223 2 5.11691 10.259 4.42191
265 2 10.7519 9.72934 8.06004
42 4 2.15546 11.5893 5.06863
262 2 3.53063 8.069 0.0286274
22 4 9.31916 11.8809 9.38868
54 4 4.73606 12.0281 9.46346
55 4 7.15193 12.076 11.5332
75 1 7.16856 8.80084 13.31
251 2 6.37162 11.653 16.209
271 2 5.40712 14.3739 16.0379
273 2 1.77975 13.6446 9.66123
141 3 8.49077 12.3701 10.7757
142 3 5.9225 11.8353 10.5134
143 3 6.88416 13.2693 12.4975
169 2 7.23052 10.6257 12.5016
78 1 3.23457 12.5651 10.508
220 2 7.71688 9.59054 13.8737
221 2 6.11109 8.97514 13.1253
10 2 7.50926 14.8539 16.8936
239 4 4.24834 11.6749 15.388
139 3 4.2946 10.2484 8.698
242 1 5.75001 10.5827 16.526
243 3 4.90733 12.8782 14.3916
138 3 8.47209 10.772 8.58003
218 2 10.7133 9.21851 15.7413
244 3 3.02931 12.1276 16.3782
229 2 3.19789 13.6728 10.4356
252 2 6.03176 9.74825 15.7903
74 1 10.0016 9.23059 16.5226
45 4 5.74539 13.9679 13.5214
219 2 7.7512 8.29818 12.4712
217 2 9.02387 9.79309 16.3302
230 2 3.46675 12.1581 11.5338
248 2 4.20669 9.49156 14.6569
249 2 3.66519 10.8245 13.2723
186 2 11.4742 7.99354 8.48642
ITEM: TIMESTEP
200
ITEM: NUMBER OF ATOMS
274
ITEM: BOX BOUNDS xy xz yz pp pp pp
-7.3914999999999997e+00 1.6478000000000002e+01 -7.3914999999999997e+00
0.0000000000000000e+00 1.5100700000000000e+01 9.9190000000000000e-01
0.0000000000000000e+00 1.6938710000000000e+01 1.0307999999999999e+00
ITEM: ATOMS id type x y z
152 2 6.43758 2.01259 8.22117
13 4 1.19953 1.88163 5.41843
15 4 -0.285909 4.42809 1.80742
108 3 4.38891 3.61154 8.22064
17 4 -0.271464 4.29248 7.14658
18 4 -1.79936 6.80839 5.3862
27 4 3.79409 2.61115 3.83321
174 2 -2.86375 6.94763 1.3226
30 4 6.49076 2.48426 5.35219
33 4 4.86881 4.85628 2.12665
79 3 -0.0393455 1.36123 4.33969
56 1 1.08384 3.43005 0.903485
58 1 1.12585 5.27058 7.94155
198 2 1.55776 7.21554 5.19206
65 1 6.54333 0.917074 6.58536
34 4 0.337384 7.16198 3.202
163 2 4.6694 6.52531 5.73094
80 3 1.43512 0.661214 6.38664
195 2 5.40984 0.884203 6.8592
83 3 -1.18691 4.99061 0.516562
85 3 0.440908 3.11754 6.3166
86 3 -1.17073 5.47542 6.15386
96 3 2.54252 2.36577 4.74813
97 3 7.07045 1.27538 1.3095
82 3 -1.16687 3.43162 3.00009
100 3 5.14555 2.38896 4.49852
103 3 3.69864 3.93143 2.98459
200 2 2.41552 6.19785 3.78048
105 3 0.35122 5.73493 2.52468
107 3 4.07409 5.62261 0.874519
148 2 3.76554 1.39718 2.67129
208 2 3.32303 7.26766 7.6526
171 2 1.29445 2.40503 1.32183
172 2 1.97334 4.16662 1.04244
176 2 1.00706 6.35567 7.61529
177 2 2.03828 4.7558 7.40455
193 2 7.18376 0.760312 7.53858
36 4 5.96866 3.57825 7.97307
98 3 3.38587 1.09959 8.14127
67 1 2.05012 7.22216 4.1299
267 2 3.55527 1.79521 14.1929
14 4 1.42801 2.55122 11.1027
19 4 0.803858 5.09855 12.8242
20 4 -0.408833 7.63296 10.9715
29 4 3.55295 2.30983 9.0884
31 4 4.82984 3.28172 15.6398
32 4 5.86064 2.61109 11.7144
35 4 4.44953 7.56899 16.587
37 4 5.43071 5.16292 13.1741
38 4 2.03396 7.16707 14.9255
183 2 -1.64961 5.97386 9.59923
61 1 -1.92981 6.87565 10.1964
66 1 4.36506 1.54765 14.9553
16 4 -0.755486 7.12785 16.4098
114 3 0.662063 7.85665 15.4585
87 3 1.44141 3.68507 12.2363
88 3 0.30424 6.33978 11.6486
99 3 2.17146 2.92696 9.74986
101 3 6.11742 3.14435 16.5767
102 3 4.81325 2.06623 10.522
178 2 1.05621 5.08954 9.04192
110 3 4.90737 4.16153 14.3225
111 3 5.93273 4.30224 11.842
112 3 1.8753 5.87824 14.0298
113 3 2.93676 7.04319 16.2046
124 3 7.38641 2.10268 11.4923
144 2 2.1757 1.116 11.8198
182 2 -0.613708 4.55436 14.7397
149 2 3.45013 3.78506 16.5611
150 2 5.4014 2.03658 13.2865
153 2 4.17713 6.17402 12.6975
196 2 3.96254 1.18503 16.0139
60 1 -0.754506 4.42669 13.6273
261 3 -1.87064 6.45959 15.3813
81 3 -0.0834074 2.1906 10.6226
170 2 1.66342 4.35621 16.7667
197 2 5.27331 0.963796 14.531
72 1 8.2752 0.561006 9.20118
21 4 -2.58369 9.56085 7.14819
23 4 -3.60244 11.9553 5.31367
262 2 3.21505 8.20831 0.0349276
39 4 -0.75408 12.2003 3.92674
199 2 2.66586 8.14096 3.87546
238 4 0.998659 11.4871 0.625418
41 4 -1.28985 12.1302 8.25456
89 3 -2.11073 8.17808 6.54646
91 3 -3.61549 10.4716 5.95807
92 3 -3.98792 13.0165 6.44501
11 4 -4.85629 14.0187 7.41613
115 3 -0.537132 13.666 3.36189
116 3 -2.13584 12.1709 4.63909
117 3 0.972263 12.935 1.23645
118 3 -1.33212 10.5493 7.79138
120 3 0.458054 11.7513 4.77936
173 2 -1.69732 8.39953 0.724307
146 2 -4.73318 12.0418 4.08851
151 2 0.194285 8.45343 1.97599
155 2 -0.819808 10.9829 2.68652
156 2 -1.6404 13.145 6.88468
70 1 3.74853 7.92543 6.76789
106 3 -0.931066 7.30497 4.14225
207 2 3.17458 7.68741 5.81599
268 2 0.928055 10.2166 2.07071
240 1 -0.446221 10.0185 1.02743
269 2 -1.45804 10.0676 1.58204
194 2 -0.614761 14.1236 5.86983
246 2 -0.357689 9.10986 0.368034
57 1 -2.46809 7.54593 0.448832
121 3 2.54314 10.541 6.31862
40 4 3.06475 9.55227 7.61767
204 2 0.684328 9.01502 8.0215
42 4 2.12662 11.5046 5.09481
24 4 -1.39552 10.2761 12.4235
25 4 -3.38968 12.1111 10.6127
247 2 2.30478 10.0036 14.2506
63 1 -1.1612 10.0632 14.2831
64 1 -3.95593 13.7579 11.4243
69 1 1.54902 9.00424 8.77529
241 1 3.44994 10.1321 14.0224
93 3 -0.740961 9.05531 11.7431
272 2 -0.193868 14.4402 9.50226
95 3 -2.6155 11.2112 11.7183
119 3 -2.29024 12.4051 9.41041
147 2 -0.123791 11.3007 13.1001
205 2 1.42324 9.80738 9.56329
245 2 0.280574 12.3969 16.7995
175 2 -2.3302 8.94624 16.698
188 2 -1.08265 11.0811 14.8061
189 2 -0.400357 9.29246 14.6841
190 2 -2.32067 9.61213 14.3568
191 2 -5.10956 13.7258 11.1872
94 3 -4.83734 11.2367 9.98525
187 2 -3.47315 9.55622 9.55582
154 2 2.7251 8.31867 13.7647
266 2 -3.67162 13.4826 12.5184
145 2 0.0469216 7.88056 9.32161
206 2 1.86422 7.89929 9.12512
157 2 0.253545 12.8068 8.67156
192 2 -3.37523 14.7093 11.0496
184 2 -2.53066 7.70875 9.57525
62 1 -3.7024 9.03503 8.55304
90 3 -5.71737 13.0797 8.51206
1 4 14.1129 1.95908 3.7043
6 2 11.8248 1.03032 0.404424
3 1 12.6599 2.17263 4.98803
165 2 9.45186 6.93559 6.00543
5 3 13.521 0.875082 2.49816
59 1 12.0147 6.37821 4.48501
7 2 11.999 1.36766 4.57598
8 2 12.3465 3.27735 4.53142
9 2 12.7196 2.18115 6.10463
263 2 12.0234 5.26533 4.70709
213 2 8.67598 1.36796 8.25163
43 4 9.26836 2.46757 3.69455
47 4 8.98696 5.1928 2.67669
48 4 5.77895 6.8708 4.49416
256 2 13.1752 0.603699 6.13828
122 3 9.3349 0.960571 2.84529
123 3 8.01117 2.55219 4.66021
128 3 9.29771 3.67264 2.6196
129 3 5.55391 6.04955 3.2199
130 3 8.60899 5.89444 1.29013
158 2 10.7061 2.46148 4.65008
161 2 10.3609 5.92836 3.40687
162 2 7.81576 5.44034 3.80044
26 4 7.87022 0.179645 2.20692
166 2 7.72522 5.97081 7.58498
50 4 7.93624 7.24442 6.45277
131 3 7.21878 6.87794 5.05759
236 2 10.5264 3.47635 0.762891
104 3 6.01533 3.84558 1.64679
180 2 11.3374 6.97922 5.17154
237 2 12.2804 3.40301 0.0321162
179 2 12.0491 6.63762 3.41832
109 3 6.44283 3.85239 6.48434
28 4 6.43132 2.61097 0.534099
44 4 8.5842 2.10042 10.407
49 4 9.66542 7.51655 16.6058
46 4 11.6984 2.00004 11.5851
185 2 12.9775 6.57041 11.1616
51 4 6.86718 7.36535 14.6762
259 2 9.13494 3.12522 15.721
257 1 8.82916 4.06105 16.2781
73 1 11.6108 3.54081 12.6674
159 2 8.43138 3.62934 9.55219
125 3 12.7671 2.36799 10.5118
126 3 10.0992 1.97901 11.0357
270 2 13.7941 2.14485 15.517
132 3 6.79357 6.04543 13.7575
133 3 8.28954 7.46716 15.6807
68 1 6.98223 4.94699 9.12382
12 4 14.137 2.20426 9.56842
134 3 5.50368 7.6115 15.4009
202 2 6.66861 4.67383 10.2103
214 2 10.5139 3.9639 12.5495
215 2 12.4749 4.17671 12.1482
216 2 11.9267 3.15657 13.674
4 1 13.561 1.40615 16.3994
231 4 12.0769 5.71633 15.4668
232 1 12.1489 4.38774 16.7364
233 3 10.8299 6.60243 15.8326
234 2 11.6057 5.03962 13.9561
235 2 11.862 3.54716 16.0746
258 2 8.2745 4.81171 15.5959
84 3 14.3696 3.57258 8.47844
181 2 14.6469 3.33092 13.2759
254 3 13.9197 0.891434 8.76478
201 2 8.08149 5.07049 9.00497
203 2 6.32884 5.77606 8.62909
260 2 9.63684 4.56351 16.8836
264 2 13.9145 5.187 13.2402
225 2 8.33871 12.0121 6.05351
52 4 4.11676 11.0792 2.45628
53 4 7.29998 10.1128 7.49749
212 2 1.93862 13.8716 5.65292
274 2 8.70514 8.5849 0.592272
71 1 2.80741 13.1339 5.67123
211 2 3.35743 13.0434 6.71301
76 1 5.56604 10.1713 3.28182
77 1 7.38129 11.4112 6.07381
250 2 4.89114 9.0161 0.444239
135 3 4.86584 12.5725 1.90909
136 3 2.90946 11.0711 3.49079
137 3 7.69354 8.61757 7.03682
2 4 5.52067 14.001 1.46601
226 2 6.46209 12.0407 6.02769
164 2 5.22887 8.46006 4.19712
140 3 5.00846 13.0119 8.14169
167 2 3.6178 10.221 0.944573
168 2 5.64779 10.005 8.06482
227 2 7.42837 10.4794 5.2513
209 2 4.8849 8.12522 6.65516
210 2 3.53305 13.393 4.79482
255 2 7.53533 13.0446 7.26915
253 4 6.14006 13.9658 7.64741
224 2 6.51088 10.6716 2.99402
222 2 5.27282 9.12027 2.62241
223 2 5.20401 10.3019 4.37404
265 2 10.7731 9.48921 8.07944
10 2 6.75012 13.7855 0.0510755
22 4 9.26091 11.8371 9.43056
54 4 4.71217 12.0638 9.46082
55 4 7.10851 11.9468 11.5834
75 1 7.21465 8.75131 13.3404
251 2 6.3744 11.3423 16.2014
271 2 5.55972 14.6699 16.0894
273 2 1.61686 13.8226 9.49387
141 3 8.48345 12.3926 10.8172
142 3 5.8093 11.8443 10.6015
143 3 6.96958 12.8555 12.8958
169 2 7.41377 10.3638 12.2123
78 1 3.31431 12.7892 10.4551
220 2 7.9277 9.51205 13.7662
221 2 6.0852 9.09701 13.2187
127 3 4.93503 14.5929 12.5572
239 4 4.11376 11.4867 15.2186
139 3 4.16277 10.2538 8.64373
242 1 5.5816 10.5338 16.4076
243 3 4.70896 12.6173 14.2562
228 2 2.47698 11.9628 10.1401
218 2 11.5761 9.17278 16.7322
244 3 3.01702 12.0603 16.4423
229 2 3.2603 13.8228 9.81918
252 2 5.60498 9.81047 15.5329
74 1 10.3432 9.2594 16.6166
45 4 5.70602 13.6949 13.4951
219 2 7.60227 8.15471 12.4623
217 2 10.0364 9.63846 15.6376
230 2 3.51046 12.9656 11.5609
160 2 6.55249 14.5687 14.6924
249 2 3.66312 10.5784 12.9951
186 2 11.7305 7.83575 8.60586
138 3 8.23814 10.8632 8.49228
248 2 4.18233 9.34901 14.3632
ITEM: TIMESTEP
300
ITEM: NUMBER OF ATOMS
274
ITEM: BOX BOUNDS xy xz yz pp pp pp
-7.3914999999999997e+00 1.6478000000000002e+01 -7.3914999999999997e+00
0.0000000000000000e+00 1.5100700000000000e+01 9.9190000000000000e-01
0.0000000000000000e+00 1.6938710000000000e+01 1.0307999999999999e+00
ITEM: ATOMS id type x y z
152 2 6.57091 2.18018 8.28463
13 4 1.13518 1.99706 5.52211
15 4 -0.312493 4.46786 1.68633
108 3 4.40552 3.75181 8.20612
17 4 -0.322237 4.3392 7.24878
18 4 -1.90444 6.85888 5.42519
27 4 3.79458 2.67611 3.75672
28 4 6.39202 2.53869 0.588321
30 4 6.65032 2.52028 5.35011
33 4 4.88063 4.91091 2.21793
79 3 -0.073887 1.43479 4.45425
56 1 1.09216 3.28848 0.971283
58 1 1.01586 5.45737 7.97104
198 2 1.61895 7.22249 5.16491
65 1 6.36536 1.07009 6.62566
34 4 0.486074 7.15188 3.03807
163 2 4.50631 6.49004 5.58383
80 3 1.49705 0.859351 6.50332
195 2 5.50561 0.951624 7.30302
83 3 -1.31962 4.91359 0.538192
85 3 0.474594 3.27704 6.34258
86 3 -1.3519 5.52591 6.3465
96 3 2.45548 2.38622 4.60714
97 3 7.09757 1.17622 1.44293
82 3 -0.937643 3.41938 2.73831
100 3 5.19926 2.59104 4.50919
103 3 3.6069 3.97448 2.86963
200 2 2.78572 6.41757 3.76718
105 3 0.451747 5.78145 2.26574
107 3 4.11922 5.86055 1.09524
148 2 3.83922 1.40594 2.73425
208 2 3.60508 7.34715 7.67463
171 2 1.13291 2.35503 1.64043
172 2 2.06769 3.89357 0.90072
176 2 0.695842 6.5087 7.70867
177 2 1.93079 5.05462 7.44405
193 2 7.3848 1.00744 7.0372
36 4 5.97537 3.75599 7.95603
98 3 3.59657 0.969557 8.34882
67 1 2.06547 7.27227 4.13553
174 2 -2.7214 7.03252 1.52428
267 2 3.89755 1.35794 13.716
14 4 1.42803 2.51586 11.0367
19 4 0.899554 5.23162 12.9333
20 4 -0.522257 7.38824 10.8321
29 4 3.68326 2.3425 9.09762
31 4 4.75368 3.1904 15.6448
32 4 5.89057 2.59925 11.6523
35 4 4.49932 7.56097 16.722
37 4 5.44707 5.08561 13.2162
38 4 1.95443 7.17897 15.1045
183 2 -1.46032 5.85976 9.22084
61 1 -1.94055 6.67894 9.94078
66 1 4.33798 1.49572 14.7671
16 4 -0.755945 7.09864 16.3962
264 2 -1.50583 5.45838 13.105
87 3 1.37852 3.79742 12.026
88 3 0.467272 6.45387 11.7767
99 3 2.20441 2.82228 9.71325
101 3 6.04673 3.10612 16.6038
102 3 4.75535 2.04932 10.6087
178 2 1.03061 5.23937 9.15378
110 3 5.13655 4.14467 14.4328
111 3 5.82028 4.13203 11.7917
112 3 1.63443 5.88901 14.217
113 3 3.03731 6.95988 16.2377
124 3 7.32439 2.0058 11.4673
144 2 2.31757 1.24228 11.7723
182 2 -0.65404 4.85908 14.802
149 2 3.40189 3.80984 16.5127
150 2 5.45864 1.87087 13.1728
153 2 4.07112 5.9833 12.8339
196 2 3.52524 1.26726 15.6142
60 1 -0.789136 4.72745 13.6775
261 3 -2.05658 6.64846 15.388
197 2 5.35184 0.943937 14.9881
170 2 1.59838 4.22381 16.8602
81 3 -0.0518471 2.04927 10.7524
184 2 -2.65558 7.56183 9.35032
84 3 -1.03625 3.67685 8.51178
21 4 -2.45339 9.55677 7.08246
23 4 -3.57045 11.9131 5.53944
90 3 -5.80476 13.153 8.43622
39 4 -0.851152 12.154 3.90815
199 2 2.36218 8.32269 3.76018
238 4 0.861388 11.3342 0.553193
41 4 -1.37035 12.167 8.31242
89 3 -2.12135 8.21813 6.25223
91 3 -3.47362 10.4813 6.27054
92 3 -3.90733 13.0742 6.52988
11 4 -4.86991 13.9922 7.44736
115 3 -0.430211 13.6571 3.4695
116 3 -2.25283 12.0981 4.65635
117 3 0.959024 12.762 1.20588
118 3 -1.1599 10.6522 7.87487
120 3 0.258507 11.6931 4.87307
173 2 -1.64695 8.27288 0.614491
146 2 -4.86657 11.7656 4.47136
151 2 0.403592 8.41033 1.85222
155 2 -0.925668 11.1414 2.48664
156 2 -1.3978 13.1836 6.93733
70 1 3.8441 7.97306 6.74172
42 4 2.07678 11.4963 5.09306
207 2 3.18514 7.71867 5.77348
268 2 1.00502 10.1059 1.97055
240 1 -0.53344 9.92063 1.01597
269 2 -1.42059 9.82848 1.64802
194 2 -1.17261 14.3719 5.68587
246 2 -0.42006 9.00007 0.32128
57 1 -2.43303 7.42973 0.499472
121 3 2.40747 10.39 6.32079
40 4 3.03628 9.63449 7.55763
106 3 -0.843399 7.33373 4.05583
62 1 -3.68831 9.02679 8.45955
206 2 1.62629 7.988 8.32106
24 4 -1.39584 10.1989 12.3569
25 4 -3.41127 11.978 10.64
247 2 2.14591 9.93064 14.3919
63 1 -1.16263 10.2034 14.2342
64 1 -4.01282 13.6697 11.3917
69 1 1.62074 9.09654 8.77642
241 1 3.19881 10.1903 14.0066
93 3 -0.974619 8.90656 11.5926
249 2 3.25087 10.6517 12.9587
95 3 -2.46478 11.1854 11.7817
119 3 -2.41708 12.4689 9.38962
147 2 0.0240533 11.0358 12.938
205 2 2.20917 9.12937 9.7628
244 3 2.95269 11.8328 16.3006
175 2 -2.35531 8.8276 16.8648
188 2 -0.951259 11.2522 14.6081
189 2 -0.420562 9.36841 14.6693
190 2 -2.39014 9.85196 14.3547
191 2 -5.16182 13.6006 11.229
94 3 -4.80448 11.2341 10.0309
187 2 -3.45863 9.21504 9.59853
154 2 2.61299 8.35159 14.0884
266 2 -3.72851 13.4878 12.4659
145 2 0.235237 7.81906 9.29523
273 2 0.761924 13.7791 10.4549
157 2 0.166588 12.7003 8.81835
72 1 0.544965 14.5064 9.61949
192 2 -3.4857 14.6486 11.0105