ITEM: TIMESTEP
0
ITEM: NUMBER OF ATOMS
274
ITEM: BOX BOUNDS xy xz yz pp pp pp
-7.2508010000000001e+00 1.6478000000000002e+01 -7.2508010000000001e+00
0.0000000000000000e+00 1.5100700000000000e+01 9.9190000000000000e-01
0.0000000000000000e+00 1.6771000000000001e+01 1.0307999999999999e+00
ITEM: ATOMS id type x y z
58 1 1.85154 5.37881 8.12375
13 4 1.30522 1.85747 5.72135
15 4 -0.375117 3.98266 1.91553
200 2 2.61163 6.67371 3.14124
17 4 0.413041 4.49169 7.32891
18 4 -1.34654 6.72764 5.60536
27 4 3.78856 2.31665 3.73724
28 4 5.8922 2.36205 0.232016
30 4 6.47957 2.41051 5.47126
33 4 4.48314 4.60999 1.92071
34 4 0.344892 7.02927 2.77594
56 1 0.606104 2.84362 0.784288
106 3 -0.631898 7.25494 3.96875
36 4 5.92243 4.2765 7.76318
65 1 6.40638 0.639858 6.32595
177 2 2.83125 4.92 7.7068
193 2 6.22302 0.807467 7.45031
80 3 1.53194 0.613008 6.72143
82 3 -1.12756 3.08108 3.01298
83 3 -1.34957 4.67349 0.839292
85 3 1.13146 3.29578 6.58787
86 3 -0.410209 5.62954 6.41759
96 3 2.48581 1.94105 4.64345
97 3 6.55182 1.12358 1.0294
176 2 1.73743 6.4731 7.79873
100 3 5.05149 2.46812 4.79801
103 3 3.48792 3.55249 2.77901
104 3 5.70802 3.68789 1.14901
105 3 0.556819 5.478 2.4512
107 3 3.76608 5.4882 0.904481
148 2 4.10621 1.06628 2.69581
172 2 1.67991 3.35741 1.09947
171 2 0.513246 1.75313 1.05155
108 3 4.56314 3.67627 8.35028
79 3 -0.231307 1.4329 4.98214
61 1 -1.16049 6.59026 9.73492
14 4 1.70503 2.46856 11.1837
19 4 0.533251 4.45824 13.3528
20 4 -0.598435 7.05546 11.4813
29 4 3.91486 2.52216 9.30788
31 4 4.3297 3.0543 15.226
32 4 6.22852 2.68105 11.3458
196 2 4.33176 1.4405 13.3091
37 4 5.43746 5.15138 12.9071
38 4 1.75056 6.88354 14.8704
184 2 -0.731751 7.26389 8.96442
178 2 1.67322 5.19919 9.25017
66 1 3.94721 1.40259 14.3857
81 3 0.343447 2.10406 10.5138
170 2 1.23817 4.12325 16.5182
87 3 1.35739 3.2908 12.5497
88 3 -0.197124 5.72936 12.3433
99 3 2.65866 3.35297 10.2151
101 3 5.39579 2.77719 16.2762
102 3 4.97361 2.01414 10.6216
197 2 2.81581 1.46637 14.4338
110 3 4.79253 4.19085 14.1264
84 3 -0.640189 3.84108 8.74154
112 3 1.57522 5.16329 14.448
113 3 2.9649 7.20179 15.798
114 3 0.3705 7.37104 15.4279
144 2 2.5696 1.02646 11.5795
145 2 0.617442 7.40464 10.2641
149 2 2.91149 3.46587 16.1124
150 2 6.47537 1.78569 12.6518
153 2 4.14282 5.97141 12.2387
16 4 -0.802199 6.85955 16.4796
183 2 -1.0342 5.48665 9.39243
111 3 6.11925 4.21215 11.7465
35 4 4.34743 7.53939 16.5946
154 2 2.01974 7.66704 13.4353
98 3 3.31264 1.2121 8.60661
185 2 -2.34705 6.77914 9.98536
201 2 4.98066 6.37316 8.48456
21 4 -2.67178 9.49389 7.0226
23 4 -3.49534 12.1193 5.62136
117 3 0.813968 13.0942 0.681485
39 4 -0.789161 12.2336 4.03523
41 4 -0.969962 11.6801 8.34409
118 3 -1.58334 10.3494 7.81558
57 1 -2.15473 7.45475 0.751202
89 3 -1.99025 8.06739 6.29971
91 3 -3.57721 10.6129 5.88726
92 3 -3.67637 13.1542 6.8468
11 4 -4.74736 14.0136 7.80861
115 3 -0.696034 13.3797 2.93169
116 3 -2.1694 12.4011 4.86419
198 2 2.06238 7.4781 4.78528
174 2 -1.97026 7.30883 1.85965
120 3 0.526346 12.0537 4.86765
70 1 3.74416 8.53369 6.35819
146 2 -4.71208 12.4151 4.53962
151 2 -0.316458 7.79993 1.39018
155 2 -0.937355 10.8434 3.248
156 2 -1.07067 12.9338 7.15717
173 2 -1.69116 8.35415 0.231881
207 2 3.08839 8.34351 5.39226
175 2 -3.33532 7.35673 0.510415
240 1 1.0925 10.1823 0.667503
268 2 1.52536 10.5275 1.82341
262 2 3.31824 8.00743 0.6418
199 2 2.03706 8.53797 3.05988
67 1 1.99757 7.47841 3.62082
205 2 0.827447 9.76283 8.09327
208 2 3.43388 7.76573 7.21017
121 3 2.57936 11.0952 6.34007
195 2 -1.84295 14.392 5.85894
26 4 0.188903 14.1512 1.82967
194 2 0.0375073 14.1978 5.8453
269 2 -0.00182143 9.85717 0.688698
246 2 1.77522 9.42267 0.190466
222 2 3.57634 8.40325 2.5066
24 4 -2.10157 9.45978 12.913
25 4 -2.98961 11.7528 10.6426
93 3 -1.36329 8.21932 12.209
63 1 -2.44028 9.72922 14.834
64 1 -3.5504 13.4429 11.4108
69 1 1.77764 9.92704 8.74371
90 3 -5.71375 13.1728 8.86886
267 2 -2.98409 14.6365 15.0705
94 3 -4.33058 11.1904 9.84699
95 3 -2.65913 10.71 11.7729
119 3 -1.59328 12.0874 9.74891
147 2 -0.771276 9.97264 13.9868
204 2 2.04502 8.94881 9.20855
157 2 0.707791 11.5248 8.44571
206 2 1.65459 10.663 9.60897
188 2 -1.97586 9.44207 15.8938
187 2 -3.43817 9.13822 9.22027
190 2 -2.95726 10.6824 14.8495
191 2 -3.10145 13.2486 12.4781
192 2 -4.68259 13.4015 11.3824
245 2 1.54611 11.9501 15.669
266 2 -3.10886 14.4694 11.0276
228 2 2.32 11.8534 9.89777
238 4 2.56184 12.9158 16.7533
1 4 13.9629 1.76096 3.96554
179 2 12.9884 4.71586 5.46557
3 1 12.2923 2.18337 4.85883
72 1 8.99559 1.64395 8.00818
5 3 13.4261 0.602582 2.95964
6 2 12.2342 0.440213 0.481797
7 2 11.5432 1.2066 5.01967
8 2 11.9717 2.97563 4.01845
9 2 12.6469 2.68763 5.82374
213 2 7.95528 1.32934 7.39073
203 2 5.52538 5.95199 6.52767
43 4 8.94242 2.234 3.41232
47 4 8.39456 4.91134 2.29113
48 4 5.85854 7.03051 3.9869
273 2 9.88412 0.924023 7.86023
122 3 8.90153 0.88661 2.58694
123 3 7.72316 2.21796 4.41949
128 3 9.12686 3.5833 2.58065
235 2 11.0761 3.46228 0.358935
130 3 8.53016 5.70883 0.996146
158 2 10.3869 2.11578 4.17307
161 2 8.70296 5.95536 3.58363
162 2 6.7367 4.76343 2.7179
159 2 9.30783 2.8335 7.81376
166 2 7.77542 6.22053 7.27808
59 1 12.5387 5.786 5.23675
263 2 11.7554 6.08918 5.90532
256 2 12.7901 0.879162 6.25004
129 3 5.53006 5.68039 3.17571
131 3 7.10527 7.04639 4.84626
50 4 7.9782 7.35012 6.01559
180 2 12.4287 6.0135 4.13264
165 2 9.59548 7.07058 5.59633
109 3 6.81326 3.52376 6.69348
152 2 6.49712 7.33532 7.77717
10 2 14.505 0.596619 0.033836
68 1 5.91064 6.26518 7.8903
44 4 8.87665 1.98762 9.85677
264 2 13.834 3.51382 13.4446
46 4 11.8868 2.15932 11.3965
49 4 9.587 7.51263 16.1202
51 4 6.67106 7.5342 14.515
127 3 12.2326 0.896836 12.3525
181 2 14.7962 2.36034 14.6601
73 1 11.3807 3.78383 12.461
237 2 10.3073 4.7123 16.6412
125 3 13.1331 2.54705 10.4796
126 3 10.3558 2.05179 10.6019
232 1 11.3493 4.53702 16.2604
132 3 6.4076 6.21928 13.4723
133 3 8.11402 7.46898 15.3552
134 3 5.41069 7.9403 15.5229
259 2 7.29535 3.86212 14.6075
12 4 14.5318 2.45025 9.52284
202 2 7.03996 5.15988 8.89956
214 2 12.1792 4.42626 11.934
215 2 11.5622 3.43586 13.5103
216 2 10.3356 4.16937 12.3114
182 2 14.3741 4.20056 15.0913
231 4 12.015 5.77054 15.0215
160 2 14.7237 1.87067 13.0477
233 3 10.6865 6.80087 15.1565
234 2 12.2606 5.29642 13.319
124 3 7.54572 2.53083 10.4625
236 2 11.4199 3.58527 15.5874
254 3 14.1727 1.36274 8.40383
260 2 8.8875 3.3067 15.4376
257 1 7.96272 3.95252 15.5165
60 1 14.6368 3.42942 14.2729
261 3 13.354 6.30173 15.6525
258 2 8.22286 5.03698 15.7481
226 2 8.44126 11.0775 5.11943
52 4 4.11818 11.0151 2.62455
53 4 7.72432 10.3081 7.23385
271 2 7.45427 12.7668 0.605691
2 4 5.77465 13.6381 1.84013
71 1 2.98381 13.706 5.07322
4 1 6.68369 13.7075 0.195039
76 1 4.40295 9.05774 1.96409
77 1 7.98085 11.6841 5.90869
255 2 7.44662 13.3106 6.85303
135 3 4.99877 12.3368 2.21664
136 3 2.88302 11.3371 3.55205
137 3 7.9532 8.81903 6.6097
42 4 2.13629 11.9443 5.02202
227 2 8.58662 12.5931 6.15609
164 2 5.98909 8.4424 2.91032
168 2 6.07953 10.3844 7.77205
139 3 4.49216 10.6786 8.20839
186 2 11.3453 7.85185 7.92247
250 2 5.17524 9.59744 0.167534
209 2 4.83146 8.68175 6.19979
210 2 3.04982 13.87 3.94739
211 2 3.94798 13.5736 5.59098
217 2 9.18035 8.3636 0.58681
253 4 6.29171 14.2659 7.61216
167 2 3.51292 10.2061 1.01032
223 2 5.39904 9.92618 3.30647
224 2 5.09303 8.44009 1.34309
225 2 6.80702 11.8044 5.76522
62 1 11.4536 8.93533 8.24837
265 2 10.4615 9.59252 8.17757
140 3 5.21891 13.4484 8.35861
163 2 4.4732 7.34141 4.93515
212 2 2.18524 14.246 5.6648
138 3 8.81 10.7044 8.31482
40 4 3.25936 10.0673 7.45846
22 4 9.63631 11.6436 9.47186
54 4 4.9817 12.196 9.39231
55 4 7.34627 12.0891 11.444
75 1 6.77815 9.10619 13.4113
218 2 9.34022 9.88003 15.6958
272 2 1.59602 14.3721 9.41708
189 2 12.1401 8.62974 14.3319
141 3 8.84592 11.7115 10.8352
142 3 6.15017 11.8122 10.4398
143 3 7.22897 13.5546 11.9883
169 2 7.10835 10.9209 12.6688
274 2 11.2415 9.48729 15.7049
270 2 7.13743 14.3792 16.0324
221 2 5.82556 10.003 13.5885
230 2 3.58985 12.2228 11.2978
239 4 5.39587 12.4514 15.1281
241 1 4.43067 11.391 13.8879
242 1 6.53842 11.1735 15.8534
243 3 6.34549 13.9837 14.3964
244 3 4.07062 12.9543 16.2545
248 2 4.79123 11.4478 12.8315
247 2 4.25894 10.2902 14.218
229 2 3.13166 13.5335 10.0409
252 2 6.75531 10.4197 14.9761
45 4 6.44415 14.5285 12.9356
220 2 7.79401 9.5186 13.5622
219 2 6.58333 8.63672 12.3678
78 1 3.31187 12.4496 10.2107
249 2 3.41296 12.0145 14.0539
74 1 10.1392 9.3023 16.1948
251 2 7.39556 11.9191 16.0757
ITEM: TIMESTEP
100
ITEM: NUMBER OF ATOMS
274
ITEM: BOX BOUNDS xy xz yz pp pp pp
-7.2508010000000001e+00 1.6478000000000002e+01 -7.2508010000000001e+00
0.0000000000000000e+00 1.5100700000000000e+01 9.9190000000000000e-01
0.0000000000000000e+00 1.6771000000000001e+01 1.0307999999999999e+00
ITEM: ATOMS id type x y z
58 1 1.71521 5.54385 8.07696
13 4 1.13784 1.81035 5.57844
15 4 -0.327024 3.98805 1.79613
200 2 2.60207 6.92522 2.9829
17 4 0.376385 4.53653 7.26511
18 4 -1.47817 6.75446 5.49067
27 4 3.74267 2.3652 3.68573
28 4 5.71541 2.21256 0.242135
30 4 6.48918 2.26478 5.3801
33 4 4.37946 4.57487 1.87588
34 4 0.164495 6.91766 2.75416
56 1 0.861375 2.77542 0.860644
106 3 -0.88898 7.08686 3.90392
36 4 5.68538 4.31054 7.5825
65 1 6.4798 0.696096 6.52606
177 2 2.69767 5.16705 7.63096
193 2 6.6493 1.0645 7.60355
80 3 1.37235 0.541294 6.63244
82 3 -1.07107 3.13009 2.92979
83 3 -1.33606 4.60582 0.667497
85 3 0.969037 3.27726 6.50146
86 3 -0.532356 5.6281 6.42984
96 3 2.42872 1.9792 4.59965
97 3 6.74028 1.22971 1.06614
176 2 1.47216 6.6516 7.90237
100 3 5.14903 2.34479 4.48607
103 3 3.43988 3.82687 3.01389
104 3 5.37889 3.4812 1.13152
105 3 0.576401 5.38857 2.41146
107 3 3.65883 5.4525 0.769588
148 2 3.85648 1.18435 2.54149
172 2 1.80198 3.4166 0.822619
171 2 1.05568 1.8014 1.40061
203 2 4.57468 5.64003 6.54991
79 3 -0.235372 1.6335 4.89264
26 4 7.71667 0.12953 1.75406
61 1 -1.21499 6.64156 9.91733
14 4 1.6254 2.32816 11.1877
19 4 0.568376 4.39909 13.3659
20 4 -0.654717 6.88351 11.7335
29 4 3.8982 2.39985 9.39691
31 4 4.17593 3.11025 15.0891
32 4 6.21529 2.73589 11.3575
196 2 3.74941 1.54552 13.1552
37 4 5.33252 5.17835 13.0323
38 4 1.75917 6.89043 14.8195
184 2 -0.739467 7.4317 9.21663
178 2 1.60971 5.24884 9.18208
66 1 3.62156 1.53834 14.2527
81 3 0.389246 1.88195 10.3441
170 2 1.30061 3.65729 16.6423
87 3 1.25825 3.19353 12.5957
88 3 -0.236003 5.45806 12.4736
99 3 2.60382 3.21497 10.2329
101 3 5.35136 2.64394 16.3088
102 3 4.94475 1.94238 10.7505
197 2 2.48132 1.64403 14.6226
110 3 4.83143 4.08835 14.0705
84 3 -0.563488 3.94321 8.77939
112 3 1.54276 5.28247 14.4573
113 3 3.02674 7.21724 15.6427
114 3 0.403716 7.49462 15.5022
144 2 2.37585 0.891966 11.5944
145 2 0.506006 7.37288 10.5549
149 2 2.83011 3.93587 15.9016
150 2 6.46548 1.91729 12.8225
153 2 4.04031 5.9419 12.4317
16 4 -0.824608 6.89826 16.4423
183 2 -1.04794 5.58792 9.5645
111 3 5.92323 4.31068 11.7893
35 4 4.34857 7.60973 16.5499
154 2 1.89899 7.78016 13.3864
98 3 3.37842 1.19853 8.45563
185 2 -2.40088 6.82518 10.2273
201 2 4.75115 6.44755 8.61998
259 2 7.41535 3.13535 14.6256
108 3 4.65451 3.4106 8.44406
21 4 -2.66695 9.56777 6.97121
23 4 -3.36636 12.1316 5.67101
205 2 0.832304 10.0128 8.09143
39 4 -0.657271 12.2171 4.06941
194 2 0.0817014 14.1097 6.09702
118 3 -1.48128 10.372 7.76879
57 1 -2.38566 7.44457 0.724037
89 3 -1.7945 8.11851 6.27868
91 3 -3.58156 10.5287 5.92005
92 3 -3.7102 13.0437 6.9458
11 4 -4.77656 14.0659 7.73111
115 3 -0.383708 13.292 2.91904
116 3 -2.00568 12.4497 4.93928
198 2 1.96269 7.86441 4.66587
174 2 -2.28488 7.39191 1.87672
120 3 0.610331 12.1787 4.99524
70 1 3.70212 8.4392 6.33263
146 2 -4.54268 12.4349 4.49937
151 2 -0.482187 7.67158 1.31556
155 2 -0.788976 10.778 3.31207
156 2 -1.20025 12.9901 7.34707
173 2 -1.89496 8.38355 0.323143
207 2 3.04241 8.42024 5.32338
175 2 -3.53268 7.32904 0.454329
240 1 0.807625 10.2901 0.759997
268 2 1.1223 10.6185 1.8786
262 2 3.19105 8.02915 0.703849
199 2 1.67964 8.69936 2.89952
67 1 1.79477 7.6705 3.44176
269 2 -0.292447 10.2609 0.618538
208 2 3.3731 7.69312 7.2049
222 2 3.48597 8.41959 2.52953
246 2 1.35637 9.37226 0.383164
195 2 -1.81554 14.3801 6.26487
24 4 -2.06074 9.49478 12.9655
25 4 -3.08715 11.7138 10.6809
93 3 -1.31378 8.20158 12.3729
63 1 -2.53175 9.85191 14.7932
64 1 -3.77365 13.3025 11.5713
69 1 1.82687 9.99546 8.67606
90 3 -5.59463 13.2808 8.86035
267 2 -2.94015 14.8061 14.6912
94 3 -4.22417 11.1527 9.76242
95 3 -2.71657 10.6919 11.754
119 3 -1.58899 12.1221 9.80814
147 2 -0.846904 10.2823 14.0077
204 2 1.89723 9.00566 9.22535
266 2 -3.27697 14.227 11.137
206 2 1.94426 10.9016 9.40954
188 2 -2.05113 9.3268 15.8012
187 2 -3.32374 8.90019 9.25553
190 2 -3.03128 10.8761 14.9147
191 2 -3.54343 13.1087 12.6771
192 2 -4.85675 13.2017 11.3715
245 2 1.40843 12.2046 15.7906
157 2 0.777539 11.7008 8.49984
41 4 -0.961791 11.6769 8.42595
228 2 2.60918 11.7189 10.382
1 4 14.0979 1.75219 3.85122
179 2 12.5215 4.9958 5.7336
3 1 12.4054 2.07297 4.92569
72 1 9.165 1.80647 7.97826
5 3 13.8209 0.392389 3.04588
6 2 12.2713 0.565392 0.785355
7 2 11.5947 1.16197 5.03231
8 2 12.1454 2.90444 4.13241
9 2 12.6834 2.51869 5.91229
213 2 8.16923 1.34638 7.34858
212 2 9.54304 0.397387 5.51919
43 4 9.05721 2.34717 3.44432
47 4 8.44963 5.1086 2.55418
48 4 5.87162 7.09278 3.90127
273 2 10.1254 1.23914 7.67824
122 3 8.93649 1.04434 2.51573
123 3 7.86412 2.28242 4.63262
128 3 9.12875 3.73921 2.7116
235 2 11.1547 3.30755 0.363643
130 3 8.40822 5.74321 1.08119
158 2 10.5522 2.29631 4.23202
161 2 9.04265 6.26546 3.70311
162 2 6.79501 4.94679 3.01395
159 2 9.32729 3.04415 7.90967
166 2 7.44451 6.34209 7.47386
59 1 12.3221 5.93939 5.12814
263 2 11.5733 6.69808 5.5723
256 2 13.0325 0.704714 6.20646
129 3 5.42234 5.80382 3.04176
131 3 7.08232 7.01526 4.84924
50 4 7.86713 7.32661 6.16341
180 2 12.271 5.87054 4.01261
165 2 9.45512 6.73951 6.04991
109 3 6.65123 3.63407 6.57518
152 2 5.88082 7.28138 7.51935
68 1 5.51315 6.24827 7.79304
44 4 8.90927 1.89062 9.81348
264 2 13.8897 3.19091 13.7664
46 4 11.8929 2.22243 11.3122
49 4 9.47338 7.52804 16.1419
51 4 6.67971 7.56785 14.5531
127 3 12.2881 0.914898 12.3814
181 2 15.2759 2.5889 14.9429
73 1 11.7839 3.77791 12.4054
237 2 10.2882 4.5506 16.6006
125 3 13.1791 2.71184 10.3647
126 3 10.3935 2.10537 10.5274
232 1 11.3909 4.35949 16.2816
132 3 6.27001 6.2603 13.6765
133 3 8.07733 7.55035 15.3445
134 3 5.52659 7.89462 15.5941
10 2 15.202 1.95629 16.7599
12 4 14.6164 2.50298 9.48471
202 2 6.65185 5.36889 8.82502
214 2 12.6918 4.37058 11.966
215 2 11.9557 3.46059 13.5184
216 2 10.7103 4.19502 12.1317
182 2 14.5298 4.31379 15.2758
231 4 11.9525 5.79683 15.2067
160 2 14.6744 1.82001 13.3525
233 3 10.6443 6.88961 15.2028
234 2 12.3908 5.21032 13.6276
124 3 7.4815 2.46834 10.4452
236 2 11.5121 3.49018 15.5692
254 3 14.197 1.33746 8.44295
260 2 8.84351 3.67321 15.6967
257 1 7.72417 3.78149 15.479
60 1 14.7856 3.46141 14.4612
261 3 13.2853 6.30247 15.82
258 2 7.41865 4.85646 15.3147
226 2 8.37158 11.0062 4.99254
52 4 4.10646 10.9798 2.52604
53 4 7.8257 10.3268 7.21366
271 2 7.69714 13.1284 0.681951
2 4 5.97837 13.6116 1.90449
71 1 3.08876 13.6816 5.37337
4 1 6.60434 13.9339 0.118886
76 1 4.35689 9.01061 1.98178
77 1 8.02561 11.6835 5.85869
255 2 7.73164 13.1342 7.20857
135 3 5.11938 12.2158 2.15752
136 3 2.90502 11.3003 3.54864
137 3 7.87962 8.85471 6.64908
42 4 2.27741 11.9898 4.95272
227 2 8.7357 12.5059 6.1198
164 2 5.993 8.3575 2.80578
168 2 6.19178 10.4271 7.78376
139 3 4.70002 10.517 8.2523
186 2 11.6513 7.66881 7.84531
250 2 5.24308 9.75132 0.252
209 2 4.79218 8.5154 6.21497
210 2 3.71506 13.7921 4.44828
211 2 3.68278 13.381 6.3404
217 2 9.30759 8.38891 0.575489
253 4 6.50005 14.171 7.6543
167 2 3.5339 10.0654 0.941883
223 2 5.08216 9.77022 3.51485
224 2 5.08856 8.36171 1.3573
225 2 6.87305 11.9433 5.87906
62 1 11.6357 8.76796 8.25381
265 2 10.5349 9.22073 8.32703
140 3 5.29724 13.3309 8.2995
163 2 4.53363 7.72157 4.69645
117 3 1.11172 13.2454 0.721353
138 3 8.81792 10.8258 8.31084
40 4 3.35482 9.97793 7.39738
121 3 2.88309 11.0626 6.228
238 4 1.64039 11.8778 0.0596581
22 4 9.58677 11.7283 9.37949
54 4 5.01317 12.1269 9.32396
55 4 7.25925 12.1561 11.3929
75 1 6.81987 9.22294 13.4282
218 2 9.17845 9.84007 15.8585
251 2 7.51954 11.7718 15.8988
189 2 11.991 8.8723 14.2743
141 3 8.74585 11.7364 10.7512
142 3 6.12733 11.8809 10.3727
143 3 7.30863 13.5813 12.0646
169 2 7.08313 10.9705 12.6715
274 2 11.1309 9.59289 15.6344
270 2 7.0775 14.5949 15.9151
221 2 5.88889 9.98784 13.6214
230 2 3.71467 12.7927 11.3564
239 4 5.35535 12.4475 15.1846
241 1 4.44949 11.4195 13.8206
242 1 6.55666 11.2151 15.9311
243 3 6.31635 13.8728 14.4259
244 3 4.06327 12.7026 16.2344
248 2 5.12368 11.394 12.8962
247 2 4.20518 10.4029 14.2136
229 2 3.13303 13.4425 9.8437
252 2 6.689 10.3697 15.1693
45 4 6.44312 14.5157 13.0038
220 2 7.81543 9.5371 13.6455
219 2 6.74025 8.57768 12.4419
78 1 3.40738 12.4864 10.3275
249 2 3.55753 12.0375 13.6233
74 1 10.1308 9.31807 16.214
272 2 1.1657 14.4304 9.11752
ITEM: TIMESTEP
200
ITEM: NUMBER OF ATOMS
274
ITEM: BOX BOUNDS xy xz yz pp pp pp
-7.2508010000000001e+00 1.6478000000000002e+01 -7.2508010000000001e+00
0.0000000000000000e+00 1.5100700000000000e+01 9.9190000000000000e-01
0.0000000000000000e+00 1.6771000000000001e+01 1.0307999999999999e+00
ITEM: ATOMS id type x y z
58 1 1.66931 5.70611 7.82018
13 4 1.25246 1.90259 5.61143
15 4 -0.361465 3.99647 1.77337
200 2 2.5927 6.9786 2.97121
17 4 0.337518 4.54012 7.25442
18 4 -1.68958 6.70074 5.43702
27 4 3.68897 2.37909 3.70073
28 4 5.71366 2.17573 0.310745
30 4 6.49272 2.33507 5.33634
33 4 4.36231 4.6327 1.95525
34 4 0.19022 6.80105 2.84432
56 1 1.03195 2.83296 1.0055
106 3 -0.760027 6.79221 4.08658
36 4 5.41183 4.34266 7.50064
65 1 6.43945 0.819524 6.55521
177 2 2.57605 5.07173 7.4164
193 2 6.41242 1.28159 7.60039
80 3 1.62182 0.609013 6.52612
82 3 -1.17463 2.97693 2.73928
83 3 -1.26034 4.68422 0.632891
85 3 1.05007 3.3891 6.49931
86 3 -0.729738 5.60539 6.4928
96 3 2.36615 1.97741 4.57953
97 3 6.636 1.14151 1.09424
176 2 1.53519 6.68602 7.2438
100 3 5.11462 2.30823 4.44608
103 3 3.47401 3.82847 3.07022
104 3 5.38603 3.48153 1.19069
105 3 0.488523 5.32187 2.38074
107 3 3.56078 5.43665 0.892607
148 2 3.70592 1.29103 2.43082
172 2 1.97459 3.50895 0.99148
171 2 1.2318 1.87608 1.57501
203 2 4.27003 5.68162 6.76113
79 3 -0.14847 1.67512 4.90206
174 2 -2.41387 7.08844 1.98977
195 2 5.36597 0.506201 6.16381
109 3 6.26295 3.60618 6.29188
170 2 0.503856 2.64792 0.0256094
61 1 -1.33369 6.3892 10.0237
14 4 1.53245 2.28541 11.2362
19 4 0.579057 4.4222 13.5303
20 4 -0.812869 6.77158 11.7975
29 4 3.88072 2.30785 9.47892
31 4 4.14437 3.09221 15.1555
32 4 6.26968 2.73919 11.3745
196 2 3.59307 2.09516 13.0309
37 4 5.30965 5.02379 12.8524
38 4 1.71901 6.88634 14.8781
184 2 -1.12026 7.37584 9.51559
178 2 1.61139 5.7625 8.94583
66 1 3.39299 1.75013 14.1062
81 3 0.13071 2.12135 10.5817
201 2 4.6901 6.30019 8.94174
87 3 1.27981 3.22699 12.6673
88 3 -0.297757 5.4468 12.6613
99 3 2.60026 3.03302 10.2892
101 3 5.11357 2.46105 16.2634
102 3 4.97495 1.79747 10.7191
197 2 2.31989 1.8771 14.4399
110 3 4.83596 4.01492 13.9788
84 3 -0.584826 3.81574 8.71627
112 3 1.64368 5.31538 14.4338
113 3 2.89526 7.24673 15.8094
114 3 0.271206 7.37061 15.5067
259 2 7.02525 3.46836 14.7533
145 2 0.3284 7.29916 10.5843
149 2 3.02274 4.09017 16.0855
150 2 6.54142 2.04477 12.9931
153 2 3.94924 5.79317 12.3549
16 4 -0.867995 6.87773 16.4828
183 2 -1.04553 5.40045 9.46005
111 3 5.98506 4.27391 11.537
35 4 4.18008 7.61582 16.6292
154 2 2.00729 7.80501 13.4467
98 3 3.38824 1.096 8.54832
108 3 4.69326 3.36349 8.42225
21 4 -2.41999 9.49698 7.03868
23 4 -3.28329 12.1558 5.49144
205 2 0.877578 9.99046 8.25044
39 4 -0.479302 12.3693 4.1103
194 2 0.121043 14.2662 6.33349
118 3 -1.3816 10.4219 7.92092
57 1 -2.4631 7.30863 0.90917
89 3 -2.01619 8.22693 6.18928
91 3 -3.33998 10.6872 6.04388
92 3 -3.5797 13.0909 6.7649
11 4 -4.61501 14.0333 7.60672
115 3 -0.163071 13.4432 3.05559
116 3 -1.8987 12.4405 4.78345
198 2 1.84807 7.97701 4.40331
62 1 -3.66831 8.71918 8.27123
120 3 0.725076 12.3975 5.17979
70 1 3.4908 8.36082 6.34949
146 2 -4.55045 12.3791 4.38194
151 2 -0.650935 7.63293 1.47594
155 2 -0.398971 10.8391 3.30894
156 2 -0.87588 13.058 7.32523
173 2 -2.01993 8.26068 0.597532
207 2 2.92077 8.07061 5.41358
175 2 -3.53654 7.25862 0.50865
240 1 0.693712 10.3959 0.771137
268 2 1.5228 10.2653 1.67934
262 2 3.02299 8.00136 0.797627
199 2 1.65437 8.61133 2.58036
67 1 1.78821 7.72492 3.33639
269 2 -0.334628 10.716 1.17099
208 2 3.15642 7.66619 7.22611
222 2 3.39442 8.57898 2.46836
246 2 0.62032 9.46183 0.129407
24 4 -2.11569 9.46568 13.0355
25 4 -3.02178 11.7616 10.72
93 3 -1.40333 8.14518 12.4783
63 1 -2.57416 9.75606 14.9283
64 1 -3.6807 13.3882 11.4951
69 1 1.88388 9.96267 8.72174
90 3 -5.62501 13.2845 8.62783
267 2 -3.43555 14.8075 14.473
94 3 -4.32949 11.2087 9.78193
95 3 -2.52728 10.5515 11.9849
119 3 -1.77597 12.2437 9.80569
147 2 -0.939636 10.2451 14.2822
204 2 2.20609 8.91874 9.0339
266 2 -3.12674 14.3939 11.2712
206 2 2.01203 10.6754 9.55935
188 2 -2.25136 9.19755 15.8755
187 2 -3.29515 8.91511 9.32135
190 2 -2.8791 10.815 15.1571
191 2 -3.57349 13.0442 12.597
192 2 -4.72449 13.3802 11.1115
245 2 1.18486 12.5256 16.0252
157 2 0.681835 11.6172 8.79086
41 4 -0.973048 11.8037 8.52594
228 2 2.72505 11.5534 10.3543
144 2 -5.05382 14.7881 11.736
1 4 14.2163 1.76822 3.79344
179 2 12.1012 5.16873 6.04012
3 1 12.553 2.08042 4.8584
72 1 9.0381 2.09516 7.99013
5 3 13.8999 0.359138 2.88487
6 2 12.102 0.436734 0.791918
7 2 11.791 1.12639 4.99542
8 2 12.2089 2.95451 4.20573
9 2 13.1366 2.44204 5.80305
213 2 8.10325 1.62398 7.41133
212 2 9.84581 0.385186 5.21852
43 4 9.21557 2.41771 3.46152
47 4 8.41632 5.10247 2.44645
48 4 5.74861 7.14991 3.84482
273 2 9.98076 1.68838 7.55767
122 3 9.03447 1.15946 2.47528
123 3 7.92528 2.31569 4.63464
128 3 9.22026 3.78698 2.75183
235 2 11.6988 2.89615 0.0437116
130 3 8.52223 5.90751 1.05305
158 2 10.7474 2.00473 4.08632
161 2 8.62705 6.25454 3.68585
162 2 6.74686 4.9325 2.76624
159 2 8.99249 3.37137 8.01555
166 2 7.15527 6.49995 7.28358
59 1 12.1129 5.93071 5.1826
263 2 11.3717 6.79324 5.3319
256 2 13.1237 0.551507 5.98166
129 3 5.32734 5.79351 2.9795
131 3 7.04152 7.09736 4.66426
254 3 14.2002 1.23088 8.29516
180 2 12.0858 5.37793 4.12293
165 2 9.1902 6.56765 5.93342
26 4 7.82239 0.218862 1.91818
152 2 5.72522 7.29619 7.77196
68 1 5.3556 6.26143 8.01863
237 2 9.97402 3.45423 0.294218
44 4 9.01824 2.04035 9.84735
264 2 13.9038 3.32008 14.2439
46 4 11.9789 2.2208 11.304
49 4 9.54836 7.53477 16.2633
51 4 6.56733 7.62564 14.6633
127 3 12.4577 0.98265 12.3282
181 2 15.3436 2.4768 15.1739
73 1 11.7942 3.74998 12.5355
261 3 13.2957 6.38566 15.7038
125 3 13.1034 2.67521 10.315
126 3 10.5347 2.03126 10.5226
232 1 11.742 4.27988 16.3035
132 3 6.20973 6.16837 13.548
133 3 8.06697 7.58215 15.4465
185 2 12.9577 6.41499 10.4217
258 2 7.66398 4.98497 15.725
12 4 14.4976 2.41654 9.49125
202 2 6.6845 5.40585 8.62338
214 2 12.7259 4.30391 12.2127
215 2 11.7782 3.39745 13.5904
216 2 10.8539 4.3215 12.2707
60 1 14.8923 3.47095 14.7506
231 4 11.9714 5.73202 15.1858
160 2 14.7096 1.89247 13.5516
233 3 10.6591 6.71843 15.4846
234 2 12.0878 5.43728 13.4567
124 3 7.722 2.44152 10.7084
236 2 11.3731 3.53358 15.4562
10 2 15.2343 1.79968 16.6316
260 2 8.71906 3.43753 15.6613
257 1 7.65701 3.85966 15.6413
182 2 14.7121 4.18043 15.5416
134 3 5.3814 7.98341 15.6251
226 2 8.16578 11.0588 4.6406
52 4 4.16012 11.0021 2.52402
53 4 7.82239 10.3265 7.03793
271 2 7.53574 13.0916 0.161571
2 4 5.91489 13.5459 1.77466
71 1 3.33 13.5905 5.21405
4 1 6.59245 13.81 0.0361054
76 1 4.3304 9.07386 1.88583
77 1 7.96789 11.5786 5.61385
255 2 7.67966 13.127 6.85919
135 3 5.28484 12.1113 2.14695
136 3 2.88022 11.4014 3.36937
137 3 7.88903 8.92581 6.33443
42 4 2.33452 11.9775 4.98957
227 2 8.82155 12.3102 5.91248
164 2 5.98401 8.51888 2.73402
168 2 6.18421 10.2987 7.73211
139 3 4.69648 10.4845 8.2154
186 2 11.9184 7.5909 8.05732
250 2 5.15928 9.69289 0.147026
209 2 4.64855 8.40661 6.28029
210 2 4.08551 13.6168 4.39808
211 2 3.80724 13.4256 6.26319
217 2 9.19435 8.33915 0.775688
253 4 6.43947 14.1072 7.50085
167 2 3.53969 10.2033 0.837257
223 2 4.97318 9.63394 3.50105
224 2 4.93435 8.30141 1.38075
225 2 6.82763 11.9218 5.75741
121 3 2.84478 11.036 6.13516
265 2 10.7658 9.08106 8.04398
140 3 5.40683 13.2237 8.19923
163 2 4.39196 7.62729 4.73956
117 3 1.34436 13.2739 0.866074
138 3 8.77603 10.8 8.17545
40 4 3.3102 10.0191 7.31204
50 4 7.78796 7.4324 5.94415
238 4 1.61229 11.9386 0.107859
22 4 9.68931 11.7874 9.32359
54 4 4.99816 12.1444 9.26572
55 4 7.39639 12.1192 11.5576
75 1 6.90138 9.08557 13.4905
218 2 9.20795 9.98779 16.0721
251 2 7.44479 11.9065 15.9679
189 2 11.7242 8.9946 14.1733
141 3 8.81978 11.8775 10.8183
142 3 6.17299 11.9875 10.5799
143 3 7.40614 13.4878 12.3389
169 2 7.22468 10.9369 12.832
274 2 11.0963 9.52648 15.7797
270 2 6.89569 14.4598 15.8698
221 2 5.96144 9.89722 13.5152
230 2 3.63254 13.106 10.9675
239 4 5.24521 12.3347 15.1401
241 1 4.60963 11.4106 13.5013
242 1 6.56352 11.1877 15.904
243 3 5.98013 13.7367 14.5503
244 3 3.94477 12.5666 16.0213
248 2 5.38718 11.4891 12.6956
247 2 4.26376 10.3454 13.7879
229 2 2.7731 13.0734 9.26421
252 2 6.79854 10.3563 15.0172
45 4 6.50164 14.5568 13.071
220 2 7.88846 9.53558 13.7644
219 2 6.86038 8.53164 12.4575
78 1 3.37126 12.5009 10.0676
249 2 3.73077 12.0904 13.3443
74 1 10.0641 9.37552 16.3758
272 2 1.63487 14.5525 9.09579
ITEM: TIMESTEP
300
ITEM: NUMBER OF ATOMS
274
ITEM: BOX BOUNDS xy xz yz pp pp pp
-7.2508010000000001e+00 1.6478000000000002e+01 -7.2508010000000001e+00
0.0000000000000000e+00 1.5100700000000000e+01 9.9190000000000000e-01
0.0000000000000000e+00 1.6771000000000001e+01 1.0307999999999999e+00
ITEM: ATOMS id type x y z
58 1 1.44952 5.83445 7.88313
13 4 1.40953 1.99875 5.58168
15 4 -0.288372 3.86396 1.76069
200 2 2.65487 6.76032 3.11321
17 4 0.244327 4.50928 7.2925
18 4 -1.64142 6.6233 5.6772
27 4 3.7833 2.25623 3.5726
28 4 5.74632 2.26982 0.337218
30 4 6.44641 2.43768 5.34989
33 4 4.35972 4.66191 1.96094
34 4 0.12287 6.7605 2.94999
56 1 1.00447 2.82808 0.83035
106 3 -0.899385 6.84195 4.09717
36 4 5.38122 4.34698 7.62678
65 1 6.60345 0.879024 6.5603
177 2 2.41506 5.45114 7.34249
193 2 6.34076 1.38091 7.55489
80 3 1.66884 0.885192 6.75912
82 3 -0.966196 2.97999 2.86004
83 3 -1.37275 4.49208 0.62471
85 3 1.07449 3.38318 6.30366
86 3 -0.976239 5.40367 6.50469
96 3 2.57807 2.00506 4.54355
97 3 6.69113 1.13611 0.987651
176 2 1.08399 6.83341 7.56714
100 3 5.15713 2.00827 4.34839
103 3 3.44084 3.76136 2.87949
104 3 5.28482 3.49901 1.14451
105 3 0.516336 5.34141 2.47205
107 3 3.58065 5.56939 0.895641
148 2 3.74357 1.10222 2.32385
172 2 1.83025 3.68638 0.743793
171 2 1.3587 1.92144 1.39606
203 2 4.54445 5.89367 6.78012
79 3 -0.10167 1.36648 4.79566
109 3 6.15317 3.66921 6.32706
174 2 -2.35317 6.81634 1.90942
61 1 -1.71121 6.10715 10.1398
14 4 1.54327 2.33419 11.301
19 4 0.612458 4.34776 13.5979
20 4 -1.01386 6.66022 11.8282
29 4 3.86089 2.32505 9.52365
31 4 4.26157 3.15428 15.0921
32 4 6.2472 2.63187 11.4577
196 2 3.76057 1.64228 13.3864
37 4 5.38331 5.08705 12.8633
38 4 1.67411 6.94255 14.9184
184 2 -1.76424 7.00883 9.39427
178 2 1.50163 5.73273 8.99627
66 1 3.27582 1.68921 14.4432
81 3 0.237943 1.88702 10.5957
201 2 4.64376 6.35152 8.90399
87 3 1.24084 3.3132 12.6259
88 3 -0.365113 5.39966 12.6695
99 3 2.61205 3.0115 10.2896
101 3 5.27492 2.63724 16.1855
102 3 5.03997 1.92506 10.6649
197 2 2.12004 1.8865 14.4426
110 3 4.84047 4.05692 13.9381
84 3 -0.38462 3.77996 8.78172
112 3 1.5693 5.30841 14.5803
113 3 2.84433 7.33442 15.848
114 3 0.242677 7.58965 15.5549
154 2 1.83087 7.75027 13.4416
145 2 0.0270431 6.88114 10.4989
149 2 2.97891 4.04236 15.903
150 2 6.23189 1.84328 12.9884
153 2 4.05724 5.72657 12.0313
16 4 -0.840275 6.75232 16.477
183 2 -1.27887 5.1317 9.63975
111 3 6.16652 4.23243 11.6856
35 4 4.17085 7.62055 16.5764
144 2 2.27079 0.86315 11.9676
98 3 3.48241 0.937125 8.74593
108 3 4.3501 3.52348 8.4634
182 2 -0.546002 4.08042 15.7029
170 2 1.47021 3.59993 16.5944
21 4 -2.40392 9.65116 7.04978
23 4 -3.29257 12.1585 5.53314
205 2 0.855727 10.1569 8.11958
39 4 -0.403304 12.5002 4.12097
195 2 -1.42347 14.3008 6.1451
118 3 -1.31742 10.5911 7.75886
57 1 -2.48607 7.1725 0.813588
89 3 -1.88171 8.02614 6.3356
91 3 -3.33347 10.6032 5.97598
92 3 -3.46011 13.2735 6.68954
11 4 -4.61489 14.0945 7.61805
115 3 -0.162721 13.6315 3.04591
116 3 -1.90342 12.3873 4.68025
198 2 1.73941 7.53935 4.60475
62 1 -3.60298 9.00031 8.37433
120 3 0.715367 12.4712 5.21716
70 1 3.7462 8.41095 6.41715
146 2 -4.55096 12.3477 4.42406
151 2 -0.67573 7.55535 1.60661
155 2 -0.239092 11.0161 3.2455
156 2 -0.845442 13.2145 7.52389
173 2 -2.01881 8.24137 0.652186
207 2 3.22012 8.54706 5.47362
246 2 0.471857 9.47723 0.126966
240 1 0.471372 10.4102 0.737209
268 2 1.37372 10.3463 1.65919
262 2 3.04921 8.15362 0.528654
199 2 1.59977 8.49414 2.92246
67 1 1.82803 7.43484 3.49822
269 2 -0.518353 10.6857 1.15749
208 2 3.32689 7.641 7.218
222 2 3.29178 8.44407 2.48385
238 4 1.43511 11.9284 0.110646
194 2 0.30621 14.2922 6.57205
175 2 -3.57564 7.08235 0.51912
90 3 -5.48877 13.0612 8.38044
24 4 -2.1708 9.4493 12.9976
25 4 -3.11897 11.8312 10.7281
93 3 -1.5648 8.03618 12.4906
63 1 -2.48223 9.76461 14.9729
64 1 -3.77157 13.3975 11.6269
69 1 1.82376 9.85079 8.70278
41 4 -0.821064 11.8392 8.52446
267 2 -3.63433 14.8063 14.9902
94 3 -4.36875 11.1799 9.89065
95 3 -2.65417 10.7115 11.9479
119 3 -1.70966 12.1373 9.81425
147 2 -0.857773 10.0662 14.182
204 2 1.77836 8.70778 8.81843
266 2 -3.16991 14.3478 11.3308
206 2 1.97149 10.419 9.68125
188 2 -2.2265 9.14733 15.9244
187 2 -3.12814 9.15512 9.41038
190 2 -2.76792 10.8081 15.2812
191 2 -3.64878 13.0773 12.7195
192 2 -4.87256 13.2893 11.2285
245 2 0.974871 12.525 15.9472
157 2 0.841128 11.5956 8.94239
1 4 14.0937 1.75922 3.77816
179 2 12.1587 4.91306 5.69546
3 1 12.4815 2.27755 4.80034
72 1 8.99424 2.39727 8.06461
5 3 13.6727 0.435207 2.83322
6 2 12.352 0.273732 0.518294
7 2 11.7714 1.32361 4.86344
8 2 12.2324 3.12438 3.98808
9 2 12.8082 2.70846 5.79274
213 2 8.13652 1.81931 7.50537