LAMMPS data file via write_data, version 2 Aug 2023, timestep = 2000, units = real

331 atoms
4 atom types

0 15.7087 xlo xhi
0 13.0868 ylo yhi
0 17.5248 zlo zhi
-8.2042 -0.1458 -2.0056 xy xz yz

Masses

1 12.0107
2 1.00794
3 15.9994
4 28.0855

Atoms # full

1 1 4 0.9961331844186574 -0.7735381448834507 1.9092849726920211 4.836273485571558 0 0 0
2 1 4 0.799713041546374 0.2953226211825259 4.598729938274963 3.2211984590355427 0 0 0
3 1 1 -0.6753047779787518 0.7592799869816208 1.3408097083792163 5.853094423996991 0 0 0
174 3 2 0.1749970925289946 -1.4027035285396316 5.245680309306207 5.2676223817983185 0 0 0
5 1 1 -0.6560130761366066 2.157601890541858 4.42332244712866 3.1367502578021496 0 0 0
6 1 1 -0.6612928054991873 -0.433119498877596 5.03672744428133 1.3114595860091602 0 0 0
8 1 2 0.171182769203756 1.6735210859189444 2.1577597302590785 5.951254567049535 0 0 0
9 1 2 0.1185071226160843 0.9839424712975728 0.46130318475693155 5.209089934668085 0 0 0
10 1 2 0.1817069314492065 0.41072397290256446 0.981490812816985 6.81378759947031 0 0 0
312 19 2 -0.004004025148138317 5.6244350879188 0.3705996356990611 3.0061547021142183 0 1 0
12 1 2 0.1485735711556025 2.122806134297728 3.244290684340444 3.362762006081519 0 0 0
13 1 2 0.1439753646276377 2.977862030009895 5.130352112013943 3.824599576802275 0 0 0
14 1 2 0.1364575032038286 2.126208876335139 4.6321494361069755 1.928814942721109 0 0 0
182 3 2 0.1379905013112933 -0.8897618030729105 4.863937842122549 7.67696997184953 0 0 0
16 1 2 0.1420889884075143 -1.0105951769671027 4.3880095275399436 0.6124445552605987 0 0 0
17 1 2 0.1378937473065306 0.35434743380147715 5.74793179915605 0.8216758291336781 0 0 0
18 1 3 -0.7553147296722749 -0.27117918131628677 3.4133546405065673 3.9527704683493288 0 0 0
24 2 4 0.776470522169455 5.894742854551152 1.8268285075779107 3.9899634873283123 0 0 0
45 2 1 -0.6742695094842349 4.045846805257211 1.3246054823467324 3.4839058793035633 0 0 0
47 2 1 -0.6431369391889911 3.602938774047634 0.46846031829558765 8.460760897838288 0 0 0
263 7 4 1.004250023328431 4.301332730236809 3.8174625198177936 1.1539129041749165 0 0 0
51 2 1 -0.6804854102726897 3.2038559807375027 3.533454510540305 6.317708896237087 0 0 0
78 2 2 0.1425172785766028 3.850281109558508 1.4517245355151664 2.3908099487569965 0 0 0
79 2 2 0.1275188035699002 3.680419959769227 2.33498519279378 4.022960344625081 0 0 0
80 2 2 0.1442599504394887 3.5952747268419394 0.40243350468913874 3.94397412927094 0 0 0
83 2 2 0.164272508112713 2.4648558451576092 0.5008947471857115 8.317360282489917 0 0 0
82 2 2 0.1858113104391578 4.277353975843462 0.6169344044636315 7.526396952489004 0 0 0
265 7 2 -0.01793802642067046 2.7834885053174796 3.1760065908873654 1.7635496000305164 0 0 0
154 3 1 -0.6457204447995045 -2.5168876680278247 5.353653949176269 5.163740633449918 0 0 0
15 1 2 0.08368089576127928 -1.166438190484137 5.7574073732494915 1.953444552895735 0 0 0
93 2 2 0.1752329563089517 3.8717130115874405 2.668726078979813 6.019830986569854 0 0 0
94 2 2 0.1547033073841954 2.375749698718212 3.690313031147764 5.539918238951237 0 0 0
95 2 2 0.1685863730575067 2.84137862336787 3.4819865625981725 7.40737380406974 0 0 0
117 2 3 -0.7654264418537519 6.4033085637745675 1.5091333114645424 5.552300491817545 0 0 0
321 28 2 0.1386501946260638 5.164454342625077 0.196137637709001 0.9507857866799952 0 1 0
162 3 2 -0.01047579585863104 2.975667091845593 -0.25092937086239453 6.751927022908064 0 1 0
266 7 3 -0.8415155380628417 5.145271303670406 2.813138052496018 0.3903670652823967 0 0 0
267 7 3 -0.814340277729981 3.9091736599894724 5.19779078970281 0.6194976463350947 0 0 0
283 10 1 -0.6552291531569819 1.4510404966663195 1.3110181216409842 0.41189325082554507 0 0 0
175 3 2 0.1644373381743753 -2.940268544887984 4.664408306449923 4.355315069968787 0 0 0
311 18 2 -0.007128360829497225 1.0148736747955454 4.114074682111775 0.39348783456198977 0 0 0
286 10 2 0.1274332555106661 1.5990953593202197 1.8859466058672993 1.4151365179414825 0 0 0
284 10 2 0.1868778205075274 2.3306404528749862 0.6933665416079495 0.009123500481941028 0 0 0
32 2 4 0.7997520457260716 4.056409935456628 5.191369050116306 6.525183806085518 0 0 0
46 2 1 -0.6333890985055787 6.054829678135941 0.051073836510795736 0.1362987350341068 0 0 1
285 10 2 0.1150193864081806 0.30751921107649915 0.8887299512246475 0.18805804188909778 0 0 0
176 3 2 0.2040242499477186 -3.046806145740244 5.404756858127783 6.14451148756846 0 0 0
11 1 2 0.1693064865062332 -0.7176011585116587 1.2894022441900426 2.6156333210542124 0 0 0
264 7 2 -0.007065649183893006 4.8126294721075835 4.018483445290761 2.7526402709697946 0 0 0
7 1 2 -0.003248062111251632 0.48612191877379424 6.024658181306069 4.234036624793875 0 0 0
19 2 4 0.7490974314495307 1.1345210332555427 0.7556529173152258 16.854172565213613 0 0 0
21 2 4 1.501787215704226 2.416405316503633 -1.056084139285998 12.428563686351835 0 0 0
22 2 4 1.465039517898486 1.2310476638444596 1.4757978372158105 11.311914955841564 0 0 0
23 2 4 1.057880504012111 -0.5814897503647244 2.4068563065403445 13.715423038504962 0 0 0
25 2 4 1.276563566507511 5.7447641835916965 -0.15339807772396896 16.813896381135674 0 0 0
27 2 4 1.022468592437586 4.217876625079749 1.6129728601719646 9.851988804280708 0 0 0
29 2 4 1.490977788559783 3.738312544691069 0.5530460336498633 14.763585100229578 0 0 0
149 3 4 0.9355986021731043 -0.1570053550004068 5.076009543951894 9.970030316171934 0 0 0
34 2 4 0.932234827291781 0.23726469756047658 4.339807782618502 16.083927276380784 0 0 0
44 2 1 -0.669326690292957 -1.5025867065076308 0.839197846604397 14.415751300315653 0 0 0
48 2 1 -0.6674224626498853 5.322132376592729 0.5470577152858078 10.946562896247466 0 0 0
58 2 2 -0.005353985466800272 -0.4767392145356122 0.706455466993752 16.023240760846065 0 0 0
60 2 2 0.01411195966147582 -2.029899793784869 3.073758763850126 13.012735403538118 0 0 0
81 2 2 0.1799326976479197 3.983399306281078 -0.5257223425346039 9.226769644810354 0 0 0
62 2 2 -0.03923584639059186 -0.9468515463740921 4.3062050477266425 17.215098129670835 0 0 0
170 3 2 0.05873761602846882 -0.2634319325033272 3.3759772102412935 9.999956830695503 0 0 0
76 2 2 0.1481900492922009 -0.5446182205549979 0.139504686159293 14.155339179120768 0 0 0
84 2 2 0.2654709189740078 5.80739628897387 -0.3236165509541531 10.318082330705916 0 0 0
85 2 2 0.2465201662472744 4.648854703729043 0.19477404750012695 11.779439676178754 0 0 0
171 3 2 0.109870054916427 2.6152564707311696 3.5415785680557326 11.909572685350964 0 0 0
112 2 3 -0.8028327420978801 -0.004326599175528439 1.7007610838226686 9.969672449756713 0 0 0
113 2 3 -0.820541206455901 1.4657583725378132 -0.08437219025453291 11.460551065893892 0 0 0
114 2 3 -0.8422451562503946 0.5130520040070805 2.1208795785484535 12.602309715308078 0 0 0
116 2 3 -0.786256981259051 2.6072064853335704 2.2657910049719145 10.862001223776497 0 0 0
119 2 3 -0.8418269283998627 3.188399599577871 -0.07187944391272172 13.390915444282761 0 0 0
120 2 3 -0.7907225379189076 4.784414898923892 -0.43259679125917505 15.418975802042114 0 0 0
121 2 3 -0.7636064054836409 2.416930147368 0.7014298873412834 15.899449458021149 0 0 0
122 2 3 -0.77526447886282 5.280056874248587 2.6739507609162834 9.12598896426626 0 0 0
125 2 3 -0.7979001443992463 4.589035895265868 1.9999685318388623 14.307040198554665 0 0 0
126 2 3 -0.8209810500653357 -0.14733794110453455 3.3339937475189663 14.912375644903337 0 0 0
127 2 3 -0.8250200687902987 1.6344814728543855 4.527600449989284 16.771423751927628 0 0 0
20 2 4 1.193218566956975 -1.2854820403242622 0.8499250046623359 9.43496236073977 1 0 0
86 2 2 0.1630041748894409 6.029352901942355 1.4440180906998872 11.290377456433218 0 0 0
161 3 2 0.07605906417092866 -7.7824567455954075 11.793179208853838 6.2258976717521834 0 0 0
143 3 4 0.5904219102574919 -6.114882520250395 11.452697816069294 6.316387238155169 0 0 0
144 3 4 0.7169697485445397 -2.500962808883237 7.115377235611623 4.444202217609664 0 0 0
146 3 4 0.9177293876372868 -2.6118568027512947 9.292525099627861 6.613806781303879 0 0 0
219 4 2 -0.02163343881309621 -5.750404483109664 10.003301423047713 3.2125126242080353 1 0 0
57 2 1 -0.6465255452246474 -4.945625291878533 7.255517598328933 8.495751825642095 1 0 0
184 3 2 0.2294353269939199 -0.9725553244072783 6.7328718872968585 8.454868070324789 0 0 0
230 4 2 0.1698335565610363 0.12034280410772333 8.66670848617726 5.9056380528406995 0 0 0
163 3 2 -0.06476853779754727 -3.3003763298875977 7.549103125860465 3.032622060420602 0 0 0
164 3 2 0.03482712515997469 -0.8022175165201829 7.427455212481361 3.855924880516474 0 0 0
166 3 2 0.07422809277985742 -4.094521176224298 9.728971077763608 7.22602021411544 0 0 0
167 3 2 -0.01095564753640943 -2.123735962717461 10.699573234513016 5.741733649931137 0 0 0
169 3 2 -0.05520629879723821 -5.492419231064863 11.265052152184104 4.79960005113068 0 0 0
328 35 2 0.2036635424715099 -4.950647939241974 8.114311007238651 7.7528664315935005 0 0 0
234 4 2 0.1814578354582344 -0.46811716362429573 11.276327429784212 6.3829864730808845 0 0 0
183 3 2 0.1782147135095095 0.6792579677924038 6.07312843285629 7.82444436670798 0 0 0
218 4 2 0.04581511482864144 -7.37643554354644 12.096249876553367 1.8683056261977606 1 0 0
192 3 3 -0.7856002005401639 -2.849327147937249 8.077229453061426 5.641700901809258 0 0 0
193 3 3 -0.780829236877488 -5.741383229768697 10.245516722524474 7.242450351299495 0 0 0
199 3 3 -0.7684547489968878 -1.5084212318178092 9.048926750972873 7.770139516358335 0 0 0
206 4 4 0.6420556881224232 -2.238121254762576 10.054528801092745 2.220383498041371 0 0 0
207 4 4 1.012383715650353 0.2787890610827608 9.799078640279118 4.173890592429339 0 0 0
213 4 1 -0.6502321375207493 -3.782720519728881 10.107557831381929 3.303438310324775 0 0 0
214 4 1 -0.6377823261930395 0.47602060262720536 7.807799390348234 5.14688360953132 0 0 0
215 4 1 -0.661502502345599 -0.3146918490997916 11.263938376984786 5.246893607191178 0 0 0
220 4 2 -0.01580841746528823 -1.9855667278687343 11.469433411021502 1.1827883059185915 0 0 0
221 4 2 -0.01664336361402781 -2.592657543556421 8.918408866586418 0.9137400510055048 0 0 0
227 4 2 0.1648001670545909 -3.6192071759483815 9.896983682019215 4.391175482494654 0 0 0
228 4 2 0.1014396591209241 -4.328194789503826 9.281424700309186 2.597006202247446 0 0 0
229 4 2 0.1024752975635821 -4.035570176283875 11.2834665120353 2.9847466743221207 0 0 0
231 4 2 0.1768554001767993 1.4975627129349809 8.031523515503432 4.778655401804618 0 0 0
232 4 2 0.165019531417079 0.5815344996287107 6.907009219828269 5.806589397106582 0 0 0
235 4 2 0.1587988789689379 -1.1993841507658893 11.677857724674165 4.666389778222397 0 0 0
242 4 3 -0.7895657461576797 -0.9526202800341724 9.626266811514757 3.1891383741852004 0 0 0
291 12 1 -0.6391005822707616 2.896725532470497 7.432697494416003 1.7031695226453631 0 0 0
322 29 2 0.1724203617837949 -1.0618677490357802 12.949374209800471 0.5505779313136615 0 0 0
157 3 1 -0.6464805509057646 -0.3361427070889609 5.78749273874294 8.253249052264566 0 0 0
294 12 2 0.1399223184965483 1.7339997069183553 7.430330650035791 1.639190380963904 0 0 0
303 15 2 0.1212180232824715 -4.308422418892422 9.398544021287673 0.7379032846211979 0 0 1
299 14 2 0.1922769682697448 0.707209870411934 10.335307628479104 8.12091973908855 0 0 0
293 12 2 0.1690321076339497 3.1621939652149673 6.7965348208765946 2.6045709380215576 0 0 0
30 2 4 1.268458988157459 3.224716044584215 6.62499851774677 0.004303284131827119 0 0 1
326 33 2 0.2074862624813291 -1.5252847024818768 11.553247297958631 11.970063510589894 0 -1 0
64 2 2 0.00261039837901223 -0.3220832786545269 5.852368473929955 15.521626187573956 0 0 0
115 2 3 -0.7948401933867487 -6.759384231765504 10.912481019560053 13.215912169167483 0 -1 0
145 3 4 0.9756677581046045 -2.162812637283683 6.527481323520429 12.305597678416392 0 0 0
148 3 4 1.38150804186454 -4.652424638553751 9.795315272774628 10.667320790697977 0 0 0
151 3 4 1.37495669733968 -1.7432201144130697 9.828594070812601 9.349959526158338 0 0 0
274 8 2 0.1261486490864622 -0.8538172733752466 8.242040255245717 17.139404457913766 0 0 0
301 15 1 -0.6198412651130336 -4.267821671013902 6.827629474087776 17.280556524078797 0 0 0
155 3 1 -0.6486531199707835 -1.0866742090905852 6.605161200206655 13.882012418753693 0 0 0
156 3 1 -0.6710647527875315 -4.66677747594555 8.515225103134535 12.140024959165018 0 0 0
275 8 2 0.174048291843928 -0.3446069956602622 7.6930949082975895 15.437724437659412 0 0 0
320 27 2 0.1658543689801712 -2.54122162251864 10.506656828093785 16.703632064061026 0 0 0
165 3 2 0.01444916147071726 -2.811929674840317 8.018570974895383 11.810027783694688 0 0 0
319 26 2 0.1849669520618298 -5.671914938837167 8.70474367114879 12.555286059124347 1 0 0
188 3 2 0.1276972620810098 -1.4974955835370574 10.158671544696059 13.26731954407948 0 0 0
177 3 2 0.1179884271171544 -1.2045494098890348 7.861417129191547 13.90737574750659 0 0 0
178 3 2 0.2122774781647413 -0.07610145628984981 6.121859975041094 13.631845568801227 0 0 0
179 3 2 0.1669724836772932 -1.8786218984874996 5.903807634518924 14.511612078390977 0 0 0
180 3 2 0.1783208853404038 -4.535515021614732 7.443047358895966 11.910738348274243 0 0 0
181 3 2 0.1463918822653305 -3.929969591612822 8.87881812366751 12.977259690018306 0 0 0
153 3 4 1.057304567927176 0.13746951929188145 9.65077977989166 11.743558321606491 0 0 0
194 3 3 -0.7700768341287214 -3.36587463191552 5.602400723118804 12.76583015750368 0 0 0
198 3 3 -0.7175764902135312 1.5429909410214477 5.505306498104213 10.416576574431055 0 0 0
195 3 3 -0.8264247046913202 -5.999504345074641 9.704956052204315 9.883559445413084 0 0 0
196 3 3 -0.8015858683264823 -4.6352127431225565 11.245662022913812 11.430665851988508 0 0 0
197 3 3 -0.7358474957206182 -1.1711521002132514 5.825069862148577 11.043190972182872 0 0 0
200 3 3 -0.7902197313346629 -1.6609365710685848 11.47992583569816 9.205075778960111 0 0 0
201 3 3 -0.8325736184017485 -3.317456694267836 9.502758104274301 9.905026413470438 0 0 0
202 3 3 -0.7714288945626749 2.1180164710256286 6.130220620603168 12.933901831881618 0 0 0
203 3 3 -0.7993791783738466 -0.48290087427280987 9.343626688876673 10.333783237284704 0 0 0
302 15 2 0.1665836953245651 -3.897791999854508 7.496804595714102 16.455315545415782 0 0 0
150 3 4 1.049824375327838 2.519956067065514 5.214451465308044 11.639228228054593 0 0 0
159 3 1 -0.6795137496542288 -0.842099584984996 10.985824051759678 12.661845697867017 0 0 0
272 8 2 0.05978013538406374 1.2704082850291023 7.7462751358739546 17.195691555039055 0 0 0
262 6 2 0.1797105078241516 -5.828786817803109 9.738734994265457 15.998924709579201 0 0 0
270 8 1 -0.6347977908243375 -0.02089192994901992 8.342866246654847 16.347412837022098 0 0 0
204 3 3 -0.8097087683389949 0.9646035821942288 8.62640575902124 12.625070276323951 0 0 0
172 3 2 0.01286967426394802 1.4314343792069322 7.810331537950837 15.088612334036856 0 0 0
259 6 1 -0.6580308084518707 -6.912508449639877 9.525553698051606 15.788430193624608 0 0 0
273 8 2 0.05571952078025978 -0.0951921482869666 9.933724596253775 15.70412564232284 0 0 0
329 36 2 0.1854703419389244 -3.8849023105535654 7.0012097052621005 8.858985519352613 0 0 0
325 32 2 0.009307323803662487 -2.971535102855048 5.60602105605151 17.37045031812149 0 0 -1
28 2 4 1.494691805464302 7.713057352712328 1.8154750774967128 6.548423795246712 0 0 0
31 2 4 1.188272817367076 6.427569478014009 3.7609211773384184 8.410112107137614 0 0 0
35 2 4 1.271346592933419 9.941092225110674 1.6816643146739876 4.2749551227162 0 0 0
37 2 4 1.435566386097707 12.122311881189587 1.267472301357187 6.3252352181151466 0 0 0
40 2 4 0.65943898554636 10.497417897780759 4.400981961226665 2.7601032346308494 0 0 0
296 13 2 0.1587607848244884 9.874761909554083 0.4958259153676057 0.9933837428902109 0 1 0
304 16 1 -0.6499417072931373 13.119301815045329 0.7414635595458894 0.09843036908220586 0 0 0
55 2 1 -0.6183309498196762 11.144031760967373 3.9316286404825123 0.9374725324301564 0 0 0
315 22 2 0.1811546775195447 15.099670662474107 -0.17453643065375024 3.9842590570600835 0 0 0
65 2 2 -0.01744289215604329 9.375095691425436 0.8021341402566609 2.95401075312628 0 0 0
69 2 2 -0.02979746557282639 10.205184109435002 5.7973124768737465 3.663495611386728 0 0 0
70 2 2 0.01983816285628278 9.530641663362433 4.36479355110875 0.9927276624417323 0 0 0
49 2 1 -0.6753916683440995 6.625909659489229 3.445891113333291 3.2218767042257817 0 0 0
89 2 2 0.1620970395878432 6.581144016309448 4.18605503504903 4.0661866017628965 0 0 0
87 2 2 0.1435007799723902 6.441187226923948 3.901179768727312 2.1185878031679386 0 0 0
88 2 2 0.1572238312081541 7.756526161330592 2.9768860488289755 3.2187968012243418 0 0 0
106 2 2 0.159182810111196 11.258086277446983 2.793215500597565 0.9393844655629715 0 0 0
107 2 2 0.0196533725942356 12.240870955668974 4.491993664856492 2.2453351038330367 0 0 0
108 2 2 0.2280189671731118 9.815194174765765 4.7478691657775975 5.246842758693796 0 0 0
118 2 3 -0.802366616084653 7.919568842449586 0.4488711874583077 7.576682940900217 0 0 0
123 2 3 -0.8150934985915046 7.517890265239154 3.164322776895156 7.4298654570624825 0 0 0
124 2 3 -0.7538995740445587 5.3030569898101145 5.2433606294087385 7.55141884296552 0 0 0
128 2 3 -0.8187460665228481 8.893622775670869 1.8507102336924373 5.375337174016067 0 0 0
129 2 3 -0.814674146867015 14.911167738154257 -0.4754485565842398 8.701781745951624 0 0 0
131 2 3 -0.7689840561767232 13.435899477973033 2.043436697847458 5.97913000376989 0 0 0
132 2 3 -0.8083027316078766 11.27303671549912 0.9290595572818034 4.719159097302327 0 0 0
133 2 3 -0.8358808007206061 12.291611145783792 -0.33609032868241673 7.071568578602774 0 0 0
137 2 3 -0.7943589519402877 10.148224656524086 3.0909505613775963 3.652680123426827 0 0 0
139 2 3 -0.845920851139858 11.3251383529401 2.153180359903208 7.390491575259992 0 0 0
140 2 3 -0.7691041949673845 10.368899009399529 4.441106663183931 8.213579183557268 0 0 0
316 23 2 0.1906336832759473 13.318539838539767 0.5405620205749875 3.4006319058569723 0 0 0
96 2 2 0.08459465286416232 4.712291617728877 5.087917000825869 4.466895346918929 0 0 0
330 37 2 0.1606396898534209 12.410869634878715 0.9579337344240738 0.9905948601260391 0 1 0
4 1 1 -0.6457473583982039 14.477915028901151 0.6863621920989622 3.453344057283465 -1 0 0
281 9 2 -0.05146653657290223 10.817341620277535 5.790039715622396 0.3733311291177262 0 0 1
41 2 4 1.298036018812154 10.964174004280173 2.932152751804546 8.654592574735391 0 0 0
59 2 2 -0.01121266194274785 13.81162464121676 1.9227078804642281 8.348943274889722 0 0 0
56 2 1 -0.6490090514669423 9.817147954513594 5.840746008769216 5.619952047630651 0 0 0
323 30 2 0.1392552812588551 8.116128432479167 0.15203605764417838 1.7439683427798869 0 0 0
305 16 2 0.1478158949388104 14.072571424917975 0.1935584477547993 0.44469119921590944 0 0 0
187 3 2 0.197959691184098 4.623921236297817 4.34216927413841 10.535081586537448 0 0 0
251 5 1 -0.666442556883428 9.423520666352294 4.955485363631325 12.69625607911045 0 0 0
33 2 4 0.9662459918901238 5.422870703480347 3.261826791124866 13.85654099951646 0 0 0
36 2 4 1.212939136988479 9.52274044069745 1.1943970593020488 10.887022266547211 0 0 0
38 2 4 0.7380172346539454 8.563821400773168 0.8291251921277167 15.9148843000418 0 0 0
39 2 4 0.9498605197008381 12.122381300621393 -0.23999546001097927 11.177868098737033 0 0 0
50 2 1 -0.6681469174461829 7.37519288301337 4.4894851672835685 9.7830286897838 0 0 0
53 2 1 -0.6309468937388083 7.397656376609294 2.6644040470585937 13.331114324342561 0 0 0
54 2 1 -0.6519485521109325 9.220666674819697 -0.45414503568656084 14.714901260637975 0 0 0
327 34 2 0.1740000119324445 8.022402744214473 -1.4492864663168172 13.390370201971963 0 0 0
63 2 2 -0.01393960890899625 5.01008798538404 3.694536625133992 12.258270312467708 0 0 0
66 2 2 0.00418091905756752 8.807738886048433 1.9600680919609699 12.206697940052369 0 0 0
67 2 2 -0.01805451444116563 8.39347581223326 2.2406408980679933 15.010739293236464 0 0 0
68 2 2 -0.01154938008943347 12.725822451188 -1.1137347599462886 12.595878663645973 0 0 0
310 17 2 0.1619941624260363 12.064062910543699 -0.38480581522774826 14.564767006880524 0 0 0
77 2 2 0.1432328086329313 13.388007429501565 0.841570699230888 13.61823197769796 -1 0 0
91 2 2 0.2212078013692114 8.483352604159652 4.1265627365233595 9.652411047504405 0 0 0
92 2 2 0.1560663297603814 6.994954474679885 4.271637162692266 10.817731583273476 0 0 0
99 2 2 0.1058938852543237 6.994240251481648 2.9748549825021726 12.224485856508512 0 0 0
100 2 2 0.1429755222335037 6.913128446387029 1.5912799482263706 13.95463370524886 0 0 0
101 2 2 0.1531116728233982 7.720842960220113 3.601298699587458 14.003229230684147 0 0 0
102 2 2 0.1877194084595153 10.331869788524816 -0.8124265593446115 14.63503226828681 0 0 0
103 2 2 0.1463590051117799 8.955238645109798 0.16166007077992162 13.765430102290573 0 0 0
104 2 2 0.1662940215792803 8.449184449911474 -1.3224159681839944 14.969935845613856 0 0 0
130 2 3 -0.8197854268610012 8.508710318425184 0.1852188811152804 10.195183442010835 0 0 0
134 2 3 -0.7974850320759711 7.328141856421051 0.20302439265915373 16.570844133177395 0 0 0
135 2 3 -0.867020074150272 13.22900445645024 0.5826025594853477 10.504735699090725 0 0 0
136 2 3 -0.8282558487294123 10.766460880474375 0.41415702303461654 11.590260307975294 0 0 0
138 2 3 -0.8364825454132474 10.129201363238483 2.273233172149072 9.792168126398927 0 0 0
141 2 3 -0.7955585342188271 5.669144087368235 4.614887351677272 14.830105950454428 0 0 0
249 5 4 1.041259547015363 11.144236334182471 4.582261770509663 13.424674077172277 0 0 0
250 5 1 -0.6653970498926417 11.734076976901466 2.712753582681258 13.126768798463965 0 0 0
331 38 3 -0.7367520149242693 11.09231857526974 4.775932916027536 15.088165700983286 -1 0 0
71 2 2 -0.02947871757508763 12.42645017202783 3.2746722252724583 9.360767338462487 0 0 0
253 5 2 0.1866654836292622 12.183438915260384 2.4735103262871956 12.145863739138456 0 0 0
254 5 2 0.1469603755812692 10.63873475323321 2.306457844879751 13.133574595943196 0 0 0
313 20 2 -0.01144817890985668 9.812879814428541 1.2068701132226534 17.001113573370475 0 0 -1
256 5 2 0.1597933516897076 9.14869496022068 3.9406420465766407 12.394798571461994 0 0 0
306 16 2 0.1375864861539087 13.168624288014986 -0.40934215764810444 16.96468312879666 0 0 -1
252 5 2 0.1628074803758081 12.306488609244784 2.3381821318336944 13.968507639370092 0 0 0
307 17 1 -0.6552912180804025 12.268485788441094 -1.48053662294587 14.444841097763641 0 0 0
26 2 4 1.279485994325424 8.0574114254608 -0.5445942534006962 8.803753668688616 0 0 0
75 2 2 0.139090173263609 13.795252238235552 0.6637429804658381 15.48925777320936 -1 0 0
158 3 1 -0.6966789072892634 4.357306888748391 5.222669190643463 11.231236245981334 0 0 0
105 2 2 0.1282678897469939 11.474413404037302 2.3513222920382675 17.490594337567956 0 0 -1
109 2 2 0.1440233516385089 9.010752596060719 6.4806073840581755 5.207570638296526 0 0 0
42 2 4 0.8368173454758756 9.831637927482165 5.838088138715159 7.703895193454085 0 0 0
147 3 4 1.125036471587243 8.74448018273137 9.949859181258859 8.650354310453935 -1 0 0
61 2 2 0.03425028664838956 3.1488366895859663 6.695401278632993 6.3933419333362185 0 0 0
97 2 2 0.2043535600039035 5.044442221669257 7.043392538933685 4.851508892473283 0 0 0
297 13 2 0.1328944776601945 1.2182033777408998 11.829918066142936 1.9318044091083832 0 0 0
224 4 2 0.07661072581472823 6.204590775553807 6.553168545679636 7.63136425743731 0 0 0
110 2 2 0.02790333610615287 8.29995144172415 5.865650559906346 6.640819338650724 0 0 0
72 2 2 0.1512099231983841 10.93362734849285 6.416417245416329 5.7991331312973395 0 0 0
205 4 4 0.6514146920433506 8.330389087730921 10.397552669699612 2.709295049649678 0 0 0
208 4 4 1.080996614250734 5.419509196849155 11.962648230984428 7.348534190413225 0 0 0
209 4 4 1.030421181612801 3.4153312635242155 10.735873645436847 3.6105567233262654 0 0 0
210 4 4 1.032157694999779 6.427046586541085 8.283662048664295 7.54344927970023 0 0 0
211 4 4 1.38800794159736 6.082714521649393 10.169891404022318 5.122983536810456 0 0 0
212 4 1 -0.6315842744720525 7.600247215158335 10.70746012858447 1.0078600836659235 0 0 0
216 4 1 -0.6418506097136547 3.8119351664484453 10.559886013306755 1.7727129476561545 0 0 0
324 31 2 0.1948699170784629 1.7336341239552318 11.914373505734265 7.4841243223489835 0 -1 0
295 13 1 -0.6605230365574614 0.8202554396442914 12.793043586861662 1.2701135915044015 0 0 0
222 4 2 -0.01154760422046876 4.804696876635681 10.493773470779121 8.002893994476787 0 0 0
223 4 2 0.06675392739771439 3.3695706707232076 12.43545831065818 4.002820820079748 0 0 0
317 24 2 0.1716356534023032 6.524968311621601 10.855894487165184 1.0185741654875857 -1 0 0
225 4 2 0.03086516256620135 7.943580445790857 9.042262405255437 1.4129307901670098 0 0 0
244 4 3 -0.8445423957433303 7.644462054524348 8.794111699520894 8.400684840037083 0 0 0
298 14 1 -0.6739031191941385 1.2251571704078181 11.313402193467695 8.394285630833538 0 0 0
233 4 2 0.1600024527503498 0.6668559576722368 11.861576033624223 4.929252488067288 0 0 0
292 12 2 0.1993281192625275 3.262207819549887 8.52906155804573 1.8326968160700758 0 0 0
236 4 2 0.1831887927174472 4.8225948675437555 10.072253930600349 1.6023916244204457 0 0 0
237 4 2 0.1363429163536762 3.843624135490903 11.791305777534632 1.634152739314641 0 0 0
238 4 2 0.1611496709161712 2.931070896544932 10.041664026000243 1.200894226484704 0 0 0
243 4 3 -0.7919770936975726 1.893243885024197 10.162626328419803 3.738738389600007 0 0 0
245 4 3 -0.7679082780795221 7.18970156123665 10.271869352673114 3.9267155651703693 0 0 0
246 4 3 -0.7987814372697936 4.607001622954434 10.127220398668745 4.439676549032951 0 0 0
247 4 3 -0.8428784225490001 6.294275561322009 8.904301406384933 6.102896295833679 0 0 0
248 4 3 -0.8249629205690814 6.308490937339406 11.762855580161713 6.041514892640961 0 0 0
240 4 2 0.160917012924701 3.8335053904755974 8.920725741375193 7.921857160958876 0 0 0
52 2 1 -0.6291423411925687 4.1746263197095175 6.334849681841283 4.863008586970071 0 0 0
217 4 1 -0.6535375798254632 4.794880730025592 8.581153272836803 8.520115073062874 0 0 0
98 2 2 0.1536806473295766 3.4644948525662045 6.659043219132858 3.9665839551849955 0 0 0
226 4 2 0.17308375548913 8.12798934299644 10.954395025925978 0.020085627723557133 0 0 0
43 2 4 0.9058601406247415 5.561410538735016 5.59466660616013 16.089878428628467 0 0 0
73 2 2 -0.009405006180088165 6.0614030872106675 7.2200211633909115 15.704360986235711 0 0 0
309 17 2 0.1337049453349691 5.168088185784955 11.432225395107094 14.331423923652382 0 -1 0
142 2 3 -0.7734475956638253 4.153551691736225 5.676006477519373 16.77008380624785 0 0 0
282 9 2 0.01324323022994136 9.729645983368751 6.227796333816016 16.908334383372207 0 0 0
160 3 1 -0.6425503456828856 3.7167155335689404 8.327556404674343 13.334285415230786 0 0 0
173 3 2 0.02715879920366938 0.9131741204507471 11.171980268174941 11.753251205768807 0 0 0
185 3 2 0.145830872226161 5.0235794680297365 5.320869152427882 12.12831354781565 0 0 0
152 3 4 1.018322309303155 1.9811707945108072 7.69533288084453 13.464213888227343 0 0 0
268 8 4 0.7826518049559175 1.1799780149087422 9.718025255526184 17.181997749986888 0 0 0
189 3 2 0.1371180755786867 3.443231365048187 9.326182575811172 12.71256580736565 0 0 0
190 3 2 0.1778174331553444 4.215769450690758 7.469171700025689 12.743626741422657 0 0 0
191 3 2 0.1584207014694966 4.2967036956772375 8.549289277094267 14.42630595408999 0 0 0
289 11 2 0.1691312586264716 6.959633722838744 8.357509357864664 12.24312189208195 0 0 0
308 17 2 0.1489362533750146 3.3764641043485044 11.050694892183177 13.750274437047018 0 -1 0
260 6 2 0.04671253247761245 8.436909899249498 8.071250818599069 13.791279037102175 -1 0 0
241 4 2 0.1361713727760022 5.027539766602641 9.293314636102066 9.453541298216612 0 0 0
186 3 2 0.1559838407114582 4.337011988523082 6.28202928088602 10.727377531993582 0 0 0
258 6 4 0.8071739675506252 8.097934291425151 9.908329616032727 14.137944419757142 -1 0 0
74 2 2 -0.05601485522255961 6.621352614315689 5.190501688325606 17.2757546495247 0 0 0
314 21 2 -0.05482290601656599 3.635997191289522 11.410780526667043 10.198050044721954 0 0 0
269 8 4 0.8552983231211536 4.172419031260554 10.635058484573545 16.271245029771176 0 0 0
271 8 1 -0.6720966066624708 5.3264674660362985 8.979437731181479 16.135068754547422 0 0 0
111 2 2 0.1626275722935124 9.934477049245881 7.28558405999123 9.42232596863504 0 0 0
290 11 2 0.0774666772479856 6.092304405156507 9.830221124422453 13.45873692704786 0 0 0
277 8 2 0.1483443995140488 5.820500313572249 8.789018244445664 15.070448062834915 0 0 0
278 8 2 0.1838792734717123 4.494584410200257 8.26316094416375 16.35727164113449 0 0 0
279 8 3 -0.7500038445108417 2.620936486754177 10.174072241868403 16.7188839782674 0 0 0
280 9 4 0.6272233819838385 11.040538309664854 5.053202222259065 16.707566087103693 0 0 0
276 8 2 0.1553610710739144 6.090591114355577 8.924622109142925 17.07266901286247 0 0 0
255 5 2 0.1541968891331101 8.739046822603123 5.395466775406701 13.512071723227479 0 0 0
287 11 1 -0.6380086814805369 6.7752543054500585 8.51552865612912 13.312965999514844 0 0 0
288 11 2 0.1608705827063532 6.188314658970272 7.6466380785074985 13.697155068413977 0 0 0
318 25 2 0.137575214976137 8.461388755728887 8.472725351244826 15.935169852274777 0 0 0
257 5 2 0.1594708242761042 9.538244427452454 5.751932517188705 11.855173360747187 0 0 0
90 2 2 0.1279027336132352 7.169871405375926 5.63329526822334 9.47564630516408 0 0 0
300 14 2 0.1575978214424709 1.9360956051689397 11.249900395923637 9.298912795908 0 0 0
239 4 2 0.1476803761551355 4.764244485370925 7.462677613810404 8.902002481699618 0 0 0
261 6 2 0.1086097372169716 7.9020457711291705 10.342894830970318 16.299354169908334 -1 0 0
168 3 2 0.07989843085556786 7.85228212587372 11.374930130871164 8.976152928771464 -1 0 0

Velocities

1 0.0025419824355865602 -0.005047211451239359 -0.0007062719536970166
2 -0.002325837288211938 -0.001320862187839047 0.0013506256260410827
3 0.000503901561186649 0.003986306671322331 0.003530701195565358
174 -0.0228090434103087 0.0015272228568296354 -0.016164169544170097