ITEM: TIMESTEP
0
ITEM: NUMBER OF ATOMS
386
ITEM: BOX BOUNDS xy xz yz pp pp pp
-1.0522200000000000e+01 1.6607800000000001e+01 -9.4504999999999999e+00
0.0000000000000000e+00 1.3453600000000000e+01 -1.0717000000000001e+00
0.0000000000000000e+00 1.7350200000000001e+01 3.3999999999999998e-03
ITEM: ATOMS id type q x y z element
8 4 0.464503 0.859571 1.35622 0.839296 Si
12 4 1.23421 -0.290569 3.82134 1.77632 Si
13 4 1.12244 -3.93332 6.18159 3.5368 Si
15 4 0.726545 -0.997718 4.73946 7.27734 Si
70 1 -0.0767136 -0.676439 3.14955 5.93295 C
132 2 0.133886 -1.1519 3.57887 5.04656 H
133 2 0.0820348 -1.20747 2.26232 6.36238 H
134 2 0.0458458 0.414095 2.97292 5.8864 H
233 3 -0.782545 -1.51468 3.46502 2.80501 O
234 3 -0.695787 0.882277 2.69805 1.79708 O
235 3 -0.817387 -0.496118 4.51141 0.330832 O
236 3 -0.781805 -3.78697 6.08765 5.10364 O
237 3 -0.722715 -1.55281 6.09537 6.59475 O
254 3 -0.62771 0.389241 5.42763 3.11082 O
113 2 0.0147174 1.35846 5.3133 6.61225 H
240 3 -0.704211 -2.41824 6.44666 0.451477 O
257 3 -0.692923 -0.0144368 4.8336 8.51557 O
105 2 0.272611 -0.381689 6.05024 2.72823 H
241 3 -0.706703 -3.79948 6.69155 7.83468 O
16 4 1.07178 -3.03128 6.72527 6.38372 Si
374 2 0.0851907 2.63977 0.615359 5.93782 H
357 2 0.0928508 3.36279 0.924165 0.53243 H
258 3 -0.706228 2.73999 6.37339 4.60813 O
177 2 0.0752079 2.93262 3.87853 1.24602 H
340 2 0.082294 1.81771 1.59715 7.21094 H
255 3 -0.727419 3.08722 3.13057 8.4058 O
252 3 -0.777308 5.13437 2.65519 2.99976 O
247 3 -0.752362 4.93764 0.797489 4.98998 O
244 3 -0.76452 3.24069 0.740221 2.72861 O
176 2 0.119383 2.67265 4.48438 2.97568 H
338 1 -0.0719916 1.93268 0.613789 6.75379 C
256 3 -0.761811 5.42484 2.25476 7.16217 O
178 2 0.0843165 3.12163 5.61179 1.6621 H
346 2 0.104042 5.41176 0.703159 1.54916 H
25 4 1.0563 4.17557 1.61728 3.76882 Si
29 4 1.02782 6.14547 1.25677 6.00636 Si
259 3 -0.736649 3.77792 4.23101 5.95582 O
36 4 0.98515 4.20701 3.27241 7.18121 Si
38 4 0.703437 2.91487 5.55653 5.94791 Si
85 1 -0.0779055 3.20068 4.58846 2.02364 C
111 2 0.0337061 2.96611 2.51096 4.6547 H
33 4 1.06255 5.15007 4.16463 2.36993 Si
344 1 -0.0973151 6.24604 0.0625996 1.87345 C
248 3 -0.770113 7.24839 0.079613 6.39688 O
11 4 0.786044 -0.390325 2.36583 11.7173 Si
17 4 0.506046 0.275607 4.58082 13.8175 Si
71 1 -0.085187 -0.744271 3.14807 14.995 C
72 1 -0.0804258 -3.35226 5.07368 15.2224 C
119 2 0.0559138 -2.13082 4.45877 12.3902 H
135 2 0.0511246 0.0506894 2.4777 15.3115 H
136 2 0.0978252 -1.43395 2.75563 14.2455 H
137 2 0.076584 -1.262 3.66592 15.8133 H
139 2 0.0313017 -3.00233 5.73284 14.4182 H
144 2 0.027669 -3.96931 5.99036 10.3658 H
155 2 0.0608166 -0.430157 1.16203 9.5198 H
182 2 0.0510378 -1.35246 5.97629 10.8375 H
232 3 -0.703864 0.408173 1.73544 13.0029 O
238 3 -0.663488 0.362921 4.28552 11.7523 O
262 3 -0.733493 -0.191026 6.09219 14.1133 O
78 1 -0.111608 0.401931 1.63939 9.98763 C
140 2 0.103065 -4.38184 5.15942 15.6479 H
369 2 0.110677 -1.42291 4.37972 9.67807 H
108 2 0.0857548 -2.73443 3.69685 12.6624 H
37 4 0.657221 0.658452 6.14641 9.25428 Si
14 4 1.08883 -2.22347 5.81236 16.9747 Si
138 2 0.0838173 -3.03654 4.03866 15.0868 H
157 2 0.0994014 0.780314 2.48615 9.41671 H
231 3 -0.772751 -1.98698 2.12385 11.7182 O
332 2 0.0857288 -0.504465 0.148004 14.3144 H
156 2 0.061443 1.19779 0.965872 10.2811 H
354 1 -0.0801448 1.59449 1.12812 17.0965 C
41 4 1.05126 3.16968 6.02742 10.901 Si
159 2 0.00832597 1.87699 3.38793 15.0324 H
356 2 0.0407633 1.46945 0.280711 16.4005 H
162 2 0.0936985 5.63412 0.987553 12.1711 H
106 2 0.017592 2.74711 1.12852 11.8583 H
355 2 0.06365 1.73579 2.05399 16.6056 H
112 2 0.316069 1.29041 4.17752 11.5198 H
30 4 0.700769 6.90964 0.247616 14.1608 Si
163 2 0.0987795 4.48819 0.231755 13.4152 H
160 2 0.0397021 2.6882 4.38985 13.6077 H
125 2 0.283462 2.99144 4.13155 9.00389 H
39 4 1.05263 4.58721 3.62747 11.9298 Si
251 3 -0.616845 5.79094 1.58136 9.6644 O
260 3 -0.770953 4.59137 2.69056 13.261 O
249 3 -0.708629 2.80445 1.23999 14.4207 O
246 3 -0.625329 3.18056 0.579834 9.6044 O
158 2 0.0695233 2.60632 5.08737 15.2412 H
266 3 -0.860351 3.38073 4.52941 11.4396 O
250 3 -0.769064 4.46499 2.4114 16.1696 O
10 4 0.612986 1.77358 0.879268 13.2364 Si
28 4 0.756757 4.1377 1.83317 9.73007 Si
265 3 -0.734902 2.24863 6.05545 9.56319 O
31 4 1.01222 3.80099 2.55117 14.6785 Si
80 1 -0.0695798 5.35839 0.129842 12.7623 C
79 1 -0.125899 2.23699 4.30743 14.5782 C
2 1 -0.100361 -6.30737 11.3279 1.75982 C
6 3 -0.754117 -7.58979 12.2998 4.13889 O
73 1 -0.124544 -3.73133 9.08488 0.821892 C
3 2 0.0202565 -5.28513 11.619 1.80723 H
143 2 0.00307307 -3.43076 9.9487 1.38986 H
319 1 -0.0410483 -4.72454 12.2527 7.63133 C
321 2 0.0727809 -4.77069 12.1545 6.54887 H
322 2 0.0712953 -4.82621 11.2943 8.14188 H
4 2 0.0602644 -6.7463 11.3681 0.76981 H
343 2 0.0302275 -6.64768 11.2257 6.43292 H
147 2 0.0276325 -5.93852 8.16883 7.43267 H
5 2 0.0951446 -6.51137 10.4036 2.27862 H
341 1 -0.142468 -7.45072 10.5348 6.39786 C
148 2 0.0190892 -5.91543 9.57971 8.57239 H
323 2 0.149209 -3.94995 12.9102 7.94183 H
318 4 0.281489 -6.45074 13.1259 8.22471 Si
1 4 0.890415 -7.19482 12.9581 2.74036 Si
375 2 0.0382899 -5.41583 8.49705 3.02764 H
141 2 0.0545471 -4.7284 8.73873 1.04123 H
230 3 -0.647675 -9.09839 13.119 1.89692 O
173 2 0.0683738 -3.46738 9.31636 6.79953 H
347 2 0.0706722 -3.22508 13.2639 2.92013 H
75 1 -0.135743 -5.8665 8.49783 8.46392 C
190 2 0.0279052 -4.57508 12.4868 0.0265403 H
320 2 0.00447574 -7.39621 11.7356 8.64453 H
339 2 0.0689868 -8.42972 13.4255 6.62544 H
270 3 -0.774043 -2.13729 11.6691 8.53434 O
174 2 0.0322998 -2.96222 9.15058 5.06466 H
34 4 0.850204 1.51575 6.94676 3.73594 Si
272 3 -0.714485 -0.434331 11.6269 6.4535 O
180 2 0.0856909 -0.57446 7.96428 7.91933 H
345 2 0.00605268 -2.91413 12.7208 1.1985 H
267 3 -0.732145 2.13105 7.68203 2.42617 O
239 3 -0.724218 -2.73321 7.1786 2.96771 O
172 2 0.0423422 -0.535257 8.32765 4.01632 H
171 2 0.0753283 -0.162854 7.36939 5.53059 H
114 2 -0.0247477 0.835274 9.94002 1.76074 H
109 2 0.00698295 -0.802576 8.23489 1.66673 H
86 1 -0.0949843 0.504919 7.86648 8.06577 C
187 2 0.0470014 -2.14135 11.2546 4.27827 H
381 2 0.00571987 -1.50593 10.7201 0.567029 H
181 2 0.0243216 1.12149 7.63388 7.20282 H
170 2 0.0613282 0.726933 8.88973 5.17082 H
185 2 0.0140031 -1.00465 10.5984 3.03091 H
175 2 0.0826124 -1.64003 9.1429 6.39585 H
186 2 0.0234226 -1.36897 12.3485 3.04982 H
19 4 0.652282 -2.42187 7.68132 1.47403 Si
27 4 1.11684 -1.37037 12.5388 7.40162 Si
83 1 -0.123746 0.181311 8.04906 4.77373 C
84 1 -0.0957257 -2.71317 8.97977 6.10718 C
88 1 -0.143858 -1.26322 11.4721 3.65504 C
22 4 0.936351 -4.46333 9.27261 13.7929 Si
23 4 0.668753 -5.26412 10.3159 11.0994 Si
77 1 -0.120779 -6.48294 11.7399 11.9337 C
90 1 -0.0934169 -5.75296 12.2728 16.3289 C
110 2 -0.0262791 -6.62974 9.8281 10.2031 H
152 2 0.0612873 -6.03177 12.687 11.7057 H
153 2 0.0532102 -6.3449 11.363 12.9487 H
154 2 0.0118756 -7.45065 11.6595 11.5301 H
382 2 0.121293 -5.8197 13.1521 15.6947 H
242 3 -0.760162 -5.42874 8.59841 15.0168 O
243 3 -0.719975 -5.02683 9.18447 12.2046 O
271 3 -0.710791 -4.07712 11.0293 10.2336 O
274 3 -0.699086 -4.22679 10.8206 14.2942 O
371 2 -0.0177502 -8.00892 12.6282 13.4269 H
74 1 -0.112415 -4.1754 6.99401 10.7801 C
120 2 0.108013 -7.00042 10.4444 15.1514 H
161 2 0.081466 -3.93795 12.5858 12.2878 H
46 4 0.61079 -3.84558 11.5899 15.6809 Si
142 2 0.0634146 -4.57267 9.13968 17.1447 H
145 2 0.0591782 -5.1952 7.28185 11.0422 H
21 4 0.645589 -3.98977 7.88582 8.95271 Si
191 2 0.0356314 -6.51566 11.5353 16.1238 H
331 2 0.0452077 -10.0479 13.1025 16.0904 H
189 2 0.0395188 -2.86113 9.52061 16.5411 H
277 3 -0.769507 0.910687 9.28884 11.8788 O
184 2 0.098271 0.0592658 6.96058 11.5978 H
89 1 -0.128317 -2.50777 10.4975 16.8681 C
87 1 -0.0860426 -0.62861 6.80608 10.7689 C
273 3 -0.735166 0.0103109 8.85701 14.6035 O
264 3 -0.784982 -1.19245 6.9609 16.4479 O
362 1 -0.0810762 -1.41042 12.3065 13.1658 C
275 3 -0.664868 -3.07507 13.0434 15.5033 O
363 2 0.111927 -2.13866 11.5467 12.7663 H
115 2 -0.00416296 2.10365 6.80814 12.0417 H
269 3 -0.742189 -2.81278 8.99212 8.93144 O
263 3 -0.766051 1.459 6.86747 16.107 O
276 3 -0.718656 -1.47535 10.459 11.2159 O
40 4 1.27947 0.0158954 7.13757 15.3516 Si
43 4 1.24405 -2.60941 10.5008 9.60967 Si
76 1 -0.0782459 -2.44385 8.46698 13.8359 C
149 2 0.0387129 -2.56945 7.48963 13.3729 H
150 2 0.081464 -2.30754 8.50628 14.8936 H
151 2 0.113655 -1.85927 9.13868 13.2005 H
188 2 0.0485137 -1.55525 10.7385 16.3852 H
183 2 0.0700092 -1.12299 7.71281 10.469 H
146 2 0.0564469 -3.41798 7.46315 11.3892 H
47 4 1.02473 0.134625 10.4648 11.0798 Si
179 2 0.0655603 0.919144 8.59664 8.72615 H
24 4 0.74527 7.97637 1.21351 1.71537 Si
91 1 -0.0819378 7.41555 2.85472 5.21142 C
118 2 0.00696501 9.78815 4.02764 3.5578 H
192 2 0.119202 7.11142 2.96234 4.17937 H
193 2 0.0670025 8.43337 2.51604 5.3699 H
194 2 0.043931 7.10419 3.64692 5.84892 H
195 2 0.0283416 8.2874 5.68769 5.02713 H
245 3 -0.761737 7.74599 2.29943 0.616991 O
253 3 -0.80885 5.87816 4.2297 0.873992 O
278 3 -0.729028 8.69622 1.51583 3.13635 O
291 3 -0.704409 5.69832 5.25651 3.43501 O
92 1 -0.12573 7.6781 6.55426 5.24127 C
167 2 0.0257534 7.92307 3.31469 7.9168 H
359 2 0.0806074 5.16354 5.95528 0.103497 H
201 2 0.0110087 9.58129 6.18393 6.90574 H
126 2 0.0687406 8.07154 6.23088 8.66632 H
351 1 -0.0814275 9.41476 0.310399 8.66099 C
196 2 0.0307097 6.99736 6.45206 6.07467 H
169 2 0.037494 6.5035 4.39975 8.27931 H
82 1 -0.114599 7.43081 3.96499 8.62741 C
56 4 0.680438 6.4761 6.65809 3.55893 Si
367 2 0.0468494 9.37708 5.93452 0.793298 H
360 2 0.0550261 4.36341 6.61148 1.64806 H
383 2 0.104185 7.60545 5.85732 0.538318 H
122 2 0.0442451 3.61675 6.54982 7.13813 H
366 1 -0.0864978 8.56723 5.97823 0.0737185 C
50 4 1.33698 13.0986 0.241721 8.11715 Si
350 2 0.122949 10.3072 0.379792 0.967309 H
380 2 0.103893 10.1818 0.523593 7.95211 H
51 4 1.33892 12.235 1.85258 5.59578 Si
58 4 0.178491 11.0115 3.97408 7.39369 Si
372 2 0.324934 11.8032 0.477317 3.07339 H
94 1 -0.0741415 10.3883 5.70529 6.36817 C
280 3 -0.822695 13.3674 1.89803 4.46463 O
281 3 -0.82162 10.8249 1.89476 4.87219 O
202 2 0.0429667 10.0841 5.21454 5.493 H
282 3 -0.839193 12.2525 0.906952 6.91168 O
124 2 0.047549 10.0283 2.62855 6.92516 H
203 2 0.109896 11.1909 6.35022 6.30065 H
7 4 1.08927 14.2022 2.10486 3.09884 Si
107 2 0.318351 13.0913 2.91708 7.70177 H
288 3 -0.783251 11.1277 2.41554 2.09695 O
130 2 0.267995 14.3707 2.73195 0.0743099 H
325 3 -0.76283 14.3227 0.787225 2.17093 O
290 3 -0.757205 12.1943 4.83858 2.72741 O
293 3 -0.611776 12.813 3.4924 6.93352 O
55 4 0.884673 12.2517 3.54671 1.81232 Si
48 4 1.01064 10.1189 2.28868 3.4324 Si
289 3 -0.634852 13.3253 3.21962 0.076578 O
123 2 0.345434 9.88335 2.28629 0.216104 H
32 4 0.588864 6.86437 2.73011 10.1947 Si
53 4 1.3446 7.93626 2.88154 15.1589 Si
81 1 -0.0713219 8.51836 1.82303 11.1763 C
96 1 -0.0867596 5.17782 6.0007 14.5587 C
127 2 0.318182 7.36885 4.82468 12.2322 H
166 2 0.121574 8.31935 2.29706 12.135 H
207 2 0.0278469 4.50917 5.5612 15.2665 H
208 2 0.11218 6.24705 5.88319 14.8063 H
209 2 0.064186 4.91882 5.87645 13.515 H
261 3 -0.724231 6.11037 3.61599 11.3421 O
283 3 -0.7637 7.83387 1.63288 14.1822 O
285 3 -0.771077 6.59924 3.60682 15.7895 O
301 3 -0.65373 7.35835 5.66393 12.888 O
352 2 0.0157236 8.70339 1.1334 8.8275 H
165 2 0.0470872 8.38376 0.748989 11.2066 H
26 4 1.34398 5.53671 3.2068 17.1492 Si
295 3 -0.795905 8.97997 4.03441 14.8005 O
284 3 -0.682347 9.21255 2.03539 16.6919 O
60 4 1.04551 9.22441 5.08808 13.5991 Si
168 2 0.0286686 8.05359 4.67865 9.1229 H
368 2 0.0938214 7.64429 5.46791 16.4783 H
121 2 0.276554 9.79834 0.00776177 14.3376 H
164 2 0.0806412 9.39826 2.20511 10.6953 H
204 2 0.0745129 10.3381 3.63647 9.67197 H
287 3 -0.693138 11.8612 2.88098 13.8874 O
296 3 -0.715411 9.84769 4.36304 11.7487 O
9 4 1.02491 13.3817 1.83555 10.7417 Si
286 3 -0.730637 11.8476 2.25677 11.1742 O
49 4 0.704237 11.075 1.64137 16.9134 Si
54 4 0.805517 11.4425 3.3011 12.3829 Si
52 4 0.798754 11.889 1.29408 14.4316 Si
205 2 0.0249776 10.4859 5.41308 9.3962 H
128 2 0.236215 10.1886 5.1957 11.3044 H
279 3 -0.794517 13.6266 1.45518 9.10817 O
317 3 -0.602417 13.2315 0.594103 14.9857 O
95 1 -0.0745757 10.9425 4.44072 9.35599 C
297 3 -0.82036 10.0301 6.38712 13.8879 O
206 2 0.0621361 11.928 4.34952 9.72646 H
370 2 0.0113996 10.7991 6.63341 16.4463 H
326 3 -0.719976 11.6876 0.209037 17.287 O
42 4 0.985703 2.40286 9.18248 1.88653 Si
64 4 1.24835 2.87978 11.3709 3.90254 Si
101 1 -0.0558715 2.25191 10.3008 7.21481 C
198 2 0.0768474 4.9769 7.81567 5.29639 H
199 2 0.137286 4.14398 7.83596 3.63084 H
222 2 0.0577816 2.74154 9.36229 7.29773 H
223 2 0.135929 2.78161 11.0157 6.56874 H
268 3 -0.753658 2.97067 9.16698 0.293367 O
305 3 -0.802169 3.26123 10.1152 2.974 O
306 3 -0.759939 2.3427 13.0644 2.56786 O
307 3 -0.763909 1.44353 11.0589 4.56403 O
224 2 0.118003 1.17898 10.2006 6.99582 H
312 3 -0.843996 3.92826 11.7933 5.06835 O
348 1 -0.0801585 -0.1111 13.3555 0.837977 C
93 1 -0.0600782 5.04702 8.01701 4.23613 C
44 4 0.748523 0.0294897 11.7584 4.88223 Si
349 2 0.0201296 -0.268834 12.5061 1.51497 H
324 4 0.896218 3.6924 13.2759 1.48794 Si
373 2 0.0173457 4.15512 11.5755 1.35399 H
358 1 -0.093615 4.93297 6.82034 0.751588 C
361 2 0.0707902 5.72239 7.49917 0.916965 H
311 3 -0.795501 6.5708 11.6993 5.06785 O
376 2 0.0318802 10.6131 7.3545 4.27991 H
302 3 -0.732591 7.32564 7.43651 2.42468 O
303 3 -0.711786 8.74999 9.01123 0.898117 O
131 2 0.0593767 10.4009 6.94281 2.52337 H
69 1 -0.120333 10.9964 7.44755 3.26969 C
313 3 -0.754002 5.19268 10.1845 6.76626 O
304 3 -0.80201 8.16678 9.84642 3.62452 O
314 3 -0.750907 5.11081 12.8406 7.20174 O
342 2 0.0267253 9.457 9.50228 6.20904 H
218 2 0.0795668 6.60603 11.0135 1.24829 H
216 2 0.0835794 5.30889 10.0594 2.17028 H
20 4 1.0992 8.04458 11.1108 4.64307 Si
63 4 0.994149 7.77656 9.02396 2.30021 Si
65 4 0.653249 5.98456 9.23386 7.81486 Si
67 4 1.46459 5.19915 11.6822 6.01826 Si
217 2 0.072415 5.87362 9.49854 0.522778 H
99 1 -0.094625 6.11858 10.0611 1.45097 C
129 2 -0.0171815 7.34159 8.71644 6.99292 H
197 2 0.0378802 8.1895 7.48716 5.23612 H
200 2 0.0640652 5.60209 8.91428 4.01455 H
377 2 0.0030966 8.46718 10.6745 7.16504 H
104 2 0.347476 6.94328 13.4506 2.63521 H
308 3 -0.724823 5.21235 7.92621 8.40255 O
35 4 1.0014 2.53699 7.9457 16.7724 Si
68 4 0.472201 1.93455 11.7449 14.7525 Si
102 1 -0.0742274 0.969596 11.3311 16.3944 C
103 1 -0.0984967 3.51619 9.84347 10.1601 C
117 2 0.0429905 0.549851 11.8578 12.0252 H
116 2 0.0588717 2.46518 7.99966 13.8969 H
227 2 0.027512 4.17466 10.5132 10.6259 H
229 2 0.102661 2.76245 9.51844 10.8722 H
299 3 -0.709399 3.49253 8.41425 15.5274 O
310 3 -0.721357 0.777488 10.7625 9.60978 O
315 3 -0.676031 2.1527 10.4758 13.7931 O
334 2 0.0672076 3.87643 12.304 12.1619 H
45 4 0.982875 1.18745 9.20209 13.4978 Si
66 4 0.680019 2.26427 11.0859 9.06533 Si
211 2 0.0713285 4.50406 9.77863 13.2491 H
384 2 0.0380467 0.24501 12.0889 16.6383 H
309 3 -0.752375 2.75372 12.6255 8.99989 O
365 2 0.0588734 -0.991485 12.9292 12.3914 H
337 2 0.106362 3.799 10.4669 16.0576 H
327 4 0.282048 4.26234 12.5118 14.5725 Si
225 2 0.0909609 1.76021 11.2065 17.1217 H
226 2 0.104714 0.536135 10.4375 15.9999 H
364 2 0.0542033 -0.715656 11.8834 13.9046 H
228 2 0.0976115 3.92892 9.08175 9.50071 H
386 2 0.0526414 4.5561 11.6243 17.0989 H
353 2 0.0953862 0.251468 13.2221 9.52516 H
294 3 -0.785784 4.46203 7.03666 10.8339 O
379 2 0.0892686 -1.46559 13.2403 17.1371 H
316 3 -0.642535 1.09911 13.3174 13.7398 O
385 2 0.0230671 6.91778 11.8913 14.7351 H
329 1 -0.0940386 4.86682 12.2818 12.6301 C
335 2 0.0186715 5.36151 11.3065 12.5555 H
378 2 0.0234274 10.0423 7.94514 9.09494 H
18 4 1.10297 10.1031 7.44623 15.1317 Si
59 4 1.03044 5.69173 7.21117 9.79089 Si
328 1 -0.0898744 6.44704 12.8266 15.0446 C
300 3 -0.742687 7.22789 7.25079 10.2188 O
221 2 0.0190894 7.93554 10.0173 9.23581 H
292 3 -0.771013 8.7707 8.11986 15.713 O
100 1 -0.139868 6.96044 10.4317 9.22318 C
330 1 -0.0729821 4.58496 11.1166 16.1356 C
298 3 -0.694673 6.08347 8.42544 16.1766 O
215 2 0.0165951 8.13817 9.58006 12.1779 H
212 2 0.0612365 5.52301 8.42913 12.4967 H
62 4 0.498736 7.97434 7.05554 11.6517 Si
336 2 0.0686337 5.55897 10.7635 15.8621 H
210 2 0.0277415 6.25913 9.71648 13.5274 H
57 4 0.953623 7.58636 8.07377 16.887 Si
61 4 0.62473 5.02052 8.01909 15.0574 Si
97 1 -0.108802 5.3827 9.13711 13.3045 C
98 1 -0.0920687 8.48101 8.7434 12.7591 C
219 2 0.0211996 6.38991 10.1312 10.0303 H
214 2 0.0923372 8.02996 8.52576 13.69 H
333 2 0.067935 5.47772 13.124 12.3821 H
213 2 0.0948532 9.54638 8.61038 12.7539 H
220 2 0.0460499 6.83244 11.4439 8.96195 H
ITEM: TIMESTEP
100
ITEM: NUMBER OF ATOMS
386
ITEM: BOX BOUNDS xy xz yz pp pp pp
-1.0175196000000000e+01 1.6607800000000001e+01 -9.1034959999999998e+00
0.0000000000000000e+00 1.3453600000000000e+01 -1.0717000000000001e+00
0.0000000000000000e+00 1.7350200000000001e+01 3.3999999999999998e-03
ITEM: ATOMS id type q x y z element
8 4 0.499336 0.92202 1.34846 0.77019 Si
12 4 1.24444 -0.0107978 3.94285 1.80644 Si
13 4 1.10046 -4.01658 6.04638 3.55027 Si
15 4 0.672841 -1.11906 4.75351 7.45498 Si
70 1 -0.0831242 -0.768523 3.29984 6.07227 C
132 2 0.11327 -1.57085 3.41862 5.31221 H
133 2 0.0538795 -0.857541 2.39381 6.63043 H
134 2 0.0436589 0.249072 3.46464 5.72571 H
233 3 -0.793392 -1.2368 3.36794 2.78777 O
234 3 -0.722053 1.04639 2.71832 1.63838 O
235 3 -0.814281 -0.590459 4.42448 0.346638 O
236 3 -0.727681 -3.71379 6.0677 5.16744 O
237 3 -0.69068 -1.45118 6.17718 6.72801 O
254 3 -0.634673 0.13477 5.62756 2.98994 O
113 2 0.0537371 1.48538 5.08991 6.81695 H
240 3 -0.716463 -2.40688 6.42919 0.303012 O
257 3 -0.658808 0.202179 4.85229 8.36915 O
105 2 0.28471 -0.650367 5.31153 3.85957 H
104 2 0.314184 0.0265661 0.0964818 2.5826 H
248 3 -0.795722 6.96839 0.198642 6.68951 O
374 2 0.0940435 1.78629 0.181724 5.90662 H
357 2 0.0999464 3.44208 0.878882 0.170036 H
258 3 -0.719271 2.61287 6.21998 4.58521 O
177 2 0.0795422 2.90867 3.79578 1.23203 H
340 2 0.0456601 1.8858 1.69107 6.92548 H
255 3 -0.783415 3.07274 3.34056 8.44904 O
252 3 -0.751024 5.17152 2.65815 2.91546 O
247 3 -0.794189 5.0202 0.902727 4.8151 O
244 3 -0.744407 3.35755 0.80597 2.6228 O
176 2 0.0794581 2.83659 4.24577 3.00085 H
338 1 -0.0869601 1.62064 0.635839 6.92348 C
256 3 -0.815687 5.31159 2.28631 6.96884 O
178 2 0.0831927 3.07438 5.54569 1.79423 H
346 2 0.0960299 5.68894 0.592217 1.43 H
25 4 1.07334 4.13179 1.69785 3.73421 Si
29 4 1.12696 6.09721 1.33927 5.9546 Si
259 3 -0.712667 3.91437 4.2533 6.00088 O
36 4 1.04713 4.01165 3.14322 7.17534 Si
38 4 0.641941 2.88921 5.55738 5.97517 Si
85 1 -0.0958786 3.21403 4.47166 2.0218 C
111 2 -0.00244531 2.77654 2.56899 4.42323 H
33 4 1.10964 5.23247 4.16233 2.22495 Si
344 1 -0.0823522 6.33252 0.0679527 2.11924 C
339 2 0.0689752 0.69 0.372766 7.35646 H
347 2 0.123117 6.15875 0.327572 3.1582 H
11 4 0.805323 -0.396196 2.38498 11.7095 Si
17 4 0.499906 0.272236 4.56519 14.0206 Si
71 1 -0.0812388 -0.991261 3.19223 14.947 C
72 1 -0.081542 -3.35918 5.05213 15.1513 C
119 2 0.067816 -2.54439 5.01079 12.545 H
135 2 0.0629721 -0.429328 2.27936 15.1261 H
136 2 0.0958813 -1.85817 3.10205 14.2821 H
137 2 0.0737279 -1.10578 3.72053 15.9257 H
139 2 0.0356456 -2.61559 5.24778 14.4002 H
144 2 0.0314855 -3.72943 6.04419 10.6966 H
155 2 0.076416 -0.602779 2.14122 9.18504 H
182 2 0.0590954 -1.28901 5.92576 10.633 H
232 3 -0.710075 0.324561 1.56954 12.9429 O
238 3 -0.642473 0.13115 4.30224 11.9728 O
262 3 -0.712465 -0.242557 6.04495 14.2378 O
78 1 -0.0982023 0.269101 1.89326 9.81776 C
140 2 0.095355 -4.26277 5.60097 15.1164 H
369 2 0.0696671 -2.2384 4.06201 9.54571 H
108 2 0.0294506 -2.93678 5.47638 12.5155 H
37 4 0.656793 0.766906 6.17605 9.21057 Si
14 4 1.16016 -2.26457 5.71278 16.9078 Si
138 2 0.126801 -3.68414 4.02794 15.2145 H
157 2 0.101868 1.118 2.53329 9.68696 H
231 3 -0.747004 -2.0192 2.36434 11.6271 O
332 2 0.0929086 -0.423861 0.243167 14.6137 H
156 2 0.0424834 0.523409 0.852816 9.96712 H
354 1 -0.0695272 1.53247 1.12992 16.8686 C
41 4 1.04507 3.22024 6.09333 10.9093 Si
159 2 0.0197852 1.7692 3.1854 14.8503 H
356 2 0.0442361 1.216 0.353482 16.2448 H
162 2 0.103129 5.67668 1.14752 12.0491 H
106 2 0.00825277 2.75666 1.40384 11.7771 H
355 2 0.0653962 1.59628 2.09667 16.378 H
112 2 0.283518 1.12026 4.22952 11.8086 H
30 4 0.67037 6.91076 0.145337 14.1217 Si
163 2 0.0785485 4.6346 0.308146 13.2337 H
160 2 0.0370962 2.69228 4.66719 13.9984 H
125 2 0.30806 3.17613 4.24184 8.94656 H
39 4 1.02052 4.60126 3.69519 12.06 Si
251 3 -0.65604 5.59469 1.58106 9.87713 O
260 3 -0.809095 4.56314 2.70266 13.3277 O
249 3 -0.725782 2.65513 1.31005 14.4984 O
246 3 -0.640011 3.05993 0.673974 9.5625 O
158 2 0.0580817 2.2674 4.64163 15.8587 H
266 3 -0.808538 3.30224 4.60853 11.6499 O
250 3 -0.783148 4.48746 2.27084 16.1888 O
10 4 0.618586 1.7536 0.918275 13.1595 Si
28 4 0.763528 4.02648 1.92408 9.82378 Si
265 3 -0.752909 2.31229 6.16062 9.59924 O
31 4 1.06092 3.78768 2.42961 14.711 Si
80 1 -0.0705688 5.51354 0.234772 12.6241 C
79 1 -0.135781 2.22328 4.20821 14.8772 C
87 1 -0.0742408 -0.499471 6.64467 10.7839 C
184 2 0.125792 0.0186142 6.57406 11.7612 H
2 1 -0.0940629 -6.31634 11.4299 1.73027 C
6 3 -0.745514 -7.63461 12.373 4.15699 O
73 1 -0.1423 -3.8427 8.97893 0.943964 C
3 2 0.023115 -5.27665 11.6558 1.5681 H
143 2 0.00641408 -3.67542 9.82716 1.56594 H
319 1 -0.0406415 -4.76641 12.4638 7.56847 C
321 2 0.094667 -4.73596 12.8777 6.61051 H
322 2 0.0591914 -4.75275 11.4293 7.63498 H
4 2 0.0767527 -6.87679 11.2953 0.83321 H
343 2 0.0321038 -6.62023 11.0576 6.34944 H
147 2 0.0293098 -5.69323 8.62626 7.13926 H
5 2 0.0891106 -6.46447 10.6358 2.42982 H
341 1 -0.140517 -7.55152 10.5236 6.39037 C
148 2 0.0305509 -5.60224 9.85494 8.51055 H
323 2 0.155189 -4.10442 12.9861 8.24901 H
318 4 0.278216 -6.50491 13.2389 8.22032 Si
1 4 0.805408 -7.15227 13.0449 2.73885 Si
375 2 0.028669 -5.44511 8.09649 3.78789 H
141 2 0.034763 -4.7563 8.45542 1.08404 H
230 3 -0.647729 -9.05523 13.1299 1.7867 O
173 2 0.0791636 -3.29007 9.47414 6.65936 H
84 1 -0.10351 -2.80999 8.93548 5.84229 C
75 1 -0.135895 -5.72748 8.82615 8.21203 C
190 2 0.0317103 -4.52915 12.4714 0.145922 H
16 4 1.01098 -2.97524 6.78645 6.42848 Si
88 1 -0.14216 -1.10357 11.5456 3.69738 C
270 3 -0.806317 -2.27699 11.4877 8.34377 O
174 2 0.0304245 -3.23222 9.06185 4.84766 H
34 4 0.862975 1.5267 6.94756 3.6522 Si
272 3 -0.729437 -0.493776 11.7101 6.41714 O
179 2 0.0406715 0.952334 8.70905 8.56997 H
345 2 0.0030852 -2.92748 12.4581 1.90511 H
267 3 -0.744778 2.14846 7.73011 2.35766 O
239 3 -0.729622 -2.8186 6.85211 2.87668 O
172 2 0.0604045 0.223655 9.13577 3.97405 H
171 2 0.0628115 -0.534853 7.69877 4.8002 H
114 2 -0.0290456 1.03631 9.97479 1.404 H
109 2 0.0180126 -1.01516 8.2844 1.78928 H
86 1 -0.0884013 0.14968 8.02342 8.30113 C
187 2 0.040094 -1.98415 11.0921 4.12154 H
381 2 -0.00333045 -1.92207 10.6052 0.549086 H
181 2 0.0663866 0.11627 7.81663 7.25345 H
170 2 0.0420833 0.936734 8.5057 5.43003 H
185 2 0.0194621 -0.595505 10.8951 2.99005 H
175 2 0.0618769 -1.75268 8.97795 5.94341 H
186 2 0.0250273 -1.34754 12.5321 3.31634 H
19 4 0.707366 -2.52801 7.52302 1.4743 Si
27 4 1.10381 -1.46851 12.5465 7.40589 Si
83 1 -0.111366 0.352444 8.26646 4.58542 C
349 2 0.0118026 -0.335474 12.1283 1.17369 H
241 3 -0.696059 -3.71437 6.79132 7.93525 O
320 2 0.00365724 -7.29611 11.749 8.61671 H
22 4 0.985836 -4.36665 9.26207 13.9326 Si
23 4 0.66886 -5.2564 10.3934 11.259 Si
77 1 -0.127255 -6.41163 11.9843 11.8509 C
90 1 -0.107756 -5.78493 12.0471 16.529 C
110 2 -0.0300756 -6.44153 9.7124 10.2245 H
152 2 0.0844134 -6.25423 12.6612 11.0398 H
153 2 0.0445391 -6.06108 12.2371 12.8343 H
154 2 0.00595814 -7.38685 11.485 11.7722 H
382 2 0.0881393 -6.26733 12.7649 15.8781 H
242 3 -0.783079 -5.26004 8.50527 15.0313 O
243 3 -0.711126 -4.98024 9.30557 12.4053 O
271 3 -0.730079 -3.98475 10.9828 10.362 O
274 3 -0.69718 -4.02122 10.8905 14.294 O
371 2 -0.00353642 -7.98876 12.6775 13.2426 H
74 1 -0.107971 -4.1679 7.01841 10.8245 C
120 2 0.121372 -6.65005 9.82141 15.8416 H
161 2 0.0773656 -3.76863 12.7695 12.1009 H
46 4 0.600655 -3.83688 11.6112 15.7639 Si
142 2 0.0483854 -4.72855 9.22652 17.2476 H
145 2 0.0415079 -5.21269 7.08967 11.1405 H
21 4 0.681528 -4.13727 7.87253 9.00757 Si
191 2 0.0253075 -6.2936 11.0722 16.4945 H
365 2 0.0599067 -1.18711 12.2858 12.3392 H
189 2 0.0575678 -2.72436 9.31245 16.5832 H
277 3 -0.774438 0.715051 8.9856 11.903 O
47 4 1.01516 0.273954 10.2203 10.9463 Si
89 1 -0.131102 -2.62902 10.3586 16.8919 C
364 2 0.0554861 -1.02962 11.6118 14.0496 H
273 3 -0.748895 0.167618 8.79837 14.5103 O
264 3 -0.795885 -1.31639 6.8957 16.4012 O
362 1 -0.0739164 -1.66802 11.9111 13.2412 C
275 3 -0.648493 -3.07833 13.0465 15.577 O
363 2 0.118112 -2.45791 11.1706 13.039 H
115 2 -0.00989109 2.30647 7.0233 12.0921 H
269 3 -0.744651 -2.92133 8.97627 9.14924 O
263 3 -0.777061 1.34798 7.03948 16.3151 O
276 3 -0.747959 -1.3656 10.3063 10.8505 O
40 4 1.27262 -0.020851 7.20467 15.431 Si
43 4 1.39664 -2.58649 10.504 9.60193 Si
76 1 -0.079177 -2.45559 8.2581 13.6892 C
149 2 0.0472584 -2.5733 7.27414 13.3401 H
150 2 0.0812213 -2.16904 8.35026 14.7222 H
151 2 0.0958003 -2.07653 9.02374 13.025 H
188 2 0.0367029 -1.63396 10.7467 16.7832 H
183 2 0.0842044 -0.738158 7.70922 10.6336 H
146 2 0.0733778 -3.48967 7.64254 11.4011 H
180 2 0.095376 -0.774397 8.25804 8.78406 H
24 4 0.653164 8.10226 1.14001 1.63085 Si
91 1 -0.090078 7.34042 2.89367 5.12772 C
118 2 -0.0041239 9.6399 4.10867 3.51795 H
192 2 0.133295 7.11701 2.76985 4.08215 H
193 2 0.0416865 8.30086 2.59002 5.44972 H
194 2 0.0646724 6.86979 3.73134 5.62348 H
195 2 0.0438467 7.90206 5.36671 4.95218 H
245 3 -0.698371 7.88519 2.4933 0.768603 O
253 3 -0.796317 5.9063 4.09871 0.778277 O
278 3 -0.713984 8.73798 1.60903 3.09756 O
291 3 -0.717767 5.89019 5.24069 3.21801 O
92 1 -0.121432 7.54961 6.3429 5.20055 C
167 2 0.0173154 8.12392 3.11499 8.03934 H
48 4 1.11821 10.094 2.43092 3.44447 Si
201 2 0.0138431 9.07203 5.57621 6.72065 H
359 2 0.0603155 4.73595 5.83891 0.243002 H
351 1 -0.0914765 9.48039 0.203702 8.53324 C
196 2 0.0299441 6.90164 6.40992 6.05625 H
169 2 0.0556225 6.69335 4.22549 8.08023 H
376 2 0.0455964 9.96447 6.72198 3.60459 H
56 4 0.710858 6.3136 6.71341 3.61402 Si
367 2 0.053623 9.30259 6.28181 1.2318 H
55 4 0.817589 12.3466 3.43303 1.84878 Si
383 2 0.117685 7.70924 5.80083 0.531537 H
293 3 -0.606694 12.7513 3.54396 6.79893 O
366 1 -0.0797181 8.70594 6.15788 0.35212 C
50 4 1.26833 13.2596 0.192296 8.06934 Si
352 2 0.00988827 9.04194 1.14851 8.586 H
380 2 0.117392 10.4564 0.0703754 8.09805 H
51 4 1.22063 12.3078 1.87167 5.58224 Si
58 4 0.165492 10.8407 3.91201 7.24974 Si
372 2 0.309941 11.9102 0.394709 3.40946 H
94 1 -0.0868909 9.98445 5.53053 6.19705 C
280 3 -0.811811 13.4493 1.90287 4.41243 O
281 3 -0.785522 10.767 2.04537 4.89332 O
202 2 0.0435135 9.86091 5.11254 5.18094 H
282 3 -0.792109 12.3455 0.724605 6.77394 O
124 2 0.0726864 10.0361 2.45024 6.75902 H
203 2 0.0710574 10.6552 6.39114 6.41783 H
7 4 1.13402 14.2451 2.2598 3.08932 Si
107 2 0.270156 13.1748 2.9672 7.52093 H
288 3 -0.761795 11.1798 2.39366 2.31077 O
82 1 -0.111984 7.50384 3.7712 8.63837 C
325 3 -0.786359 14.1369 1.06169 1.95035 O
290 3 -0.746404 12.2675 4.58637 2.93962 O
326 3 -0.728667 12.6593 0.19893 0.0117677 O
130 2 0.308204 14.1116 3.14649 0.158181 H
32 4 0.608693 6.77188 2.68666 10.2421 Si
53 4 1.33347 8.03351 2.79509 15.1802 Si
81 1 -0.0766427 8.31858 1.66971 11.2825 C
96 1 -0.0900192 5.16633 6.0047 14.5018 C
127 2 0.336808 7.00927 4.9809 12.4041 H
166 2 0.142164 8.44318 2.00802 12.3048 H
207 2 0.0253059 4.30976 5.52812 14.992 H
208 2 0.127382 6.1122 5.59384 14.8162 H
209 2 0.0653515 5.06795 6.07244 13.415 H
261 3 -0.732075 5.94233 3.79028 11.1319 O
283 3 -0.751898 7.70759 1.598 14.1468 O
285 3 -0.765828 6.79264 3.6411 15.8217 O
301 3 -0.683031 7.38105 5.68679 12.9758 O
126 2 0.0703138 8.53826 5.94357 9.31957 H
165 2 0.0384528 7.88239 0.699323 11.1616 H
26 4 1.30186 5.6123 3.09395 17.0759 Si
295 3 -0.788143 9.06318 3.8785 14.7323 O
284 3 -0.691406 9.29807 1.68454 16.5378 O
60 4 1.05447 9.20914 5.08371 13.6913 Si
168 2 0.0231469 8.15465 4.54393 9.10317 H
368 2 0.0675148 8.14687 5.67402 16.8605 H
289 3 -0.655506 12.1116 3.40112 17.2162 O
164 2 0.0591753 9.24148 1.78025 10.725 H
204 2 0.0650934 9.939 3.64937 9.67863 H
287 3 -0.686854 11.5495 2.78149 14.0037 O
296 3 -0.704891 9.70592 4.1895 11.8417 O
9 4 1.11095 13.3522 1.8225 10.7512 Si
286 3 -0.780594 12.0026 2.54944 11.2 O
49 4 0.734887 11.1592 1.69624 16.8227 Si
54 4 0.870275 11.3675 3.35356 12.449 Si
52 4 0.781263 11.8274 1.23356 14.3974 Si
205 2 0.0174107 10.5231 5.30897 9.28266 H
128 2 0.236381 9.81437 5.02516 11.3282 H
279 3 -0.802455 13.6573 1.37946 9.19946 O
317 3 -0.602721 13.2919 0.630065 14.8076 O
95 1 -0.0806662 10.7352 4.2565 9.2572 C
297 3 -0.77738 10.1964 6.27331 14.0711 O
206 2 0.0990318 11.7329 3.95821 9.60681 H
370 2 0.0105159 10.5688 6.52395 16.5625 H
123 2 0.312821 8.76874 1.97345 17.3448 H
42 4 1.05963 2.50418 9.23338 1.92813 Si
64 4 1.22036 2.89726 11.4886 3.98937 Si
101 1 -0.0622826 2.36773 10.2793 7.18311 C
198 2 0.0592851 4.76181 7.17671 5.44862 H
199 2 0.0991796 4.13778 8.07163 3.98363 H
222 2 0.0801724 3.06639 9.45589 7.2633 H
223 2 0.118415 2.68961 11.161 6.63443 H
268 3 -0.763319 3.34938 9.21732 0.513228 O
305 3 -0.802448 3.23376 10.2682 2.96464 O
306 3 -0.778332 2.4269 13.0856 2.63606 O
307 3 -0.755843 1.46874 11.0213 4.61278 O
224 2 0.0934773 1.36434 10.041 6.94586 H
312 3 -0.833184 4.05032 11.9357 5.04286 O
348 1 -0.100146 -0.21627 13.0856 0.688946 C
93 1 -0.0886138 4.9579 7.91502 4.67075 C
44 4 0.737269 0.103062 11.8487 4.95474 Si
360 2 0.0698075 4.78087 7.14864 1.49119 H
324 4 1.02972 3.65226 13.3579 1.56429 Si
373 2 0.0109879 4.58237 11.8859 1.4696 H
358 1 -0.0765941 5.04799 6.82181 0.504645 C
361 2 0.101774 6.02289 7.13517 0.203635 H
311 3 -0.820702 6.63839 11.6106 5.06657 O
378 2 0.0180641 9.98404 8.35922 8.61343 H
302 3 -0.714736 7.05568 7.51057 2.42766 O
303 3 -0.703361 8.75743 9.03341 0.842361 O
131 2 0.0278526 10.9289 7.26124 2.14586 H
69 1 -0.127777 10.8454 7.22274 3.23026 C
313 3 -0.760618 5.14579 10.1853 6.82128 O
304 3 -0.783544 8.30178 9.80382 3.61058 O