ITEM: TIMESTEP
0
ITEM: NUMBER OF ATOMS
373
ITEM: BOX BOUNDS xy xz yz pp pp pp
-1.0794400000000000e+01 2.0438599999999997e+01 -1.0794400000000000e+01
-3.3405999999999998e+00 1.4057499999999999e+01 1.3894000000000000e+00
0.0000000000000000e+00 1.7550000000000001e+01 -3.3405999999999998e+00
ITEM: ATOMS id type x y z
3 4 4.91408 1.18225 2.916
212 2 0.875662 2.63633 0.342338
5 4 6.43537 1.44708 5.55513
7 4 4.21849 4.19124 2.33374
9 4 5.00592 3.1798 7.80992
119 2 2.3972 5.57829 1.17628
33 3 5.98922 0.566659 1.85265
34 2 3.52685 0.299151 2.78526
325 1 -0.636665 4.17186 5.46323
36 3 5.39952 0.916959 4.41574
37 3 7.29547 0.245967 6.15338
41 3 4.54954 2.65002 2.61294
190 2 1.7952 -0.701817 5.00644
43 2 2.75898 4.67159 3.09553
111 2 6.05888 0.910454 8.64701
46 3 5.64575 2.27219 6.63224
326 2 -0.837241 3.20762 6.1269
48 3 3.88799 4.18952 7.31459
284 2 4.62589 0.459965 0.466713
4 4 7.31832 -1.11853 7.02485
328 2 0.198363 4.02944 4.70457
320 2 2.35863 2.63345 5.80905
35 2 6.49832 -0.818299 8.5339
178 4 1.88245 1.12221 6.34521
179 4 -0.251811 1.55586 8.70531
181 1 0.95174 0.29803 4.93477
42 1 2.82506 4.49449 1.07816
183 3 0.848421 1.37441 7.42414
327 2 -0.58 5.12952 6.03952
182 3 -1.83675 1.99531 8.02594
191 2 0.926099 0.952478 3.96222
118 2 3.55843 4.27255 0.130673
199 4 -1.37741 3.95897 1.20954
200 4 -2.20354 4.55706 4.47306
202 2 0.172041 4.61732 0.941384
203 1 0.128909 2.63836 1.1905
205 3 -1.89759 4.27405 2.64652
210 2 -0.8561 1.833 0.944878
211 2 0.616006 2.34948 2.20438
337 2 3.34272 0.458142 7.01234
117 2 1.83985 3.74561 1.12063
192 2 -0.0329846 0.206873 5.44446
331 2 7.54266 -0.674863 4.05201
207 3 -2.74641 6.06237 4.95388
63 3 4.64353 5.89043 5.06168
2 4 4.68379 -1.05384 10.6113
6 4 4.70461 -0.216548 13.7042
339 2 3.89524 0.298508 9.43965
32 1 5.58079 0.518778 9.61881
38 3 4.4145 -0.736366 12.122
39 3 5.70913 -1.25626 14.6903
40 1 3.00516 -0.195182 14.5258
50 3 5.2729 1.31969 13.7609
11 4 6.1244 2.6946 13.5966
285 2 8.571 -0.654512 16.0095
112 2 6.51214 -0.870309 10.2436
113 2 5.83014 1.23311 10.4711
114 2 2.12716 -0.429771 13.668
115 2 2.90971 0.833576 15.0001
116 2 3.14769 -1.11005 15.2447
129 2 2.02619 3.27014 12.1442
280 1 5.27264 -2.9795 17.1555
130 2 2.16002 4.63641 10.7694
286 2 8.6788 -2.35601 16.9145
189 2 0.37841 2.86248 9.55435
186 3 -0.261394 0.366309 9.68276
188 1 0.869547 -0.638098 12.1606
196 2 1.86419 -0.287932 11.8256
197 2 0.934758 -1.70353 12.6498
198 2 0.334293 0.177125 12.8609
315 2 0.029685 -0.612584 15.1159
213 2 -0.877844 1.73712 16.9842
53 3 5.14686 3.8214 12.7688
287 2 7.32056 -1.11388 17.4001
52 1 2.3584 4.35359 11.8665
279 4 6.41508 -2.23907 15.6929
204 1 -1.18937 0.629892 17.2865
281 1 7.99997 -1.51406 16.5183
45 2 4.45522 2.03434 8.98081
283 2 4.38354 -2.27494 17.2526
1 4 -3.76156 13.2858 1.55019
13 4 2.24572 8.97063 2.55255
31 1 -4.90919 11.8985 0.793192
357 2 -0.717001 5.59053 8.46853
55 1 1.95724 7.17409 3.12004
359 2 -1.1173 7.89297 8.32586
57 2 0.599314 8.57562 2.61096
59 1 -0.578359 12.2699 5.93381
60 1 0.0859354 10.068 8.48507
352 1 -4.26498 11.5055 6.20322
10 4 3.97644 5.82587 6.49637
109 2 -5.92288 12.3875 0.910861
110 2 -4.85894 10.9556 1.44829
249 2 -8.35136 10.4436 7.39891
235 2 -0.54754 11.6199 0.965449
365 2 -1.88704 12.5399 7.47021
136 2 2.01976 7.04437 4.19271
145 2 -0.942531 10.0336 7.99429
141 2 -1.46963 11.5633 5.91066
137 2 2.91975 6.78193 2.54437
144 2 0.776058 9.18133 8.41139
353 2 -5.37946 11.1419 6.67409
124 2 2.49971 7.60749 8.25355
201 4 -3.4359 7.47764 5.41185
206 1 -3.04406 8.90559 4.25996
49 1 3.15452 7.52848 7.31564
208 1 -5.35839 7.19967 5.7845
209 2 -3.20664 7.95685 7.0759
216 2 -2.20904 9.33936 5.15757
217 2 -3.92757 9.56235 4.20742
218 2 -2.43955 8.7661 3.34633
219 2 -5.6149 7.99344 4.99851
220 2 -5.5951 7.44799 6.80081
248 2 -6.91981 11.6874 7.14542
233 3 -2.53209 13.61 0.147948
355 2 -4.37073 12.0543 5.1186
243 1 -7.21 10.6185 7.3168
247 2 -6.60684 9.81662 6.81401
332 2 -1.831 12.6948 2.98861
47 2 2.33192 6.38691 6.03897
354 2 -3.46686 10.7106 6.18077
330 2 -3.43604 11.6453 3.16521
297 2 -2.97346 9.42533 8.02723
329 1 -2.93222 12.726 3.15522
296 2 -4.27391 7.93042 8.41362
135 2 0.980269 6.79826 2.67999
257 2 -8.306 10.0661 16.6498
44 1 2.81855 5.47293 15.8922
146 2 0.105953 10.5227 9.53347
74 1 -4.77567 7.24151 15.5297
120 2 2.24402 6.47383 15.7297
360 2 -2.46067 5.64807 9.73016
131 2 1.92417 5.10961 12.6363
348 1 -4.00629 10.2406 14.6382
162 2 -4.24209 7.31466 16.4965
163 2 -5.6418 8.04969 15.374
164 2 -4.0284 7.20236 14.7112
108 2 -3.26357 8.39396 17.3057
12 4 4.12348 4.9035 12.0025
338 2 -0.295666 8.72027 15.596
231 4 0.0973275 10.0343 16.8014
298 2 0.269765 10.02 10.866
349 2 -4.36244 9.1603 15.0066
351 2 -4.3967 10.4574 13.572
238 4 -6.89206 10.247 9.17446
159 2 -4.08077 5.25855 13.798
241 2 -5.57565 9.15555 9.01359
242 3 -6.41002 11.6572 9.8833
121 2 2.37626 4.80976 16.7371
300 2 -0.898911 11.3712 11.7539
303 2 0.582479 8.46292 14.2335
134 2 3.69732 6.17104 14.2139
282 2 -5.85132 9.98554 16.8812
350 2 -2.75696 10.518 14.8933
288 4 -2.39868 7.55953 9.84345
289 4 -1.5028 9.19697 12.5552
291 1 -0.198529 10.4826 11.8816
292 3 -2.03739 8.22004 11.2727
293 1 -0.402981 8.08026 13.7496
294 2 -2.70067 10.2895 13.1691
356 1 -0.99509 6.42393 9.18016
299 2 0.432231 10.3276 12.9414
167 2 -6.14374 7.62415 12.0949
301 2 -0.233689 7.17018 13.146
302 2 -1.39053 7.9668 14.4618
358 2 -0.257012 6.46951 10.0554
174 2 1.58532 8.85222 11.8439
295 2 -4.04894 9.51435 9.63571
122 2 3.10385 4.94007 14.9107
290 1 -3.61102 8.833 8.78805
342 2 12.0427 3.54267 3.47601
153 2 12.2368 5.14853 7.34769
17 4 10.27 3.58438 7.19878
58 1 12.568 -1.13922 7.90532
227 2 11.2641 5.61694 0.371437
64 2 6.10695 6.46989 1.45285
65 1 8.998 2.82189 8.51772
66 1 11.0321 2.26819 5.94938
67 1 11.7592 4.55472 8.13856
61 2 7.55565 2.45519 4.84279
71 3 7.2445 5.41005 4.51887
72 3 9.42152 4.56847 6.35759
138 2 11.8224 -0.337043 7.64939
321 1 15.4552 3.21406 4.85689
147 2 9.0633 1.73139 8.24705
148 2 7.93385 3.26992 8.47212
150 2 10.2202 1.50299 6.22785
151 2 12.0618 1.86222 6.03381
152 2 10.8375 2.72616 4.9445
154 2 12.4141 3.78081 8.57329
139 2 13.5373 -1.07764 7.33484
177 4 16.0965 0.843099 7.85831
343 2 12.4245 4.89304 1.82245
223 1 12.8731 6.49626 1.09716
214 2 15.4511 3.85064 0.269207
322 2 15.7472 3.20499 5.9721
346 2 12.491 0.501481 1.85592
259 4 13 2.51396 0.993105
262 2 11.0557 3.19875 1.84115
304 4 15.2537 -0.594407 4.97613
305 1 16.0145 0.464062 3.3171
306 3 15.6825 0.210379 6.41682
307 2 14.4505 0.893108 4.06206
308 2 15.9138 0.389546 2.16442
309 2 16.8518 1.09065 3.61897
317 2 13.7665 1.20117 8.13128
323 2 15.642 2.1467 4.25745
324 2 14.423 3.64888 4.70117
344 1 13.5121 0.775415 1.36503
340 1 12.0948 3.5619 2.33478
341 2 13.9337 3.65999 2.03909
62 3 5.28133 5.32644 2.42056
347 2 14.4646 0.674416 2.09582
370 3 8.73073 6.24778 0.342719
143 2 10.1107 -0.713562 6.24373
68 3 6.22328 3.98214 8.49678
226 2 13.7534 6.49014 0.349397
345 2 13.6485 0.23984 0.404515
19 4 8.43479 5.91125 5.45404
15 4 5.81943 6.09134 4.02028
156 2 10.6812 6.14152 4.61576
258 2 19.0152 -0.0791712 0.495942
225 2 10.2815 3.16904 16.8906
51 1 7.58967 2.20279 12.4411
184 2 14.8705 2.21904 9.35051
310 4 17.1631 -2.23736 14.1891
76 3 6.79789 3.23082 14.9093
126 2 7.18117 2.2632 11.335
312 1 18.7529 -1.65471 15.2592
128 2 8.3296 3.03271 12.6832
180 4 18.4361 -0.515419 10.924
316 1 14.6144 1.17538 8.97976
336 2 11.6275 -1.47761 16.6809
169 2 7.47599 3.9885 11.4858
187 1 16.7357 0.247211 11.6461
193 2 16.2305 0.900101 10.9649
127 2 8.01126 1.17759 12.7213
195 2 16.2683 -0.865821 11.5585
335 2 12.6686 -2.73179 15.7893
260 4 13.9128 0.161487 15.4828
261 4 13.0766 -1.76469 12.8535
263 3 14.1433 -0.440574 17.0084
264 1 15.4907 1.1383 15.1173
265 1 12.4542 1.44246 15.4981
266 3 13.5702 -0.923427 14.1264
267 2 11.3017 -1.93158 12.6388
269 1 13.6752 -0.715527 11.4794
270 2 15.75 0.691203 14.043
271 2 16.3554 1.0073 15.9136
272 2 14.9623 2.20531 15.1144
273 2 11.8769 1.50673 14.549
274 2 12.9921 2.45299 15.7127
275 2 11.832 1.1888 16.4017
276 2 14.3337 -1.43357 10.9284
277 2 14.1326 0.200279 12.0457
278 2 12.5964 -0.558264 10.9533
318 2 14.2482 0.470513 9.90028
311 2 16.8798 -0.735844 13.3256
140 2 12.7517 -1.35691 9.02658
319 2 15.8002 -0.306538 9.26719
333 1 11.6485 -2.46187 16.0823
194 2 16.6456 0.676086 12.6515
171 2 10.236 3.95427 13.1781
161 2 14.2223 3.50749 13.9648
81 1 10.2634 4.55227 12.2776
334 2 10.8581 -2.39355 15.2228
149 2 9.5349 3.06643 9.45953
173 2 9.18313 4.70594 11.7147
369 2 16.4323 -2.37236 16.4097
314 2 18.7683 -1.86468 16.3585
313 2 19.3922 -2.40331 14.7123
172 2 11.068 4.2742 11.5999
155 2 11.2402 5.17745 8.94964
368 2 15.0635 -2.61137 15.0046
215 2 18.0272 -0.164453 16.4909
256 2 19.7869 -3.09815 16.2977
14 4 0.807542 11.428 7.16532
23 4 6.8501 9.06305 3.03996
24 4 3.21636 10.6809 5.21182
25 4 5.43315 11.3059 1.65271
26 4 7.2704 7.77399 7.95998
28 4 5.79956 10.3647 6.92449
246 2 8.65705 10.6493 7.71269
70 1 9.71652 6.69616 4.35862
83 3 6.16237 7.69406 3.68157
84 3 7.81191 8.59226 1.46763
85 3 7.75837 9.87872 4.08424
86 3 2.77155 9.82033 3.79845
87 3 3.47299 12.2283 4.69249
88 3 1.86201 10.6648 6.2364
89 3 5.73086 9.97624 2.47022
90 2 5.47051 12.7194 2.6324
92 3 7.95448 6.93696 6.56808
56 3 2.58693 9.21597 1.06594
97 3 6.88584 11.2737 6.17216
98 3 4.49509 10.137 5.87267
99 3 6.42029 9.04806 7.41978
100 2 5.29781 11.0782 8.31413
229 2 8.43136 12.6075 4.37977
91 3 6.38144 6.76152 8.75605
123 2 4.41151 7.11595 7.75134
371 3 6.33118 11.5739 0.380673
158 2 9.43805 6.60776 3.25972
373 2 3.75656 11.2576 1.21054
254 2 8.36653 9.70654 0.19818
228 4 8.03366 11.0632 5.09762
224 2 12.7633 7.69209 2.1268
230 2 9.57014 10.6602 5.69932
157 2 9.76657 7.76739 4.717
364 2 2.65411 12.1518 0.137573
255 2 9.61303 11.1233 0.062586
125 2 3.20371 8.51901 6.73549
222 4 11.6079 7.32555 0.449489
232 1 0.0636322 12.3459 0.325507
142 2 -0.137675 12.3102 4.88694
16 4 7.28413 7.41612 0.625767
96 2 4.12446 8.55961 8.72354
236 2 0.307471 13.3677 0.844465
221 2 13.497 6.11314 5.52587
372 2 6.07557 13.1168 4.21758
18 4 6.05927 5.37473 9.55206
20 4 13.1482 5.58043 15.2148
21 4 7.00669 4.80893 15.5861
22 4 10.8387 6.29622 12.9775
27 4 4.14692 9.06803 10.3716
29 4 8.06473 7.30336 13.9583
30 4 6.88572 9.3313 12.0815
168 2 8.38323 5.2831 10.3292
75 3 13.1161 4.71102 16.5388
77 3 8.02328 4.56235 16.8026
78 3 5.6328 5.419 16.2646
79 1 11.9034 7.18145 11.6793
73 1 13.9822 4.57553 13.8055
170 2 7.08812 5.91324 11.6313
82 3 11.7589 6.09095 14.6247
8 4 4.2985 6.12108 16.8849
94 2 2.8113 10.3575 10.6273
95 1 2.70058 8.89537 11.7001
363 2 5.5743 8.54756 16.571
101 3 7.62161 5.83409 14.5181
102 3 9.48619 7.08808 13.1667
103 3 8.22561 8.27264 15.358
104 3 8.17467 9.47351 11.1247
105 3 5.45001 9.41435 11.1503
106 3 6.98143 7.93186 12.905
107 3 6.82104 10.6719 13.1154
133 2 5.28879 6.81808 13.2562
268 2 2.82711 10.5768 12.6263
132 2 3.58383 7.38378 12.6795
93 3 8.62445 8.16549 8.82784
165 2 11.3148 7.97238 11.1112
361 1 4.55721 8.15135 16.8768
176 2 3.25735 7.45569 10.9609
252 1 9.65391 10.2325 16.9689
80 1 7.40104 5.04288 10.8767
185 2 7.74537 11.8196 10.4892
367 2 5.2871 9.8672 15.8069
175 2 3.31579 9.2411 12.6174
237 4 9.03504 9.4265 9.78877
239 1 8.55594 11.0227 8.79722
245 2 7.48474 11.3376 8.96953
250 4 8.85277 8.45354 16.7338
362 2 3.89416 8.16129 15.927
251 1 10.2205 7.18852 17.0408
240 3 10.8992 9.53774 9.72825
54 1 4.19905 6.5402 13.1863
253 2 10.7061 6.75725 16.0799
366 1 5.25467 11.0204 15.5208
166 2 12.0452 6.22163 10.9994
244 2 9.38283 11.7606 9.07803
234 2 2.35193 8.5027 17.4586
160 2 13.3033 4.66384 12.889
69 3 4.69815 5.3797 10.4446
ITEM: TIMESTEP
100
ITEM: NUMBER OF ATOMS
373
ITEM: BOX BOUNDS xy xz yz pp pp pp
-1.0801428749999999e+01 2.0438599999999997e+01 -1.0801428749999999e+01
-3.3405999999999998e+00 1.4057499999999999e+01 1.3894000000000000e+00
0.0000000000000000e+00 1.7550000000000001e+01 -3.3405999999999998e+00
ITEM: ATOMS id type x y z
3 4 4.87762 1.1159 2.88918
287 2 5.98948 2.05617 0.0196199
5 4 6.51422 1.57663 5.40556
7 4 4.20069 4.22803 2.34297
9 4 5.19562 3.25598 7.70421
119 2 2.52835 5.74074 1.2736
33 3 5.79281 0.334758 1.80616
34 2 3.37264 0.289536 2.8929
325 1 -0.550691 4.2129 5.3512
36 3 5.55883 0.935756 4.2852
37 3 7.21481 0.321352 6.14679
41 3 4.56678 2.69073 2.57528
190 2 1.96235 -0.790455 5.27673
43 2 2.6721 4.66279 3.07551
111 2 5.71073 0.624025 8.44021
46 3 5.72855 2.35184 6.53439
326 2 -0.45889 3.14227 5.63763
48 3 4.05745 4.32195 7.33617
284 2 4.34704 0.481818 0.517267
4 4 7.37562 -1.05286 6.97977
328 2 0.178844 4.55258 4.51948
320 2 2.19893 2.84369 5.41366
35 2 6.55576 -0.904851 8.52973
178 4 1.89522 1.39634 6.25859
179 4 -0.204578 1.6918 8.70285
181 1 1.2054 0.125152 5.07224
42 1 2.77743 4.61319 1.14285
183 3 0.943207 1.50024 7.47348
327 2 -0.554071 4.95351 6.29281
182 3 -1.71704 1.66402 7.98703
191 2 1.38214 0.68348 4.09442
118 2 3.5114 4.52606 0.192488
199 4 -1.45361 3.9919 1.27571
200 4 -2.19676 4.51332 4.45565
202 2 0.0620852 4.771 0.840955
203 1 0.0894898 2.82654 0.973278
205 3 -1.91361 4.27936 2.90434
210 2 -0.763873 1.87556 1.27184
211 2 0.837911 2.83016 1.77733
337 2 3.43156 0.984397 6.75142
117 2 1.78398 3.89157 1.08329
192 2 0.111097 -0.0273509 5.42499
331 2 7.50418 -0.525862 4.04169
10 4 3.93808 5.74669 6.44986
135 2 1.64691 6.52037 2.53324
212 2 0.595095 2.56544 6.40362e-05
357 2 -0.905481 5.43351 8.31051
226 2 -5.28344 6.8611 0.647322
45 2 4.58695 2.07791 8.75042
2 4 4.71097 -0.968855 10.5984
6 4 4.79721 -0.28342 13.8349
339 2 3.87781 0.456839 9.71096
32 1 5.59102 0.502507 9.51846
38 3 4.59745 -0.743816 12.2002
39 3 5.89857 -1.29326 14.7884
40 1 3.12302 -0.299917 14.6497
50 3 5.2094 1.32279 13.7628
11 4 5.97002 2.77004 13.4917
285 2 8.64374 -0.762459 16.228
112 2 6.53931 -0.827594 10.3232
113 2 6.04726 1.29878 10.1212
114 2 2.21825 -0.474001 13.8699
115 2 3.17427 0.72327 15.1458
116 2 3.3245 -1.15719 15.355
129 2 2.37563 3.04696 12.5325
280 1 5.11278 -2.84711 17.1121
130 2 2.11124 3.66018 10.9027
286 2 8.80821 -2.49238 17.1091
189 2 -0.0278494 3.17967 9.43157
186 3 -0.334766 0.565668 9.88342
188 1 0.777151 -0.608416 12.4829
196 2 1.7494 -0.327304 11.9677
197 2 0.654529 -1.64264 12.7813
198 2 0.391291 0.0987257 13.2239
315 2 -0.139775 -0.385238 14.9172
213 2 -1.24234 1.50449 17.0952
53 3 5.02023 3.75675 12.5794
127 2 7.64826 1.10868 12.2998
52 1 2.44205 3.93139 11.9023
279 4 6.52317 -2.32816 15.7616
204 1 -1.32025 0.389334 17.4478
281 1 8.11007 -1.61871 16.7102
313 2 0.974014 -1.8679 14.7952
283 2 4.43443 -1.98744 17.096
1 4 -3.80675 13.2356 1.57613
13 4 2.19762 8.94965 2.62953
31 1 -4.74545 11.6652 0.793136
49 1 3.19021 7.35088 7.47157
55 1 2.18856 7.14368 3.26531
359 2 -1.21879 7.41876 8.28695
57 2 0.647914 8.40289 3.00738
59 1 -0.422255 12.2118 5.85289
60 1 0.0475593 10.2555 8.49439
352 1 -4.22525 11.6715 6.06594
365 2 -1.75101 12.5637 7.263
109 2 -5.82388 12.025 1.02853
110 2 -4.4591 10.707 1.30315
249 2 -7.92633 9.85671 7.00878
235 2 -0.432382 11.4305 0.443646
329 1 -2.9472 12.9212 3.19819
136 2 1.91144 6.96577 4.32204
145 2 -0.955043 10.3722 8.06361
141 2 -1.30213 11.5009 5.99432
137 2 3.3824 7.0406 3.03515
144 2 0.40429 9.19251 8.38264
353 2 -5.26194 11.1971 6.60942
124 2 2.65114 7.09202 8.4133
201 4 -3.51038 7.4409 5.528
206 1 -3.00612 8.73205 4.17004
207 3 -2.92793 6.08657 5.02369
208 1 -5.35071 7.20354 5.83589
209 2 -2.9744 8.15102 7.08504
216 2 -2.30501 9.42415 4.81056
217 2 -3.90185 9.26318 3.79413
218 2 -2.49493 8.23803 3.26063
219 2 -5.65798 7.76862 4.81935
220 2 -5.81858 7.67848 6.79832
248 2 -6.95501 11.4808 7.20882
233 3 -2.40765 13.5788 0.230114
355 2 -4.58983 12.2877 5.11029
243 1 -7.00146 10.3572 7.30895
247 2 -6.02221 9.71408 7.16265
332 2 -1.83685 13.1021 2.90134
47 2 2.20469 6.22378 6.36958
354 2 -3.30709 10.9445 5.94534
330 2 -3.18961 11.786 3.28435
297 2 -4.05915 9.28518 7.74526
290 1 -3.81836 8.8017 8.71549
257 2 -8.34703 10.2454 16.7332
44 1 2.51334 5.67554 16.0166
146 2 0.139256 10.7185 9.58343
74 1 -4.8407 7.20039 15.6914
120 2 2.46446 6.84185 15.5769
360 2 -2.6019 5.70584 10.0076
131 2 1.83015 4.87757 12.3198
348 1 -3.81572 10.0934 14.7671
162 2 -4.37947 7.32481 16.7663
163 2 -5.56952 7.98986 15.5588
164 2 -4.08891 7.18817 14.8307
108 2 -3.15092 8.27437 17.2015
12 4 4.06304 4.92568 11.979
338 2 -0.398819 8.8532 15.4928
231 4 0.16826 9.88601 16.8503
298 2 0.262175 10.3512 10.9253
349 2 -4.10425 9.06025 15.1077
351 2 -4.29121 10.3238 13.7728
238 4 -6.83318 10.2522 9.24256
159 2 -3.97548 5.01647 13.7847
241 2 -5.48404 9.28408 9.70477
242 3 -6.46774 11.7584 9.7689
121 2 1.60156 5.4531 16.7036
300 2 -0.78035 11.3875 12.1278
303 2 0.34312 8.26479 14.2233
134 2 3.41203 6.07966 14.2507
282 2 -6.17056 10.245 16.8621
350 2 -2.58075 10.4945 15.0305
288 4 -2.49283 7.52324 9.82598
289 4 -1.44919 9.17683 12.477
291 1 -0.125122 10.4589 11.9803
292 3 -1.96263 8.36662 11.1478
293 1 -0.553474 7.91033 13.7672
294 2 -2.60141 10.2374 13.2448
356 1 -1.1786 6.25812 9.02931
299 2 0.570639 10.2432 12.8529
167 2 -5.91906 7.28889 12.24
301 2 -0.383469 6.84021 13.3652
302 2 -1.58307 8.02173 14.4201
358 2 -0.368669 6.30507 9.7927
174 2 1.63608 8.85316 11.8872
295 2 -3.50948 9.58456 9.56699
122 2 2.63393 4.86083 15.2389
296 2 -4.55805 7.92506 9.0712
69 3 4.65638 5.39389 10.4026
342 2 12.6343 3.67858 3.55326
153 2 12.2059 4.89505 7.51424
17 4 10.1835 3.5089 7.20448
58 1 12.5395 -1.2075 8.16457
227 2 11.7971 5.54035 0.475474
64 2 6.23682 6.28712 1.29946
65 1 9.02671 2.58576 8.48439
66 1 11.0769 2.10457 6.1152
67 1 11.6474 4.31111 8.27625
61 2 7.671 2.5813 4.66133
71 3 7.13411 5.11198 4.44322
72 3 9.40209 4.59246 6.35301
138 2 11.642 -0.500727 8.11447
321 1 15.5979 3.08745 5.00428
147 2 8.92939 1.59075 8.01177
148 2 7.97745 3.14774 8.47082
150 2 10.6866 1.07489 6.41125
151 2 12.1726 2.27477 6.42882
152 2 10.8401 2.42886 5.05788
154 2 12.2514 3.46183 8.69544
139 2 13.4243 -0.778741 7.57271
177 4 16.0426 0.756795 7.81269
343 2 12.4807 4.96598 2.0314
223 1 12.7761 6.74763 1.2151
214 2 15.3411 3.52004 0.274718
322 2 15.5483 2.92367 6.1313
346 2 12.4856 0.470305 1.75229
259 4 12.8744 2.55324 0.993483
262 2 11.1941 3.28168 2.27742
304 4 15.1681 -0.472158 5.06732
305 1 15.9352 0.37689 3.29421
306 3 15.5836 0.153945 6.40423
307 2 14.3915 0.837258 3.93593
308 2 15.905 0.276003 2.2079
309 2 16.7545 1.18612 3.39625
317 2 13.9255 1.64858 7.86612
323 2 15.7074 2.05594 4.36897
324 2 14.6713 3.63809 4.62764
344 1 13.5106 0.837864 1.28675
340 1 12.3211 3.80495 2.51679
341 2 14.1138 3.53604 1.79261
62 3 5.23557 5.46279 2.39234
347 2 14.4262 0.661587 2.01929
370 3 8.691 6.121 0.0140447
143 2 10.1111 -0.805719 6.25471
68 3 6.40244 3.85018 8.50045
63 3 4.66938 5.90849 5.03088
345 2 13.6884 0.381636 0.244333
19 4 8.48735 5.77267 5.59667
15 4 5.93557 6.09067 4.05598
225 2 10.3282 3.31187 16.6618
51 1 7.39031 2.23966 12.2633
184 2 15.0595 2.48521 9.18939
310 4 17.3987 -2.2955 14.3065
76 3 6.6684 3.48874 14.7236
256 2 19.8316 -2.98147 16.3401
312 1 19.0458 -1.51563 15.1832
128 2 8.18035 2.9414 12.7498
180 4 18.4022 -0.523839 11.0557
316 1 14.5845 1.55436 8.85001
336 2 11.3371 -1.6699 16.7839
169 2 7.4409 4.09325 11.4525
187 1 16.6518 -0.0264514 11.7686
193 2 16.5046 0.767829 10.8488
366 1 16.0127 -2.7574 15.4334
195 2 16.2381 -1.09387 11.4255
335 2 12.9569 -2.56842 16.4054
260 4 13.8666 0.202745 15.4453
261 4 13.2932 -1.56731 12.7202
263 3 13.8905 -0.354263 17.0701
264 1 15.5909 0.913048 15.0836
265 1 12.5389 1.59983 15.4081
266 3 13.5852 -0.97202 14.1246
267 2 11.5675 -1.91122 12.4835
269 1 13.6342 -0.411193 11.3104
270 2 16.1402 0.543168 14.1605
271 2 16.3146 0.847146 16.0527
272 2 15.0807 2.02251 14.8713
273 2 12.1171 1.69685 14.3971
274 2 13.1939 2.48424 15.7343
275 2 11.7255 1.31458 16.1936
276 2 14.2498 -1.24509 10.6812
277 2 14.2591 0.413149 11.8865
278 2 12.562 -0.164398 11.0214
318 2 14.116 0.976116 9.71223
311 2 17.3557 -0.73057 13.4594
140 2 12.7544 -1.50356 9.18727
319 2 15.3965 -0.167038 9.24899
333 1 11.774 -2.53646 16.2968
194 2 16.202 0.320432 12.7201
171 2 10.3059 3.8603 13.0302
161 2 14.0903 3.41118 14.1334
81 1 10.3011 4.63201 12.1701
334 2 11.4798 -2.71461 15.1743
149 2 9.49381 2.56229 9.49693
215 2 18.1881 -0.373865 16.5971
369 2 16.4403 -2.25024 16.4645
314 2 18.8888 -1.77849 16.2974
126 2 7.02954 2.54459 11.252
172 2 11.0848 4.37672 11.3754
155 2 11.1641 4.95461 9.05529
368 2 15.0432 -2.32919 15.0603
14 4 0.96664 11.3865 7.15013
23 4 6.7908 9.00251 2.96197
24 4 3.13355 10.6988 5.13582
25 4 5.36058 11.2379 1.57321
26 4 7.34696 7.70112 7.98845
28 4 5.64251 10.2693 6.82571
246 2 8.79727 10.7103 7.67187
70 1 9.71352 6.6881 4.51215
83 3 6.34981 7.57679 3.69259
84 3 7.74015 8.39228 1.65217
85 3 7.70599 9.9786 3.90753
86 3 2.65946 9.98653 3.70339
87 3 3.42928 12.3314 4.94185
88 3 1.9642 10.5422 6.30952
89 3 5.51655 9.95318 2.40589
90 2 5.08793 12.5249 2.63749
92 3 7.92798 6.89506 6.60742
56 3 2.44676 9.20061 1.05543
97 3 6.78271 11.1949 6.11613
98 3 4.39064 9.96463 5.78136
99 3 6.29393 9.05396 7.48195
100 2 5.0412 11.3062 8.0462
229 2 8.60876 12.4036 4.6573
239 1 8.39756 11.057 8.74939
123 2 4.60482 7.12634 7.7622
371 3 6.3727 11.634 0.451046
221 2 13.5811 6.06974 5.71603
373 2 3.7872 11.3396 0.995251
258 2 8.13576 13.9227 0.533261
228 4 7.98306 10.8789 5.12094
224 2 12.3126 8.02407 2.1576
230 2 9.29817 10.4643 6.04015
157 2 9.51619 7.80913 4.65915
156 2 10.7748 6.37684 4.81058
372 2 5.929 13.0804 4.17152
125 2 2.95137 8.33937 7.09642
222 4 11.4692 7.34189 0.473725
232 1 0.15337 12.399 0.353901
142 2 -0.00387853 12.1684 4.77716
16 4 7.35165 7.28068 0.536913
96 2 4.11684 8.66224 8.6073
236 2 0.228966 12.874 1.32734
255 2 9.51138 11.1071 0.0722747
254 2 8.26435 9.71323 0.015504
158 2 9.47433 6.37672 3.45804
18 4 6.08678 5.4043 9.64367
20 4 13.1774 5.61368 15.1569
21 4 6.85963 4.85236 15.5602
22 4 10.824 6.36644 12.9306
27 4 4.16733 9.01819 10.3317
29 4 8.0142 7.44344 13.9004
30 4 6.96586 9.39558 12.016
168 2 8.37944 5.53047 10.3808
75 3 12.9945 4.83268 16.6321
77 3 8.04666 4.53059 16.7954
78 3 5.42892 5.41431 16.2341
79 1 12.114 7.20431 11.8232
73 1 14.0386 4.50544 13.8084
170 2 7.25276 6.05584 11.7582
82 3 11.7555 6.04428 14.5325
8 4 4.14702 6.0595 16.8902
94 2 2.93126 10.4112 10.6192
95 1 2.73716 9.01694 11.7036
363 2 5.63054 8.04121 16.51
101 3 7.53256 5.94307 14.4904
102 3 9.51336 7.24801 13.0611
103 3 8.13425 8.44056 15.1819
104 3 8.37024 9.73466 11.1996
105 3 5.56432 9.29516 11.0065
106 3 6.9691 7.92987 12.7741
107 3 6.75328 10.5613 13.2325
133 2 5.05123 6.45451 13.4119
268 2 2.96365 10.8152 12.4301
132 2 3.53871 7.40904 12.6802
93 3 8.55924 8.23805 8.83654
165 2 11.636 8.20075 11.5833
361 1 4.48256 8.04515 16.6636
176 2 3.23204 7.52202 10.8336
252 1 9.64382 10.3097 17.0151
80 1 7.45849 5.2908 10.9684
185 2 7.59961 11.9427 10.2848
367 2 5.03903 10.1752 15.5475
175 2 3.31759 9.16649 12.672
237 4 9.07315 9.51829 9.77779
91 3 6.45025 6.70635 8.80287
245 2 7.30177 11.089 8.81819
250 4 8.7987 8.51091 16.7705
362 2 3.8518 8.0068 15.6761
251 1 10.1845 7.2148 16.9971
240 3 10.7239 9.61679 9.73429
54 1 3.96799 6.3904 13.2295
253 2 10.6897 6.80577 16.0671
173 2 9.23804 4.82562 11.6962
166 2 12.0719 6.41214 10.9833
244 2 8.90081 11.9668 9.13657
234 2 2.65615 8.79462 17.4045
364 2 4.15484 8.83497 17.4137
160 2 13.4916 4.72045 12.8394
ITEM: TIMESTEP
200
ITEM: NUMBER OF ATOMS
373
ITEM: BOX BOUNDS xy xz yz pp pp pp
0.0000000000000000e+00 2.8679342499999997e+01 8.2407424999999996e+00
-3.3405999999999998e+00 1.4057499999999999e+01 1.3894000000000000e+00
0.0000000000000000e+00 1.7550000000000001e+01 -3.3405999999999998e+00
ITEM: ATOMS id type x y z
3 4 4.85777 1.19937 2.88569
152 2 10.4022 2.07811 5.11946
5 4 6.55945 1.666 5.3382
7 4 4.25611 4.20764 2.24302
9 4 5.26844 3.27092 7.67932
343 2 12.6205 5.06051 2.08896
33 3 5.71474 0.315753 1.95092
34 2 3.28112 0.479396 3.00279
331 2 7.78338 -0.491097 3.8971
36 3 5.37237 1.18705 4.41845
37 3 7.29855 0.396159 6.02374
41 3 4.59072 2.67666 2.50369
190 2 2.37023 -0.789373 5.42903
337 2 3.35809 0.736728 6.7647
111 2 5.71294 0.52188 8.20995
46 3 6.03668 2.5915 6.48049
118 2 3.55092 4.56916 0.0815256
48 3 4.19208 4.23233 7.17329
284 2 4.17249 0.0666316 0.437333
4 4 7.46325 -0.947561 6.91434
191 2 1.16269 0.408895 4.35166
181 1 1.32877 -0.168103 5.35636
35 2 6.73081 -0.767606 8.50904
153 2 12.1724 4.86758 7.67629
15 4 5.93906 6.15083 4.03467
19 4 8.42402 5.782 5.66189
17 4 10.1925 3.29885 7.26898
150 2 11.324 1.07801 6.3497
143 2 10.1716 -0.834201 5.89815
45 2 4.51684 1.95055 8.48045
262 2 11.3952 3.50646 2.77609
227 2 11.898 5.52798 0.570426
62 3 5.45044 5.30232 2.34545
64 2 6.29833 6.09406 1.2067
65 1 9.01574 2.30046 8.47648
66 1 11.0551 2.10324 6.01549
67 1 11.551 4.28756 8.46749
61 2 7.7664 2.54946 4.51265
71 3 7.2321 5.33376 4.6092
72 3 9.34679 4.41896 6.47526
147 2 8.83155 1.45186 7.71657
148 2 8.03515 2.81552 8.69176
151 2 12.0024 2.84555 5.95276
2 4 4.80776 -0.903403 10.6169
6 4 4.87233 -0.290513 13.8697
339 2 3.79734 0.497996 9.72223
32 1 5.55638 0.508429 9.36303
38 3 4.65821 -0.603116 12.1436
39 3 5.80556 -1.29065 14.7866
40 1 3.18506 -0.401083 14.6057
50 3 5.32959 1.31985 13.9905
11 4 5.99758 2.86293 13.4986
285 2 8.73093 -0.953847 15.9611
112 2 6.61033 -0.695827 10.2918
113 2 6.14754 1.31802 9.9378
283 2 4.53214 -1.79528 17.3176
281 1 8.15481 -1.6308 16.5822
116 2 3.26265 -1.39439 15.2252
279 4 6.48728 -2.34798 15.8429
280 1 5.03315 -2.78471 17.1054
127 2 7.38133 1.26803 12.3628
286 2 8.78695 -2.55202 17.042
53 3 4.86962 3.81325 12.7477
225 2 10.022 2.97707 16.4428
51 1 7.26955 2.36277 12.0957
155 2 10.9871 4.95082 9.13294
172 2 11.1781 4.66097 11.4165
126 2 6.97239 2.57986 11.0318
76 3 6.686 3.61559 14.6636
128 2 8.11512 2.98277 12.5522
336 2 11.2186 -1.63267 16.6449
149 2 9.57257 1.93091 9.39573
169 2 7.4351 4.24132 11.3889
68 3 6.32434 3.95114 8.88316
161 2 14.0827 3.49284 14.2892
171 2 10.278 3.82786 12.907
265 1 12.4805 1.53142 15.2627
273 2 12.044 1.62892 14.2069
274 2 13.1823 2.38764 15.4557
275 2 11.7191 1.43115 16.0405
370 3 10.0898 2.86516 17.4864
154 2 12.1334 3.46444 9.01119
287 2 7.55617 -1.09635 17.4173
1 4 15.1935 13.0478 1.47758
290 1 14.7721 8.26299 8.75484
31 1 14.4943 11.331 0.88667
297 2 14.173 7.93256 7.88998
330 2 15.8313 11.739 3.26611
354 2 15.6365 11.1625 5.75553
332 2 17.2626 12.939 2.5965
247 2 13.2363 9.8329 7.29871
243 1 12.1929 10.2558 7.47043
352 1 14.6411 11.904 6.00561
226 2 13.5797 7.27178 0.72397
109 2 13.4027 11.757 0.907042
110 2 14.6562 10.5832 1.652
249 2 11.3623 9.54278 7.1198
355 2 14.2847 12.4437 5.02757
329 1 16.1901 12.8547 3.0333
233 3 16.5929 13.5429 0.165656
248 2 12.0471 11.3638 7.25921
220 2 13.2904 7.65783 6.75296
219 2 13.423 7.95718 4.81967
217 2 14.7484 8.95016 4.00192
353 2 13.7774 11.4098 6.54199
208 1 13.6565 7.25514 5.74884
23 4 6.84163 8.90345 2.76827
158 2 9.23536 6.6423 3.47751
254 2 8.76491 9.79008 0.228209
221 2 13.3287 6.17221 5.63928
26 4 7.34816 7.70185 7.92936
246 2 8.53589 10.7904 7.75298
16 4 7.24115 7.24559 0.319226
70 1 9.67292 6.68651 4.54618
83 3 6.30122 7.6411 3.69579
222 4 11.2675 7.28766 0.547448
84 3 7.86387 8.34477 1.40765
85 3 7.74723 10.0327 3.64543
156 2 10.7018 6.16272 4.63284
157 2 9.65438 7.72791 5.03496
230 2 9.11856 10.0249 6.01398
224 2 12.0535 7.98918 2.07372
228 4 7.97853 10.712 5.00823
92 3 7.95635 6.91163 6.68772
229 2 8.98182 12.0732 4.7764
365 2 17.4002 12.7743 7.2147
223 1 12.6725 6.91249 1.34121
63 3 4.78223 6.08511 5.09764
257 2 10.5667 10.0091 16.755
296 2 14.4157 7.58845 10.0208
295 2 14.8874 9.34119 8.84156
74 1 14.16 7.2484 15.7999
167 2 13.2467 7.52041 12.2087
294 2 16.5639 9.94916 13.417
350 2 16.3461 10.3492 15.1084
348 1 15.168 10.142 14.8083
162 2 14.769 7.42618 16.8316
163 2 13.3868 8.01339 15.6203
164 2 14.8805 7.09704 14.9472
108 2 16.1814 7.66332 17.4043
282 2 12.6273 10.5698 16.59
300 2 18.4111 11.2382 12.3591
242 3 12.6262 11.7507 9.97279
241 2 13.3444 9.09229 9.7528
349 2 14.7497 9.07754 15.174
351 2 14.9115 10.3888 13.7632
238 4 12.1685 10.3317 9.38655
104 3 8.3312 9.68529 11.1331
18 4 6.16312 5.38894 9.59481
160 2 13.5501 4.73926 13.0684
20 4 13.1202 5.61944 15.3544
21 4 6.78277 4.92866 15.5743
244 2 9.2288 12.0847 9.04492
166 2 11.9613 6.74945 10.9267
103 3 8.36774 8.53391 15.1493
253 2 10.329 6.59014 15.9047
22 4 10.9751 6.42019 13.0028
240 3 10.7012 9.73311 9.80584
251 1 10.3265 7.11916 16.9192
29 4 8.00694 7.43428 13.9774
250 4 8.85076 8.44136 16.7696
168 2 8.47863 5.59445 10.3083
173 2 9.32603 4.93344 11.7036
237 4 9.03656 9.58652 9.74819
75 3 12.9353 4.71897 16.7009
77 3 7.66014 4.47642 16.8138
79 1 12.1573 7.42066 11.8564
80 1 7.52152 5.39945 10.9389
252 1 9.46798 10.2832 17.0429
73 1 14.0916 4.57458 14.0287
170 2 7.37825 6.18307 11.7075
165 2 11.5774 8.4103 11.7803
93 3 8.48855 8.3047 8.91311
82 3 11.8981 6.05735 14.4065
101 3 7.3833 6.07477 14.6893
102 3 9.61508 7.08655 13.3936
239 1 8.51491 11.2508 8.80898
255 2 11.1756 7.7695 17.0322
159 2 15.1014 5.04956 14.1294
81 1 10.3361 4.74105 12.1921
91 3 6.30962 6.7127 8.77841
342 2 13.1797 3.9488 3.53193
345 2 13.43 0.342228 0.332313
347 2 14.3304 0.658755 2.06909
58 1 12.6395 -1.31396 8.27483
341 2 14.1889 2.94503 2.02949
340 1 12.6422 3.90783 2.54197
344 1 13.3054 0.835283 1.31062
324 2 14.7226 3.44168 5.00448
323 2 15.7374 1.90618 4.33226
317 2 13.7595 1.67324 8.1514
309 2 16.4419 1.21142 3.25212
308 2 15.8428 -0.0702073 2.13574
138 2 11.8713 -0.389625 8.31346
321 1 15.7551 2.92458 5.05673
307 2 14.3134 0.769865 3.93994
306 3 15.53 0.200949 6.4729
305 1 15.892 0.278043 3.21319
212 2 19.8886 2.84185 0.0991591
304 4 15.1397 -0.530067 5.01165
259 4 12.6683 2.54818 1.18552
139 2 13.6658 -1.04062 7.76236
177 4 15.9572 0.82967 7.85516
346 2 12.3212 0.425918 1.89197
322 2 16.0961 2.68118 6.14424
214 2 15.3549 2.71401 0.563916
119 2 21.5826 5.79547 1.2057
325 1 18.4725 4.25023 5.39674
207 3 16.0889 5.95044 5.06024
204 1 16.1654 3.383 0.170097
179 4 18.8135 1.74665 8.62954
10 4 23.1013 5.81009 6.46404
43 2 21.7302 4.66075 2.9271
192 2 19.4419 -0.568695 5.85828
117 2 20.9018 3.96501 0.908162
326 2 18.4572 3.31037 6.11249
211 2 19.6396 2.67729 2.03596
210 2 18.2894 1.96584 0.80316
205 3 17.1997 4.26945 2.80094
203 1 19.1575 2.86989 0.985929
202 2 19.1084 4.77731 0.772774
200 4 16.8055 4.50696 4.57811
199 4 17.5618 4.03599 1.22009