ITEM: TIMESTEP
0
ITEM: NUMBER OF ATOMS
373
ITEM: BOX BOUNDS xy xz yz pp pp pp
-1.0794400000000000e+01 2.0438599999999997e+01 -1.0794400000000000e+01
-3.3405999999999998e+00 1.4057499999999999e+01 1.3894000000000000e+00
0.0000000000000000e+00 1.7550000000000001e+01 -3.3405999999999998e+00
ITEM: ATOMS id type x y z
3 4 4.91408 1.18225 2.916
212 2 0.875662 2.63633 0.342338
5 4 6.43537 1.44708 5.55513
7 4 4.21849 4.19124 2.33374
9 4 5.00592 3.1798 7.80992
119 2 2.3972 5.57829 1.17628
33 3 5.98922 0.566659 1.85265
34 2 3.52685 0.299151 2.78526
325 1 -0.636665 4.17186 5.46323
36 3 5.39952 0.916959 4.41574
37 3 7.29547 0.245967 6.15338
41 3 4.54954 2.65002 2.61294
190 2 1.7952 -0.701817 5.00644
43 2 2.75898 4.67159 3.09553
111 2 6.05888 0.910454 8.64701
46 3 5.64575 2.27219 6.63224
326 2 -0.837241 3.20762 6.1269
48 3 3.88799 4.18952 7.31459
284 2 4.62589 0.459965 0.466713
4 4 7.31832 -1.11853 7.02485
328 2 0.198363 4.02944 4.70457
320 2 2.35863 2.63345 5.80905
35 2 6.49832 -0.818299 8.5339
178 4 1.88245 1.12221 6.34521
179 4 -0.251811 1.55586 8.70531
181 1 0.95174 0.29803 4.93477
42 1 2.82506 4.49449 1.07816
183 3 0.848421 1.37441 7.42414
327 2 -0.58 5.12952 6.03952
182 3 -1.83675 1.99531 8.02594
191 2 0.926099 0.952478 3.96222
118 2 3.55843 4.27255 0.130673
199 4 -1.37741 3.95897 1.20954
200 4 -2.20354 4.55706 4.47306
202 2 0.172041 4.61732 0.941384
203 1 0.128909 2.63836 1.1905
205 3 -1.89759 4.27405 2.64652
210 2 -0.8561 1.833 0.944878
211 2 0.616006 2.34948 2.20438
337 2 3.34272 0.458142 7.01234
117 2 1.83985 3.74561 1.12063
192 2 -0.0329846 0.206873 5.44446
331 2 7.54266 -0.674863 4.05201
207 3 -2.74641 6.06237 4.95388
63 3 4.64353 5.89043 5.06168
2 4 4.68379 -1.05384 10.6113
6 4 4.70461 -0.216548 13.7042
339 2 3.89524 0.298508 9.43965
32 1 5.58079 0.518778 9.61881
38 3 4.4145 -0.736366 12.122
39 3 5.70913 -1.25626 14.6903
40 1 3.00516 -0.195182 14.5258
50 3 5.2729 1.31969 13.7609
11 4 6.1244 2.6946 13.5966
285 2 8.571 -0.654512 16.0095
112 2 6.51214 -0.870309 10.2436
113 2 5.83014 1.23311 10.4711
114 2 2.12716 -0.429771 13.668
115 2 2.90971 0.833576 15.0001
116 2 3.14769 -1.11005 15.2447
129 2 2.02619 3.27014 12.1442
280 1 5.27264 -2.9795 17.1555
130 2 2.16002 4.63641 10.7694
286 2 8.6788 -2.35601 16.9145
189 2 0.37841 2.86248 9.55435
186 3 -0.261394 0.366309 9.68276
188 1 0.869547 -0.638098 12.1606
196 2 1.86419 -0.287932 11.8256
197 2 0.934758 -1.70353 12.6498
198 2 0.334293 0.177125 12.8609
315 2 0.029685 -0.612584 15.1159
213 2 -0.877844 1.73712 16.9842
53 3 5.14686 3.8214 12.7688
287 2 7.32056 -1.11388 17.4001
52 1 2.3584 4.35359 11.8665
279 4 6.41508 -2.23907 15.6929
204 1 -1.18937 0.629892 17.2865
281 1 7.99997 -1.51406 16.5183
45 2 4.45522 2.03434 8.98081
283 2 4.38354 -2.27494 17.2526
1 4 -3.76156 13.2858 1.55019
13 4 2.24572 8.97063 2.55255
31 1 -4.90919 11.8985 0.793192
357 2 -0.717001 5.59053 8.46853
55 1 1.95724 7.17409 3.12004
359 2 -1.1173 7.89297 8.32586
57 2 0.599314 8.57562 2.61096
59 1 -0.578359 12.2699 5.93381
60 1 0.0859354 10.068 8.48507
352 1 -4.26498 11.5055 6.20322
10 4 3.97644 5.82587 6.49637
109 2 -5.92288 12.3875 0.910861
110 2 -4.85894 10.9556 1.44829
249 2 -8.35136 10.4436 7.39891
235 2 -0.54754 11.6199 0.965449
365 2 -1.88704 12.5399 7.47021
136 2 2.01976 7.04437 4.19271
145 2 -0.942531 10.0336 7.99429
141 2 -1.46963 11.5633 5.91066
137 2 2.91975 6.78193 2.54437
144 2 0.776058 9.18133 8.41139
353 2 -5.37946 11.1419 6.67409
124 2 2.49971 7.60749 8.25355
201 4 -3.4359 7.47764 5.41185
206 1 -3.04406 8.90559 4.25996
49 1 3.15452 7.52848 7.31564
208 1 -5.35839 7.19967 5.7845
209 2 -3.20664 7.95685 7.0759
216 2 -2.20904 9.33936 5.15757
217 2 -3.92757 9.56235 4.20742
218 2 -2.43955 8.7661 3.34633
219 2 -5.6149 7.99344 4.99851
220 2 -5.5951 7.44799 6.80081
248 2 -6.91981 11.6874 7.14542
233 3 -2.53209 13.61 0.147948
355 2 -4.37073 12.0543 5.1186
243 1 -7.21 10.6185 7.3168
247 2 -6.60684 9.81662 6.81401
332 2 -1.831 12.6948 2.98861
47 2 2.33192 6.38691 6.03897
354 2 -3.46686 10.7106 6.18077
330 2 -3.43604 11.6453 3.16521
297 2 -2.97346 9.42533 8.02723
329 1 -2.93222 12.726 3.15522
296 2 -4.27391 7.93042 8.41362
135 2 0.980269 6.79826 2.67999
257 2 -8.306 10.0661 16.6498
44 1 2.81855 5.47293 15.8922
146 2 0.105953 10.5227 9.53347
74 1 -4.77567 7.24151 15.5297
120 2 2.24402 6.47383 15.7297
360 2 -2.46067 5.64807 9.73016
131 2 1.92417 5.10961 12.6363
348 1 -4.00629 10.2406 14.6382
162 2 -4.24209 7.31466 16.4965
163 2 -5.6418 8.04969 15.374
164 2 -4.0284 7.20236 14.7112
108 2 -3.26357 8.39396 17.3057
12 4 4.12348 4.9035 12.0025
338 2 -0.295666 8.72027 15.596
231 4 0.0973275 10.0343 16.8014
298 2 0.269765 10.02 10.866
349 2 -4.36244 9.1603 15.0066
351 2 -4.3967 10.4574 13.572
238 4 -6.89206 10.247 9.17446
159 2 -4.08077 5.25855 13.798
241 2 -5.57565 9.15555 9.01359
242 3 -6.41002 11.6572 9.8833
121 2 2.37626 4.80976 16.7371
300 2 -0.898911 11.3712 11.7539
303 2 0.582479 8.46292 14.2335
134 2 3.69732 6.17104 14.2139
282 2 -5.85132 9.98554 16.8812
350 2 -2.75696 10.518 14.8933
288 4 -2.39868 7.55953 9.84345
289 4 -1.5028 9.19697 12.5552
291 1 -0.198529 10.4826 11.8816
292 3 -2.03739 8.22004 11.2727
293 1 -0.402981 8.08026 13.7496
294 2 -2.70067 10.2895 13.1691
356 1 -0.99509 6.42393 9.18016
299 2 0.432231 10.3276 12.9414
167 2 -6.14374 7.62415 12.0949
301 2 -0.233689 7.17018 13.146
302 2 -1.39053 7.9668 14.4618
358 2 -0.257012 6.46951 10.0554
174 2 1.58532 8.85222 11.8439
295 2 -4.04894 9.51435 9.63571
122 2 3.10385 4.94007 14.9107
290 1 -3.61102 8.833 8.78805
342 2 12.0427 3.54267 3.47601
153 2 12.2368 5.14853 7.34769
17 4 10.27 3.58438 7.19878
58 1 12.568 -1.13922 7.90532
227 2 11.2641 5.61694 0.371437
64 2 6.10695 6.46989 1.45285
65 1 8.998 2.82189 8.51772
66 1 11.0321 2.26819 5.94938
67 1 11.7592 4.55472 8.13856
61 2 7.55565 2.45519 4.84279
71 3 7.2445 5.41005 4.51887
72 3 9.42152 4.56847 6.35759
138 2 11.8224 -0.337043 7.64939
321 1 15.4552 3.21406 4.85689
147 2 9.0633 1.73139 8.24705
148 2 7.93385 3.26992 8.47212
150 2 10.2202 1.50299 6.22785
151 2 12.0618 1.86222 6.03381
152 2 10.8375 2.72616 4.9445
154 2 12.4141 3.78081 8.57329
139 2 13.5373 -1.07764 7.33484
177 4 16.0965 0.843099 7.85831
343 2 12.4245 4.89304 1.82245
223 1 12.8731 6.49626 1.09716
214 2 15.4511 3.85064 0.269207
322 2 15.7472 3.20499 5.9721
346 2 12.491 0.501481 1.85592
259 4 13 2.51396 0.993105
262 2 11.0557 3.19875 1.84115
304 4 15.2537 -0.594407 4.97613
305 1 16.0145 0.464062 3.3171
306 3 15.6825 0.210379 6.41682
307 2 14.4505 0.893108 4.06206
308 2 15.9138 0.389546 2.16442
309 2 16.8518 1.09065 3.61897
317 2 13.7665 1.20117 8.13128
323 2 15.642 2.1467 4.25745
324 2 14.423 3.64888 4.70117
344 1 13.5121 0.775415 1.36503
340 1 12.0948 3.5619 2.33478
341 2 13.9337 3.65999 2.03909
62 3 5.28133 5.32644 2.42056
347 2 14.4646 0.674416 2.09582
370 3 8.73073 6.24778 0.342719
143 2 10.1107 -0.713562 6.24373
68 3 6.22328 3.98214 8.49678
226 2 13.7534 6.49014 0.349397
345 2 13.6485 0.23984 0.404515
19 4 8.43479 5.91125 5.45404
15 4 5.81943 6.09134 4.02028
156 2 10.6812 6.14152 4.61576
258 2 19.0152 -0.0791712 0.495942
225 2 10.2815 3.16904 16.8906
51 1 7.58967 2.20279 12.4411
184 2 14.8705 2.21904 9.35051
310 4 17.1631 -2.23736 14.1891
76 3 6.79789 3.23082 14.9093
126 2 7.18117 2.2632 11.335
312 1 18.7529 -1.65471 15.2592
128 2 8.3296 3.03271 12.6832
180 4 18.4361 -0.515419 10.924
316 1 14.6144 1.17538 8.97976
336 2 11.6275 -1.47761 16.6809
169 2 7.47599 3.9885 11.4858
187 1 16.7357 0.247211 11.6461
193 2 16.2305 0.900101 10.9649
127 2 8.01126 1.17759 12.7213
195 2 16.2683 -0.865821 11.5585
335 2 12.6686 -2.73179 15.7893
260 4 13.9128 0.161487 15.4828
261 4 13.0766 -1.76469 12.8535
263 3 14.1433 -0.440574 17.0084
264 1 15.4907 1.1383 15.1173
265 1 12.4542 1.44246 15.4981
266 3 13.5702 -0.923427 14.1264
267 2 11.3017 -1.93158 12.6388
269 1 13.6752 -0.715527 11.4794
270 2 15.75 0.691203 14.043
271 2 16.3554 1.0073 15.9136
272 2 14.9623 2.20531 15.1144
273 2 11.8769 1.50673 14.549
274 2 12.9921 2.45299 15.7127
275 2 11.832 1.1888 16.4017
276 2 14.3337 -1.43357 10.9284
277 2 14.1326 0.200279 12.0457
278 2 12.5964 -0.558264 10.9533
318 2 14.2482 0.470513 9.90028
311 2 16.8798 -0.735844 13.3256
140 2 12.7517 -1.35691 9.02658
319 2 15.8002 -0.306538 9.26719
333 1 11.6485 -2.46187 16.0823
194 2 16.6456 0.676086 12.6515
171 2 10.236 3.95427 13.1781
161 2 14.2223 3.50749 13.9648
81 1 10.2634 4.55227 12.2776
334 2 10.8581 -2.39355 15.2228
149 2 9.5349 3.06643 9.45953
173 2 9.18313 4.70594 11.7147
369 2 16.4323 -2.37236 16.4097
314 2 18.7683 -1.86468 16.3585
313 2 19.3922 -2.40331 14.7123
172 2 11.068 4.2742 11.5999
155 2 11.2402 5.17745 8.94964
368 2 15.0635 -2.61137 15.0046
215 2 18.0272 -0.164453 16.4909
256 2 19.7869 -3.09815 16.2977
14 4 0.807542 11.428 7.16532
23 4 6.8501 9.06305 3.03996
24 4 3.21636 10.6809 5.21182
25 4 5.43315 11.3059 1.65271
26 4 7.2704 7.77399 7.95998
28 4 5.79956 10.3647 6.92449
246 2 8.65705 10.6493 7.71269
70 1 9.71652 6.69616 4.35862
83 3 6.16237 7.69406 3.68157
84 3 7.81191 8.59226 1.46763
85 3 7.75837 9.87872 4.08424
86 3 2.77155 9.82033 3.79845
87 3 3.47299 12.2283 4.69249
88 3 1.86201 10.6648 6.2364
89 3 5.73086 9.97624 2.47022
90 2 5.47051 12.7194 2.6324
92 3 7.95448 6.93696 6.56808
56 3 2.58693 9.21597 1.06594
97 3 6.88584 11.2737 6.17216
98 3 4.49509 10.137 5.87267
99 3 6.42029 9.04806 7.41978
100 2 5.29781 11.0782 8.31413
229 2 8.43136 12.6075 4.37977
91 3 6.38144 6.76152 8.75605
123 2 4.41151 7.11595 7.75134
371 3 6.33118 11.5739 0.380673
158 2 9.43805 6.60776 3.25972
373 2 3.75656 11.2576 1.21054
254 2 8.36653 9.70654 0.19818
228 4 8.03366 11.0632 5.09762
224 2 12.7633 7.69209 2.1268
230 2 9.57014 10.6602 5.69932
157 2 9.76657 7.76739 4.717
364 2 2.65411 12.1518 0.137573
255 2 9.61303 11.1233 0.062586
125 2 3.20371 8.51901 6.73549
222 4 11.6079 7.32555 0.449489
232 1 0.0636322 12.3459 0.325507
142 2 -0.137675 12.3102 4.88694
16 4 7.28413 7.41612 0.625767
96 2 4.12446 8.55961 8.72354
236 2 0.307471 13.3677 0.844465
221 2 13.497 6.11314 5.52587
372 2 6.07557 13.1168 4.21758
18 4 6.05927 5.37473 9.55206
20 4 13.1482 5.58043 15.2148
21 4 7.00669 4.80893 15.5861
22 4 10.8387 6.29622 12.9775
27 4 4.14692 9.06803 10.3716
29 4 8.06473 7.30336 13.9583
30 4 6.88572 9.3313 12.0815
168 2 8.38323 5.2831 10.3292
75 3 13.1161 4.71102 16.5388
77 3 8.02328 4.56235 16.8026
78 3 5.6328 5.419 16.2646
79 1 11.9034 7.18145 11.6793
73 1 13.9822 4.57553 13.8055
170 2 7.08812 5.91324 11.6313
82 3 11.7589 6.09095 14.6247
8 4 4.2985 6.12108 16.8849
94 2 2.8113 10.3575 10.6273
95 1 2.70058 8.89537 11.7001
363 2 5.5743 8.54756 16.571
101 3 7.62161 5.83409 14.5181
102 3 9.48619 7.08808 13.1667
103 3 8.22561 8.27264 15.358
104 3 8.17467 9.47351 11.1247
105 3 5.45001 9.41435 11.1503
106 3 6.98143 7.93186 12.905
107 3 6.82104 10.6719 13.1154
133 2 5.28879 6.81808 13.2562
268 2 2.82711 10.5768 12.6263
132 2 3.58383 7.38378 12.6795
93 3 8.62445 8.16549 8.82784
165 2 11.3148 7.97238 11.1112
361 1 4.55721 8.15135 16.8768
176 2 3.25735 7.45569 10.9609
252 1 9.65391 10.2325 16.9689
80 1 7.40104 5.04288 10.8767
185 2 7.74537 11.8196 10.4892
367 2 5.2871 9.8672 15.8069
175 2 3.31579 9.2411 12.6174
237 4 9.03504 9.4265 9.78877
239 1 8.55594 11.0227 8.79722
245 2 7.48474 11.3376 8.96953
250 4 8.85277 8.45354 16.7338
362 2 3.89416 8.16129 15.927
251 1 10.2205 7.18852 17.0408
240 3 10.8992 9.53774 9.72825
54 1 4.19905 6.5402 13.1863
253 2 10.7061 6.75725 16.0799
366 1 5.25467 11.0204 15.5208
166 2 12.0452 6.22163 10.9994
244 2 9.38283 11.7606 9.07803
234 2 2.35193 8.5027 17.4586
160 2 13.3033 4.66384 12.889
69 3 4.69815 5.3797 10.4446
ITEM: TIMESTEP
100
ITEM: NUMBER OF ATOMS
373
ITEM: BOX BOUNDS xy xz yz pp pp pp
-1.0789002799999999e+01 2.0428380700000002e+01 -1.0789002799999999e+01
-3.3405999999999998e+00 1.4057499999999999e+01 1.3887053000000000e+00
0.0000000000000000e+00 1.7550000000000001e+01 -3.3405999999999998e+00
ITEM: ATOMS id type x y z
3 4 4.87601 1.1159 2.88918
287 2 5.98751 2.05617 0.0196199
5 4 6.51227 1.57663 5.40556
7 4 4.20093 4.22803 2.34297
9 4 5.19538 3.25598 7.70421
119 2 2.53007 5.74074 1.2736
33 3 5.79025 0.334758 1.80616
34 2 3.37137 0.289536 2.8929
325 1 -0.547802 4.2129 5.3512
36 3 5.55693 0.935756 4.2852
37 3 7.21194 0.321352 6.14679
41 3 4.56609 2.69073 2.57528
190 2 1.96148 -0.790455 5.27673
43 2 2.67339 4.66279 3.07551
111 2 5.70899 0.624025 8.44021
46 3 5.72748 2.35184 6.53439
326 2 -0.456554 3.14227 5.63763
48 3 4.05828 4.32195 7.33617
284 2 4.34516 0.481818 0.517267
4 4 7.37207 -1.05286 6.97977
328 2 0.18146 4.55258 4.51948
320 2 2.19976 2.84369 5.41366
35 2 6.55285 -0.904851 8.52973
178 4 1.89556 1.39634 6.25859
179 4 -0.202802 1.6918 8.70285
181 1 1.20534 0.125152 5.07224
42 1 2.77845 4.61319 1.14285
183 3 0.944196 1.50024 7.47348
327 2 -0.55072 4.95351 6.29281
182 3 -1.71459 1.66402 7.98703
191 2 1.38218 0.68348 4.09442
118 2 3.51192 4.52606 0.192488
199 4 -1.45076 3.9919 1.27571
200 4 -2.19299 4.51332 4.45565
202 2 0.0645185 4.771 0.840955
203 1 0.0909502 2.82654 0.973278
205 3 -1.91024 4.27936 2.90434
210 2 -0.762433 1.87556 1.27184
211 2 0.839076 2.83016 1.77733
337 2 3.43097 0.984397 6.75142
117 2 1.78514 3.89157 1.08329
192 2 0.111543 -0.0273509 5.42499
331 2 7.50055 -0.525862 4.04169
10 4 3.93959 5.74669 6.44986
135 2 1.64959 6.52037 2.53324
212 2 0.59608 2.56544 6.40362e-05
357 2 -0.901523 5.43351 8.31051
226 2 -5.2773 6.8611 0.647322
45 2 4.58653 2.07791 8.75042
2 4 4.70914 -0.968855 10.5984
6 4 4.79599 -0.28342 13.8349
339 2 3.87702 0.456839 9.71096
32 1 5.58938 0.502507 9.51846
38 3 4.59594 -0.743816 12.2002
39 3 5.89638 -1.29326 14.7884
40 1 3.1227 -0.299917 14.6497
50 3 5.20877 1.32279 13.7628
11 4 5.96971 2.77004 13.4917
285 2 8.64058 -0.762459 16.228
112 2 6.53661 -0.827594 10.3232
113 2 6.04585 1.29878 10.1212
114 2 2.21822 -0.474001 13.8699
115 2 3.17448 0.72327 15.1458
116 2 3.32372 -1.15719 15.355
129 2 2.37715 3.04696 12.5325
280 1 5.11043 -2.84711 17.1121
130 2 2.11305 3.66018 10.9027
286 2 8.80419 -2.49238 17.1091
189 2 -0.0253492 3.17967 9.43157
186 3 -0.333375 0.565668 9.88342
188 1 0.777646 -0.608416 12.4829
196 2 1.7495 -0.327304 11.9677
197 2 0.654597 -1.64264 12.7813
198 2 0.392402 0.0987257 13.2239
315 2 -0.138478 -0.385238 14.9172
213 2 -1.23935 1.50449 17.0952
53 3 5.02079 3.75675 12.5794
127 2 7.64616 1.10868 12.2998
52 1 2.44393 3.93139 11.9023
279 4 6.52025 -2.32816 15.7616
204 1 -1.31773 0.389334 17.4478
281 1 8.1068 -1.61871 16.7102
313 2 0.974001 -1.8679 14.7952
283 2 4.43284 -1.98744 17.096
1 4 -3.79808 13.2356 1.57613
13 4 2.20124 8.94965 2.62953
31 1 -4.73717 11.6652 0.793136
49 1 3.193 7.35088 7.47157
55 1 2.19135 7.14368 3.26531
359 2 -1.21369 7.41876 8.28695
57 2 0.652075 8.40289 3.00738
59 1 -0.415384 12.2118 5.85289
60 1 0.0534688 10.2555 8.49439
352 1 -4.21672 11.6715 6.06594
365 2 -1.74317 12.5637 7.263
109 2 -5.81486 12.025 1.02853
110 2 -4.4514 10.707 1.30315
249 2 -7.91678 9.85671 7.00878
235 2 -0.426411 11.4305 0.443646
329 1 -2.93897 12.9212 3.19819
136 2 1.91438 6.96577 4.32204
145 2 -0.948615 10.3722 8.06361
141 2 -1.29516 11.5009 5.99432
137 2 3.38452 7.0406 3.03515
144 2 0.409479 9.19251 8.38264
353 2 -5.25308 11.1971 6.60942
124 2 2.65416 7.09202 8.4133
201 4 -3.50438 7.4409 5.528
206 1 -2.99985 8.73205 4.17004
207 3 -2.92295 6.08657 5.02369
208 1 -5.34388 7.20354 5.83589
209 2 -2.96816 8.15102 7.08504
216 2 -2.29869 9.42415 4.81056
217 2 -3.89491 9.26318 3.79413
218 2 -2.48925 8.23803 3.26063
219 2 -5.65081 7.76862 4.81935
220 2 -5.81119 7.67848 6.79832
248 2 -6.9451 11.4808 7.20882
233 3 -2.39964 13.5788 0.230114
355 2 -4.58091 12.2877 5.11029
243 1 -6.99209 10.3572 7.30895
247 2 -6.01366 9.71408 7.16265
332 2 -1.82911 13.1021 2.90134
47 2 2.2073 6.22378 6.36958
354 2 -3.2994 10.9445 5.94534
330 2 -3.18182 11.786 3.28435
297 2 -4.05174 9.28518 7.74526
290 1 -3.81123 8.8017 8.71549
257 2 -8.33614 10.2454 16.7332
44 1 2.51645 5.67554 16.0166
146 2 0.145454 10.7185 9.58343
74 1 -4.83319 7.20039 15.6914
120 2 2.46813 6.84185 15.5769
360 2 -2.5968 5.70584 10.0076
131 2 1.83284 4.87757 12.3198
348 1 -3.80736 10.0934 14.7671
162 2 -4.37203 7.32481 16.7663
163 2 -5.56126 7.98986 15.5588
164 2 -4.08186 7.18817 14.8307
108 2 -3.14358 8.27437 17.2015
12 4 4.06461 4.92568 11.979
338 2 -0.392721 8.8532 15.4928
231 4 0.174719 9.88601 16.8503
298 2 0.268256 10.3512 10.9253
349 2 -4.09623 9.06025 15.1077
351 2 -4.2826 10.3238 13.7728
238 4 -6.82376 10.2522 9.24256
159 2 -3.96967 5.01647 13.7847
241 2 -5.47574 9.28408 9.70477
242 3 -6.4577 11.7584 9.7689
121 2 1.60508 5.4531 16.7036
300 2 -0.773115 11.3875 12.1278
303 2 0.348432 8.26479 14.2233
134 2 3.41471 6.07966 14.2507
282 2 -6.16075 10.245 16.8621
350 2 -2.57279 10.4945 15.0305
288 4 -2.48688 7.52324 9.82598
289 4 -1.4427 9.17683 12.477
291 1 -0.118693 10.4589 11.9803
292 3 -1.95641 8.36662 11.1478
293 1 -0.547934 7.91033 13.7672
294 2 -2.59373 10.2374 13.2448
356 1 -1.17402 6.25812 9.02931
299 2 0.576695 10.2432 12.8529
167 2 -5.91129 7.28889 12.24
301 2 -0.378587 6.84021 13.3652
302 2 -1.5769 8.02173 14.4201
358 2 -0.364402 6.30507 9.7927
174 2 1.64082 8.85316 11.8872
295 2 -3.50203 9.58456 9.56699
122 2 2.63649 4.86083 15.2389
296 2 -4.55095 7.92506 9.0712
69 3 4.65774 5.39389 10.4026
342 2 12.6301 3.67858 3.55326
153 2 12.203 4.89505 7.51424
17 4 10.1809 3.5089 7.20448
58 1 12.5334 -1.2075 8.16457
227 2 11.7941 5.54035 0.475474
64 2 6.23697 6.28712 1.29946
65 1 9.0243 2.58576 8.48439
66 1 11.073 2.10457 6.1152
67 1 11.6445 4.31111 8.27625
61 2 7.6689 2.5813 4.66133
71 3 7.13352 5.11198 4.44322
72 3 9.40029 4.59246 6.35301
138 2 11.6367 -0.500727 8.11447
321 1 15.5922 3.08745 5.00428
147 2 8.92648 1.59075 8.01177
148 2 7.97584 3.14774 8.47082
150 2 10.6824 1.07489 6.41125
151 2 12.1683 2.27477 6.42882
152 2 10.8363 2.42886 5.05788
154 2 12.2478 3.46183 8.69544
139 2 13.4179 -0.778741 7.57271
177 4 16.0357 0.756795 7.81269
343 2 12.4772 4.96598 2.0314
223 1 12.7732 6.74763 1.2151
214 2 15.3352 3.52004 0.274718
322 2 15.5426 2.92367 6.1313
346 2 12.4797 0.470305 1.75229
259 4 12.8693 2.55324 0.993483
262 2 11.1903 3.28168 2.27742
304 4 15.1607 -0.472158 5.06732
305 1 15.9277 0.37689 3.29421
306 3 15.5765 0.153945 6.40423
307 2 14.385 0.837258 3.93593
308 2 15.8974 0.276003 2.2079
309 2 16.747 1.18612 3.39625
317 2 13.9201 1.64858 7.86612
323 2 15.701 2.05594 4.36897
324 2 14.6662 3.63809 4.62764
344 1 13.5044 0.837864 1.28675
340 1 12.3171 3.80495 2.51679
341 2 14.1087 3.53604 1.79261
62 3 5.23591 5.46279 2.39234
347 2 14.4195 0.661587 2.01929
370 3 8.68972 6.121 0.0140447
143 2 10.1063 -0.805719 6.25471
68 3 6.40197 3.85018 8.50045
63 3 4.67047 5.90849 5.03088
345 2 13.6817 0.381636 0.244333
19 4 8.48652 5.77267 5.59667
15 4 5.93603 6.09067 4.05598
225 2 10.3263 3.31187 16.6618
51 1 7.3889 2.23966 12.2633
184 2 15.054 2.48521 9.18939
310 4 17.3902 -2.2955 14.3065
76 3 6.66821 3.48874 14.7236
256 2 19.8218 -2.98147 16.3401
312 1 19.037 -1.51563 15.1832
128 2 8.17895 2.9414 12.7498
180 4 18.3938 -0.523839 11.0557
316 1 14.5788 1.55436 8.85001
336 2 11.3322 -1.6699 16.7839
169 2 7.44032 4.09325 11.4525
187 1 16.6446 -0.0264514 11.7686
193 2 16.4977 0.767829 10.8488
366 1 16.0048 -2.7574 15.4334
195 2 16.2305 -1.09387 11.4255
335 2 12.9507 -2.56842 16.4054
260 4 13.8612 0.202745 15.4453
261 4 13.287 -1.56731 12.7202
263 3 13.8851 -0.354263 17.0701
264 1 15.585 0.913048 15.0836
265 1 12.5349 1.59983 15.4081
266 3 13.5793 -0.97202 14.1246
267 2 11.5619 -1.91122 12.4835
269 1 13.6282 -0.411193 11.3104
270 2 16.1338 0.543168 14.1605
271 2 16.3084 0.847146 16.0527
272 2 15.0756 2.02251 14.8713
273 2 12.1133 1.69685 14.3971
274 2 13.1901 2.48424 15.7343
275 2 11.7218 1.31458 16.1936
276 2 14.2431 -1.24509 10.6812
277 2 14.2533 0.413149 11.8865
278 2 12.5567 -0.164398 11.0214
318 2 14.1103 0.976116 9.71223
311 2 17.3479 -0.73057 13.4594
140 2 12.7481 -1.50356 9.18727
319 2 15.3896 -0.167038 9.24899
333 1 11.7684 -2.53646 16.2968
194 2 16.1953 0.320432 12.7201
171 2 10.3039 3.8603 13.0302
161 2 14.0863 3.41118 14.1334
81 1 10.2994 4.63201 12.1701
334 2 11.4742 -2.71461 15.1743
149 2 9.49125 2.56229 9.49693
215 2 18.1804 -0.373865 16.5971
369 2 16.4325 -2.25024 16.4645
314 2 18.88 -1.77849 16.2974
126 2 7.02837 2.54459 11.252
172 2 11.0825 4.37672 11.3754
155 2 11.1618 4.95461 9.05529
368 2 15.0359 -2.32919 15.0603
14 4 0.972528 11.3865 7.15013
23 4 6.79219 9.00251 2.96197
24 4 3.13782 10.6988 5.13582
25 4 5.36367 11.2379 1.57321
26 4 7.3479 7.70112 7.98845
28 4 5.64547 10.2693 6.82571
246 2 8.79896 10.7103 7.67187
70 1 9.71244 6.6881 4.51215
83 3 6.35077 7.57679 3.69259
84 3 7.74064 8.39228 1.65217
85 3 7.7075 9.9786 3.90753
86 3 2.66347 9.98653 3.70339
87 3 3.4342 12.3314 4.94185
88 3 1.96909 10.5422 6.30952
89 3 5.51899 9.95318 2.40589
90 2 5.0919 12.5249 2.63749
92 3 7.92809 6.89506 6.60742
56 3 2.45024 9.20061 1.05543
97 3 6.78549 11.1949 6.11613
98 3 4.39398 9.96463 5.78136
99 3 6.29602 9.05396 7.48195
100 2 5.0451 11.3062 8.0462
229 2 8.61109 12.4036 4.6573
239 1 8.39972 11.057 8.74939
123 2 4.60681 7.12634 7.7622
371 3 6.37537 11.634 0.451046
221 2 13.5779 6.06974 5.71603
373 2 3.79107 11.3396 0.995251
258 2 8.1387 13.9227 0.533261
228 4 7.98499 10.8789 5.12094
224 2 12.3107 8.02407 2.1576
230 2 9.29932 10.4643 6.04015
157 2 9.51578 7.80913 4.65915
156 2 10.7731 6.37684 4.81058
372 2 5.93297 13.0804 4.17152
125 2 2.95474 8.33937 7.09642
222 4 11.4672 7.34189 0.473725
232 1 0.159523 12.399 0.353901
142 2 0.00265903 12.1684 4.77716
16 4 7.35166 7.28068 0.536913
96 2 4.11993 8.66224 8.6073
236 2 0.235412 12.874 1.32734
255 2 9.51218 11.1071 0.0722747
254 2 8.26508 9.71323 0.015504
158 2 9.47311 6.37672 3.45804
18 4 6.08735 5.4043 9.64367
20 4 13.175 5.61368 15.1569
21 4 6.8601 4.85236 15.5602
22 4 10.823 6.36644 12.9306
27 4 4.17073 9.01819 10.3317
29 4 8.01523 7.44344 13.9004
30 4 6.96822 9.39558 12.016
168 2 8.37901 5.53047 10.3808
75 3 12.992 4.83268 16.6321
77 3 8.0465 4.53059 16.7954
78 3 5.43045 5.41431 16.2341
79 1 12.1127 7.20431 11.8232
73 1 14.0351 4.50544 13.8084
170 2 7.25328 6.05584 11.7582
82 3 11.754 6.04428 14.5325
8 4 4.14958 6.0595 16.8902
94 2 2.93601 10.4112 10.6192
95 1 2.74141 9.01694 11.7036
363 2 5.63332 8.04121 16.51
101 3 7.53314 5.94307 14.4904
102 3 9.51346 7.24801 13.0611
103 3 8.13585 8.44056 15.1819
104 3 8.37198 9.73466 11.1996
105 3 5.56723 9.29516 11.0065
106 3 6.97079 7.92987 12.7741
107 3 6.75644 10.5613 13.2325
133 2 5.05321 6.45451 13.4119
268 2 2.96876 10.8152 12.4301
132 2 3.54185 7.40904 12.6802
93 3 8.55991 8.23805 8.83654
165 2 11.6354 8.20075 11.5833
361 1 4.48592 8.04515 16.6636
176 2 3.23522 7.52202 10.8336
252 1 9.64577 10.3097 17.0151
80 1 7.45845 5.2908 10.9684
185 2 7.60276 11.9427 10.2848
367 2 5.04308 10.1752 15.5475
175 2 3.32172 9.16649 12.672
237 4 9.0743 9.51829 9.77779
91 3 6.45122 6.70635 8.80287
245 2 7.3045 11.089 8.81819
250 4 8.80015 8.51091 16.7705
362 2 3.85537 8.0068 15.6761
251 1 10.1846 7.2148 16.9971
240 3 10.7242 9.61679 9.73429
54 1 3.97046 6.3904 13.2295
253 2 10.6893 6.80577 16.0671
173 2 9.23694 4.82562 11.6962
166 2 12.0701 6.41214 10.9833
244 2 8.90321 11.9668 9.13657
234 2 2.66087 8.79462 17.4045
364 2 4.15883 8.83497 17.4137
160 2 13.4884 4.72045 12.8394
ITEM: TIMESTEP
200
ITEM: NUMBER OF ATOMS
373
ITEM: BOX BOUNDS xy xz yz pp pp pp
0.0000000000000000e+00 2.8664706599999995e+01 8.2465451999999964e+00
-3.3405999999999998e+00 1.4057499999999999e+01 1.3880105999999999e+00
0.0000000000000000e+00 1.7550000000000001e+01 -3.3405999999999998e+00
ITEM: ATOMS id type x y z
3 4 4.85408 1.19902 2.88585
152 2 10.3967 2.0785 5.11926
5 4 6.55549 1.66572 5.33834
7 4 4.25587 4.20792 2.24272
9 4 5.26709 3.27171 7.67903
343 2 12.613 5.06074 2.08887
33 3 5.70853 0.313876 1.95132
34 2 3.27692 0.481873 3.004
331 2 7.77735 -0.492439 3.89807
36 3 5.36899 1.18688 4.41844
37 3 7.29378 0.39525 6.02361
41 3 4.5887 2.67696 2.50324
190 2 2.37159 -0.791821 5.42816
337 2 3.35893 0.735002 6.76206
111 2 5.7067 0.522984 8.21076
46 3 6.034 2.59138 6.48106
118 2 3.55275 4.56964 0.0809471
48 3 4.19143 4.23293 7.17302
284 2 4.16814 0.0675658 0.440635
4 4 7.456 -0.948922 6.91433
191 2 1.16037 0.411672 4.34979
181 1 1.32836 -0.167798 5.35656
35 2 6.72422 -0.768339 8.50833
153 2 12.1685 4.86673 7.67672
15 4 5.94039 6.15098 4.0348
19 4 8.42348 5.78176 5.66167
17 4 10.1891 3.29741 7.26978
150 2 11.3179 1.07674 6.3478
143 2 10.1601 -0.834336 5.8991
45 2 4.51469 1.95241 8.48061
262 2 11.3859 3.50675 2.77497
227 2 11.8928 5.52784 0.571032
62 3 5.45098 5.30266 2.34599
64 2 6.29819 6.0951 1.20597
65 1 9.01327 2.29921 8.47672
66 1 11.0495 2.10228 6.01496
67 1 11.5468 4.28723 8.46768
61 2 7.76324 2.54844 4.51272
71 3 7.23159 5.33395 4.60914
72 3 9.34402 4.41879 6.47532
147 2 8.82591 1.45066 7.71655
148 2 8.03413 2.81661 8.69218
151 2 11.9981 2.84507 5.95281
2 4 4.80318 -0.9033 10.6174
6 4 4.86844 -0.290665 13.8692
339 2 3.79327 0.498774 9.72226
32 1 5.55323 0.509635 9.36435
38 3 4.655 -0.602968 12.144
39 3 5.80106 -1.29182 14.7859
40 1 3.18168 -0.399063 14.6035
50 3 5.32826 1.32014 13.9906
11 4 5.99775 2.86228 13.4985
285 2 8.72733 -0.952749 15.9608
112 2 6.60987 -0.69631 10.2879
113 2 6.14314 1.32032 9.93859
283 2 4.52168 -1.79656 17.321
281 1 8.14858 -1.63034 16.5821
116 2 3.26991 -1.3982 15.2215
279 4 6.48238 -2.34695 15.8431
280 1 5.02631 -2.78393 17.1071
127 2 7.3808 1.26731 12.3628
286 2 8.77969 -2.55465 17.0389
53 3 4.87047 3.81319 12.7477
225 2 10.0167 2.97438 16.443
51 1 7.26831 2.36212 12.096
155 2 10.9835 4.951 9.13259
172 2 11.1751 4.66102 11.416
126 2 6.97088 2.57837 11.0315
76 3 6.68692 3.61453 14.6639
128 2 8.11378 2.98194 12.552
336 2 11.2073 -1.634 16.645
149 2 9.56949 1.92878 9.39536
169 2 7.43486 4.24046 11.3895
68 3 6.32296 3.95109 8.8837
161 2 14.0748 3.49095 14.2894
171 2 10.2746 3.8289 12.9072
265 1 12.4706 1.53319 15.2628
273 2 12.033 1.62991 14.2071
274 2 13.1718 2.39168 15.4552
275 2 11.7101 1.43149 16.0414
370 3 10.0882 2.86446 17.4852
154 2 12.1289 3.46468 9.01177
287 2 7.55874 -1.09966 17.4194
1 4 15.1915 13.0479 1.47818
290 1 14.7683 8.26335 8.75486
31 1 14.4911 11.3305 0.887616
297 2 14.1694 7.9364 7.8874
330 2 15.8278 11.7387 3.26606
354 2 15.6313 11.1613 5.75567
332 2 17.2593 12.9375 2.59552
247 2 13.236 9.83202 7.29819
243 1 12.1929 10.257 7.46996
352 1 14.6382 11.9039 6.00549
226 2 13.5745 7.27087 0.724697
109 2 13.4014 11.7568 0.908362
110 2 14.6516 10.5816 1.65159
249 2 11.3603 9.54581 7.12002
355 2 14.2846 12.4446 5.028
329 1 16.1876 12.8543 3.03363
233 3 16.5899 13.5437 0.165014
248 2 12.0485 11.3654 7.26076
220 2 13.2857 7.66002 6.75505
219 2 13.4145 7.95863 4.82296
217 2 14.7412 8.94811 4.0064
353 2 13.7742 11.41 6.54036
208 1 13.6504 7.25658 5.74891
23 4 6.84484 8.90356 2.7678
158 2 9.23581 6.64157 3.4775
254 2 8.76322 9.78546 0.227775
221 2 13.3163 6.17414 5.63888
26 4 7.35057 7.70172 7.92967
246 2 8.53501 10.7893 7.7533
16 4 7.24193 7.24536 0.319161
70 1 9.67243 6.68579 4.54639
83 3 6.30321 7.64118 3.69543
222 4 11.2634 7.28795 0.547445
84 3 7.86623 8.34476 1.40767
85 3 7.75065 10.0321 3.64565
156 2 10.7008 6.16281 4.63301
157 2 9.65438 7.7276 5.03355
230 2 9.12382 10.0251 6.01208
224 2 12.0474 7.98975 2.07412
228 4 7.98306 10.7121 5.00773
92 3 7.95704 6.91179 6.68707
229 2 8.98545 12.0749 4.77479
365 2 17.3974 12.77 7.21773
223 1 12.6671 6.91217 1.34118
63 3 4.78289 6.08555 5.09748
257 2 10.5696 10.0108 16.754
296 2 14.4079 7.58473 10.0148
295 2 14.8864 9.34127 8.84597
74 1 14.1576 7.24969 15.7983
167 2 13.2454 7.52112 12.2098
294 2 16.5482 9.93966 13.4127
350 2 16.3529 10.3528 15.112
348 1 15.1622 10.1402 14.8092
162 2 14.767 7.42907 16.8307
163 2 13.3844 8.01351 15.6181
164 2 14.8763 7.09727 14.9467
108 2 16.1768 7.66404 17.4052
282 2 12.6261 10.5674 16.5931
300 2 18.4079 11.2374 12.3588
242 3 12.6271 11.7511 9.97246
241 2 13.345 9.09565 9.75297
349 2 14.7434 9.07617 15.1747
351 2 14.9031 10.3937 13.7621
238 4 12.1693 10.333 9.38616
104 3 8.33483 9.68555 11.1334
18 4 6.16417 5.38833 9.59527
160 2 13.5446 4.73957 13.0689
20 4 13.1169 5.61874 15.3542
21 4 6.78484 4.92783 15.574
244 2 9.23201 12.0851 9.04006
166 2 11.962 6.74923 10.9283
103 3 8.36976 8.53372 15.1495
253 2 10.336 6.594 15.904
22 4 10.974 6.41991 13.0023
240 3 10.7021 9.73311 9.80635
251 1 10.3277 7.1186 16.9216
29 4 8.00848 7.43467 13.9774
250 4 8.85293 8.44061 16.77
168 2 8.47932 5.59227 10.309
173 2 9.3258 4.9328 11.7047
237 4 9.03942 9.58688 9.74758
75 3 12.9309 4.71882 16.701
77 3 7.66123 4.47703 16.8138
79 1 12.1566 7.42025 11.856
80 1 7.52236 5.39859 10.9387
252 1 9.47147 10.282 17.0436
73 1 14.0861 4.5733 14.0294
170 2 7.3799 6.18191 11.7077
165 2 11.576 8.40928 11.7791
93 3 8.49191 8.30348 8.91294
82 3 11.8955 6.05747 14.4068
101 3 7.38551 6.07426 14.6894
102 3 9.6149 7.08621 13.3925
239 1 8.51825 11.2502 8.8085
255 2 11.1742 7.77039 17.0419
159 2 15.0969 5.04605 14.13
81 1 10.3335 4.74075 12.1917
91 3 6.31188 6.71228 8.77885
342 2 13.171 3.94713 3.53168
345 2 13.4172 0.339079 0.334037
347 2 14.3167 0.659365 2.07084
58 1 12.6267 -1.31327 8.27414
341 2 14.1784 2.9435 2.02973
340 1 12.633 3.90747 2.54196
344 1 13.2926 0.834722 1.31153
324 2 14.7104 3.44129 5.00451
323 2 15.724 1.90644 4.3323
317 2 13.7478 1.66957 8.15002
309 2 16.4293 1.21089 3.25399
308 2 15.8295 -0.0687278 2.13576
138 2 11.8625 -0.388255 8.31853
321 1 15.7419 2.92542 5.05741
307 2 14.2995 0.768837 3.94105
306 3 15.5158 0.200476 6.47308
305 1 15.8782 0.278992 3.21356
212 2 19.8714 2.84189 0.0976815
304 4 15.1245 -0.530034 5.01158
259 4 12.6579 2.54833 1.18607
139 2 13.6538 -1.04001 7.7664
177 4 15.9426 0.829844 7.85444
346 2 12.3084 0.426506 1.89408
322 2 16.0812 2.68144 6.14458
214 2 15.344 2.71263 0.564576
119 2 21.5653 5.79688 1.20422
325 1 18.459 4.24969 5.39692
207 3 16.0797 5.94969 5.05978
204 1 16.1527 3.38245 0.17039
179 4 18.7982 1.74685 8.63045
135 2 21.1644 6.26711 2.40715
43 2 21.713 4.66065 2.92636
192 2 19.4232 -0.56615 5.86126
117 2 20.8852 3.96507 0.907623
326 2 18.4484 3.30965 6.11167
211 2 19.6255 2.67731 2.03553
210 2 18.2723 1.9638 0.802826
205 3 17.1875 4.26948 2.80125
203 1 19.1418 2.86838 0.985422
202 2 19.095 4.77581 0.772915
200 4 16.7953 4.50727 4.57877
199 4 17.5492 4.03565 1.21996