ITEM: TIMESTEP
0
ITEM: NUMBER OF ATOMS
373
ITEM: BOX BOUNDS xy xz yz pp pp pp
-1.0794400000000000e+01 2.0438599999999997e+01 -1.0794400000000000e+01
-3.3405999999999998e+00 1.4057499999999999e+01 1.3894000000000000e+00
0.0000000000000000e+00 1.7550000000000001e+01 -3.3405999999999998e+00
ITEM: ATOMS id type x y z
3 4 4.91408 1.18225 2.916
212 2 0.875662 2.63633 0.342338
5 4 6.43537 1.44708 5.55513
7 4 4.21849 4.19124 2.33374
9 4 5.00592 3.1798 7.80992
119 2 2.3972 5.57829 1.17628
33 3 5.98922 0.566659 1.85265
34 2 3.52685 0.299151 2.78526
325 1 -0.636665 4.17186 5.46323
36 3 5.39952 0.916959 4.41574
37 3 7.29547 0.245967 6.15338
41 3 4.54954 2.65002 2.61294
190 2 1.7952 -0.701817 5.00644
43 2 2.75898 4.67159 3.09553
111 2 6.05888 0.910454 8.64701
46 3 5.64575 2.27219 6.63224
326 2 -0.837241 3.20762 6.1269
48 3 3.88799 4.18952 7.31459
284 2 4.62589 0.459965 0.466713
4 4 7.31832 -1.11853 7.02485
328 2 0.198363 4.02944 4.70457
320 2 2.35863 2.63345 5.80905
35 2 6.49832 -0.818299 8.5339
178 4 1.88245 1.12221 6.34521
179 4 -0.251811 1.55586 8.70531
181 1 0.95174 0.29803 4.93477
42 1 2.82506 4.49449 1.07816
183 3 0.848421 1.37441 7.42414
327 2 -0.58 5.12952 6.03952
182 3 -1.83675 1.99531 8.02594
191 2 0.926099 0.952478 3.96222
118 2 3.55843 4.27255 0.130673
199 4 -1.37741 3.95897 1.20954
200 4 -2.20354 4.55706 4.47306
202 2 0.172041 4.61732 0.941384
203 1 0.128909 2.63836 1.1905
205 3 -1.89759 4.27405 2.64652
210 2 -0.8561 1.833 0.944878
211 2 0.616006 2.34948 2.20438
337 2 3.34272 0.458142 7.01234
117 2 1.83985 3.74561 1.12063
192 2 -0.0329846 0.206873 5.44446
331 2 7.54266 -0.674863 4.05201
207 3 -2.74641 6.06237 4.95388
63 3 4.64353 5.89043 5.06168
2 4 4.68379 -1.05384 10.6113
6 4 4.70461 -0.216548 13.7042
339 2 3.89524 0.298508 9.43965
32 1 5.58079 0.518778 9.61881
38 3 4.4145 -0.736366 12.122
39 3 5.70913 -1.25626 14.6903
40 1 3.00516 -0.195182 14.5258
50 3 5.2729 1.31969 13.7609
11 4 6.1244 2.6946 13.5966
285 2 8.571 -0.654512 16.0095
112 2 6.51214 -0.870309 10.2436
113 2 5.83014 1.23311 10.4711
114 2 2.12716 -0.429771 13.668
115 2 2.90971 0.833576 15.0001
116 2 3.14769 -1.11005 15.2447
129 2 2.02619 3.27014 12.1442
280 1 5.27264 -2.9795 17.1555
130 2 2.16002 4.63641 10.7694
286 2 8.6788 -2.35601 16.9145
189 2 0.37841 2.86248 9.55435
186 3 -0.261394 0.366309 9.68276
188 1 0.869547 -0.638098 12.1606
196 2 1.86419 -0.287932 11.8256
197 2 0.934758 -1.70353 12.6498
198 2 0.334293 0.177125 12.8609
315 2 0.029685 -0.612584 15.1159
213 2 -0.877844 1.73712 16.9842
53 3 5.14686 3.8214 12.7688
287 2 7.32056 -1.11388 17.4001
52 1 2.3584 4.35359 11.8665
279 4 6.41508 -2.23907 15.6929
204 1 -1.18937 0.629892 17.2865
281 1 7.99997 -1.51406 16.5183
45 2 4.45522 2.03434 8.98081
283 2 4.38354 -2.27494 17.2526
1 4 -3.76156 13.2858 1.55019
13 4 2.24572 8.97063 2.55255
31 1 -4.90919 11.8985 0.793192
357 2 -0.717001 5.59053 8.46853
55 1 1.95724 7.17409 3.12004
359 2 -1.1173 7.89297 8.32586
57 2 0.599314 8.57562 2.61096
59 1 -0.578359 12.2699 5.93381
60 1 0.0859354 10.068 8.48507
352 1 -4.26498 11.5055 6.20322
10 4 3.97644 5.82587 6.49637
109 2 -5.92288 12.3875 0.910861
110 2 -4.85894 10.9556 1.44829
249 2 -8.35136 10.4436 7.39891
235 2 -0.54754 11.6199 0.965449
365 2 -1.88704 12.5399 7.47021
136 2 2.01976 7.04437 4.19271
145 2 -0.942531 10.0336 7.99429
141 2 -1.46963 11.5633 5.91066
137 2 2.91975 6.78193 2.54437
144 2 0.776058 9.18133 8.41139
353 2 -5.37946 11.1419 6.67409
124 2 2.49971 7.60749 8.25355
201 4 -3.4359 7.47764 5.41185
206 1 -3.04406 8.90559 4.25996
49 1 3.15452 7.52848 7.31564
208 1 -5.35839 7.19967 5.7845
209 2 -3.20664 7.95685 7.0759
216 2 -2.20904 9.33936 5.15757
217 2 -3.92757 9.56235 4.20742
218 2 -2.43955 8.7661 3.34633
219 2 -5.6149 7.99344 4.99851
220 2 -5.5951 7.44799 6.80081
248 2 -6.91981 11.6874 7.14542
233 3 -2.53209 13.61 0.147948
355 2 -4.37073 12.0543 5.1186
243 1 -7.21 10.6185 7.3168
247 2 -6.60684 9.81662 6.81401
332 2 -1.831 12.6948 2.98861
47 2 2.33192 6.38691 6.03897
354 2 -3.46686 10.7106 6.18077
330 2 -3.43604 11.6453 3.16521
297 2 -2.97346 9.42533 8.02723
329 1 -2.93222 12.726 3.15522
296 2 -4.27391 7.93042 8.41362
135 2 0.980269 6.79826 2.67999
257 2 -8.306 10.0661 16.6498
44 1 2.81855 5.47293 15.8922
146 2 0.105953 10.5227 9.53347
74 1 -4.77567 7.24151 15.5297
120 2 2.24402 6.47383 15.7297
360 2 -2.46067 5.64807 9.73016
131 2 1.92417 5.10961 12.6363
348 1 -4.00629 10.2406 14.6382
162 2 -4.24209 7.31466 16.4965
163 2 -5.6418 8.04969 15.374
164 2 -4.0284 7.20236 14.7112
108 2 -3.26357 8.39396 17.3057
12 4 4.12348 4.9035 12.0025
338 2 -0.295666 8.72027 15.596
231 4 0.0973275 10.0343 16.8014
298 2 0.269765 10.02 10.866
349 2 -4.36244 9.1603 15.0066
351 2 -4.3967 10.4574 13.572
238 4 -6.89206 10.247 9.17446
159 2 -4.08077 5.25855 13.798
241 2 -5.57565 9.15555 9.01359
242 3 -6.41002 11.6572 9.8833
121 2 2.37626 4.80976 16.7371
300 2 -0.898911 11.3712 11.7539
303 2 0.582479 8.46292 14.2335
134 2 3.69732 6.17104 14.2139
282 2 -5.85132 9.98554 16.8812
350 2 -2.75696 10.518 14.8933
288 4 -2.39868 7.55953 9.84345
289 4 -1.5028 9.19697 12.5552
291 1 -0.198529 10.4826 11.8816
292 3 -2.03739 8.22004 11.2727
293 1 -0.402981 8.08026 13.7496
294 2 -2.70067 10.2895 13.1691
356 1 -0.99509 6.42393 9.18016
299 2 0.432231 10.3276 12.9414
167 2 -6.14374 7.62415 12.0949
301 2 -0.233689 7.17018 13.146
302 2 -1.39053 7.9668 14.4618
358 2 -0.257012 6.46951 10.0554
174 2 1.58532 8.85222 11.8439
295 2 -4.04894 9.51435 9.63571
122 2 3.10385 4.94007 14.9107
290 1 -3.61102 8.833 8.78805
342 2 12.0427 3.54267 3.47601
153 2 12.2368 5.14853 7.34769
17 4 10.27 3.58438 7.19878
58 1 12.568 -1.13922 7.90532
227 2 11.2641 5.61694 0.371437
64 2 6.10695 6.46989 1.45285
65 1 8.998 2.82189 8.51772
66 1 11.0321 2.26819 5.94938
67 1 11.7592 4.55472 8.13856
61 2 7.55565 2.45519 4.84279
71 3 7.2445 5.41005 4.51887
72 3 9.42152 4.56847 6.35759
138 2 11.8224 -0.337043 7.64939
321 1 15.4552 3.21406 4.85689
147 2 9.0633 1.73139 8.24705
148 2 7.93385 3.26992 8.47212
150 2 10.2202 1.50299 6.22785
151 2 12.0618 1.86222 6.03381
152 2 10.8375 2.72616 4.9445
154 2 12.4141 3.78081 8.57329
139 2 13.5373 -1.07764 7.33484
177 4 16.0965 0.843099 7.85831
343 2 12.4245 4.89304 1.82245
223 1 12.8731 6.49626 1.09716
214 2 15.4511 3.85064 0.269207
322 2 15.7472 3.20499 5.9721
346 2 12.491 0.501481 1.85592
259 4 13 2.51396 0.993105
262 2 11.0557 3.19875 1.84115
304 4 15.2537 -0.594407 4.97613
305 1 16.0145 0.464062 3.3171
306 3 15.6825 0.210379 6.41682
307 2 14.4505 0.893108 4.06206
308 2 15.9138 0.389546 2.16442
309 2 16.8518 1.09065 3.61897
317 2 13.7665 1.20117 8.13128
323 2 15.642 2.1467 4.25745
324 2 14.423 3.64888 4.70117
344 1 13.5121 0.775415 1.36503
340 1 12.0948 3.5619 2.33478
341 2 13.9337 3.65999 2.03909
62 3 5.28133 5.32644 2.42056
347 2 14.4646 0.674416 2.09582
370 3 8.73073 6.24778 0.342719
143 2 10.1107 -0.713562 6.24373
68 3 6.22328 3.98214 8.49678
226 2 13.7534 6.49014 0.349397
345 2 13.6485 0.23984 0.404515
19 4 8.43479 5.91125 5.45404
15 4 5.81943 6.09134 4.02028
156 2 10.6812 6.14152 4.61576
258 2 19.0152 -0.0791712 0.495942
225 2 10.2815 3.16904 16.8906
51 1 7.58967 2.20279 12.4411
184 2 14.8705 2.21904 9.35051
310 4 17.1631 -2.23736 14.1891
76 3 6.79789 3.23082 14.9093
126 2 7.18117 2.2632 11.335
312 1 18.7529 -1.65471 15.2592
128 2 8.3296 3.03271 12.6832
180 4 18.4361 -0.515419 10.924
316 1 14.6144 1.17538 8.97976
336 2 11.6275 -1.47761 16.6809
169 2 7.47599 3.9885 11.4858
187 1 16.7357 0.247211 11.6461
193 2 16.2305 0.900101 10.9649
127 2 8.01126 1.17759 12.7213
195 2 16.2683 -0.865821 11.5585
335 2 12.6686 -2.73179 15.7893
260 4 13.9128 0.161487 15.4828
261 4 13.0766 -1.76469 12.8535
263 3 14.1433 -0.440574 17.0084
264 1 15.4907 1.1383 15.1173
265 1 12.4542 1.44246 15.4981
266 3 13.5702 -0.923427 14.1264
267 2 11.3017 -1.93158 12.6388
269 1 13.6752 -0.715527 11.4794
270 2 15.75 0.691203 14.043
271 2 16.3554 1.0073 15.9136
272 2 14.9623 2.20531 15.1144
273 2 11.8769 1.50673 14.549
274 2 12.9921 2.45299 15.7127
275 2 11.832 1.1888 16.4017
276 2 14.3337 -1.43357 10.9284
277 2 14.1326 0.200279 12.0457
278 2 12.5964 -0.558264 10.9533
318 2 14.2482 0.470513 9.90028
311 2 16.8798 -0.735844 13.3256
140 2 12.7517 -1.35691 9.02658
319 2 15.8002 -0.306538 9.26719
333 1 11.6485 -2.46187 16.0823
194 2 16.6456 0.676086 12.6515
171 2 10.236 3.95427 13.1781
161 2 14.2223 3.50749 13.9648
81 1 10.2634 4.55227 12.2776
334 2 10.8581 -2.39355 15.2228
149 2 9.5349 3.06643 9.45953
173 2 9.18313 4.70594 11.7147
369 2 16.4323 -2.37236 16.4097
314 2 18.7683 -1.86468 16.3585
313 2 19.3922 -2.40331 14.7123
172 2 11.068 4.2742 11.5999
155 2 11.2402 5.17745 8.94964
368 2 15.0635 -2.61137 15.0046
215 2 18.0272 -0.164453 16.4909
256 2 19.7869 -3.09815 16.2977
14 4 0.807542 11.428 7.16532
23 4 6.8501 9.06305 3.03996
24 4 3.21636 10.6809 5.21182
25 4 5.43315 11.3059 1.65271
26 4 7.2704 7.77399 7.95998
28 4 5.79956 10.3647 6.92449
246 2 8.65705 10.6493 7.71269
70 1 9.71652 6.69616 4.35862
83 3 6.16237 7.69406 3.68157
84 3 7.81191 8.59226 1.46763
85 3 7.75837 9.87872 4.08424
86 3 2.77155 9.82033 3.79845
87 3 3.47299 12.2283 4.69249
88 3 1.86201 10.6648 6.2364
89 3 5.73086 9.97624 2.47022
90 2 5.47051 12.7194 2.6324
92 3 7.95448 6.93696 6.56808
56 3 2.58693 9.21597 1.06594
97 3 6.88584 11.2737 6.17216
98 3 4.49509 10.137 5.87267
99 3 6.42029 9.04806 7.41978
100 2 5.29781 11.0782 8.31413
229 2 8.43136 12.6075 4.37977
91 3 6.38144 6.76152 8.75605
123 2 4.41151 7.11595 7.75134
371 3 6.33118 11.5739 0.380673
158 2 9.43805 6.60776 3.25972
373 2 3.75656 11.2576 1.21054
254 2 8.36653 9.70654 0.19818
228 4 8.03366 11.0632 5.09762
224 2 12.7633 7.69209 2.1268
230 2 9.57014 10.6602 5.69932
157 2 9.76657 7.76739 4.717
364 2 2.65411 12.1518 0.137573
255 2 9.61303 11.1233 0.062586
125 2 3.20371 8.51901 6.73549
222 4 11.6079 7.32555 0.449489
232 1 0.0636322 12.3459 0.325507
142 2 -0.137675 12.3102 4.88694
16 4 7.28413 7.41612 0.625767
96 2 4.12446 8.55961 8.72354
236 2 0.307471 13.3677 0.844465
221 2 13.497 6.11314 5.52587
372 2 6.07557 13.1168 4.21758
18 4 6.05927 5.37473 9.55206
20 4 13.1482 5.58043 15.2148
21 4 7.00669 4.80893 15.5861
22 4 10.8387 6.29622 12.9775
27 4 4.14692 9.06803 10.3716
29 4 8.06473 7.30336 13.9583
30 4 6.88572 9.3313 12.0815
168 2 8.38323 5.2831 10.3292
75 3 13.1161 4.71102 16.5388
77 3 8.02328 4.56235 16.8026
78 3 5.6328 5.419 16.2646
79 1 11.9034 7.18145 11.6793
73 1 13.9822 4.57553 13.8055
170 2 7.08812 5.91324 11.6313
82 3 11.7589 6.09095 14.6247
8 4 4.2985 6.12108 16.8849
94 2 2.8113 10.3575 10.6273
95 1 2.70058 8.89537 11.7001
363 2 5.5743 8.54756 16.571
101 3 7.62161 5.83409 14.5181
102 3 9.48619 7.08808 13.1667
103 3 8.22561 8.27264 15.358
104 3 8.17467 9.47351 11.1247
105 3 5.45001 9.41435 11.1503
106 3 6.98143 7.93186 12.905
107 3 6.82104 10.6719 13.1154
133 2 5.28879 6.81808 13.2562
268 2 2.82711 10.5768 12.6263
132 2 3.58383 7.38378 12.6795
93 3 8.62445 8.16549 8.82784
165 2 11.3148 7.97238 11.1112
361 1 4.55721 8.15135 16.8768
176 2 3.25735 7.45569 10.9609
252 1 9.65391 10.2325 16.9689
80 1 7.40104 5.04288 10.8767
185 2 7.74537 11.8196 10.4892
367 2 5.2871 9.8672 15.8069
175 2 3.31579 9.2411 12.6174
237 4 9.03504 9.4265 9.78877
239 1 8.55594 11.0227 8.79722
245 2 7.48474 11.3376 8.96953
250 4 8.85277 8.45354 16.7338
362 2 3.89416 8.16129 15.927
251 1 10.2205 7.18852 17.0408
240 3 10.8992 9.53774 9.72825
54 1 4.19905 6.5402 13.1863
253 2 10.7061 6.75725 16.0799
366 1 5.25467 11.0204 15.5208
166 2 12.0452 6.22163 10.9994
244 2 9.38283 11.7606 9.07803
234 2 2.35193 8.5027 17.4586
160 2 13.3033 4.66384 12.889
69 3 4.69815 5.3797 10.4446
ITEM: TIMESTEP
100
ITEM: NUMBER OF ATOMS
373
ITEM: BOX BOUNDS xy xz yz pp pp pp
-1.0794400000000000e+01 2.0438599999999997e+01 -1.0794400000000000e+01
-3.3389296999999996e+00 1.4050471249999999e+01 1.3894000000000000e+00
0.0000000000000000e+00 1.7550000000000001e+01 -3.3389296999999996e+00
ITEM: ATOMS id type x y z
3 4 4.87845 1.11534 2.88918
287 2 5.99051 2.05514 0.0196199
5 4 6.51552 1.57584 5.40556
7 4 4.20303 4.22592 2.34297
9 4 5.19798 3.25436 7.70421
119 2 2.53134 5.73787 1.2736
33 3 5.79314 0.33459 1.80616
34 2 3.37306 0.289391 2.8929
325 1 -0.548076 4.21079 5.3512
36 3 5.55971 0.935288 4.2852
37 3 7.21555 0.321191 6.14679
41 3 4.56837 2.68939 2.57528
190 2 1.96246 -0.79006 5.27673
43 2 2.67473 4.66046 3.07551
111 2 5.71185 0.623713 8.44021
46 3 5.73035 2.35067 6.53439
326 2 -0.456783 3.1407 5.63763
48 3 4.06031 4.31979 7.33617
284 2 4.34733 0.481577 0.517267
4 4 7.37575 -1.05233 6.97977
328 2 0.181551 4.55031 4.51948
320 2 2.20086 2.84227 5.41366
35 2 6.55612 -0.904399 8.52973
178 4 1.89651 1.39565 6.25859
179 4 -0.202904 1.69096 8.70285
181 1 1.20594 0.125089 5.07224
42 1 2.77984 4.61088 1.14285
183 3 0.944669 1.49948 7.47348
327 2 -0.550996 4.95104 6.29281
182 3 -1.71545 1.66319 7.98703
191 2 1.38287 0.683138 4.09442
118 2 3.51368 4.52379 0.192488
199 4 -1.45149 3.98991 1.27571
200 4 -2.19408 4.51106 4.45565
202 2 0.0645508 4.76862 0.840955
203 1 0.0909957 2.82512 0.973278
205 3 -1.91119 4.27722 2.90434
210 2 -0.762814 1.87462 1.27184
211 2 0.839496 2.82875 1.77733
337 2 3.43269 0.983905 6.75142
117 2 1.78603 3.88962 1.08329
192 2 0.111599 -0.0273373 5.42499
331 2 7.5043 -0.525599 4.04169
10 4 3.94156 5.74382 6.44986
135 2 1.65042 6.51711 2.53324
212 2 0.596378 2.56416 6.40362e-05
357 2 -0.901974 5.43079 8.31051
226 2 -5.27994 6.85767 0.647322
45 2 4.58883 2.07687 8.75042
2 4 4.71149 -0.96837 10.5984
6 4 4.79839 -0.283278 13.8349
339 2 3.87896 0.45661 9.71096
32 1 5.59218 0.502255 9.51846
38 3 4.59824 -0.743445 12.2002
39 3 5.89933 -1.29261 14.7884
40 1 3.12426 -0.299767 14.6497
50 3 5.21137 1.32213 13.7628
11 4 5.97269 2.76866 13.4917
285 2 8.6449 -0.762077 16.228
112 2 6.53988 -0.82718 10.3232
113 2 6.04888 1.29813 10.1212
114 2 2.21933 -0.473764 13.8699
115 2 3.17607 0.722909 15.1458
116 2 3.32538 -1.15661 15.355
129 2 2.37834 3.04544 12.5325
280 1 5.11299 -2.84569 17.1121
130 2 2.1141 3.65835 10.9027
286 2 8.80859 -2.49114 17.1091
189 2 -0.0253619 3.17808 9.43157
186 3 -0.333542 0.565385 9.88342
188 1 0.778035 -0.608112 12.4829
196 2 1.75037 -0.32714 11.9677
197 2 0.654925 -1.64181 12.7813
198 2 0.392599 0.0986764 13.2239
315 2 -0.138547 -0.385046 14.9172
213 2 -1.23997 1.50374 17.0952
53 3 5.0233 3.75488 12.5794
127 2 7.64998 1.10812 12.2998
52 1 2.44515 3.92943 11.9023
279 4 6.52351 -2.327 15.7616
204 1 -1.31839 0.38914 17.4478
281 1 8.11085 -1.6179 16.7102
313 2 0.974488 -1.86697 14.7952
283 2 4.43506 -1.98645 17.096
1 4 -3.79998 13.229 1.57613
13 4 2.20234 8.94518 2.62953
31 1 -4.73954 11.6594 0.793136
49 1 3.1946 7.34721 7.47157
55 1 2.19245 7.1401 3.26531
359 2 -1.21429 7.41505 8.28695
57 2 0.652402 8.39869 3.00738
59 1 -0.415592 12.2057 5.85289
60 1 0.0534955 10.2504 8.49439
352 1 -4.21883 11.6657 6.06594
365 2 -1.74404 12.5574 7.263
109 2 -5.81777 12.019 1.02853
110 2 -4.45363 10.7017 1.30315
249 2 -7.92074 9.85178 7.00878
235 2 -0.426624 11.4248 0.443646
329 1 -2.94044 12.9147 3.19819
136 2 1.91534 6.96229 4.32204
145 2 -0.94909 10.367 8.06361
141 2 -1.29581 11.4951 5.99432
137 2 3.38621 7.03708 3.03515
144 2 0.409684 9.18792 8.38264
353 2 -5.25571 11.1915 6.60942
124 2 2.65549 7.08847 8.4133
201 4 -3.50613 7.43718 5.528
206 1 -3.00135 8.72769 4.17004
207 3 -2.92441 6.08352 5.02369
208 1 -5.34655 7.19994 5.83589
209 2 -2.96965 8.14694 7.08504
216 2 -2.29984 9.41943 4.81056
217 2 -3.89686 9.25855 3.79413
218 2 -2.4905 8.23392 3.26063
219 2 -5.65364 7.76473 4.81935
220 2 -5.8141 7.67464 6.79832
248 2 -6.94858 11.4751 7.20882
233 3 -2.40084 13.572 0.230114
355 2 -4.5832 12.2816 5.11029
243 1 -6.99558 10.352 7.30895
247 2 -6.01667 9.70922 7.16265
332 2 -1.83002 13.0955 2.90134
47 2 2.20841 6.22067 6.36958
354 2 -3.30105 10.939 5.94534
330 2 -3.18341 11.7801 3.28435
297 2 -4.05377 9.28054 7.74526
290 1 -3.81313 8.7973 8.71549
257 2 -8.34031 10.2403 16.7332
44 1 2.5177 5.6727 16.0166
146 2 0.145527 10.7132 9.58343
74 1 -4.83561 7.19679 15.6914
120 2 2.46937 6.83843 15.5769
360 2 -2.5981 5.70299 10.0076
131 2 1.83376 4.87513 12.3198
348 1 -3.80927 10.0884 14.7671
162 2 -4.37421 7.32115 16.7663
163 2 -5.56404 7.98587 15.5588
164 2 -4.0839 7.18457 14.8307
108 2 -3.14515 8.27024 17.2015
12 4 4.06664 4.92322 11.979
338 2 -0.392918 8.84877 15.4928
231 4 0.174806 9.88106 16.8503
298 2 0.268391 10.3461 10.9253
349 2 -4.09828 9.05572 15.1077
351 2 -4.28474 10.3186 13.7728
238 4 -6.82717 10.247 9.24256
159 2 -3.97166 5.01396 13.7847
241 2 -5.47848 9.27943 9.70477
242 3 -6.46093 11.7525 9.7689
121 2 1.60588 5.45037 16.7036
300 2 -0.773502 11.3819 12.1278
303 2 0.348606 8.26066 14.2233
134 2 3.41642 6.07662 14.2507
282 2 -6.16383 10.2398 16.8621
350 2 -2.57408 10.4892 15.0305
288 4 -2.48813 7.51947 9.82598
289 4 -1.44342 9.17224 12.477
291 1 -0.118752 10.4537 11.9803
292 3 -1.95739 8.36244 11.1478
293 1 -0.548209 7.90637 13.7672
294 2 -2.59503 10.2323 13.2448
356 1 -1.17461 6.25499 9.02931
299 2 0.576984 10.2381 12.8529
167 2 -5.91425 7.28524 12.24
301 2 -0.378777 6.83679 13.3652
302 2 -1.57769 8.01772 14.4201
358 2 -0.364584 6.30191 9.7927
174 2 1.64164 8.84873 11.8872
295 2 -3.50378 9.57976 9.56699
122 2 2.63781 4.8584 15.2389
296 2 -4.55322 7.9211 9.0712
69 3 4.66007 5.39119 10.4026
342 2 12.6365 3.67674 3.55326
153 2 12.2091 4.8926 7.51424
17 4 10.1859 3.50715 7.20448
58 1 12.5396 -1.2069 8.16457
227 2 11.8 5.53758 0.475474
64 2 6.24009 6.28398 1.29946
65 1 9.02882 2.58447 8.48439
66 1 11.0786 2.10351 6.1152
67 1 11.6503 4.30896 8.27625
61 2 7.67274 2.58001 4.66133
71 3 7.13709 5.10943 4.44322
72 3 9.40499 4.59016 6.35301
138 2 11.6426 -0.500476 8.11447
321 1 15.6 3.08591 5.00428
147 2 8.93095 1.58996 8.01177
148 2 7.97983 3.14616 8.47082
150 2 10.6878 1.07435 6.41125
151 2 12.1744 2.27364 6.42882
152 2 10.8418 2.42764 5.05788
154 2 12.2539 3.4601 8.69544
139 2 13.4246 -0.778352 7.57271
177 4 16.0438 0.756417 7.81269
343 2 12.4834 4.9635 2.0314
223 1 12.7796 6.74426 1.2151
214 2 15.3429 3.51828 0.274718
322 2 15.5504 2.92221 6.1313
346 2 12.486 0.470069 1.75229
259 4 12.8758 2.55197 0.993483
262 2 11.1959 3.28004 2.27742
304 4 15.1683 -0.471922 5.06732
305 1 15.9357 0.376701 3.29421
306 3 15.5843 0.153868 6.40423
307 2 14.3922 0.83684 3.93593
308 2 15.9053 0.275865 2.2079
309 2 16.7554 1.18553 3.39625
317 2 13.9271 1.64776 7.86612
323 2 15.7089 2.05491 4.36897
324 2 14.6735 3.63627 4.62764
344 1 13.5111 0.837445 1.28675
340 1 12.3233 3.80305 2.51679
341 2 14.1158 3.53427 1.79261
62 3 5.23853 5.46006 2.39234
347 2 14.4267 0.661256 2.01929
370 3 8.69406 6.11794 0.0140447
143 2 10.1113 -0.805316 6.25471
68 3 6.40517 3.84825 8.50045
63 3 4.67281 5.90553 5.03088
345 2 13.6886 0.381445 0.244333
19 4 8.49077 5.76978 5.59667
15 4 5.939 6.08763 4.05598
225 2 10.3315 3.31022 16.6618
51 1 7.3926 2.23854 12.2633
184 2 15.0616 2.48397 9.18939
310 4 17.3989 -2.29435 14.3065
76 3 6.67154 3.487 14.7236
256 2 19.8317 -2.97998 16.3401
312 1 19.0465 -1.51487 15.1832
128 2 8.18304 2.93993 12.7498
180 4 18.403 -0.523577 11.0557
316 1 14.5861 1.55358 8.85001
336 2 11.3379 -1.66907 16.7839
169 2 7.44404 4.09121 11.4525
187 1 16.6529 -0.0264382 11.7686
193 2 16.506 0.767445 10.8488
366 1 16.0128 -2.75603 15.4334
195 2 16.2386 -1.09332 11.4255
335 2 12.9572 -2.56713 16.4054
260 4 13.8681 0.202643 15.4453
261 4 13.2936 -1.56652 12.7202
263 3 13.892 -0.354086 17.0701
264 1 15.5928 0.912591 15.0836
265 1 12.5412 1.59903 15.4081
266 3 13.586 -0.971534 14.1246
267 2 11.5677 -1.91027 12.4835
269 1 13.6351 -0.410988 11.3104
270 2 16.1419 0.542897 14.1605
271 2 16.3166 0.846723 16.0527
272 2 15.0832 2.0215 14.8713
273 2 12.1193 1.69601 14.3971
274 2 13.1967 2.483 15.7343
275 2 11.7277 1.31392 16.1936
276 2 14.2502 -1.24446 10.6812
277 2 14.2604 0.412942 11.8865
278 2 12.563 -0.164316 11.0214
318 2 14.1174 0.975628 9.71223
311 2 17.3566 -0.730205 13.4594
140 2 12.7545 -1.50281 9.18727
319 2 15.3973 -0.166955 9.24899
333 1 11.7742 -2.5352 16.2968
194 2 16.2034 0.320272 12.7201
171 2 10.3091 3.85837 13.0302
161 2 14.0934 3.40948 14.1334
81 1 10.3046 4.62969 12.1701
334 2 11.4799 -2.71325 15.1743
149 2 9.49599 2.56101 9.49693
215 2 18.1895 -0.373678 16.5971
369 2 16.4408 -2.24912 16.4645
314 2 18.8895 -1.7776 16.2974
126 2 7.03188 2.54331 11.252
172 2 11.0881 4.37453 11.3754
155 2 11.1674 4.95213 9.05529
368 2 15.0435 -2.32803 15.0603
14 4 0.973014 11.3808 7.15013
23 4 6.79559 8.998 2.96197
24 4 3.13939 10.6935 5.13582
25 4 5.36635 11.2322 1.57321
26 4 7.35157 7.69727 7.98845
28 4 5.64829 10.2641 6.82571
246 2 8.80336 10.705 7.67187
70 1 9.7173 6.68476 4.51215
83 3 6.35395 7.573 3.69259
84 3 7.74451 8.38808 1.65217
85 3 7.71135 9.97361 3.90753
86 3 2.6648 9.98154 3.70339
87 3 3.43591 12.3253 4.94185
88 3 1.97007 10.5369 6.30952
89 3 5.52175 9.94821 2.40589
90 2 5.09444 12.5186 2.63749
92 3 7.93205 6.89162 6.60742
56 3 2.45147 9.19601 1.05543
97 3 6.78889 11.1893 6.11613
98 3 4.39618 9.95964 5.78136
99 3 6.29917 9.04943 7.48195
100 2 5.04762 11.3006 8.0462
229 2 8.6154 12.3974 4.6573
239 1 8.40393 11.0514 8.74939
123 2 4.60912 7.12277 7.7622
371 3 6.37856 11.6282 0.451046
221 2 13.5847 6.06671 5.71603
373 2 3.79297 11.3339 0.995251
258 2 8.14277 13.9157 0.533261
228 4 7.98899 10.8735 5.12094
224 2 12.3168 8.02006 2.1576
230 2 9.30397 10.4591 6.04015
157 2 9.52054 7.80522 4.65915
156 2 10.7785 6.37365 4.81058
372 2 5.93594 13.0738 4.17152
125 2 2.95621 8.3352 7.09642
222 4 11.4729 7.33822 0.473725
232 1 0.159603 12.3928 0.353901
142 2 0.00266036 12.1624 4.77716
16 4 7.35534 7.27704 0.536913
96 2 4.12199 8.65791 8.6073
236 2 0.23553 12.8676 1.32734
255 2 9.51694 11.1016 0.0722747
254 2 8.26921 9.70837 0.015504
158 2 9.47785 6.37353 3.45804
18 4 6.0904 5.4016 9.64367
20 4 13.1816 5.61087 15.1569
21 4 6.86353 4.84993 15.5602
22 4 10.8284 6.36325 12.9306
27 4 4.17282 9.01368 10.3317
29 4 8.01924 7.43972 13.9004
30 4 6.97171 9.39088 12.016
168 2 8.3832 5.52771 10.3808
75 3 12.9985 4.83026 16.6321
77 3 8.05052 4.52833 16.7954
78 3 5.43317 5.4116 16.2341
79 1 12.1187 7.20071 11.8232
73 1 14.0421 4.50319 13.8084
170 2 7.25691 6.05281 11.7582
82 3 11.7599 6.04126 14.5325
8 4 4.15165 6.05647 16.8902
94 2 2.93747 10.406 10.6192
95 1 2.74278 9.01243 11.7036
363 2 5.63614 8.03719 16.51
101 3 7.53691 5.9401 14.4904
102 3 9.51822 7.24438 13.0611
103 3 8.13992 8.43634 15.1819
104 3 8.37617 9.7298 11.1996
105 3 5.57001 9.29051 11.0065
106 3 6.97428 7.92591 12.7741
107 3 6.75982 10.556 13.2325
133 2 5.05574 6.45128 13.4119
268 2 2.97024 10.8098 12.4301
132 2 3.54362 7.40533 12.6802
93 3 8.5642 8.23393 8.83654
165 2 11.6412 8.19665 11.5833
361 1 4.48817 8.04113 16.6636
176 2 3.23683 7.51826 10.8336
252 1 9.65059 10.3046 17.0151
80 1 7.46218 5.28815 10.9684
185 2 7.60656 11.9368 10.2848
367 2 5.0456 10.1701 15.5475
175 2 3.32338 9.1619 12.672
237 4 9.07884 9.51353 9.77779
91 3 6.45444 6.703 8.80287
245 2 7.30815 11.0834 8.81819
250 4 8.80455 8.50666 16.7705
362 2 3.8573 8.00279 15.6761
251 1 10.1897 7.2112 16.9971
240 3 10.7296 9.61198 9.73429
54 1 3.97244 6.3872 13.2295
253 2 10.6946 6.80236 16.0671
173 2 9.24156 4.82321 11.6962
166 2 12.0762 6.40893 10.9833
244 2 8.90766 11.9608 9.13657
234 2 2.6622 8.79022 17.4045
364 2 4.16091 8.83055 17.4137
160 2 13.4952 4.71809 12.8394
ITEM: TIMESTEP
200
ITEM: NUMBER OF ATOMS
373
ITEM: BOX BOUNDS xy xz yz pp pp pp
0.0000000000000000e+00 2.8693399999999997e+01 8.2547999999999995e+00
-3.3372593999999998e+00 1.4043442499999999e+01 1.3894000000000000e+00
0.0000000000000000e+00 1.7550000000000001e+01 -3.3372593999999998e+00
ITEM: ATOMS id type x y z
3 4 4.85981 1.19657 2.88559
152 2 10.4067 2.07473 5.11982
5 4 6.56183 1.66457 5.33808
7 4 4.25938 4.20358 2.24197
9 4 5.27276 3.26849 7.67945
343 2 12.6234 5.05611 2.08925
33 3 5.71647 0.313666 1.95072
34 2 3.28299 0.476874 3.00298
331 2 7.78556 -0.492449 3.89898
36 3 5.37512 1.18469 4.41826
37 3 7.30203 0.394627 6.02328
41 3 4.59284 2.67404 2.50347
190 2 2.37342 -0.790007 5.42763
337 2 3.36034 0.734706 6.76537
111 2 5.7118 0.518208 8.21183
46 3 6.03966 2.5885 6.48065
118 2 3.55471 4.5661 0.0810139
48 3 4.19639 4.2294 7.17394
284 2 4.17043 0.0618657 0.438233
4 4 7.46411 -0.948628 6.91412
191 2 1.16452 0.413219 4.34882
181 1 1.33049 -0.166076 5.35539
35 2 6.73207 -0.766943 8.50921
153 2 12.1785 4.86265 7.67635
15 4 5.94631 6.14407 4.03512
19 4 8.4314 5.77584 5.6614
17 4 10.1983 3.29408 7.26957
150 2 11.3284 1.07479 6.34989
143 2 10.1693 -0.832898 5.89951
45 2 4.52107 1.94988 8.48013
262 2 11.4066 3.50501 2.77787
227 2 11.9032 5.52018 0.568784
62 3 5.45556 5.29778 2.34509
64 2 6.30579 6.08667 1.20563
65 1 9.02154 2.29673 8.47716
66 1 11.0599 2.09936 6.01545
67 1 11.5567 4.28344 8.46736
61 2 7.76855 2.54897 4.51236
71 3 7.2381 5.32644 4.60907
72 3 9.35299 4.41414 6.47543
147 2 8.83547 1.44798 7.71757
148 2 8.04135 2.81271 8.69186
151 2 12.0085 2.84135 5.95221
2 4 4.808 -0.902868 10.6177
6 4 4.87381 -0.290011 13.8699
339 2 3.79956 0.498549 9.72335
32 1 5.56149 0.508953 9.36551
38 3 4.65992 -0.602961 12.1444
39 3 5.80706 -1.29054 14.787
40 1 3.18597 -0.400017 14.605
50 3 5.33222 1.31709 13.9913
11 4 6.00377 2.85936 13.4986
285 2 8.73381 -0.950412 15.9606
112 2 6.61716 -0.695042 10.2904
113 2 6.15066 1.32331 9.93499
283 2 4.52997 -1.79411 17.3241
281 1 8.15619 -1.62775 16.5824
116 2 3.26592 -1.39473 15.2238
279 4 6.48891 -2.34448 15.8434
280 1 5.0319 -2.78155 17.1066
127 2 7.3856 1.26531 12.3628
286 2 8.78816 -2.55113 17.0392
53 3 4.87677 3.80861 12.747
225 2 10.0284 2.9725 16.4425
51 1 7.27561 2.35936 12.0961
155 2 10.9929 4.94709 9.13182
172 2 11.186 4.65662 11.4171
126 2 6.97894 2.57622 11.0312
76 3 6.69349 3.61032 14.6641
128 2 8.12241 2.97723 12.5519
336 2 11.2165 -1.6324 16.6463
149 2 9.5782 1.92721 9.39608
169 2 7.44359 4.23754 11.3926
68 3 6.32889 3.94481 8.88369
161 2 14.0898 3.48695 14.2871
171 2 10.285 3.82312 12.9069
265 1 12.4841 1.53178 15.2634
273 2 12.0476 1.62819 14.2069
274 2 13.1853 2.38837 15.4562
275 2 11.7222 1.43063 16.0413
370 3 10.0971 2.85996 17.4847
154 2 12.139 3.4615 9.01193
287 2 7.56468 -1.09618 17.4196
1 4 15.207 13.0346 1.47755
290 1 14.7826 8.25552 8.75511
31 1 14.5064 11.3177 0.887085
297 2 14.1807 7.92984 7.88943
330 2 15.8432 11.7254 3.26471
354 2 15.647 11.1479 5.75619
332 2 17.276 12.9229 2.59615
247 2 13.248 9.82121 7.29775
243 1 12.2051 10.2465 7.47007
352 1 14.6531 11.8908 6.00554
226 2 13.5876 7.2642 0.725351
109 2 13.4162 11.7435 0.906727
110 2 14.6666 10.5692 1.6515
249 2 11.3722 9.5364 7.1199
355 2 14.2984 12.4304 5.02797
329 1 16.2037 12.8404 3.0331
233 3 16.606 13.5305 0.164854
248 2 12.0622 11.3547 7.2607
220 2 13.2974 7.64998 6.75303
219 2 13.4298 7.95317 4.8196
217 2 14.7585 8.94246 4.00134
353 2 13.7891 11.398 6.54183
208 1 13.6642 7.24843 5.74862
23 4 6.8511 8.89368 2.7678
158 2 9.2433 6.63546 3.47673
254 2 8.77058 9.77238 0.227588
221 2 13.3353 6.16659 5.63692
26 4 7.35775 7.6943 7.92965
246 2 8.54769 10.7806 7.75241
16 4 7.24964 7.2374 0.318469
70 1 9.68031 6.67997 4.5456
83 3 6.31086 7.6334 3.69659
222 4 11.2747 7.28044 0.547426
84 3 7.87363 8.33595 1.4072
85 3 7.75773 10.0225 3.64546
156 2 10.7093 6.15718 4.63191
157 2 9.66174 7.72066 5.0332
230 2 9.12882 10.012 6.01414
224 2 12.0651 7.9824 2.07478
228 4 7.99035 10.7011 5.0082
92 3 7.96449 6.90512 6.6865
229 2 8.99417 12.0622 4.77752
365 2 17.4142 12.7558 7.21743
223 1 12.6799 6.90719 1.34223
63 3 4.78834 6.07953 5.09707
257 2 10.58 10.0025 16.7517
296 2 14.4237 7.57908 10.0196
295 2 14.9014 9.33474 8.84563
74 1 14.1701 7.24179 15.7988
167 2 13.2568 7.51335 12.2079
294 2 16.5669 9.93161 13.4135
350 2 16.3672 10.342 15.1118
348 1 15.1787 10.131 14.8091
162 2 14.7819 7.42031 16.8308
163 2 13.3988 8.0068 15.6205
164 2 14.8893 7.08906 14.9457
108 2 16.1944 7.65488 17.4045
282 2 12.6382 10.5595 16.5898
300 2 18.4266 11.2278 12.3601
242 3 12.6391 11.7384 9.97257
241 2 13.3543 9.07996 9.75397
349 2 14.7591 9.06881 15.1741
351 2 14.9211 10.3826 13.7623
238 4 12.1804 10.3204 9.38624
104 3 8.34248 9.67616 11.1326
18 4 6.17042 5.38306 9.59553
160 2 13.559 4.73414 13.0678
20 4 13.1293 5.61279 15.3536
21 4 6.79126 4.92283 15.5745
244 2 9.2411 12.0748 9.04299
166 2 11.9705 6.73938 10.9243
103 3 8.37853 8.52585 15.1494
253 2 10.343 6.58703 15.9026
22 4 10.9843 6.41349 13.0016
240 3 10.7122 9.72308 9.80556
251 1 10.3369 7.1101 16.9217
29 4 8.01694 7.42816 13.9777
250 4 8.86218 8.4322 16.7699
168 2 8.48463 5.58608 10.3089
173 2 9.33421 4.92742 11.7039
237 4 9.04838 9.57729 9.74782
75 3 12.9431 4.71354 16.7003
77 3 7.66851 4.47166 16.8139
79 1 12.1669 7.41338 11.8568
80 1 7.52968 5.39268 10.9399
252 1 9.48072 10.2727 17.0429
73 1 14.0993 4.56883 14.0291
170 2 7.38745 6.17546 11.7063
165 2 11.5866 8.4025 11.7804
93 3 8.50004 8.29523 8.91294
82 3 11.9072 6.05105 14.4071
101 3 7.3926 6.06762 14.6901
102 3 9.62476 7.07976 13.393
239 1 8.52777 11.2398 8.8084
255 2 11.1845 7.76145 17.0421
159 2 15.1099 5.0419 14.1285
81 1 10.3436 4.73561 12.1919
91 3 6.31882 6.70632 8.77848
342 2 13.1932 3.938 3.52566
345 2 13.4307 0.337884 0.335001
347 2 14.3306 0.65737 2.07069
58 1 12.6387 -1.31157 8.27448
341 2 14.1947 2.93343 2.02821
340 1 12.6427 3.90307 2.54211
344 1 13.3066 0.832761 1.31029
324 2 14.7264 3.44167 5.00644
323 2 15.7386 1.90568 4.33318
317 2 13.7632 1.67186 8.1517
309 2 16.4466 1.20988 3.25614
308 2 15.8451 -0.0653328 2.13566
138 2 11.8721 -0.387417 8.31398
321 1 15.7582 2.92354 5.05847
307 2 14.313 0.771219 3.93937
306 3 15.5317 0.200916 6.47307
305 1 15.8931 0.279899 3.21426
212 2 19.8916 2.83742 0.0983895
304 4 15.1399 -0.52849 5.01156
259 4 12.6716 2.54547 1.18688
139 2 13.666 -1.03881 7.7641
177 4 15.96 0.828486 7.85531
346 2 12.3192 0.423363 1.89499
322 2 16.0972 2.67848 6.14507
214 2 15.358 2.71112 0.563297
119 2 21.5873 5.79162 1.20627
325 1 18.4781 4.24523 5.39682
207 3 16.0971 5.94426 5.05974
204 1 16.1681 3.38001 0.170501
179 4 18.8167 1.74566 8.62999
135 2 21.1795 6.2605 2.40885
43 2 21.7341 4.65711 2.92646
192 2 19.4433 -0.565077 5.85782
117 2 20.906 3.96144 0.907579
326 2 18.4617 3.30507 6.11211
211 2 19.6438 2.67375 2.03487
210 2 18.2924 1.96116 0.802744
205 3 17.205 4.26576 2.80065
203 1 19.1609 2.86696 0.985334
202 2 19.1116 4.77218 0.771773
200 4 16.8113 4.5042 4.57978