ITEM: TIMESTEP
0
ITEM: NUMBER OF ATOMS
373
ITEM: BOX BOUNDS xy xz yz pp pp pp
-1.0794400000000000e+01 2.0438599999999997e+01 -1.0794400000000000e+01
-3.3405999999999998e+00 1.4057499999999999e+01 1.3894000000000000e+00
0.0000000000000000e+00 1.7550000000000001e+01 -3.3405999999999998e+00
ITEM: ATOMS id type x y z
3 4 4.63716 1.3511 2.88143
4 4 6.3355 -1.25238 7.06241
5 4 5.95793 1.48154 5.50986
7 4 4.30669 4.37066 2.06584
9 4 5.22429 3.37765 7.9909
327 2 -0.0728501 5.77232 6.04858
33 3 5.91965 0.62539 2.10391
34 2 3.26674 0.531446 2.39725
356 1 -1.62017 5.18886 8.31953
36 3 4.65093 1.39804 4.45671
37 3 6.39903 0.0602617 6.09064
41 3 4.48732 2.84071 2.32766
42 1 3.1165 4.89922 0.641965
43 2 2.67935 4.90551 2.51896
325 1 -0.261828 4.85653 5.4167
46 3 5.57716 2.44624 6.71803
214 2 -3.25973 5.51241 0.429624
48 3 4.3253 4.57713 7.52041
328 2 0.588324 4.66222 4.59851
321 1 -3.5447 4.55243 4.80451
359 2 -1.06377 5.06865 7.25654
117 2 2.34017 4.02266 0.673152
330 2 7.98409 0.0882522 3.86988
178 4 1.80061 1.13267 6.78771
35 2 5.67949 -1.06042 8.68864
181 1 1.90048 2.58563 5.60314
329 1 8.31829 -0.432175 2.93454
183 3 0.622462 1.47915 7.87582
326 2 -0.489369 3.90673 6.04659
190 2 2.15931 2.08693 4.60243
191 2 2.9236 3.00154 6.08991
192 2 1.03627 3.36954 5.53938
199 4 -0.990433 4.61203 1.27176
200 4 -1.81153 5.26059 4.31146
202 2 0.738457 4.67732 1.51704
203 1 0.0786041 2.98475 0.799592
205 3 -1.39557 4.84254 2.72671
210 2 -1.02848 2.41608 0.799379
211 2 0.736925 2.72595 1.69582
119 2 2.72777 5.91462 0.739774
320 2 3.27738 0.663339 7.50729
10 4 4.01079 5.76903 6.52694
337 2 1.4484 -0.231693 5.93818
322 2 -4.13765 5.19947 5.49794
283 2 4.31617 0.314698 0.307706
61 2 7.2691 2.03364 4.56358
331 2 9.27437 -0.0223883 2.45924
204 1 -2.21697 5.43852 0.032735
213 2 -1.70038 6.51743 0.219409
357 2 -2.60955 4.47905 8.3639
2 4 3.93312 -0.609688 10.6967
6 4 4.05934 -0.101162 14.1296
287 2 7.4185 -0.907307 16.4776
32 1 5.80203 -0.335919 10.512
38 3 3.37678 -0.316767 12.2534
39 3 4.83748 -1.30602 14.7599
40 1 2.71212 0.198531 15.2857
50 3 5.05895 1.35568 13.957
52 1 2.64176 4.34305 10.8401
111 2 5.7086 0.533072 9.71433
112 2 6.53343 -1.0534 10.1661
113 2 5.94373 0.0360977 11.6585
114 2 1.82413 0.23029 14.5859
115 2 2.87667 1.25788 15.6904
116 2 2.82109 -0.646394 16.0325
129 2 2.89944 3.74475 9.88747
131 2 1.83475 3.73435 11.7051
118 2 5.49937 1.37792 17.3777
180 4 0.329052 0.973937 11.9437
185 2 1.9218 0.161311 12.2176
186 3 0.0729344 1.35952 10.408
188 1 0.552727 2.73216 12.838
196 2 0.20647 3.60468 12.2036
197 2 1.61507 2.72763 13.2052
198 2 -0.321671 2.37735 13.5991
45 2 4.32198 2.37618 9.03543
189 2 -0.642913 3.55968 8.88913
314 2 0.213101 -1.32525 14.3438
215 2 -0.77458 1.69056 16.6027
285 2 8.01011 -1.80425 14.8723
279 4 5.95525 -2.58238 15.392
212 2 1.89592 -0.243938 17.3079
281 1 7.65313 -1.92307 15.974
11 4 5.94983 2.69083 13.5164
286 2 8.22826 -2.68822 16.7168
53 3 4.95415 3.65889 12.3528
339 2 3.02976 0.256394 9.57786
179 4 -0.484152 1.87624 8.97366
126 2 7.53785 1.01048 12.898
258 2 1.0749 -2.7169 17.3433
358 2 -0.913627 5.20755 9.27454
143 2 -0.635617 12.5742 5.06489
257 2 -9.54005 13.8987 0.512908
31 1 -4.93434 11.966 1.77691
49 1 3.13036 7.43299 7.16895
55 1 2.39298 7.37597 3.98108
332 2 -2.47077 12.3962 2.99317
57 2 0.805614 8.47452 3.6277
59 1 -0.769086 11.479 5.27203
60 1 0.41666 9.28708 7.2313
1 4 -3.86022 13.5634 1.63482
108 2 -4.80429 11.247 0.917135
109 2 -6.02631 12.4177 1.89388
110 2 -4.38162 11.5818 2.72495
352 1 -3.78066 11.1376 6.36825
365 2 -2.76182 11.9846 7.34122
125 2 2.00783 7.65265 7.41088
236 2 -1.95677 10.103 0.602467
137 2 2.55955 7.41259 5.20675
141 2 -1.8947 11.3257 5.67038
145 2 0.113238 8.71584 6.27848
144 2 1.33525 8.77545 7.78909
248 2 -7.12835 11.477 7.77079
146 2 -0.499461 9.26484 7.95003
201 4 -2.30991 8.49197 4.24159
206 1 -2.05059 9.09082 2.39746
207 3 -1.97145 6.94893 4.47565
208 1 -4.21725 8.4957 4.57103
209 2 -1.52719 9.6439 5.35666
216 2 -1.36838 8.17539 2.1317
217 2 -1.5607 10.0238 2.60582
218 2 -2.91954 9.18605 1.71957
219 2 -4.44242 8.90527 3.47299
220 2 -4.55708 9.2483 5.38603
221 2 -4.51826 7.41837 4.76931
142 2 -0.482719 10.7925 4.42532
354 2 -3.64758 10.0251 6.53468
243 1 -7.20956 10.3196 7.87716
247 2 -6.33543 9.71682 7.50582
353 2 -5.5252 11.3869 6.39423
360 2 -4.57379 6.47963 7.81671
355 2 -3.60728 11.4012 5.29996
297 2 -4.43437 8.33673 8.37716
290 1 -4.01812 7.52736 7.68831
295 2 -4.04919 7.86182 6.54294
296 2 -2.25698 8.15628 7.78097
136 2 1.62236 6.66341 3.68229
56 3 2.41899 8.97935 1.40548
135 2 3.45887 7.06733 3.38821
47 2 2.22166 5.96062 6.34067
234 2 -0.764442 11.9887 0.401377
13 4 2.37671 9.03983 3.07304
282 2 -6.8665 10.7436 16.8915
44 1 2.54748 4.80464 16.5634
121 2 1.93371 5.61981 16.0951
74 1 -3.99531 6.93207 14.9057
280 1 -5.63508 10.6667 16.8141
252 1 -8.88257 10.5493 17.188
132 2 2.70643 6.13649 13.0829
348 1 -4.86753 9.88694 13.9816
162 2 -3.01803 6.51505 14.4079
163 2 -4.04473 6.95129 16.0765
164 2 -4.36518 8.00535 14.5491
166 2 -6.74211 9.4326 13.4993
233 3 -1.60062 10.1368 17.4697
338 2 -1.51915 7.24952 16.378
231 4 -0.551209 9.21423 16.734
232 1 -0.461885 7.34282 17.0427
12 4 4.26226 4.857 11.7389
235 2 0.456209 6.94732 16.4675
238 4 -7.14802 10.295 9.75774
336 2 -0.752834 10.7426 14.4036
241 2 -5.67833 9.51466 10.1418
242 3 -6.95882 11.7999 10.2724
140 2 -0.368665 11.8493 9.01756
120 2 3.00417 4.13457 15.7515
334 2 -0.139587 9.00264 14.2238
351 2 -5.24537 10.0835 12.9456
159 2 -4.4136 4.71277 13.3558
284 2 -5.31698 9.58858 16.4498
256 2 -8.41693 10.5528 16.1863
289 4 -2.57135 7.67073 11.9935
291 1 -1.92596 9.44855 12.1456
292 3 -2.57204 7.17879 10.397
293 1 -1.37702 6.65643 12.9367
294 2 -3.93552 7.23118 12.9454
298 2 -1.3002 9.80328 11.2481
299 2 -1.32787 9.56251 13.2884
300 2 -2.99807 9.84806 12.1146
301 2 -0.98164 5.69882 12.3923
302 2 -1.69874 6.38529 14.0254
303 2 -0.532659 7.44929 13.0006
333 1 -0.193049 9.92803 14.8911
349 2 -5.4757 9.2424 14.6632
350 2 -3.74037 9.51592 13.9629
122 2 2.00448 4.22022 17.3565
8 4 4.01099 5.63887 17.3626
134 2 3.98788 5.56361 14.2619
288 4 -2.60896 6.72678 8.86258
174 2 2.75603 7.7752 9.91319
54 1 3.8022 6.05654 13.2526
130 2 2.21909 5.35011 10.6436
67 1 11.3786 4.63242 8.44853
16 4 7.48257 6.50238 0.757921
17 4 10.3817 3.90436 6.96837
347 2 13.8762 1.02241 2.03865
324 2 14.8812 4.43458 3.80557
184 2 14.311 2.86836 7.34563
65 1 8.99015 2.62267 7.69268
66 1 11.5385 3.09461 5.57296
341 2 13.3482 3.27583 2.32393
62 3 5.26759 5.44448 2.60874
71 3 7.29878 5.66396 4.66305
72 3 9.44699 5.13895 6.22583
138 2 10.4223 -1.0011 7.56513
139 2 11.997 -1.35874 8.5646
147 2 8.70587 1.98237 6.75107
148 2 7.99071 3.03198 8.09584
150 2 11.1341 3.49647 4.61032
151 2 11.4117 1.98745 5.69487
152 2 12.5093 3.47552 5.88959
372 2 16.688 0.781945 3.83373
157 2 10.3859 5.9764 3.70033
177 4 15.7376 1.12409 7.83737
64 2 6.69089 5.38047 1.72243
223 1 11.6812 6.22473 0.492414
225 2 10.7689 5.88324 1.11211
343 2 11.8737 4.55567 1.63263
342 2 11.7755 3.85491 3.41477
259 4 11.9188 2.17157 1.02283
262 2 10.6027 2.57166 2.25096
304 4 15.4007 0.0949039 4.76611
305 1 14.8761 1.55972 3.68119
306 3 15.563 0.493482 6.28727
307 2 13.6713 1.19389 3.8298
308 2 15.2305 1.30126 2.6057
309 2 15.113 2.71408 4.05227
346 2 12.2424 -0.0126016 1.3954
340 1 12.1294 3.63976 2.3388
149 2 9.53151 2.02854 8.50534
344 1 13.0912 0.756693 1.11172
319 2 13.3084 1.85468 8.59632
345 2 13.6294 0.582232 0.150408
316 1 14.3395 2.2796 8.38192
182 3 17.1271 1.3953 8.48301
155 2 12.1671 3.86272 8.59032
68 3 6.56817 3.77897 8.76189
370 3 8.55638 5.83131 0.107771
323 2 15.915 3.59307 5.31232
317 2 14.7787 2.84217 9.22064
51 1 7.49713 2.0732 12.6565
187 1 17.8181 -0.00991581 12.3958
311 2 15.9191 -1.85988 14.2732
76 3 6.53495 3.55198 14.711
368 2 15.1353 -2.227 16.1366
127 2 8.31426 2.66749 13.0983
128 2 7.41104 2.26376 11.5366
369 2 16.7651 -2.85101 16.7346
310 4 17.4906 -2.64185 14.6505
161 2 13.3543 3.38712 14.0981
169 2 8.70042 4.53774 10.5755
153 2 10.6136 4.65072 9.27669
193 2 17.0696 0.257708 11.5406
315 2 19.6684 -2.2788 15.9581
77 3 7.76047 3.68393 17.2689
366 1 15.9321 -2.92201 15.863
260 4 12.3938 -0.0357412 15.5529
261 4 12.8389 -2.31798 13.1448
263 3 12.8339 -0.672215 17.1771
264 1 13.1711 1.64607 15.0629
265 1 10.4905 0.222862 15.8184
266 3 12.6729 -1.25983 14.3457
194 2 17.4839 0.224665 13.4275
269 1 11.6387 -1.85087 11.7799
270 2 13.3507 1.43741 13.9008
271 2 14.0982 2.11556 15.5807
272 2 12.1763 2.25088 15.2693
273 2 10.1896 0.346335 14.7078
274 2 10.32 1.24887 16.6
275 2 10.0396 -0.700887 16.1856
276 2 12.4463 -1.85131 10.9345
277 2 11.0486 -0.949885 11.8957
195 2 18.3065 -1.03 12.2418
318 2 14.5252 0.454178 9.02753
227 2 13.1671 2.47917 16.9465
312 1 18.8691 -1.64546 15.3645
313 2 18.3165 -0.809185 15.9454
73 1 13.4879 4.4128 13.6172
63 3 4.70747 6.16546 5.22406
23 4 7.13706 8.83738 2.89125
24 4 3.44125 11.1294 5.21915
25 4 5.63266 11.2665 1.75964
26 4 7.42232 7.99652 7.86099
28 4 5.84189 10.3714 6.82287
364 2 2.43884 11.5069 0.336368
156 2 8.98973 7.11475 3.04618
83 3 6.22418 7.8701 3.72415
84 3 8.10647 7.94078 1.7921
85 3 8.14432 10.1061 3.65796
86 3 2.81973 10.3178 3.92439
87 3 4.23616 12.6614 4.38367
88 3 2.11431 11.4372 6.13683
89 3 6.20735 9.87776 1.95167
90 2 4.98506 12.0191 3.08877
92 3 8.25627 7.67022 6.58565
371 3 6.72088 12.194 1.1405
97 3 7.1773 10.6509 6.00459
98 3 4.49409 10.4087 6.08677
99 3 5.79911 8.69559 7.48042
100 2 5.83749 11.4206 8.13659
255 2 8.50651 9.94191 0.599817
123 2 3.6296 8.29351 6.59956
70 1 9.61522 6.8134 3.9692
19 4 8.60742 6.17884 5.38444
158 2 10.1858 7.68614 4.49486
222 4 11.432 7.93123 0.329513
229 2 9.5498 11.4826 5.36546
228 4 8.40145 10.2482 5.18855
373 2 4.2663 11.1679 0.651282
230 2 9.19646 8.89394 5.86757
249 2 10.8348 9.9106 7.681
224 2 10.508 8.83907 1.37264
58 1 0.21605 12.3043 8.21839
251 1 9.09286 10.7142 0.0290847
91 3 7.08868 6.6598 8.62459
124 2 3.75764 7.20172 8.26271
15 4 5.90544 6.38209 4.18532
226 2 12.9552 7.35189 1.18255
154 2 11.7079 5.65132 8.15569
14 4 0.63953 11.117 6.70259
253 2 9.90598 11.2623 0.68181
18 4 6.61657 5.52472 9.58243
362 2 3.35324 7.6742 16.1653
21 4 6.78292 4.4905 16.0806
22 4 10.7976 7.24787 13.5757
27 4 4.52486 9.19761 10.4856
29 4 7.89247 7.13213 14.8942
30 4 6.95507 8.80726 12.6848
69 3 5.22265 5.58488 10.5168
75 3 13.1072 5.11407 16.4013
20 4 13.4172 5.79959 14.9121
78 3 5.47051 4.9006 16.715
244 2 9.18847 11.7337 10.4081
80 1 8.11483 5.4365 10.7642
81 1 11.1195 6.4131 11.8586
82 3 12.1033 6.86677 14.5301
254 2 10.9418 6.94456 16.6163
94 2 4.20437 10.8359 10.4451
95 1 3.02322 8.24977 10.9704
367 2 4.79538 10.091 15.7966
101 3 7.45609 5.92515 15.8694
102 3 9.3101 6.88437 14.1507
103 3 8.3186 8.39864 16.0857
104 3 8.28083 8.60994 11.6085
105 3 5.63308 8.91082 11.6012
106 3 6.71522 7.51459 13.7989
107 3 7.09888 10.164 13.5409
133 2 4.23589 7.05892 13.1198
335 2 0.809261 10.3445 15.3815
268 2 3.62176 11.2621 12.8651
240 3 10.6317 9.49673 10.3353
165 2 10.9364 9.23414 12.1312
167 2 10.4485 9.63045 13.9589
168 2 8.69588 6.41398 10.6225
170 2 7.50963 5.3379 11.7478
171 2 11.7963 5.43499 12.0774
172 2 11.6888 7.09963 11.2302
173 2 10.0669 6.0924 11.4877
175 2 2.35997 9.1526 11.3214
237 4 8.71799 9.34553 10.2718
239 1 8.1991 11.1419 10.5178
245 2 7.75184 11.1464 11.5494
250 4 9.22097 8.75689 17.286
246 2 7.44253 11.3544 9.67649
96 2 5.12752 9.01163 8.88557
278 2 0.229641 11.1521 11.8508
267 2 1.38616 10.1952 13.713
160 2 12.7407 4.66628 12.7137
361 1 4.16422 7.61077 16.9376
176 2 3.34207 7.4205 11.874
363 2 5.14179 7.96134 16.505
79 1 11.157 9.11668 13.2573
93 3 8.18051 9.0077 8.78784
ITEM: TIMESTEP
100
ITEM: NUMBER OF ATOMS
373
ITEM: BOX BOUNDS xy xz yz pp pp pp
-1.0794400000000000e+01 2.0447374999999997e+01 -1.0794400000000000e+01
-3.3405999999999998e+00 1.4057499999999999e+01 1.3981749999999984e+00
0.0000000000000000e+00 1.7550000000000001e+01 -3.3405999999999998e+00
ITEM: ATOMS id type x y z
3 4 4.66612 1.35738 2.84478
4 4 6.46461 -1.23399 7.02086
5 4 5.87186 1.47939 5.54642
7 4 4.19369 4.43902 2.09522
9 4 5.263 3.39855 8.01326
117 2 2.33077 3.98944 0.54682
33 3 5.87824 0.565503 2.21295
34 2 3.35647 0.415815 2.43498
356 1 -1.44188 5.18994 8.50042
36 3 4.68977 1.3705 4.39906
37 3 6.20556 0.0461655 6.15852
41 3 4.31231 2.85366 2.32272
42 1 3.15108 4.87551 0.613815
43 2 2.57175 5.04023 2.44041
325 1 -0.191969 4.95858 5.5412
46 3 5.5686 2.48212 6.81382
214 2 -3.45042 5.70861 0.344654
48 3 4.30121 4.54906 7.58019
328 2 0.538259 4.87399 4.68469
321 1 -3.54486 4.54724 4.98173
359 2 -1.01955 5.04527 7.38182
204 1 -2.3861 5.53502 0.0963652
330 2 8.11295 -0.174701 4.08385
178 4 1.81889 1.19678 6.68866
35 2 6.00367 -1.04503 8.71338
181 1 2.07294 2.64903 5.4737
61 2 7.22011 2.23279 4.8994
183 3 0.733697 1.59893 7.76337
326 2 -0.624273 3.95359 5.95504
190 2 2.16848 1.93563 4.51111
191 2 3.03777 3.00029 5.94724
192 2 1.28963 3.42932 5.45593
199 4 -1.1133 4.76726 1.2522
200 4 -1.86162 5.25579 4.40028
202 2 0.653666 5.01109 1.23605
203 1 0.0210561 3.26987 0.682709
205 3 -1.58302 4.81796 2.73396
210 2 -1.00625 2.55937 0.756284
211 2 0.794362 2.94102 1.4097
119 2 2.81418 5.92207 0.551049
320 2 3.20222 0.430314 7.29187
331 2 9.20036 -0.383852 2.57496
337 2 1.21125 0.0249022 5.63712
322 2 -4.07556 5.28136 5.63825
257 2 1.39446 0.000691721 0.259885
2 4 4.03817 -0.692341 10.685
6 4 4.17452 -0.064138 14.0683
287 2 7.84267 -1.12816 16.035
32 1 5.8655 -0.283674 10.5202
38 3 3.49257 -0.344876 12.2058
39 3 5.03951 -1.4425 14.64
40 1 2.84331 0.100866 15.303
50 3 5.10248 1.38324 14.1388
52 1 2.56591 4.5696 10.8344
111 2 5.61016 0.572309 9.61885
112 2 6.73764 -1.01044 10.3287
113 2 6.16826 0.288825 11.449
114 2 1.95753 -0.252041 14.5952
115 2 2.96098 1.19702 15.6589
116 2 3.20231 -0.729418 16.087
129 2 2.87692 3.97387 9.86359
131 2 1.81636 3.93439 11.5814
213 2 -0.373378 3.18023 17.4985
180 4 0.467185 1.02115 11.8982
185 2 2.05247 0.295047 12.0246
186 3 -0.00675842 1.4255 10.3485
188 1 0.655921 2.79642 12.8046
196 2 0.187551 3.61637 12.1601
197 2 1.63419 3.03212 13.2296
198 2 -0.107628 2.33789 13.6581
45 2 4.35055 2.47921 9.081
189 2 -0.412045 3.62015 9.05459
314 2 0.379397 -1.48393 14.3495
215 2 -0.832348 1.47331 16.6647
285 2 8.14629 -2.35037 14.5997
279 4 5.85182 -2.6578 15.2903
212 2 1.86029 0.0406475 17.167
281 1 7.67881 -2.16901 15.6158
11 4 6.01109 2.74279 13.7
286 2 8.20143 -2.89146 16.4338
53 3 5.02866 3.62301 12.4501
339 2 3.1512 0.370669 9.69455
179 4 -0.316553 1.89806 8.82428
283 2 5.47054 -2.65079 17.5482
120 2 2.75781 3.90289 16.1733
118 2 5.43064 1.35348 17.3468
357 2 -2.2674 4.43173 8.84197
329 1 -2.51123 13.2595 3.08395
327 2 -0.238041 5.90401 6.10424
31 1 -4.83653 11.7463 1.96788
49 1 3.17307 7.47157 7.18698
55 1 2.37341 7.36282 4.09577
332 2 -2.35629 12.1867 3.32876
57 2 0.842909 8.47785 3.64871
59 1 -0.564826 11.3724 5.20503
60 1 0.439686 9.18315 7.40342
1 4 -3.87766 13.4282 1.82086
108 2 -4.90255 11.2389 0.962924
109 2 -5.813 11.9125 2.46611
110 2 -4.18142 11.2635 2.72463
352 1 -3.62862 11.3094 6.12819
365 2 -2.48721 12.1693 7.11189
125 2 2.12947 8.18016 7.20983
236 2 -1.91986 9.89555 0.557358
137 2 2.65037 7.50423 5.2119
141 2 -1.71301 11.3895 5.56141
145 2 0.867837 8.44219 6.62251
144 2 0.978661 9.20687 8.3768
248 2 -7.31137 11.1483 7.39503
146 2 -0.638236 9.10545 7.57299
201 4 -2.41589 8.47239 4.23764
206 1 -1.99576 8.89729 2.42487
207 3 -1.96599 6.95952 4.44244
208 1 -4.31442 8.47203 4.68338
209 2 -1.62824 9.75692 5.21459
216 2 -1.16004 8.20358 2.22731
217 2 -1.6472 9.97098 2.35336
218 2 -3.00019 8.70858 1.88029
219 2 -4.54865 8.80056 3.53924
220 2 -4.56831 9.19049 5.51261
221 2 -4.71001 7.43961 4.84092
142 2 -0.146416 10.5303 4.59309
354 2 -3.4029 10.2644 6.30077
243 1 -7.21838 10.1579 7.89001
247 2 -6.26863 9.62385 7.60877
353 2 -5.27012 11.257 6.55201
360 2 -4.6202 6.69038 7.97065
355 2 -3.50056 11.6711 5.01486
297 2 -4.0923 8.66333 8.42225
290 1 -3.82041 7.75595 7.79042
295 2 -3.99261 7.98329 6.6847
296 2 -1.97522 7.96554 7.73272
136 2 1.43478 6.75281 3.89095
234 2 -0.753866 11.7378 0.282423
135 2 3.32974 6.94108 3.50552
47 2 2.31737 6.04445 6.31324
140 2 -0.759157 11.9666 8.6822
56 3 2.38446 9.01685 1.56942
143 2 -0.383237 12.352 4.67335
10 4 4.02321 5.80086 6.53758
122 2 0.426089 8.04329 0.102894
282 2 -6.92591 10.4991 16.8053
44 1 2.43909 4.87084 16.715
121 2 1.93215 5.60304 16.0252
74 1 -4.09929 7.02027 15.1722
280 1 -5.75157 10.5629 16.8206
252 1 -8.91214 10.5146 17.1827
132 2 2.70097 6.14981 13.122
348 1 -4.81667 9.82732 13.9435
162 2 -3.13733 6.63694 14.7328
163 2 -4.10262 6.97934 16.2856
164 2 -4.41661 8.10153 14.7783
166 2 -6.7077 9.48931 13.4253
233 3 -1.66098 10.1222 17.5286
338 2 -1.84761 7.2922 16.968
231 4 -0.582074 9.18043 16.8082
232 1 -0.679572 7.22563 17.1621
12 4 4.26094 4.89707 11.6751
235 2 -0.176294 6.75174 16.2512
238 4 -7.08606 10.287 9.72791
336 2 -1.20325 10.4203 14.7299
241 2 -5.69331 9.4964 10.2531
242 3 -7.00701 11.8123 10.2015
79 1 -7.87786 9.20942 13.1426
159 2 -4.40516 4.81217 13.5251
334 2 -0.149362 8.91708 14.2139
351 2 -4.86796 10.0173 12.8647
130 2 2.21535 5.61536 10.6853
284 2 -5.22028 9.54004 16.9678
256 2 -8.88566 10.7764 16.0793
289 4 -2.64986 7.57118 12.0605
291 1 -2.00621 9.37132 12.1268
292 3 -2.73524 7.12969 10.4179
293 1 -1.54086 6.47525 13.0959
294 2 -4.00119 7.26043 13.2313
298 2 -1.44976 9.70832 11.1677
299 2 -1.428 9.46989 13.2003
300 2 -2.98442 9.88142 12.1882
301 2 -1.52362 5.46393 12.4764
302 2 -1.80811 6.37916 14.1966
303 2 -0.564216 7.24825 12.9003
333 1 -0.388881 9.68249 14.9819
349 2 -5.59227 9.08655 14.33
350 2 -3.8159 9.3521 14.2118
358 2 -0.670075 5.4444 9.30539
54 1 3.82639 6.02177 13.1947
134 2 4.15222 5.52038 14.1395
288 4 -2.59503 6.67865 8.87184
67 1 11.5755 4.55418 8.50742
16 4 7.48494 6.50631 0.750467
17 4 10.442 3.95536 7.05877
347 2 13.8825 0.98135 2.00934
324 2 15.0333 4.35831 4.0338
184 2 14.7283 3.1576 7.42242
65 1 9.01617 2.59707 7.64299
66 1 11.3678 2.99973 5.60113
341 2 13.4971 3.26583 2.07833
62 3 5.33766 5.44953 2.56394
71 3 7.34417 5.56592 4.80323
72 3 9.59526 5.15004 6.36676
138 2 11.2225 -0.818625 8.01541
155 2 12.6047 3.95744 8.422
147 2 8.83503 2.21642 6.62433
148 2 8.14098 3.16365 8.14886
150 2 11.4234 3.62728 4.66992
151 2 10.7939 2.02317 5.41706
152 2 12.4306 2.84723 6.13484
372 2 16.8241 0.531811 3.8608
157 2 10.3159 5.8035 3.62481
177 4 15.6979 1.16042 7.71975
64 2 6.79551 5.35977 1.84414
223 1 11.5963 6.24793 0.482093
225 2 10.5411 5.90107 1.10958
343 2 12.1088 4.68291 1.6227
342 2 12.0517 3.84582 3.3174
259 4 11.8319 2.25359 1.01334
262 2 10.6784 2.60632 2.36215
304 4 15.4105 0.0782972 4.84052
305 1 15.1524 1.45565 3.52284
306 3 15.4906 0.668269 6.29604
307 2 13.7872 1.12807 3.7831
308 2 15.5132 1.34061 2.45318
309 2 15.4624 2.48111 3.98867
346 2 12.1342 0.0393776 1.39419
340 1 12.323 3.67405 2.25938
149 2 9.6878 1.88185 8.28868
344 1 13.0487 0.814805 1.10819
319 2 13.3877 1.7891 8.17021
345 2 13.5723 0.583436 0.03649
316 1 14.3541 2.32985 8.35144
182 3 17.2104 1.40162 8.37549
370 3 8.59006 5.85688 0.182539
323 2 15.6838 3.61176 5.56967
258 2 18.5732 0.320288 0.222974
226 2 12.92 6.77083 1.34634
317 2 14.2507 2.95816 9.31063
51 1 7.61453 2.28471 12.8319
187 1 17.9959 0.0870063 12.5254
311 2 15.9078 -1.82206 14.4227
76 3 6.62518 3.63105 14.8848
368 2 14.957 -2.50523 16.1656
127 2 8.3482 2.76527 13.5961
128 2 7.47585 2.93108 11.8581
68 3 6.53492 3.82353 8.86519
310 4 17.5205 -2.66656 14.6257
161 2 13.5362 3.3973 14.2231
169 2 8.5796 4.06726 10.6348
153 2 11.0224 4.29327 9.43898
193 2 17.1925 0.208635 11.7559
313 2 18.4627 -0.843598 15.7779
126 2 7.8154 1.21604 12.6701
315 2 19.686 -2.37887 16.0735
260 4 12.2781 0.0202491 15.5823
261 4 12.5779 -2.37923 13.2496
263 3 12.9032 -0.543482 17.1153
264 1 13.3468 1.58249 15.1318
265 1 10.4554 0.500281 15.6828
266 3 12.2658 -1.02106 14.3413
194 2 17.7264 0.492038 13.528
269 1 11.8342 -1.89923 11.6192
270 2 13.6503 1.46822 14.0815
271 2 14.1634 1.91064 15.7867
272 2 12.3881 2.29944 15.1931
273 2 9.90361 0.857531 14.7036
274 2 10.2877 1.34192 16.5844
275 2 10.0662 -0.495448 16.0292
276 2 12.8245 -1.40238 11.2306
277 2 10.8971 -1.21269 11.7494
195 2 18.5743 -0.950947 12.5603
318 2 14.4352 0.49653 8.89224
227 2 13.1804 2.35212 16.9637
312 1 18.9353 -1.76328 15.3254
63 3 4.83579 6.12995 5.23303
23 4 7.17383 8.82176 2.80947
24 4 3.41867 11.0581 5.20243
25 4 5.63185 11.2898 1.67962
26 4 7.51842 7.95605 7.91775
28 4 5.85285 10.1997 6.8721
364 2 2.6082 11.7732 0.0841803
156 2 9.15725 7.19239 3.05984
83 3 6.25034 7.83508 3.79478
84 3 8.17337 7.97791 1.86752
85 3 8.27687 9.86289 3.65266
86 3 3.04143 10.1442 3.97765
87 3 4.28095 12.6279 4.41449
88 3 2.15623 11.3934 6.22028
89 3 6.11018 9.79401 1.93311
90 2 5.01103 12.0134 3.10561
92 3 8.34149 7.69093 6.62062
371 3 6.70755 12.2573 1.11321
97 3 7.2352 10.6078 6.0805
98 3 4.53 10.3302 5.92129
99 3 5.86616 8.77656 7.56281
100 2 5.70518 11.3687 8.07413
255 2 8.60686 9.88568 0.833675
123 2 3.89174 8.19856 6.59736
70 1 9.75347 6.74569 3.93045
19 4 8.67105 6.23717 5.34276
158 2 10.4674 7.50874 4.43105
222 4 11.4922 7.90113 0.460096
229 2 9.44454 11.5581 5.14658
228 4 8.39739 10.2727 5.17378
373 2 4.16395 11.3802 0.70771
230 2 9.23403 9.00653 5.96955
249 2 10.8543 9.44873 7.83675
224 2 11.07 9.03341 1.67871
58 1 0.270538 12.1583 8.32006
251 1 9.00962 10.6667 0.156477
91 3 7.19395 6.59631 8.75936
124 2 3.59233 7.23533 8.28888
15 4 5.98887 6.32758 4.21437
13 4 2.41069 9.00798 3.13231
154 2 11.7526 5.63056 8.34219
14 4 0.694665 11.1292 6.82363
253 2 9.81285 11.3565 0.645186
18 4 6.62369 5.51136 9.7389
362 2 3.31987 7.40812 16.091
21 4 6.84853 4.58009 16.2163
22 4 10.8471 7.29288 13.494
27 4 4.59615 9.29651 10.5728
29 4 8.02001 7.26441 14.897
30 4 6.97676 8.81326 12.635
69 3 5.45496 5.91086 10.7345
75 3 13.1441 5.14214 16.5485
20 4 13.321 5.81328 15.087
78 3 5.28129 4.93146 16.8582
244 2 9.04636 11.8314 10.8085
80 1 8.17799 5.13423 10.8634
81 1 11.1069 6.28195 11.9076
82 3 12.152 6.61021 14.4284
254 2 10.7713 6.82824 16.7207
94 2 4.54093 10.9891 10.0687
95 1 3.14747 8.28825 10.9617
367 2 4.68345 9.95896 15.342
101 3 7.51796 5.95451 15.6276
102 3 9.40338 6.89443 14.0438
103 3 8.37649 8.4977 15.958
104 3 8.1454 8.74529 11.4937
105 3 5.61183 9.0423 11.7452
106 3 6.76228 7.6473 13.7563
107 3 7.00887 10.2716 13.5203
133 2 4.29276 7.04047 13.1534
335 2 0.81496 10.3142 15.685
268 2 3.37173 11.2512 13.0982
240 3 10.6538 9.58551 10.297
165 2 10.8766 9.36788 12.0375
167 2 10.4534 9.69477 13.8096
168 2 8.77248 6.07556 10.4131
170 2 7.8334 5.34724 11.9415
171 2 12.107 5.58014 12.115
172 2 11.3108 7.16226 11.1785
173 2 10.1599 5.64803 11.723
175 2 2.45512 9.13223 11.2755
237 4 8.7169 9.60421 10.2527
239 1 8.01881 11.321 10.4521
245 2 7.17925 11.2927 11.2657
250 4 9.13825 8.76666 17.4422
246 2 7.66377 11.6666 9.44108
96 2 5.26149 8.8081 9.04693
278 2 0.746745 11.0998 11.2302
267 2 0.985117 10.1842 13.6792
93 3 8.23926 9.09968 8.85203
361 1 4.26992 7.61661 16.8389
176 2 3.35002 7.44921 11.7961
363 2 5.11893 7.94702 16.2444
366 1 5.0825 10.9078 15.8012
73 1 13.5434 4.469 13.7955
160 2 12.6858 4.6213 12.8736
139 2 1.07359 11.8249 9.13205
369 2 5.92681 10.7036 16.6454
174 2 2.9564 7.89757 9.91729
8 4 3.97572 5.72453 17.4261
77 3 7.82214 3.75938 17.2536
ITEM: TIMESTEP
200
ITEM: NUMBER OF ATOMS
373
ITEM: BOX BOUNDS xy xz yz pp pp pp
0.0000000000000000e+00 2.8710949999999997e+01 8.2547999999999995e+00
-3.3405999999999998e+00 1.4057499999999999e+01 1.4069499999999984e+00
0.0000000000000000e+00 1.7550000000000001e+01 -3.3405999999999998e+00
ITEM: ATOMS id type x y z
3 4 4.55957 1.42358 2.86139
4 4 6.48455 -1.26106 7.11568
5 4 5.92744 1.53008 5.48534
7 4 4.18107 4.40253 2.048
9 4 5.2192 3.42293 7.87722
342 2 11.9887 3.72616 3.41453
33 3 5.66816 0.587632 2.1877
34 2 3.1249 0.616171 2.50726
337 2 1.60632 -0.191032 5.7564
36 3 4.6805 1.43741 4.50237
37 3 6.15546 0.0887214 6.30744
41 3 4.4086 2.88486 2.34188
42 1 3.18462 5.02596 0.590692
63 3 4.88024 5.98547 5.28915
320 2 3.32366 0.851009 7.53257
46 3 5.70845 2.65668 6.61498
191 2 3.23745 2.8997 5.81185
48 3 4.25414 4.64589 7.63408
68 3 6.49655 3.86674 8.79093
61 2 7.3124 1.83725 4.63066
154 2 11.9825 5.35705 8.21792
330 2 8.07741 -0.0246145 3.91735
67 1 11.6937 4.29953 8.56341
343 2 12.0422 4.58533 1.66846
16 4 7.59713 6.67926 0.640602
17 4 10.3751 3.86517 7.07339
370 3 8.59868 5.8771 0.0465682
65 1 9.0533 2.70385 7.94375
66 1 11.4023 3.0332 5.6591
62 3 5.33734 5.46452 2.66195
71 3 7.51746 5.58229 4.61213
72 3 9.66975 5.06452 6.31519
283 2 4.35064 0.532319 0.0403951
155 2 12.6084 3.50828 8.40062
147 2 8.80692 1.95599 7.1374
148 2 8.12912 3.25776 8.2083
150 2 11.2791 3.45816 4.54924
151 2 10.8204 1.98987 5.82502
157 2 10.7648 6.02677 3.88737
64 2 6.5567 5.59903 1.62065
223 1 11.7456 6.23401 0.520764
262 2 10.7344 2.56627 2.37456
225 2 10.6051 6.00679 1.11723
190 2 2.18939 2.16329 4.42295
2 4 3.99325 -0.674617 10.6258
6 4 4.17297 -0.100217 14.0529
287 2 7.67755 -1.12924 16.1106
32 1 5.82551 -0.355161 10.6382
38 3 3.56112 -0.194714 12.3149
39 3 5.06064 -1.34739 14.6623
118 2 5.53693 1.32109 17.3552
50 3 5.07212 1.28976 14.1477
264 1 13.1429 1.51348 15.0703
111 2 5.73524 0.552187 9.76509
112 2 6.51986 -1.2634 10.3779
113 2 5.90466 0.0315938 11.7994
339 2 2.96668 0.14099 9.52424
53 3 5.02459 3.60847 12.5242
116 2 2.56799 -1.0012 15.686
286 2 8.32554 -2.96349 16.6038
11 4 5.89529 2.69755 13.6324
281 1 7.71414 -2.2189 15.8351
279 4 5.95703 -2.74212 15.3814
285 2 8.06436 -2.31588 14.7766
35 2 6.07462 -1.14234 8.80507
51 1 7.50545 2.05026 12.9031
76 3 6.36455 3.6129 14.8384
227 2 13.2479 2.3854 16.9
127 2 8.29742 2.57672 13.5782
128 2 7.36805 2.52414 11.8307
265 1 10.253 0.411888 15.6604
260 4 12.0899 -0.0465506 15.6482
275 2 9.80772 -0.55177 16.1142
274 2 10.1721 1.37806 16.4965
273 2 9.94948 0.534851 14.5584
272 2 12.2564 2.31675 15.2194
161 2 13.4488 3.39797 14.3374
169 2 8.38531 4.06492 10.7904
153 2 10.9698 4.18576 9.45532
126 2 7.54324 0.882449 12.9728
45 2 4.34791 2.37644 8.819
149 2 9.48513 2.19834 8.87291
329 1 16.523 13.2997 3.11389
295 2 15.1051 8.12863 6.5045
31 1 14.0897 11.636 1.83322
290 1 15.3352 7.70502 7.63036
297 2 14.8722 8.39672 8.34677
332 2 16.5635 12.2502 3.55821
355 2 15.7504 11.9649 5.023
257 2 9.52754 13.6359 0.394723
353 2 13.8833 11.2522 6.47583
1 4 15.1015 13.2732 1.84837
108 2 14.0408 11.3657 0.745911
109 2 13.0783 11.821 2.28465
110 2 14.7897 11.0006 2.45909
352 1 15.5936 11.474 6.00389
365 2 16.537 12.1454 7.21861
247 2 12.7412 9.65162 7.63871
243 1 11.7863 10.3154 7.93481
354 2 15.9732 10.4182 5.94761
221 2 14.2306 7.79941 4.92854
220 2 14.694 9.61093 5.33762
219 2 14.6089 9.14139 3.42349
248 2 11.758 11.3882 7.61788
208 1 14.764 8.74652 4.57775
360 2 14.655 6.3696 7.75696
253 2 9.84262 11.2294 0.89384
23 4 7.14021 8.84088 2.82821
226 2 13.0862 6.8322 1.34149
26 4 7.55369 8.05245 7.9339
15 4 6.08802 6.33141 4.20888
156 2 9.42509 7.13701 3.14568
89 3 6.19132 9.8734 2.02812
233 3 15.9477 13.3172 0.152722
83 3 6.2886 7.81472 3.78475
224 2 10.9429 8.9734 1.71845
249 2 10.8203 9.78688 7.71436
230 2 9.25417 9.053 6.17267
84 3 8.22751 7.85613 1.79142
228 4 8.44293 10.2324 5.22069
229 2 9.66905 11.406 5.35189
222 4 11.597 7.93656 0.554482
158 2 10.2968 7.79017 4.78267
19 4 8.75111 6.19261 5.37026
70 1 9.94929 6.82167 4.106
85 3 8.26877 9.78323 3.75265
255 2 8.49433 10.0357 0.18966
92 3 8.32072 7.77431 6.45768
331 2 17.4211 13.5566 2.51413
282 2 12.144 10.5914 16.9263
350 2 15.3167 9.56459 13.8315
349 2 13.5533 9.01366 14.1734
74 1 14.9829 7.0589 15.2285
280 1 13.3066 10.5015 16.7864
252 1 10.14 10.6505 17.2345
300 2 16.0646 9.69304 11.9384
348 1 14.2033 9.80262 13.7955
162 2 15.9682 6.50835 14.9623
163 2 14.8899 7.1078 16.3635
164 2 14.7196 8.08737 14.7065
166 2 12.2688 9.422 13.3696
167 2 10.4607 9.53452 13.8489
294 2 15.1625 7.00393 13.2881
291 1 17.0927 9.33556 12.1969
256 2 10.5487 10.6453 16.1666
284 2 13.7548 9.42813 16.5377
351 2 13.8709 10.308 12.8511
238 4 12.112 10.2819 9.72527
336 2 17.6556 10.4422 14.8491
241 2 13.3461 9.2096 10.2338
242 3 12.3242 11.8782 10.1924
79 1 11.1765 9.13275 13.0967
159 2 14.6781 4.82462 13.5335
18 4 6.79881 5.44846 9.76255
77 3 7.95374 3.82309 17.0745
21 4 6.86305 4.59556 16.1383
22 4 11.0089 7.25526 13.5392
29 4 8.06082 7.18474 14.8225
75 3 13.1727 5.21632 16.6024
160 2 12.9059 4.63688 12.8286
73 1 13.5764 4.51831 13.8186
20 4 13.3721 5.85601 15.0773
165 2 10.8678 9.32815 11.9614
80 1 8.03551 5.13582 11.1224
81 1 11.1601 6.15417 12.0033
93 3 8.36595 9.1283 8.89852
82 3 12.1835 6.81422 14.6007
254 2 11.1596 7.56101 16.5804
101 3 7.58703 5.87591 15.6033
102 3 9.42626 6.93184 14.0302
250 4 9.12304 8.88098 17.289
103 3 8.51919 8.47632 15.8129
104 3 8.21169 8.99873 11.6317
237 4 8.77168 9.66678 10.3217
240 3 10.638 9.76474 10.3284
173 2 10.1164 5.73247 11.7839
172 2 11.3679 7.04324 11.3237
171 2 11.8874 5.27815 12.1266
170 2 7.47611 5.1128 12.1011
168 2 8.91944 5.85932 11.1547
91 3 7.38103 6.67763 8.87169
299 2 17.5005 9.63443 13.1977
69 3 5.40061 5.68007 10.6028
251 1 10.5832 7.63434 17.5213
204 1 16.5597 5.62807 0.0918395
323 2 16.3727 3.44238 5.65757
182 3 17.2183 1.7073 8.26252
347 2 13.7721 0.845255 1.94569
324 2 15.0989 3.86064 4.2516
184 2 14.7677 3.29042 8.06531
316 1 14.1989 2.20745 8.36147
152 2 12.49 3.07034 6.04764
341 2 13.4912 3.2584 2.15125
319 2 13.3409 1.91876 7.62223
344 1 12.9998 0.73369 1.00469
340 1 12.3085 3.6451 2.27878
138 2 11.8843 -1.2211 8.55271
346 2 12.1578 -0.0591798 1.18739
309 2 15.6069 2.32772 3.64721
308 2 15.326 0.857461 2.37488
307 2 13.8335 1.37697 3.77338
306 3 15.5681 0.595927 6.25611
178 4 20.9957 1.22239 6.63697
372 2 16.786 0.537803 3.86926
305 1 15.0939 1.39015 3.34567
177 4 15.7715 1.3311 7.77218
304 4 15.3367 0.0465345 4.68165
259 4 11.8741 2.18516 1.01175
117 2 21.2774 4.48353 0.362115
213 2 16.857 6.69017 0.292662
322 2 15.1385 4.91711 5.80922
43 2 21.6179 4.96736 2.41944
325 1 18.913 4.95795 5.5527
214 2 15.61 5.30701 0.56698
119 2 22.0677 6.13837 0.582899
211 2 19.5638 2.88422 1.23317
210 2 17.8337 2.62213 0.536843
205 3 17.6659 4.88019 2.83692
203 1 18.8466 3.28456 0.454772
202 2 19.4587 5.09883 0.604832
200 4 17.2318 5.24166 4.52796
199 4 17.7698 4.74639 1.23296
192 2 20.4929 3.48771 5.52652
328 2 19.6756 4.78854 4.72897