ITEM: TIMESTEP
0
ITEM: NUMBER OF ATOMS
373
ITEM: BOX BOUNDS xy xz yz pp pp pp
-1.0794400000000000e+01 2.0438599999999997e+01 -1.0794400000000000e+01
-3.3405999999999998e+00 1.4057499999999999e+01 1.3894000000000000e+00
0.0000000000000000e+00 1.7550000000000001e+01 -3.3405999999999998e+00
ITEM: ATOMS id type x y z
3 4 4.91408 1.18225 2.916
212 2 0.875662 2.63633 0.342338
5 4 6.43537 1.44708 5.55513
7 4 4.21849 4.19124 2.33374
9 4 5.00592 3.1798 7.80992
119 2 2.3972 5.57829 1.17628
33 3 5.98922 0.566659 1.85265
34 2 3.52685 0.299151 2.78526
325 1 -0.636665 4.17186 5.46323
36 3 5.39952 0.916959 4.41574
37 3 7.29547 0.245967 6.15338
41 3 4.54954 2.65002 2.61294
190 2 1.7952 -0.701817 5.00644
43 2 2.75898 4.67159 3.09553
111 2 6.05888 0.910454 8.64701
46 3 5.64575 2.27219 6.63224
326 2 -0.837241 3.20762 6.1269
48 3 3.88799 4.18952 7.31459
284 2 4.62589 0.459965 0.466713
4 4 7.31832 -1.11853 7.02485
328 2 0.198363 4.02944 4.70457
320 2 2.35863 2.63345 5.80905
35 2 6.49832 -0.818299 8.5339
178 4 1.88245 1.12221 6.34521
179 4 -0.251811 1.55586 8.70531
181 1 0.95174 0.29803 4.93477
42 1 2.82506 4.49449 1.07816
183 3 0.848421 1.37441 7.42414
327 2 -0.58 5.12952 6.03952
182 3 -1.83675 1.99531 8.02594
191 2 0.926099 0.952478 3.96222
118 2 3.55843 4.27255 0.130673
199 4 -1.37741 3.95897 1.20954
200 4 -2.20354 4.55706 4.47306
202 2 0.172041 4.61732 0.941384
203 1 0.128909 2.63836 1.1905
205 3 -1.89759 4.27405 2.64652
210 2 -0.8561 1.833 0.944878
211 2 0.616006 2.34948 2.20438
337 2 3.34272 0.458142 7.01234
117 2 1.83985 3.74561 1.12063
192 2 -0.0329846 0.206873 5.44446
331 2 7.54266 -0.674863 4.05201
207 3 -2.74641 6.06237 4.95388
63 3 4.64353 5.89043 5.06168
2 4 4.68379 -1.05384 10.6113
6 4 4.70461 -0.216548 13.7042
339 2 3.89524 0.298508 9.43965
32 1 5.58079 0.518778 9.61881
38 3 4.4145 -0.736366 12.122
39 3 5.70913 -1.25626 14.6903
40 1 3.00516 -0.195182 14.5258
50 3 5.2729 1.31969 13.7609
11 4 6.1244 2.6946 13.5966
285 2 8.571 -0.654512 16.0095
112 2 6.51214 -0.870309 10.2436
113 2 5.83014 1.23311 10.4711
114 2 2.12716 -0.429771 13.668
115 2 2.90971 0.833576 15.0001
116 2 3.14769 -1.11005 15.2447
129 2 2.02619 3.27014 12.1442
280 1 5.27264 -2.9795 17.1555
130 2 2.16002 4.63641 10.7694
286 2 8.6788 -2.35601 16.9145
189 2 0.37841 2.86248 9.55435
186 3 -0.261394 0.366309 9.68276
188 1 0.869547 -0.638098 12.1606
196 2 1.86419 -0.287932 11.8256
197 2 0.934758 -1.70353 12.6498
198 2 0.334293 0.177125 12.8609
315 2 0.029685 -0.612584 15.1159
213 2 -0.877844 1.73712 16.9842
53 3 5.14686 3.8214 12.7688
287 2 7.32056 -1.11388 17.4001
52 1 2.3584 4.35359 11.8665
279 4 6.41508 -2.23907 15.6929
204 1 -1.18937 0.629892 17.2865
281 1 7.99997 -1.51406 16.5183
45 2 4.45522 2.03434 8.98081
283 2 4.38354 -2.27494 17.2526
1 4 -3.76156 13.2858 1.55019
13 4 2.24572 8.97063 2.55255
31 1 -4.90919 11.8985 0.793192
357 2 -0.717001 5.59053 8.46853
55 1 1.95724 7.17409 3.12004
359 2 -1.1173 7.89297 8.32586
57 2 0.599314 8.57562 2.61096
59 1 -0.578359 12.2699 5.93381
60 1 0.0859354 10.068 8.48507
352 1 -4.26498 11.5055 6.20322
10 4 3.97644 5.82587 6.49637
109 2 -5.92288 12.3875 0.910861
110 2 -4.85894 10.9556 1.44829
249 2 -8.35136 10.4436 7.39891
235 2 -0.54754 11.6199 0.965449
365 2 -1.88704 12.5399 7.47021
136 2 2.01976 7.04437 4.19271
145 2 -0.942531 10.0336 7.99429
141 2 -1.46963 11.5633 5.91066
137 2 2.91975 6.78193 2.54437
144 2 0.776058 9.18133 8.41139
353 2 -5.37946 11.1419 6.67409
124 2 2.49971 7.60749 8.25355
201 4 -3.4359 7.47764 5.41185
206 1 -3.04406 8.90559 4.25996
49 1 3.15452 7.52848 7.31564
208 1 -5.35839 7.19967 5.7845
209 2 -3.20664 7.95685 7.0759
216 2 -2.20904 9.33936 5.15757
217 2 -3.92757 9.56235 4.20742
218 2 -2.43955 8.7661 3.34633
219 2 -5.6149 7.99344 4.99851
220 2 -5.5951 7.44799 6.80081
248 2 -6.91981 11.6874 7.14542
233 3 -2.53209 13.61 0.147948
355 2 -4.37073 12.0543 5.1186
243 1 -7.21 10.6185 7.3168
247 2 -6.60684 9.81662 6.81401
332 2 -1.831 12.6948 2.98861
47 2 2.33192 6.38691 6.03897
354 2 -3.46686 10.7106 6.18077
330 2 -3.43604 11.6453 3.16521
297 2 -2.97346 9.42533 8.02723
329 1 -2.93222 12.726 3.15522
296 2 -4.27391 7.93042 8.41362
135 2 0.980269 6.79826 2.67999
257 2 -8.306 10.0661 16.6498
44 1 2.81855 5.47293 15.8922
146 2 0.105953 10.5227 9.53347
74 1 -4.77567 7.24151 15.5297
120 2 2.24402 6.47383 15.7297
360 2 -2.46067 5.64807 9.73016
131 2 1.92417 5.10961 12.6363
348 1 -4.00629 10.2406 14.6382
162 2 -4.24209 7.31466 16.4965
163 2 -5.6418 8.04969 15.374
164 2 -4.0284 7.20236 14.7112
108 2 -3.26357 8.39396 17.3057
12 4 4.12348 4.9035 12.0025
338 2 -0.295666 8.72027 15.596
231 4 0.0973275 10.0343 16.8014
298 2 0.269765 10.02 10.866
349 2 -4.36244 9.1603 15.0066
351 2 -4.3967 10.4574 13.572
238 4 -6.89206 10.247 9.17446
159 2 -4.08077 5.25855 13.798
241 2 -5.57565 9.15555 9.01359
242 3 -6.41002 11.6572 9.8833
121 2 2.37626 4.80976 16.7371
300 2 -0.898911 11.3712 11.7539
303 2 0.582479 8.46292 14.2335
134 2 3.69732 6.17104 14.2139
282 2 -5.85132 9.98554 16.8812
350 2 -2.75696 10.518 14.8933
288 4 -2.39868 7.55953 9.84345
289 4 -1.5028 9.19697 12.5552
291 1 -0.198529 10.4826 11.8816
292 3 -2.03739 8.22004 11.2727
293 1 -0.402981 8.08026 13.7496
294 2 -2.70067 10.2895 13.1691
356 1 -0.99509 6.42393 9.18016
299 2 0.432231 10.3276 12.9414
167 2 -6.14374 7.62415 12.0949
301 2 -0.233689 7.17018 13.146
302 2 -1.39053 7.9668 14.4618
358 2 -0.257012 6.46951 10.0554
174 2 1.58532 8.85222 11.8439
295 2 -4.04894 9.51435 9.63571
122 2 3.10385 4.94007 14.9107
290 1 -3.61102 8.833 8.78805
342 2 12.0427 3.54267 3.47601
153 2 12.2368 5.14853 7.34769
17 4 10.27 3.58438 7.19878
58 1 12.568 -1.13922 7.90532
227 2 11.2641 5.61694 0.371437
64 2 6.10695 6.46989 1.45285
65 1 8.998 2.82189 8.51772
66 1 11.0321 2.26819 5.94938
67 1 11.7592 4.55472 8.13856
61 2 7.55565 2.45519 4.84279
71 3 7.2445 5.41005 4.51887
72 3 9.42152 4.56847 6.35759
138 2 11.8224 -0.337043 7.64939
321 1 15.4552 3.21406 4.85689
147 2 9.0633 1.73139 8.24705
148 2 7.93385 3.26992 8.47212
150 2 10.2202 1.50299 6.22785
151 2 12.0618 1.86222 6.03381
152 2 10.8375 2.72616 4.9445
154 2 12.4141 3.78081 8.57329
139 2 13.5373 -1.07764 7.33484
177 4 16.0965 0.843099 7.85831
343 2 12.4245 4.89304 1.82245
223 1 12.8731 6.49626 1.09716
214 2 15.4511 3.85064 0.269207
322 2 15.7472 3.20499 5.9721
346 2 12.491 0.501481 1.85592
259 4 13 2.51396 0.993105
262 2 11.0557 3.19875 1.84115
304 4 15.2537 -0.594407 4.97613
305 1 16.0145 0.464062 3.3171
306 3 15.6825 0.210379 6.41682
307 2 14.4505 0.893108 4.06206
308 2 15.9138 0.389546 2.16442
309 2 16.8518 1.09065 3.61897
317 2 13.7665 1.20117 8.13128
323 2 15.642 2.1467 4.25745
324 2 14.423 3.64888 4.70117
344 1 13.5121 0.775415 1.36503
340 1 12.0948 3.5619 2.33478
341 2 13.9337 3.65999 2.03909
62 3 5.28133 5.32644 2.42056
347 2 14.4646 0.674416 2.09582
370 3 8.73073 6.24778 0.342719
143 2 10.1107 -0.713562 6.24373
68 3 6.22328 3.98214 8.49678
226 2 13.7534 6.49014 0.349397
345 2 13.6485 0.23984 0.404515
19 4 8.43479 5.91125 5.45404
15 4 5.81943 6.09134 4.02028
156 2 10.6812 6.14152 4.61576
258 2 19.0152 -0.0791712 0.495942
225 2 10.2815 3.16904 16.8906
51 1 7.58967 2.20279 12.4411
184 2 14.8705 2.21904 9.35051
310 4 17.1631 -2.23736 14.1891
76 3 6.79789 3.23082 14.9093
126 2 7.18117 2.2632 11.335
312 1 18.7529 -1.65471 15.2592
128 2 8.3296 3.03271 12.6832
180 4 18.4361 -0.515419 10.924
316 1 14.6144 1.17538 8.97976
336 2 11.6275 -1.47761 16.6809
169 2 7.47599 3.9885 11.4858
187 1 16.7357 0.247211 11.6461
193 2 16.2305 0.900101 10.9649
127 2 8.01126 1.17759 12.7213
195 2 16.2683 -0.865821 11.5585
335 2 12.6686 -2.73179 15.7893
260 4 13.9128 0.161487 15.4828
261 4 13.0766 -1.76469 12.8535
263 3 14.1433 -0.440574 17.0084
264 1 15.4907 1.1383 15.1173
265 1 12.4542 1.44246 15.4981
266 3 13.5702 -0.923427 14.1264
267 2 11.3017 -1.93158 12.6388
269 1 13.6752 -0.715527 11.4794
270 2 15.75 0.691203 14.043
271 2 16.3554 1.0073 15.9136
272 2 14.9623 2.20531 15.1144
273 2 11.8769 1.50673 14.549
274 2 12.9921 2.45299 15.7127
275 2 11.832 1.1888 16.4017
276 2 14.3337 -1.43357 10.9284
277 2 14.1326 0.200279 12.0457
278 2 12.5964 -0.558264 10.9533
318 2 14.2482 0.470513 9.90028
311 2 16.8798 -0.735844 13.3256
140 2 12.7517 -1.35691 9.02658
319 2 15.8002 -0.306538 9.26719
333 1 11.6485 -2.46187 16.0823
194 2 16.6456 0.676086 12.6515
171 2 10.236 3.95427 13.1781
161 2 14.2223 3.50749 13.9648
81 1 10.2634 4.55227 12.2776
334 2 10.8581 -2.39355 15.2228
149 2 9.5349 3.06643 9.45953
173 2 9.18313 4.70594 11.7147
369 2 16.4323 -2.37236 16.4097
314 2 18.7683 -1.86468 16.3585
313 2 19.3922 -2.40331 14.7123
172 2 11.068 4.2742 11.5999
155 2 11.2402 5.17745 8.94964
368 2 15.0635 -2.61137 15.0046
215 2 18.0272 -0.164453 16.4909
256 2 19.7869 -3.09815 16.2977
14 4 0.807542 11.428 7.16532
23 4 6.8501 9.06305 3.03996
24 4 3.21636 10.6809 5.21182
25 4 5.43315 11.3059 1.65271
26 4 7.2704 7.77399 7.95998
28 4 5.79956 10.3647 6.92449
246 2 8.65705 10.6493 7.71269
70 1 9.71652 6.69616 4.35862
83 3 6.16237 7.69406 3.68157
84 3 7.81191 8.59226 1.46763
85 3 7.75837 9.87872 4.08424
86 3 2.77155 9.82033 3.79845
87 3 3.47299 12.2283 4.69249
88 3 1.86201 10.6648 6.2364
89 3 5.73086 9.97624 2.47022
90 2 5.47051 12.7194 2.6324
92 3 7.95448 6.93696 6.56808
56 3 2.58693 9.21597 1.06594
97 3 6.88584 11.2737 6.17216
98 3 4.49509 10.137 5.87267
99 3 6.42029 9.04806 7.41978
100 2 5.29781 11.0782 8.31413
229 2 8.43136 12.6075 4.37977
91 3 6.38144 6.76152 8.75605
123 2 4.41151 7.11595 7.75134
371 3 6.33118 11.5739 0.380673
158 2 9.43805 6.60776 3.25972
373 2 3.75656 11.2576 1.21054
254 2 8.36653 9.70654 0.19818
228 4 8.03366 11.0632 5.09762
224 2 12.7633 7.69209 2.1268
230 2 9.57014 10.6602 5.69932
157 2 9.76657 7.76739 4.717
364 2 2.65411 12.1518 0.137573
255 2 9.61303 11.1233 0.062586
125 2 3.20371 8.51901 6.73549
222 4 11.6079 7.32555 0.449489
232 1 0.0636322 12.3459 0.325507
142 2 -0.137675 12.3102 4.88694
16 4 7.28413 7.41612 0.625767
96 2 4.12446 8.55961 8.72354
236 2 0.307471 13.3677 0.844465
221 2 13.497 6.11314 5.52587
372 2 6.07557 13.1168 4.21758
18 4 6.05927 5.37473 9.55206
20 4 13.1482 5.58043 15.2148
21 4 7.00669 4.80893 15.5861
22 4 10.8387 6.29622 12.9775
27 4 4.14692 9.06803 10.3716
29 4 8.06473 7.30336 13.9583
30 4 6.88572 9.3313 12.0815
168 2 8.38323 5.2831 10.3292
75 3 13.1161 4.71102 16.5388
77 3 8.02328 4.56235 16.8026
78 3 5.6328 5.419 16.2646
79 1 11.9034 7.18145 11.6793
73 1 13.9822 4.57553 13.8055
170 2 7.08812 5.91324 11.6313
82 3 11.7589 6.09095 14.6247
8 4 4.2985 6.12108 16.8849
94 2 2.8113 10.3575 10.6273
95 1 2.70058 8.89537 11.7001
363 2 5.5743 8.54756 16.571
101 3 7.62161 5.83409 14.5181
102 3 9.48619 7.08808 13.1667
103 3 8.22561 8.27264 15.358
104 3 8.17467 9.47351 11.1247
105 3 5.45001 9.41435 11.1503
106 3 6.98143 7.93186 12.905
107 3 6.82104 10.6719 13.1154
133 2 5.28879 6.81808 13.2562
268 2 2.82711 10.5768 12.6263
132 2 3.58383 7.38378 12.6795
93 3 8.62445 8.16549 8.82784
165 2 11.3148 7.97238 11.1112
361 1 4.55721 8.15135 16.8768
176 2 3.25735 7.45569 10.9609
252 1 9.65391 10.2325 16.9689
80 1 7.40104 5.04288 10.8767
185 2 7.74537 11.8196 10.4892
367 2 5.2871 9.8672 15.8069
175 2 3.31579 9.2411 12.6174
237 4 9.03504 9.4265 9.78877
239 1 8.55594 11.0227 8.79722
245 2 7.48474 11.3376 8.96953
250 4 8.85277 8.45354 16.7338
362 2 3.89416 8.16129 15.927
251 1 10.2205 7.18852 17.0408
240 3 10.8992 9.53774 9.72825
54 1 4.19905 6.5402 13.1863
253 2 10.7061 6.75725 16.0799
366 1 5.25467 11.0204 15.5208
166 2 12.0452 6.22163 10.9994
244 2 9.38283 11.7606 9.07803
234 2 2.35193 8.5027 17.4586
160 2 13.3033 4.66384 12.889
69 3 4.69815 5.3797 10.4446
ITEM: TIMESTEP
100
ITEM: NUMBER OF ATOMS
373
ITEM: BOX BOUNDS xy xz yz pp pp pp
-1.0799797200000000e+01 2.0448819299999997e+01 -1.0799797200000000e+01
-3.3405999999999998e+00 1.4057499999999999e+01 1.3900946999999999e+00
0.0000000000000000e+00 1.7550000000000001e+01 -3.3405999999999998e+00
ITEM: ATOMS id type x y z
3 4 4.88089 1.1159 2.88918
287 2 5.9935 2.05617 0.0196199
5 4 6.51878 1.57663 5.40556
7 4 4.20513 4.22803 2.34297
9 4 5.20058 3.25598 7.70421
119 2 2.5326 5.74074 1.2736
33 3 5.79604 0.334758 1.80616
34 2 3.37475 0.289536 2.8929
325 1 -0.54835 4.2129 5.3512
36 3 5.56249 0.935756 4.2852
37 3 7.21916 0.321352 6.14679
41 3 4.57066 2.69073 2.57528
190 2 1.96344 -0.790455 5.27673
43 2 2.67606 4.66279 3.07551
111 2 5.71471 0.624025 8.44021
46 3 5.73321 2.35184 6.53439
326 2 -0.457011 3.14227 5.63763
48 3 4.06234 4.32195 7.33617
284 2 4.34951 0.481818 0.517267
4 4 7.37944 -1.05286 6.97977
328 2 0.181641 4.55258 4.51948
320 2 2.20196 2.84369 5.41366
35 2 6.5594 -0.904851 8.52973
178 4 1.89746 1.39634 6.25859
179 4 -0.203005 1.6918 8.70285
181 1 1.20655 0.125152 5.07224
42 1 2.78123 4.61319 1.14285
183 3 0.945141 1.50024 7.47348
327 2 -0.551271 4.95351 6.29281
182 3 -1.7163 1.66402 7.98703
191 2 1.38356 0.68348 4.09442
118 2 3.51543 4.52606 0.192488
199 4 -1.45221 3.9919 1.27571
200 4 -2.19518 4.51332 4.45565
202 2 0.064583 4.771 0.840955
203 1 0.0910412 2.82654 0.973278
205 3 -1.91215 4.27936 2.90434
210 2 -0.763196 1.87556 1.27184
211 2 0.839915 2.83016 1.77733
337 2 3.43441 0.984397 6.75142
117 2 1.78693 3.89157 1.08329
192 2 0.111655 -0.0273509 5.42499
331 2 7.50805 -0.525862 4.04169
10 4 3.94353 5.74669 6.44986
135 2 1.65124 6.52037 2.53324
212 2 0.596676 2.56544 6.40362e-05
357 2 -0.902425 5.43351 8.31051
226 2 -5.28258 6.8611 0.647322
45 2 4.59112 2.07791 8.75042
2 4 4.71385 -0.968855 10.5984
6 4 4.80079 -0.28342 13.8349
339 2 3.8809 0.456839 9.71096
32 1 5.59497 0.502507 9.51846
38 3 4.60054 -0.743816 12.2002
39 3 5.90228 -1.29326 14.7884
40 1 3.12582 -0.299917 14.6497
50 3 5.21398 1.32279 13.7628
11 4 5.97568 2.77004 13.4917
285 2 8.64922 -0.762459 16.228
112 2 6.54315 -0.827594 10.3232
113 2 6.0519 1.29878 10.1212
114 2 2.22044 -0.474001 13.8699
115 2 3.17766 0.72327 15.1458
116 2 3.32705 -1.15719 15.355
129 2 2.37953 3.04696 12.5325
280 1 5.11554 -2.84711 17.1121
130 2 2.11516 3.66018 10.9027
286 2 8.813 -2.49238 17.1091
189 2 -0.0253746 3.17967 9.43157
186 3 -0.333709 0.565668 9.88342
188 1 0.778424 -0.608416 12.4829
196 2 1.75125 -0.327304 11.9677
197 2 0.655252 -1.64264 12.7813
198 2 0.392795 0.0987257 13.2239
315 2 -0.138617 -0.385238 14.9172
213 2 -1.24059 1.50449 17.0952
53 3 5.02581 3.75675 12.5794
127 2 7.65381 1.10868 12.2998
52 1 2.44638 3.93139 11.9023
279 4 6.52677 -2.32816 15.7616
204 1 -1.31905 0.389334 17.4478
281 1 8.11491 -1.61871 16.7102
313 2 0.974975 -1.8679 14.7952
283 2 4.43728 -1.98744 17.096
1 4 -3.80188 13.2356 1.57613
13 4 2.20344 8.94965 2.62953
31 1 -4.74191 11.6652 0.793136
49 1 3.19619 7.35088 7.47157
55 1 2.19354 7.14368 3.26531
359 2 -1.2149 7.41876 8.28695
57 2 0.652728 8.40289 3.00738
59 1 -0.4158 12.2118 5.85289
60 1 0.0535223 10.2555 8.49439
352 1 -4.22094 11.6715 6.06594
365 2 -1.74491 12.5637 7.263
109 2 -5.82068 12.025 1.02853
110 2 -4.45585 10.707 1.30315
249 2 -7.9247 9.85671 7.00878
235 2 -0.426838 11.4305 0.443646
329 1 -2.94191 12.9212 3.19819
136 2 1.91629 6.96577 4.32204
145 2 -0.949564 10.3722 8.06361
141 2 -1.29646 11.5009 5.99432
137 2 3.3879 7.0406 3.03515
144 2 0.409889 9.19251 8.38264
353 2 -5.25834 11.1971 6.60942
124 2 2.65682 7.09202 8.4133
201 4 -3.50788 7.4409 5.528
206 1 -3.00285 8.73205 4.17004
207 3 -2.92587 6.08657 5.02369
208 1 -5.34923 7.20354 5.83589
209 2 -2.97113 8.15102 7.08504
216 2 -2.30099 9.42415 4.81056
217 2 -3.89881 9.26318 3.79413
218 2 -2.49175 8.23803 3.26063
219 2 -5.65646 7.76862 4.81935
220 2 -5.817 7.67848 6.79832
248 2 -6.95205 11.4808 7.20882
233 3 -2.40204 13.5788 0.230114
355 2 -4.58549 12.2877 5.11029
243 1 -6.99908 10.3572 7.30895
247 2 -6.01968 9.71408 7.16265
332 2 -1.83094 13.1021 2.90134
47 2 2.20951 6.22378 6.36958
354 2 -3.3027 10.9445 5.94534
330 2 -3.185 11.786 3.28435
297 2 -4.0558 9.28518 7.74526
290 1 -3.81504 8.8017 8.71549
257 2 -8.34448 10.2454 16.7332
44 1 2.51896 5.67554 16.0166
146 2 0.1456 10.7185 9.58343
74 1 -4.83802 7.20039 15.6914
120 2 2.4706 6.84185 15.5769
360 2 -2.59939 5.70584 10.0076
131 2 1.83468 4.87757 12.3198
348 1 -3.81117 10.0934 14.7671
162 2 -4.3764 7.32481 16.7663
163 2 -5.56683 7.98986 15.5588
164 2 -4.08594 7.18817 14.8307
108 2 -3.14672 8.27437 17.2015
12 4 4.06867 4.92568 11.979
338 2 -0.393114 8.8532 15.4928
231 4 0.174894 9.88601 16.8503
298 2 0.268525 10.3512 10.9253
349 2 -4.10033 9.06025 15.1077
351 2 -4.28688 10.3238 13.7728
238 4 -6.83058 10.2522 9.24256
159 2 -3.97364 5.01647 13.7847
241 2 -5.48122 9.28408 9.70477
242 3 -6.46416 11.7584 9.7689
121 2 1.60668 5.4531 16.7036
300 2 -0.773889 11.3875 12.1278
303 2 0.34878 8.26479 14.2233
134 2 3.41813 6.07966 14.2507
282 2 -6.16691 10.245 16.8621
350 2 -2.57536 10.4945 15.0305
288 4 -2.48937 7.52324 9.82598
289 4 -1.44414 9.17683 12.477
291 1 -0.118812 10.4589 11.9803
292 3 -1.95836 8.36662 11.1478
293 1 -0.548483 7.91033 13.7672
294 2 -2.59632 10.2374 13.2448
356 1 -1.1752 6.25812 9.02931
299 2 0.577272 10.2432 12.8529
167 2 -5.9172 7.28889 12.24
301 2 -0.378966 6.84021 13.3652
302 2 -1.57848 8.02173 14.4201
358 2 -0.364767 6.30507 9.7927
174 2 1.64246 8.85316 11.8872
295 2 -3.50553 9.58456 9.56699
122 2 2.63913 4.86083 15.2389
296 2 -4.5555 7.92506 9.0712
69 3 4.6624 5.39389 10.4026
342 2 12.6428 3.67858 3.55326
153 2 12.2152 4.89505 7.51424
17 4 10.191 3.5089 7.20448
58 1 12.5459 -1.2075 8.16457
227 2 11.8059 5.54035 0.475474
64 2 6.24321 6.28712 1.29946
65 1 9.03333 2.58576 8.48439
66 1 11.0841 2.10457 6.1152
67 1 11.6562 4.31111 8.27625
61 2 7.67657 2.5813 4.66133
71 3 7.14065 5.11198 4.44322
72 3 9.4097 4.59246 6.35301
138 2 11.6484 -0.500727 8.11447
321 1 15.6078 3.08745 5.00428
147 2 8.93541 1.59075 8.01177
148 2 7.98382 3.14774 8.47082
150 2 10.6931 1.07489 6.41125
151 2 12.1805 2.27477 6.42882
152 2 10.8472 2.42886 5.05788
154 2 12.2601 3.46183 8.69544
139 2 13.4313 -0.778741 7.57271
177 4 16.0518 0.756795 7.81269
343 2 12.4896 4.96598 2.0314
223 1 12.786 6.74763 1.2151
214 2 15.3505 3.52004 0.274718
322 2 15.5581 2.92367 6.1313
346 2 12.4922 0.470305 1.75229
259 4 12.8822 2.55324 0.993483
262 2 11.2015 3.28168 2.27742
304 4 15.1759 -0.472158 5.06732
305 1 15.9436 0.37689 3.29421
306 3 15.5921 0.153945 6.40423
307 2 14.3994 0.837258 3.93593
308 2 15.9133 0.276003 2.2079
309 2 16.7638 1.18612 3.39625
317 2 13.9341 1.64858 7.86612
323 2 15.7167 2.05594 4.36897
324 2 14.6809 3.63809 4.62764
344 1 13.5179 0.837864 1.28675
340 1 12.3294 3.80495 2.51679
341 2 14.1228 3.53604 1.79261
62 3 5.24115 5.46279 2.39234
347 2 14.434 0.661587 2.01929
370 3 8.69841 6.121 0.0140447
143 2 10.1164 -0.805719 6.25471
68 3 6.40837 3.85018 8.50045
63 3 4.67515 5.90849 5.03088
345 2 13.6954 0.381636 0.244333
19 4 8.49502 5.77267 5.59667
15 4 5.94197 6.09067 4.05598
225 2 10.3366 3.31187 16.6618
51 1 7.39629 2.23966 12.2633
184 2 15.0691 2.48521 9.18939
310 4 17.4076 -2.2955 14.3065
76 3 6.67488 3.48874 14.7236
256 2 19.8416 -2.98147 16.3401
312 1 19.056 -1.51563 15.1832
128 2 8.18713 2.9414 12.7498
180 4 18.4122 -0.523839 11.0557
316 1 14.5934 1.55436 8.85001
336 2 11.3436 -1.6699 16.7839
169 2 7.44776 4.09325 11.4525
187 1 16.6613 -0.0264514 11.7686
193 2 16.5142 0.767829 10.8488
366 1 16.0208 -2.7574 15.4334
195 2 16.2467 -1.09387 11.4255
335 2 12.9637 -2.56842 16.4054
260 4 13.8751 0.202745 15.4453
261 4 13.3003 -1.56731 12.7202
263 3 13.8989 -0.354263 17.0701
264 1 15.6006 0.913048 15.0836
265 1 12.5475 1.59983 15.4081
266 3 13.5928 -0.97202 14.1246
267 2 11.5735 -1.91122 12.4835
269 1 13.6419 -0.411193 11.3104
270 2 16.1499 0.543168 14.1605
271 2 16.3247 0.847146 16.0527
272 2 15.0907 2.02251 14.8713
273 2 12.1254 1.69685 14.3971
274 2 13.2033 2.48424 15.7343
275 2 11.7336 1.31458 16.1936
276 2 14.2574 -1.24509 10.6812
277 2 14.2676 0.413149 11.8865
278 2 12.5693 -0.164398 11.0214
318 2 14.1245 0.976116 9.71223
311 2 17.3653 -0.73057 13.4594
140 2 12.7609 -1.50356 9.18727
319 2 15.405 -0.167038 9.24899
333 1 11.7801 -2.53646 16.2968
194 2 16.2115 0.320432 12.7201
171 2 10.3143 3.8603 13.0302
161 2 14.1004 3.41118 14.1334
81 1 10.3097 4.63201 12.1701
334 2 11.4856 -2.71461 15.1743
149 2 9.50074 2.56229 9.49693
215 2 18.1986 -0.373865 16.5971
369 2 16.449 -2.25024 16.4645
314 2 18.8989 -1.77849 16.2974
126 2 7.0354 2.54459 11.252
172 2 11.0936 4.37672 11.3754
155 2 11.173 4.95461 9.05529
368 2 15.051 -2.32919 15.0603
14 4 0.973501 11.3865 7.15013
23 4 6.79898 9.00251 2.96197
24 4 3.14096 10.6988 5.13582
25 4 5.36903 11.2379 1.57321
26 4 7.35525 7.70112 7.98845
28 4 5.65111 10.2693 6.82571
246 2 8.80776 10.7103 7.67187
70 1 9.72216 6.6881 4.51215
83 3 6.35713 7.57679 3.69259
84 3 7.74838 8.39228 1.65217
85 3 7.71521 9.9786 3.90753
86 3 2.66614 9.98653 3.70339
87 3 3.43763 12.3314 4.94185
88 3 1.97106 10.5422 6.30952
89 3 5.52451 9.95318 2.40589
90 2 5.09699 12.5249 2.63749
92 3 7.93602 6.89506 6.60742
56 3 2.45269 9.20061 1.05543
97 3 6.79228 11.1949 6.11613
98 3 4.39837 9.96463 5.78136
99 3 6.30232 9.05396 7.48195
100 2 5.05014 11.3062 8.0462
229 2 8.61971 12.4036 4.6573
239 1 8.40813 11.057 8.74939
123 2 4.61142 7.12634 7.7622
371 3 6.38175 11.634 0.451046
221 2 13.5915 6.06974 5.71603
373 2 3.79486 11.3396 0.995251
258 2 8.14684 13.9227 0.533261
228 4 7.99298 10.8789 5.12094
224 2 12.323 8.02407 2.1576
230 2 9.30863 10.4643 6.04015
157 2 9.5253 7.80913 4.65915
156 2 10.7839 6.37684 4.81058
372 2 5.93891 13.0804 4.17152
125 2 2.95769 8.33937 7.09642
222 4 11.4787 7.34189 0.473725
232 1 0.159683 12.399 0.353901
142 2 0.00266169 12.1684 4.77716
16 4 7.35902 7.28068 0.536913
96 2 4.12405 8.66224 8.6073
236 2 0.235647 12.874 1.32734
255 2 9.5217 11.1071 0.0722747
254 2 8.27334 9.71323 0.015504
158 2 9.48259 6.37672 3.45804
18 4 6.09344 5.4043 9.64367
20 4 13.1882 5.61368 15.1569
21 4 6.86696 4.85236 15.5602
22 4 10.8338 6.36644 12.9306
27 4 4.1749 9.01819 10.3317
29 4 8.02325 7.44344 13.9004
30 4 6.97519 9.39558 12.016
168 2 8.38739 5.53047 10.3808
75 3 13.005 4.83268 16.6321
77 3 8.05455 4.53059 16.7954
78 3 5.43589 5.41431 16.2341
79 1 12.1248 7.20431 11.8232
73 1 14.0492 4.50544 13.8084
170 2 7.26054 6.05584 11.7582
82 3 11.7658 6.04428 14.5325
8 4 4.15373 6.0595 16.8902
94 2 2.93894 10.4112 10.6192
95 1 2.74415 9.01694 11.7036
363 2 5.63895 8.04121 16.51
101 3 7.54068 5.94307 14.4904
102 3 9.52298 7.24801 13.0611
103 3 8.14399 8.44056 15.1819
104 3 8.38036 9.73466 11.1996
105 3 5.5728 9.29516 11.0065
106 3 6.97777 7.92987 12.7741
107 3 6.7632 10.5613 13.2325
133 2 5.05826 6.45451 13.4119
268 2 2.97173 10.8152 12.4301
132 2 3.54539 7.40904 12.6802
93 3 8.56848 8.23805 8.83654
165 2 11.647 8.20075 11.5833
361 1 4.49041 8.04515 16.6636
176 2 3.23845 7.52202 10.8336
252 1 9.65542 10.3097 17.0151
80 1 7.46591 5.2908 10.9684
185 2 7.61037 11.9427 10.2848
367 2 5.04812 10.1752 15.5475
175 2 3.32504 9.16649 12.672
237 4 9.08338 9.51829 9.77779
91 3 6.45767 6.70635 8.80287
245 2 7.31181 11.089 8.81819
250 4 8.80895 8.51091 16.7705
362 2 3.85923 8.0068 15.6761
251 1 10.1948 7.2148 16.9971
240 3 10.735 9.61679 9.73429
54 1 3.97443 6.3904 13.2295
253 2 10.7 6.80577 16.0671
173 2 9.24618 4.82562 11.6962
166 2 12.0822 6.41214 10.9833
244 2 8.91211 11.9668 9.13657
234 2 2.66353 8.79462 17.4045
364 2 4.163 8.83497 17.4137
160 2 13.5019 4.72045 12.8394
ITEM: TIMESTEP
200
ITEM: NUMBER OF ATOMS
373
ITEM: BOX BOUNDS xy xz yz pp pp pp
0.0000000000000000e+00 2.8722093400000002e+01 8.2630548000000008e+00
-3.3405999999999998e+00 1.4057499999999999e+01 1.3907894000000001e+00
0.0000000000000000e+00 1.7550000000000001e+01 -3.3405999999999998e+00
ITEM: ATOMS id type x y z
3 4 4.86545 1.20011 2.8854
152 2 10.4151 2.07664 5.11967
5 4 6.56823 1.66577 5.33835
7 4 4.26575 4.20799 2.24301
9 4 5.27847 3.27108 7.67951
343 2 12.638 5.06093 2.08821
33 3 5.72255 0.316324 1.95073
34 2 3.28707 0.480552 3.00137
331 2 7.78939 -0.491446 3.89666
36 3 5.37961 1.18715 4.41873
37 3 7.30694 0.395474 6.02339
41 3 4.59993 2.67742 2.50436
190 2 2.37281 -0.790461 5.43213
337 2 3.36323 0.741851 6.76839
111 2 5.72351 0.521707 8.21022
46 3 6.04677 2.59129 6.48075
118 2 3.55853 4.57009 0.0824698
48 3 4.20323 4.23322 7.17354
284 2 4.17597 0.0638821 0.436103
4 4 7.47125 -0.948045 6.91406
191 2 1.1664 0.403183 4.35293
181 1 1.33099 -0.170551 5.35743
35 2 6.73696 -0.767609 8.50888
153 2 12.1885 4.86709 7.67608
15 4 5.95198 6.15089 4.03429
19 4 8.43817 5.78199 5.66183
17 4 10.2063 3.29955 7.26854
150 2 11.3376 1.07807 6.35197
143 2 10.1811 -0.834476 5.89973
45 2 4.52634 1.95013 8.48145
262 2 11.4145 3.50627 2.77495
227 2 11.9161 5.52995 0.570975
62 3 5.46193 5.30214 2.34485
64 2 6.31197 6.0921 1.20716
65 1 9.02821 2.30169 8.47676
66 1 11.0695 2.10283 6.01527
67 1 11.5664 4.28709 8.46707
61 2 7.77558 2.54944 4.51254
71 3 7.24539 5.33316 4.60868
72 3 9.36117 4.41859 6.47545
147 2 8.84432 1.45215 7.71698
148 2 8.04722 2.81545 8.69169
151 2 12.017 2.84431 5.9515
2 4 4.81381 -0.904072 10.6169
6 4 4.88054 -0.290634 13.8698
339 2 3.80513 0.497484 9.72212
32 1 5.56354 0.506959 9.36277
38 3 4.66502 -0.60324 12.1437
39 3 5.81324 -1.29025 14.7868
40 1 3.19236 -0.401282 14.6068
50 3 5.3399 1.32112 13.9906
11 4 6.00885 2.8629 13.4991
285 2 8.73996 -0.95502 15.9615
112 2 6.61365 -0.698207 10.2952
113 2 6.1575 1.3124 9.94023
283 2 4.54216 -1.79227 17.3187
281 1 8.16412 -1.63101 16.5828
116 2 3.26247 -1.38861 15.2284
279 4 6.49335 -2.34873 15.8429
280 1 5.03865 -2.78408 17.1053
127 2 7.39222 1.2677 12.3623
286 2 8.79619 -2.55118 17.0439
53 3 4.88122 3.81327 12.7475
225 2 10.0392 2.97863 16.4435
51 1 7.28065 2.36191 12.0957
155 2 11.0029 4.9506 9.13281
172 2 11.1958 4.66043 11.4149
126 2 6.9835 2.58079 11.0319
76 3 6.6988 3.61625 14.6632
128 2 8.12786 2.98207 12.5517
336 2 11.2293 -1.63204 16.6447
149 2 9.58501 1.93172 9.39633
169 2 7.4478 4.24021 11.3884
68 3 6.3372 3.95138 8.88299
161 2 14.1026 3.49341 14.2896
171 2 10.2971 3.82698 12.9074
265 1 12.499 1.53105 15.2632
273 2 12.0625 1.62774 14.2072
274 2 13.2024 2.38384 15.4545
275 2 11.7376 1.43409 16.0414
154 2 12.1482 3.46322 9.01065
370 3 10.1047 2.86461 17.4871
287 2 7.55965 -1.09579 17.4141
1 4 15.2219 13.0478 1.47675
290 1 14.7973 8.26424 8.75664
31 1 14.5207 11.3319 0.884769
297 2 14.2005 7.93008 7.89272
330 2 15.8588 11.7378 3.26501
354 2 15.6651 11.1632 5.7539
332 2 17.2928 12.9379 2.59592
247 2 13.2604 9.83437 7.2966
243 1 12.2172 10.2563 7.47109
352 1 14.6697 11.9046 6.00549
226 2 13.5997 7.27211 0.723945
109 2 13.4281 11.7581 0.904882
110 2 14.6834 10.5837 1.64995
249 2 11.3864 9.5432 7.12042
355 2 14.3114 12.444 5.0288
329 1 16.2191 12.8537 3.03277
233 3 16.6227 13.5422 0.164747
248 2 12.0713 11.3632 7.25798
220 2 13.3055 7.6573 6.74671
219 2 13.4522 7.95728 4.81734
217 2 14.7743 8.95344 3.99857
353 2 13.8058 11.4106 6.54363
208 1 13.6794 7.25531 5.74882
23 4 6.85768 8.90337 2.76894
158 2 9.2491 6.64154 3.47692
254 2 8.78403 9.79142 0.227405
221 2 13.3528 6.17244 5.63791
26 4 7.36464 7.70153 7.92992
246 2 8.55772 10.7881 7.7535
16 4 7.25487 7.24492 0.319443
70 1 9.68812 6.6866 4.54523
83 3 6.31603 7.64071 3.69606
222 4 11.2866 7.28777 0.547098
84 3 7.87902 8.34387 1.40851
85 3 7.76494 10.0331 3.64493
156 2 10.7161 6.15995 4.6324
157 2 9.67038 7.72791 5.03493
230 2 9.13698 10.0241 6.01363
224 2 12.0707 7.98983 2.07385
228 4 7.99688 10.7115 5.00811
92 3 7.97194 6.91145 6.68763
229 2 9.00469 12.0711 4.776
365 2 17.4316 12.7739 7.21329
223 1 12.6917 6.91241 1.34112
63 3 4.79556 6.08542 5.09756
257 2 10.5891 10.0075 16.7552
296 2 14.4399 7.59233 10.025
295 2 14.9117 9.34375 8.83986
74 1 14.1831 7.24769 15.8014
167 2 13.2655 7.51953 12.2086
294 2 16.5979 9.95239 13.4184
350 2 16.371 10.348 15.1065
348 1 15.198 10.1414 14.8091
162 2 14.793 7.42485 16.8323
163 2 13.4083 8.01145 15.6228
164 2 14.9036 7.09753 14.9483
108 2 16.2098 7.66479 17.4015
282 2 12.6532 10.5738 16.5879
300 2 18.4446 11.2382 12.3587
242 3 12.651 11.7502 9.97364
241 2 13.3642 9.08828 9.75202
349 2 14.7787 9.07537 15.1755
351 2 14.9423 10.3854 13.7653
238 4 12.1911 10.3313 9.38717
104 3 8.3507 9.6847 11.132
18 4 6.17692 5.38891 9.59433
160 2 13.5704 4.74013 13.0691
20 4 13.1414 5.62013 15.3546
21 4 6.79724 4.92866 15.5746
244 2 9.24789 12.0858 9.04633
166 2 11.9814 6.75472 10.9292
103 3 8.38779 8.53395 15.1495
253 2 10.3493 6.58937 15.904
22 4 10.9935 6.42029 13.0028
240 3 10.7227 9.73405 9.80406
251 1 10.347 7.11919 16.9179
29 4 8.0251 7.43348 13.9776
250 4 8.87146 8.44128 16.7687
168 2 8.49387 5.59379 10.3077
173 2 9.34137 4.93258 11.7028
237 4 9.05614 9.58565 9.74814
75 3 12.9563 4.71944 16.7008
77 3 7.67444 4.47526 16.814
79 1 12.177 7.41978 11.8547
80 1 7.53525 5.39815 10.939
252 1 9.48994 10.2831 17.0423
73 1 14.113 4.57494 14.0285
170 2 7.39255 6.18153 11.7083
165 2 11.5958 8.4088 11.7827
93 3 8.50657 8.30502 8.91335
82 3 11.919 6.05775 14.4071
101 3 7.3997 6.07541 14.6894
102 3 9.63404 7.08683 13.3948
239 1 8.53474 11.2509 8.8087
255 2 11.1975 7.7691 17.0303
159 2 15.1235 5.04896 14.1281
81 1 10.3538 4.74116 12.1922
91 3 6.32573 6.71282 8.77891
342 2 13.2001 3.94655 3.52995
345 2 13.4441 0.343674 0.333752
347 2 14.3472 0.658309 2.06862
58 1 12.6515 -1.31389 8.27515
341 2 14.2079 2.94202 2.02811
340 1 12.6585 3.90733 2.54191
344 1 13.3203 0.834862 1.30992
324 2 14.743 3.44494 5.00497
323 2 15.7548 1.90495 4.33336
317 2 13.7758 1.67347 8.15167
309 2 16.4603 1.20883 3.25466
308 2 15.8585 -0.0693089 2.13573
138 2 11.8828 -0.389132 8.31196
321 1 15.7758 2.92491 5.05691
307 2 14.3291 0.773534 3.94196
306 3 15.5466 0.200973 6.47313
305 1 15.9074 0.277288 3.21466
212 2 19.9144 2.84203 0.100597
304 4 15.1558 -0.530204 5.01267
259 4 12.6841 2.5486 1.18532
139 2 13.6786 -1.04149 7.76282
177 4 15.976 0.828835 7.8557
346 2 12.3342 0.427723 1.89237
322 2 16.1163 2.68215 6.14463
214 2 15.3724 2.71544 0.562791
119 2 21.6103 5.79557 1.20779
325 1 18.4964 4.24939 5.39599
207 3 16.1117 5.95038 5.05982
204 1 16.1844 3.38358 0.169546
179 4 18.8348 1.74657 8.62864
135 2 21.2078 6.26415 2.41075
43 2 21.7583 4.66209 2.92881
192 2 19.4627 -0.571442 5.85787
117 2 20.9261 3.96535 0.909251
326 2 18.475 3.3097 6.11353
211 2 19.6612 2.67906 2.03637
210 2 18.3155 1.96676 0.80116
205 3 17.2215 4.26889 2.79996
203 1 19.1807 2.87302 0.98565
202 2 19.1277 4.7794 0.76955
200 4 16.827 4.50664 4.57777