ITEM: TIMESTEP
0
ITEM: NUMBER OF ATOMS
373
ITEM: BOX BOUNDS xy xz yz pp pp pp
-1.0794400000000000e+01 2.0438599999999997e+01 -1.0794400000000000e+01
-3.3405999999999998e+00 1.4057499999999999e+01 1.3894000000000000e+00
0.0000000000000000e+00 1.7550000000000001e+01 -3.3405999999999998e+00
ITEM: ATOMS id type x y z
3 4 4.63716 1.3511 2.88143
4 4 6.3355 -1.25238 7.06241
5 4 5.95793 1.48154 5.50986
7 4 4.30669 4.37066 2.06584
9 4 5.22429 3.37765 7.9909
327 2 -0.0728501 5.77232 6.04858
33 3 5.91965 0.62539 2.10391
34 2 3.26674 0.531446 2.39725
356 1 -1.62017 5.18886 8.31953
36 3 4.65093 1.39804 4.45671
37 3 6.39903 0.0602617 6.09064
41 3 4.48732 2.84071 2.32766
42 1 3.1165 4.89922 0.641965
43 2 2.67935 4.90551 2.51896
325 1 -0.261828 4.85653 5.4167
46 3 5.57716 2.44624 6.71803
214 2 -3.25973 5.51241 0.429624
48 3 4.3253 4.57713 7.52041
328 2 0.588324 4.66222 4.59851
321 1 -3.5447 4.55243 4.80451
359 2 -1.06377 5.06865 7.25654
117 2 2.34017 4.02266 0.673152
330 2 7.98409 0.0882522 3.86988
178 4 1.80061 1.13267 6.78771
35 2 5.67949 -1.06042 8.68864
181 1 1.90048 2.58563 5.60314
329 1 8.31829 -0.432175 2.93454
183 3 0.622462 1.47915 7.87582
326 2 -0.489369 3.90673 6.04659
190 2 2.15931 2.08693 4.60243
191 2 2.9236 3.00154 6.08991
192 2 1.03627 3.36954 5.53938
199 4 -0.990433 4.61203 1.27176
200 4 -1.81153 5.26059 4.31146
202 2 0.738457 4.67732 1.51704
203 1 0.0786041 2.98475 0.799592
205 3 -1.39557 4.84254 2.72671
210 2 -1.02848 2.41608 0.799379
211 2 0.736925 2.72595 1.69582
119 2 2.72777 5.91462 0.739774
320 2 3.27738 0.663339 7.50729
10 4 4.01079 5.76903 6.52694
337 2 1.4484 -0.231693 5.93818
322 2 -4.13765 5.19947 5.49794
283 2 4.31617 0.314698 0.307706
61 2 7.2691 2.03364 4.56358
331 2 9.27437 -0.0223883 2.45924
204 1 -2.21697 5.43852 0.032735
213 2 -1.70038 6.51743 0.219409
357 2 -2.60955 4.47905 8.3639
2 4 3.93312 -0.609688 10.6967
6 4 4.05934 -0.101162 14.1296
287 2 7.4185 -0.907307 16.4776
32 1 5.80203 -0.335919 10.512
38 3 3.37678 -0.316767 12.2534
39 3 4.83748 -1.30602 14.7599
40 1 2.71212 0.198531 15.2857
50 3 5.05895 1.35568 13.957
52 1 2.64176 4.34305 10.8401
111 2 5.7086 0.533072 9.71433
112 2 6.53343 -1.0534 10.1661
113 2 5.94373 0.0360977 11.6585
114 2 1.82413 0.23029 14.5859
115 2 2.87667 1.25788 15.6904
116 2 2.82109 -0.646394 16.0325
129 2 2.89944 3.74475 9.88747
131 2 1.83475 3.73435 11.7051
118 2 5.49937 1.37792 17.3777
180 4 0.329052 0.973937 11.9437
185 2 1.9218 0.161311 12.2176
186 3 0.0729344 1.35952 10.408
188 1 0.552727 2.73216 12.838
196 2 0.20647 3.60468 12.2036
197 2 1.61507 2.72763 13.2052
198 2 -0.321671 2.37735 13.5991
45 2 4.32198 2.37618 9.03543
189 2 -0.642913 3.55968 8.88913
314 2 0.213101 -1.32525 14.3438
215 2 -0.77458 1.69056 16.6027
285 2 8.01011 -1.80425 14.8723
279 4 5.95525 -2.58238 15.392
212 2 1.89592 -0.243938 17.3079
281 1 7.65313 -1.92307 15.974
11 4 5.94983 2.69083 13.5164
286 2 8.22826 -2.68822 16.7168
53 3 4.95415 3.65889 12.3528
339 2 3.02976 0.256394 9.57786
179 4 -0.484152 1.87624 8.97366
126 2 7.53785 1.01048 12.898
258 2 1.0749 -2.7169 17.3433
358 2 -0.913627 5.20755 9.27454
143 2 -0.635617 12.5742 5.06489
257 2 -9.54005 13.8987 0.512908
31 1 -4.93434 11.966 1.77691
49 1 3.13036 7.43299 7.16895
55 1 2.39298 7.37597 3.98108
332 2 -2.47077 12.3962 2.99317
57 2 0.805614 8.47452 3.6277
59 1 -0.769086 11.479 5.27203
60 1 0.41666 9.28708 7.2313
1 4 -3.86022 13.5634 1.63482
108 2 -4.80429 11.247 0.917135
109 2 -6.02631 12.4177 1.89388
110 2 -4.38162 11.5818 2.72495
352 1 -3.78066 11.1376 6.36825
365 2 -2.76182 11.9846 7.34122
125 2 2.00783 7.65265 7.41088
236 2 -1.95677 10.103 0.602467
137 2 2.55955 7.41259 5.20675
141 2 -1.8947 11.3257 5.67038
145 2 0.113238 8.71584 6.27848
144 2 1.33525 8.77545 7.78909
248 2 -7.12835 11.477 7.77079
146 2 -0.499461 9.26484 7.95003
201 4 -2.30991 8.49197 4.24159
206 1 -2.05059 9.09082 2.39746
207 3 -1.97145 6.94893 4.47565
208 1 -4.21725 8.4957 4.57103
209 2 -1.52719 9.6439 5.35666
216 2 -1.36838 8.17539 2.1317
217 2 -1.5607 10.0238 2.60582
218 2 -2.91954 9.18605 1.71957
219 2 -4.44242 8.90527 3.47299
220 2 -4.55708 9.2483 5.38603
221 2 -4.51826 7.41837 4.76931
142 2 -0.482719 10.7925 4.42532
354 2 -3.64758 10.0251 6.53468
243 1 -7.20956 10.3196 7.87716
247 2 -6.33543 9.71682 7.50582
353 2 -5.5252 11.3869 6.39423
360 2 -4.57379 6.47963 7.81671
355 2 -3.60728 11.4012 5.29996
297 2 -4.43437 8.33673 8.37716
290 1 -4.01812 7.52736 7.68831
295 2 -4.04919 7.86182 6.54294
296 2 -2.25698 8.15628 7.78097
136 2 1.62236 6.66341 3.68229
56 3 2.41899 8.97935 1.40548
135 2 3.45887 7.06733 3.38821
47 2 2.22166 5.96062 6.34067
234 2 -0.764442 11.9887 0.401377
13 4 2.37671 9.03983 3.07304
282 2 -6.8665 10.7436 16.8915
44 1 2.54748 4.80464 16.5634
121 2 1.93371 5.61981 16.0951
74 1 -3.99531 6.93207 14.9057
280 1 -5.63508 10.6667 16.8141
252 1 -8.88257 10.5493 17.188
132 2 2.70643 6.13649 13.0829
348 1 -4.86753 9.88694 13.9816
162 2 -3.01803 6.51505 14.4079
163 2 -4.04473 6.95129 16.0765
164 2 -4.36518 8.00535 14.5491
166 2 -6.74211 9.4326 13.4993
233 3 -1.60062 10.1368 17.4697
338 2 -1.51915 7.24952 16.378
231 4 -0.551209 9.21423 16.734
232 1 -0.461885 7.34282 17.0427
12 4 4.26226 4.857 11.7389
235 2 0.456209 6.94732 16.4675
238 4 -7.14802 10.295 9.75774
336 2 -0.752834 10.7426 14.4036
241 2 -5.67833 9.51466 10.1418
242 3 -6.95882 11.7999 10.2724
140 2 -0.368665 11.8493 9.01756
120 2 3.00417 4.13457 15.7515
334 2 -0.139587 9.00264 14.2238
351 2 -5.24537 10.0835 12.9456
159 2 -4.4136 4.71277 13.3558
284 2 -5.31698 9.58858 16.4498
256 2 -8.41693 10.5528 16.1863
289 4 -2.57135 7.67073 11.9935
291 1 -1.92596 9.44855 12.1456
292 3 -2.57204 7.17879 10.397
293 1 -1.37702 6.65643 12.9367
294 2 -3.93552 7.23118 12.9454
298 2 -1.3002 9.80328 11.2481
299 2 -1.32787 9.56251 13.2884
300 2 -2.99807 9.84806 12.1146
301 2 -0.98164 5.69882 12.3923
302 2 -1.69874 6.38529 14.0254
303 2 -0.532659 7.44929 13.0006
333 1 -0.193049 9.92803 14.8911
349 2 -5.4757 9.2424 14.6632
350 2 -3.74037 9.51592 13.9629
122 2 2.00448 4.22022 17.3565
8 4 4.01099 5.63887 17.3626
134 2 3.98788 5.56361 14.2619
288 4 -2.60896 6.72678 8.86258
174 2 2.75603 7.7752 9.91319
54 1 3.8022 6.05654 13.2526
130 2 2.21909 5.35011 10.6436
67 1 11.3786 4.63242 8.44853
16 4 7.48257 6.50238 0.757921
17 4 10.3817 3.90436 6.96837
347 2 13.8762 1.02241 2.03865
324 2 14.8812 4.43458 3.80557
184 2 14.311 2.86836 7.34563
65 1 8.99015 2.62267 7.69268
66 1 11.5385 3.09461 5.57296
341 2 13.3482 3.27583 2.32393
62 3 5.26759 5.44448 2.60874
71 3 7.29878 5.66396 4.66305
72 3 9.44699 5.13895 6.22583
138 2 10.4223 -1.0011 7.56513
139 2 11.997 -1.35874 8.5646
147 2 8.70587 1.98237 6.75107
148 2 7.99071 3.03198 8.09584
150 2 11.1341 3.49647 4.61032
151 2 11.4117 1.98745 5.69487
152 2 12.5093 3.47552 5.88959
372 2 16.688 0.781945 3.83373
157 2 10.3859 5.9764 3.70033
177 4 15.7376 1.12409 7.83737
64 2 6.69089 5.38047 1.72243
223 1 11.6812 6.22473 0.492414
225 2 10.7689 5.88324 1.11211
343 2 11.8737 4.55567 1.63263
342 2 11.7755 3.85491 3.41477
259 4 11.9188 2.17157 1.02283
262 2 10.6027 2.57166 2.25096
304 4 15.4007 0.0949039 4.76611
305 1 14.8761 1.55972 3.68119
306 3 15.563 0.493482 6.28727
307 2 13.6713 1.19389 3.8298
308 2 15.2305 1.30126 2.6057
309 2 15.113 2.71408 4.05227
346 2 12.2424 -0.0126016 1.3954
340 1 12.1294 3.63976 2.3388
149 2 9.53151 2.02854 8.50534
344 1 13.0912 0.756693 1.11172
319 2 13.3084 1.85468 8.59632
345 2 13.6294 0.582232 0.150408
316 1 14.3395 2.2796 8.38192
182 3 17.1271 1.3953 8.48301
155 2 12.1671 3.86272 8.59032
68 3 6.56817 3.77897 8.76189
370 3 8.55638 5.83131 0.107771
323 2 15.915 3.59307 5.31232
317 2 14.7787 2.84217 9.22064
51 1 7.49713 2.0732 12.6565
187 1 17.8181 -0.00991581 12.3958
311 2 15.9191 -1.85988 14.2732
76 3 6.53495 3.55198 14.711
368 2 15.1353 -2.227 16.1366
127 2 8.31426 2.66749 13.0983
128 2 7.41104 2.26376 11.5366
369 2 16.7651 -2.85101 16.7346
310 4 17.4906 -2.64185 14.6505
161 2 13.3543 3.38712 14.0981
169 2 8.70042 4.53774 10.5755
153 2 10.6136 4.65072 9.27669
193 2 17.0696 0.257708 11.5406
315 2 19.6684 -2.2788 15.9581
77 3 7.76047 3.68393 17.2689
366 1 15.9321 -2.92201 15.863
260 4 12.3938 -0.0357412 15.5529
261 4 12.8389 -2.31798 13.1448
263 3 12.8339 -0.672215 17.1771
264 1 13.1711 1.64607 15.0629
265 1 10.4905 0.222862 15.8184
266 3 12.6729 -1.25983 14.3457
194 2 17.4839 0.224665 13.4275
269 1 11.6387 -1.85087 11.7799
270 2 13.3507 1.43741 13.9008
271 2 14.0982 2.11556 15.5807
272 2 12.1763 2.25088 15.2693
273 2 10.1896 0.346335 14.7078
274 2 10.32 1.24887 16.6
275 2 10.0396 -0.700887 16.1856
276 2 12.4463 -1.85131 10.9345
277 2 11.0486 -0.949885 11.8957
195 2 18.3065 -1.03 12.2418
318 2 14.5252 0.454178 9.02753
227 2 13.1671 2.47917 16.9465
312 1 18.8691 -1.64546 15.3645
313 2 18.3165 -0.809185 15.9454
73 1 13.4879 4.4128 13.6172
63 3 4.70747 6.16546 5.22406
23 4 7.13706 8.83738 2.89125
24 4 3.44125 11.1294 5.21915
25 4 5.63266 11.2665 1.75964
26 4 7.42232 7.99652 7.86099
28 4 5.84189 10.3714 6.82287
364 2 2.43884 11.5069 0.336368
156 2 8.98973 7.11475 3.04618
83 3 6.22418 7.8701 3.72415
84 3 8.10647 7.94078 1.7921
85 3 8.14432 10.1061 3.65796
86 3 2.81973 10.3178 3.92439
87 3 4.23616 12.6614 4.38367
88 3 2.11431 11.4372 6.13683
89 3 6.20735 9.87776 1.95167
90 2 4.98506 12.0191 3.08877
92 3 8.25627 7.67022 6.58565
371 3 6.72088 12.194 1.1405
97 3 7.1773 10.6509 6.00459
98 3 4.49409 10.4087 6.08677
99 3 5.79911 8.69559 7.48042
100 2 5.83749 11.4206 8.13659
255 2 8.50651 9.94191 0.599817
123 2 3.6296 8.29351 6.59956
70 1 9.61522 6.8134 3.9692
19 4 8.60742 6.17884 5.38444
158 2 10.1858 7.68614 4.49486
222 4 11.432 7.93123 0.329513
229 2 9.5498 11.4826 5.36546
228 4 8.40145 10.2482 5.18855
373 2 4.2663 11.1679 0.651282
230 2 9.19646 8.89394 5.86757
249 2 10.8348 9.9106 7.681
224 2 10.508 8.83907 1.37264
58 1 0.21605 12.3043 8.21839
251 1 9.09286 10.7142 0.0290847
91 3 7.08868 6.6598 8.62459
124 2 3.75764 7.20172 8.26271
15 4 5.90544 6.38209 4.18532
226 2 12.9552 7.35189 1.18255
154 2 11.7079 5.65132 8.15569
14 4 0.63953 11.117 6.70259
253 2 9.90598 11.2623 0.68181
18 4 6.61657 5.52472 9.58243
362 2 3.35324 7.6742 16.1653
21 4 6.78292 4.4905 16.0806
22 4 10.7976 7.24787 13.5757
27 4 4.52486 9.19761 10.4856
29 4 7.89247 7.13213 14.8942
30 4 6.95507 8.80726 12.6848
69 3 5.22265 5.58488 10.5168
75 3 13.1072 5.11407 16.4013
20 4 13.4172 5.79959 14.9121
78 3 5.47051 4.9006 16.715
244 2 9.18847 11.7337 10.4081
80 1 8.11483 5.4365 10.7642
81 1 11.1195 6.4131 11.8586
82 3 12.1033 6.86677 14.5301
254 2 10.9418 6.94456 16.6163
94 2 4.20437 10.8359 10.4451
95 1 3.02322 8.24977 10.9704
367 2 4.79538 10.091 15.7966
101 3 7.45609 5.92515 15.8694
102 3 9.3101 6.88437 14.1507
103 3 8.3186 8.39864 16.0857
104 3 8.28083 8.60994 11.6085
105 3 5.63308 8.91082 11.6012
106 3 6.71522 7.51459 13.7989
107 3 7.09888 10.164 13.5409
133 2 4.23589 7.05892 13.1198
335 2 0.809261 10.3445 15.3815
268 2 3.62176 11.2621 12.8651
240 3 10.6317 9.49673 10.3353
165 2 10.9364 9.23414 12.1312
167 2 10.4485 9.63045 13.9589
168 2 8.69588 6.41398 10.6225
170 2 7.50963 5.3379 11.7478
171 2 11.7963 5.43499 12.0774
172 2 11.6888 7.09963 11.2302
173 2 10.0669 6.0924 11.4877
175 2 2.35997 9.1526 11.3214
237 4 8.71799 9.34553 10.2718
239 1 8.1991 11.1419 10.5178
245 2 7.75184 11.1464 11.5494
250 4 9.22097 8.75689 17.286
246 2 7.44253 11.3544 9.67649
96 2 5.12752 9.01163 8.88557
278 2 0.229641 11.1521 11.8508
267 2 1.38616 10.1952 13.713
160 2 12.7407 4.66628 12.7137
361 1 4.16422 7.61077 16.9376
176 2 3.34207 7.4205 11.874
363 2 5.14179 7.96134 16.505
79 1 11.157 9.11668 13.2573
93 3 8.18051 9.0077 8.78784
ITEM: TIMESTEP
100
ITEM: NUMBER OF ATOMS
373
ITEM: BOX BOUNDS xy xz yz pp pp pp
-1.0794400000000000e+01 2.0438599999999997e+01 -1.0794400000000000e+01
-3.3422702999999996e+00 1.4064528749999999e+01 1.3894000000000000e+00
0.0000000000000000e+00 1.7550000000000001e+01 -3.3422702999999996e+00
ITEM: ATOMS id type x y z
3 4 4.6647 1.35806 2.84478
4 4 6.4611 -1.2346 7.02086
5 4 5.86909 1.48013 5.54642
7 4 4.19264 4.44124 2.09522
9 4 5.25899 3.40025 8.01326
117 2 2.3305 3.99143 0.54682
33 3 5.87713 0.565786 2.21295
34 2 3.35526 0.416023 2.43498
356 1 -1.44613 5.19254 8.50042
36 3 4.68757 1.37119 4.39906
37 3 6.20249 0.0461886 6.15852
41 3 4.31115 2.85509 2.32272
42 1 3.15078 4.87795 0.613815
43 2 2.57053 5.04275 2.44041
325 1 -0.19474 4.96106 5.5412
46 3 5.56519 2.48336 6.81382
214 2 -3.45059 5.71146 0.344654
48 3 4.29742 4.55134 7.58019
328 2 0.535917 4.87643 4.68469
321 1 -3.54735 4.54952 4.98173
359 2 -1.02324 5.0478 7.38182
204 1 -2.38615 5.53779 0.0963652
330 2 8.11091 -0.174789 4.08385
178 4 1.81555 1.19738 6.68866
35 2 5.99932 -1.04555 8.71338
181 1 2.0702 2.65036 5.4737
61 2 7.21766 2.23391 4.8994
183 3 0.729815 1.59973 7.76337
326 2 -0.627251 3.95557 5.95504
190 2 2.16623 1.9366 4.51111
191 2 3.0348 3.00179 5.94724
192 2 1.28691 3.43103 5.45593
199 4 -1.11393 4.76964 1.2522
200 4 -1.86382 5.25842 4.40028
202 2 0.653048 5.01359 1.23605
203 1 0.0207147 3.2715 0.682709
205 3 -1.58439 4.82037 2.73396
210 2 -1.00663 2.56065 0.756284
211 2 0.793657 2.94249 1.4097
119 2 2.8139 5.92503 0.551049
320 2 3.19857 0.430529 7.29187
331 2 9.19907 -0.384044 2.57496
337 2 1.20843 0.0249147 5.63712
322 2 -4.07838 5.284 5.63825
257 2 1.39433 0.000692066 0.259885
2 4 4.03283 -0.692688 10.685
6 4 4.16748 -0.0641701 14.0683
287 2 7.83465 -1.12873 16.035
32 1 5.86024 -0.283816 10.5202
38 3 3.48647 -0.345048 12.2058
39 3 5.03219 -1.44322 14.64
40 1 2.83566 0.100916 15.303
50 3 5.09541 1.38393 14.1388
52 1 2.56049 4.57188 10.8344
111 2 5.60535 0.572595 9.61885
112 2 6.73248 -1.01095 10.3287
113 2 6.16254 0.288969 11.449
114 2 1.95024 -0.252167 14.5952
115 2 2.95315 1.19762 15.6589
116 2 3.19426 -0.729782 16.087
129 2 2.87199 3.97585 9.86359
131 2 1.81057 3.93636 11.5814
213 2 -0.382127 3.18182 17.4985
180 4 0.461236 1.02166 11.8982
185 2 2.04646 0.295194 12.0246
186 3 -0.0119327 1.42622 10.3485
188 1 0.649519 2.79782 12.8046
196 2 0.181471 3.61817 12.1601
197 2 1.62757 3.03363 13.2296
198 2 -0.114457 2.33905 13.6581
45 2 4.346 2.48045 9.081
189 2 -0.416572 3.62196 9.05459
314 2 0.372223 -1.48467 14.3495
215 2 -0.840681 1.47405 16.6647
285 2 8.13899 -2.35154 14.5997
279 4 5.84418 -2.65913 15.2903
212 2 1.85171 0.0406678 17.167
281 1 7.671 -2.17009 15.6158
11 4 6.00424 2.74416 13.7
286 2 8.19321 -2.89291 16.4338
53 3 5.02243 3.62483 12.4501
339 2 3.14635 0.370854 9.69455
179 4 -0.320965 1.89901 8.82428
283 2 5.46177 -2.65211 17.5482
120 2 2.74973 3.90485 16.1733
118 2 5.42197 1.35415 17.3468
357 2 -2.27182 4.43395 8.84197
329 1 -2.51278 13.2661 3.08395
327 2 -0.241093 5.90697 6.10424
31 1 -4.83752 11.7521 1.96788
49 1 3.16947 7.47531 7.18698
55 1 2.37136 7.3665 4.09577
332 2 -2.35796 12.1928 3.32876
57 2 0.841085 8.48208 3.64871
59 1 -0.567428 11.3781 5.20503
60 1 0.435985 9.18774 7.40342
1 4 -3.87857 13.4349 1.82086
108 2 -4.90303 11.2445 0.962924
109 2 -5.81424 11.9184 2.46611
110 2 -4.18278 11.2691 2.72463
352 1 -3.63168 11.3151 6.12819
365 2 -2.49076 12.1754 7.11189
125 2 2.12586 8.18425 7.20983
236 2 -1.92014 9.9005 0.557358
137 2 2.64777 7.50799 5.2119
141 2 -1.71579 11.3952 5.56141
145 2 0.864526 8.44641 6.62251
144 2 0.974472 9.21147 8.3768
248 2 -7.31507 11.1539 7.39503
146 2 -0.642022 9.11 7.57299
201 4 -2.418 8.47663 4.23764
206 1 -1.99697 8.90174 2.42487
207 3 -1.96822 6.963 4.44244
208 1 -4.31677 8.47627 4.68338
209 2 -1.63084 9.7618 5.21459
216 2 -1.16115 8.20768 2.22731
217 2 -1.64837 9.97597 2.35336
218 2 -3.00113 8.71294 1.88029
219 2 -4.55042 8.80496 3.53924
220 2 -4.57106 9.19509 5.51261
221 2 -4.71243 7.44333 4.84092
142 2 -0.148713 10.5355 4.59309
354 2 -3.40605 10.2695 6.30077
243 1 -7.22232 10.1629 7.89001
247 2 -6.27243 9.62866 7.60877
353 2 -5.27339 11.2627 6.55201
360 2 -4.62418 6.69373 7.97065
355 2 -3.50307 11.677 5.01486
297 2 -4.09651 8.66766 8.42225
290 1 -3.82431 7.75983 7.79042
295 2 -3.99595 7.98728 6.6847
296 2 -1.97909 7.96952 7.73272
136 2 1.43284 6.75618 3.89095
234 2 -0.754007 11.7437 0.282423
135 2 3.32799 6.94455 3.50552
47 2 2.31421 6.04747 6.31324
140 2 -0.763498 11.9726 8.6822
56 3 2.38368 9.02136 1.56942
143 2 -0.385574 12.3582 4.67335
10 4 4.01994 5.80376 6.53758
122 2 0.426038 8.04731 0.102894
282 2 -6.93431 10.5043 16.8053
44 1 2.43073 4.87328 16.715
121 2 1.92414 5.60584 16.0252
74 1 -4.10687 7.02378 15.1722
280 1 -5.75998 10.5682 16.8206
252 1 -8.92073 10.5199 17.1827
132 2 2.69441 6.15289 13.122
348 1 -4.82364 9.83223 13.9435
162 2 -3.1447 6.64026 14.7328
163 2 -4.11077 6.98283 16.2856
164 2 -4.424 8.10558 14.7783
166 2 -6.71441 9.49406 13.4253
233 3 -1.66974 10.1273 17.5286
338 2 -1.85609 7.29585 16.968
231 4 -0.590479 9.18502 16.8082
232 1 -0.688153 7.22924 17.1621
12 4 4.2551 4.89952 11.6751
235 2 -0.184419 6.75512 16.2512
238 4 -7.09093 10.2921 9.72791
336 2 -1.21061 10.4255 14.7299
241 2 -5.69844 9.50115 10.2531
242 3 -7.01211 11.8182 10.2015
79 1 -7.88443 9.21403 13.1426
159 2 -4.41192 4.81458 13.5251
334 2 -0.156469 8.92154 14.2139
351 2 -4.87439 10.0223 12.8647
130 2 2.21001 5.61817 10.6853
284 2 -5.22877 9.54481 16.9678
256 2 -8.8937 10.7818 16.0793
289 4 -2.65589 7.57496 12.0605
291 1 -2.01227 9.37601 12.1268
292 3 -2.74045 7.13325 10.4179
293 1 -1.54741 6.47849 13.0959
294 2 -4.00781 7.26406 13.2313
298 2 -1.45534 9.71317 11.1677
299 2 -1.4346 9.47462 13.2003
300 2 -2.99052 9.88636 12.1882
301 2 -1.52985 5.46666 12.4764
302 2 -1.81521 6.38235 14.1966
303 2 -0.570667 7.25188 12.9003
333 1 -0.396372 9.68733 14.9819
349 2 -5.59943 9.09109 14.33
350 2 -3.82301 9.35677 14.2118
358 2 -0.674727 5.44712 9.30539
54 1 3.8198 6.02478 13.1947
134 2 4.14515 5.52314 14.1395
288 4 -2.59946 6.68198 8.87184
67 1 11.5713 4.55645 8.50742
16 4 7.48457 6.50956 0.750467
17 4 10.4385 3.95734 7.05877
347 2 13.8815 0.981841 2.00934
324 2 15.0313 4.36049 4.0338
184 2 14.7246 3.15918 7.42242
65 1 9.01235 2.59837 7.64299
66 1 11.365 3.00123 5.60113
341 2 13.4961 3.26746 2.07833
62 3 5.33638 5.45226 2.56394
71 3 7.34177 5.5687 4.80323
72 3 9.59208 5.15261 6.36676
138 2 11.2185 -0.819034 8.01541
155 2 12.6005 3.95942 8.422
147 2 8.83172 2.21753 6.62433
148 2 8.1369 3.16523 8.14886
150 2 11.4211 3.62909 4.66992
151 2 10.7912 2.02418 5.41706
152 2 12.4275 2.84865 6.13484
372 2 16.8222 0.532077 3.8608
157 2 10.314 5.8064 3.62481
177 4 15.6941 1.161 7.71975
64 2 6.79459 5.36245 1.84414
223 1 11.596 6.25105 0.482093
225 2 10.5406 5.90402 1.10958
343 2 12.108 4.68525 1.6227
342 2 12.0501 3.84775 3.3174
259 4 11.8314 2.25471 1.01334
262 2 10.6772 2.60763 2.36215
304 4 15.4081 0.0783364 4.84052
305 1 15.1506 1.45638 3.52284
306 3 15.4875 0.668603 6.29604
307 2 13.7853 1.12864 3.7831
308 2 15.512 1.34128 2.45318
309 2 15.4604 2.48235 3.98867
346 2 12.1335 0.0393973 1.39419
340 1 12.3218 3.67589 2.25938
149 2 9.68365 1.88279 8.28868
344 1 13.0481 0.815212 1.10819
319 2 13.3836 1.79 8.17021
345 2 13.5723 0.583728 0.03649
316 1 14.3499 2.33101 8.35144
182 3 17.2062 1.40232 8.37549
370 3 8.58997 5.85981 0.182539
323 2 15.681 3.61356 5.56967
258 2 18.5731 0.320448 0.222974
226 2 12.9193 6.77422 1.34634
317 2 14.246 2.95964 9.31063
51 1 7.60812 2.28585 12.8319
187 1 17.9897 0.0870498 12.5254
311 2 15.9005 -1.82297 14.4227
76 3 6.61774 3.63286 14.8848
368 2 14.9489 -2.50648 16.1656
127 2 8.3414 2.76666 13.5961
128 2 7.46993 2.93254 11.8581
68 3 6.53049 3.82544 8.86519
310 4 17.5132 -2.66789 14.6257
161 2 13.5291 3.399 14.2231
169 2 8.57429 4.0693 10.6348
153 2 11.0177 4.29542 9.43898
193 2 17.1866 0.208739 11.7559
313 2 18.4548 -0.84402 15.7779
126 2 7.80907 1.21665 12.6701
315 2 19.678 -2.38006 16.0735
260 4 12.2703 0.0202592 15.5823
261 4 12.5712 -2.38042 13.2496
263 3 12.8947 -0.543754 17.1153
264 1 13.3392 1.58328 15.1318
265 1 10.4475 0.500531 15.6828
266 3 12.2587 -1.02157 14.3413
194 2 17.7197 0.492284 13.528
269 1 11.8283 -1.90018 11.6192
270 2 13.6433 1.46895 14.0815
271 2 14.1555 1.9116 15.7867
272 2 12.3805 2.30059 15.1931
273 2 9.89626 0.85796 14.7036
274 2 10.2794 1.34259 16.5844
275 2 10.0582 -0.495696 16.0292
276 2 12.8189 -1.40309 11.2306
277 2 10.8913 -1.2133 11.7494
195 2 18.568 -0.951423 12.5603
318 2 14.4307 0.496778 8.89224
227 2 13.1719 2.3533 16.9637
312 1 18.9276 -1.76416 15.3254
63 3 4.83318 6.13302 5.23303
23 4 7.17242 8.82617 2.80947
24 4 3.41607 11.0637 5.20243
25 4 5.63101 11.2955 1.67962
26 4 7.51446 7.96002 7.91775
28 4 5.84942 10.2048 6.8721
364 2 2.60816 11.779 0.0841803
156 2 9.15572 7.19598 3.05984
83 3 6.24844 7.839 3.79478
84 3 8.17244 7.9819 1.86752
85 3 8.27504 9.86782 3.65266
86 3 3.03945 10.1493 3.97765
87 3 4.27874 12.6342 4.41449
88 3 2.15312 11.3991 6.22028
89 3 6.10921 9.7989 1.93311
90 2 5.00948 12.0194 3.10561
92 3 8.33818 7.69477 6.62062
371 3 6.70699 12.2634 1.11321
97 3 7.23216 10.6131 6.0805
98 3 4.52704 10.3354 5.92129
99 3 5.86238 8.78095 7.56281
100 2 5.70115 11.3744 8.07413
255 2 8.60644 9.89062 0.833675
123 2 3.88844 8.20266 6.59736
70 1 9.7515 6.74907 3.93045
19 4 8.66838 6.24029 5.34276
158 2 10.4652 7.5125 4.43105
222 4 11.492 7.90509 0.460096
229 2 9.44196 11.5639 5.14658
228 4 8.3948 10.2778 5.17378
373 2 4.16359 11.3859 0.70771
230 2 9.23104 9.01104 5.96955
249 2 10.8503 9.45345 7.83675
224 2 11.0691 9.03793 1.67871
58 1 0.266378 12.1644 8.32006
251 1 9.00954 10.672 0.156477
91 3 7.18957 6.59961 8.75936
124 2 3.58818 7.23895 8.28888
15 4 5.98677 6.33074 4.21437
13 4 2.40913 9.01249 3.13231
154 2 11.7485 5.63338 8.34219
14 4 0.691253 11.1347 6.82363
253 2 9.81252 11.3622 0.645186
18 4 6.61883 5.51412 9.7389
362 2 3.31182 7.41182 16.091
21 4 6.84042 4.58238 16.2163
22 4 10.8404 7.29653 13.494
27 4 4.59086 9.30116 10.5728
29 4 8.01256 7.26805 14.897
30 4 6.97044 8.81767 12.635
69 3 5.44959 5.91381 10.7345
75 3 13.1359 5.14471 16.5485
20 4 13.3135 5.81618 15.087
78 3 5.27286 4.93392 16.8582
244 2 9.04095 11.8373 10.8085
80 1 8.17256 5.1368 10.8634
81 1 11.101 6.28509 11.9076
82 3 12.1448 6.61352 14.4284
254 2 10.763 6.83165 16.7207
94 2 4.5359 10.9946 10.0687
95 1 3.14199 8.2924 10.9617
367 2 4.67578 9.96394 15.342
101 3 7.51014 5.95749 15.6276
102 3 9.39636 6.89788 14.0438
103 3 8.36851 8.50195 15.958
104 3 8.13965 8.74966 11.4937
105 3 5.60596 9.04682 11.7452
106 3 6.75541 7.65112 13.7563
107 3 7.00211 10.2767 13.5203
133 2 4.28619 7.04399 13.1534
335 2 0.807117 10.3193 15.685
268 2 3.36519 11.2568 13.0982
240 3 10.6487 9.5903 10.297
165 2 10.8706 9.37256 12.0375
167 2 10.4465 9.69962 13.8096
168 2 8.76727 6.0786 10.4131
170 2 7.82743 5.34991 11.9415
171 2 12.101 5.58293 12.115
172 2 11.3052 7.16584 11.1785
173 2 10.1541 5.65086 11.723
175 2 2.44949 9.1368 11.2755
237 4 8.71177 9.60901 10.2527
239 1 8.01359 11.3267 10.4521
245 2 7.17362 11.2984 11.2657
250 4 9.12953 8.77104 17.4422
246 2 7.65905 11.6725 9.44108
96 2 5.25696 8.81251 9.04693
278 2 0.74113 11.1053 11.2302
267 2 0.978277 10.1893 13.6792
93 3 8.23483 9.10423 8.85203
361 1 4.2615 7.62042 16.8389
176 2 3.34412 7.45294 11.7961
363 2 5.11081 7.951 16.2444
366 1 5.0746 10.9133 15.8012
73 1 13.5365 4.47123 13.7955
160 2 12.6794 4.62361 12.8736
139 2 1.06902 11.8308 9.13205
369 2 5.91849 10.709 16.6454
174 2 2.95144 7.90152 9.91729
8 4 3.96701 5.7274 17.4261
77 3 7.81351 3.76126 17.2536
ITEM: TIMESTEP
200
ITEM: NUMBER OF ATOMS
373
ITEM: BOX BOUNDS xy xz yz pp pp pp
0.0000000000000000e+00 2.8693399999999997e+01 8.2547999999999995e+00
-3.3439405999999998e+00 1.4071557499999999e+01 1.3894000000000000e+00
0.0000000000000000e+00 1.7550000000000001e+01 -3.3439405999999998e+00
ITEM: ATOMS id type x y z
3 4 4.61537 1.44307 2.91239
4 4 6.49339 -1.18571 7.11703
5 4 5.8147 1.5701 5.56044
7 4 4.21901 4.40264 2.08472
9 4 5.23289 3.46515 7.91305
342 2 12.0898 3.73723 3.39215
33 3 5.67209 0.583204 2.15275
34 2 3.23253 0.623103 2.43223
337 2 1.70109 -0.297711 5.8047
36 3 4.66703 1.36893 4.46218
37 3 6.12999 0.164301 6.34505
41 3 4.42868 2.90529 2.44161
42 1 3.14652 4.91412 0.6174
331 2 9.07782 -0.227411 2.52023
320 2 3.35294 0.899484 7.53774
46 3 5.6205 2.73992 6.54213
191 2 3.22593 2.94845 5.87542
48 3 4.2285 4.64474 7.65846
152 2 12.4101 3.0278 6.30405
61 2 7.26171 1.91087 4.72777
190 2 2.25449 2.21925 4.4472
330 2 8.03799 -0.209287 4.14189
67 1 11.7801 4.36945 8.5701
343 2 12.0493 4.59425 1.62118
16 4 7.62189 6.65039 0.60348
17 4 10.3931 3.84114 7.05483
370 3 8.64579 5.85943 0.0198261
65 1 9.02042 2.64486 7.82322
66 1 11.3822 2.99434 5.70623
62 3 5.31144 5.45951 2.67779
71 3 7.41624 5.58855 4.61634
72 3 9.60546 5.11581 6.2566
149 2 9.50095 2.20108 8.77349
155 2 12.7037 3.69349 8.48525
147 2 8.80531 1.9156 7.05498
148 2 8.07904 3.26282 8.10421
150 2 11.4545 3.40469 4.60331
151 2 10.8414 1.98642 5.74789
157 2 10.6794 5.90356 3.93375
64 2 6.56966 5.64437 1.60645
223 1 11.6184 6.22419 0.496048
262 2 10.7792 2.47963 2.44251
225 2 10.6489 5.92007 1.14564
283 2 4.23664 0.387545 0.0440044
154 2 11.9355 5.45742 8.23259
2 4 4.06569 -0.757048 10.6884
6 4 4.21378 -0.166013 14.047
287 2 7.73364 -1.16166 16.0524
32 1 5.90385 -0.34187 10.6933
38 3 3.44243 -0.428405 12.2447
39 3 5.05569 -1.44406 14.7067
118 2 5.41512 1.16606 17.3683
50 3 5.17517 1.24761 14.1064
265 1 10.232 0.480154 15.5596
111 2 5.83117 0.505058 9.90613
112 2 6.70957 -1.15145 10.5886
113 2 5.81747 0.0746911 11.8821
339 2 3.04432 0.0242105 9.5557
53 3 4.98547 3.65661 12.4373
116 2 2.92436 -0.809227 15.8995
286 2 8.13256 -2.99567 16.6556
11 4 5.97514 2.64409 13.7078
281 1 7.65653 -2.26776 15.8444
279 4 5.89524 -2.73845 15.343
285 2 8.13807 -2.38482 14.7802
45 2 4.33958 2.43564 8.83293
51 1 7.54931 2.05203 12.9451
76 3 6.34622 3.59396 14.8859
227 2 13.0617 2.42851 16.8841
127 2 8.3106 2.64394 13.5183
128 2 7.37577 2.47012 11.8516
264 1 13.1347 1.49399 15.0842
68 3 6.52965 3.87338 8.78871
275 2 9.66254 -0.486007 15.8512
274 2 10.1393 1.35259 16.4597
273 2 9.95517 0.810032 14.5172
272 2 12.1325 2.14678 15.2341
161 2 13.4221 3.34346 14.3337
169 2 8.34756 4.12464 10.9968
153 2 11.0875 4.22108 9.47319
126 2 7.67572 0.888212 13.0311
260 4 12.0618 -0.0803792 15.6111
35 2 6.14573 -1.17159 8.82357
277 2 10.7505 -1.67652 11.9163
329 1 16.4652 13.3917 3.16694
295 2 15.1178 8.05915 6.46934
31 1 14.0516 11.6357 1.84289
290 1 15.3636 7.66297 7.61424
297 2 14.9468 8.34483 8.31067
332 2 16.6707 12.2975 3.36117
355 2 15.7729 12.1013 5.05443
257 2 9.58614 13.7814 0.468164
353 2 13.8669 11.3749 6.51115
1 4 15.122 13.2696 1.88216
108 2 14.0544 11.2132 0.831736
109 2 13.0111 11.7677 2.27251
110 2 14.8174 11.0917 2.53462
352 1 15.6237 11.5896 6.06536
365 2 16.6497 12.2274 7.23387
247 2 12.767 9.61086 7.66929
243 1 11.7731 10.305 7.9162
354 2 15.9891 10.5079 5.97713
221 2 14.2932 7.76694 4.97314
220 2 14.7751 9.56985 5.34436
219 2 14.5347 9.09906 3.44888
248 2 11.7866 11.2758 7.43128
208 1 14.7707 8.72342 4.58993
63 3 4.86358 6.02691 5.26811
253 2 9.73132 11.3749 0.969484
23 4 7.12788 8.85144 2.78147
360 2 14.6346 6.37296 7.76455
26 4 7.52575 8.01119 7.92775
15 4 6.03786 6.37832 4.1997
156 2 9.41375 7.09174 3.14279
226 2 13.0177 6.87725 1.37326
89 3 6.19597 9.88977 2.00152
83 3 6.29554 7.86107 3.76443
224 2 11.0276 9.00747 1.76336
249 2 10.7767 9.77908 7.79196
230 2 9.21115 9.03395 6.16403
84 3 8.18465 7.88577 1.77086
228 4 8.41747 10.241 5.21137
229 2 9.69425 11.3934 5.39163
222 4 11.6055 7.91334 0.599412
158 2 10.4647 7.63881 4.68572
19 4 8.74216 6.20518 5.3661
70 1 9.9639 6.79679 4.10704
85 3 8.27403 9.81126 3.76363
255 2 8.59708 9.92489 0.17243
92 3 8.35603 7.76921 6.50323
233 3 15.9419 13.3193 0.142251
251 1 9.1751 10.937 -0.00959093
282 2 12.1237 10.578 16.8652
350 2 15.2913 9.50783 13.6874
349 2 13.5712 9.03409 14.2394
74 1 14.9752 7.0118 15.1747
280 1 13.3183 10.4755 16.8045
252 1 10.1254 10.5397 17.2728
300 2 16.0302 9.70055 12.0392
348 1 14.2009 9.81052 13.8263
162 2 15.9526 6.51894 14.8944
163 2 14.8003 7.03008 16.3273
164 2 14.7106 8.06894 14.6872
166 2 12.2714 9.47665 13.3804
167 2 10.4446 9.62302 13.7693
294 2 15.0693 7.04185 13.2071
291 1 17.0357 9.32276 12.209
256 2 10.5615 10.6495 16.1986
284 2 13.6504 9.35484 16.7835
351 2 13.8036 10.3142 12.8836
238 4 12.0727 10.2776 9.71568
336 2 17.5391 10.1618 14.7076
241 2 13.2965 9.2193 10.2842
242 3 12.3653 11.7965 10.2096
79 1 11.1925 9.2122 13.076
159 2 14.7431 4.75392 13.6314
18 4 6.8068 5.45897 9.77714
77 3 7.94142 3.80548 17.0782
21 4 6.85532 4.57922 16.1964
22 4 10.9978 7.27346 13.5368
29 4 8.03237 7.17265 14.8502
75 3 13.1768 5.22779 16.5564
160 2 12.998 4.63608 12.8381
73 1 13.6098 4.4886 13.8239
20 4 13.3623 5.83807 15.047
165 2 10.8954 9.37994 11.9349
80 1 7.9892 5.1258 11.2087
81 1 11.2064 6.16473 12.022
93 3 8.32424 9.17178 8.87604
82 3 12.1433 6.88124 14.6213
254 2 11.2126 7.53497 16.6667
101 3 7.5236 5.85099 15.6199
102 3 9.44552 6.98069 14.0382
250 4 9.12453 8.84463 17.2885
103 3 8.51395 8.45592 15.8208
104 3 8.2025 8.97376 11.6141
237 4 8.75456 9.64543 10.2825
240 3 10.5905 9.74226 10.3107
173 2 10.2203 5.64368 11.8211
172 2 11.4224 7.03463 11.2759
171 2 12.0198 5.34803 12.1926
170 2 7.57666 5.21183 12.2793
168 2 8.80841 5.91108 10.9839
91 3 7.32963 6.66392 8.86966
299 2 17.5021 9.56605 13.2046
69 3 5.37779 5.64002 10.5518
244 2 9.19625 11.9345 10.0751
258 2 18.9505 0.785812 0.00452294
323 2 16.3688 3.56012 5.7254
182 3 17.204 1.79881 8.33798
347 2 13.796 0.993872 1.9599
324 2 15.0034 3.6534 4.50592
184 2 14.9506 3.41356 7.92854
316 1 14.2809 2.32789 8.39959
213 2 17.2575 6.6885 0.228529
341 2 13.4531 3.25298 2.10134
319 2 13.1893 2.11146 7.90211
344 1 13.0201 0.7483 1.08277
340 1 12.2935 3.63582 2.28496
138 2 11.9485 -1.34059 8.56214
346 2 12.2652 -0.0257355 1.43972
309 2 15.613 2.40101 3.38023
308 2 15.3867 0.809146 2.24665
307 2 13.8401 1.29561 3.78322
306 3 15.5328 0.651769 6.3216
178 4 20.9875 1.20997 6.60167
372 2 16.8519 0.512336 3.94077
305 1 15.2467 1.31619 3.24714
177 4 15.7762 1.3506 7.84637
304 4 15.3137 0.0561346 4.66176
259 4 11.8493 2.18788 1.03548
117 2 21.2242 4.42611 0.481352
356 1 17.7341 5.38402 8.52811
322 2 15.2324 5.06349 5.67154
43 2 21.6725 4.92063 2.49423
325 1 18.8474 4.89909 5.51839
214 2 15.6165 5.67216 0.668624
119 2 22.0631 6.033 0.500221
211 2 19.6099 2.7551 1.21659
210 2 17.9067 2.60113 0.385457
205 3 17.5576 4.81082 2.81598
203 1 18.9169 3.22083 0.444247
202 2 19.5114 5.03246 0.632388