ITEM: TIMESTEP
0
ITEM: NUMBER OF ATOMS
373
ITEM: BOX BOUNDS xy xz yz pp pp pp
-1.0794400000000000e+01 2.0438599999999997e+01 -1.0794400000000000e+01
-3.3405999999999998e+00 1.4057499999999999e+01 1.3894000000000000e+00
0.0000000000000000e+00 1.7550000000000001e+01 -3.3405999999999998e+00
ITEM: ATOMS id type x y z
3 4 4.63716 1.3511 2.88143
4 4 6.3355 -1.25238 7.06241
5 4 5.95793 1.48154 5.50986
7 4 4.30669 4.37066 2.06584
9 4 5.22429 3.37765 7.9909
327 2 -0.0728501 5.77232 6.04858
33 3 5.91965 0.62539 2.10391
34 2 3.26674 0.531446 2.39725
356 1 -1.62017 5.18886 8.31953
36 3 4.65093 1.39804 4.45671
37 3 6.39903 0.0602617 6.09064
41 3 4.48732 2.84071 2.32766
42 1 3.1165 4.89922 0.641965
43 2 2.67935 4.90551 2.51896
325 1 -0.261828 4.85653 5.4167
46 3 5.57716 2.44624 6.71803
214 2 -3.25973 5.51241 0.429624
48 3 4.3253 4.57713 7.52041
328 2 0.588324 4.66222 4.59851
321 1 -3.5447 4.55243 4.80451
359 2 -1.06377 5.06865 7.25654
117 2 2.34017 4.02266 0.673152
330 2 7.98409 0.0882522 3.86988
178 4 1.80061 1.13267 6.78771
35 2 5.67949 -1.06042 8.68864
181 1 1.90048 2.58563 5.60314
329 1 8.31829 -0.432175 2.93454
183 3 0.622462 1.47915 7.87582
326 2 -0.489369 3.90673 6.04659
190 2 2.15931 2.08693 4.60243
191 2 2.9236 3.00154 6.08991
192 2 1.03627 3.36954 5.53938
199 4 -0.990433 4.61203 1.27176
200 4 -1.81153 5.26059 4.31146
202 2 0.738457 4.67732 1.51704
203 1 0.0786041 2.98475 0.799592
205 3 -1.39557 4.84254 2.72671
210 2 -1.02848 2.41608 0.799379
211 2 0.736925 2.72595 1.69582
119 2 2.72777 5.91462 0.739774
320 2 3.27738 0.663339 7.50729
10 4 4.01079 5.76903 6.52694
337 2 1.4484 -0.231693 5.93818
322 2 -4.13765 5.19947 5.49794
283 2 4.31617 0.314698 0.307706
61 2 7.2691 2.03364 4.56358
331 2 9.27437 -0.0223883 2.45924
204 1 -2.21697 5.43852 0.032735
213 2 -1.70038 6.51743 0.219409
357 2 -2.60955 4.47905 8.3639
2 4 3.93312 -0.609688 10.6967
6 4 4.05934 -0.101162 14.1296
287 2 7.4185 -0.907307 16.4776
32 1 5.80203 -0.335919 10.512
38 3 3.37678 -0.316767 12.2534
39 3 4.83748 -1.30602 14.7599
40 1 2.71212 0.198531 15.2857
50 3 5.05895 1.35568 13.957
52 1 2.64176 4.34305 10.8401
111 2 5.7086 0.533072 9.71433
112 2 6.53343 -1.0534 10.1661
113 2 5.94373 0.0360977 11.6585
114 2 1.82413 0.23029 14.5859
115 2 2.87667 1.25788 15.6904
116 2 2.82109 -0.646394 16.0325
129 2 2.89944 3.74475 9.88747
131 2 1.83475 3.73435 11.7051
118 2 5.49937 1.37792 17.3777
180 4 0.329052 0.973937 11.9437
185 2 1.9218 0.161311 12.2176
186 3 0.0729344 1.35952 10.408
188 1 0.552727 2.73216 12.838
196 2 0.20647 3.60468 12.2036
197 2 1.61507 2.72763 13.2052
198 2 -0.321671 2.37735 13.5991
45 2 4.32198 2.37618 9.03543
189 2 -0.642913 3.55968 8.88913
314 2 0.213101 -1.32525 14.3438
215 2 -0.77458 1.69056 16.6027
285 2 8.01011 -1.80425 14.8723
279 4 5.95525 -2.58238 15.392
212 2 1.89592 -0.243938 17.3079
281 1 7.65313 -1.92307 15.974
11 4 5.94983 2.69083 13.5164
286 2 8.22826 -2.68822 16.7168
53 3 4.95415 3.65889 12.3528
339 2 3.02976 0.256394 9.57786
179 4 -0.484152 1.87624 8.97366
126 2 7.53785 1.01048 12.898
258 2 1.0749 -2.7169 17.3433
358 2 -0.913627 5.20755 9.27454
143 2 -0.635617 12.5742 5.06489
257 2 -9.54005 13.8987 0.512908
31 1 -4.93434 11.966 1.77691
49 1 3.13036 7.43299 7.16895
55 1 2.39298 7.37597 3.98108
332 2 -2.47077 12.3962 2.99317
57 2 0.805614 8.47452 3.6277
59 1 -0.769086 11.479 5.27203
60 1 0.41666 9.28708 7.2313
1 4 -3.86022 13.5634 1.63482
108 2 -4.80429 11.247 0.917135
109 2 -6.02631 12.4177 1.89388
110 2 -4.38162 11.5818 2.72495
352 1 -3.78066 11.1376 6.36825
365 2 -2.76182 11.9846 7.34122
125 2 2.00783 7.65265 7.41088
236 2 -1.95677 10.103 0.602467
137 2 2.55955 7.41259 5.20675
141 2 -1.8947 11.3257 5.67038
145 2 0.113238 8.71584 6.27848
144 2 1.33525 8.77545 7.78909
248 2 -7.12835 11.477 7.77079
146 2 -0.499461 9.26484 7.95003
201 4 -2.30991 8.49197 4.24159
206 1 -2.05059 9.09082 2.39746
207 3 -1.97145 6.94893 4.47565
208 1 -4.21725 8.4957 4.57103
209 2 -1.52719 9.6439 5.35666
216 2 -1.36838 8.17539 2.1317
217 2 -1.5607 10.0238 2.60582
218 2 -2.91954 9.18605 1.71957
219 2 -4.44242 8.90527 3.47299
220 2 -4.55708 9.2483 5.38603
221 2 -4.51826 7.41837 4.76931
142 2 -0.482719 10.7925 4.42532
354 2 -3.64758 10.0251 6.53468
243 1 -7.20956 10.3196 7.87716
247 2 -6.33543 9.71682 7.50582
353 2 -5.5252 11.3869 6.39423
360 2 -4.57379 6.47963 7.81671
355 2 -3.60728 11.4012 5.29996
297 2 -4.43437 8.33673 8.37716
290 1 -4.01812 7.52736 7.68831
295 2 -4.04919 7.86182 6.54294
296 2 -2.25698 8.15628 7.78097
136 2 1.62236 6.66341 3.68229
56 3 2.41899 8.97935 1.40548
135 2 3.45887 7.06733 3.38821
47 2 2.22166 5.96062 6.34067
234 2 -0.764442 11.9887 0.401377
13 4 2.37671 9.03983 3.07304
282 2 -6.8665 10.7436 16.8915
44 1 2.54748 4.80464 16.5634
121 2 1.93371 5.61981 16.0951
74 1 -3.99531 6.93207 14.9057
280 1 -5.63508 10.6667 16.8141
252 1 -8.88257 10.5493 17.188
132 2 2.70643 6.13649 13.0829
348 1 -4.86753 9.88694 13.9816
162 2 -3.01803 6.51505 14.4079
163 2 -4.04473 6.95129 16.0765
164 2 -4.36518 8.00535 14.5491
166 2 -6.74211 9.4326 13.4993
233 3 -1.60062 10.1368 17.4697
338 2 -1.51915 7.24952 16.378
231 4 -0.551209 9.21423 16.734
232 1 -0.461885 7.34282 17.0427
12 4 4.26226 4.857 11.7389
235 2 0.456209 6.94732 16.4675
238 4 -7.14802 10.295 9.75774
336 2 -0.752834 10.7426 14.4036
241 2 -5.67833 9.51466 10.1418
242 3 -6.95882 11.7999 10.2724
140 2 -0.368665 11.8493 9.01756
120 2 3.00417 4.13457 15.7515
334 2 -0.139587 9.00264 14.2238
351 2 -5.24537 10.0835 12.9456
159 2 -4.4136 4.71277 13.3558
284 2 -5.31698 9.58858 16.4498
256 2 -8.41693 10.5528 16.1863
289 4 -2.57135 7.67073 11.9935
291 1 -1.92596 9.44855 12.1456
292 3 -2.57204 7.17879 10.397
293 1 -1.37702 6.65643 12.9367
294 2 -3.93552 7.23118 12.9454
298 2 -1.3002 9.80328 11.2481
299 2 -1.32787 9.56251 13.2884
300 2 -2.99807 9.84806 12.1146
301 2 -0.98164 5.69882 12.3923
302 2 -1.69874 6.38529 14.0254
303 2 -0.532659 7.44929 13.0006
333 1 -0.193049 9.92803 14.8911
349 2 -5.4757 9.2424 14.6632
350 2 -3.74037 9.51592 13.9629
122 2 2.00448 4.22022 17.3565
8 4 4.01099 5.63887 17.3626
134 2 3.98788 5.56361 14.2619
288 4 -2.60896 6.72678 8.86258
174 2 2.75603 7.7752 9.91319
54 1 3.8022 6.05654 13.2526
130 2 2.21909 5.35011 10.6436
67 1 11.3786 4.63242 8.44853
16 4 7.48257 6.50238 0.757921
17 4 10.3817 3.90436 6.96837
347 2 13.8762 1.02241 2.03865
324 2 14.8812 4.43458 3.80557
184 2 14.311 2.86836 7.34563
65 1 8.99015 2.62267 7.69268
66 1 11.5385 3.09461 5.57296
341 2 13.3482 3.27583 2.32393
62 3 5.26759 5.44448 2.60874
71 3 7.29878 5.66396 4.66305
72 3 9.44699 5.13895 6.22583
138 2 10.4223 -1.0011 7.56513
139 2 11.997 -1.35874 8.5646
147 2 8.70587 1.98237 6.75107
148 2 7.99071 3.03198 8.09584
150 2 11.1341 3.49647 4.61032
151 2 11.4117 1.98745 5.69487
152 2 12.5093 3.47552 5.88959
372 2 16.688 0.781945 3.83373
157 2 10.3859 5.9764 3.70033
177 4 15.7376 1.12409 7.83737
64 2 6.69089 5.38047 1.72243
223 1 11.6812 6.22473 0.492414
225 2 10.7689 5.88324 1.11211
343 2 11.8737 4.55567 1.63263
342 2 11.7755 3.85491 3.41477
259 4 11.9188 2.17157 1.02283
262 2 10.6027 2.57166 2.25096
304 4 15.4007 0.0949039 4.76611
305 1 14.8761 1.55972 3.68119
306 3 15.563 0.493482 6.28727
307 2 13.6713 1.19389 3.8298
308 2 15.2305 1.30126 2.6057
309 2 15.113 2.71408 4.05227
346 2 12.2424 -0.0126016 1.3954
340 1 12.1294 3.63976 2.3388
149 2 9.53151 2.02854 8.50534
344 1 13.0912 0.756693 1.11172
319 2 13.3084 1.85468 8.59632
345 2 13.6294 0.582232 0.150408
316 1 14.3395 2.2796 8.38192
182 3 17.1271 1.3953 8.48301
155 2 12.1671 3.86272 8.59032
68 3 6.56817 3.77897 8.76189
370 3 8.55638 5.83131 0.107771
323 2 15.915 3.59307 5.31232
317 2 14.7787 2.84217 9.22064
51 1 7.49713 2.0732 12.6565
187 1 17.8181 -0.00991581 12.3958
311 2 15.9191 -1.85988 14.2732
76 3 6.53495 3.55198 14.711
368 2 15.1353 -2.227 16.1366
127 2 8.31426 2.66749 13.0983
128 2 7.41104 2.26376 11.5366
369 2 16.7651 -2.85101 16.7346
310 4 17.4906 -2.64185 14.6505
161 2 13.3543 3.38712 14.0981
169 2 8.70042 4.53774 10.5755
153 2 10.6136 4.65072 9.27669
193 2 17.0696 0.257708 11.5406
315 2 19.6684 -2.2788 15.9581
77 3 7.76047 3.68393 17.2689
366 1 15.9321 -2.92201 15.863
260 4 12.3938 -0.0357412 15.5529
261 4 12.8389 -2.31798 13.1448
263 3 12.8339 -0.672215 17.1771
264 1 13.1711 1.64607 15.0629
265 1 10.4905 0.222862 15.8184
266 3 12.6729 -1.25983 14.3457
194 2 17.4839 0.224665 13.4275
269 1 11.6387 -1.85087 11.7799
270 2 13.3507 1.43741 13.9008
271 2 14.0982 2.11556 15.5807
272 2 12.1763 2.25088 15.2693
273 2 10.1896 0.346335 14.7078
274 2 10.32 1.24887 16.6
275 2 10.0396 -0.700887 16.1856
276 2 12.4463 -1.85131 10.9345
277 2 11.0486 -0.949885 11.8957
195 2 18.3065 -1.03 12.2418
318 2 14.5252 0.454178 9.02753
227 2 13.1671 2.47917 16.9465
312 1 18.8691 -1.64546 15.3645
313 2 18.3165 -0.809185 15.9454
73 1 13.4879 4.4128 13.6172
63 3 4.70747 6.16546 5.22406
23 4 7.13706 8.83738 2.89125
24 4 3.44125 11.1294 5.21915
25 4 5.63266 11.2665 1.75964
26 4 7.42232 7.99652 7.86099
28 4 5.84189 10.3714 6.82287
364 2 2.43884 11.5069 0.336368
156 2 8.98973 7.11475 3.04618
83 3 6.22418 7.8701 3.72415
84 3 8.10647 7.94078 1.7921
85 3 8.14432 10.1061 3.65796
86 3 2.81973 10.3178 3.92439
87 3 4.23616 12.6614 4.38367
88 3 2.11431 11.4372 6.13683
89 3 6.20735 9.87776 1.95167
90 2 4.98506 12.0191 3.08877
92 3 8.25627 7.67022 6.58565
371 3 6.72088 12.194 1.1405
97 3 7.1773 10.6509 6.00459
98 3 4.49409 10.4087 6.08677
99 3 5.79911 8.69559 7.48042
100 2 5.83749 11.4206 8.13659
255 2 8.50651 9.94191 0.599817
123 2 3.6296 8.29351 6.59956
70 1 9.61522 6.8134 3.9692
19 4 8.60742 6.17884 5.38444
158 2 10.1858 7.68614 4.49486
222 4 11.432 7.93123 0.329513
229 2 9.5498 11.4826 5.36546
228 4 8.40145 10.2482 5.18855
373 2 4.2663 11.1679 0.651282
230 2 9.19646 8.89394 5.86757
249 2 10.8348 9.9106 7.681
224 2 10.508 8.83907 1.37264
58 1 0.21605 12.3043 8.21839
251 1 9.09286 10.7142 0.0290847
91 3 7.08868 6.6598 8.62459
124 2 3.75764 7.20172 8.26271
15 4 5.90544 6.38209 4.18532
226 2 12.9552 7.35189 1.18255
154 2 11.7079 5.65132 8.15569
14 4 0.63953 11.117 6.70259
253 2 9.90598 11.2623 0.68181
18 4 6.61657 5.52472 9.58243
362 2 3.35324 7.6742 16.1653
21 4 6.78292 4.4905 16.0806
22 4 10.7976 7.24787 13.5757
27 4 4.52486 9.19761 10.4856
29 4 7.89247 7.13213 14.8942
30 4 6.95507 8.80726 12.6848
69 3 5.22265 5.58488 10.5168
75 3 13.1072 5.11407 16.4013
20 4 13.4172 5.79959 14.9121
78 3 5.47051 4.9006 16.715
244 2 9.18847 11.7337 10.4081
80 1 8.11483 5.4365 10.7642
81 1 11.1195 6.4131 11.8586
82 3 12.1033 6.86677 14.5301
254 2 10.9418 6.94456 16.6163
94 2 4.20437 10.8359 10.4451
95 1 3.02322 8.24977 10.9704
367 2 4.79538 10.091 15.7966
101 3 7.45609 5.92515 15.8694
102 3 9.3101 6.88437 14.1507
103 3 8.3186 8.39864 16.0857
104 3 8.28083 8.60994 11.6085
105 3 5.63308 8.91082 11.6012
106 3 6.71522 7.51459 13.7989
107 3 7.09888 10.164 13.5409
133 2 4.23589 7.05892 13.1198
335 2 0.809261 10.3445 15.3815
268 2 3.62176 11.2621 12.8651
240 3 10.6317 9.49673 10.3353
165 2 10.9364 9.23414 12.1312
167 2 10.4485 9.63045 13.9589
168 2 8.69588 6.41398 10.6225
170 2 7.50963 5.3379 11.7478
171 2 11.7963 5.43499 12.0774
172 2 11.6888 7.09963 11.2302
173 2 10.0669 6.0924 11.4877
175 2 2.35997 9.1526 11.3214
237 4 8.71799 9.34553 10.2718
239 1 8.1991 11.1419 10.5178
245 2 7.75184 11.1464 11.5494
250 4 9.22097 8.75689 17.286
246 2 7.44253 11.3544 9.67649
96 2 5.12752 9.01163 8.88557
278 2 0.229641 11.1521 11.8508
267 2 1.38616 10.1952 13.713
160 2 12.7407 4.66628 12.7137
361 1 4.16422 7.61077 16.9376
176 2 3.34207 7.4205 11.874
363 2 5.14179 7.96134 16.505
79 1 11.157 9.11668 13.2573
93 3 8.18051 9.0077 8.78784
ITEM: TIMESTEP
100
ITEM: NUMBER OF ATOMS
373
ITEM: BOX BOUNDS xy xz yz pp pp pp
-1.0799797200000000e+01 2.0448819299999997e+01 -1.0799797200000000e+01
-3.3405999999999998e+00 1.4057499999999999e+01 1.3900946999999999e+00
0.0000000000000000e+00 1.7550000000000001e+01 -3.3405999999999998e+00
ITEM: ATOMS id type x y z
3 4 4.66703 1.35738 2.84478
4 4 6.46433 -1.23399 7.02086
5 4 5.87203 1.47939 5.54642
7 4 4.19474 4.43902 2.09522
9 4 5.26162 3.39855 8.01326
117 2 2.33167 3.98944 0.54682
33 3 5.88007 0.565503 2.21295
34 2 3.35693 0.415815 2.43498
356 1 -1.44686 5.18994 8.50042
36 3 4.68992 1.3705 4.39906
37 3 6.20559 0.0461655 6.15852
41 3 4.31331 2.85366 2.32272
42 1 3.15235 4.87551 0.613815
43 2 2.57182 5.04023 2.44041
325 1 -0.194837 4.95858 5.5412
46 3 5.56798 2.48212 6.81382
214 2 -3.45232 5.70861 0.344654
48 3 4.29957 4.54906 7.58019
328 2 0.536185 4.87399 4.68469
321 1 -3.54912 4.54724 4.98173
359 2 -1.02375 5.04527 7.38182
204 1 -2.38734 5.53502 0.0963652
330 2 8.11496 -0.174701 4.08385
178 4 1.81645 1.19678 6.68866
35 2 6.00232 -1.04503 8.71338
181 1 2.07124 2.64903 5.4737
61 2 7.22127 2.23279 4.8994
183 3 0.73018 1.59893 7.76337
326 2 -0.627564 3.95359 5.95504
190 2 2.16731 1.93563 4.51111
191 2 3.03632 3.00029 5.94724
192 2 1.28755 3.42932 5.45593
199 4 -1.11449 4.76726 1.2522
200 4 -1.86475 5.25579 4.40028
202 2 0.653375 5.01109 1.23605
203 1 0.0207251 3.26987 0.682709
205 3 -1.58518 4.81796 2.73396
210 2 -1.00714 2.55937 0.756284
211 2 0.794054 2.94102 1.4097
119 2 2.81531 5.92207 0.551049
320 2 3.20017 0.430314 7.29187
331 2 9.20367 -0.383852 2.57496
337 2 1.20904 0.0249022 5.63712
322 2 -4.08042 5.28136 5.63825
257 2 1.39503 0.000691721 0.259885
2 4 4.03485 -0.692341 10.685
6 4 4.16957 -0.064138 14.0683
287 2 7.83857 -1.12816 16.035
32 1 5.86317 -0.283674 10.5202
38 3 3.48821 -0.344876 12.2058
39 3 5.03471 -1.4425 14.64
40 1 2.83708 0.100866 15.303
50 3 5.09796 1.38324 14.1388
52 1 2.56177 4.5696 10.8344
111 2 5.60815 0.572309 9.61885
112 2 6.73584 -1.01044 10.3287
113 2 6.16562 0.288825 11.449
114 2 1.95121 -0.252041 14.5952
115 2 2.95462 1.19702 15.6589
116 2 3.19586 -0.729418 16.087
129 2 2.87342 3.97387 9.86359
131 2 1.81148 3.93439 11.5814
213 2 -0.382318 3.18023 17.4985
180 4 0.461467 1.02115 11.8982
185 2 2.04748 0.295047 12.0246
186 3 -0.0119386 1.4255 10.3485
188 1 0.649843 2.79642 12.8046
196 2 0.181561 3.61637 12.1601
197 2 1.62839 3.03212 13.2296
198 2 -0.114515 2.33789 13.6581
45 2 4.34818 2.47921 9.081
189 2 -0.416781 3.62015 9.05459
314 2 0.372409 -1.48393 14.3495
215 2 -0.841101 1.47331 16.6647
285 2 8.14306 -2.35037 14.5997
279 4 5.8471 -2.6578 15.2903
212 2 1.85263 0.0406475 17.167
281 1 7.67484 -2.16901 15.6158
11 4 6.00724 2.74279 13.7
286 2 8.19731 -2.89146 16.4338
53 3 5.02494 3.62301 12.4501
339 2 3.14793 0.370669 9.69455
179 4 -0.321126 1.89806 8.82428
283 2 5.4645 -2.65079 17.5482
120 2 2.7511 3.90289 16.1733
118 2 5.42468 1.35348 17.3468
357 2 -2.27295 4.43173 8.84197
329 1 -2.51403 13.2595 3.08395
327 2 -0.241214 5.90401 6.10424
31 1 -4.83994 11.7463 1.96788
49 1 3.17106 7.47157 7.18698
55 1 2.37255 7.36282 4.09577
332 2 -2.35913 12.1867 3.32876
57 2 0.841505 8.47785 3.64871
59 1 -0.567712 11.3724 5.20503
60 1 0.436203 9.18315 7.40342
1 4 -3.88051 13.4282 1.82086
108 2 -4.90548 11.2389 0.962924
109 2 -5.81714 11.9125 2.46611
110 2 -4.18487 11.2635 2.72463
352 1 -3.6335 11.3094 6.12819
365 2 -2.49201 12.1693 7.11189
125 2 2.12692 8.18016 7.20983
236 2 -1.9211 9.89555 0.557358
137 2 2.64909 7.50423 5.2119
141 2 -1.71665 11.3895 5.56141
145 2 0.864958 8.44219 6.62251
144 2 0.97496 9.20687 8.3768
248 2 -7.31872 11.1483 7.39503
146 2 -0.642343 9.10545 7.57299
201 4 -2.41921 8.47239 4.23764
206 1 -1.99797 8.89729 2.42487
207 3 -1.9692 6.95952 4.44244
208 1 -4.31892 8.47203 4.68338
209 2 -1.63166 9.75692 5.21459
216 2 -1.16173 8.20358 2.22731
217 2 -1.6492 9.97098 2.35336
218 2 -3.00264 8.70858 1.88029
219 2 -4.5527 8.80056 3.53924
220 2 -4.57335 9.19049 5.51261
221 2 -4.71479 7.43961 4.84092
142 2 -0.148787 10.5303 4.59309
354 2 -3.40775 10.2644 6.30077
243 1 -7.22593 10.1579 7.89001
247 2 -6.27557 9.62385 7.60877
353 2 -5.27603 11.257 6.55201
360 2 -4.62649 6.69038 7.97065
355 2 -3.50482 11.6711 5.01486
297 2 -4.09856 8.66333 8.42225
290 1 -3.82622 7.75595 7.79042
295 2 -3.99795 7.98329 6.6847
296 2 -1.98008 7.96554 7.73272
136 2 1.43355 6.75281 3.89095
234 2 -0.754384 11.7378 0.282423
135 2 3.32965 6.94108 3.50552
47 2 2.31537 6.04445 6.31324
140 2 -0.76388 11.9666 8.6822
56 3 2.38487 9.01685 1.56942
143 2 -0.385767 12.352 4.67335
10 4 4.02195 5.80086 6.53758
122 2 0.426251 8.04329 0.102894
282 2 -6.93778 10.4991 16.8053
44 1 2.43195 4.87084 16.715
121 2 1.9251 5.60304 16.0252
74 1 -4.10893 7.02027 15.1722
280 1 -5.76286 10.5629 16.8206
252 1 -8.92519 10.5146 17.1827
132 2 2.69575 6.14981 13.122
348 1 -4.82605 9.82732 13.9435
162 2 -3.14627 6.63694 14.7328
163 2 -4.11282 6.97934 16.2856
164 2 -4.42621 8.10153 14.7783
166 2 -6.71777 9.48931 13.4253
233 3 -1.67058 10.1222 17.5286
338 2 -1.85702 7.2922 16.968
231 4 -0.590774 9.18043 16.8082
232 1 -0.688497 7.22563 17.1621
12 4 4.25723 4.89707 11.6751
235 2 -0.184511 6.75174 16.2512
238 4 -7.09447 10.287 9.72791
336 2 -1.21122 10.4203 14.7299
241 2 -5.70129 9.4964 10.2531
242 3 -7.01562 11.8123 10.2015
79 1 -7.88838 9.20942 13.1426
159 2 -4.41413 4.81217 13.5251
334 2 -0.156547 8.91708 14.2139
351 2 -4.87682 10.0173 12.8647
130 2 2.21111 5.61536 10.6853
284 2 -5.23138 9.54004 16.9678
256 2 -8.89814 10.7764 16.0793
289 4 -2.65722 7.57118 12.0605
291 1 -2.01328 9.37132 12.1268
292 3 -2.74182 7.12969 10.4179
293 1 -1.54818 6.47525 13.0959
294 2 -4.00981 7.26043 13.2313
298 2 -1.45607 9.70832 11.1677
299 2 -1.43532 9.46989 13.2003
300 2 -2.99201 9.88142 12.1882
301 2 -1.53062 5.46393 12.4764
302 2 -1.81612 6.37916 14.1966
303 2 -0.570952 7.24825 12.9003
333 1 -0.39657 9.68249 14.9819
349 2 -5.60223 9.08655 14.33
350 2 -3.82492 9.3521 14.2118
358 2 -0.675065 5.4444 9.30539
54 1 3.82171 6.02177 13.1947
134 2 4.14722 5.52038 14.1395
288 4 -2.60076 6.67865 8.87184
67 1 11.577 4.55418 8.50742
16 4 7.48831 6.50631 0.750467
17 4 10.4437 3.95536 7.05877
347 2 13.8885 0.98135 2.00934
324 2 15.0388 4.35831 4.0338
184 2 14.732 3.1576 7.42242
65 1 9.01685 2.59707 7.64299
66 1 11.3707 2.99973 5.60113
341 2 13.5028 3.26583 2.07833
62 3 5.33905 5.44953 2.56394
71 3 7.34544 5.56592 4.80323
72 3 9.59687 5.15004 6.36676
138 2 11.2241 -0.818625 8.01541
155 2 12.6068 3.95744 8.422
147 2 8.83614 2.21642 6.62433
148 2 8.14097 3.16365 8.14886
150 2 11.4268 3.62728 4.66992
151 2 10.7966 2.02317 5.41706
152 2 12.4337 2.84723 6.13484
372 2 16.8306 0.531811 3.8608
157 2 10.3192 5.8035 3.62481
177 4 15.7019 1.16042 7.71975
64 2 6.79798 5.35977 1.84414
223 1 11.6018 6.24793 0.482093
225 2 10.5458 5.90107 1.10958
343 2 12.114 4.68291 1.6227
342 2 12.0561 3.84582 3.3174
259 4 11.8373 2.25359 1.01334
262 2 10.6826 2.60632 2.36215
304 4 15.4158 0.0782972 4.84052
305 1 15.1582 1.45565 3.52284
306 3 15.4952 0.668269 6.29604
307 2 13.7922 1.12807 3.7831
308 2 15.5198 1.34061 2.45318
309 2 15.4681 2.48111 3.98867
346 2 12.1396 0.0393776 1.39419
340 1 12.328 3.67405 2.25938
149 2 9.68849 1.88185 8.28868
344 1 13.0546 0.814805 1.10819
319 2 13.3903 1.7891 8.17021
345 2 13.579 0.583436 0.03649
316 1 14.3571 2.32985 8.35144
182 3 17.2148 1.40162 8.37549
370 3 8.59426 5.85688 0.182539
323 2 15.6889 3.61176 5.56967
258 2 18.5823 0.320288 0.222974
226 2 12.9258 6.77083 1.34634
317 2 14.2532 2.95816 9.31063
51 1 7.61192 2.28471 12.8319
187 1 17.9987 0.0870063 12.5254
311 2 15.9085 -1.82206 14.4227
76 3 6.62105 3.63105 14.8848
368 2 14.9564 -2.50523 16.1656
127 2 8.34557 2.76527 13.5961
128 2 7.47366 2.93108 11.8581
68 3 6.53375 3.82353 8.86519
310 4 17.5219 -2.66656 14.6257
161 2 13.5359 3.3973 14.2231
169 2 8.57857 4.06726 10.6348
153 2 11.0232 4.29327 9.43898
193 2 17.1952 0.208635 11.7559
313 2 18.464 -0.843598 15.7779
126 2 7.81297 1.21604 12.6701
315 2 19.6878 -2.37887 16.0735
260 4 12.2765 0.0202491 15.5823
261 4 12.5775 -2.37923 13.2496
263 3 12.9011 -0.543482 17.1153
264 1 13.3459 1.58249 15.1318
265 1 10.4528 0.500281 15.6828
266 3 12.2648 -1.02106 14.3413
194 2 17.7285 0.492038 13.528
269 1 11.8343 -1.89923 11.6192
270 2 13.6501 1.46822 14.0815
271 2 14.1626 1.91064 15.7867
272 2 12.3867 2.29944 15.1931
273 2 9.9012 0.857531 14.7036
274 2 10.2845 1.34192 16.5844
275 2 10.0632 -0.495448 16.0292
276 2 12.8253 -1.40238 11.2306
277 2 10.8967 -1.21269 11.7494
195 2 18.5773 -0.950947 12.5603
318 2 14.4379 0.49653 8.89224
227 2 13.1785 2.35212 16.9637
312 1 18.9371 -1.76328 15.3254
63 3 4.83559 6.12995 5.23303
23 4 7.17601 8.82176 2.80947
24 4 3.41777 11.0581 5.20243
25 4 5.63383 11.2898 1.67962
26 4 7.51822 7.95605 7.91775
28 4 5.85234 10.1997 6.8721
364 2 2.60946 11.7732 0.0841803
156 2 9.1603 7.19239 3.05984
83 3 6.25156 7.83508 3.79478
84 3 8.17652 7.97791 1.86752
85 3 8.27918 9.86289 3.65266
86 3 3.04097 10.1442 3.97765
87 3 4.28088 12.6279 4.41449
88 3 2.1542 11.3934 6.22028
89 3 6.11227 9.79401 1.93311
90 2 5.01198 12.0134 3.10561
92 3 8.34234 7.69093 6.62062
371 3 6.71035 12.2573 1.11321
97 3 7.23577 10.6078 6.0805
98 3 4.5293 10.3302 5.92129
99 3 5.86531 8.77656 7.56281
100 2 5.704 11.3687 8.07413
255 2 8.61075 9.88568 0.833675
123 2 3.89038 8.19856 6.59736
70 1 9.75638 6.74569 3.93045
19 4 8.67271 6.23717 5.34276
158 2 10.4704 7.50874 4.43105
222 4 11.4978 7.90113 0.460096
229 2 9.44669 11.5581 5.14658
228 4 8.399 10.2727 5.17378
373 2 4.16567 11.3802 0.70771
230 2 9.23566 9.00653 5.96955
249 2 10.8558 9.44873 7.83675
224 2 11.0747 9.03341 1.67871
58 1 0.266511 12.1583 8.32006
251 1 9.01404 10.6667 0.156477
91 3 7.19316 6.59631 8.75936
124 2 3.58998 7.23533 8.28888
15 4 5.98976 6.32758 4.21437
13 4 2.41033 9.00798 3.13231
154 2 11.7543 5.63056 8.34219
14 4 0.691599 11.1292 6.82363
253 2 9.81743 11.3565 0.645186
18 4 6.62213 5.51136 9.7389
362 2 3.31348 7.40812 16.091
21 4 6.84384 4.58009 16.2163
22 4 10.8458 7.29288 13.494
27 4 4.59316 9.29651 10.5728
29 4 8.01656 7.26441 14.897
30 4 6.97393 8.81326 12.635
69 3 5.45232 5.91086 10.7345
75 3 13.1424 5.14214 16.5485
20 4 13.3201 5.81328 15.087
78 3 5.2755 4.93146 16.8582
244 2 9.04547 11.8314 10.8085
80 1 8.17664 5.13423 10.8634
81 1 11.1065 6.28195 11.9076
82 3 12.1509 6.61021 14.4284
254 2 10.7684 6.82824 16.7207
94 2 4.53817 10.9891 10.0687
95 1 3.14356 8.28825 10.9617
367 2 4.67812 9.95896 15.342
101 3 7.5139 5.95451 15.6276
102 3 9.40106 6.89443 14.0438
103 3 8.37269 8.4977 15.958
104 3 8.14372 8.74529 11.4937
105 3 5.60876 9.0423 11.7452
106 3 6.75878 7.6473 13.7563
107 3 7.00562 10.2716 13.5203
133 2 4.28833 7.04047 13.1534
335 2 0.807521 10.3142 15.685
268 2 3.36687 11.2512 13.0982
240 3 10.654 9.58551 10.297
165 2 10.876 9.36788 12.0375
167 2 10.4518 9.69477 13.8096
168 2 8.77166 6.07556 10.4131
170 2 7.83134 5.34724 11.9415
171 2 12.107 5.58014 12.115
172 2 11.3108 7.16226 11.1785
173 2 10.1592 5.64803 11.723
175 2 2.45071 9.13223 11.2755
237 4 8.71613 9.60421 10.2527
239 1 8.01759 11.321 10.4521
245 2 7.1772 11.2927 11.2657
250 4 9.1341 8.76666 17.4422
246 2 7.66288 11.6666 9.44108
96 2 5.25959 8.8081 9.04693
278 2 0.7415 11.0998 11.2302
267 2 0.978766 10.1842 13.6792
93 3 8.23895 9.09968 8.85203
361 1 4.26364 7.61661 16.8389
176 2 3.34579 7.44921 11.7961
363 2 5.11337 7.94702 16.2444
366 1 5.07714 10.9078 15.8012
73 1 13.5432 4.469 13.7955
160 2 12.6857 4.6213 12.8736
139 2 1.06956 11.8249 9.13205
369 2 5.92145 10.7036 16.6454
174 2 2.95292 7.89757 9.91729
8 4 3.96899 5.72453 17.4261
77 3 7.81742 3.75938 17.2536
ITEM: TIMESTEP
200
ITEM: NUMBER OF ATOMS
373
ITEM: BOX BOUNDS xy xz yz pp pp pp
0.0000000000000000e+00 2.8722093400000002e+01 8.2630548000000008e+00
-3.3405999999999998e+00 1.4057499999999999e+01 1.3907894000000001e+00
0.0000000000000000e+00 1.7550000000000001e+01 -3.3405999999999998e+00
ITEM: ATOMS id type x y z
3 4 4.56178 1.42451 2.86115
4 4 6.48551 -1.26447 7.11516
5 4 5.92736 1.5301 5.48534
7 4 4.18293 4.4051 2.0579
9 4 5.21755 3.42493 7.87743
342 2 12.0108 3.7748 3.45257
33 3 5.67133 0.589192 2.18741
34 2 3.12827 0.615158 2.50592
337 2 1.69822 -0.107384 5.75422
36 3 4.68141 1.4369 4.50158
37 3 6.15392 0.090726 6.31068
41 3 4.4042 2.88646 2.34598
42 1 3.173 4.99936 0.594393
63 3 4.88018 5.98557 5.29083
320 2 3.30839 0.893713 7.61088
46 3 5.70654 2.65534 6.61569
191 2 3.21865 3.00927 5.79789
48 3 4.25198 4.64696 7.63181
68 3 6.49581 3.86672 8.78954
61 2 7.31417 1.83804 4.63181
154 2 11.9627 5.3776 8.21862
330 2 8.0812 -0.0239114 3.91539
67 1 11.6769 4.31253 8.5628
343 2 12.0761 4.59232 1.71292
16 4 7.602 6.68038 0.641649
17 4 10.3774 3.86656 7.07386
370 3 8.6065 5.88036 0.0483864
65 1 9.05319 2.70437 7.94274
66 1 11.4078 3.03137 5.6598
62 3 5.34578 5.46331 2.65707
71 3 7.51997 5.58205 4.61253
72 3 9.67222 5.06504 6.31452
283 2 4.34398 0.521215 0.0236973
155 2 12.5986 3.56005 8.46559
147 2 8.80329 1.94963 7.13889
148 2 8.12748 3.25496 8.21362
150 2 11.2508 3.45857 4.54561
151 2 10.819 1.99125 5.82919
157 2 10.7693 6.02843 3.88808
64 2 6.5702 5.59727 1.61828
223 1 11.7634 6.22837 0.539792
262 2 10.7847 2.55683 2.34807
225 2 10.6078 6.00817 1.11811
190 2 2.20051 2.11801 4.41741
2 4 3.99533 -0.659731 10.64
6 4 4.16562 -0.12317 14.0427
287 2 7.67063 -1.15293 16.1752
32 1 5.81818 -0.398732 10.5813
38 3 3.55481 -0.171421 12.3586
39 3 5.09241 -1.36754 14.6673
118 2 5.45779 1.2552 17.3346
50 3 5.07201 1.2692 14.1502
264 1 13.2102 1.51162 15.1255
111 2 5.8354 0.373219 9.72579
112 2 6.55747 -1.30448 10.4592
113 2 5.80668 0.10123 11.7673
339 2 2.95442 0.11855 9.46848
53 3 4.98447 3.63603 12.5204
116 2 2.60583 -1.09541 15.708
286 2 8.286 -2.97052 16.6291
11 4 5.87738 2.70486 13.6342
281 1 7.70633 -2.22269 15.8264
279 4 5.95328 -2.77313 15.3386
285 2 8.07101 -2.27235 14.7784
35 2 6.10424 -1.24788 8.78811
51 1 7.48769 2.06915 12.8939
76 3 6.35091 3.66223 14.8465
227 2 13.2231 2.38574 16.9053
127 2 8.26253 2.589 13.5904
128 2 7.29583 2.52152 11.8112
265 1 10.2651 0.408541 15.6699
260 4 12.0976 -0.0619559 15.6555
275 2 9.81429 -0.540156 16.1464
274 2 10.2034 1.40167 16.4584
273 2 9.9452 0.536979 14.5629
272 2 12.2862 2.28693 15.1383
161 2 13.5099 3.37326 14.3713
169 2 8.39993 4.08222 10.7784
153 2 10.8828 4.19225 9.43329
126 2 7.51694 0.916479 12.9193
45 2 4.32326 2.38033 8.83265
149 2 9.51986 2.20991 8.86039
329 1 16.536 13.2993 3.11438
295 2 15.1229 8.12389 6.49154
31 1 14.1027 11.6355 1.83257
290 1 15.3453 7.70189 7.62805
297 2 14.8962 8.41423 8.34747
332 2 16.5782 12.2517 3.56153
355 2 15.7663 11.9678 5.02239
257 2 9.5106 13.7157 0.411189
353 2 13.8968 11.2465 6.46337
1 4 15.115 13.2733 1.84739
108 2 14.0563 11.3669 0.744618
109 2 13.0909 11.8212 2.2827
110 2 14.8019 11.0009 2.45898
352 1 15.607 11.4745 6.00453
365 2 16.5541 12.1392 7.2119
247 2 12.7435 9.651 7.64279
243 1 11.7903 10.3154 7.93761
354 2 15.9893 10.416 5.94292
221 2 14.2492 7.803 4.92419
220 2 14.7123 9.60727 5.33036
219 2 14.6174 9.14652 3.41786
248 2 11.762 11.3893 7.61881
208 1 14.7809 8.74833 4.57365
360 2 14.662 6.4255 7.79229
253 2 9.84484 11.2362 0.889868
23 4 7.14383 8.8408 2.82869
226 2 13.0973 6.84667 1.37272
26 4 7.55236 8.05112 7.93319
15 4 6.09023 6.33181 4.2097
156 2 9.42865 7.13679 3.147
89 3 6.19532 9.87336 2.02759
233 3 15.9619 13.3185 0.153527
83 3 6.29134 7.81459 3.78444
224 2 10.9533 8.9713 1.7167
249 2 10.8204 9.78632 7.7189
230 2 9.25441 9.054 6.17433
84 3 8.23318 7.85571 1.79097
228 4 8.44478 10.2319 5.22121
229 2 9.66648 11.4074 5.35577
222 4 11.608 7.93097 0.554506
158 2 10.2992 7.79114 4.78363
19 4 8.75359 6.19269 5.37061
70 1 9.95225 6.82181 4.10675
85 3 8.27307 9.78304 3.75303
255 2 8.49977 10.0372 0.191483
92 3 8.32144 7.7739 6.45812
331 2 17.4348 13.5557 2.51532
282 2 12.1392 10.5598 16.9255
350 2 15.2995 9.55831 13.7972
349 2 13.5399 9.00383 14.2195
74 1 14.9851 7.05112 15.224
280 1 13.3143 10.5016 16.7948
252 1 10.1222 10.6512 17.1823
300 2 16.0607 9.69425 11.9834
348 1 14.2076 9.79409 13.7976
162 2 15.9687 6.50051 14.9468
163 2 14.9006 7.12418 16.3737
164 2 14.711 8.05276 14.6898
166 2 12.2664 9.45059 13.3812
167 2 10.4539 9.55596 13.8317
294 2 15.1749 7.02891 13.2801
291 1 17.091 9.32694 12.1961
256 2 10.6071 10.6246 16.1586
284 2 13.7427 9.42703 16.5669
351 2 13.8846 10.2829 12.852
238 4 12.1085 10.2858 9.73187
336 2 17.6635 10.4384 14.7922
241 2 13.3493 9.19266 10.1991
242 3 12.3292 11.8796 10.1974
79 1 11.1705 9.13007 13.101
159 2 14.6794 4.84139 13.5165
18 4 6.79944 5.45076 9.76401
77 3 7.93824 3.82542 17.0846
21 4 6.84522 4.59191 16.1357
22 4 11.0016 7.25357 13.5335
29 4 8.04962 7.18896 14.8268
75 3 13.1777 5.21113 16.5937
160 2 12.9085 4.63118 12.8641
73 1 13.5893 4.5011 13.8309
20 4 13.3638 5.85125 15.0735
165 2 10.893 9.35235 11.9556
80 1 8.03331 5.14077 11.1331
81 1 11.1539 6.14731 12.0098
93 3 8.36276 9.12661 8.89159
82 3 12.1709 6.81305 14.5986
254 2 11.1665 7.55959 16.5678
101 3 7.58202 5.87617 15.5935
102 3 9.41453 6.93636 14.0332
250 4 9.11749 8.87684 17.2833
103 3 8.50315 8.46861 15.8246
104 3 8.21122 9.00141 11.6332
237 4 8.76919 9.65554 10.3283
240 3 10.6409 9.77553 10.3324
173 2 10.1285 5.74424 11.8
172 2 11.3387 7.05214 11.3142
171 2 11.9042 5.29645 12.1209
170 2 7.47689 5.10834 12.1167
168 2 8.90888 5.84534 11.1795
91 3 7.38504 6.67196 8.86708
299 2 17.5217 9.64746 13.1913
69 3 5.39713 5.68725 10.6072
251 1 10.5756 7.62859 17.5129
244 2 9.21684 11.9598 10.2348
213 2 17.2296 6.65318 0.355348
323 2 16.287 3.48428 5.69347
182 3 17.1975 1.70469 8.29422
347 2 13.6387 0.739215 1.93854
324 2 14.9076 3.96917 4.38905
184 2 14.9272 3.34752 7.96293
316 1 14.2527 2.27921 8.33748
327 2 19.011 5.87095 6.14049
341 2 13.4518 3.18184 2.24551
319 2 13.3527 1.98428 7.61866
344 1 12.9322 0.67562 0.994138
340 1 12.3082 3.66199 2.33305
138 2 11.9834 -1.35453 8.57319
346 2 12.0183 -0.0748781 1.15035
309 2 15.6487 2.33115 3.67963
308 2 15.2267 1.17166 2.19607
307 2 13.8179 1.26576 3.85093
306 3 15.5961 0.641357 6.18737
178 4 21.06 1.29268 6.64975
372 2 16.8255 0.543555 3.84542
305 1 15.1562 1.39223 3.27652
177 4 15.7913 1.29968 7.79494
304 4 15.3629 0.0817267 4.6987
259 4 11.8678 2.18493 1.02973
117 2 21.2737 4.53443 0.516822
356 1 17.727 5.38684 8.57788
322 2 15.235 5.08959 5.85365
43 2 21.6561 4.95912 2.44721
325 1 18.8827 4.88504 5.56179
214 2 15.7361 5.48407 0.603924
119 2 22.1243 6.14383 0.584094
211 2 19.677 2.74767 1.30814
210 2 17.9486 2.5962 0.472676
205 3 17.6315 4.8727 2.80621
203 1 18.9884 3.20835 0.525792
202 2 19.5349 5.04673 0.710889
200 4 17.2134 5.27846 4.49123
199 4 17.8618 4.70338 1.24522