LAMMPS (2 Aug 2023 - Update 2)
  using 2 OpenMP thread(s) per MPI task
# Initialization
units           real
dimension       3
boundary        p p p
atom_style      full
timestep        0.5   # fs

# Define MD parameters
variable nevery equal 10                  # sampling interval
variable nrepeat equal 10                 # number of samples
variable nthermo equal ${nevery}*${nrepeat}           # interval for thermo output
variable nthermo equal 10*${nrepeat}           
variable nthermo equal 10*10           
variable nfreq equal ${nthermo} # length of one average
variable nfreq equal 100 
# 1 ps : 1e3 fs / 0.5 fs = 2e3 steps
variable nequil equal 20*${nthermo}       # steps of equilibration run 20
variable nequil equal 20*100       
variable nrun equal 20*${nthermo}          # stpes of equilibrated run 20
variable nrun equal 20*100          
variable temp equal 300.0                # temperature of initial sample
variable tdamp equal 50.0                 # time constant for thermostat
variable seed equal 123457                # seed for thermostat
variable ufac equal 1.01325e-4         # pressure unit conversion, from atm to Gpa
variable up equal 0.01                  # the deformation magnitude 2.0e-2

# Read the initial sctructure
# box tilt large
variable structure string 333U-50C-33-vasp
read_data       ${structure}.data
read_data       333U-50C-33-vasp.data
Reading data file ...
  triclinic box = (0 0 0) to (15.3172 13.8463 18.3222) with tilt (-7.7318 0.2463 -0.1382)
WARNING: Triclinic box skew is large. LAMMPS will run inefficiently. (src/domain.cpp:220)
  2 by 2 by 2 MPI processor grid
  reading atoms ...
  365 atoms
Finding 1-2 1-3 1-4 neighbors ...
  special bond factors lj:    0        0        0       
  special bond factors coul:  0        0        0       
     0 = max # of 1-2 neighbors
     0 = max # of 1-3 neighbors
     0 = max # of 1-4 neighbors
     1 = max # of special neighbors
  special bonds CPU = 0.001 seconds
  read_data CPU = 0.008 seconds

# Energy minimization
print "*****Minimization starts.*****"
*****Minimization starts.*****
velocity        all create ${temp} ${seed} dist gaussian
velocity        all create 300 ${seed} dist gaussian
velocity        all create 300 123457 dist gaussian
minimize 1.0e-6 1.0e-6 100 1000
WARNING: No pairwise cutoff or binsize set. Atom sorting therefore disabled. (src/atom.cpp:2366)
WARNING: Communication cutoff is 0.0. No ghost atoms will be generated. Atoms may get lost. (src/comm_brick.cpp:210)
Per MPI rank memory allocation (min/avg/max) = 6.865 | 6.865 | 6.865 Mbytes
   Step          Temp          E_pair         E_mol          TotEng         Press     
         0   300            0              0              325.50446      3829.1207    
         1   300            0              0              325.50446      3829.1207    
Loop time of 6.71624e-05 on 16 procs for 1 steps with 365 atoms

57.9% CPU use with 8 MPI tasks x 2 OpenMP threads

Minimization stats:
  Stopping criterion = search direction is not downhill
  Energy initial, next-to-last, final = 
                     0                  0                  0
  Force two-norm initial, final = 0 0
  Force max component initial, final = 0 0
  Final line search alpha, max atom move = 0 0
  Iterations, force evaluations = 1 0

MPI task timing breakdown:
Section |  min time  |  avg time  |  max time  |%varavg| %total
---------------------------------------------------------------
Pair    | 0          | 0          | 0          |   0.0 |  0.00
Bond    | 1.22e-07   | 2.4837e-07 | 3.41e-07   |   0.0 |  0.37
Neigh   | 0          | 0          | 0          |   0.0 |  0.00
Comm    | 8.13e-07   | 1.3386e-06 | 1.693e-06  |   0.0 |  1.99
Output  | 0          | 0          | 0          |   0.0 |  0.00
Modify  | 0          | 0          | 0          |   0.0 |  0.00
Other   |            | 6.558e-05  |            |       | 97.64

Nlocal:         45.625 ave          49 max          40 min
Histogram: 1 0 0 1 0 1 1 2 1 1
Nghost:              0 ave           0 max           0 min
Histogram: 8 0 0 0 0 0 0 0 0 0
Neighs:              0 ave           0 max           0 min
Histogram: 8 0 0 0 0 0 0 0 0 0

Total # of neighbors = 0
Ave neighs/atom = 0
Ave special neighs/atom = 0
Neighbor list builds = 0
Dangerous builds = 0
min_style cg

# Equilibration
include ff.mod.lmp
# Setup forcefield, system
# undefine any fix ave/* fix before using reset_timestep
if "$(is_defined(fix,avgp))" then "unfix avgp"
reset_timestep 0

# Assign the force field
pair_style reaxff NULL safezone 3.0 mincap 150
# pair_coeff * * CHONSSi.ff O Si
# pair_coeff * * CHOSiNa.ff O Si
# pair_coeff * * SiOCHN_2018.ff O Si
# pair_coeff * * PDMSDecomp.ff Si O
pair_coeff * * CHONSi.ff C H O Si
# pair_coeff * * CHOFe.ff O Si

# charge method for reaxff
fix myqeq all qeq/reaxff 1 0.0 10.0 1.0e-6 reaxff maxiter 400
# Setup neighbor style
neighbor        2 bin
neigh_modify    every 10 delay 0 check no

# Setup output
fix avgp all ave/time  ${nevery} ${nrepeat} ${nfreq} c_thermo_press mode vector
fix avgp all ave/time  10 ${nrepeat} ${nfreq} c_thermo_press mode vector
fix avgp all ave/time  10 10 ${nfreq} c_thermo_press mode vector
fix avgp all ave/time  10 10 100 c_thermo_press mode vector
thermo		${nthermo}
thermo		100
thermo_style custom step temp pe press f_avgp[1] vol
thermo_modify norm no

# NVT
fix 4 all nvt temp ${temp} ${temp} ${tdamp}
fix 4 all nvt temp 300 ${temp} ${tdamp}
fix 4 all nvt temp 300 300 ${tdamp}
fix 4 all nvt temp 300 300 50
thermo_style custom step temp pe press f_avgp[1] density vol
WARNING: New thermo_style command, previous thermo_modify settings will be lost (src/output.cpp:903)
run ${nequil}
run 2000

CITE-CITE-CITE-CITE-CITE-CITE-CITE-CITE-CITE-CITE-CITE-CITE-CITE

Your simulation uses code contributions which should be cited:

- pair reaxff command: doi:10.1016/j.parco.2011.08.005

@Article{Aktulga12,
 author = {H. M. Aktulga and J. C. Fogarty and S. A. Pandit and A. Y. Grama},
 title = {Parallel Reactive Molecular Dynamics: {N}umerical Methods and Algorithmic Techniques},
 journal = {Parallel Computing},
 year =    2012,
 volume =  38,
 number =  {4--5},
 pages =   {245--259}
}

- fix qeq/reaxff command: doi:10.1016/j.parco.2011.08.005

@Article{Aktulga12,
 author = {H. M. Aktulga and J. C. Fogarty and S. A. Pandit and A. Y. Grama},
 title = {Parallel Reactive Molecular Dynamics: {N}umerical Methods and Algorithmic Techniques},
 journal = {Parallel Computing},
 year =    2012,
 volume =  38,
 pages =   {245--259}
}

CITE-CITE-CITE-CITE-CITE-CITE-CITE-CITE-CITE-CITE-CITE-CITE-CITE

WARNING: Fix qeq/reaxff group is not charge neutral, net charge = -6.56 (src/REAXFF/fix_qeq_reaxff.cpp:392)
Neighbor list info ...
  update: every = 10 steps, delay = 0 steps, check = no
  max neighbors/atom: 2000, page size: 100000
  master list distance cutoff = 12
  ghost atom cutoff = 12
  binsize = 6, bins = 4 3 4
  2 neighbor lists, perpetual/occasional/extra = 2 0 0
  (1) pair reaxff, perpetual
      attributes: half, newton off, ghost
      pair build: half/bin/newtoff/ghost
      stencil: full/ghost/bin/3d
      bin: standard
  (2) fix qeq/reaxff, perpetual, copy from (1)
      attributes: half, newton off
      pair build: copy
      stencil: none
      bin: none
Per MPI rank memory allocation (min/avg/max) = 128.4 | 129.2 | 130.2 Mbytes
   Step          Temp          PotEng         Press        f_avgp[1]       Density         Volume    
         0   300           -40992.445      106056.12      0              1.701333       3885.8921    
       100   730.39325     -41829.673     -11738.092      6484.9508      1.701333       3885.8921    
       200   561.72467     -42061.933     -14955.541     -2746.059       1.701333       3885.8921    
       300   429.03922     -42223.358      2763.8074     -2658.0657      1.701333       3885.8921    
       400   359.4547      -42361.768      1600.9963      2434.4571      1.701333       3885.8921    
       500   343.07771     -42481.787      10895.987      2321.2304      1.701333       3885.8921    
       600   293.69259     -42515.503     -4863.9136     -2476.7893      1.701333       3885.8921    
       700   263.21451     -42520.399      1912.1215     -5092.0305      1.701333       3885.8921    
       800   283.66691     -42536.97       3859.1217     -1086.0218      1.701333       3885.8921    
       900   317.85542     -42538.759      312.94207     -3849.5848      1.701333       3885.8921    
      1000   317.93725     -42517.622     -10403.552     -7795.0465      1.701333       3885.8921    
      1100   328.84459     -42531.149     -1897.5272     -9528.3707      1.701333       3885.8921    
      1200   304.21833     -42539.433     -3992.1591     -2448.5491      1.701333       3885.8921    
      1300   278.04415     -42546.887     -3007.7291     -2722.4032      1.701333       3885.8921    
      1400   291.15934     -42568.652     -1934.5982     -9765.0881      1.701333       3885.8921    
      1500   290.21774     -42547.519     -8501.6556     -6250.9434      1.701333       3885.8921    
      1600   312.84664     -42542.604      6584.928      -7467.7197      1.701333       3885.8921    
      1700   311.11195     -42531.999      12697.154     -4297.365       1.701333       3885.8921    
      1800   310.19744     -42552.599     -8839.9016     -6189.281       1.701333       3885.8921    
      1900   270.00049     -42544.736     -14671.596     -1631.338       1.701333       3885.8921    
      2000   291.2817      -42578.594     -4215.8018     -8742.0498      1.701333       3885.8921    
Loop time of 93.2767 on 16 procs for 2000 steps with 365 atoms

Performance: 0.926 ns/day, 25.910 hours/ns, 21.442 timesteps/s, 7.826 katom-step/s
99.3% CPU use with 8 MPI tasks x 2 OpenMP threads

MPI task timing breakdown:
Section |  min time  |  avg time  |  max time  |%varavg| %total
---------------------------------------------------------------
Pair    | 52.756     | 67.954     | 78.072     | 134.5 | 72.85
Bond    | 0.00068528 | 0.00083971 | 0.0010938  |   0.0 |  0.00
Neigh   | 4.3166     | 5.444      | 6.1723     |  36.5 |  5.84
Comm    | 0.84745    | 10.964     | 26.16      | 334.8 | 11.75
Output  | 0.001124   | 0.0012558  | 0.001944   |   0.7 |  0.00
Modify  | 8.1394     | 8.8715     | 10.011     |  28.7 |  9.51
Other   |            | 0.0418     |            |       |  0.04

Nlocal:         45.625 ave          49 max          43 min
Histogram: 3 0 0 0 0 2 1 0 1 1
Nghost:        3272.25 ave        3304 max        3239 min
Histogram: 2 1 1 0 0 0 0 1 1 2
Neighs:        29976.4 ave       31924 max       28248 min
Histogram: 3 0 0 0 0 1 2 0 1 1

Total # of neighbors = 239811
Ave neighs/atom = 657.01644
Ave special neighs/atom = 0
Neighbor list builds = 200
Dangerous builds not checked
# Save the optimized structure
write_data ${structure}_opt.data
write_data 333U-50C-33-vasp_opt.data
System init for write_data ...

# Save initial pressure, box size
variable pxx0 equal f_avgp[1]
variable pyy0 equal f_avgp[2]
variable pzz0 equal f_avgp[3]
variable pxy0 equal f_avgp[4]
variable pxz0 equal f_avgp[5]
variable pyz0 equal f_avgp[6]

# use tmp to save initial box length
variable tmp equal lx
variable lx0 equal ${tmp}
variable lx0 equal 15.3172
variable tmp equal ly
variable ly0 equal ${tmp}
variable ly0 equal 13.8463
variable tmp equal lz
variable lz0 equal ${tmp}
variable lz0 equal 18.3222

# define the derivatives, w.r.t. strain tensor
# Constants uses $, variables use v_
variable d1 equal -(v_pxx1-${pxx0})/(v_delta/v_len0)*${ufac}
variable d1 equal -(v_pxx1--8742.04984277696)/(v_delta/v_len0)*${ufac}
variable d1 equal -(v_pxx1--8742.04984277696)/(v_delta/v_len0)*0.000101325
variable d2 equal -(v_pyy1-${pyy0})/(v_delta/v_len0)*${ufac}
variable d2 equal -(v_pyy1--5118.68065886489)/(v_delta/v_len0)*${ufac}
variable d2 equal -(v_pyy1--5118.68065886489)/(v_delta/v_len0)*0.000101325
variable d3 equal -(v_pzz1-${pzz0})/(v_delta/v_len0)*${ufac}
variable d3 equal -(v_pzz1--992.279525140219)/(v_delta/v_len0)*${ufac}
variable d3 equal -(v_pzz1--992.279525140219)/(v_delta/v_len0)*0.000101325
variable d4 equal -(v_pyz1-${pyz0})/(v_delta/v_len0)*${ufac}*0.5
variable d4 equal -(v_pyz1--4225.84509069967)/(v_delta/v_len0)*${ufac}*0.5
variable d4 equal -(v_pyz1--4225.84509069967)/(v_delta/v_len0)*0.000101325*0.5
variable d5 equal -(v_pxz1-${pxz0})/(v_delta/v_len0)*${ufac}*0.5
variable d5 equal -(v_pxz1-1421.5218997189)/(v_delta/v_len0)*${ufac}*0.5
variable d5 equal -(v_pxz1-1421.5218997189)/(v_delta/v_len0)*0.000101325*0.5
variable d6 equal -(v_pxy1-${pxy0})/(v_delta/v_len0)*${ufac}*0.5
variable d6 equal -(v_pxy1--1007.23124407572)/(v_delta/v_len0)*${ufac}*0.5
variable d6 equal -(v_pxy1--1007.23124407572)/(v_delta/v_len0)*0.000101325*0.5

# Write restart
write_restart equil.res
System init for write_restart ...

# dir: direction
# uxx Perturbation
variable dir equal 1
include displace.mod.lmp
# Find which reference length to use
if "${dir} == 1" then    "variable len0 equal ${lx0}"
variable len0 equal ${lx0}
variable len0 equal 15.3172
if "${dir} == 2" then    "variable len0 equal ${ly0}"
if "${dir} == 3" then    "variable len0 equal ${lz0}"
if "${dir} == 4" then    "variable len0 equal ${lz0}"
if "${dir} == 5" then    "variable len0 equal ${lz0}"
if "${dir} == 6" then    "variable len0 equal ${ly0}"

# Reset box and simulation parameters
clear
  using 2 OpenMP thread(s) per MPI task
# box tilt large
read_restart equil.res
Reading restart file ...
  restart file = 2 Aug 2023, LAMMPS = 2 Aug 2023
  restoring atom style full from restart
  triclinic box = (0 0 0) to (15.3172 13.8463 18.3222) with tilt (-7.7318 0.2463 -0.1382)
WARNING: Triclinic box skew is large. LAMMPS will run inefficiently. (src/domain.cpp:220)
  2 by 2 by 2 MPI processor grid
  pair style reaxff stores no restart info
  365 atoms
Finding 1-2 1-3 1-4 neighbors ...
  special bond factors lj:    0        0        0       
  special bond factors coul:  0        0        0       
     0 = max # of 1-2 neighbors
     0 = max # of 1-3 neighbors
     0 = max # of 1-4 neighbors
     1 = max # of special neighbors
  special bonds CPU = 0.000 seconds
  read_restart CPU = 0.003 seconds
print "*****Negative-change ${dir} starts.*****"
*****Negative-change 1 starts.*****
include ff.mod.lmp
# Setup forcefield, system
# undefine any fix ave/* fix before using reset_timestep
if "$(is_defined(fix,avgp))" then "unfix avgp"
reset_timestep 0

# Assign the force field
pair_style reaxff NULL safezone 3.0 mincap 150
# pair_coeff * * CHONSSi.ff O Si
# pair_coeff * * CHOSiNa.ff O Si
# pair_coeff * * SiOCHN_2018.ff O Si
# pair_coeff * * PDMSDecomp.ff Si O
pair_coeff * * CHONSi.ff C H O Si
# pair_coeff * * CHOFe.ff O Si

# charge method for reaxff
fix myqeq all qeq/reaxff 1 0.0 10.0 1.0e-6 reaxff maxiter 400
# Setup neighbor style
neighbor        2 bin
neigh_modify    every 10 delay 0 check no

# Setup output
fix avgp all ave/time  ${nevery} ${nrepeat} ${nfreq} c_thermo_press mode vector
fix avgp all ave/time  10 ${nrepeat} ${nfreq} c_thermo_press mode vector
fix avgp all ave/time  10 10 ${nfreq} c_thermo_press mode vector
fix avgp all ave/time  10 10 100 c_thermo_press mode vector
thermo		${nthermo}
thermo		100
thermo_style custom step temp pe press f_avgp[1] vol
thermo_modify norm no

# NVT
fix 4 all nvt temp ${temp} ${temp} ${tdamp}
fix 4 all nvt temp 300 ${temp} ${tdamp}
fix 4 all nvt temp 300 300 ${tdamp}
fix 4 all nvt temp 300 300 50
Resetting global fix info from restart file:
  fix style: nvt, fix ID: 4

# Negative deformation
variable delta equal -${up}*${len0}
variable delta equal -0.01*${len0}
variable delta equal -0.01*15.3172
variable deltaxy equal -${up}*xy
variable deltaxy equal -0.01*xy
variable deltaxz equal -${up}*xz
variable deltaxz equal -0.01*xz
variable deltayz equal -${up}*yz
variable deltayz equal -0.01*yz
if "${dir} == 1" then    "change_box all x delta 0 ${delta} xy delta ${deltaxy} xz delta ${deltaxz} remap units box"
change_box all x delta 0 ${delta} xy delta ${deltaxy} xz delta ${deltaxz} remap units box
change_box all x delta 0 -0.153172 xy delta ${deltaxy} xz delta ${deltaxz} remap units box
change_box all x delta 0 -0.153172 xy delta 0.077318 xz delta ${deltaxz} remap units box
change_box all x delta 0 -0.153172 xy delta 0.077318 xz delta -0.002463 remap units box
Changing box ...
WARNING: Triclinic box skew is large. LAMMPS will run inefficiently. (src/domain.cpp:220)
  triclinic box = (0 0 0) to (15.164028 13.8463 18.3222) with tilt (-7.7318 0.2463 -0.1382)
WARNING: Triclinic box skew is large. LAMMPS will run inefficiently. (src/domain.cpp:220)
  triclinic box = (0 0 0) to (15.164028 13.8463 18.3222) with tilt (-7.654482 0.2463 -0.1382)
WARNING: Triclinic box skew is large. LAMMPS will run inefficiently. (src/domain.cpp:220)
  triclinic box = (0 0 0) to (15.164028 13.8463 18.3222) with tilt (-7.654482 0.243837 -0.1382)
if "${dir} == 2" then    "change_box all y delta 0 ${delta} yz delta ${deltayz} remap units box"
if "${dir} == 3" then    "change_box all z delta 0 ${delta} remap units box"
if "${dir} == 4" then    "change_box all yz delta ${delta} remap units box"
if "${dir} == 5" then    "change_box all xz delta ${delta} remap units box"
if "${dir} == 6" then    "change_box all xy delta ${delta} remap units box"

# Run MD for Negative deformation
# save trajectory
dump dump_neg${dir} all custom ${nthermo} dump/neg_deform${dir}.lammpstrj id type x y z
dump dump_neg1 all custom ${nthermo} dump/neg_deform${dir}.lammpstrj id type x y z
dump dump_neg1 all custom 100 dump/neg_deform${dir}.lammpstrj id type x y z
dump dump_neg1 all custom 100 dump/neg_deform1.lammpstrj id type x y z
run ${nrun}
run 2000
All restart file global fix info was re-assigned
Neighbor list info ...
  update: every = 10 steps, delay = 0 steps, check = no
  max neighbors/atom: 2000, page size: 100000
  master list distance cutoff = 12
  ghost atom cutoff = 12
  binsize = 6, bins = 4 3 4
  2 neighbor lists, perpetual/occasional/extra = 2 0 0
  (1) pair reaxff, perpetual
      attributes: half, newton off, ghost
      pair build: half/bin/newtoff/ghost
      stencil: full/ghost/bin/3d
      bin: standard
  (2) fix qeq/reaxff, perpetual, copy from (1)
      attributes: half, newton off
      pair build: copy
      stencil: none
      bin: none
Per MPI rank memory allocation (min/avg/max) = 128.3 | 129.5 | 130.8 Mbytes
   Step          Temp          PotEng         Press        f_avgp[1]        Volume    
         0   291.2817      -42567.16       54519.202      0              3847.0332    
       100   314.39196     -42590.936     -8225.4153      1234.7513      3847.0332    
       200   297.14862     -42570.659      8424.7234     -2016.4515      3847.0332    
       300   309.66599     -42576.199     -11786.832     -6545.4504      3847.0332    
       400   293.04803     -42548.646     -12529.778     -10649.814      3847.0332    
       500   294.82691     -42542.233     -1018.1558     -4102.2241      3847.0332    
       600   294.14661     -42542.648     -13374.544     -6262.8351      3847.0332    
       700   290.28435     -42538.681     -10145.5       -8645.2423      3847.0332    
       800   309.90429     -42560.73      -15066.391     -8628.1325      3847.0332    
       900   281.30448     -42551.445     -12076.326     -3371.3193      3847.0332    
      1000   292.50632     -42584.382     -6857.5474      2445.081       3847.0332    
      1100   285.1459      -42584.542      12171.683     -3460.5064      3847.0332    
      1200   301.18155     -42586.75       6805.8462     -1439.4687      3847.0332    
      1300   311.51945     -42568.503     -1212.9879      709.42797      3847.0332    
      1400   312.50376     -42556.045      8347.3665      324.73596      3847.0332    
      1500   311.39642     -42575.697     -3757.878      -7169.0195      3847.0332    
      1600   293.47312     -42584.087     -9337.0608     -6466.2948      3847.0332    
      1700   292.31544     -42588.077      9174.5505     -3675.5187      3847.0332    
      1800   295.21864     -42571.487     -4379.3579     -3155.3031      3847.0332    
      1900   317.88322     -42571.513      497.97907      1691.4125      3847.0332    
      2000   301.926       -42552.975     -5453.5283     -1187.4259      3847.0332    
Loop time of 95.3596 on 16 procs for 2000 steps with 365 atoms

Performance: 0.906 ns/day, 26.489 hours/ns, 20.973 timesteps/s, 7.655 katom-step/s
99.3% CPU use with 8 MPI tasks x 2 OpenMP threads

MPI task timing breakdown:
Section |  min time  |  avg time  |  max time  |%varavg| %total
---------------------------------------------------------------
Pair    | 53.775     | 69.792     | 79.632     | 137.2 | 73.19
Bond    | 0.00057199 | 0.00075799 | 0.00097454 |   0.0 |  0.00
Neigh   | 4.3635     | 5.5756     | 6.5131     |  39.5 |  5.85
Comm    | 1.1206     | 10.963     | 26.98      | 345.9 | 11.50
Output  | 0.0044092  | 0.0063562  | 0.0075163  |   1.4 |  0.01
Modify  | 8.0177     | 8.9702     | 10.203     |  31.6 |  9.41
Other   |            | 0.05092    |            |       |  0.05

Nlocal:         45.625 ave          49 max          41 min
Histogram: 1 0 0 1 0 0 4 1 0 1
Nghost:           3280 ave        3312 max        3236 min
Histogram: 1 0 1 1 1 0 0 0 2 2
Neighs:        30294.4 ave       32379 max       27361 min
Histogram: 1 0 0 1 0 0 4 1 0 1

Total # of neighbors = 242355
Ave neighs/atom = 663.9863
Ave special neighs/atom = 0
Neighbor list builds = 200
Dangerous builds not checked
undump dump_neg${dir}
undump dump_neg1

# Run equilibration
print "*****Equilibration neg${dir} starts.*****"
*****Equilibration neg1 starts.*****
include ff.mod.lmp
# Setup forcefield, system
# undefine any fix ave/* fix before using reset_timestep
if "$(is_defined(fix,avgp))" then "unfix avgp"
unfix avgp
reset_timestep 0

# Assign the force field
pair_style reaxff NULL safezone 3.0 mincap 150
# pair_coeff * * CHONSSi.ff O Si
# pair_coeff * * CHOSiNa.ff O Si
# pair_coeff * * SiOCHN_2018.ff O Si
# pair_coeff * * PDMSDecomp.ff Si O
pair_coeff * * CHONSi.ff C H O Si
# pair_coeff * * CHOFe.ff O Si

# charge method for reaxff
fix myqeq all qeq/reaxff 1 0.0 10.0 1.0e-6 reaxff maxiter 400
# Setup neighbor style
neighbor        2 bin
neigh_modify    every 10 delay 0 check no

# Setup output
fix avgp all ave/time  ${nevery} ${nrepeat} ${nfreq} c_thermo_press mode vector
fix avgp all ave/time  10 ${nrepeat} ${nfreq} c_thermo_press mode vector
fix avgp all ave/time  10 10 ${nfreq} c_thermo_press mode vector
fix avgp all ave/time  10 10 100 c_thermo_press mode vector
thermo		${nthermo}
thermo		100
thermo_style custom step temp pe press f_avgp[1] vol
WARNING: New thermo_style command, previous thermo_modify settings will be lost (src/output.cpp:903)
thermo_modify norm no

# NVT
fix 4 all nvt temp ${temp} ${temp} ${tdamp}
fix 4 all nvt temp 300 ${temp} ${tdamp}
fix 4 all nvt temp 300 300 ${tdamp}
fix 4 all nvt temp 300 300 50
run ${nequil}
run 2000
Neighbor list info ...
  update: every = 10 steps, delay = 0 steps, check = no
  max neighbors/atom: 2000, page size: 100000
  master list distance cutoff = 12
  ghost atom cutoff = 12
  binsize = 6, bins = 4 3 4
  2 neighbor lists, perpetual/occasional/extra = 2 0 0
  (1) pair reaxff, perpetual
      attributes: half, newton off, ghost
      pair build: half/bin/newtoff/ghost
      stencil: full/ghost/bin/3d
      bin: standard
  (2) fix qeq/reaxff, perpetual, copy from (1)
      attributes: half, newton off
      pair build: copy
      stencil: none
      bin: none
Per MPI rank memory allocation (min/avg/max) = 128.4 | 129.5 | 130.8 Mbytes
   Step          Temp          PotEng         Press        f_avgp[1]        Volume    
         0   301.926       -42552.975     -5453.507       0              3847.0332    
       100   300.82635     -42570.351      4985.6748      3059.0502      3847.0332    
       200   292.73621     -42581.752      2471.0815      5389.8288      3847.0332    
       300   285.03743     -42571.371      3655.841      -1419.0446      3847.0332    
       400   318.8204      -42603.586      9343.7021      13.351373      3847.0332    
       500   302.13905     -42583.878      801.50212     -388.56457      3847.0332    
       600   308.60288     -42581.37       3165.0747      465.05037      3847.0332    
       700   314.51232     -42551.835     -4108.0174     -7904.073       3847.0332    
       800   321.83691     -42554.86       3250.5452     -1574.7398      3847.0332    
       900   307.58224     -42570.421      4157.6232     -8451.7001      3847.0332    
      1000   296.23354     -42572.174     -11932.175     -2447.1724      3847.0332    
      1100   309.10094     -42593.222      3841.6607     -1351.0456      3847.0332    
      1200   310.35936     -42592.423      7034.3558     -217.27426      3847.0332    
      1300   311.99571     -42582.988      41.965607     -2215.1304      3847.0332    
      1400   305.78026     -42555.732      10523.515      929.95457      3847.0332    
      1500   307.52936     -42569.105     -2496.8302     -1555.8292      3847.0332    
      1600   293.74359     -42584.614      4514.1641      293.22685      3847.0332    
      1700   292.49817     -42593.624     -4449.2158     -3231.8258      3847.0332    
      1800   296.48455     -42592.869      4744.5408     -802.89077      3847.0332    
      1900   288.45964     -42565.533     -3228.9948      3512.516       3847.0332    
      2000   331.7658      -42576.312      1370.6481     -3137.7986      3847.0332    
Loop time of 95.6624 on 16 procs for 2000 steps with 365 atoms

Performance: 0.903 ns/day, 26.573 hours/ns, 20.907 timesteps/s, 7.631 katom-step/s
99.4% CPU use with 8 MPI tasks x 2 OpenMP threads

MPI task timing breakdown:
Section |  min time  |  avg time  |  max time  |%varavg| %total
---------------------------------------------------------------
Pair    | 53.717     | 70.088     | 79.976     | 139.6 | 73.27
Bond    | 0.00055388 | 0.00075629 | 0.00099383 |   0.0 |  0.00
Neigh   | 4.393      | 5.6401     | 6.6783     |  40.8 |  5.90
Comm    | 1.0262     | 10.904     | 27.264     | 353.6 | 11.40
Output  | 0.00086869 | 0.00096379 | 0.0013933  |   0.0 |  0.00
Modify  | 7.922      | 8.9821     | 10.25      |  32.9 |  9.39
Other   |            | 0.04594    |            |       |  0.05

Nlocal:         45.625 ave          49 max          41 min
Histogram: 1 0 1 0 0 2 1 1 0 2
Nghost:        3300.38 ave        3342 max        3256 min
Histogram: 1 1 0 0 2 1 1 0 0 2
Neighs:        30293.1 ave       32483 max       27379 min
Histogram: 1 0 1 0 1 2 0 1 0 2

Total # of neighbors = 242345
Ave neighs/atom = 663.9589
Ave special neighs/atom = 0
Neighbor list builds = 200
Dangerous builds not checked

# Obtain new stress tensor Negative deformation, convert index from LAMMPS to Voigt
variable pxx1 equal f_avgp[1]
variable pyy1 equal f_avgp[2]
variable pzz1 equal f_avgp[3]
variable pxy1 equal f_avgp[4]
variable pxz1 equal f_avgp[5]
variable pyz1 equal f_avgp[6]

# Compute elastic constant from pressure
# d1 = -[pxx1-pxx0]/[(]v_delta/v_len0] defined in input script
variable C1neg equal ${d1}
variable C1neg equal 56.7850753860063
variable C2neg equal ${d2}
variable C2neg equal 6.03658926766544
variable C3neg equal ${d3}
variable C3neg equal 30.1566610543534
variable C4neg equal ${d4}
variable C4neg equal 19.6226206036567
variable C5neg equal ${d5}
variable C5neg equal -0.255469225808818
variable C6neg equal ${d6}
variable C6neg equal -2.48381905514851

# Reset box and simulation parameters
clear
  using 2 OpenMP thread(s) per MPI task
# box tilt large
read_restart equil.res
Reading restart file ...
  restart file = 2 Aug 2023, LAMMPS = 2 Aug 2023
  restoring atom style full from restart
  triclinic box = (0 0 0) to (15.3172 13.8463 18.3222) with tilt (-7.7318 0.2463 -0.1382)
WARNING: Triclinic box skew is large. LAMMPS will run inefficiently. (src/domain.cpp:220)
  2 by 2 by 2 MPI processor grid
  pair style reaxff stores no restart info
  365 atoms
Finding 1-2 1-3 1-4 neighbors ...
  special bond factors lj:    0        0        0       
  special bond factors coul:  0        0        0       
     0 = max # of 1-2 neighbors
     0 = max # of 1-3 neighbors
     0 = max # of 1-4 neighbors
     1 = max # of special neighbors
  special bonds CPU = 0.000 seconds
  read_restart CPU = 0.003 seconds
print "*****Positive-change ${dir} starts.*****"
*****Positive-change 1 starts.*****
include ff.mod.lmp
# Setup forcefield, system
# undefine any fix ave/* fix before using reset_timestep
if "$(is_defined(fix,avgp))" then "unfix avgp"
reset_timestep 0

# Assign the force field
pair_style reaxff NULL safezone 3.0 mincap 150
# pair_coeff * * CHONSSi.ff O Si
# pair_coeff * * CHOSiNa.ff O Si
# pair_coeff * * SiOCHN_2018.ff O Si
# pair_coeff * * PDMSDecomp.ff Si O
pair_coeff * * CHONSi.ff C H O Si
# pair_coeff * * CHOFe.ff O Si

# charge method for reaxff
fix myqeq all qeq/reaxff 1 0.0 10.0 1.0e-6 reaxff maxiter 400
# Setup neighbor style
neighbor        2 bin
neigh_modify    every 10 delay 0 check no

# Setup output
fix avgp all ave/time  ${nevery} ${nrepeat} ${nfreq} c_thermo_press mode vector
fix avgp all ave/time  10 ${nrepeat} ${nfreq} c_thermo_press mode vector
fix avgp all ave/time  10 10 ${nfreq} c_thermo_press mode vector
fix avgp all ave/time  10 10 100 c_thermo_press mode vector
thermo		${nthermo}
thermo		100
thermo_style custom step temp pe press f_avgp[1] vol
thermo_modify norm no

# NVT
fix 4 all nvt temp ${temp} ${temp} ${tdamp}
fix 4 all nvt temp 300 ${temp} ${tdamp}
fix 4 all nvt temp 300 300 ${tdamp}
fix 4 all nvt temp 300 300 50
Resetting global fix info from restart file:
  fix style: nvt, fix ID: 4

# Positive deformation
variable delta equal ${up}*${len0}
variable delta equal 0.01*${len0}
variable delta equal 0.01*15.3172
variable deltaxy equal ${up}*xy
variable deltaxy equal 0.01*xy
variable deltaxz equal ${up}*xz
variable deltaxz equal 0.01*xz
variable deltayz equal ${up}*yz
variable deltayz equal 0.01*yz
if "${dir} == 1" then    "change_box all x delta 0 ${delta} xy delta ${deltaxy} xz delta ${deltaxz} remap units box"
change_box all x delta 0 ${delta} xy delta ${deltaxy} xz delta ${deltaxz} remap units box
change_box all x delta 0 0.153172 xy delta ${deltaxy} xz delta ${deltaxz} remap units box
change_box all x delta 0 0.153172 xy delta -0.077318 xz delta ${deltaxz} remap units box
change_box all x delta 0 0.153172 xy delta -0.077318 xz delta 0.002463 remap units box
Changing box ...
WARNING: Triclinic box skew is large. LAMMPS will run inefficiently. (src/domain.cpp:220)
  triclinic box = (0 0 0) to (15.470372 13.8463 18.3222) with tilt (-7.7318 0.2463 -0.1382)
WARNING: Triclinic box skew is large. LAMMPS will run inefficiently. (src/domain.cpp:220)
  triclinic box = (0 0 0) to (15.470372 13.8463 18.3222) with tilt (-7.809118 0.2463 -0.1382)
WARNING: Triclinic box skew is large. LAMMPS will run inefficiently. (src/domain.cpp:220)
  triclinic box = (0 0 0) to (15.470372 13.8463 18.3222) with tilt (-7.809118 0.248763 -0.1382)
if "${dir} == 2" then    "change_box all y delta 0 ${delta} yz delta ${deltayz} remap units box"
if "${dir} == 3" then    "change_box all z delta 0 ${delta} remap units box"
if "${dir} == 4" then    "change_box all yz delta ${delta} remap units box"
if "${dir} == 5" then    "change_box all xz delta ${delta} remap units box"
if "${dir} == 6" then    "change_box all xy delta ${delta} remap units box"

# Run positive deformation MD
# save trajectory
dump dump_pos${dir} all custom ${nthermo} dump/pos_deform${dir}.lammpstrj id type x y z
dump dump_pos1 all custom ${nthermo} dump/pos_deform${dir}.lammpstrj id type x y z
dump dump_pos1 all custom 100 dump/pos_deform${dir}.lammpstrj id type x y z
dump dump_pos1 all custom 100 dump/pos_deform1.lammpstrj id type x y z
run ${nrun}
run 2000
All restart file global fix info was re-assigned
Neighbor list info ...
  update: every = 10 steps, delay = 0 steps, check = no
  max neighbors/atom: 2000, page size: 100000
  master list distance cutoff = 12
  ghost atom cutoff = 12
  binsize = 6, bins = 4 3 4
  2 neighbor lists, perpetual/occasional/extra = 2 0 0
  (1) pair reaxff, perpetual
      attributes: half, newton off, ghost
      pair build: half/bin/newtoff/ghost
      stencil: full/ghost/bin/3d
      bin: standard
  (2) fix qeq/reaxff, perpetual, copy from (1)
      attributes: half, newton off
      pair build: copy
      stencil: none
      bin: none
Per MPI rank memory allocation (min/avg/max) = 126 | 127.7 | 129.1 Mbytes
   Step          Temp          PotEng         Press        f_avgp[1]        Volume    
         0   291.2817      -42547.362     -49638.352      0              3924.751     
       100   308.6807      -42568.769     -8208.4487     -13555.474      3924.751     
       200   273.38998     -42532.808     -11514.065     -10162.669      3924.751     
       300   310.90685     -42563.941     -8562.6584     -13836.545      3924.751     
       400   298.72042     -42547.706     -9831.0935     -16564.847      3924.751     
       500   293.45017     -42548.335     -5053.7704     -10904.898      3924.751     
       600   288.167       -42546.974     -6836.9825     -11769.618      3924.751     
       700   286.52372     -42546.871     -3085.4145     -13088.198      3924.751     
       800   314.54552     -42578.408     -9983.1869     -10342.169      3924.751     
       900   284.95053     -42551.297     -248.40078     -10589.05       3924.751     
      1000   298.39848     -42560.512      1228.3691     -9390.1561      3924.751     
      1100   292.20924     -42551.216     -10265.004     -10558.116      3924.751     
      1200   291.67395     -42542.921     -10255.148     -7579.5424      3924.751     
      1300   298.57759     -42536.534     -5070.6562     -11220.338      3924.751     
      1400   304.54709     -42530.563     -2962.6939     -6195.7103      3924.751     
      1500   303.16061     -42539.888     -30425.579     -12791.701      3924.751     
      1600   285.79065     -42548.333     -15551.991     -15859.475      3924.751     
      1700   297.00971     -42579.429     -1404.6296     -9422.616       3924.751     
      1800   288.79792     -42570.885     -13984.214     -12419.156      3924.751     
      1900   311.26045     -42564.769     -15128.081     -14645.672      3924.751     
      2000   314.88101     -42545.046     -9853.4867     -13818.573      3924.751     
Loop time of 93.2491 on 16 procs for 2000 steps with 365 atoms

Performance: 0.927 ns/day, 25.903 hours/ns, 21.448 timesteps/s, 7.828 katom-step/s
99.3% CPU use with 8 MPI tasks x 2 OpenMP threads

MPI task timing breakdown:
Section |  min time  |  avg time  |  max time  |%varavg| %total
---------------------------------------------------------------
Pair    | 52.365     | 68.074     | 77.776     | 137.9 | 73.00
Bond    | 0.0006195  | 0.00076743 | 0.0010025  |   0.0 |  0.00
Neigh   | 4.223      | 5.4939     | 6.491      |  40.9 |  5.89
Comm    | 1.0484     | 10.753     | 26.455     | 346.7 | 11.53
Output  | 0.0043111  | 0.0059005  | 0.0068989  |   1.2 |  0.01
Modify  | 7.8547     | 8.8751     | 10.166     |  32.8 |  9.52
Other   |            | 0.04635    |            |       |  0.05

Nlocal:         45.625 ave          49 max          41 min
Histogram: 1 1 0 0 0 1 2 1 0 2
Nghost:        3243.38 ave        3273 max        3207 min
Histogram: 1 1 0 1 1 0 0 2 0 2
Neighs:        29673.6 ave       31740 max       26815 min
Histogram: 1 1 0 0 1 0 2 1 0 2

Total # of neighbors = 237389
Ave neighs/atom = 650.38082
Ave special neighs/atom = 0
Neighbor list builds = 200
Dangerous builds not checked
undump dump_pos${dir}
undump dump_pos1

# Run equilibration
print "*****Equilibration pos${dir} starts.*****"
*****Equilibration pos1 starts.*****
include ff.mod.lmp
# Setup forcefield, system
# undefine any fix ave/* fix before using reset_timestep
if "$(is_defined(fix,avgp))" then "unfix avgp"
unfix avgp
reset_timestep 0

# Assign the force field
pair_style reaxff NULL safezone 3.0 mincap 150
# pair_coeff * * CHONSSi.ff O Si
# pair_coeff * * CHOSiNa.ff O Si
# pair_coeff * * SiOCHN_2018.ff O Si
# pair_coeff * * PDMSDecomp.ff Si O
pair_coeff * * CHONSi.ff C H O Si
# pair_coeff * * CHOFe.ff O Si

# charge method for reaxff
fix myqeq all qeq/reaxff 1 0.0 10.0 1.0e-6 reaxff maxiter 400
# Setup neighbor style
neighbor        2 bin
neigh_modify    every 10 delay 0 check no

# Setup output
fix avgp all ave/time  ${nevery} ${nrepeat} ${nfreq} c_thermo_press mode vector
fix avgp all ave/time  10 ${nrepeat} ${nfreq} c_thermo_press mode vector
fix avgp all ave/time  10 10 ${nfreq} c_thermo_press mode vector
fix avgp all ave/time  10 10 100 c_thermo_press mode vector
thermo		${nthermo}
thermo		100
thermo_style custom step temp pe press f_avgp[1] vol
WARNING: New thermo_style command, previous thermo_modify settings will be lost (src/output.cpp:903)
thermo_modify norm no

# NVT
fix 4 all nvt temp ${temp} ${temp} ${tdamp}
fix 4 all nvt temp 300 ${temp} ${tdamp}
fix 4 all nvt temp 300 300 ${tdamp}
fix 4 all nvt temp 300 300 50
run ${nequil}
run 2000
Neighbor list info ...
  update: every = 10 steps, delay = 0 steps, check = no
  max neighbors/atom: 2000, page size: 100000
  master list distance cutoff = 12
  ghost atom cutoff = 12
  binsize = 6, bins = 4 3 4
  2 neighbor lists, perpetual/occasional/extra = 2 0 0
  (1) pair reaxff, perpetual
      attributes: half, newton off, ghost
      pair build: half/bin/newtoff/ghost
      stencil: full/ghost/bin/3d
      bin: standard
  (2) fix qeq/reaxff, perpetual, copy from (1)
      attributes: half, newton off
      pair build: copy
      stencil: none
      bin: none
Per MPI rank memory allocation (min/avg/max) = 126 | 127.8 | 129.2 Mbytes
   Step          Temp          PotEng         Press        f_avgp[1]        Volume    
         0   314.88101     -42545.046     -9853.5243      0              3924.751     
       100   315.7774      -42559.424     -7433.7634     -7261.022       3924.751     
       200   305.91347     -42577.482     -10962.142     -15265.703      3924.751     
       300   299.41105     -42574.073     -9672.5374     -8884.5382      3924.751     
       400   296.9305      -42571.737     -1233.4353     -8078.7781      3924.751     
       500   289.65398     -42556.804     -10680.052     -9616.2036      3924.751     
       600   301.72425     -42544.801     -11549.029     -10198.145      3924.751     
       700   299.11311     -42538.753     -21087.762     -14005.269      3924.751     
       800   301.16732     -42547.273     -4032.3917     -6270.0454      3924.751     
       900   300.57059     -42556.976      12608.68      -8706.242       3924.751     
      1000   288.25486     -42566.615     -13687.551     -13534.816      3924.751     
      1100   272.42648     -42559.24      -4776.5893     -13596.781      3924.751     
      1200   305.58181     -42576.412     -8916.2192     -15792.8        3924.751     
      1300   282.17649     -42537.548     -1018.188      -10608.459      3924.751     
      1400   314.04003     -42568.601     -12437.784     -13638.4        3924.751     
      1500   296.84791     -42561.272     -4557.9999     -13753.438      3924.751     
      1600   297.25379     -42569.741     -13020.706     -11311.834      3924.751     
      1700   300.68629     -42576.412      2651.3038     -1866.7049      3924.751     
      1800   276.42801     -42538.317     -240.44021     -10965.777      3924.751     
      1900   301.37181     -42536.881     -12427.623     -11322.4        3924.751     
      2000   312.27845     -42544.535     -5992.4698     -8678.0265      3924.751     
Loop time of 93.5654 on 16 procs for 2000 steps with 365 atoms

Performance: 0.923 ns/day, 25.990 hours/ns, 21.375 timesteps/s, 7.802 katom-step/s
99.3% CPU use with 8 MPI tasks x 2 OpenMP threads

MPI task timing breakdown:
Section |  min time  |  avg time  |  max time  |%varavg| %total
---------------------------------------------------------------
Pair    | 52.365     | 68.294     | 78.094     | 138.8 | 72.99
Bond    | 0.00063531 | 0.00077022 | 0.0010149  |   0.0 |  0.00
Neigh   | 4.3299     | 5.5643     | 6.5205     |  39.2 |  5.95
Comm    | 1.0391     | 10.841     | 26.762     | 348.2 | 11.59
Output  | 0.0008843  | 0.00098904 | 0.0014395  |   0.0 |  0.00
Modify  | 7.8391     | 8.8185     | 10.072     |  31.7 |  9.42
Other   |            | 0.04544    |            |       |  0.05

Nlocal:         45.625 ave          50 max          42 min
Histogram: 2 0 0 3 0 0 0 2 0 1
Nghost:        3244.62 ave        3262 max        3231 min
Histogram: 2 0 1 1 0 2 0 0 1 1
Neighs:        29662.1 ave       32165 max       27425 min
Histogram: 2 0 0 2 1 0 0 2 0 1

Total # of neighbors = 237297
Ave neighs/atom = 650.12877
Ave special neighs/atom = 0
Neighbor list builds = 200
Dangerous builds not checked

# Obtain new stress tensor, convert index from LAMMPS to Voigt
variable pxx1 equal f_avgp[1]
variable pyy1 equal f_avgp[2]
variable pzz1 equal f_avgp[3]
variable pxy1 equal f_avgp[4]
variable pxz1 equal f_avgp[5]
variable pyz1 equal f_avgp[6]

# Compute elastic constant from pressure tensor
# d1 = -[pxx1-pxx0]/[(]v_delta/v_len0] defined in input script
variable C1pos equal ${d1}
variable C1pos equal -0.648716743842592
variable C2pos equal ${d2}
variable C2pos equal 7.28380337351811
variable C3pos equal ${d3}
variable C3pos equal 24.0578016116485
variable C4pos equal ${d4}
variable C4pos equal -26.4112918798002
variable C5pos equal ${d5}
variable C5pos equal 19.7486397880691
variable C6pos equal ${d6}
variable C6pos equal 1.18714223461882

# Combine positive and negative
variable C1${dir} equal 0.5*(${C1neg}+${C1pos})
variable C11 equal 0.5*(${C1neg}+${C1pos})
variable C11 equal 0.5*(56.7850753860063+${C1pos})
variable C11 equal 0.5*(56.7850753860063+-0.648716743842592)
variable C2${dir} equal 0.5*(${C2neg}+${C2pos})
variable C21 equal 0.5*(${C2neg}+${C2pos})
variable C21 equal 0.5*(6.03658926766544+${C2pos})
variable C21 equal 0.5*(6.03658926766544+7.28380337351811)
variable C3${dir} equal 0.5*(${C3neg}+${C3pos})
variable C31 equal 0.5*(${C3neg}+${C3pos})
variable C31 equal 0.5*(30.1566610543534+${C3pos})
variable C31 equal 0.5*(30.1566610543534+24.0578016116485)
variable C4${dir} equal 0.5*(${C4neg}+${C4pos})
variable C41 equal 0.5*(${C4neg}+${C4pos})
variable C41 equal 0.5*(19.6226206036567+${C4pos})
variable C41 equal 0.5*(19.6226206036567+-26.4112918798002)
variable C5${dir} equal 0.5*(${C5neg}+${C5pos})
variable C51 equal 0.5*(${C5neg}+${C5pos})
variable C51 equal 0.5*(-0.255469225808818+${C5pos})
variable C51 equal 0.5*(-0.255469225808818+19.7486397880691)
variable C6${dir} equal 0.5*(${C6neg}+${C6pos})
variable C61 equal 0.5*(${C6neg}+${C6pos})
variable C61 equal 0.5*(-2.48381905514851+${C6pos})
variable C61 equal 0.5*(-2.48381905514851+1.18714223461882)

# Delete dir to make sure it is not reused
variable dir delete
# uyy Perturbation
variable dir equal 2
include displace.mod.lmp
# Find which reference length to use
if "${dir} == 1" then    "variable len0 equal ${lx0}"
if "${dir} == 2" then    "variable len0 equal ${ly0}"
variable len0 equal ${ly0}
variable len0 equal 13.8463
if "${dir} == 3" then    "variable len0 equal ${lz0}"
if "${dir} == 4" then    "variable len0 equal ${lz0}"
if "${dir} == 5" then    "variable len0 equal ${lz0}"
if "${dir} == 6" then    "variable len0 equal ${ly0}"

# Reset box and simulation parameters
clear
  using 2 OpenMP thread(s) per MPI task
# box tilt large
read_restart equil.res
Reading restart file ...
  restart file = 2 Aug 2023, LAMMPS = 2 Aug 2023
  restoring atom style full from restart
  triclinic box = (0 0 0) to (15.3172 13.8463 18.3222) with tilt (-7.7318 0.2463 -0.1382)
WARNING: Triclinic box skew is large. LAMMPS will run inefficiently. (src/domain.cpp:220)
  2 by 2 by 2 MPI processor grid
  pair style reaxff stores no restart info
  365 atoms
Finding 1-2 1-3 1-4 neighbors ...
  special bond factors lj:    0        0        0       
  special bond factors coul:  0        0        0       
     0 = max # of 1-2 neighbors
     0 = max # of 1-3 neighbors
     0 = max # of 1-4 neighbors
     1 = max # of special neighbors
  special bonds CPU = 0.000 seconds
  read_restart CPU = 0.003 seconds
print "*****Negative-change ${dir} starts.*****"
*****Negative-change 2 starts.*****
include ff.mod.lmp
# Setup forcefield, system
# undefine any fix ave/* fix before using reset_timestep
if "$(is_defined(fix,avgp))" then "unfix avgp"
reset_timestep 0

# Assign the force field
pair_style reaxff NULL safezone 3.0 mincap 150
# pair_coeff * * CHONSSi.ff O Si
# pair_coeff * * CHOSiNa.ff O Si
# pair_coeff * * SiOCHN_2018.ff O Si
# pair_coeff * * PDMSDecomp.ff Si O
pair_coeff * * CHONSi.ff C H O Si
# pair_coeff * * CHOFe.ff O Si

# charge method for reaxff
fix myqeq all qeq/reaxff 1 0.0 10.0 1.0e-6 reaxff maxiter 400
# Setup neighbor style
neighbor        2 bin
neigh_modify    every 10 delay 0 check no

# Setup output
fix avgp all ave/time  ${nevery} ${nrepeat} ${nfreq} c_thermo_press mode vector
fix avgp all ave/time  10 ${nrepeat} ${nfreq} c_thermo_press mode vector
fix avgp all ave/time  10 10 ${nfreq} c_thermo_press mode vector
fix avgp all ave/time  10 10 100 c_thermo_press mode vector
thermo		${nthermo}
thermo		100
thermo_style custom step temp pe press f_avgp[1] vol
thermo_modify norm no

# NVT
fix 4 all nvt temp ${temp} ${temp} ${tdamp}
fix 4 all nvt temp 300 ${temp} ${tdamp}
fix 4 all nvt temp 300 300 ${tdamp}
fix 4 all nvt temp 300 300 50
Resetting global fix info from restart file:
  fix style: nvt, fix ID: 4

# Negative deformation
variable delta equal -${up}*${len0}
variable delta equal -0.01*${len0}
variable delta equal -0.01*13.8463
variable deltaxy equal -${up}*xy
variable deltaxy equal -0.01*xy
variable deltaxz equal -${up}*xz
variable deltaxz equal -0.01*xz
variable deltayz equal -${up}*yz
variable deltayz equal -0.01*yz
if "${dir} == 1" then    "change_box all x delta 0 ${delta} xy delta ${deltaxy} xz delta ${deltaxz} remap units box"
if "${dir} == 2" then    "change_box all y delta 0 ${delta} yz delta ${deltayz} remap units box"
change_box all y delta 0 ${delta} yz delta ${deltayz} remap units box
change_box all y delta 0 -0.138463 yz delta ${deltayz} remap units box
change_box all y delta 0 -0.138463 yz delta 0.001382 remap units box
Changing box ...
WARNING: Triclinic box skew is large. LAMMPS will run inefficiently. (src/domain.cpp:220)
  triclinic box = (0 0 0) to (15.3172 13.707837 18.3222) with tilt (-7.7318 0.2463 -0.1382)
WARNING: Triclinic box skew is large. LAMMPS will run inefficiently. (src/domain.cpp:220)
  triclinic box = (0 0 0) to (15.3172 13.707837 18.3222) with tilt (-7.7318 0.2463 -0.136818)
if "${dir} == 3" then    "change_box all z delta 0 ${delta} remap units box"
if "${dir} == 4" then    "change_box all yz delta ${delta} remap units box"
if "${dir} == 5" then    "change_box all xz delta ${delta} remap units box"
if "${dir} == 6" then    "change_box all xy delta ${delta} remap units box"

# Run MD for Negative deformation
# save trajectory
dump dump_neg${dir} all custom ${nthermo} dump/neg_deform${dir}.lammpstrj id type x y z
dump dump_neg2 all custom ${nthermo} dump/neg_deform${dir}.lammpstrj id type x y z
dump dump_neg2 all custom 100 dump/neg_deform${dir}.lammpstrj id type x y z
dump dump_neg2 all custom 100 dump/neg_deform2.lammpstrj id type x y z
run ${nrun}
run 2000
All restart file global fix info was re-assigned
Neighbor list info ...
  update: every = 10 steps, delay = 0 steps, check = no
  max neighbors/atom: 2000, page size: 100000
  master list distance cutoff = 12
  ghost atom cutoff = 12
  binsize = 6, bins = 4 3 4
  2 neighbor lists, perpetual/occasional/extra = 2 0 0
  (1) pair reaxff, perpetual
      attributes: half, newton off, ghost
      pair build: half/bin/newtoff/ghost
      stencil: full/ghost/bin/3d
      bin: standard
  (2) fix qeq/reaxff, perpetual, copy from (1)
      attributes: half, newton off
      pair build: copy
      stencil: none
      bin: none
Per MPI rank memory allocation (min/avg/max) = 129.2 | 130.4 | 131.5 Mbytes
   Step          Temp          PotEng         Press        f_avgp[1]        Volume    
         0   291.2817      -42565.733      44441.526      0              3847.0332    
       100   312.19075     -42587.865     -4774.1793     -5531.6926      3847.0332    
       200   294.40137     -42566.759     -4351.3598     -5501.3239      3847.0332    
       300   298.64253     -42561.83      -588.07427     -6180.0892      3847.0332    
       400   305.9766      -42565.809     -371.77058     -8745.7617      3847.0332    
       500   299.82814     -42563.785      1028.8539      750.37991      3847.0332    
       600   305.84568     -42575.834     -5303.8942     -2644.6473      3847.0332    
       700   307.97097     -42578.298     -2439.8542     -5191.4808      3847.0332    
       800   312.01411     -42583.449     -10779.371     -9115.8064      3847.0332    
       900   290.0023      -42561.459     -1420.4619     -812.42287      3847.0332    
      1000   288.75494     -42560.544     -3892.2851     -2638.8342      3847.0332    
      1100   285.47591     -42557.946     -15374.854     -6052.9168      3847.0332    
      1200   287.70355     -42556.184      5864.3666     -6059.9234      3847.0332    
      1300   299.67109     -42557.539      513.17878     -2079.7915      3847.0332    
      1400   331.64618     -42587.163      2175.7104     -357.31023      3847.0332    
      1500   300.78327     -42569.314      2519.715      -6668.8573      3847.0332    
      1600   300.79936     -42587.726      8049.5883     -9348.0325      3847.0332    
      1700   292.5081      -42585.674     -7730.943      -5584.6397      3847.0332    
      1800   292.9504      -42572.2       -10535.808     -10670.228      3847.0332    
      1900   318.17492     -42578.137     -14107.545     -8858.9322      3847.0332    
      2000   306.91929     -42569.928     -30.084396     -7327.2619      3847.0332    
Loop time of 95.9554 on 16 procs for 2000 steps with 365 atoms

Performance: 0.900 ns/day, 26.654 hours/ns, 20.843 timesteps/s, 7.608 katom-step/s
99.4% CPU use with 8 MPI tasks x 2 OpenMP threads

MPI task timing breakdown:
Section |  min time  |  avg time  |  max time  |%varavg| %total
---------------------------------------------------------------
Pair    | 53.781     | 70.17      | 79.98      | 139.9 | 73.13
Bond    | 0.00068072 | 0.0008191  | 0.0011734  |   0.0 |  0.00
Neigh   | 4.4235     | 5.6763     | 6.6869     |  40.4 |  5.92
Comm    | 1.1934     | 11.027     | 27.415     | 352.9 | 11.49
Output  | 0.0046151  | 0.0074462  | 0.0088952  |   1.9 |  0.01
Modify  | 7.9947     | 9.0245     | 10.295     |  32.5 |  9.40
Other   |            | 0.04912    |            |       |  0.05

Nlocal:         45.625 ave          50 max          43 min
Histogram: 1 1 4 0 0 0 0 1 0 1
Nghost:        3288.62 ave        3334 max        3240 min
Histogram: 1 1 1 0 0 1 1 1 1 1
Neighs:        30289.5 ave       33059 max       28705 min
Histogram: 1 1 4 0 0 0 0 1 0 1

Total # of neighbors = 242316
Ave neighs/atom = 663.87945
Ave special neighs/atom = 0
Neighbor list builds = 200
Dangerous builds not checked
undump dump_neg${dir}
undump dump_neg2

# Run equilibration
print "*****Equilibration neg${dir} starts.*****"
*****Equilibration neg2 starts.*****
include ff.mod.lmp
# Setup forcefield, system
# undefine any fix ave/* fix before using reset_timestep
if "$(is_defined(fix,avgp))" then "unfix avgp"
unfix avgp
reset_timestep 0

# Assign the force field
pair_style reaxff NULL safezone 3.0 mincap 150
# pair_coeff * * CHONSSi.ff O Si
# pair_coeff * * CHOSiNa.ff O Si
# pair_coeff * * SiOCHN_2018.ff O Si
# pair_coeff * * PDMSDecomp.ff Si O
pair_coeff * * CHONSi.ff C H O Si
# pair_coeff * * CHOFe.ff O Si

# charge method for reaxff
fix myqeq all qeq/reaxff 1 0.0 10.0 1.0e-6 reaxff maxiter 400
# Setup neighbor style
neighbor        2 bin
neigh_modify    every 10 delay 0 check no

# Setup output
fix avgp all ave/time  ${nevery} ${nrepeat} ${nfreq} c_thermo_press mode vector
fix avgp all ave/time  10 ${nrepeat} ${nfreq} c_thermo_press mode vector
fix avgp all ave/time  10 10 ${nfreq} c_thermo_press mode vector
fix avgp all ave/time  10 10 100 c_thermo_press mode vector
thermo		${nthermo}
thermo		100
thermo_style custom step temp pe press f_avgp[1] vol
WARNING: New thermo_style command, previous thermo_modify settings will be lost (src/output.cpp:903)
thermo_modify norm no

# NVT
fix 4 all nvt temp ${temp} ${temp} ${tdamp}
fix 4 all nvt temp 300 ${temp} ${tdamp}
fix 4 all nvt temp 300 300 ${tdamp}
fix 4 all nvt temp 300 300 50
run ${nequil}
run 2000
Neighbor list info ...
  update: every = 10 steps, delay = 0 steps, check = no
  max neighbors/atom: 2000, page size: 100000
  master list distance cutoff = 12
  ghost atom cutoff = 12
  binsize = 6, bins = 4 3 4
  2 neighbor lists, perpetual/occasional/extra = 2 0 0
  (1) pair reaxff, perpetual
      attributes: half, newton off, ghost
      pair build: half/bin/newtoff/ghost
      stencil: full/ghost/bin/3d
      bin: standard
  (2) fix qeq/reaxff, perpetual, copy from (1)
      attributes: half, newton off
      pair build: copy
      stencil: none
      bin: none
Per MPI rank memory allocation (min/avg/max) = 129.2 | 130.4 | 131.5 Mbytes
   Step          Temp          PotEng         Press        f_avgp[1]        Volume    
         0   306.91929     -42569.928     -30.070645      0              3847.0332    
       100   306.45216     -42584.212     -8061.1331     -7561.4638      3847.0332    
       200   293.9387      -42593.874     -5066.7058     -8668.3984      3847.0332    
       300   302.60456     -42596.317      1860.3608     -4111.1404      3847.0332    
       400   292.25424     -42580.135      15290.679     -7162.8489      3847.0332    
       500   318.41476     -42605.269     -2520.775      -5066.3213      3847.0332    
       600   311.46665     -42608.911      6277.8741     -2297.3813      3847.0332    
       700   279.27294     -42606.285     -4080.6475      21.044059      3847.0332    
       800   283.34514     -42607.58       1253.2448     -3584.089       3847.0332    
       900   304.84109     -42611.393     -8018.535      -13999.382      3847.0332    
      1000   307.10508     -42606.338      1497.1505     -7275.4803      3847.0332    
      1100   303.53513     -42597.55      -11319.184     -6281.9535      3847.0332    
      1200   286.25355     -42579.124      1674.2        -1210.6236      3847.0332    
      1300   309.1357      -42616.439     -2609.473      -1946.7527      3847.0332    
      1400   307.05715     -42631.216     -1437.8544     -6737.8462      3847.0332    
      1500   286.40598     -42601.808      3326.666      -7879.6975      3847.0332    
      1600   302.88466     -42588.479     -6859.5843     -4041.5952      3847.0332    
      1700   323.4272      -42607.641     -8741.5983     -5656.0518      3847.0332    
      1800   308.14119     -42607.41      -3657.5919     -7680.4556      3847.0332    
      1900   318.0706      -42624.645     -5239.2367     -3134.2739      3847.0332    
      2000   286.14511     -42594.935      1817.5098     -1561.6714      3847.0332    
Loop time of 96.3691 on 16 procs for 2000 steps with 365 atoms

Performance: 0.897 ns/day, 26.769 hours/ns, 20.754 timesteps/s, 7.575 katom-step/s
99.4% CPU use with 8 MPI tasks x 2 OpenMP threads

MPI task timing breakdown:
Section |  min time  |  avg time  |  max time  |%varavg| %total
---------------------------------------------------------------
Pair    | 53.981     | 70.504     | 80.792     | 139.1 | 73.16
Bond    | 0.00067971 | 0.00082865 | 0.0012313  |   0.0 |  0.00
Neigh   | 4.3168     | 5.6196     | 6.6377     |  40.7 |  5.83
Comm    | 0.87791    | 11.162     | 27.677     | 349.4 | 11.58
Output  | 0.00084289 | 0.00094783 | 0.0013429  |   0.0 |  0.00
Modify  | 8.0005     | 9.0368     | 10.357     |  32.5 |  9.38
Other   |            | 0.04489    |            |       |  0.05

Nlocal:         45.625 ave          49 max          42 min
Histogram: 1 1 1 0 0 1 0 3 0 1
Nghost:           3313 ave        3352 max        3263 min
Histogram: 1 1 2 0 0 0 0 0 0 4
Neighs:        30306.1 ave       32414 max       28092 min
Histogram: 1 1 1 0 0 0 2 2 0 1

Total # of neighbors = 242449
Ave neighs/atom = 664.24384
Ave special neighs/atom = 0
Neighbor list builds = 200
Dangerous builds not checked

# Obtain new stress tensor Negative deformation, convert index from LAMMPS to Voigt
variable pxx1 equal f_avgp[1]
variable pyy1 equal f_avgp[2]
variable pzz1 equal f_avgp[3]
variable pxy1 equal f_avgp[4]
variable pxz1 equal f_avgp[5]
variable pyz1 equal f_avgp[6]

# Compute elastic constant from pressure
# d1 = -[pxx1-pxx0]/[(]v_delta/v_len0] defined in input script
variable C1neg equal ${d1}
variable C1neg equal 72.7551849908551
variable C2neg equal ${d2}
variable C2neg equal 71.3511242887371
variable C3neg equal ${d3}
variable C3neg equal 46.7254086595398
variable C4neg equal ${d4}
variable C4neg equal 9.3348647391909
variable C5neg equal ${d5}
variable C5neg equal -3.68758408049662
variable C6neg equal ${d6}
variable C6neg equal 4.07642362842978

# Reset box and simulation parameters
clear
  using 2 OpenMP thread(s) per MPI task
# box tilt large
read_restart equil.res
Reading restart file ...
  restart file = 2 Aug 2023, LAMMPS = 2 Aug 2023
  restoring atom style full from restart
  triclinic box = (0 0 0) to (15.3172 13.8463 18.3222) with tilt (-7.7318 0.2463 -0.1382)
WARNING: Triclinic box skew is large. LAMMPS will run inefficiently. (src/domain.cpp:220)
  2 by 2 by 2 MPI processor grid
  pair style reaxff stores no restart info
  365 atoms
Finding 1-2 1-3 1-4 neighbors ...
  special bond factors lj:    0        0        0       
  special bond factors coul:  0        0        0       
     0 = max # of 1-2 neighbors
     0 = max # of 1-3 neighbors
     0 = max # of 1-4 neighbors
     1 = max # of special neighbors
  special bonds CPU = 0.000 seconds
  read_restart CPU = 0.003 seconds
print "*****Positive-change ${dir} starts.*****"
*****Positive-change 2 starts.*****
include ff.mod.lmp
# Setup forcefield, system
# undefine any fix ave/* fix before using reset_timestep
if "$(is_defined(fix,avgp))" then "unfix avgp"
reset_timestep 0

# Assign the force field
pair_style reaxff NULL safezone 3.0 mincap 150
# pair_coeff * * CHONSSi.ff O Si
# pair_coeff * * CHOSiNa.ff O Si
# pair_coeff * * SiOCHN_2018.ff O Si
# pair_coeff * * PDMSDecomp.ff Si O
pair_coeff * * CHONSi.ff C H O Si
# pair_coeff * * CHOFe.ff O Si

# charge method for reaxff
fix myqeq all qeq/reaxff 1 0.0 10.0 1.0e-6 reaxff maxiter 400
# Setup neighbor style
neighbor        2 bin
neigh_modify    every 10 delay 0 check no

# Setup output
fix avgp all ave/time  ${nevery} ${nrepeat} ${nfreq} c_thermo_press mode vector
fix avgp all ave/time  10 ${nrepeat} ${nfreq} c_thermo_press mode vector
fix avgp all ave/time  10 10 ${nfreq} c_thermo_press mode vector
fix avgp all ave/time  10 10 100 c_thermo_press mode vector
thermo		${nthermo}
thermo		100
thermo_style custom step temp pe press f_avgp[1] vol
thermo_modify norm no

# NVT
fix 4 all nvt temp ${temp} ${temp} ${tdamp}
fix 4 all nvt temp 300 ${temp} ${tdamp}
fix 4 all nvt temp 300 300 ${tdamp}
fix 4 all nvt temp 300 300 50
Resetting global fix info from restart file:
  fix style: nvt, fix ID: 4

# Positive deformation
variable delta equal ${up}*${len0}
variable delta equal 0.01*${len0}
variable delta equal 0.01*13.8463
variable deltaxy equal ${up}*xy
variable deltaxy equal 0.01*xy
variable deltaxz equal ${up}*xz
variable deltaxz equal 0.01*xz
variable deltayz equal ${up}*yz
variable deltayz equal 0.01*yz
if "${dir} == 1" then    "change_box all x delta 0 ${delta} xy delta ${deltaxy} xz delta ${deltaxz} remap units box"
if "${dir} == 2" then    "change_box all y delta 0 ${delta} yz delta ${deltayz} remap units box"
change_box all y delta 0 ${delta} yz delta ${deltayz} remap units box
change_box all y delta 0 0.138463 yz delta ${deltayz} remap units box
change_box all y delta 0 0.138463 yz delta -0.001382 remap units box
Changing box ...
WARNING: Triclinic box skew is large. LAMMPS will run inefficiently. (src/domain.cpp:220)
  triclinic box = (0 0 0) to (15.3172 13.984763 18.3222) with tilt (-7.7318 0.2463 -0.1382)
WARNING: Triclinic box skew is large. LAMMPS will run inefficiently. (src/domain.cpp:220)
  triclinic box = (0 0 0) to (15.3172 13.984763 18.3222) with tilt (-7.7318 0.2463 -0.139582)
if "${dir} == 3" then    "change_box all z delta 0 ${delta} remap units box"
if "${dir} == 4" then    "change_box all yz delta ${delta} remap units box"
if "${dir} == 5" then    "change_box all xz delta ${delta} remap units box"
if "${dir} == 6" then    "change_box all xy delta ${delta} remap units box"

# Run positive deformation MD
# save trajectory
dump dump_pos${dir} all custom ${nthermo} dump/pos_deform${dir}.lammpstrj id type x y z
dump dump_pos2 all custom ${nthermo} dump/pos_deform${dir}.lammpstrj id type x y z
dump dump_pos2 all custom 100 dump/pos_deform${dir}.lammpstrj id type x y z
dump dump_pos2 all custom 100 dump/pos_deform2.lammpstrj id type x y z
run ${nrun}
run 2000
All restart file global fix info was re-assigned
Neighbor list info ...
  update: every = 10 steps, delay = 0 steps, check = no
  max neighbors/atom: 2000, page size: 100000
  master list distance cutoff = 12
  ghost atom cutoff = 12
  binsize = 6, bins = 4 3 4
  2 neighbor lists, perpetual/occasional/extra = 2 0 0
  (1) pair reaxff, perpetual
      attributes: half, newton off, ghost
      pair build: half/bin/newtoff/ghost
      stencil: full/ghost/bin/3d
      bin: standard
  (2) fix qeq/reaxff, perpetual, copy from (1)
      attributes: half, newton off
      pair build: copy
      stencil: none
      bin: none
Per MPI rank memory allocation (min/avg/max) = 126.3 | 127.9 | 129.1 Mbytes
   Step          Temp          PotEng         Press        f_avgp[1]        Volume    
         0   291.2817      -42555.262     -51808.577      0              3924.751     
       100   304.41342     -42566.916     -11573.796     -8115.136       3924.751     
       200   281.78685     -42536.206     -5542.2094     -9013.8827      3924.751     
       300   307.07528     -42549.536     -9136.5077     -9218.5468      3924.751     
       400   288.86121     -42527.522     -938.83154     -10737.91       3924.751     
       500   298.54405     -42547.76       5267.9326     -6712.0175      3924.751     
       600   293.32621     -42549.065     -10967.855     -9104.3818      3924.751     
       700   299.39733     -42558.887     -11079.279     -7896.1181      3924.751     
       800   298.13551     -42561.412     -9585.3744     -6174.9952      3924.751     
       900   305.47378     -42567.532     -14549.527     -12074.097      3924.751     
      1000   310.88378     -42568.613      3650.2722     -5678.3592      3924.751     
      1100   286.50332     -42538.805      1249.0882     -3644.3397      3924.751     
      1200   304.46855     -42555.187     -17514.522     -6025.6683      3924.751     
      1300   296.28857     -42552.4       -13049.659     -6618.2723      3924.751     
      1400   299.65746     -42560.176     -13303.022     -7395.5045      3924.751     
      1500   299.32022     -42562.942     -3863.3498     -9878.8289      3924.751     
      1600   318.85803     -42585.826     -8080.7756     -3261.05        3924.751     
      1700   286.82296     -42565.824     -327.54572     -5284.1331      3924.751     
      1800   290.33301     -42565.046      801.34242     -6932.3054      3924.751     
      1900   292.04981     -42554.55      -17009.826     -5040.1375      3924.751     
      2000   303.27027     -42561.222     -7489.3393     -7018.6016      3924.751     
Loop time of 93.0488 on 16 procs for 2000 steps with 365 atoms

Performance: 0.929 ns/day, 25.847 hours/ns, 21.494 timesteps/s, 7.845 katom-step/s
99.4% CPU use with 8 MPI tasks x 2 OpenMP threads

MPI task timing breakdown:
Section |  min time  |  avg time  |  max time  |%varavg| %total
---------------------------------------------------------------
Pair    | 51.884     | 67.986     | 77.625     | 139.0 | 73.07
Bond    | 0.00060118 | 0.00078734 | 0.00090642 |   0.0 |  0.00
Neigh   | 4.2658     | 5.4812     | 6.4754     |  39.7 |  5.89
Comm    | 1.0988     | 10.739     | 26.839     | 349.5 | 11.54
Output  | 0.004399   | 0.0062003  | 0.0072801  |   1.3 |  0.01
Modify  | 7.77       | 8.7855     | 10.023     |  31.8 |  9.44
Other   |            | 0.05026    |            |       |  0.05

Nlocal:         45.625 ave          49 max          41 min
Histogram: 1 0 1 0 0 2 0 2 1 1
Nghost:        3242.88 ave        3271 max        3214 min
Histogram: 2 0 1 0 0 0 3 1 0 1
Neighs:        29647.9 ave       31604 max       26868 min
Histogram: 1 0 1 0 2 0 0 1 2 1

Total # of neighbors = 237183
Ave neighs/atom = 649.81644
Ave special neighs/atom = 0
Neighbor list builds = 200
Dangerous builds not checked
undump dump_pos${dir}
undump dump_pos2

# Run equilibration
print "*****Equilibration pos${dir} starts.*****"
*****Equilibration pos2 starts.*****
include ff.mod.lmp
# Setup forcefield, system
# undefine any fix ave/* fix before using reset_timestep
if "$(is_defined(fix,avgp))" then "unfix avgp"
unfix avgp
reset_timestep 0

# Assign the force field
pair_style reaxff NULL safezone 3.0 mincap 150
# pair_coeff * * CHONSSi.ff O Si
# pair_coeff * * CHOSiNa.ff O Si
# pair_coeff * * SiOCHN_2018.ff O Si
# pair_coeff * * PDMSDecomp.ff Si O
pair_coeff * * CHONSi.ff C H O Si
# pair_coeff * * CHOFe.ff O Si

# charge method for reaxff
fix myqeq all qeq/reaxff 1 0.0 10.0 1.0e-6 reaxff maxiter 400
# Setup neighbor style
neighbor        2 bin
neigh_modify    every 10 delay 0 check no

# Setup output
fix avgp all ave/time  ${nevery} ${nrepeat} ${nfreq} c_thermo_press mode vector
fix avgp all ave/time  10 ${nrepeat} ${nfreq} c_thermo_press mode vector
fix avgp all ave/time  10 10 ${nfreq} c_thermo_press mode vector
fix avgp all ave/time  10 10 100 c_thermo_press mode vector
thermo		${nthermo}
thermo		100
thermo_style custom step temp pe press f_avgp[1] vol
WARNING: New thermo_style command, previous thermo_modify settings will be lost (src/output.cpp:903)
thermo_modify norm no

# NVT
fix 4 all nvt temp ${temp} ${temp} ${tdamp}
fix 4 all nvt temp 300 ${temp} ${tdamp}
fix 4 all nvt temp 300 300 ${tdamp}
fix 4 all nvt temp 300 300 50
run ${nequil}
run 2000
Neighbor list info ...
  update: every = 10 steps, delay = 0 steps, check = no
  max neighbors/atom: 2000, page size: 100000
  master list distance cutoff = 12
  ghost atom cutoff = 12
  binsize = 6, bins = 4 3 4
  2 neighbor lists, perpetual/occasional/extra = 2 0 0
  (1) pair reaxff, perpetual
      attributes: half, newton off, ghost
      pair build: half/bin/newtoff/ghost
      stencil: full/ghost/bin/3d
      bin: standard
  (2) fix qeq/reaxff, perpetual, copy from (1)
      attributes: half, newton off
      pair build: copy
      stencil: none
      bin: none
Per MPI rank memory allocation (min/avg/max) = 126.3 | 127.9 | 129.1 Mbytes
   Step          Temp          PotEng         Press        f_avgp[1]        Volume    
         0   303.27027     -42561.222     -7489.3701      0              3924.751     
       100   302.49033     -42565.462     -4298.0601     -7023.3767      3924.751     
       200   283.24064     -42565.619     -1188.3521     -6975.6578      3924.751     
       300   292.34397     -42594.057     -2696.2437     -2489.7034      3924.751     
       400   285.54529     -42580.459     -7103.0328     -10201.769      3924.751     
       500   318.86904     -42579.905      3851.8605     -3728.7567      3924.751     
       600   302.57546     -42552.821     -12947.783     -7844.1686      3924.751     
       700   303.16114     -42543.584     -6893.2285     -9119.0827      3924.751     
       800   304.68589     -42547.89      -11516.427     -3870.5781      3924.751     
       900   292.40991     -42569.097     -10634.263     -12367.913      3924.751     
      1000   273.60101     -42558.749     -16091.97      -5024.417       3924.751     
      1100   297.45855     -42563.137      1317.3797     -10932.767      3924.751     
      1200   305.32392     -42553.016     -16199.863     -5414.1033      3924.751     
      1300   302.02011     -42553.981     -4001.5047     -7860.483       3924.751     
      1400   290.78172     -42543.612     -8566.3438     -4007.3023      3924.751     
      1500   305.6644      -42561.771     -13479.086     -4743.5118      3924.751     
      1600   302.15992     -42559.871     -3450.8448     -6332.5465      3924.751     
      1700   313.67849     -42550.494      6896.2593     -5509.7322      3924.751     
      1800   335.10378     -42546.376      10862.695     -2927.2669      3924.751     
      1900   311.99785     -42535.568      2289.2456     -7497.3779      3924.751     
      2000   289.44439     -42542.245      3583.3878     -8586.7426      3924.751     
Loop time of 93.2771 on 16 procs for 2000 steps with 365 atoms

Performance: 0.926 ns/day, 25.910 hours/ns, 21.441 timesteps/s, 7.826 katom-step/s
99.4% CPU use with 8 MPI tasks x 2 OpenMP threads

MPI task timing breakdown:
Section |  min time  |  avg time  |  max time  |%varavg| %total
---------------------------------------------------------------
Pair    | 52.029     | 68.21      | 77.824     | 139.9 | 73.13
Bond    | 0.00060423 | 0.00078464 | 0.00090076 |   0.0 |  0.00
Neigh   | 4.2751     | 5.5136     | 6.4937     |  39.4 |  5.91
Comm    | 1.1305     | 10.755     | 26.931     | 352.1 | 11.53
Output  | 0.00091049 | 0.0010254  | 0.0014279  |   0.5 |  0.00
Modify  | 7.7501     | 8.7512     | 10.012     |  31.8 |  9.38
Other   |            | 0.04579    |            |       |  0.05

Nlocal:         45.625 ave          51 max          40 min
Histogram: 1 0 1 2 0 0 1 2 0 1
Nghost:        3239.25 ave        3280 max        3195 min
Histogram: 2 0 0 0 1 2 1 0 0 2
Neighs:        29649.8 ave       32849 max       26223 min
Histogram: 1 0 1 1 1 0 1 2 0 1

Total # of neighbors = 237198
Ave neighs/atom = 649.85753
Ave special neighs/atom = 0
Neighbor list builds = 200
Dangerous builds not checked

# Obtain new stress tensor, convert index from LAMMPS to Voigt
variable pxx1 equal f_avgp[1]
variable pyy1 equal f_avgp[2]
variable pzz1 equal f_avgp[3]
variable pxy1 equal f_avgp[4]
variable pxz1 equal f_avgp[5]
variable pyz1 equal f_avgp[6]

# Compute elastic constant from pressure tensor
# d1 = -[pxx1-pxx0]/[(]v_delta/v_len0] defined in input script
variable C1pos equal ${d1}
variable C1pos equal -1.57365050957451
variable C2pos equal ${d2}
variable C2pos equal -2.42258647946019
variable C3pos equal ${d3}
variable C3pos equal -2.45357666103239
variable C4pos equal ${d4}
variable C4pos equal -8.23990806141581
variable C5pos equal ${d5}
variable C5pos equal -12.8111710545247
variable C6pos equal ${d6}
variable C6pos equal -10.3650016408493

# Combine positive and negative
variable C1${dir} equal 0.5*(${C1neg}+${C1pos})
variable C12 equal 0.5*(${C1neg}+${C1pos})
variable C12 equal 0.5*(72.7551849908551+${C1pos})
variable C12 equal 0.5*(72.7551849908551+-1.57365050957451)
variable C2${dir} equal 0.5*(${C2neg}+${C2pos})
variable C22 equal 0.5*(${C2neg}+${C2pos})
variable C22 equal 0.5*(71.3511242887371+${C2pos})
variable C22 equal 0.5*(71.3511242887371+-2.42258647946019)
variable C3${dir} equal 0.5*(${C3neg}+${C3pos})
variable C32 equal 0.5*(${C3neg}+${C3pos})
variable C32 equal 0.5*(46.7254086595398+${C3pos})
variable C32 equal 0.5*(46.7254086595398+-2.45357666103239)
variable C4${dir} equal 0.5*(${C4neg}+${C4pos})
variable C42 equal 0.5*(${C4neg}+${C4pos})
variable C42 equal 0.5*(9.3348647391909+${C4pos})
variable C42 equal 0.5*(9.3348647391909+-8.23990806141581)
variable C5${dir} equal 0.5*(${C5neg}+${C5pos})
variable C52 equal 0.5*(${C5neg}+${C5pos})
variable C52 equal 0.5*(-3.68758408049662+${C5pos})
variable C52 equal 0.5*(-3.68758408049662+-12.8111710545247)
variable C6${dir} equal 0.5*(${C6neg}+${C6pos})
variable C62 equal 0.5*(${C6neg}+${C6pos})
variable C62 equal 0.5*(4.07642362842978+${C6pos})
variable C62 equal 0.5*(4.07642362842978+-10.3650016408493)

# Delete dir to make sure it is not reused
variable dir delete
# uzz Perturbation
variable dir equal 3
include displace.mod.lmp
# Find which reference length to use
if "${dir} == 1" then    "variable len0 equal ${lx0}"
if "${dir} == 2" then    "variable len0 equal ${ly0}"
if "${dir} == 3" then    "variable len0 equal ${lz0}"
variable len0 equal ${lz0}
variable len0 equal 18.3222
if "${dir} == 4" then    "variable len0 equal ${lz0}"
if "${dir} == 5" then    "variable len0 equal ${lz0}"
if "${dir} == 6" then    "variable len0 equal ${ly0}"

# Reset box and simulation parameters
clear
  using 2 OpenMP thread(s) per MPI task
# box tilt large
read_restart equil.res
Reading restart file ...
  restart file = 2 Aug 2023, LAMMPS = 2 Aug 2023
  restoring atom style full from restart
  triclinic box = (0 0 0) to (15.3172 13.8463 18.3222) with tilt (-7.7318 0.2463 -0.1382)
WARNING: Triclinic box skew is large. LAMMPS will run inefficiently. (src/domain.cpp:220)
  2 by 2 by 2 MPI processor grid
  pair style reaxff stores no restart info
  365 atoms
Finding 1-2 1-3 1-4 neighbors ...
  special bond factors lj:    0        0        0       
  special bond factors coul:  0        0        0       
     0 = max # of 1-2 neighbors
     0 = max # of 1-3 neighbors
     0 = max # of 1-4 neighbors
     1 = max # of special neighbors
  special bonds CPU = 0.000 seconds
  read_restart CPU = 0.003 seconds
print "*****Negative-change ${dir} starts.*****"
*****Negative-change 3 starts.*****
include ff.mod.lmp
# Setup forcefield, system
# undefine any fix ave/* fix before using reset_timestep
if "$(is_defined(fix,avgp))" then "unfix avgp"
reset_timestep 0

# Assign the force field
pair_style reaxff NULL safezone 3.0 mincap 150
# pair_coeff * * CHONSSi.ff O Si
# pair_coeff * * CHOSiNa.ff O Si
# pair_coeff * * SiOCHN_2018.ff O Si
# pair_coeff * * PDMSDecomp.ff Si O
pair_coeff * * CHONSi.ff C H O Si
# pair_coeff * * CHOFe.ff O Si

# charge method for reaxff
fix myqeq all qeq/reaxff 1 0.0 10.0 1.0e-6 reaxff maxiter 400
# Setup neighbor style
neighbor        2 bin
neigh_modify    every 10 delay 0 check no

# Setup output
fix avgp all ave/time  ${nevery} ${nrepeat} ${nfreq} c_thermo_press mode vector
fix avgp all ave/time  10 ${nrepeat} ${nfreq} c_thermo_press mode vector
fix avgp all ave/time  10 10 ${nfreq} c_thermo_press mode vector
fix avgp all ave/time  10 10 100 c_thermo_press mode vector
thermo		${nthermo}
thermo		100
thermo_style custom step temp pe press f_avgp[1] vol
thermo_modify norm no

# NVT
fix 4 all nvt temp ${temp} ${temp} ${tdamp}
fix 4 all nvt temp 300 ${temp} ${tdamp}
fix 4 all nvt temp 300 300 ${tdamp}
fix 4 all nvt temp 300 300 50
Resetting global fix info from restart file:
  fix style: nvt, fix ID: 4

# Negative deformation
variable delta equal -${up}*${len0}
variable delta equal -0.01*${len0}
variable delta equal -0.01*18.3222
variable deltaxy equal -${up}*xy
variable deltaxy equal -0.01*xy
variable deltaxz equal -${up}*xz
variable deltaxz equal -0.01*xz
variable deltayz equal -${up}*yz
variable deltayz equal -0.01*yz
if "${dir} == 1" then    "change_box all x delta 0 ${delta} xy delta ${deltaxy} xz delta ${deltaxz} remap units box"
if "${dir} == 2" then    "change_box all y delta 0 ${delta} yz delta ${deltayz} remap units box"
if "${dir} == 3" then    "change_box all z delta 0 ${delta} remap units box"
change_box all z delta 0 ${delta} remap units box
change_box all z delta 0 -0.183222 remap units box
Changing box ...
WARNING: Triclinic box skew is large. LAMMPS will run inefficiently. (src/domain.cpp:220)
  triclinic box = (0 0 0) to (15.3172 13.8463 18.138978) with tilt (-7.7318 0.2463 -0.1382)
if "${dir} == 4" then    "change_box all yz delta ${delta} remap units box"
if "${dir} == 5" then    "change_box all xz delta ${delta} remap units box"
if "${dir} == 6" then    "change_box all xy delta ${delta} remap units box"

# Run MD for Negative deformation
# save trajectory
dump dump_neg${dir} all custom ${nthermo} dump/neg_deform${dir}.lammpstrj id type x y z
dump dump_neg3 all custom ${nthermo} dump/neg_deform${dir}.lammpstrj id type x y z
dump dump_neg3 all custom 100 dump/neg_deform${dir}.lammpstrj id type x y z
dump dump_neg3 all custom 100 dump/neg_deform3.lammpstrj id type x y z
run ${nrun}
run 2000
All restart file global fix info was re-assigned
Neighbor list info ...
  update: every = 10 steps, delay = 0 steps, check = no
  max neighbors/atom: 2000, page size: 100000
  master list distance cutoff = 12
  ghost atom cutoff = 12
  binsize = 6, bins = 4 3 4
  2 neighbor lists, perpetual/occasional/extra = 2 0 0
  (1) pair reaxff, perpetual
      attributes: half, newton off, ghost
      pair build: half/bin/newtoff/ghost
      stencil: full/ghost/bin/3d
      bin: standard
  (2) fix qeq/reaxff, perpetual, copy from (1)
      attributes: half, newton off
      pair build: copy
      stencil: none
      bin: none
Per MPI rank memory allocation (min/avg/max) = 128.3 | 129.5 | 130.8 Mbytes
   Step          Temp          PotEng         Press        f_avgp[1]        Volume    
         0   291.2817      -42555.881      52770.66       0              3847.0332    
       100   312.78343     -42581.886     -10157.295     -3919.2484      3847.0332    
       200   299.82529     -42572.464      7598.3348     -5012.9491      3847.0332    
       300   303.93746     -42572.351     -6945.7489     -3604.1006      3847.0332    
       400   301.36203     -42559.369     -6978.3895     -7537.4329      3847.0332    
       500   299.90161     -42543.397      9696.3162     -2586.5027      3847.0332    
       600   293.41871     -42543.094     -7016.6329     -5347.4073      3847.0332    
       700   303.41878     -42572.807     -5478.0173     -6837.7954      3847.0332    
       800   306.78653     -42592.143     -5462.1148     -8379.2801      3847.0332    
       900   297.66252     -42588.324      1721.3906     -4465.7028      3847.0332    
      1000   278.6563      -42557.579      10869.139     -2157.7069      3847.0332    
      1100   307.85427     -42569.362     -10388.991     -1748.9186      3847.0332    
      1200   305.20236     -42551.651      6929.0337     -3384.4924      3847.0332    
      1300   302.76187     -42547.863      7431.5897     -1315.4841      3847.0332    
      1400   304.52709     -42561.521     -4321.4057     -2205.1385      3847.0332    
      1500   275.06442     -42554.578     -3535.4392     -7793.5375      3847.0332    
      1600   274.86289     -42572.669     -7000.1269     -9140.472       3847.0332    
      1700   291.74158     -42583.326     -62.079522     -6114.9485      3847.0332    
      1800   311.1801      -42577.591     -11108.684     -8723.9958      3847.0332    
      1900   304.16231     -42550.748     -14669.417     -10818.292      3847.0332    
      2000   315.78968     -42572.622      1334.3657     -2784.2284      3847.0332    
Loop time of 96.0247 on 16 procs for 2000 steps with 365 atoms

Performance: 0.900 ns/day, 26.674 hours/ns, 20.828 timesteps/s, 7.602 katom-step/s
99.4% CPU use with 8 MPI tasks x 2 OpenMP threads

MPI task timing breakdown:
Section |  min time  |  avg time  |  max time  |%varavg| %total
---------------------------------------------------------------
Pair    | 54.261     | 70.39      | 80.414     | 141.3 | 73.30
Bond    | 0.00065817 | 0.00081143 | 0.0010452  |   0.0 |  0.00
Neigh   | 4.37       | 5.5986     | 6.5642     |  39.4 |  5.83
Comm    | 1.0784     | 11.103     | 27.231     | 355.6 | 11.56
Output  | 0.0045427  | 0.0072553  | 0.0086426  |   1.8 |  0.01
Modify  | 7.8868     | 8.8744     | 10.118     |  31.7 |  9.24
[...]
99.5% CPU use with 8 MPI tasks x 2 OpenMP threads

MPI task timing breakdown:
Section |  min time  |  avg time  |  max time  |%varavg| %total
---------------------------------------------------------------
Pair    | 51.071     | 57.415     | 73.627     | 121.3 | 65.23
Bond    | 0.00064757 | 0.00072466 | 0.0008271  |   0.0 |  0.00
Neigh   | 4.319      | 4.8784     | 6.4139     |  39.9 |  5.54
Comm    | 0.61417    | 16.815     | 23.147     | 223.9 | 19.10
Output  | 0.00082205 | 0.0009367  | 0.0012031  |   0.0 |  0.00
Modify  | 7.3004     | 8.8664     | 9.4457     |  30.2 | 10.07
Other   |            | 0.04042    |            |       |  0.05

Nlocal:         45.625 ave          53 max          41 min
Histogram: 2 0 2 1 1 0 0 0 1 1
Nghost:        3275.25 ave        3325 max        3228 min
Histogram: 2 0 2 0 0 0 1 1 0 2
Neighs:        29964.8 ave       34407 max       27143 min
Histogram: 2 0 2 1 1 0 0 0 1 1

Total # of neighbors = 239718
Ave neighs/atom = 656.76164
Ave special neighs/atom = 0
Neighbor list builds = 200
Dangerous builds not checked

# Obtain new stress tensor Negative deformation, convert index from LAMMPS to Voigt
variable pxx1 equal f_avgp[1]
variable pyy1 equal f_avgp[2]
variable pzz1 equal f_avgp[3]
variable pxy1 equal f_avgp[4]
variable pxz1 equal f_avgp[5]
variable pyz1 equal f_avgp[6]

# Compute elastic constant from pressure
# d1 = -[pxx1-pxx0]/[(]v_delta/v_len0] defined in input script
variable C1neg equal ${d1}
variable C1neg equal -54.69791427072
variable C2neg equal ${d2}
variable C2neg equal 13.5811851917581
variable C3neg equal ${d3}
variable C3neg equal -98.565554544076
variable C4neg equal ${d4}
variable C4neg equal 16.4995137164754
variable C5neg equal ${d5}
variable C5neg equal 1.49714624149085
variable C6neg equal ${d6}
variable C6neg equal 2.64289954668952

# Reset box and simulation parameters
clear
  using 2 OpenMP thread(s) per MPI task
# box tilt large
read_restart equil.res
Reading restart file ...
  restart file = 2 Aug 2023, LAMMPS = 2 Aug 2023
  restoring atom style full from restart
  triclinic box = (0 0 0) to (15.3172 13.8463 18.3222) with tilt (-7.7318 0.2463 -0.1382)
WARNING: Triclinic box skew is large. LAMMPS will run inefficiently. (src/domain.cpp:220)
  2 by 2 by 2 MPI processor grid
  pair style reaxff stores no restart info
  365 atoms
Finding 1-2 1-3 1-4 neighbors ...
  special bond factors lj:    0        0        0       
  special bond factors coul:  0        0        0       
     0 = max # of 1-2 neighbors
     0 = max # of 1-3 neighbors
     0 = max # of 1-4 neighbors
     1 = max # of special neighbors
  special bonds CPU = 0.000 seconds
  read_restart CPU = 0.003 seconds
print "*****Positive-change ${dir} starts.*****"
*****Positive-change 6 starts.*****
include ff.mod.lmp
# Setup forcefield, system
# undefine any fix ave/* fix before using reset_timestep
if "$(is_defined(fix,avgp))" then "unfix avgp"
reset_timestep 0

# Assign the force field
pair_style reaxff NULL safezone 3.0 mincap 150
# pair_coeff * * CHONSSi.ff O Si
# pair_coeff * * CHOSiNa.ff O Si
# pair_coeff * * SiOCHN_2018.ff O Si
# pair_coeff * * PDMSDecomp.ff Si O
pair_coeff * * CHONSi.ff C H O Si
# pair_coeff * * CHOFe.ff O Si

# charge method for reaxff
fix myqeq all qeq/reaxff 1 0.0 10.0 1.0e-6 reaxff maxiter 400
# Setup neighbor style
neighbor        2 bin
neigh_modify    every 10 delay 0 check no

# Setup output
fix avgp all ave/time  ${nevery} ${nrepeat} ${nfreq} c_thermo_press mode vector
fix avgp all ave/time  10 ${nrepeat} ${nfreq} c_thermo_press mode vector
fix avgp all ave/time  10 10 ${nfreq} c_thermo_press mode vector
fix avgp all ave/time  10 10 100 c_thermo_press mode vector
thermo		${nthermo}
thermo		100
thermo_style custom step temp pe press f_avgp[1] vol
thermo_modify norm no

# NVT
fix 4 all nvt temp ${temp} ${temp} ${tdamp}
fix 4 all nvt temp 300 ${temp} ${tdamp}
fix 4 all nvt temp 300 300 ${tdamp}
fix 4 all nvt temp 300 300 50
Resetting global fix info from restart file:
  fix style: nvt, fix ID: 4

# Positive deformation
variable delta equal ${up}*${len0}
variable delta equal 0.01*${len0}
variable delta equal 0.01*13.8463
variable deltaxy equal ${up}*xy
variable deltaxy equal 0.01*xy
variable deltaxz equal ${up}*xz
variable deltaxz equal 0.01*xz
variable deltayz equal ${up}*yz
variable deltayz equal 0.01*yz
if "${dir} == 1" then    "change_box all x delta 0 ${delta} xy delta ${deltaxy} xz delta ${deltaxz} remap units box"
if "${dir} == 2" then    "change_box all y delta 0 ${delta} yz delta ${deltayz} remap units box"
if "${dir} == 3" then    "change_box all z delta 0 ${delta} remap units box"
if "${dir} == 4" then    "change_box all yz delta ${delta} remap units box"
if "${dir} == 5" then    "change_box all xz delta ${delta} remap units box"
if "${dir} == 6" then    "change_box all xy delta ${delta} remap units box"
change_box all xy delta ${delta} remap units box
change_box all xy delta 0.138463 remap units box
Changing box ...
WARNING: Triclinic box skew is large. LAMMPS will run inefficiently. (src/domain.cpp:220)
  triclinic box = (0 0 0) to (15.3172 13.8463 18.3222) with tilt (-7.593337 0.2463 -0.1382)

# Run positive deformation MD
# save trajectory
dump dump_pos${dir} all custom ${nthermo} dump/pos_deform${dir}.lammpstrj id type x y z
dump dump_pos6 all custom ${nthermo} dump/pos_deform${dir}.lammpstrj id type x y z
dump dump_pos6 all custom 100 dump/pos_deform${dir}.lammpstrj id type x y z
dump dump_pos6 all custom 100 dump/pos_deform6.lammpstrj id type x y z
run ${nrun}
run 2000
All restart file global fix info was re-assigned
Neighbor list info ...
  update: every = 10 steps, delay = 0 steps, check = no
  max neighbors/atom: 2000, page size: 100000
  master list distance cutoff = 12
  ghost atom cutoff = 12
  binsize = 6, bins = 4 3 4
  2 neighbor lists, perpetual/occasional/extra = 2 0 0
  (1) pair reaxff, perpetual
      attributes: half, newton off, ghost
      pair build: half/bin/newtoff/ghost
      stencil: full/ghost/bin/3d
      bin: standard
  (2) fix qeq/reaxff, perpetual, copy from (1)
      attributes: half, newton off
      pair build: copy
      stencil: none
      bin: none
Per MPI rank memory allocation (min/avg/max) = 126.9 | 128.2 | 129.4 Mbytes
   Step          Temp          PotEng         Press        f_avgp[1]        Volume    
         0   291.2817      -42575.85      -6955.5328      0              3885.8921    
       100   312.56962     -42591.92      -10582.958     -8253.1561      3885.8921    
       200   290.18654     -42550.597      296.54708     -7114.7924      3885.8921    
       300   320.82698     -42556.938     -13467.533     -8648.2841      3885.8921    
       400   302.6898      -42527.04       6029.6801     -10957.072      3885.8921    
       500   295.11421     -42540.101     -2574.8928     -5660.4846      3885.8921    
       600   291.79196     -42571.814     -9319.6845     -7958.8398      3885.8921    
       700   292.3999      -42588.032      4054.2406     -3292.4188      3885.8921    
       800   308.25315     -42601.467      1722.8903     -9458.4134      3885.8921    
       900   298.25333     -42573.643     -11844.589     -10642.756      3885.8921    
      1000   306.88708     -42564.912      1875.1154     -5279.6931      3885.8921    
      1100   310.33641     -42563.693      11177.531     -1909.7486      3885.8921    
      1200   310.79286     -42574.24       2553.8365      2203.6479      3885.8921    
      1300   293.17427     -42575.491      11189.921     -3718.9195      3885.8921    
      1400   285.98628     -42576.651     -1781.7524     -3722.2999      3885.8921    
      1500   286.12587     -42578.136     -6325.0266     -7719.1308      3885.8921    
      1600   289.16073     -42569.147     -4219.302      -12691.571      3885.8921    
      1700   299.6904      -42559.083     -3452.8304     -10413.338      3885.8921    
      1800   302.52216     -42547.966      3424.8834     -2525.1207      3885.8921    
      1900   297.91211     -42543.909     -4978.524      -7058.8023      3885.8921    
      2000   303.40978     -42577.467     -7672.5689     -8069.6726      3885.8921    
Loop time of 69.8255 on 16 procs for 2000 steps with 365 atoms

Performance: 1.237 ns/day, 19.396 hours/ns, 28.643 timesteps/s, 10.455 katom-step/s
99.5% CPU use with 8 MPI tasks x 2 OpenMP threads

MPI task timing breakdown:
Section |  min time  |  avg time  |  max time  |%varavg| %total
---------------------------------------------------------------
Pair    | 50.448     | 52.039     | 55.064     |  18.6 | 74.53
Bond    | 0.00056652 | 0.00072517 | 0.00083666 |   0.0 |  0.00
Neigh   | 4.2616     | 4.3739     | 4.5328     |   5.1 |  6.26
Comm    | 3.3905     | 6.4167     | 8.0041     |  53.0 |  9.19
Output  | 0.0032583  | 0.0048954  | 0.005788   |   1.4 |  0.01
Modify  | 6.792      | 6.9488     | 7.0623     |   4.1 |  9.95
Other   |            | 0.04143    |            |       |  0.06

Nlocal:         45.625 ave          48 max          44 min
Histogram: 2 0 2 0 0 2 0 1 0 1
Nghost:         3256.5 ave        3283 max        3226 min
Histogram: 2 0 1 0 0 1 1 1 0 2
Neighs:        29952.9 ave       31377 max       29025 min
Histogram: 2 0 2 0 2 0 0 1 0 1

Total # of neighbors = 239623
Ave neighs/atom = 656.50137
Ave special neighs/atom = 0
Neighbor list builds = 200
Dangerous builds not checked
undump dump_pos${dir}
undump dump_pos6

# Run equilibration
print "*****Equilibration pos${dir} starts.*****"
*****Equilibration pos6 starts.*****
include ff.mod.lmp
# Setup forcefield, system
# undefine any fix ave/* fix before using reset_timestep
if "$(is_defined(fix,avgp))" then "unfix avgp"
unfix avgp
reset_timestep 0

# Assign the force field
pair_style reaxff NULL safezone 3.0 mincap 150
# pair_coeff * * CHONSSi.ff O Si
# pair_coeff * * CHOSiNa.ff O Si
# pair_coeff * * SiOCHN_2018.ff O Si
# pair_coeff * * PDMSDecomp.ff Si O
pair_coeff * * CHONSi.ff C H O Si
# pair_coeff * * CHOFe.ff O Si

# charge method for reaxff
fix myqeq all qeq/reaxff 1 0.0 10.0 1.0e-6 reaxff maxiter 400
# Setup neighbor style
neighbor        2 bin
neigh_modify    every 10 delay 0 check no

# Setup output
fix avgp all ave/time  ${nevery} ${nrepeat} ${nfreq} c_thermo_press mode vector
fix avgp all ave/time  10 ${nrepeat} ${nfreq} c_thermo_press mode vector
fix avgp all ave/time  10 10 ${nfreq} c_thermo_press mode vector
fix avgp all ave/time  10 10 100 c_thermo_press mode vector
thermo		${nthermo}
thermo		100
thermo_style custom step temp pe press f_avgp[1] vol
WARNING: New thermo_style command, previous thermo_modify settings will be lost (src/output.cpp:903)
thermo_modify norm no

# NVT
fix 4 all nvt temp ${temp} ${temp} ${tdamp}
fix 4 all nvt temp 300 ${temp} ${tdamp}
fix 4 all nvt temp 300 300 ${tdamp}
fix 4 all nvt temp 300 300 50
run ${nequil}
run 2000
Neighbor list info ...
  update: every = 10 steps, delay = 0 steps, check = no
  max neighbors/atom: 2000, page size: 100000
  master list distance cutoff = 12
  ghost atom cutoff = 12
  binsize = 6, bins = 4 3 4
  2 neighbor lists, perpetual/occasional/extra = 2 0 0
  (1) pair reaxff, perpetual
      attributes: half, newton off, ghost
      pair build: half/bin/newtoff/ghost
      stencil: full/ghost/bin/3d
      bin: standard
  (2) fix qeq/reaxff, perpetual, copy from (1)
      attributes: half, newton off
      pair build: copy
      stencil: none
      bin: none
Per MPI rank memory allocation (min/avg/max) = 126.9 | 128.2 | 129.5 Mbytes
   Step          Temp          PotEng         Press        f_avgp[1]        Volume    
         0   303.40978     -42577.467     -7672.6001      0              3885.8921    
       100   305.18269     -42584.008     -9617.3225     -2180.5298      3885.8921    
       200   308.76752     -42587.295     -797.69818     -5608.0229      3885.8921    
       300   306.40037     -42566.431      11058.246     -4870.6332      3885.8921    
       400   311.05255     -42557.923     -7348.9666     -5299.8927      3885.8921    
       500   289.08106     -42536.282     -405.28518     -1438.2112      3885.8921    
       600   280.65255     -42550.924     -6178.8638     -9081.3341      3885.8921    
       700   288.76156     -42579.944     -6355.0667     -9430.6309      3885.8921    
       800   286.05255     -42574.313     -9786.2234     -12504.093      3885.8921    
       900   312.68417     -42561.263     -10551.605     -10052.827      3885.8921    
      1000   311.47096     -42556.586     -15234.393     -9472.2348      3885.8921    
      1100   302.37488     -42571.385     -13858.009     -7074.9609      3885.8921    
      1200   309.52545     -42598.41      -2316.1234     -5574.4728      3885.8921    
      1300   301.88844     -42590.79      -9055.3152     -4141.1376      3885.8921    
      1400   284.97565     -42562.173     -15400.464     -11254.927      3885.8921    
      1500   303.08274     -42543.728      318.02189     -1753.2777      3885.8921    
      1600   314.84832     -42558.352     -2994.4172     -8535.2565      3885.8921    
      1700   294.3503      -42561.106     -4776.5552     -8367.4398      3885.8921    
      1800   290.27291     -42564.832     -7174.3958     -9814.8284      3885.8921    
      1900   315.8175      -42597.129     -7223.1168     -1860.9837      3885.8921    
      2000   289.16893     -42586.161     -323.97109     -5051.7449      3885.8921    
Loop time of 62.9256 on 16 procs for 2000 steps with 365 atoms

Performance: 1.373 ns/day, 17.479 hours/ns, 31.784 timesteps/s, 11.601 katom-step/s
99.6% CPU use with 8 MPI tasks x 2 OpenMP threads

MPI task timing breakdown:
Section |  min time  |  avg time  |  max time  |%varavg| %total
---------------------------------------------------------------
Pair    | 50.142     | 51.005     | 52.08      |   9.0 | 81.06
Bond    | 0.00053035 | 0.00073071 | 0.00086791 |   0.0 |  0.00
Neigh   | 4.1946     | 4.2696     | 4.3298     |   2.1 |  6.79
Comm    | 0.49406    | 1.5672     | 2.4261     |  51.3 |  2.49
Output  | 0.0009327  | 0.0010163  | 0.0012861  |   0.3 |  0.00
Modify  | 5.9786     | 6.0393     | 6.1133     |   1.7 |  9.60
Other   |            | 0.04267    |            |       |  0.07

Nlocal:         45.625 ave          50 max          40 min
Histogram: 1 0 0 1 1 0 2 1 0 2
Nghost:           3279 ave        3337 max        3224 min
Histogram: 1 1 1 0 1 0 2 1 0 1
Neighs:        29982.6 ave       32690 max       26458 min
Histogram: 1 0 1 0 1 1 2 0 1 1

Total # of neighbors = 239861
Ave neighs/atom = 657.15342
Ave special neighs/atom = 0
Neighbor list builds = 200
Dangerous builds not checked

# Obtain new stress tensor, convert index from LAMMPS to Voigt
variable pxx1 equal f_avgp[1]
variable pyy1 equal f_avgp[2]
variable pzz1 equal f_avgp[3]
variable pxy1 equal f_avgp[4]
variable pxz1 equal f_avgp[5]
variable pyz1 equal f_avgp[6]

# Compute elastic constant from pressure tensor
# d1 = -[pxx1-pxx0]/[(]v_delta/v_len0] defined in input script
variable C1pos equal ${d1}
variable C1pos equal -37.3920152646257
variable C2pos equal ${d2}
variable C2pos equal -30.6541979945856
variable C3pos equal ${d3}
variable C3pos equal -58.841233790598
variable C4pos equal ${d4}
variable C4pos equal -20.0149516096805
variable C5pos equal ${d5}
variable C5pos equal -15.5036428033613
variable C6pos equal ${d6}
variable C6pos equal 8.9558654384816

# Combine positive and negative
variable C1${dir} equal 0.5*(${C1neg}+${C1pos})
variable C16 equal 0.5*(${C1neg}+${C1pos})
variable C16 equal 0.5*(-54.69791427072+${C1pos})
variable C16 equal 0.5*(-54.69791427072+-37.3920152646257)
variable C2${dir} equal 0.5*(${C2neg}+${C2pos})
variable C26 equal 0.5*(${C2neg}+${C2pos})
variable C26 equal 0.5*(13.5811851917581+${C2pos})
variable C26 equal 0.5*(13.5811851917581+-30.6541979945856)
variable C3${dir} equal 0.5*(${C3neg}+${C3pos})
variable C36 equal 0.5*(${C3neg}+${C3pos})
variable C36 equal 0.5*(-98.565554544076+${C3pos})
variable C36 equal 0.5*(-98.565554544076+-58.841233790598)
variable C4${dir} equal 0.5*(${C4neg}+${C4pos})
variable C46 equal 0.5*(${C4neg}+${C4pos})
variable C46 equal 0.5*(16.4995137164754+${C4pos})
variable C46 equal 0.5*(16.4995137164754+-20.0149516096805)
variable C5${dir} equal 0.5*(${C5neg}+${C5pos})
variable C56 equal 0.5*(${C5neg}+${C5pos})
variable C56 equal 0.5*(1.49714624149085+${C5pos})
variable C56 equal 0.5*(1.49714624149085+-15.5036428033613)
variable C6${dir} equal 0.5*(${C6neg}+${C6pos})
variable C66 equal 0.5*(${C6neg}+${C6pos})
variable C66 equal 0.5*(2.64289954668952+${C6pos})
variable C66 equal 0.5*(2.64289954668952+8.9558654384816)

# Delete dir to make sure it is not reused
variable dir delete

# Calc and output
include calc.mod.lmp
variable C11all equal ${C11}
variable C11all equal 28.0681793210819
variable C22all equal ${C22}
variable C22all equal 34.4642689046385
variable C33all equal ${C33}
variable C33all equal 12.1013463824473

variable C44all equal ${C44}
variable C44all equal 2.49966729406405
variable C55all equal ${C55}
variable C55all equal 0.928651824286715
variable C66all equal ${C66}
variable C66all equal 5.79938249258556

variable C12all equal 0.5*(${C12}+${C21})
variable C12all equal 0.5*(35.5907672406403+${C21})
variable C12all equal 0.5*(35.5907672406403+6.66019632059177)
variable C13all equal 0.5*(${C13}+${C31})
variable C13all equal 0.5*(16.746931204262+${C31})
variable C13all equal 0.5*(16.746931204262+27.107231333001)
variable C23all equal 0.5*(${C23}+${C32})
variable C23all equal 0.5*(38.9245700304922+${C32})
variable C23all equal 0.5*(38.9245700304922+22.1359159992537)

variable C14all equal 0.5*(${C14}+${C41})
variable C14all equal 0.5*(-12.3348197510639+${C41})
variable C14all equal 0.5*(-12.3348197510639+-3.39433563807175)
variable C15all equal 0.5*(${C15}+${C51})
variable C15all equal 0.5*(-6.34683261273305+${C51})
variable C15all equal 0.5*(-6.34683261273305+9.74658528113014)
variable C16all equal 0.5*(${C16}+${C61})
variable C16all equal 0.5*(-46.0449647676729+${C61})
variable C16all equal 0.5*(-46.0449647676729+-0.648338410264845)

variable C24all equal 0.5*(${C24}+${C42})
variable C24all equal 0.5*(-30.9153729797777+${C42})
variable C24all equal 0.5*(-30.9153729797777+0.547478338887545)
variable C25all equal 0.5*(${C25}+${C52})
variable C25all equal 0.5*(-30.5459344096689+${C52})
variable C25all equal 0.5*(-30.5459344096689+-8.24937756751066)
variable C26all equal 0.5*(${C26}+${C62})
variable C26all equal 0.5*(-8.53650640141375+${C62})
variable C26all equal 0.5*(-8.53650640141375+-3.14428900620976)

variable C34all equal 0.5*(${C34}+${C43})
variable C34all equal 0.5*(-1.9420198403744+${C43})
variable C34all equal 0.5*(-1.9420198403744+-0.647369772983675)
variable C35all equal 0.5*(${C35}+${C53})
variable C35all equal 0.5*(-1.11091771905909+${C53})
variable C35all equal 0.5*(-1.11091771905909+-0.666115369826181)
variable C36all equal 0.5*(${C36}+${C63})
variable C36all equal 0.5*(-78.703394167337+${C63})
variable C36all equal 0.5*(-78.703394167337+-7.301314851192)

variable C45all equal 0.5*(${C45}+${C54})
variable C45all equal 0.5*(-6.29860936180325+${C54})
variable C45all equal 0.5*(-6.29860936180325+-4.19440004227228)
variable C46all equal 0.5*(${C46}+${C64})
variable C46all equal 0.5*(-1.75771894660255+${C64})
variable C46all equal 0.5*(-1.75771894660255+10.2731122648933)
variable C56all equal 0.5*(${C56}+${C65})
variable C56all equal 0.5*(-7.00324828093523+${C65})
variable C56all equal 0.5*(-7.00324828093523+-0.25910927344256)

# print stiffness tensor to "C.log"
print """
# stiffness tensor (GPa) for ${structure} by change-box method
${C11all} ${C12all} ${C13all} ${C14all} ${C15all} ${C16all}
${C12all} ${C22all} ${C23all} ${C24all} ${C25all} ${C26all}
${C13all} ${C23all} ${C33all} ${C34all} ${C35all} ${C36all}
${C14all} ${C24all} ${C34all} ${C44all} ${C45all} ${C46all}
${C15all} ${C25all} ${C35all} ${C45all} ${C55all} ${C56all}
${C16all} ${C26all} ${C36all} ${C46all} ${C56all} ${C66all}
"""  file C.log screen no

Total wall time: 0:37:55
