LAMMPS (2 Aug 2023 - Update 2)
OMP_NUM_THREADS environment is not set. Defaulting to 1 thread. (src/comm.cpp:98)
  using 1 OpenMP thread(s) per MPI task
# Initialization
units           real
dimension       3
boundary        p p p
atom_style      full
timestep        0.5   # fs

# Define MD parameters
variable nevery equal 10                  # sampling interval
variable nrepeat equal 10                 # number of samples
variable nthermo equal ${nevery}*${nrepeat}           # interval for thermo output
variable nthermo equal 10*${nrepeat}           
variable nthermo equal 10*10           
variable nfreq equal ${nthermo} # length of one average
variable nfreq equal 100 
# 1 ps : 1e3 fs / 0.5 fs = 2e3 steps
variable nequil equal 30*${nthermo}       # steps of equilibration run 20
variable nequil equal 30*100       
variable nrun equal 30*${nthermo}          # stpes of equilibrated run 20
variable nrun equal 30*100          
variable temp equal 300.0                # temperature of initial sample
variable tdamp equal 50.0                 # time constant for thermostat
variable seed equal 123456                # seed for thermostat
variable ufac equal 1.01325e-4         # pressure unit conversion, from atm to Gpa
variable up equal 0.01                  # the deformation magnitude 2.0e-2

# Read the initial sctructure
# box tilt large
variable structure string 333U-50C-33-vasp
read_data       ${structure}.data
read_data       333U-50C-33-vasp.data
Reading data file ...
  triclinic box = (0 0 0) to (15.3172 13.8463 18.3222) with tilt (-7.7318 0.2463 -0.1382)
WARNING: Triclinic box skew is large. LAMMPS will run inefficiently. (src/domain.cpp:220)
  2 by 2 by 2 MPI processor grid
  reading atoms ...
  365 atoms
Finding 1-2 1-3 1-4 neighbors ...
  special bond factors lj:    0        0        0       
  special bond factors coul:  0        0        0       
     0 = max # of 1-2 neighbors
     0 = max # of 1-3 neighbors
     0 = max # of 1-4 neighbors
     1 = max # of special neighbors
  special bonds CPU = 0.001 seconds
  read_data CPU = 0.008 seconds

# Energy minimization
print "*****Minimization starts.*****"
*****Minimization starts.*****
minimize 1.0e-6 1.0e-6 100 1000
WARNING: No pairwise cutoff or binsize set. Atom sorting therefore disabled. (src/atom.cpp:2366)
WARNING: Communication cutoff is 0.0. No ghost atoms will be generated. Atoms may get lost. (src/comm_brick.cpp:210)
Per MPI rank memory allocation (min/avg/max) = 6.365 | 6.365 | 6.365 Mbytes
   Step          Temp          E_pair         E_mol          TotEng         Press     
         0   0              0              0              0              0            
         1   0              0              0              0              0            
Loop time of 7.2146e-05 on 8 procs for 1 steps with 365 atoms

55.6% CPU use with 8 MPI tasks x 1 OpenMP threads

Minimization stats:
  Stopping criterion = search direction is not downhill
  Energy initial, next-to-last, final = 
                     0                  0                  0
  Force two-norm initial, final = 0 0
  Force max component initial, final = 0 0
  Final line search alpha, max atom move = 0 0
  Iterations, force evaluations = 1 0

MPI task timing breakdown:
Section |  min time  |  avg time  |  max time  |%varavg| %total
---------------------------------------------------------------
Pair    | 0          | 0          | 0          |   0.0 |  0.00
Bond    | 1.397e-06  | 1.8421e-06 | 2.305e-06  |   0.0 |  2.55
Neigh   | 0          | 0          | 0          |   0.0 |  0.00
Comm    | 3.702e-06  | 4.994e-06  | 6.077e-06  |   0.0 |  6.92
Output  | 0          | 0          | 0          |   0.0 |  0.00
Modify  | 0          | 0          | 0          |   0.0 |  0.00
Other   |            | 6.531e-05  |            |       | 90.52

Nlocal:         45.625 ave          49 max          40 min
Histogram: 1 0 0 1 0 1 1 2 1 1
Nghost:              0 ave           0 max           0 min
Histogram: 8 0 0 0 0 0 0 0 0 0
Neighs:              0 ave           0 max           0 min
Histogram: 8 0 0 0 0 0 0 0 0 0

Total # of neighbors = 0
Ave neighs/atom = 0
Ave special neighs/atom = 0
Neighbor list builds = 0
Dangerous builds = 0
min_style cg
# Save the optimized structure
write_data ${structure}_opt.data
write_data 333U-50C-33-vasp_opt.data
System init for write_data ...
WARNING: Communication cutoff is 0.0. No ghost atoms will be generated. Atoms may get lost. (src/comm_brick.cpp:210)
velocity        all create ${temp} ${seed} dist gaussian
velocity        all create 300 ${seed} dist gaussian
velocity        all create 300 123456 dist gaussian

# Equilibration
include ff.mod.lmp
# Setup forcefield, system
# undefine any fix ave/* fix before using reset_timestep
if "$(is_defined(fix,avgp))" then "unfix avgp"
reset_timestep 0

# Assign the force field
pair_style reaxff NULL safezone 3.0 mincap 150
# pair_coeff * * CHONSSi.ff O Si
# pair_coeff * * CHOSiNa.ff O Si
# pair_coeff * * SiOCHN_2018.ff O Si
# pair_coeff * * PDMSDecomp.ff Si O
pair_coeff * * CHONSi.ff C H O Si
# pair_coeff * * CHOFe.ff O Si

# charge method for reaxff
fix myqeq all qeq/reaxff 1 0.0 10.0 1.0e-6 reaxff maxiter 400
# Setup neighbor style
neighbor        2 bin
neigh_modify    every 10 delay 0 check no

# Setup output
fix avgp all ave/time  ${nevery} ${nrepeat} ${nfreq} c_thermo_press mode vector
fix avgp all ave/time  10 ${nrepeat} ${nfreq} c_thermo_press mode vector
fix avgp all ave/time  10 10 ${nfreq} c_thermo_press mode vector
fix avgp all ave/time  10 10 100 c_thermo_press mode vector
thermo		${nthermo}
thermo		100
thermo_style custom step temp pe press f_avgp[1] vol
thermo_modify norm no

# NVT
fix 4 all nvt temp ${temp} ${temp} ${tdamp}
fix 4 all nvt temp 300 ${temp} ${tdamp}
fix 4 all nvt temp 300 300 ${tdamp}
fix 4 all nvt temp 300 300 50
thermo_style custom step temp pe press f_avgp[1] density vol
WARNING: New thermo_style command, previous thermo_modify settings will be lost (src/output.cpp:903)
run ${nequil}
run 3000

CITE-CITE-CITE-CITE-CITE-CITE-CITE-CITE-CITE-CITE-CITE-CITE-CITE

Your simulation uses code contributions which should be cited:

- pair reaxff command: doi:10.1016/j.parco.2011.08.005

@Article{Aktulga12,
 author = {H. M. Aktulga and J. C. Fogarty and S. A. Pandit and A. Y. Grama},
 title = {Parallel Reactive Molecular Dynamics: {N}umerical Methods and Algorithmic Techniques},
 journal = {Parallel Computing},
 year =    2012,
 volume =  38,
 number =  {4--5},
 pages =   {245--259}
}

- fix qeq/reaxff command: doi:10.1016/j.parco.2011.08.005

@Article{Aktulga12,
 author = {H. M. Aktulga and J. C. Fogarty and S. A. Pandit and A. Y. Grama},
 title = {Parallel Reactive Molecular Dynamics: {N}umerical Methods and Algorithmic Techniques},
 journal = {Parallel Computing},
 year =    2012,
 volume =  38,
 pages =   {245--259}
}

CITE-CITE-CITE-CITE-CITE-CITE-CITE-CITE-CITE-CITE-CITE-CITE-CITE

WARNING: Fix qeq/reaxff group is not charge neutral, net charge = -6.56 (src/REAXFF/fix_qeq_reaxff.cpp:392)
Neighbor list info ...
  update: every = 10 steps, delay = 0 steps, check = no
  max neighbors/atom: 2000, page size: 100000
  master list distance cutoff = 12
  ghost atom cutoff = 12
  binsize = 6, bins = 4 3 4
  2 neighbor lists, perpetual/occasional/extra = 2 0 0
  (1) pair reaxff, perpetual
      attributes: half, newton off, ghost
      pair build: half/bin/newtoff/ghost
      stencil: full/ghost/bin/3d
      bin: standard
  (2) fix qeq/reaxff, perpetual, copy from (1)
      attributes: half, newton off
      pair build: copy
      stencil: none
      bin: none
Per MPI rank memory allocation (min/avg/max) = 127.1 | 128 | 129 Mbytes
   Step          Temp          PotEng         Press        f_avgp[1]       Density         Volume    
         0   300           -40992.445      106056.12      0              1.701333       3885.8921    
       100   779.61004     -41878.529     -1835.6132      9718.3393      1.701333       3885.8921    
       200   512.05995     -42007.695     -17402.501      1793.3864      1.701333       3885.8921    
       300   440.39483     -42245.318      3715.5852     -732.90149      1.701333       3885.8921    
       400   351.16929     -42355.194      21620.337     -812.10021      1.701333       3885.8921    
       500   337.69321     -42485.755      3387.2511     -849.63622      1.701333       3885.8921    
       600   281.20968     -42519.714      5961.8077     -4040.7255      1.701333       3885.8921    
       700   272.40544     -42550.335     -4575.9352     -2712.706       1.701333       3885.8921    
       800   288.99862     -42566.371      2380.586      -3345.6802      1.701333       3885.8921    
       900   291.57461     -42545.945      6086.7826     -4689.3713      1.701333       3885.8921    
      1000   306.68098     -42545.106     -1309.8994     -1168.4771      1.701333       3885.8921    
      1100   302.82486     -42549.262     -6263.2873      317.07488      1.701333       3885.8921    
      1200   309.62516     -42583.372     -5093.0823     -1259.4716      1.701333       3885.8921    
      1300   278.84629     -42582.196      8126.8241     -542.84483      1.701333       3885.8921    
      1400   283.53317     -42605.101     -13737.51      -9262.7239      1.701333       3885.8921    
      1500   291.60729     -42605.429     -3225.2717     -624.75052      1.701333       3885.8921    
      1600   296.11727     -42585.401     -8863.2354      3757.6403      1.701333       3885.8921    
      1700   308.91481     -42579.709      10.626555     -2625.9646      1.701333       3885.8921    
      1800   303.46985     -42590.422     -19729.491     -8005.407       1.701333       3885.8921    
      1900   286.26555     -42595.927     -7114.2426     -6162.5107      1.701333       3885.8921    
      2000   304.57175     -42625.539     -3974.4341     -4987.7129      1.701333       3885.8921    
      2100   309.91497     -42640.898      2134.5477     -11158.658      1.701333       3885.8921    
      2200   305.04885     -42630.606      5671.6323     -4660.6468      1.701333       3885.8921    
      2300   298.39659     -42607.685     -1882.8866     -4360.4021      1.701333       3885.8921    
      2400   308.71089     -42611.093     -10937.345     -7149.9233      1.701333       3885.8921    
      2500   300.86392     -42620.199      2877.0733     -8096.5516      1.701333       3885.8921    
      2600   283.92792     -42626.766      1121.3067     -6975.9619      1.701333       3885.8921    
      2700   279.30097     -42637.356      7133.5185     -7556.3839      1.701333       3885.8921    
      2800   283.55194     -42634.981     -1567.5677     -4398.7113      1.701333       3885.8921    
      2900   298.53067     -42624.093      1438.7845     -4511.3973      1.701333       3885.8921    
      3000   293.90336     -42600.461      6191.8389      240.83542      1.701333       3885.8921    
Loop time of 142.159 on 8 procs for 3000 steps with 365 atoms

Performance: 0.912 ns/day, 26.326 hours/ns, 21.103 timesteps/s, 7.703 katom-step/s
98.9% CPU use with 8 MPI tasks x 1 OpenMP threads

MPI task timing breakdown:
Section |  min time  |  avg time  |  max time  |%varavg| %total
---------------------------------------------------------------
Pair    | 80.284     | 100.08     | 119.49     | 177.5 | 70.40
Bond    | 0.0076164  | 0.0081649  | 0.0087807  |   0.5 |  0.01
Neigh   | 6.4353     | 7.8268     | 9.2546     |  47.5 |  5.51
Comm    | 1.7202     | 21.117     | 40.906     | 386.2 | 14.85
Output  | 0.0014912  | 0.0016765  | 0.0023719  |   0.7 |  0.00
Modify  | 11.623     | 13.054     | 14.451     |  37.1 |  9.18
Other   |            | 0.06677    |            |       |  0.05

Nlocal:         45.625 ave          49 max          40 min
Histogram: 1 0 1 0 0 1 1 1 2 1
Nghost:        3283.62 ave        3329 max        3236 min
Histogram: 1 0 2 0 1 1 1 0 0 2
Neighs:        29928.9 ave       31962 max       26546 min
Histogram: 1 1 0 0 0 1 1 1 2 1

Total # of neighbors = 239431
Ave neighs/atom = 655.97534
Ave special neighs/atom = 0
Neighbor list builds = 300
Dangerous builds not checked
# Save the optimized structure
write_data ${structure}_opt.data
write_data 333U-50C-33-vasp_opt.data
System init for write_data ...

# Save initial pressure, box size
variable pxx0 equal f_avgp[1]
variable pyy0 equal f_avgp[2]
variable pzz0 equal f_avgp[3]
variable pxy0 equal f_avgp[4]
variable pxz0 equal f_avgp[5]
variable pyz0 equal f_avgp[6]

# use tmp to save initial box length
variable tmp equal lx
variable lx0 equal ${tmp}
variable lx0 equal 15.3172
variable tmp equal ly
variable ly0 equal ${tmp}
variable ly0 equal 13.8463
variable tmp equal lz
variable lz0 equal ${tmp}
variable lz0 equal 18.3222

# define the derivatives, w.r.t. strain tensor
# Constants uses $, variables use v_
variable d1 equal -(v_pxx1-${pxx0})/(v_delta/v_len0)*${ufac}
variable d1 equal -(v_pxx1-240.835424925498)/(v_delta/v_len0)*${ufac}
variable d1 equal -(v_pxx1-240.835424925498)/(v_delta/v_len0)*0.000101325
variable d2 equal -(v_pyy1-${pyy0})/(v_delta/v_len0)*${ufac}
variable d2 equal -(v_pyy1--3479.20418394893)/(v_delta/v_len0)*${ufac}
variable d2 equal -(v_pyy1--3479.20418394893)/(v_delta/v_len0)*0.000101325
variable d3 equal -(v_pzz1-${pzz0})/(v_delta/v_len0)*${ufac}
variable d3 equal -(v_pzz1-3317.49967228972)/(v_delta/v_len0)*${ufac}
variable d3 equal -(v_pzz1-3317.49967228972)/(v_delta/v_len0)*0.000101325
variable d4 equal -(v_pyz1-${pyz0})/(v_delta/v_len0)*${ufac}*0.5
variable d4 equal -(v_pyz1-932.940008042902)/(v_delta/v_len0)*${ufac}*0.5
variable d4 equal -(v_pyz1-932.940008042902)/(v_delta/v_len0)*0.000101325*0.5
variable d5 equal -(v_pxz1-${pxz0})/(v_delta/v_len0)*${ufac}*0.5
variable d5 equal -(v_pxz1--3073.73773087207)/(v_delta/v_len0)*${ufac}*0.5
variable d5 equal -(v_pxz1--3073.73773087207)/(v_delta/v_len0)*0.000101325*0.5
variable d6 equal -(v_pxy1-${pxy0})/(v_delta/v_len0)*${ufac}*0.5
variable d6 equal -(v_pxy1--2120.5966630907)/(v_delta/v_len0)*${ufac}*0.5
variable d6 equal -(v_pxy1--2120.5966630907)/(v_delta/v_len0)*0.000101325*0.5

# Write restart
write_restart equil.res
System init for write_restart ...

# dir: direction
# uxx Perturbation
variable dir equal 1
include displace.mod.lmp
# Find which reference length to use
if "${dir} == 1" then    "variable len0 equal ${lx0}"
variable len0 equal ${lx0}
variable len0 equal 15.3172
if "${dir} == 2" then    "variable len0 equal ${ly0}"
if "${dir} == 3" then    "variable len0 equal ${lz0}"
if "${dir} == 4" then    "variable len0 equal ${lz0}"
if "${dir} == 5" then    "variable len0 equal ${lz0}"
if "${dir} == 6" then    "variable len0 equal ${ly0}"

# Reset box and simulation parameters
clear
OMP_NUM_THREADS environment is not set. Defaulting to 1 thread. (src/comm.cpp:98)
  using 1 OpenMP thread(s) per MPI task
# box tilt large
read_restart equil.res
Reading restart file ...
  restart file = 2 Aug 2023, LAMMPS = 2 Aug 2023
  restoring atom style full from restart
  triclinic box = (0 0 0) to (15.3172 13.8463 18.3222) with tilt (-7.7318 0.2463 -0.1382)
WARNING: Triclinic box skew is large. LAMMPS will run inefficiently. (src/domain.cpp:220)
  2 by 2 by 2 MPI processor grid
  pair style reaxff stores no restart info
  365 atoms
Finding 1-2 1-3 1-4 neighbors ...
  special bond factors lj:    0        0        0       
  special bond factors coul:  0        0        0       
     0 = max # of 1-2 neighbors
     0 = max # of 1-3 neighbors
     0 = max # of 1-4 neighbors
     1 = max # of special neighbors
  special bonds CPU = 0.000 seconds
  read_restart CPU = 0.002 seconds
print "*****Negative-change ${dir} starts.*****"
*****Negative-change 1 starts.*****
include ff.mod.lmp
# Setup forcefield, system
# undefine any fix ave/* fix before using reset_timestep
if "$(is_defined(fix,avgp))" then "unfix avgp"
reset_timestep 0

# Assign the force field
pair_style reaxff NULL safezone 3.0 mincap 150
# pair_coeff * * CHONSSi.ff O Si
# pair_coeff * * CHOSiNa.ff O Si
# pair_coeff * * SiOCHN_2018.ff O Si
# pair_coeff * * PDMSDecomp.ff Si O
pair_coeff * * CHONSi.ff C H O Si
# pair_coeff * * CHOFe.ff O Si

# charge method for reaxff
fix myqeq all qeq/reaxff 1 0.0 10.0 1.0e-6 reaxff maxiter 400
# Setup neighbor style
neighbor        2 bin
neigh_modify    every 10 delay 0 check no

# Setup output
fix avgp all ave/time  ${nevery} ${nrepeat} ${nfreq} c_thermo_press mode vector
fix avgp all ave/time  10 ${nrepeat} ${nfreq} c_thermo_press mode vector
fix avgp all ave/time  10 10 ${nfreq} c_thermo_press mode vector
fix avgp all ave/time  10 10 100 c_thermo_press mode vector
thermo		${nthermo}
thermo		100
thermo_style custom step temp pe press f_avgp[1] vol
thermo_modify norm no

# NVT
fix 4 all nvt temp ${temp} ${temp} ${tdamp}
fix 4 all nvt temp 300 ${temp} ${tdamp}
fix 4 all nvt temp 300 300 ${tdamp}
fix 4 all nvt temp 300 300 50
Resetting global fix info from restart file:
  fix style: nvt, fix ID: 4

# Negative deformation
variable delta equal -${up}*${len0}
variable delta equal -0.01*${len0}
variable delta equal -0.01*15.3172
variable deltaxy equal -${up}*xy
variable deltaxy equal -0.01*xy
variable deltaxz equal -${up}*xz
variable deltaxz equal -0.01*xz
variable deltayz equal -${up}*yz
variable deltayz equal -0.01*yz
if "${dir} == 1" then    "change_box all x delta 0 ${delta} xy delta ${deltaxy} xz delta ${deltaxz} remap units box"
change_box all x delta 0 ${delta} xy delta ${deltaxy} xz delta ${deltaxz} remap units box
change_box all x delta 0 -0.153172 xy delta ${deltaxy} xz delta ${deltaxz} remap units box
change_box all x delta 0 -0.153172 xy delta 0.077318 xz delta ${deltaxz} remap units box
change_box all x delta 0 -0.153172 xy delta 0.077318 xz delta -0.002463 remap units box
Changing box ...
WARNING: Triclinic box skew is large. LAMMPS will run inefficiently. (src/domain.cpp:220)
  triclinic box = (0 0 0) to (15.164028 13.8463 18.3222) with tilt (-7.7318 0.2463 -0.1382)
WARNING: Triclinic box skew is large. LAMMPS will run inefficiently. (src/domain.cpp:220)
  triclinic box = (0 0 0) to (15.164028 13.8463 18.3222) with tilt (-7.654482 0.2463 -0.1382)
WARNING: Triclinic box skew is large. LAMMPS will run inefficiently. (src/domain.cpp:220)
  triclinic box = (0 0 0) to (15.164028 13.8463 18.3222) with tilt (-7.654482 0.243837 -0.1382)
if "${dir} == 2" then    "change_box all y delta 0 ${delta} yz delta ${deltayz} remap units box"
if "${dir} == 3" then    "change_box all z delta 0 ${delta} remap units box"
if "${dir} == 4" then    "change_box all yz delta ${delta} remap units box"
if "${dir} == 5" then    "change_box all xz delta ${delta} remap units box"
if "${dir} == 6" then    "change_box all xy delta ${delta} remap units box"

# Run MD for Negative deformation
# save trajectory
dump dump_neg${dir} all custom ${nthermo} dump/neg_deform${dir}.lammpstrj id type x y z
dump dump_neg1 all custom ${nthermo} dump/neg_deform${dir}.lammpstrj id type x y z
dump dump_neg1 all custom 100 dump/neg_deform${dir}.lammpstrj id type x y z
dump dump_neg1 all custom 100 dump/neg_deform1.lammpstrj id type x y z
run ${nrun}
run 3000
All restart file global fix info was re-assigned
Neighbor list info ...
  update: every = 10 steps, delay = 0 steps, check = no
  max neighbors/atom: 2000, page size: 100000
  master list distance cutoff = 12
  ghost atom cutoff = 12
  binsize = 6, bins = 4 3 4
  2 neighbor lists, perpetual/occasional/extra = 2 0 0
  (1) pair reaxff, perpetual
      attributes: half, newton off, ghost
      pair build: half/bin/newtoff/ghost
      stencil: full/ghost/bin/3d
      bin: standard
  (2) fix qeq/reaxff, perpetual, copy from (1)
      attributes: half, newton off
      pair build: copy
      stencil: none
      bin: none
Per MPI rank memory allocation (min/avg/max) = 127 | 128.6 | 130.3 Mbytes
   Step          Temp          PotEng         Press        f_avgp[1]        Volume    
         0   293.90336     -42584.303      52751.372      0              3847.0332    
       100   319.38442     -42622.148      5264.2819      84.900669      3847.0332    
       200   293.74814     -42632.169      2785.7282      1849.8421      3847.0332    
       300   299.32876     -42658.752     -4163.4815     -350.6727       3847.0332    
       400   286.65489     -42639.096      5668.0372     -2612.6816      3847.0332    
       500   299.79978     -42623.837     -654.47815     -1593.7094      3847.0332    
       600   322.54729     -42634.854     -12065.193      2366.989       3847.0332    
       700   298.17253     -42626.74       6375.0862     -2204.4795      3847.0332    
       800   296.91099     -42648.664      15690.283      783.2269       3847.0332    
       900   303.14613     -42655.01      -8970.5153     -2061.0722      3847.0332    
      1000   295.5011      -42628.369      3996.2763      975.3258       3847.0332    
      1100   290.73196     -42609.018      61.56463      -2913.4406      3847.0332    
      1200   318.78897     -42637.052      5370.6053     -2270.8794      3847.0332    
      1300   316.23219     -42650.344     -8948.0335     -1876.4428      3847.0332    
      1400   302.70727     -42662.571      7709.4667      1930.2104      3847.0332    
      1500   290.75253     -42661.948     -3764.4244     -4437.5666      3847.0332    
      1600   288.27223     -42653.388     -3131.588       3009.6333      3847.0332    
      1700   300.22776     -42639.456     -12445.408     -726.70929      3847.0332    
      1800   316.92079     -42640.032     -949.08391     -1504.0954      3847.0332    
      1900   309.70472     -42638.909      3836.09        1087.1228      3847.0332    
      2000   301.51736     -42650.767     -4390.2097     -2403.3803      3847.0332    
      2100   278.93543     -42632.464     -7266.3449     -3433.2977      3847.0332    
      2200   307.63295     -42661.834     -5622.3469     -8838.9987      3847.0332    
      2300   297.57128     -42645.718     -2998.4577      993.66896      3847.0332    
      2400   306.66194     -42646.64       2402.3321     -3369.1874      3847.0332    
      2500   310.91196     -42633.504      14747.685      3919.5574      3847.0332    
      2600   324.26485     -42631.807      18248.731     -3273.6461      3847.0332    
      2700   321.29766     -42637.443     -1111.7788      2845.3587      3847.0332    
      2800   294.09237     -42646.243     -277.40453     -4927.5276      3847.0332    
      2900   310.34737     -42671.151      7742.6956     -3582.7938      3847.0332    
      3000   263.39212     -42625.093      9184.9216      2703.4798      3847.0332    
Loop time of 146.001 on 8 procs for 3000 steps with 365 atoms

Performance: 0.888 ns/day, 27.037 hours/ns, 20.548 timesteps/s, 7.500 katom-step/s
99.0% CPU use with 8 MPI tasks x 1 OpenMP threads

MPI task timing breakdown:
Section |  min time  |  avg time  |  max time  |%varavg| %total
---------------------------------------------------------------
Pair    | 81.948     | 105.75     | 123.11     | 172.6 | 72.43
Bond    | 0.0075051  | 0.0083853  | 0.00913    |   0.5 |  0.01
Neigh   | 6.4987     | 8.2616     | 9.4788     |  45.3 |  5.66
Comm    | 1.1609     | 18.53      | 42.315     | 412.0 | 12.69
Output  | 0.0061147  | 0.0076067  | 0.0085558  |   1.0 |  0.01
Modify  | 12.131     | 13.373     | 15.162     |  36.2 |  9.16
Other   |            | 0.06984    |            |       |  0.05

Nlocal:         45.625 ave          49 max          41 min
Histogram: 1 1 0 0 0 3 0 0 0 3
Nghost:         3305.5 ave        3352 max        3267 min
Histogram: 1 1 1 2 0 0 1 0 1 1
Neighs:        30245.1 ave       32527 max       27499 min
Histogram: 2 0 0 0 3 0 0 0 0 3

Total # of neighbors = 241961
Ave neighs/atom = 662.90685
Ave special neighs/atom = 0
Neighbor list builds = 300
Dangerous builds not checked
undump dump_neg${dir}
undump dump_neg1

# Run equilibration
print "*****Equilibration neg${dir} starts.*****"
*****Equilibration neg1 starts.*****
include ff.mod.lmp
# Setup forcefield, system
# undefine any fix ave/* fix before using reset_timestep
if "$(is_defined(fix,avgp))" then "unfix avgp"
unfix avgp
reset_timestep 0

# Assign the force field
pair_style reaxff NULL safezone 3.0 mincap 150
# pair_coeff * * CHONSSi.ff O Si
# pair_coeff * * CHOSiNa.ff O Si
# pair_coeff * * SiOCHN_2018.ff O Si
# pair_coeff * * PDMSDecomp.ff Si O
pair_coeff * * CHONSi.ff C H O Si
# pair_coeff * * CHOFe.ff O Si

# charge method for reaxff
fix myqeq all qeq/reaxff 1 0.0 10.0 1.0e-6 reaxff maxiter 400
# Setup neighbor style
neighbor        2 bin
neigh_modify    every 10 delay 0 check no

# Setup output
fix avgp all ave/time  ${nevery} ${nrepeat} ${nfreq} c_thermo_press mode vector
fix avgp all ave/time  10 ${nrepeat} ${nfreq} c_thermo_press mode vector
fix avgp all ave/time  10 10 ${nfreq} c_thermo_press mode vector
fix avgp all ave/time  10 10 100 c_thermo_press mode vector
thermo		${nthermo}
thermo		100
thermo_style custom step temp pe press f_avgp[1] vol
WARNING: New thermo_style command, previous thermo_modify settings will be lost (src/output.cpp:903)
thermo_modify norm no

# NVT
fix 4 all nvt temp ${temp} ${temp} ${tdamp}
fix 4 all nvt temp 300 ${temp} ${tdamp}
fix 4 all nvt temp 300 300 ${tdamp}
fix 4 all nvt temp 300 300 50
run ${nequil}
run 3000
Neighbor list info ...
  update: every = 10 steps, delay = 0 steps, check = no
  max neighbors/atom: 2000, page size: 100000
  master list distance cutoff = 12
  ghost atom cutoff = 12
  binsize = 6, bins = 4 3 4
  2 neighbor lists, perpetual/occasional/extra = 2 0 0
  (1) pair reaxff, perpetual
      attributes: half, newton off, ghost
      pair build: half/bin/newtoff/ghost
      stencil: full/ghost/bin/3d
      bin: standard
  (2) fix qeq/reaxff, perpetual, copy from (1)
      attributes: half, newton off
      pair build: copy
      stencil: none
      bin: none
Per MPI rank memory allocation (min/avg/max) = 127 | 128.6 | 130.1 Mbytes
   Step          Temp          PotEng         Press        f_avgp[1]        Volume    
         0   263.39212     -42625.093      9184.882       0              3847.0332    
       100   289.38413     -42642.989      8581.8354      6842.4525      3847.0332    
       200   317.49116     -42643.509     -19598.365     -2247.7972      3847.0332    
       300   309.298       -42619.767     -5131.2645     -5382.6925      3847.0332    
       400   316.00501     -42620.235      4233.5035     -3926.9066      3847.0332    
       500   315.0955      -42653.662     -2271.9511     -263.48573      3847.0332    
       600   319.18294     -42680.295     -10004.355      807.47976      3847.0332    
       700   284.01595     -42652.895      9656.3039     -2075.6391      3847.0332    
       800   300.22164     -42653.503      2102.7962     -1715.5381      3847.0332    
       900   320.19266     -42646.98      -106.35195     -6441.1569      3847.0332    
      1000   311.96145     -42638.319     -996.33543      1642.1116      3847.0332    
      1100   292.20171     -42626.514      5559.2783     -5115.8285      3847.0332    
      1200   293.39105     -42638.749     -4514.7144      3703.1769      3847.0332    
      1300   302.28319     -42652.213      5245.4416     -2943.9406      3847.0332    
      1400   275.79562     -42640.881      3462.2575     -4296.7317      3847.0332    
      1500   294.21444     -42681.636     -15123.709     -3655.4028      3847.0332    
      1600   282.3215      -42663.056     -10005.397     -1999.3703      3847.0332    
      1700   283.42555     -42629.219      21112.5        2256.6967      3847.0332    
      1800   310.36        -42643.812     -7781.8469     -5500.3793      3847.0332    
      1900   312.65871     -42643.499      10190.449     -378.92863      3847.0332    
      2000   304.0873      -42657.197      5000.4934     -4916.8938      3847.0332    
      2100   291.75799     -42668.039      21564.213      7733.8293      3847.0332    
      2200   298.8322      -42672.128      11747.717      796.3331       3847.0332    
      2300   308.58508     -42672.479      3401.0963      1743.0427      3847.0332    
      2400   294.9807      -42643.763      9006.5846     -187.76923      3847.0332    
      2500   298.74761     -42633.628     -3522.1325     -188.62746      3847.0332    
      2600   293.99242     -42617.225      2114.9167     -7641.4582      3847.0332    
      2700   313.53651     -42598.966      3559.5084      5065.8016      3847.0332    
      2800   317.37856     -42610.038      4597.7311      2359.0201      3847.0332    
      2900   299.49761     -42620.279      5334.1799      335.23325      3847.0332    
      3000   308.76714     -42634.329      4159.2279      232.43412      3847.0332    
Loop time of 145.545 on 8 procs for 3000 steps with 365 atoms

Performance: 0.890 ns/day, 26.953 hours/ns, 20.612 timesteps/s, 7.523 katom-step/s
98.9% CPU use with 8 MPI tasks x 1 OpenMP threads

MPI task timing breakdown:
Section |  min time  |  avg time  |  max time  |%varavg| %total
---------------------------------------------------------------
Pair    | 81.893     | 106.74     | 122.13     | 178.3 | 73.34
Bond    | 0.0074336  | 0.0083274  | 0.009074   |   0.5 |  0.01
Neigh   | 6.4865     | 8.3624     | 9.6336     |  48.2 |  5.75
Comm    | 1.5152     | 16.921     | 41.744     | 447.3 | 11.63
Output  | 0.0011994  | 0.0013697  | 0.0020336  |   0.7 |  0.00
Modify  | 12.13      | 13.439     | 15.345     |  38.9 |  9.23
Other   |            | 0.0714     |            |       |  0.05

Nlocal:         45.625 ave          51 max          39 min
Histogram: 1 0 0 2 0 1 0 3 0 1
Nghost:         3303.5 ave        3343 max        3269 min
Histogram: 1 1 1 1 0 1 1 0 0 2
Neighs:        30268.1 ave       33666 max       26277 min
Histogram: 1 0 1 1 0 1 0 3 0 1

Total # of neighbors = 242145
Ave neighs/atom = 663.41096
Ave special neighs/atom = 0
Neighbor list builds = 300
Dangerous builds not checked

# Obtain new stress tensor Negative deformation, convert index from LAMMPS to Voigt
variable pxx1 equal f_avgp[1]
variable pyy1 equal f_avgp[2]
variable pzz1 equal f_avgp[3]
variable pxy1 equal f_avgp[4]
variable pxz1 equal f_avgp[5]
variable pyz1 equal f_avgp[6]

# Compute elastic constant from pressure
# d1 = -[pxx1-pxx0]/[(]v_delta/v_len0] defined in input script
variable C1neg equal ${d1}
variable C1neg equal -0.0851262289271722
variable C2neg equal ${d2}
variable C2neg equal 83.0547488608385
variable C3neg equal ${d3}
variable C3neg equal 69.282965387514
variable C4neg equal ${d4}
variable C4neg equal -15.2554765680495
variable C5neg equal ${d5}
variable C5neg equal 8.28617019600888
variable C6neg equal ${d6}
variable C6neg equal -3.06390432683675

# Reset box and simulation parameters
clear
OMP_NUM_THREADS environment is not set. Defaulting to 1 thread. (src/comm.cpp:98)
  using 1 OpenMP thread(s) per MPI task
# box tilt large
read_restart equil.res
Reading restart file ...
  restart file = 2 Aug 2023, LAMMPS = 2 Aug 2023
  restoring atom style full from restart
  triclinic box = (0 0 0) to (15.3172 13.8463 18.3222) with tilt (-7.7318 0.2463 -0.1382)
WARNING: Triclinic box skew is large. LAMMPS will run inefficiently. (src/domain.cpp:220)
  2 by 2 by 2 MPI processor grid
  pair style reaxff stores no restart info
  365 atoms
Finding 1-2 1-3 1-4 neighbors ...
  special bond factors lj:    0        0        0       
  special bond factors coul:  0        0        0       
     0 = max # of 1-2 neighbors
     0 = max # of 1-3 neighbors
     0 = max # of 1-4 neighbors
     1 = max # of special neighbors
  special bonds CPU = 0.000 seconds
  read_restart CPU = 0.003 seconds
print "*****Positive-change ${dir} starts.*****"
*****Positive-change 1 starts.*****
include ff.mod.lmp
# Setup forcefield, system
# undefine any fix ave/* fix before using reset_timestep
if "$(is_defined(fix,avgp))" then "unfix avgp"
reset_timestep 0

# Assign the force field
pair_style reaxff NULL safezone 3.0 mincap 150
# pair_coeff * * CHONSSi.ff O Si
# pair_coeff * * CHOSiNa.ff O Si
# pair_coeff * * SiOCHN_2018.ff O Si
# pair_coeff * * PDMSDecomp.ff Si O
pair_coeff * * CHONSi.ff C H O Si
# pair_coeff * * CHOFe.ff O Si

# charge method for reaxff
fix myqeq all qeq/reaxff 1 0.0 10.0 1.0e-6 reaxff maxiter 400
# Setup neighbor style
neighbor        2 bin
neigh_modify    every 10 delay 0 check no

# Setup output
fix avgp all ave/time  ${nevery} ${nrepeat} ${nfreq} c_thermo_press mode vector
fix avgp all ave/time  10 ${nrepeat} ${nfreq} c_thermo_press mode vector
fix avgp all ave/time  10 10 ${nfreq} c_thermo_press mode vector
fix avgp all ave/time  10 10 100 c_thermo_press mode vector
thermo		${nthermo}
thermo		100
thermo_style custom step temp pe press f_avgp[1] vol
thermo_modify norm no

# NVT
fix 4 all nvt temp ${temp} ${temp} ${tdamp}
fix 4 all nvt temp 300 ${temp} ${tdamp}
fix 4 all nvt temp 300 300 ${tdamp}
fix 4 all nvt temp 300 300 50
Resetting global fix info from restart file:
  fix style: nvt, fix ID: 4

# Positive deformation
variable delta equal ${up}*${len0}
variable delta equal 0.01*${len0}
variable delta equal 0.01*15.3172
variable deltaxy equal ${up}*xy
variable deltaxy equal 0.01*xy
variable deltaxz equal ${up}*xz
variable deltaxz equal 0.01*xz
variable deltayz equal ${up}*yz
variable deltayz equal 0.01*yz
if "${dir} == 1" then    "change_box all x delta 0 ${delta} xy delta ${deltaxy} xz delta ${deltaxz} remap units box"
change_box all x delta 0 ${delta} xy delta ${deltaxy} xz delta ${deltaxz} remap units box
change_box all x delta 0 0.153172 xy delta ${deltaxy} xz delta ${deltaxz} remap units box
change_box all x delta 0 0.153172 xy delta -0.077318 xz delta ${deltaxz} remap units box
change_box all x delta 0 0.153172 xy delta -0.077318 xz delta 0.002463 remap units box
Changing box ...
WARNING: Triclinic box skew is large. LAMMPS will run inefficiently. (src/domain.cpp:220)
  triclinic box = (0 0 0) to (15.470372 13.8463 18.3222) with tilt (-7.7318 0.2463 -0.1382)
WARNING: Triclinic box skew is large. LAMMPS will run inefficiently. (src/domain.cpp:220)
  triclinic box = (0 0 0) to (15.470372 13.8463 18.3222) with tilt (-7.809118 0.2463 -0.1382)
WARNING: Triclinic box skew is large. LAMMPS will run inefficiently. (src/domain.cpp:220)
  triclinic box = (0 0 0) to (15.470372 13.8463 18.3222) with tilt (-7.809118 0.248763 -0.1382)
if "${dir} == 2" then    "change_box all y delta 0 ${delta} yz delta ${deltayz} remap units box"
if "${dir} == 3" then    "change_box all z delta 0 ${delta} remap units box"
if "${dir} == 4" then    "change_box all yz delta ${delta} remap units box"
if "${dir} == 5" then    "change_box all xz delta ${delta} remap units box"
if "${dir} == 6" then    "change_box all xy delta ${delta} remap units box"

# Run positive deformation MD
# save trajectory
dump dump_pos${dir} all custom ${nthermo} dump/pos_deform${dir}.lammpstrj id type x y z
dump dump_pos1 all custom ${nthermo} dump/pos_deform${dir}.lammpstrj id type x y z
dump dump_pos1 all custom 100 dump/pos_deform${dir}.lammpstrj id type x y z
dump dump_pos1 all custom 100 dump/pos_deform1.lammpstrj id type x y z
run ${nrun}
run 3000
All restart file global fix info was re-assigned
Neighbor list info ...
  update: every = 10 steps, delay = 0 steps, check = no
  max neighbors/atom: 2000, page size: 100000
  master list distance cutoff = 12
  ghost atom cutoff = 12
  binsize = 6, bins = 4 3 4
  2 neighbor lists, perpetual/occasional/extra = 2 0 0
  (1) pair reaxff, perpetual
      attributes: half, newton off, ghost
      pair build: half/bin/newtoff/ghost
      stencil: full/ghost/bin/3d
      bin: standard
  (2) fix qeq/reaxff, perpetual, copy from (1)
      attributes: half, newton off
      pair build: copy
      stencil: none
      bin: none
Per MPI rank memory allocation (min/avg/max) = 125.1 | 127.6 | 129.4 Mbytes
   Step          Temp          PotEng         Press        f_avgp[1]        Volume    
         0   293.90336     -42582.318     -35961.34       0              3924.751     
       100   318.24326     -42614.053      1699.5174     -13994.534      3924.751     
       200   307.3622      -42635.67      -1952.0212     -7462.7178      3924.751     
       300   296.77879     -42649.671     -3299.7579     -11662.874      3924.751     
       400   270.15301     -42625.529     -17048.329     -11880.468      3924.751     
       500   307.96088     -42647.785      1726.4383     -11317.078      3924.751     
       600   309.77343     -42630.65      -15237.938     -11883.739      3924.751     
       700   310.9196      -42629.977     -12275.421     -11268.594      3924.751     
       800   303.29518     -42625.417     -3725.534      -7456.3561      3924.751     
       900   305.17793     -42629.644     -12172.673     -9668.9668      3924.751     
      1000   297.26474     -42618.56       1076.1298     -7892.0415      3924.751     
      1100   308.60382     -42625.433     -6680.9116     -12579.828      3924.751     
      1200   296.39387     -42626.095      5048.1678     -13153.607      3924.751     
      1300   310.80153     -42646.066      611.89787     -14256.841      3924.751     
      1400   283.15978     -42622.333      8595.9839     -4152.2981      3924.751     
      1500   298.03372     -42639.413     -5620.9189     -10678.03       3924.751     
      1600   300.70124     -42637.721     -1032.7006     -7290.3379      3924.751     
      1700   320.9877      -42646.106     -9897.4409     -9536.3041      3924.751     
      1800   307.50206     -42620.244     -3093.664      -10037.217      3924.751     
      1900   327.86674     -42651.355      730.85862     -8475.5299      3924.751     
      2000   306.4091      -42661.44      -10791.802     -4276.1781      3924.751     
      2100   274.79346     -42629.368     -16893.248     -11406.086      3924.751     
      2200   307.05998     -42641.855     -5320.9985     -8211.9363      3924.751     
      2300   306.98944     -42633.268     -9844.3775     -7164.1699      3924.751     
      2400   298.35412     -42627.715     -12683.706     -13859.207      3924.751     
      2500   293.83202     -42634.885     -2905.4829     -3823.7079      3924.751     
      2600   282.8191      -42625.217     -12027.938     -10572.069      3924.751     
      2700   300.64164     -42632.966     -5125.629      -7711.8557      3924.751     
      2800   303.29182     -42619.18       3702.3453     -9735.1503      3924.751     
      2900   311.32373     -42614.556     -5086.2214     -5809.6475      3924.751     
      3000   312.26943     -42637.046     -2053.4514     -10016.239      3924.751     
Loop time of 142.451 on 8 procs for 3000 steps with 365 atoms

Performance: 0.910 ns/day, 26.380 hours/ns, 21.060 timesteps/s, 7.687 katom-step/s
98.9% CPU use with 8 MPI tasks x 1 OpenMP threads

MPI task timing breakdown:
Section |  min time  |  avg time  |  max time  |%varavg| %total
---------------------------------------------------------------
Pair    | 80.023     | 108.47     | 119.72     | 158.0 | 76.14
Bond    | 0.0072779  | 0.0082598  | 0.0090049  |   0.6 |  0.01
Neigh   | 6.4659     | 8.5582     | 9.5342     |  40.9 |  6.01
Comm    | 1.2866     | 12.553     | 40.975     | 464.0 |  8.81
Output  | 0.0064503  | 0.0081369  | 0.0093323  |   1.1 |  0.01
Modify  | 11.771     | 12.782     | 14.913     |  34.2 |  8.97
Other   |            | 0.07238    |            |       |  0.05

Nlocal:         45.625 ave          49 max          42 min
Histogram: 1 1 1 0 1 1 0 1 0 2
Nghost:           3247 ave        3296 max        3208 min
Histogram: 1 1 2 0 1 0 1 1 0 1
Neighs:        29651.1 ave       31733 max       27595 min
Histogram: 2 0 1 0 1 1 0 1 0 2

Total # of neighbors = 237209
Ave neighs/atom = 649.88767
Ave special neighs/atom = 0
Neighbor list builds = 300
Dangerous builds not checked
undump dump_pos${dir}
undump dump_pos1

# Run equilibration
print "*****Equilibration pos${dir} starts.*****"
*****Equilibration pos1 starts.*****
include ff.mod.lmp
# Setup forcefield, system
# undefine any fix ave/* fix before using reset_timestep
if "$(is_defined(fix,avgp))" then "unfix avgp"
unfix avgp
reset_timestep 0

# Assign the force field
pair_style reaxff NULL safezone 3.0 mincap 150
# pair_coeff * * CHONSSi.ff O Si
# pair_coeff * * CHOSiNa.ff O Si
# pair_coeff * * SiOCHN_2018.ff O Si
# pair_coeff * * PDMSDecomp.ff Si O
pair_coeff * * CHONSi.ff C H O Si
# pair_coeff * * CHOFe.ff O Si

# charge method for reaxff
fix myqeq all qeq/reaxff 1 0.0 10.0 1.0e-6 reaxff maxiter 400
# Setup neighbor style
neighbor        2 bin
neigh_modify    every 10 delay 0 check no

# Setup output
fix avgp all ave/time  ${nevery} ${nrepeat} ${nfreq} c_thermo_press mode vector
fix avgp all ave/time  10 ${nrepeat} ${nfreq} c_thermo_press mode vector
fix avgp all ave/time  10 10 ${nfreq} c_thermo_press mode vector
fix avgp all ave/time  10 10 100 c_thermo_press mode vector
thermo		${nthermo}
thermo		100
thermo_style custom step temp pe press f_avgp[1] vol
WARNING: New thermo_style command, previous thermo_modify settings will be lost (src/output.cpp:903)
thermo_modify norm no

# NVT
fix 4 all nvt temp ${temp} ${temp} ${tdamp}
fix 4 all nvt temp 300 ${temp} ${tdamp}
fix 4 all nvt temp 300 300 ${tdamp}
fix 4 all nvt temp 300 300 50
run ${nequil}
run 3000
Neighbor list info ...
  update: every = 10 steps, delay = 0 steps, check = no
  max neighbors/atom: 2000, page size: 100000
  master list distance cutoff = 12
  ghost atom cutoff = 12
  binsize = 6, bins = 4 3 4
  2 neighbor lists, perpetual/occasional/extra = 2 0 0
  (1) pair reaxff, perpetual
      attributes: half, newton off, ghost
      pair build: half/bin/newtoff/ghost
      stencil: full/ghost/bin/3d
      bin: standard
  (2) fix qeq/reaxff, perpetual, copy from (1)
      attributes: half, newton off
      pair build: copy
      stencil: none
      bin: none
Per MPI rank memory allocation (min/avg/max) = 125.2 | 127.5 | 129.4 Mbytes
   Step          Temp          PotEng         Press        f_avgp[1]        Volume    
         0   312.26943     -42637.046     -2053.448       0              3924.751     
       100   299.33328     -42636.521     -14312.392     -7638.873       3924.751     
       200   273.99754     -42630.076     -886.47891     -12792.907      3924.751     
       300   262.7532      -42633.868     -2327.3097     -8430.3554      3924.751     
       400   305.88851     -42657.006      521.88662     -9584.2047      3924.751     
       500   302.65628     -42626.819      9424.8718     -8781.0515      3924.751     
       600   296.22845     -42605.92      -1610.6479     -4788.0786      3924.751     
       700   289.0776      -42601.819     -3731.4601     -9837.5993      3924.751     
       800   284.18919     -42632.389     -5009.6553     -8306.9355      3924.751     
       900   291.04012     -42655.103      122.62712     -10785.709      3924.751     
      1000   283.77595     -42633.38      -19068.684     -9453.515       3924.751     
      1100   293.90745     -42625.782      1786.631      -2395.6562      3924.751     
      1200   292.38762     -42610.345      11483.845     -7108.9409      3924.751     
      1300   300.60988     -42618.905     -7176.0995     -10630.031      3924.751     
      1400   301.49952     -42624.106     -7700.7017     -12003.885      3924.751     
      1500   300.70837     -42625.693     -6798.3586     -10325.667      3924.751     
      1600   301.39876     -42635.756      1733.015      -5102.7773      3924.751     
      1700   304.137       -42644.725     -1070.3727     -4898.0307      3924.751     
      1800   287.03301     -42640.164     -3184.3927     -7309.2615      3924.751     
      1900   279.16171     -42635.334      6713.7659     -7314.0461      3924.751     
      2000   301.24775     -42641.796     -2944.8602     -13731.932      3924.751     
      2100   313.88678     -42631.723     -3680.1263     -9376.5954      3924.751     
      2200   312.65483     -42617.351      2653.0359     -7087.7223      3924.751     
      2300   307.99002     -42632.39       1097.7998     -4950.1448      3924.751     
      2400   303.63665     -42649.296      4146.3301     -8516.572       3924.751     
      2500   286.8325      -42628.528     -852.08861     -5282.6461      3924.751     
      2600   301.0327      -42634.863     -137.57058     -9144.0432      3924.751     
      2700   299.94913     -42624.256     -4882.538      -10568.471      3924.751     
      2800   318.81527     -42627.17      -14832.303     -11746.498      3924.751     
      2900   332.4106      -42634.474      5867.4058     -9244.5068      3924.751     
      3000   297.4424      -42628.229      9313.995      -5076.0819      3924.751     
Loop time of 142.015 on 8 procs for 3000 steps with 365 atoms

Performance: 0.913 ns/day, 26.299 hours/ns, 21.124 timesteps/s, 7.710 katom-step/s
98.9% CPU use with 8 MPI tasks x 1 OpenMP threads

MPI task timing breakdown:
Section |  min time  |  avg time  |  max time  |%varavg| %total
---------------------------------------------------------------
Pair    | 80.006     | 106.51     | 118.48     | 153.2 | 75.00
Bond    | 0.0075323  | 0.0081508  | 0.0085782  |   0.4 |  0.01
Neigh   | 6.4722     | 8.4116     | 9.472      |  40.4 |  5.92
Comm    | 2.2367     | 14.186     | 40.668     | 419.4 |  9.99
Output  | 0.0012439  | 0.0014009  | 0.0021364  |   0.7 |  0.00
Modify  | 11.732     | 12.825     | 14.801     |  33.5 |  9.03
Other   |            | 0.07218    |            |       |  0.05

Nlocal:         45.625 ave          50 max          41 min
Histogram: 1 2 0 0 0 0 2 2 0 1
Nghost:        3273.38 ave        3339 max        3226 min
Histogram: 2 0 2 1 0 1 0 0 1 1
Neighs:        29619.2 ave       32178 max       26913 min
Histogram: 3 0 0 0 0 0 1 3 0 1

Total # of neighbors = 236954
Ave neighs/atom = 649.18904
Ave special neighs/atom = 0
Neighbor list builds = 300
Dangerous builds not checked

# Obtain new stress tensor, convert index from LAMMPS to Voigt
variable pxx1 equal f_avgp[1]
variable pyy1 equal f_avgp[2]
variable pzz1 equal f_avgp[3]
variable pxy1 equal f_avgp[4]
variable pxz1 equal f_avgp[5]
variable pyz1 equal f_avgp[6]

# Compute elastic constant from pressure tensor
# d1 = -[pxx1-pxx0]/[(]v_delta/v_len0] defined in input script
variable C1pos equal ${d1}
variable C1pos equal 53.8736646415898
variable C2pos equal ${d2}
variable C2pos equal -55.5574654083673
variable C3pos equal ${d3}
variable C3pos equal 17.6478183729783
variable C4pos equal ${d4}
variable C4pos equal -3.58147453064472
variable C5pos equal ${d5}
variable C5pos equal -19.2247180181223
variable C6pos equal ${d6}
variable C6pos equal -4.13483492578014

# Combine positive and negative
variable C1${dir} equal 0.5*(${C1neg}+${C1pos})
variable C11 equal 0.5*(${C1neg}+${C1pos})
variable C11 equal 0.5*(-0.0851262289271722+${C1pos})
variable C11 equal 0.5*(-0.0851262289271722+53.8736646415898)
variable C2${dir} equal 0.5*(${C2neg}+${C2pos})
variable C21 equal 0.5*(${C2neg}+${C2pos})
variable C21 equal 0.5*(83.0547488608385+${C2pos})
variable C21 equal 0.5*(83.0547488608385+-55.5574654083673)
variable C3${dir} equal 0.5*(${C3neg}+${C3pos})
variable C31 equal 0.5*(${C3neg}+${C3pos})
variable C31 equal 0.5*(69.282965387514+${C3pos})
variable C31 equal 0.5*(69.282965387514+17.6478183729783)
variable C4${dir} equal 0.5*(${C4neg}+${C4pos})
variable C41 equal 0.5*(${C4neg}+${C4pos})
variable C41 equal 0.5*(-15.2554765680495+${C4pos})
variable C41 equal 0.5*(-15.2554765680495+-3.58147453064472)
variable C5${dir} equal 0.5*(${C5neg}+${C5pos})
variable C51 equal 0.5*(${C5neg}+${C5pos})
variable C51 equal 0.5*(8.28617019600888+${C5pos})
variable C51 equal 0.5*(8.28617019600888+-19.2247180181223)
variable C6${dir} equal 0.5*(${C6neg}+${C6pos})
variable C61 equal 0.5*(${C6neg}+${C6pos})
variable C61 equal 0.5*(-3.06390432683675+${C6pos})
variable C61 equal 0.5*(-3.06390432683675+-4.13483492578014)

# Delete dir to make sure it is not reused
variable dir delete
# uyy Perturbation
variable dir equal 2
include displace.mod.lmp
# Find which reference length to use
if "${dir} == 1" then    "variable len0 equal ${lx0}"
if "${dir} == 2" then    "variable len0 equal ${ly0}"
variable len0 equal ${ly0}
variable len0 equal 13.8463
if "${dir} == 3" then    "variable len0 equal ${lz0}"
if "${dir} == 4" then    "variable len0 equal ${lz0}"
if "${dir} == 5" then    "variable len0 equal ${lz0}"
if "${dir} == 6" then    "variable len0 equal ${ly0}"

# Reset box and simulation parameters
clear
OMP_NUM_THREADS environment is not set. Defaulting to 1 thread. (src/comm.cpp:98)
  using 1 OpenMP thread(s) per MPI task
# box tilt large
read_restart equil.res
Reading restart file ...
  restart file = 2 Aug 2023, LAMMPS = 2 Aug 2023
  restoring atom style full from restart
  triclinic box = (0 0 0) to (15.3172 13.8463 18.3222) with tilt (-7.7318 0.2463 -0.1382)
WARNING: Triclinic box skew is large. LAMMPS will run inefficiently. (src/domain.cpp:220)
  2 by 2 by 2 MPI processor grid
  pair style reaxff stores no restart info
  365 atoms
Finding 1-2 1-3 1-4 neighbors ...
  special bond factors lj:    0        0        0       
  special bond factors coul:  0        0        0       
     0 = max # of 1-2 neighbors
     0 = max # of 1-3 neighbors
     0 = max # of 1-4 neighbors
     1 = max # of special neighbors
  special bonds CPU = 0.000 seconds
  read_restart CPU = 0.003 seconds
print "*****Negative-change ${dir} starts.*****"
*****Negative-change 2 starts.*****
include ff.mod.lmp
# Setup forcefield, system
# undefine any fix ave/* fix before using reset_timestep
if "$(is_defined(fix,avgp))" then "unfix avgp"
reset_timestep 0

# Assign the force field
pair_style reaxff NULL safezone 3.0 mincap 150
# pair_coeff * * CHONSSi.ff O Si
# pair_coeff * * CHOSiNa.ff O Si
# pair_coeff * * SiOCHN_2018.ff O Si
# pair_coeff * * PDMSDecomp.ff Si O
pair_coeff * * CHONSi.ff C H O Si
# pair_coeff * * CHOFe.ff O Si

# charge method for reaxff
fix myqeq all qeq/reaxff 1 0.0 10.0 1.0e-6 reaxff maxiter 400
# Setup neighbor style
neighbor        2 bin
neigh_modify    every 10 delay 0 check no

# Setup output
fix avgp all ave/time  ${nevery} ${nrepeat} ${nfreq} c_thermo_press mode vector
fix avgp all ave/time  10 ${nrepeat} ${nfreq} c_thermo_press mode vector
fix avgp all ave/time  10 10 ${nfreq} c_thermo_press mode vector
fix avgp all ave/time  10 10 100 c_thermo_press mode vector
thermo		${nthermo}
thermo		100
thermo_style custom step temp pe press f_avgp[1] vol
thermo_modify norm no

# NVT
fix 4 all nvt temp ${temp} ${temp} ${tdamp}
fix 4 all nvt temp 300 ${temp} ${tdamp}
fix 4 all nvt temp 300 300 ${tdamp}
fix 4 all nvt temp 300 300 50
Resetting global fix info from restart file:
  fix style: nvt, fix ID: 4

# Negative deformation
variable delta equal -${up}*${len0}
variable delta equal -0.01*${len0}
variable delta equal -0.01*13.8463
variable deltaxy equal -${up}*xy
variable deltaxy equal -0.01*xy
variable deltaxz equal -${up}*xz
variable deltaxz equal -0.01*xz
variable deltayz equal -${up}*yz
variable deltayz equal -0.01*yz
if "${dir} == 1" then    "change_box all x delta 0 ${delta} xy delta ${deltaxy} xz delta ${deltaxz} remap units box"
if "${dir} == 2" then    "change_box all y delta 0 ${delta} yz delta ${deltayz} remap units box"
change_box all y delta 0 ${delta} yz delta ${deltayz} remap units box
change_box all y delta 0 -0.138463 yz delta ${deltayz} remap units box
change_box all y delta 0 -0.138463 yz delta 0.001382 remap units box
Changing box ...
WARNING: Triclinic box skew is large. LAMMPS will run inefficiently. (src/domain.cpp:220)
  triclinic box = (0 0 0) to (15.3172 13.707837 18.3222) with tilt (-7.7318 0.2463 -0.1382)
WARNING: Triclinic box skew is large. LAMMPS will run inefficiently. (src/domain.cpp:220)
  triclinic box = (0 0 0) to (15.3172 13.707837 18.3222) with tilt (-7.7318 0.2463 -0.136818)
if "${dir} == 3" then    "change_box all z delta 0 ${delta} remap units box"
if "${dir} == 4" then    "change_box all yz delta ${delta} remap units box"
if "${dir} == 5" then    "change_box all xz delta ${delta} remap units box"
if "${dir} == 6" then    "change_box all xy delta ${delta} remap units box"

# Run MD for Negative deformation
# save trajectory
dump dump_neg${dir} all custom ${nthermo} dump/neg_deform${dir}.lammpstrj id type x y z
dump dump_neg2 all custom ${nthermo} dump/neg_deform${dir}.lammpstrj id type x y z
dump dump_neg2 all custom 100 dump/neg_deform${dir}.lammpstrj id type x y z
dump dump_neg2 all custom 100 dump/neg_deform2.lammpstrj id type x y z
run ${nrun}
run 3000
All restart file global fix info was re-assigned
Neighbor list info ...
  update: every = 10 steps, delay = 0 steps, check = no
  max neighbors/atom: 2000, page size: 100000
  master list distance cutoff = 12
  ghost atom cutoff = 12
  binsize = 6, bins = 4 3 4
  2 neighbor lists, perpetual/occasional/extra = 2 0 0
  (1) pair reaxff, perpetual
      attributes: half, newton off, ghost
      pair build: half/bin/newtoff/ghost
      stencil: full/ghost/bin/3d
      bin: standard
  (2) fix qeq/reaxff, perpetual, copy from (1)
      attributes: half, newton off
      pair build: copy
      stencil: none
      bin: none
Per MPI rank memory allocation (min/avg/max) = 127.1 | 128.7 | 130 Mbytes
   Step          Temp          PotEng         Press        f_avgp[1]        Volume    
         0   293.90336     -42582.449      53599.504      0              3847.0332    
       100   314.32032     -42616.233      4297.6585     -5397.8019      3847.0332    
       200   313.92782     -42655.558     -10876.722     -2745.4879      3847.0332    
       300   297.28862     -42667.427      3492.0555     -3330.4795      3847.0332    
       400   276.291       -42651.926     -11969.331     -7220.8944      3847.0332    
       500   297.67409     -42644.819      7651.5692     -5208.7589      3847.0332    
       600   315.77871     -42633.433     -5859.3326     -5095.8493      3847.0332    
       700   318.23333     -42629.221      162.23752     -5179.5811      3847.0332    
       800   293.81721     -42612.527     -2380.7328      134.73248      3847.0332    
       900   286.08411     -42611.17      -8435.9227     -2751.522       3847.0332    
      1000   307.93504     -42636.436      4664.5783     -7228.5337      3847.0332    
      1100   306.23072     -42633.754      2036.5339     -3423.3319      3847.0332    
      1200   308.82486     -42644.674     -575.10346     -6090.7924      3847.0332    
      1300   294.24992     -42639.765      6805.3764     -6681.8458      3847.0332    
      1400   310.56669     -42654.671      6892.5869     -4675.7439      3847.0332    
      1500   279.32976     -42607.616     -6881.2917     -11497.278      3847.0332    
      1600   325.13871     -42637.315     -5612.547      -3709.4761      3847.0332    
      1700   317.50747     -42632.581      1873.1126      754.80152      3847.0332    
      1800   303.74227     -42653.56      -1911.4624      926.09274      3847.0332    
      1900   302.77119     -42659.454     -7686.3859     -1726.1032      3847.0332    
      2000   284.82422     -42636.656     -17427.922     -10178.367      3847.0332    
      2100   321.40343     -42659.862     -9542.2164     -3255.7465      3847.0332    
      2200   342.54754     -42656.762     -1737.0214     -9863.2651      3847.0332    
      2300   329.01597     -42640.06       10308.867     -2927.8891      3847.0332    
      2400   297.32425     -42646.012     -2591.672      -6194.7852      3847.0332    
      2500   277.3989      -42642.386      1825.7662     -4762.7983      3847.0332    
      2600   289.47761     -42655.042     -241.42563     -2607.7607      3847.0332    
      2700   298.14633     -42649.68       4191.2696      1476.9845      3847.0332    
      2800   311.71288     -42635.071      11544.735     -3486.2481      3847.0332    
      2900   307.9866      -42627.426      10152.86       1171.9716      3847.0332    
      3000   292.12779     -42632.643      2359.3073     -10607.633      3847.0332    
Loop time of 145.411 on 8 procs for 3000 steps with 365 atoms

Performance: 0.891 ns/day, 26.928 hours/ns, 20.631 timesteps/s, 7.530 katom-step/s
98.9% CPU use with 8 MPI tasks x 1 OpenMP threads

MPI task timing breakdown:
Section |  min time  |  avg time  |  max time  |%varavg| %total
---------------------------------------------------------------
Pair    | 82.421     | 105.98     | 122.21     | 170.9 | 72.88
Bond    | 0.0070607  | 0.0080783  | 0.0087528  |   0.6 |  0.01
Neigh   | 6.5586     | 8.3447     | 9.7746     |  47.8 |  5.74
Comm    | 1.5109     | 17.72      | 41.259     | 417.5 | 12.19
Output  | 0.0062808  | 0.0080523  | 0.0092389  |   1.1 |  0.01
Modify  | 11.808     | 13.283     | 15.097     |  38.6 |  9.13
Other   |            | 0.07126    |            |       |  0.05

Nlocal:         45.625 ave          49 max          42 min
Histogram: 1 0 0 0 4 0 0 2 0 1
Nghost:        3320.12 ave        3366 max        3282 min
Histogram: 1 0 2 2 1 0 0 0 0 2
Neighs:          30285 ave       32330 max       27867 min
Histogram: 1 0 0 0 4 0 0 2 0 1

Total # of neighbors = 242280
Ave neighs/atom = 663.78082
Ave special neighs/atom = 0
Neighbor list builds = 300
Dangerous builds not checked
undump dump_neg${dir}
undump dump_neg2

# Run equilibration
print "*****Equilibration neg${dir} starts.*****"
*****Equilibration neg2 starts.*****
include ff.mod.lmp
# Setup forcefield, system
# undefine any fix ave/* fix before using reset_timestep
if "$(is_defined(fix,avgp))" then "unfix avgp"
unfix avgp
reset_timestep 0

# Assign the force field
pair_style reaxff NULL safezone 3.0 mincap 150
# pair_coeff * * CHONSSi.ff O Si
# pair_coeff * * CHOSiNa.ff O Si
# pair_coeff * * SiOCHN_2018.ff O Si
# pair_coeff * * PDMSDecomp.ff Si O
pair_coeff * * CHONSi.ff C H O Si
# pair_coeff * * CHOFe.ff O Si

# charge method for reaxff
fix myqeq all qeq/reaxff 1 0.0 10.0 1.0e-6 reaxff maxiter 400
# Setup neighbor style
neighbor        2 bin
neigh_modify    every 10 delay 0 check no

# Setup output
fix avgp all ave/time  ${nevery} ${nrepeat} ${nfreq} c_thermo_press mode vector
fix avgp all ave/time  10 ${nrepeat} ${nfreq} c_thermo_press mode vector
fix avgp all ave/time  10 10 ${nfreq} c_thermo_press mode vector
fix avgp all ave/time  10 10 100 c_thermo_press mode vector
thermo		${nthermo}
thermo		100
thermo_style custom step temp pe press f_avgp[1] vol
WARNING: New thermo_style command, previous thermo_modify settings will be lost (src/output.cpp:903)
thermo_modify norm no

# NVT
fix 4 all nvt temp ${temp} ${temp} ${tdamp}
fix 4 all nvt temp 300 ${temp} ${tdamp}
fix 4 all nvt temp 300 300 ${tdamp}
fix 4 all nvt temp 300 300 50
run ${nequil}
run 3000
Neighbor list info ...
  update: every = 10 steps, delay = 0 steps, check = no
  max neighbors/atom: 2000, page size: 100000
  master list distance cutoff = 12
  ghost atom cutoff = 12
  binsize = 6, bins = 4 3 4
  2 neighbor lists, perpetual/occasional/extra = 2 0 0
  (1) pair reaxff, perpetual
      attributes: half, newton off, ghost
      pair build: half/bin/newtoff/ghost
      stencil: full/ghost/bin/3d
      bin: standard
  (2) fix qeq/reaxff, perpetual, copy from (1)
      attributes: half, newton off
      pair build: copy
      stencil: none
      bin: none
Per MPI rank memory allocation (min/avg/max) = 127.2 | 128.7 | 130 Mbytes
   Step          Temp          PotEng         Press        f_avgp[1]        Volume    
         0   292.12779     -42632.643      2359.3115      0              3847.0332    
       100   319.21136     -42672.336      7779.4164     -3726.2667      3847.0332    
       200   292.08537     -42670.519     -5486.6088     -7375.2493      3847.0332    
       300   288.22189     -42676.316      12049.609      957.18862      3847.0332    
       400   304.28612     -42653.83      -3492.7642     -7167.3763      3847.0332    
       500   300.79209     -42632.288      12024.444     -2310.5863      3847.0332    
       600   311.25601     -42642.196      4285.8931     -9944.8919      3847.0332    
       700   320.3042      -42668.943      7728.3155      491.81655      3847.0332    
       800   294.19184     -42668.886     -1225.7087     -8840.0393      3847.0332    
       900   278.33139     -42654.181     -6389.9915     -8474.6811      3847.0332    
      1000   292.77438     -42652.009     -5019.7432     -2577.51        3847.0332    
      1100   294.55838     -42647.152      1161.5576     -5118.2003      3847.0332    
      1200   321.10884     -42672.173     -13785.28      -9667.06        3847.0332    
      1300   297.93018     -42647.291      3723.3325     -2831.605       3847.0332    
      1400   298.15481     -42653.37      -12487.17      -1184.9071      3847.0332    
      1500   297.55995     -42653.726      6607.6777     -7974.7227      3847.0332    
      1600   295.0164      -42642.557      4665.5866     -7439.9835      3847.0332    
      1700   305.57018     -42634.116      4931.438       1328.3092      3847.0332    
      1800   322.47485     -42641.462     -4726.1062     -5137.0787      3847.0332    
      1900   287.22895     -42636.98       10561.264     -1948.682       3847.0332    
      2000   286.97414     -42654.107      3334.682      -4080.4686      3847.0332    
      2100   285.17221     -42640.987      256.9308      -7167.5777      3847.0332    
      2200   312.94336     -42660.735      6112.4139      394.23802      3847.0332    
      2300   287.85269     -42635.95       5063.1419     -756.19237      3847.0332    
      2400   302.55412     -42662.927      13506.089     -1891.6006      3847.0332    
      2500   276.6837      -42651.763     -1492.9475     -4966.1574      3847.0332    
      2600   276.48495     -42647.844     -5943.3782     -6326.0129      3847.0332    
      2700   303.97352     -42652.352     -3746.7079     -6199.2832      3847.0332    
      2800   308.7461      -42653.389      6412.3372      1655.7745      3847.0332    
      2900   290.85189     -42662.353      6162.2166     -3046.0503      3847.0332    
      3000   275.05872     -42667.615     -2954.3223      74.739424      3847.0332    
Loop time of 144.925 on 8 procs for 3000 steps with 365 atoms

Performance: 0.894 ns/day, 26.838 hours/ns, 20.700 timesteps/s, 7.556 katom-step/s
99.0% CPU use with 8 MPI tasks x 1 OpenMP threads

MPI task timing breakdown:
Section |  min time  |  avg time  |  max time  |%varavg| %total
---------------------------------------------------------------
Pair    | 83.332     | 102.02     | 121.16     | 180.5 | 70.40
Bond    | 0.0071742  | 0.0080171  | 0.0086608  |   0.5 |  0.01
Neigh   | 6.5289     | 8.0641     | 9.6882     |  51.8 |  5.56
Comm    | 2.2172     | 21.33      | 40         | 394.2 | 14.72
Output  | 0.0012194  | 0.0014198  | 0.0019553  |   0.6 |  0.00
Modify  | 11.763     | 13.431     | 14.999     |  41.1 |  9.27
Other   |            | 0.06999    |            |       |  0.05

Nlocal:         45.625 ave          49 max          40 min
Histogram: 1 0 0 0 1 1 3 0 0 2
Nghost:         3308.5 ave        3362 max        3264 min
Histogram: 1 1 1 0 2 1 0 0 1 1
Neighs:        30258.6 ave       32616 max       26798 min
Histogram: 1 0 0 0 1 1 3 0 0 2

Total # of neighbors = 242069
Ave neighs/atom = 663.20274
Ave special neighs/atom = 0
Neighbor list builds = 300
Dangerous builds not checked

# Obtain new stress tensor Negative deformation, convert index from LAMMPS to Voigt
variable pxx1 equal f_avgp[1]
variable pyy1 equal f_avgp[2]
variable pzz1 equal f_avgp[3]
variable pxy1 equal f_avgp[4]
variable pxz1 equal f_avgp[5]
variable pyz1 equal f_avgp[6]

# Compute elastic constant from pressure
# d1 = -[pxx1-pxx0]/[(]v_delta/v_len0] defined in input script
variable C1neg equal ${d1}
variable C1neg equal -1.68296772628437
variable C2neg equal ${d2}
variable C2neg equal 83.7544874155042
variable C3neg equal ${d3}
variable C3neg equal -4.55009975115418
variable C4neg equal ${d4}
variable C4neg equal 0.545248614954615
variable C5neg equal ${d5}
variable C5neg equal 8.15124451641219
variable C6neg equal ${d6}
variable C6neg equal 2.86459567096229

# Reset box and simulation parameters
clear
OMP_NUM_THREADS environment is not set. Defaulting to 1 thread. (src/comm.cpp:98)
  using 1 OpenMP thread(s) per MPI task
# box tilt large
read_restart equil.res
Reading restart file ...
  restart file = 2 Aug 2023, LAMMPS = 2 Aug 2023
  restoring atom style full from restart
  triclinic box = (0 0 0) to (15.3172 13.8463 18.3222) with tilt (-7.7318 0.2463 -0.1382)
WARNING: Triclinic box skew is large. LAMMPS will run inefficiently. (src/domain.cpp:220)
  2 by 2 by 2 MPI processor grid
  pair style reaxff stores no restart info
  365 atoms
Finding 1-2 1-3 1-4 neighbors ...
  special bond factors lj:    0        0        0       
  special bond factors coul:  0        0        0       
     0 = max # of 1-2 neighbors
     0 = max # of 1-3 neighbors
     0 = max # of 1-4 neighbors
     1 = max # of special neighbors
  special bonds CPU = 0.000 seconds
  read_restart CPU = 0.003 seconds
print "*****Positive-change ${dir} starts.*****"
*****Positive-change 2 starts.*****
include ff.mod.lmp
# Setup forcefield, system
# undefine any fix ave/* fix before using reset_timestep
if "$(is_defined(fix,avgp))" then "unfix avgp"
reset_timestep 0

# Assign the force field
pair_style reaxff NULL safezone 3.0 mincap 150
# pair_coeff * * CHONSSi.ff O Si
# pair_coeff * * CHOSiNa.ff O Si
# pair_coeff * * SiOCHN_2018.ff O Si
# pair_coeff * * PDMSDecomp.ff Si O
pair_coeff * * CHONSi.ff C H O Si
# pair_coeff * * CHOFe.ff O Si

# charge method for reaxff
fix myqeq all qeq/reaxff 1 0.0 10.0 1.0e-6 reaxff maxiter 400
# Setup neighbor style
neighbor        2 bin
neigh_modify    every 10 delay 0 check no

# Setup output
fix avgp all ave/time  ${nevery} ${nrepeat} ${nfreq} c_thermo_press mode vector
fix avgp all ave/time  10 ${nrepeat} ${nfreq} c_thermo_press mode vector
fix avgp all ave/time  10 10 ${nfreq} c_thermo_press mode vector
fix avgp all ave/time  10 10 100 c_thermo_press mode vector
thermo		${nthermo}
thermo		100
thermo_style custom step temp pe press f_avgp[1] vol
thermo_modify norm no

# NVT
fix 4 all nvt temp ${temp} ${temp} ${tdamp}
fix 4 all nvt temp 300 ${temp} ${tdamp}
fix 4 all nvt temp 300 300 ${tdamp}
fix 4 all nvt temp 300 300 50
Resetting global fix info from restart file:
  fix style: nvt, fix ID: 4

# Positive deformation
variable delta equal ${up}*${len0}
variable delta equal 0.01*${len0}
variable delta equal 0.01*13.8463
variable deltaxy equal ${up}*xy
variable deltaxy equal 0.01*xy
variable deltaxz equal ${up}*xz
variable deltaxz equal 0.01*xz
variable deltayz equal ${up}*yz
variable deltayz equal 0.01*yz
if "${dir} == 1" then    "change_box all x delta 0 ${delta} xy delta ${deltaxy} xz delta ${deltaxz} remap units box"
if "${dir} == 2" then    "change_box all y delta 0 ${delta} yz delta ${deltayz} remap units box"
change_box all y delta 0 ${delta} yz delta ${deltayz} remap units box
change_box all y delta 0 0.138463 yz delta ${deltayz} remap units box
change_box all y delta 0 0.138463 yz delta -0.001382 remap units box
Changing box ...
WARNING: Triclinic box skew is large. LAMMPS will run inefficiently. (src/domain.cpp:220)
  triclinic box = (0 0 0) to (15.3172 13.984763 18.3222) with tilt (-7.7318 0.2463 -0.1382)
WARNING: Triclinic box skew is large. LAMMPS will run inefficiently. (src/domain.cpp:220)
  triclinic box = (0 0 0) to (15.3172 13.984763 18.3222) with tilt (-7.7318 0.2463 -0.139582)
if "${dir} == 3" then    "change_box all z delta 0 ${delta} remap units box"
if "${dir} == 4" then    "change_box all yz delta ${delta} remap units box"
if "${dir} == 5" then    "change_box all xz delta ${delta} remap units box"
if "${dir} == 6" then    "change_box all xy delta ${delta} remap units box"

# Run positive deformation MD
# save trajectory
dump dump_pos${dir} all custom ${nthermo} dump/pos_deform${dir}.lammpstrj id type x y z
dump dump_pos2 all custom ${nthermo} dump/pos_deform${dir}.lammpstrj id type x y z
dump dump_pos2 all custom 100 dump/pos_deform${dir}.lammpstrj id type x y z
dump dump_pos2 all custom 100 dump/pos_deform2.lammpstrj id type x y z
run ${nrun}
run 3000
All restart file global fix info was re-assigned
Neighbor list info ...
  update: every = 10 steps, delay = 0 steps, check = no
  max neighbors/atom: 2000, page size: 100000
  master list distance cutoff = 12
  ghost atom cutoff = 12
  binsize = 6, bins = 4 3 4
  2 neighbor lists, perpetual/occasional/extra = 2 0 0
  (1) pair reaxff, perpetual
      attributes: half, newton off, ghost
      pair build: half/bin/newtoff/ghost
      stencil: full/ghost/bin/3d
      bin: standard
  (2) fix qeq/reaxff, perpetual, copy from (1)
      attributes: half, newton off
      pair build: copy
      stencil: none
      bin: none
Per MPI rank memory allocation (min/avg/max) = 125.2 | 127.5 | 129 Mbytes
   Step          Temp          PotEng         Press        f_avgp[1]        Volume    
         0   293.90336     -42581.186     -38761.328      0              3924.751     
       100   315.87513     -42611.291      3487.2172     -8295.2308      3924.751     
       200   292.93922     -42619.918     -2561.1018     -3627.033       3924.751     
       300   297.87106     -42650.586     -3135.5773     -9430.2297      3924.751     
       400   281.55139     -42638.173     -13198.32      -7344.5033      3924.751     
       500   302.70083     -42645.722      2424.2796     -7599.8575      3924.751     
       600   300.95622     -42635.285     -15445.099     -6584.3001      3924.751     
       700   291.42801     -42622.32      -7120.9084     -13137.425      3924.751     
       800   287.0223      -42619.824     -940.6285      -5738.5656      3924.751     
       900   295.32354     -42621.631     -6088.7874     -5457.5187      3924.751     
      1000   302.85587     -42624.267     -213.93877     -7841.0027      3924.751     
      1100   306.01691     -42647.666     -2529.8753     -4470.9745      3924.751     
      1200   294.74448     -42657.091     -1708.2094     -9024.0268      3924.751     
      1300   270.94764     -42637.046     -2094.7644     -6236.7487      3924.751     
      1400   310.26912     -42652.463      2496.3646     -1932.0479      3924.751     
      1500   294.13624     -42612.799      4000.5912     -4560.0445      3924.751     
      1600   308.47743     -42619.527      3665.6091     -1841.6897      3924.751     
      1700   285.65957     -42615.306     -11259.982      1545.076       3924.751     
      1800   294.23356     -42647.811     -3154.8751     -5489.3261      3924.751     
      1900   291.86258     -42645.168     -12073.725     -7352.5314      3924.751     
      2000   303.39372     -42634.125     -5315.562      -9284.3494      3924.751     
      2100   292.23099     -42618.389      2281.5646     -4438.7775      3924.751     
      2200   324.65377     -42662.107      1834.6068     -3585.9026      3924.751     
      2300   303.61696     -42656.081      13204.328     -6510.78        3924.751     
      2400   288.51638     -42641.223     -8966.774      -3483.6269      3924.751     
      2500   305.10404     -42636.26       8517.2075     -1731.2085      3924.751     
      2600   319.07849     -42628.996      829.45433     -7486.3229      3924.751     
      2700   298.35285     -42611.419     -3000.5201     -2858.4496      3924.751     
      2800   295.86727     -42639.433     -10009.59      -7103.3972      3924.751     
      2900   291.80907     -42655.525     -5798.0275     -684.77482      3924.751     
      3000   288.68587     -42643.289      1934.2897     -5873.8254      3924.751     
Loop time of 141.177 on 8 procs for 3000 steps with 365 atoms

Performance: 0.918 ns/day, 26.144 hours/ns, 21.250 timesteps/s, 7.756 katom-step/s
98.9% CPU use with 8 MPI tasks x 1 OpenMP threads

MPI task timing breakdown:
Section |  min time  |  avg time  |  max time  |%varavg| %total
---------------------------------------------------------------
Pair    | 80.268     | 99.072     | 117.76     | 179.4 | 70.18
Bond    | 0.0072635  | 0.008045   | 0.0086364  |   0.5 |  0.01
Neigh   | 6.3512     | 7.8545     | 9.4542     |  51.2 |  5.56
Comm    | 2.118      | 20.777     | 39.558     | 391.1 | 14.72
Output  | 0.0061201  | 0.0076474  | 0.0085602  |   1.0 |  0.01
Modify  | 11.744     | 13.388     | 14.933     |  40.2 |  9.48
Other   |            | 0.06992    |            |       |  0.05

Nlocal:         45.625 ave          49 max          41 min
Histogram: 1 0 0 1 0 1 2 2 0 1
Nghost:           3271 ave        3308 max        3234 min
Histogram: 2 2 0 0 0 0 0 1 0 3
Neighs:        29648.4 ave       31738 max       26951 min
Histogram: 1 0 0 1 0 1 2 2 0 1

Total # of neighbors = 237187
Ave neighs/atom = 649.8274
Ave special neighs/atom = 0
Neighbor list builds = 300
Dangerous builds not checked
undump dump_pos${dir}
undump dump_pos2

# Run equilibration
print "*****Equilibration pos${dir} starts.*****"
*****Equilibration pos2 starts.*****
include ff.mod.lmp
# Setup forcefield, system
# undefine any fix ave/* fix before using reset_timestep
if "$(is_defined(fix,avgp))" then "unfix avgp"
unfix avgp
reset_timestep 0

# Assign the force field
pair_style reaxff NULL safezone 3.0 mincap 150
# pair_coeff * * CHONSSi.ff O Si
# pair_coeff * * CHOSiNa.ff O Si
# pair_coeff * * SiOCHN_2018.ff O Si
# pair_coeff * * PDMSDecomp.ff Si O
pair_coeff * * CHONSi.ff C H O Si
# pair_coeff * * CHOFe.ff O Si

# charge method for reaxff
fix myqeq all qeq/reaxff 1 0.0 10.0 1.0e-6 reaxff maxiter 400
# Setup neighbor style
neighbor        2 bin
neigh_modify    every 10 delay 0 check no

# Setup output
fix avgp all ave/time  ${nevery} ${nrepeat} ${nfreq} c_thermo_press mode vector
fix avgp all ave/time  10 ${nrepeat} ${nfreq} c_thermo_press mode vector
fix avgp all ave/time  10 10 ${nfreq} c_thermo_press mode vector
fix avgp all ave/time  10 10 100 c_thermo_press mode vector
thermo		${nthermo}
thermo		100
thermo_style custom step temp pe press f_avgp[1] vol
WARNING: New thermo_style command, previous thermo_modify settings will be lost (src/output.cpp:903)
thermo_modify norm no

# NVT
fix 4 all nvt temp ${temp} ${temp} ${tdamp}
fix 4 all nvt temp 300 ${temp} ${tdamp}
fix 4 all nvt temp 300 300 ${tdamp}
fix 4 all nvt temp 300 300 50
run ${nequil}
run 3000
Neighbor list info ...
  update: every = 10 steps, delay = 0 steps, check = no
  max neighbors/atom: 2000, page size: 100000
  master list distance cutoff = 12
  ghost atom cutoff = 12
  binsize = 6, bins = 4 3 4
  2 neighbor lists, perpetual/occasional/extra = 2 0 0
  (1) pair reaxff, perpetual
      attributes: half, newton off, ghost
      pair build: half/bin/newtoff/ghost
      stencil: full/ghost/bin/3d
      bin: standard
  (2) fix qeq/reaxff, perpetual, copy from (1)
      attributes: half, newton off
      pair build: copy
      stencil: none
      bin: none
Per MPI rank memory allocation (min/avg/max) = 125.9 | 127.6 | 129.1 Mbytes
   Step          Temp          PotEng         Press        f_avgp[1]        Volume    
         0   288.68587     -42643.289      1934.2783      0              3924.751     
       100   307.49982     -42650.081     -12051.473     -4603.5437      3924.751     
       200   303.43418     -42617.71      -8974.8109     -6550.897       3924.751     
       300   322.95952     -42623.718     -3797.5482     -4961.4317      3924.751     
       400   306.91341     -42625.49       9243.46       -4000.9394      3924.751     
       500   306.74458     -42631.823      1424.7378     -4145.1496      3924.751     
       600   303.87721     -42630.095     -23431.252     -7116.1995      3924.751     
       700   291.45089     -42624.438      7789.6903      1042.9117      3924.751     
       800   291.81196     -42632.599      4728.2041     -741.86922      3924.751     
       900   314.3749      -42653.1       -7407.1231     -8084.1957      3924.751     
      1000   309.16544     -42624.07      -6016.1588     -6034.9886      3924.751     
      1100   294.45237     -42592.348      4948.9116     -4274.198       3924.751     
      1200   308.03656     -42623.02      -3204.6861     -4696.2144      3924.751     
      1300   271.70015     -42617.105     -3998.352      -6634.0542      3924.751     
      1400   284.50732     -42621.536      6988.1475     -2553.0188      3924.751     
      1500   303.46807     -42626.554     -5234.0401     -4399.2333      3924.751     
      1600   311.07671     -42632.154     -2001.6786     -6328.6733      3924.751     
      1700   287.6497      -42638.548     -1563.3398     -6398.0691      3924.751     
      1800   299.20504     -42667.886     -3226.1807     -8928.9914      3924.751     
      1900   300.34739     -42656.932     -1212.8471     -6213.1064      3924.751     
      2000   293.80588     -42626.891     -10810.21      -242.41617      3924.751     
      2100   301.01631     -42623.4        1027.283      -263.15555      3924.751     
      2200   293.21045     -42620.979      704.52773     -6922.1486      3924.751     
      2300   312.64784     -42643.024     -3324.7718     -6261.2887      3924.751     
      2400   293.21195     -42615.618     -11383.08      -7360.2444      3924.751     
      2500   309.14679     -42636.338     -2053.8873     -10151.277      3924.751     
      2600   288.14077     -42637.556     -7257.6475     -5116.7127      3924.751     
      2700   285.02944     -42637.489      2617.8255     -5604.8349      3924.751     
      2800   316.03909     -42651.477     -2983.9135     -7803.2722      3924.751     
      2900   314.0743      -42619.811      341.49874     -11878.144      3924.751     
      3000   307.26925     -42608.454      1733.0363     -7303.3204      3924.751     
Loop time of 141.426 on 8 procs for 3000 steps with 365 atoms

Performance: 0.916 ns/day, 26.190 hours/ns, 21.213 timesteps/s, 7.743 katom-step/s
98.9% CPU use with 8 MPI tasks x 1 OpenMP threads

MPI task timing breakdown:
Section |  min time  |  avg time  |  max time  |%varavg| %total
---------------------------------------------------------------
Pair    | 80.331     | 100.42     | 118.33     | 170.3 | 71.01
Bond    | 0.0071406  | 0.0079906  | 0.0086692  |   0.6 |  0.01
Neigh   | 6.4353     | 7.9783     | 9.4811     |  48.8 |  5.64
Comm    | 1.7682     | 19.654     | 39.72      | 384.3 | 13.90
Output  | 0.0012432  | 0.0014593  | 0.0020989  |   0.7 |  0.00
Modify  | 11.741     | 13.291     | 14.874     |  38.8 |  9.40
Other   |            | 0.07078    |            |       |  0.05

Nlocal:         45.625 ave          52 max          41 min
Histogram: 1 2 1 0 1 0 2 0 0 1
Nghost:        3265.62 ave        3309 max        3221 min
Histogram: 1 0 1 1 1 2 0 0 0 2
Neighs:        29659.1 ave       33439 max       26976 min
Histogram: 1 2 1 0 1 0 2 0 0 1

Total # of neighbors = 237273
Ave neighs/atom = 650.06301
Ave special neighs/atom = 0
Neighbor list builds = 300
Dangerous builds not checked

# Obtain new stress tensor, convert index from LAMMPS to Voigt
variable pxx1 equal f_avgp[1]
variable pyy1 equal f_avgp[2]
variable pzz1 equal f_avgp[3]
variable pxy1 equal f_avgp[4]
variable pxz1 equal f_avgp[5]
variable pyz1 equal f_avgp[6]

# Compute elastic constant from pressure tensor
# d1 = -[pxx1-pxx0]/[(]v_delta/v_len0] defined in input script
variable C1pos equal ${d1}
variable C1pos equal 76.4411586069604
variable C2pos equal ${d2}
variable C2pos equal 9.92629781111254
variable C3pos equal ${d3}
variable C3pos equal 55.2429260237163
variable C4pos equal ${d4}
variable C4pos equal 18.123648877825
variable C5pos equal ${d5}
variable C5pos equal -25.4154846183958
variable C6pos equal ${d6}
variable C6pos equal -6.23437593820721

# Combine positive and negative
variable C1${dir} equal 0.5*(${C1neg}+${C1pos})
variable C12 equal 0.5*(${C1neg}+${C1pos})
variable C12 equal 0.5*(-1.68296772628437+${C1pos})
variable C12 equal 0.5*(-1.68296772628437+76.4411586069604)
variable C2${dir} equal 0.5*(${C2neg}+${C2pos})
[...]

# Reset box and simulation parameters
clear
OMP_NUM_THREADS environment is not set. Defaulting to 1 thread. (src/comm.cpp:98)
  using 1 OpenMP thread(s) per MPI task
# box tilt large
read_restart equil.res
Reading restart file ...
  restart file = 2 Aug 2023, LAMMPS = 2 Aug 2023
  restoring atom style full from restart
  triclinic box = (0 0 0) to (15.3172 13.8463 18.3222) with tilt (-7.7318 0.2463 -0.1382)
WARNING: Triclinic box skew is large. LAMMPS will run inefficiently. (src/domain.cpp:220)
  2 by 2 by 2 MPI processor grid
  pair style reaxff stores no restart info
  365 atoms
Finding 1-2 1-3 1-4 neighbors ...
  special bond factors lj:    0        0        0       
  special bond factors coul:  0        0        0       
     0 = max # of 1-2 neighbors
     0 = max # of 1-3 neighbors
     0 = max # of 1-4 neighbors
     1 = max # of special neighbors
  special bonds CPU = 0.000 seconds
  read_restart CPU = 0.002 seconds
print "*****Positive-change ${dir} starts.*****"
*****Positive-change 6 starts.*****
include ff.mod.lmp
# Setup forcefield, system
# undefine any fix ave/* fix before using reset_timestep
if "$(is_defined(fix,avgp))" then "unfix avgp"
reset_timestep 0

# Assign the force field
pair_style reaxff NULL safezone 3.0 mincap 150
# pair_coeff * * CHONSSi.ff O Si
# pair_coeff * * CHOSiNa.ff O Si
# pair_coeff * * SiOCHN_2018.ff O Si
# pair_coeff * * PDMSDecomp.ff Si O
pair_coeff * * CHONSi.ff C H O Si
# pair_coeff * * CHOFe.ff O Si

# charge method for reaxff
fix myqeq all qeq/reaxff 1 0.0 10.0 1.0e-6 reaxff maxiter 400
# Setup neighbor style
neighbor        2 bin
neigh_modify    every 10 delay 0 check no

# Setup output
fix avgp all ave/time  ${nevery} ${nrepeat} ${nfreq} c_thermo_press mode vector
fix avgp all ave/time  10 ${nrepeat} ${nfreq} c_thermo_press mode vector
fix avgp all ave/time  10 10 ${nfreq} c_thermo_press mode vector
fix avgp all ave/time  10 10 100 c_thermo_press mode vector
thermo		${nthermo}
thermo		100
thermo_style custom step temp pe press f_avgp[1] vol
thermo_modify norm no

# NVT
fix 4 all nvt temp ${temp} ${temp} ${tdamp}
fix 4 all nvt temp 300 ${temp} ${tdamp}
fix 4 all nvt temp 300 300 ${tdamp}
fix 4 all nvt temp 300 300 50
Resetting global fix info from restart file:
  fix style: nvt, fix ID: 4

# Positive deformation
variable delta equal ${up}*${len0}
variable delta equal 0.01*${len0}
variable delta equal 0.01*13.8463
variable deltaxy equal ${up}*xy
variable deltaxy equal 0.01*xy
variable deltaxz equal ${up}*xz
variable deltaxz equal 0.01*xz
variable deltayz equal ${up}*yz
variable deltayz equal 0.01*yz
if "${dir} == 1" then    "change_box all x delta 0 ${delta} xy delta ${deltaxy} xz delta ${deltaxz} remap units box"
if "${dir} == 2" then    "change_box all y delta 0 ${delta} yz delta ${deltayz} remap units box"
if "${dir} == 3" then    "change_box all z delta 0 ${delta} remap units box"
if "${dir} == 4" then    "change_box all yz delta ${delta} remap units box"
if "${dir} == 5" then    "change_box all xz delta ${delta} remap units box"
if "${dir} == 6" then    "change_box all xy delta ${delta} remap units box"
change_box all xy delta ${delta} remap units box
change_box all xy delta 0.138463 remap units box
Changing box ...
WARNING: Triclinic box skew is large. LAMMPS will run inefficiently. (src/domain.cpp:220)
  triclinic box = (0 0 0) to (15.3172 13.8463 18.3222) with tilt (-7.593337 0.2463 -0.1382)

# Run positive deformation MD
# save trajectory
dump dump_pos${dir} all custom ${nthermo} dump/pos_deform${dir}.lammpstrj id type x y z
dump dump_pos6 all custom ${nthermo} dump/pos_deform${dir}.lammpstrj id type x y z
dump dump_pos6 all custom 100 dump/pos_deform${dir}.lammpstrj id type x y z
dump dump_pos6 all custom 100 dump/pos_deform6.lammpstrj id type x y z
run ${nrun}
run 3000
All restart file global fix info was re-assigned
Neighbor list info ...
  update: every = 10 steps, delay = 0 steps, check = no
  max neighbors/atom: 2000, page size: 100000
  master list distance cutoff = 12
  ghost atom cutoff = 12
  binsize = 6, bins = 4 3 4
  2 neighbor lists, perpetual/occasional/extra = 2 0 0
  (1) pair reaxff, perpetual
      attributes: half, newton off, ghost
      pair build: half/bin/newtoff/ghost
      stencil: full/ghost/bin/3d
      bin: standard
  (2) fix qeq/reaxff, perpetual, copy from (1)
      attributes: half, newton off
      pair build: copy
      stencil: none
      bin: none
Per MPI rank memory allocation (min/avg/max) = 126.5 | 128 | 129.6 Mbytes
   Step          Temp          PotEng         Press        f_avgp[1]        Volume    
         0   293.90336     -42591.767      5019.2592      0              3885.8921    
       100   312.55198     -42616.244      2571.0077     -7134.8836      3885.8921    
       200   304.16459     -42637.094     -12646.87      -3058.995       3885.8921    
       300   305.06532     -42663.885     -19277.247     -5584.9796      3885.8921    
       400   287.36625     -42649.579     -2061.2231     -6371.557       3885.8921    
       500   295.88116     -42638.849     -7635.4037     -7772.9243      3885.8921    
       600   306.72367     -42637.546     -11337.569     -3932.9896      3885.8921    
       700   302.43099     -42634.562     -2530.6116     -4807.2796      3885.8921    
       800   314.78622     -42652.172     -4214.9416     -3315.52        3885.8921    
       900   288.96134     -42632.359     -13792.676     -6709.9251      3885.8921    
      1000   299.62907     -42642.788     -16349.997     -10511.951      3885.8921    
      1100   319.65863     -42658.85       5629.0621     -1814.7929      3885.8921    
      1200   293.49176     -42627.163     -4306.0232     -5973.8245      3885.8921    
      1300   303.91839     -42639.288      8390.7495     -4446.2125      3885.8921    
      1400   308.5327      -42650.25      -2371.2461     -3428.041       3885.8921    
      1500   296.49845     -42647.94      -3185.9486     -6520.5424      3885.8921    
      1600   315.60287     -42673.508      6047.5521     -2488.238       3885.8921    
      1700   291.15901     -42635.968     -849.55261     -3878.6149      3885.8921    
      1800   309.91452     -42631.116     -571.1473       3211.5484      3885.8921    
      1900   311.4558      -42624.778      4331.4973     -1216.7792      3885.8921    
      2000   314.68496     -42638.525     -1394.6202     -6662.578       3885.8921    
      2100   291.61245     -42649.393     -5468.7679     -3048.8456      3885.8921    
      2200   274.01904     -42627.276     -7003.1177     -10033.02       3885.8921    
      2300   297.57562     -42628.455      8810.3239     -2906.8902      3885.8921    
      2400   302.06396     -42620.151     -3900.81       -7211.6074      3885.8921    
      2500   306.01242     -42625.621      5159.7489     -671.19954      3885.8921    
      2600   300.21018     -42628.339     -9855.4004     -5812.4916      3885.8921    
      2700   292.38371     -42643.766      1755.1066     -2945.9532      3885.8921    
      2800   272.04265     -42665.545     -2036.4245     -908.5137       3885.8921    
      2900   274.85084     -42666.378     -9743.1861     -8675.0998      3885.8921    
      3000   289.8627      -42660.515     -3762.1188     -1361.1123      3885.8921    
Loop time of 96.1246 on 8 procs for 3000 steps with 365 atoms

Performance: 1.348 ns/day, 17.801 hours/ns, 31.209 timesteps/s, 11.391 katom-step/s
98.7% CPU use with 8 MPI tasks x 1 OpenMP threads

MPI task timing breakdown:
Section |  min time  |  avg time  |  max time  |%varavg| %total
---------------------------------------------------------------
Pair    | 77.374     | 78.605     | 80.087     |   8.9 | 81.77
Bond    | 0.0073063  | 0.0077167  | 0.0085878  |   0.5 |  0.01
Neigh   | 6.3604     | 6.4459     | 6.5408     |   2.4 |  6.71
Comm    | 0.72065    | 2.203      | 3.4334     |  52.9 |  2.29
Output  | 0.0044747  | 0.006088   | 0.0070562  |   1.2 |  0.01
Modify  | 8.6876     | 8.7859     | 8.8734     |   2.1 |  9.14
Other   |            | 0.07087    |            |       |  0.07

Nlocal:         45.625 ave          52 max          40 min
Histogram: 2 0 1 0 1 1 1 1 0 1
Nghost:        3245.25 ave        3294 max        3204 min
Histogram: 1 1 1 1 0 1 1 0 1 1
Neighs:        29940.1 ave       33696 max       26577 min
Histogram: 2 0 1 0 1 0 2 1 0 1

Total # of neighbors = 239521
Ave neighs/atom = 656.22192
Ave special neighs/atom = 0
Neighbor list builds = 300
Dangerous builds not checked
undump dump_pos${dir}
undump dump_pos6

# Run equilibration
print "*****Equilibration pos${dir} starts.*****"
*****Equilibration pos6 starts.*****
include ff.mod.lmp
# Setup forcefield, system
# undefine any fix ave/* fix before using reset_timestep
if "$(is_defined(fix,avgp))" then "unfix avgp"
unfix avgp
reset_timestep 0

# Assign the force field
pair_style reaxff NULL safezone 3.0 mincap 150
# pair_coeff * * CHONSSi.ff O Si
# pair_coeff * * CHOSiNa.ff O Si
# pair_coeff * * SiOCHN_2018.ff O Si
# pair_coeff * * PDMSDecomp.ff Si O
pair_coeff * * CHONSi.ff C H O Si
# pair_coeff * * CHOFe.ff O Si

# charge method for reaxff
fix myqeq all qeq/reaxff 1 0.0 10.0 1.0e-6 reaxff maxiter 400
# Setup neighbor style
neighbor        2 bin
neigh_modify    every 10 delay 0 check no

# Setup output
fix avgp all ave/time  ${nevery} ${nrepeat} ${nfreq} c_thermo_press mode vector
fix avgp all ave/time  10 ${nrepeat} ${nfreq} c_thermo_press mode vector
fix avgp all ave/time  10 10 ${nfreq} c_thermo_press mode vector
fix avgp all ave/time  10 10 100 c_thermo_press mode vector
thermo		${nthermo}
thermo		100
thermo_style custom step temp pe press f_avgp[1] vol
WARNING: New thermo_style command, previous thermo_modify settings will be lost (src/output.cpp:903)
thermo_modify norm no

# NVT
fix 4 all nvt temp ${temp} ${temp} ${tdamp}
fix 4 all nvt temp 300 ${temp} ${tdamp}
fix 4 all nvt temp 300 300 ${tdamp}
fix 4 all nvt temp 300 300 50
run ${nequil}
run 3000
Neighbor list info ...
  update: every = 10 steps, delay = 0 steps, check = no
  max neighbors/atom: 2000, page size: 100000
  master list distance cutoff = 12
  ghost atom cutoff = 12
  binsize = 6, bins = 4 3 4
  2 neighbor lists, perpetual/occasional/extra = 2 0 0
  (1) pair reaxff, perpetual
      attributes: half, newton off, ghost
      pair build: half/bin/newtoff/ghost
      stencil: full/ghost/bin/3d
      bin: standard
  (2) fix qeq/reaxff, perpetual, copy from (1)
      attributes: half, newton off
      pair build: copy
      stencil: none
      bin: none
Per MPI rank memory allocation (min/avg/max) = 125.7 | 127.9 | 129.4 Mbytes
   Step          Temp          PotEng         Press        f_avgp[1]        Volume    
         0   289.8627      -42660.515     -3762.0929      0              3885.8921    
       100   295.44643     -42650.241     -8407.3223     -1051.1959      3885.8921    
       200   294.86368     -42623.483     -218.54454     -5825.2561      3885.8921    
       300   335.78523     -42657.587      5723.7533     -9578.7905      3885.8921    
       400   310.54825     -42639.37       1584.4455     -3471.8143      3885.8921    
       500   302.35233     -42638.834     -5234.0552     -3407.9318      3885.8921    
       600   309.90069     -42663.139     -7200.4449     -3723.9702      3885.8921    
       700   289.94456     -42655.575     -6913.1744     -10149.283      3885.8921    
       800   266.96536     -42644.603      11366.172      731.02326      3885.8921    
       900   293.60677     -42658.646     -12187.777     -7033.2613      3885.8921    
      1000   305.1473      -42641.508     -5569.6692     -7432.1493      3885.8921    
      1100   313.28149     -42642.984      5861.5912     -7076.0412      3885.8921    
      1200   291.51233     -42635.341     -6911.6259     -4420.3651      3885.8921    
      1300   292.44575     -42657.34       20719.769     -429.00885      3885.8921    
      1400   300.91851     -42694.878     -3049.1138     -4686.2075      3885.8921    
      1500   258.9504      -42660.999      9568.7935     -2146.2905      3885.8921    
      1600   290.64916     -42658.999      2334.3067     -1864.6697      3885.8921    
      1700   293.95187     -42646.03       3161.9077     -2695.2976      3885.8921    
      1800   296.09392     -42628.062     -10541.422     -9849.8621      3885.8921    
      1900   306.19768     -42629.562     -5988.5763     -7003.4377      3885.8921    
      2000   303.92772     -42644.652      9062.5186     -4672.8679      3885.8921    
      2100   291.80322     -42664.272      3818.3654     -1138.7793      3885.8921    
      2200   290.72055     -42658.636      1495.5391     -3071.7085      3885.8921    
      2300   296.96278     -42646.845      11496.4       -4740.493       3885.8921    
      2400   310.60956     -42648.015     -4407.5662     -5607.7619      3885.8921    
      2500   310.31181     -42641.335      1983.1627     -5097.9028      3885.8921    
      2600   289.23821     -42630.142      1224.3526     -1016.0834      3885.8921    
      2700   276.76438     -42646.234     -13645.708     -1035.598       3885.8921    
      2800   280.45783     -42670.657     -16201.104     -8877.74        3885.8921    
      2900   283.60591     -42662.786     -4542.3785     -4754.0822      3885.8921    
      3000   303.11544     -42641.195     -677.37402     -3544.517       3885.8921    
Loop time of 94.4966 on 8 procs for 3000 steps with 365 atoms

Performance: 1.371 ns/day, 17.499 hours/ns, 31.747 timesteps/s, 11.588 katom-step/s
98.6% CPU use with 8 MPI tasks x 1 OpenMP threads

MPI task timing breakdown:
Section |  min time  |  avg time  |  max time  |%varavg| %total
---------------------------------------------------------------
Pair    | 76.112     | 77.279     | 78.645     |   8.8 | 81.78
Bond    | 0.0066821  | 0.0075044  | 0.0084956  |   0.6 |  0.01
Neigh   | 6.3785     | 6.4594     | 6.5615     |   2.1 |  6.84
Comm    | 0.62354    | 1.992      | 3.1608     |  54.8 |  2.11
Output  | 0.0012694  | 0.0013933  | 0.0018945  |   0.5 |  0.00
Modify  | 8.5831     | 8.688      | 8.7706     |   1.9 |  9.19
Other   |            | 0.06951    |            |       |  0.07

Nlocal:         45.625 ave          51 max          39 min
Histogram: 1 0 1 1 0 1 2 0 0 2
Nghost:        3266.88 ave        3335 max        3210 min
Histogram: 1 2 0 1 1 1 0 0 1 1
Neighs:        29944.8 ave       33495 max       25728 min
Histogram: 1 0 1 1 0 1 2 0 1 1

Total # of neighbors = 239558
Ave neighs/atom = 656.32329
Ave special neighs/atom = 0
Neighbor list builds = 300
Dangerous builds not checked

# Obtain new stress tensor, convert index from LAMMPS to Voigt
variable pxx1 equal f_avgp[1]
variable pyy1 equal f_avgp[2]
variable pzz1 equal f_avgp[3]
variable pxy1 equal f_avgp[4]
variable pxz1 equal f_avgp[5]
variable pyz1 equal f_avgp[6]

# Compute elastic constant from pressure tensor
# d1 = -[pxx1-pxx0]/[(]v_delta/v_len0] defined in input script
variable C1pos equal ${d1}
variable C1pos equal 38.3550831317575
variable C2pos equal ${d2}
variable C2pos equal -46.1910478089028
variable C3pos equal ${d3}
variable C3pos equal -0.794827086529233
variable C4pos equal ${d4}
variable C4pos equal 8.09459453254705
variable C5pos equal ${d5}
variable C5pos equal -22.9491549899607
variable C6pos equal ${d6}
variable C6pos equal 0.302623232928696

# Combine positive and negative
variable C1${dir} equal 0.5*(${C1neg}+${C1pos})
variable C16 equal 0.5*(${C1neg}+${C1pos})
variable C16 equal 0.5*(-44.3662239218482+${C1pos})
variable C16 equal 0.5*(-44.3662239218482+38.3550831317575)
variable C2${dir} equal 0.5*(${C2neg}+${C2pos})
variable C26 equal 0.5*(${C2neg}+${C2pos})
variable C26 equal 0.5*(56.780486553329+${C2pos})
variable C26 equal 0.5*(56.780486553329+-46.1910478089028)
variable C3${dir} equal 0.5*(${C3neg}+${C3pos})
variable C36 equal 0.5*(${C3neg}+${C3pos})
variable C36 equal 0.5*(6.64901140430012+${C3pos})
variable C36 equal 0.5*(6.64901140430012+-0.794827086529233)
variable C4${dir} equal 0.5*(${C4neg}+${C4pos})
variable C46 equal 0.5*(${C4neg}+${C4pos})
variable C46 equal 0.5*(4.33029642018835+${C4pos})
variable C46 equal 0.5*(4.33029642018835+8.09459453254705)
variable C5${dir} equal 0.5*(${C5neg}+${C5pos})
variable C56 equal 0.5*(${C5neg}+${C5pos})
variable C56 equal 0.5*(-6.78839816572636+${C5pos})
variable C56 equal 0.5*(-6.78839816572636+-22.9491549899607)
variable C6${dir} equal 0.5*(${C6neg}+${C6pos})
variable C66 equal 0.5*(${C6neg}+${C6pos})
variable C66 equal 0.5*(5.78341765263863+${C6pos})
variable C66 equal 0.5*(5.78341765263863+0.302623232928696)

# Delete dir to make sure it is not reused
variable dir delete

# Calc and output
include calc.mod.lmp
variable C11all equal ${C11}
variable C11all equal 26.8942692063313
variable C22all equal ${C22}
variable C22all equal 46.8403926133084
variable C33all equal ${C33}
variable C33all equal 55.4646675620768

variable C44all equal ${C44}
variable C44all equal 10.4694278770865
variable C55all equal ${C55}
variable C55all equal 7.66860102528904
variable C66all equal ${C66}
variable C66all equal 3.04302044278366

variable C12all equal 0.5*(${C12}+${C21})
variable C12all equal 0.5*(37.379095440338+${C21})
variable C12all equal 0.5*(37.379095440338+13.7486417262356)
variable C13all equal 0.5*(${C13}+${C31})
variable C13all equal 0.5*(1.87802799514059+${C31})
variable C13all equal 0.5*(1.87802799514059+43.4653918802461)
variable C23all equal 0.5*(${C23}+${C32})
variable C23all equal 0.5*(-0.99061295684195+${C32})
variable C23all equal 0.5*(-0.99061295684195+25.3464131362811)

variable C14all equal 0.5*(${C14}+${C41})
variable C14all equal 0.5*(24.0222638701044+${C41})
variable C14all equal 0.5*(24.0222638701044+-9.41847554934711)
variable C15all equal 0.5*(${C15}+${C51})
variable C15all equal 0.5*(0.571064558829299+${C51})
variable C15all equal 0.5*(0.571064558829299+-5.46927391105671)
variable C16all equal 0.5*(${C16}+${C61})
variable C16all equal 0.5*(-3.00557039504535+${C61})
variable C16all equal 0.5*(-3.00557039504535+-3.59936962630845)

variable C24all equal 0.5*(${C24}+${C42})
variable C24all equal 0.5*(7.372689023996+${C42})
variable C24all equal 0.5*(7.372689023996+9.33444874638981)
variable C25all equal 0.5*(${C25}+${C52})
variable C25all equal 0.5*(36.3470320210537+${C52})
variable C25all equal 0.5*(36.3470320210537+-8.63212005099181)
variable C26all equal 0.5*(${C26}+${C62})
variable C26all equal 0.5*(5.2947193722131+${C62})
variable C26all equal 0.5*(5.2947193722131+-1.68489013362246)

variable C34all equal 0.5*(${C34}+${C43})
variable C34all equal 0.5*(-4.4109825357282+${C43})
variable C34all equal 0.5*(-4.4109825357282+-4.63154177015162)
variable C35all equal 0.5*(${C35}+${C53})
variable C35all equal 0.5*(5.38861464341755+${C53})
variable C35all equal 0.5*(5.38861464341755+-0.191260042076101)
variable C36all equal 0.5*(${C36}+${C63})
variable C36all equal 0.5*(2.92709215888544+${C63})
variable C36all equal 0.5*(2.92709215888544+0.131092466719355)

variable C45all equal 0.5*(${C45}+${C54})
variable C45all equal 0.5*(0.095137170348135+${C54})
variable C45all equal 0.5*(0.095137170348135+0.2762558521295)
variable C46all equal 0.5*(${C46}+${C64})
variable C46all equal 0.5*(6.2124454763677+${C64})
variable C46all equal 0.5*(6.2124454763677+1.41741693452759)
variable C56all equal 0.5*(${C56}+${C65})
variable C56all equal 0.5*(-14.8687765778435+${C65})
variable C56all equal 0.5*(-14.8687765778435+-6.95046145530141)

# print stiffness tensor to "C.log"
print """
# stiffness tensor (GPa) for ${structure} by change-box method
${C11all} ${C12all} ${C13all} ${C14all} ${C15all} ${C16all}
${C12all} ${C22all} ${C23all} ${C24all} ${C25all} ${C26all}
${C13all} ${C23all} ${C33all} ${C34all} ${C35all} ${C36all}
${C14all} ${C24all} ${C34all} ${C44all} ${C45all} ${C46all}
${C15all} ${C25all} ${C35all} ${C45all} ${C55all} ${C56all}
${C16all} ${C26all} ${C36all} ${C46all} ${C56all} ${C66all}
"""  file C.log screen no

Total wall time: 0:55:53
