LAMMPS (2 Aug 2023 - Update 2)
  using 1 OpenMP thread(s) per MPI task
Reading data file ...
  triclinic box = (0 0 0) to (16.1249 13.4224 16.909) with tilt (-8.2539 0.6162 -0.6491)
WARNING: Triclinic box skew is large. LAMMPS will run inefficiently. (src/domain.cpp:220)
  2 by 1 by 2 MPI processor grid
  reading atoms ...
  366 atoms
Finding 1-2 1-3 1-4 neighbors ...
  special bond factors lj:    0        0        0       
  special bond factors coul:  0        0        0       
     0 = max # of 1-2 neighbors
     0 = max # of 1-3 neighbors
     0 = max # of 1-4 neighbors
     1 = max # of special neighbors
  special bonds CPU = 0.000 seconds
  read_data CPU = 0.007 seconds
WARNING: Van der Waals parameters for element SI indicate inner wall+shielding, but earlier atoms indicate a different van der Waals method. This may cause division-by-zero errors. Keeping van der Waals setting for earlier atoms. (src/REAXFF/reaxff_ffield.cpp:251)
*****Minimization starts.*****

CITE-CITE-CITE-CITE-CITE-CITE-CITE-CITE-CITE-CITE-CITE-CITE-CITE

Your simulation uses code contributions which should be cited:
- pair reaxff command: doi:10.1016/j.parco.2011.08.005
- fix qeq/reaxff command: doi:10.1016/j.parco.2011.08.005
The log file lists these citations in BibTeX format.

CITE-CITE-CITE-CITE-CITE-CITE-CITE-CITE-CITE-CITE-CITE-CITE-CITE

Switching to 'neigh_modify every 1 delay 0 check yes' setting during minimization
WARNING: Fix qeq/reaxff group is not charge neutral, net charge = -29.52 (src/REAXFF/fix_qeq_reaxff.cpp:392)
Neighbor list info ...
  update: every = 1 steps, delay = 0 steps, check = yes
  max neighbors/atom: 2000, page size: 100000
  master list distance cutoff = 12
  ghost atom cutoff = 12
  binsize = 6, bins = 5 3 3
  2 neighbor lists, perpetual/occasional/extra = 2 0 0
  (1) pair reaxff, perpetual
      attributes: half, newton off, ghost
      pair build: half/bin/newtoff/ghost
      stencil: full/ghost/bin/3d
      bin: standard
  (2) fix qeq/reaxff, perpetual, copy from (1)
      attributes: half, newton off
      pair build: copy
      stencil: none
      bin: none
Setting up cg style minimization ...
  Unit style    : real
  Current step  : 0
Per MPI rank memory allocation (min/avg/max) = 170 | 171.9 | 173.7 Mbytes
   Step          Temp          Press         Density         Volume         PotEng    
         0   0              14609.445      1.9525358      3659.697      -39804.227    
        54   0             -15401.221      1.9525358      3659.697      -41342.55     
Loop time of 22.7286 on 4 procs for 54 steps with 366 atoms

81.8% CPU use with 4 MPI tasks x 1 OpenMP threads

Minimization stats:
  Stopping criterion = energy tolerance
  Energy initial, next-to-last, final = 
     -39804.2272206181  -41342.5475326928  -41342.5501805158
  Force two-norm initial, final = 1976.3585 327.74245
  Force max component initial, final = 493.1919 129.44502
  Final line search alpha, max atom move = 2.0023776e-05 0.002591978
  Iterations, force evaluations = 54 188

MPI task timing breakdown:
Section |  min time  |  avg time  |  max time  |%varavg| %total
---------------------------------------------------------------
Pair    | 10.535     | 11.965     | 12.851     |  25.6 | 52.64
Bond    | 0.00049085 | 0.00052861 | 0.00055664 |   0.0 |  0.00
Neigh   | 0          | 0          | 0          |   0.0 |  0.00
Comm    | 3.5865     | 4.4867     | 5.9249     |  42.1 | 19.74
Output  | 0.048735   | 0.065452   | 0.091383   |   6.6 |  0.29
Modify  | 5.7407     | 5.7447     | 5.7487     |   0.2 | 25.28
Other   |            | 0.466      |            |       |  2.05

Nlocal:           91.5 ave         109 max          77 min
Histogram: 1 0 0 1 0 1 0 0 0 1
Nghost:         4374.5 ave        4423 max        4340 min
Histogram: 2 0 0 0 0 0 1 0 0 1
Neighs:          62322 ave       73043 max       53283 min
Histogram: 1 0 0 1 0 1 0 0 0 1

Total # of neighbors = 249288
Ave neighs/atom = 681.11475
Ave special neighs/atom = 0
Neighbor list builds = 0
Dangerous builds = 0
System init for write_data ...
##### Equilibration starts.##### 
WARNING: Compute rdf cutoff less than neighbor cutoff - forcing a needless neighbor list build (src/compute_rdf.cpp:179)
Neighbor list info ...
  update: every = 10 steps, delay = 0 steps, check = yes
  max neighbors/atom: 2000, page size: 100000
  master list distance cutoff = 12
  ghost atom cutoff = 12
  binsize = 6, bins = 5 3 3
  3 neighbor lists, perpetual/occasional/extra = 2 1 0
  (1) pair reaxff, perpetual
      attributes: half, newton off, ghost
      pair build: half/bin/newtoff/ghost
      stencil: full/ghost/bin/3d
      bin: standard
  (2) compute rdf, occasional
      attributes: half, newton on, cut 7
      pair build: half/bin/newton/tri
      stencil: half/bin/3d/tri
      bin: standard
  (3) fix qeq/reaxff, perpetual, copy from (1)
      attributes: half, newton off
      pair build: copy
      stencil: none
      bin: none
Setting up Verlet run ...
  Unit style    : real
  Current step  : 0
  Time step     : 0.5
Per MPI rank memory allocation (min/avg/max) = 174.9 | 176.8 | 178.5 Mbytes
   Step          Temp          Press          PotEng         TotEng    
         0   300           -11325.28      -41342.551     -41016.152    
       100   191.75772      8.2105129     -41186.247     -40977.616    
       200   240.1342      -12603.966     -41177.07      -40915.805    
       300   265.02923     -6181.6827     -41135.156     -40846.806    
       400   286.61991     -5471.3019     -41096.113     -40784.272    
       500   305.81093     -4924.8586     -41068.724     -40736.003    
       600   308.68321      10852.212     -41040.267     -40704.421    
       700   313.08221      4286.5788     -41054.113     -40713.481    
       800   301.02074     -6279.12       -41081.659     -40754.15     
       900   292.13871     -5889.5976     -41104.718     -40786.872    
      1000   296.32262     -2625.4405     -41107.447     -40785.049    
      1100   296.87543     -8831.6898     -41081.133     -40758.134    
      1200   312.26006      3477.9867     -41069.564     -40729.826    
      1300   305.95173     -14783.348     -41053.827     -40720.953    
      1400   303.35257      9288.2371     -41067.015     -40736.968    
      1500   291.7772      -9839.595      -41074.787     -40757.335    
      1600   290.23144      1176.6376     -41096.026     -40780.256    
      1700   282.92406     -6157.7028     -41099.053     -40791.233    
      1800   303.29268     -6622.3933     -41097.179     -40767.198    
      1900   315.77273      8287.1924     -41089.113     -40745.554    
      2000   301.35488     -5413.1753     -41075.036     -40747.163    
      2100   305.31464     -5072.1928     -41081.504     -40749.323    
      2200   286.66941     -6960.5089     -41081.117     -40769.222    
      2300   269.46605      4067.1092     -41088.476     -40795.298    
      2400   283.13795      1267.1983     -41088.423     -40780.371    
      2500   314.24634     -6036.8679     -41096.916     -40755.017    
      2600   276.64921      10546.339     -41054.859     -40753.866    
      2700   310.24869     -1196.3712     -41083.138     -40745.588    
      2800   316.90109     -14376.454     -41080.854     -40736.067    
      2900   272.76277      5255.5603     -41067.215     -40770.451    
      3000   276.42223     -5388.9468     -41087.241     -40786.495    
      3100   284.73056     -298.37459     -41084.188     -40774.402    
      3200   295.95383     -5162.7274     -41075.073     -40753.077    
      3300   321.01543     -6311.9806     -41098.435     -40749.172    
      3400   302.76142     -3433.4966     -41086.21      -40756.807    
      3500   282.42351     -7279.7707     -41064.816     -40757.54     
      3600   317.21407      813.61985     -41069.909     -40724.782    
      3700   328.23183     -2892.9309     -41072.294     -40715.179    
      3800   296.14136     -4739.5343     -41066.787     -40744.586    
      3900   295.80895      2986.5149     -41083.963     -40762.124    
      4000   292.42996      1742.1227     -41084.242     -40766.079    
      4100   311.93411     -535.28973     -41096.983     -40757.6      
      4200   306.04175     -944.31834     -41061.444     -40728.472    
      4300   317.1668      -530.48763     -41064.089     -40719.013    
      4400   307.90744     -2905.6272     -41086.014     -40751.012    
      4500   304.45546     -5989.6665     -41093.589     -40762.343    
      4600   322.73914     -10891.905     -41112.246     -40761.107    
      4700   305.76219     -12736.1       -41090.431     -40757.763    
      4800   305.57551     -5085.2874     -41076.627     -40744.162    
      4900   312.34222     -4865.4535     -41069.829     -40730.002    
      5000   283.95802      2238.2065     -41066.184     -40757.239    
      5100   301.83358      1182.6735     -41105.656     -40777.262    
      5200   301.16934     -18328.701     -41099.169     -40771.498    
      5300   302.59148      4529.3489     -41093.171     -40763.952    
      5400   309.96108     -2505.5193     -41087.849     -40750.613    
      5500   315.99236      4879.378      -41093.373     -40749.575    
      5600   274.72642     -7273.9856     -41079.493     -40780.592    
      5700   297.49725     -4892.0257     -41113.189     -40789.513    
      5800   282.10229      4313.5914     -41078.75      -40771.824    
      5900   302.85166     -10289.262     -41070.357     -40740.856    
      6000   317.28204      497.51659     -41081.661     -40736.459    
      6100   299.02905     -8847.5459     -41074.158     -40748.816    
      6200   297.03412     -7412.5463     -41097.336     -40774.164    
      6300   300.2475      -2842.288      -41113.749     -40787.081    
      6400   298.57323      1496.7548     -41096.136     -40771.289    
      6500   317.91091      9564.8622     -41076.425     -40730.539    
      6600   294.4378      -14328.485     -41056.163     -40735.816    
      6700   302.45621     -936.72243     -41092.138     -40763.067    
      6800   307.84924     -13222.414     -41113.203     -40778.265    
      6900   296.64881     -2237.1715     -41093.621     -40770.869    
      7000   320.1418       1944.5632     -41101.646     -40753.333    
      7100   328.08151     -10756.25      -41078.821     -40721.87     
      7200   303.9027      -6456.998      -41036.334     -40705.689    
      7300   320.83309      5643.7979     -41078.545     -40729.48     
      7400   299.24313     -5871.3791     -41081.308     -40755.733    
      7500   295.75842     -12083.63      -41082.727     -40760.944    
      7600   293.85641     -7635.4663     -41088.416     -40768.701    
      7700   293.432        10393.075     -41097.189     -40777.936    
      7800   285.47423     -879.72512     -41090.853     -40780.258    
      7900   318.86856      2780.4092     -41097.874     -40750.947    
      8000   313.09751     -487.40427     -41075.771     -40735.122    
      8100   307.69059     -6722.9436     -41073.085     -40738.319    
      8200   283.576        4386.7172     -41083.249     -40774.72     
      8300   292.3083      -4057.0607     -41104.212     -40786.182    
      8400   282.43818     -3767.7571     -41079.12      -40771.829    
      8500   292.48743     -5269.6939     -41072.103     -40753.878    
      8600   319.5229      -8485.3159     -41089.255     -40741.616    
      8700   315.45814     -2861.2898     -41100.116     -40756.898    
      8800   274.08898     -10081.273     -41058.942     -40760.735    
      8900   305.04375     -5454.949      -41088.265     -40756.378    
      9000   301.96284      705.71314     -41086.825     -40758.29     
      9100   275.37663     -5884.4549     -41064.015     -40764.406    
      9200   297.42203      8422.0597     -41103.817     -40780.224    
      9300   276.4342      -3734.7327     -41098.945     -40798.186    
      9400   290.93483      128.12197     -41099.766     -40783.23     
      9500   312.64942     -14610.687     -41094.551     -40754.389    
      9600   298.01297     -7775.5553     -41073.082     -40748.846    
      9700   284.11511     -5063.1746     -41060.56      -40751.444    
      9800   302.16357     -3929.9677     -41087.723     -40758.971    
      9900   285.57545     -1698.3483     -41100.117     -40789.412    
     10000   281.63158     -3358.1071     -41099.43      -40793.016    
     10100   300.10642      1053.4153     -41090.091     -40763.577    
     10200   296.02301     -3637.181      -41073.018     -40750.946    
     10300   307.40807     -5581.1699     -41080.509     -40746.05     
     10400   308.35384     -6407.0423     -41084.899     -40749.412    
     10500   304.56809     -2192.9267     -41105.826     -40774.457    
     10600   284.67659     -95.783403     -41110.201     -40800.474    
     10700   291.33238     -3929.3857     -41103.73      -40786.761    
     10800   313.32177     -207.07135     -41103.788     -40762.896    
     10900   298.76554      7304.5312     -41077.315     -40752.259    
     11000   297.99592     -10325.483     -41071.711     -40747.493    
     11100   312.3223      -137.6732      -41090.827     -40751.022    
     11200   290.45565     -2445.5587     -41102.525     -40786.51     
     11300   291.30785     -558.95803     -41105.6       -40788.658    
     11400   289.45042      1287.248      -41076.616     -40761.695    
     11500   315.0166      -4911.6197     -41093.376     -40750.639    
     11600   299.98919      2311.6864     -41086.282     -40759.895    
     11700   294.80733     -982.11058     -41096.732     -40775.983    
     11800   273.26912      2585.9068     -41092.923     -40795.608    
     11900   291.1865      -8304.6555     -41097.99      -40781.18     
     12000   318.37569      745.06163     -41095.607     -40749.216    
     12100   312.30736      2738.4366     -41091.043     -40751.254    
     12200   281.91875     -252.92476     -41071.032     -40764.306    
     12300   303.0706      -8245.9096     -41096.773     -40767.033    
     12400   316.74358      9759.1046     -41104.304     -40759.688    
     12500   317.7125       364.65453     -41087.429     -40741.759    
     12600   300.42644     -3734.4732     -41065.429     -40738.567    
     12700   306.39351     -197.04446     -41089.81      -40756.455    
     12800   301.17271     -10497.959     -41112.18      -40784.506    
     12900   274.95183     -7052.4147     -41080.928     -40781.782    
     13000   293.12409     -1714.4342     -41080.507     -40761.589    
     13100   321.50592      1141.502      -41100.498     -40750.701    
     13200   310.17951      984.76974     -41086.808     -40749.334    
     13300   287.70516     -20648.723     -41061.707     -40748.685    
     13400   298.18472     -3058.5162     -41071.568     -40747.144    
     13500   292.69936     -12037.538     -41060.478     -40742.022    
     13600   285.5718       3155.8645     -41063.794     -40753.093    
     13700   299.23334     -9290.7925     -41088.6       -40763.035    
     13800   307.03784     -1105.6027     -41098.554     -40764.499    
     13900   299.533        168.2194      -41081.823     -40755.933    
     14000   315.28041     -9841.1445     -41085.741     -40742.718    
     14100   308.72818     -18962.856     -41068.538     -40732.643    
     14200   297.41466     -13475.845     -41058.933     -40735.348    
     14300   309.92187     -2683.873      -41091.321     -40754.127    
     14400   293.69508     -6061.7947     -41101.424     -40781.885    
     14500   291.19698     -1289.6006     -41098.75      -40781.929    
     14600   299.04384     -2059.8653     -41082.722     -40757.364    
     14700   298.15138     -13138.154     -41066.105     -40741.717    
     14800   305.27355     -5788.578      -41070.398     -40738.262    
     14900   302.73139      2678.2042     -41073.71      -40744.34     
     15000   286.69248     -535.03887     -41088.013     -40776.093    
     15100   294.05162     -5018.0339     -41097.159     -40777.232    
     15200   305.68546     -1311.1941     -41095.244     -40762.66     
     15300   287.08677     -7588.2133     -41068.864     -40756.515    
     15400   297.24765     -10624.122     -41089.07      -40765.666    
     15500   288.60608     -14860.845     -41097.727     -40783.725    
     15600   278.55497     -538.18663     -41105.488     -40802.422    
     15700   294.31854      1617.8055     -41097.499     -40777.282    
     15800   308.39002     -4062.6471     -41089.922     -40754.395    
     15900   313.50585     -865.81952     -41095.251     -40754.158    
     16000   296.27326     -3376.135      -41084.766     -40762.422    
     16100   280.13638      70.86352      -41096.818     -40792.031    
     16200   275.59462     -9179.6099     -41102.192     -40802.347    
     16300   304.94896     -5038.3627     -41108.521     -40776.738    
     16400   307.49601      896.82183     -41099.136     -40764.582    
     16500   300.08766     -4812.3471     -41083.937     -40757.443    
     16600   304.54403     -14164.538     -41072.796     -40741.454    
     16700   308.30781     -7171.5872     -41065.422     -40729.984    
     16800   315.6634      -793.80546     -41080.032     -40736.591    
     16900   300.02705      6790.1973     -41099.759     -40773.331    
     17000   288.3643       7081.4734     -41095.61      -40781.871    
     17100   291.92087     -7273.4058     -41088.784     -40771.176    
     17200   302.14581     -10669.106     -41071.575     -40742.842    
     17300   296.47768     -381.05686     -41054.557     -40731.991    
     17400   319.97402      3015.2835     -41087.587     -40739.456    
     17500   304.17655     -10050.147     -41081.102     -40750.159    
     17600   297.34768     -2734.0634     -41077.148     -40753.635    
     17700   289.27109      4289.5323     -41082.029     -40767.304    
     17800   294.69622     -839.00675     -41105.145     -40784.517    
     17900   285.28771     -7403.3442     -41112.447     -40802.055    
     18000   298.79777     -1383.695      -41120.857     -40795.766    
     18100   299.70383     -10478.607     -41085.866     -40759.79     
     18200   313.7262       2877.6981     -41089.623     -40748.29     
     18300   300.23991      3143.1619     -41070.677     -40744.017    
     18400   305.33887      2809.3207     -41069.53      -40737.323    
     18500   308.78263      2133.527      -41085.813     -40749.859    
     18600   285.21033     -7902.735      -41085.088     -40774.781    
     18700   299.7518      -10646.922     -41103.508     -40777.38     
     18800   300.40453      5480.6078     -41082.302     -40755.463    
     18900   319.77758      6368.4088     -41075.722     -40727.806    
     19000   303.93078     -9844.6029     -41064.826     -40734.151    
     19100   291.7414       4590.0517     -41063.352     -40745.939    
     19200   296.73393     -8658.9913     -41074.392     -40751.546    
     19300   285.25375     -5552.995      -41065.054     -40754.699    
     19400   291.70587      1886.1489     -41068.894     -40751.519    
     19500   310.37263     -4103.594      -41068.487     -40730.802    
     19600   324.15268      7503.7919     -41078.908     -40726.232    
     19700   298.84986     -12909.422     -41087.304     -40762.156    
     19800   295.45341      498.75213     -41091.642     -40770.19     
     19900   304.01159      2818.5732     -41092.612     -40761.849    
     20000   308.06905     -13942.908     -41082.289     -40747.111    
Loop time of 1888.86 on 4 procs for 20000 steps with 366 atoms

Performance: 0.457 ns/day, 52.468 hours/ns, 10.588 timesteps/s, 3.875 katom-step/s
84.5% CPU use with 4 MPI tasks x 1 OpenMP threads

MPI task timing breakdown:
Section |  min time  |  avg time  |  max time  |%varavg| %total
---------------------------------------------------------------
Pair    | 1142       | 1198.8     | 1231.7     |  99.3 | 63.46
Bond    | 0.051634   | 0.064097   | 0.071233   |   2.9 |  0.00
Neigh   | 11.212     | 11.536     | 12.167     |  11.0 |  0.61
Comm    | 393.89     | 415.38     | 460.39     | 129.1 | 21.99
Output  | 0.2857     | 0.43079    | 0.62237    |  21.7 |  0.02
Modify  | 248.88     | 261.22     | 273.19     |  69.7 | 13.83
Other   |            | 1.481      |            |       |  0.08

Nlocal:           91.5 ave         102 max          81 min
Histogram: 1 0 0 1 0 0 1 0 0 1
Nghost:        4348.25 ave        4388 max        4316 min
Histogram: 1 1 0 0 0 0 1 0 0 1
Neighs:        62375.5 ave       68909 max       55800 min
Histogram: 1 0 0 1 0 0 1 0 0 1

Total # of neighbors = 249502
Ave neighs/atom = 681.69945
Ave special neighs/atom = 0
Neighbor list builds = 228
Dangerous builds = 0
System init for write_data ...
WARNING: Compute rdf cutoff less than neighbor cutoff - forcing a needless neighbor list build (src/compute_rdf.cpp:179)
Total wall time: 0:31:52
