LAMMPS (2 Aug 2023 - Update 2)
OMP_NUM_THREADS environment is not set. Defaulting to 1 thread. (src/comm.cpp:98)
  using 1 OpenMP thread(s) per MPI task
Reading data file ...
  triclinic box = (0 0 0) to (14.7487 13.4318 16.6096) with tilt (-6.1972 -1.0047 -1.8606)
  2 by 2 by 2 MPI processor grid
  reading atoms ...
  271 atoms
Finding 1-2 1-3 1-4 neighbors ...
  special bond factors lj:    0        0        0       
  special bond factors coul:  0        0        0       
     0 = max # of 1-2 neighbors
     0 = max # of 1-3 neighbors
     0 = max # of 1-4 neighbors
     1 = max # of special neighbors
  special bonds CPU = 0.001 seconds
  read_data CPU = 0.008 seconds
*****Minimization starts.*****
Setting up cg style minimization ...
  Unit style    : real
  Current step  : 0
WARNING: No pairwise cutoff or binsize set. Atom sorting therefore disabled. (src/atom.cpp:2366)
WARNING: Communication cutoff is 0.0. No ghost atoms will be generated. Atoms may get lost. (src/comm_brick.cpp:210)
Per MPI rank memory allocation (min/avg/max) = 6.364 | 6.364 | 6.364 Mbytes
   Step          Temp          E_pair         E_mol          TotEng         Press     
         0   0              0              0              0              0            
         1   0              0              0              0              0            
Loop time of 7.04171e-05 on 8 procs for 1 steps with 271 atoms

48.8% CPU use with 8 MPI tasks x 1 OpenMP threads

Minimization stats:
  Stopping criterion = search direction is not downhill
  Energy initial, next-to-last, final = 
                     0                  0                  0
  Force two-norm initial, final = 0 0
  Force max component initial, final = 0 0
  Final line search alpha, max atom move = 0 0
  Iterations, force evaluations = 1 0

MPI task timing breakdown:
Section |  min time  |  avg time  |  max time  |%varavg| %total
---------------------------------------------------------------
Pair    | 0          | 0          | 0          |   0.0 |  0.00
Bond    | 1.257e-06  | 2.558e-06  | 3.562e-06  |   0.0 |  3.63
Neigh   | 0          | 0          | 0          |   0.0 |  0.00
Comm    | 3.981e-06  | 6.0496e-06 | 6.704e-06  |   0.0 |  8.59
Output  | 0          | 0          | 0          |   0.0 |  0.00
Modify  | 0          | 0          | 0          |   0.0 |  0.00
Other   |            | 6.181e-05  |            |       | 87.78

Nlocal:         33.875 ave          38 max          27 min
Histogram: 1 1 0 0 0 0 2 0 2 2
Nghost:              0 ave           0 max           0 min
Histogram: 8 0 0 0 0 0 0 0 0 0
Neighs:              0 ave           0 max           0 min
Histogram: 8 0 0 0 0 0 0 0 0 0

Total # of neighbors = 0
Ave neighs/atom = 0
Ave special neighs/atom = 0
Neighbor list builds = 0
Dangerous builds = 0
System init for write_data ...
WARNING: Communication cutoff is 0.0. No ghost atoms will be generated. Atoms may get lost. (src/comm_brick.cpp:210)
WARNING: New thermo_style command, previous thermo_modify settings will be lost (src/output.cpp:903)

CITE-CITE-CITE-CITE-CITE-CITE-CITE-CITE-CITE-CITE-CITE-CITE-CITE

Your simulation uses code contributions which should be cited:
- pair reaxff command: doi:10.1016/j.parco.2011.08.005
- fix qeq/reaxff command: doi:10.1016/j.parco.2011.08.005
The log file lists these citations in BibTeX format.

CITE-CITE-CITE-CITE-CITE-CITE-CITE-CITE-CITE-CITE-CITE-CITE-CITE

WARNING: Fix qeq/reaxff group is not charge neutral, net charge = -9.02 (src/REAXFF/fix_qeq_reaxff.cpp:392)
Neighbor list info ...
  update: every = 10 steps, delay = 0 steps, check = no
  max neighbors/atom: 2000, page size: 100000
  master list distance cutoff = 12
  ghost atom cutoff = 12
  binsize = 6, bins = 4 3 3
  2 neighbor lists, perpetual/occasional/extra = 2 0 0
  (1) pair reaxff, perpetual
      attributes: half, newton off, ghost
      pair build: half/bin/newtoff/ghost
      stencil: full/ghost/bin/3d
      bin: standard
  (2) fix qeq/reaxff, perpetual, copy from (1)
      attributes: half, newton off
      pair build: copy
      stencil: none
      bin: none
Setting up Verlet run ...
  Unit style    : real
  Current step  : 0
  Time step     : 0.5
Per MPI rank memory allocation (min/avg/max) = 106.3 | 107.8 | 109.6 Mbytes
   Step          Temp          PotEng         Press        f_avgp[1]       Density         Volume    
         0   300           -30660.091      116480.91      0              1.5329564      3290.3881    
       100   724.5857      -31287.098     -32422.918      728.08423      1.5329564      3290.3881    
       200   505.02151     -31415.652     -27117.604     -5455.6435      1.5329564      3290.3881    
       300   438.19458     -31593.506     -17165.805     -4630.5036      1.5329564      3290.3881    
       400   367.19583     -31692.14       11019.392      746.91781      1.5329564      3290.3881    
       500   324.65484     -31757.096      2089.725       3288.1163      1.5329564      3290.3881    
       600   279.61417     -31781.755     -8837.9569     -12102.753      1.5329564      3290.3881    
       700   263.72986     -31786.777      1259.9231     -6783.5556      1.5329564      3290.3881    
       800   301.27598     -31793.229      1341.7572     -6866.8748      1.5329564      3290.3881    
       900   305.73662     -31761.718      11777.686     -1854.0249      1.5329564      3290.3881    
      1000   331.88322     -31772.325      5543.6434      740.68798      1.5329564      3290.3881    
      1100   306.00637     -31771.608      6079.6152     -1969.1159      1.5329564      3290.3881    
      1200   294.49846     -31796.841     -20754.429     -4295.377       1.5329564      3290.3881    
      1300   261.97737     -31794.502      5962.6097     -2270.4438      1.5329564      3290.3881    
      1400   289.73363     -31819.876      16891.689      6397.319       1.5329564      3290.3881    
      1500   317.33321     -31838.486     -1571.888       6721.0637      1.5329564      3290.3881    
      1600   292.07077     -31816.394     -4462.9669      7036.6991      1.5329564      3290.3881    
      1700   302.93459     -31822.429     -4905.2811      1727.7713      1.5329564      3290.3881    
      1800   307.24242     -31819.602     -16654.352      671.71983      1.5329564      3290.3881    
      1900   310.22443     -31824.435      2678.5114      9337.605       1.5329564      3290.3881    
      2000   320.87721     -31843.283      1702.6243      5818.6928      1.5329564      3290.3881    
      2100   295.6543      -31852.756      1937.7986      7436.9547      1.5329564      3290.3881    
      2200   287.80094     -31873.247     -421.4888       6823.8355      1.5329564      3290.3881    
      2300   287.32273     -31888.327     -2418.4866      1600.5337      1.5329564      3290.3881    
      2400   284.34434     -31873.506      1301.4691      1672.6093      1.5329564      3290.3881    
      2500   298.98336     -31852.564      3135.3548      5094.0346      1.5329564      3290.3881    
      2600   318.16289     -31848.812      33.234838      7054.8965      1.5329564      3290.3881    
      2700   317.66376     -31863.451     -13007.99      -2478.351       1.5329564      3290.3881    
      2800   298.66451     -31882.786     -2428.0328     -1711.5756      1.5329564      3290.3881    
      2900   271.38359     -31883.705     -704.01135      648.01827      1.5329564      3290.3881    
      3000   295.96326     -31890.126     -2950.5707      6735.3185      1.5329564      3290.3881    
Loop time of 117.7 on 8 procs for 3000 steps with 271 atoms

Performance: 1.101 ns/day, 21.796 hours/ns, 25.489 timesteps/s, 6.907 katom-step/s
98.6% CPU use with 8 MPI tasks x 1 OpenMP threads

MPI task timing breakdown:
Section |  min time  |  avg time  |  max time  |%varavg| %total
---------------------------------------------------------------
Pair    | 63.978     | 89.445     | 98.394     | 109.4 | 75.99
Bond    | 0.0083722  | 0.0088075  | 0.0093663  |   0.3 |  0.01
Neigh   | 5.4071     | 7.2944     | 8.079      |  29.5 |  6.20
Comm    | 1.2027     | 10.155     | 35.61      | 324.5 |  8.63
Output  | 0.0015524  | 0.0017568  | 0.0028366  |   1.0 |  0.00
Modify  | 9.9313     | 10.728     | 12.638     |  24.7 |  9.11
Other   |            | 0.06722    |            |       |  0.06

Nlocal:         33.875 ave          40 max          20 min
Histogram: 1 0 0 0 0 0 2 2 1 2
Nghost:        2779.62 ave        2815 max        2746 min
Histogram: 1 0 2 1 1 1 0 0 0 2
Neighs:        19567.2 ave       23005 max       11835 min
Histogram: 1 0 0 0 0 0 2 2 1 2

Total # of neighbors = 156538
Ave neighs/atom = 577.631
Ave special neighs/atom = 0
Neighbor list builds = 300
Dangerous builds not checked
System init for write_data ...
System init for write_restart ...
OMP_NUM_THREADS environment is not set. Defaulting to 1 thread. (src/comm.cpp:98)
  using 1 OpenMP thread(s) per MPI task
Reading restart file ...
  restart file = 2 Aug 2023, LAMMPS = 2 Aug 2023
  restoring atom style full from restart
  triclinic box = (0 0 0) to (14.7487 13.4318 16.6096) with tilt (-6.1972 -1.0047 -1.8606)
  2 by 2 by 2 MPI processor grid
  pair style reaxff stores no restart info
  271 atoms
Finding 1-2 1-3 1-4 neighbors ...
  special bond factors lj:    0        0        0       
  special bond factors coul:  0        0        0       
     0 = max # of 1-2 neighbors
     0 = max # of 1-3 neighbors
     0 = max # of 1-4 neighbors
     1 = max # of special neighbors
  special bonds CPU = 0.000 seconds
  read_restart CPU = 0.003 seconds
*****Negative-change 1 starts.*****
Resetting global fix info from restart file:
  fix style: nvt, fix ID: 4
Changing box ...
  triclinic box = (0 0 0) to (14.601213 13.4318 16.6096) with tilt (-6.1972 -1.0047 -1.8606)
  triclinic box = (0 0 0) to (14.601213 13.4318 16.6096) with tilt (-6.135228 -1.0047 -1.8606)
  triclinic box = (0 0 0) to (14.601213 13.4318 16.6096) with tilt (-6.135228 -0.994653 -1.8606)
All restart file global fix info was re-assigned
Neighbor list info ...
  update: every = 10 steps, delay = 0 steps, check = no
  max neighbors/atom: 2000, page size: 100000
  master list distance cutoff = 12
  ghost atom cutoff = 12
  binsize = 6, bins = 4 3 3
  2 neighbor lists, perpetual/occasional/extra = 2 0 0
  (1) pair reaxff, perpetual
      attributes: half, newton off, ghost
      pair build: half/bin/newtoff/ghost
      stencil: full/ghost/bin/3d
      bin: standard
  (2) fix qeq/reaxff, perpetual, copy from (1)
      attributes: half, newton off
      pair build: copy
      stencil: none
      bin: none
Setting up Verlet run ...
  Unit style    : real
  Current step  : 0
  Time step     : 0.5
Per MPI rank memory allocation (min/avg/max) = 107.6 | 109.1 | 110.5 Mbytes
   Step          Temp          PotEng         Press        f_avgp[1]        Volume    
         0   295.96326     -31872.749      43075.032      0              3257.4843    
       100   307.51983     -31859.579      1210.0922      5980.076       3257.4843    
       200   305.09133     -31847.379      3319.0322      3677.5304      3257.4843    
       300   322.84482     -31880.297     -6320.3473     -1691.6705      3257.4843    
       400   289.22855     -31890.222      13333.008      5824.5259      3257.4843    
       500   271.53304     -31898.441      8010.5629      1281.6855      3257.4843    
       600   271.93623     -31892.53       4782.017      -3252.0333      3257.4843    
       700   301.0399      -31891.471      125.28103      3995.7064      3257.4843    
       800   315.17067     -31889.848     -398.8364      -2732.6129      3257.4843    
       900   321.09459     -31890.805     -2165.0298      1273.9331      3257.4843    
      1000   297.31848     -31888.969     -5790.64        1720.8175      3257.4843    
      1100   287.80288     -31899.41      -4315.0052      1651.5718      3257.4843    
      1200   283.0244      -31905.585      7044.5519      4151.4268      3257.4843    
      1300   289.53317     -31922.11      -17005.423     -2575.7108      3257.4843    
      1400   252.13467     -31908.891     -17740.886      6307.4203      3257.4843    
      1500   303.5151      -31927.371      4490.0806      1458.7518      3257.4843    
      1600   282.03976     -31888.295     -11856.514     -139.68543      3257.4843    
      1700   312.04187     -31898.435      3569.7194      4906.2404      3257.4843    
      1800   299.60229     -31886.424     -12075.333      3409.0234      3257.4843    
      1900   314.80976     -31910.926     -4818.7265     -415.34528      3257.4843    
      2000   282.76569     -31913.943      9096.0038     -21.325068      3257.4843    
      2100   320.45125     -31943.965      3967.0446      1541.1086      3257.4843    
      2200   281.99608     -31904.835      5420.8626      2440.2985      3257.4843    
      2300   317.51344     -31903.041      13354.335      2346.7226      3257.4843    
      2400   314.29418     -31891.952      11757.008      935.86434      3257.4843    
      2500   328.6618      -31915.014      5117.5062      6811.9407      3257.4843    
      2600   318.26875     -31924.761     -8051.3242      2960.8049      3257.4843    
      2700   288.57266     -31911.184     -7817.338      -2405.4827      3257.4843    
      2800   296.9322      -31932.086     -777.10188      992.65541      3257.4843    
      2900   291.23943     -31934.483     -2717.2745      3387.2151      3257.4843    
      3000   313.13036     -31931.56      -4458.5541     -3197.8575      3257.4843    
Loop time of 121.923 on 8 procs for 3000 steps with 271 atoms

Performance: 1.063 ns/day, 22.578 hours/ns, 24.606 timesteps/s, 6.668 katom-step/s
98.8% CPU use with 8 MPI tasks x 1 OpenMP threads

MPI task timing breakdown:
Section |  min time  |  avg time  |  max time  |%varavg| %total
---------------------------------------------------------------
Pair    | 66.613     | 91.12      | 102.55     | 146.6 | 74.74
Bond    | 0.0080744  | 0.0088309  | 0.0092495  |   0.4 |  0.01
Neigh   | 5.3698     | 7.29       | 8.2234     |  40.6 |  5.98
Comm    | 1.2305     | 12.655     | 37.149     | 393.4 | 10.38
Output  | 0.0057032  | 0.0073307  | 0.0088573  |   1.4 |  0.01
Modify  | 9.8296     | 10.775     | 12.705     |  33.7 |  8.84
Other   |            | 0.0663     |            |       |  0.05

Nlocal:         33.875 ave          39 max          21 min
Histogram: 1 0 0 0 0 0 2 1 3 1
Nghost:        2781.75 ave        2830 max        2725 min
Histogram: 1 0 1 0 1 2 1 0 0 2
Neighs:        19771.9 ave       22751 max       12599 min
Histogram: 1 0 0 0 0 0 2 2 2 1

Total # of neighbors = 158175
Ave neighs/atom = 583.67159
Ave special neighs/atom = 0
Neighbor list builds = 300
Dangerous builds not checked
*****Equilibration neg1 starts.*****
WARNING: New thermo_style command, previous thermo_modify settings will be lost (src/output.cpp:903)
Neighbor list info ...
  update: every = 10 steps, delay = 0 steps, check = no
  max neighbors/atom: 2000, page size: 100000
  master list distance cutoff = 12
  ghost atom cutoff = 12
  binsize = 6, bins = 4 3 3
  2 neighbor lists, perpetual/occasional/extra = 2 0 0
  (1) pair reaxff, perpetual
      attributes: half, newton off, ghost
      pair build: half/bin/newtoff/ghost
      stencil: full/ghost/bin/3d
      bin: standard
  (2) fix qeq/reaxff, perpetual, copy from (1)
      attributes: half, newton off
      pair build: copy
      stencil: none
      bin: none
Setting up Verlet run ...
  Unit style    : real
  Current step  : 0
  Time step     : 0.5
Per MPI rank memory allocation (min/avg/max) = 107.6 | 109.1 | 110.5 Mbytes
   Step          Temp          PotEng         Press        f_avgp[1]        Volume    
         0   313.13036     -31931.56      -4458.5591      0              3257.4843    
       100   305.08342     -31925.065     -13833.483     -2788.4028      3257.4843    
       200   309.76576     -31936.892     -13027.28      -2850.7844      3257.4843    
       300   272.9168      -31928.805     -12678.283     -1063.7789      3257.4843    
       400   291.01573     -31941.009     -6795.7705      1770.2174      3257.4843    
       500   322.36974     -31945.792      4851.0717      6844.1387      3257.4843    
       600   310.17481     -31912.167     -8747.4084     -2431.3732      3257.4843    
       700   322.83534     -31920.149      519.15166      6.2415189      3257.4843    
       800   305.56191     -31914.992      2279.7981      5508.6413      3257.4843    
       900   292.02546     -31911.837     -11476.442     -1378.7036      3257.4843    
      1000   301.11787     -31930.662     -4467.1621      173.76341      3257.4843    
      1100   264.64926     -31907.927     -11549.448      1638.7274      3257.4843    
      1200   305.69222     -31948.721      1465.3768     -1898.1422      3257.4843    
      1300   292.21017     -31952.131     -3626.7469     -5712.8077      3257.4843    
      1400   286.0043      -31940.91      -5408.6213     -1150.9682      3257.4843    
      1500   302.79769     -31925.149     -7649.2391      994.19401      3257.4843    
      1600   300.49545     -31918.991     -2000.7271      3484.7862      3257.4843    
      1700   315.83185     -31935.285      4813.9659      2326.4276      3257.4843    
      1800   285.64931     -31932.002      8978.915       5298.759       3257.4843    
      1900   283.06418     -31951.487      8129.5758     -2099.9824      3257.4843    
      2000   271.47861     -31931.897     -7673.992      -4640.5569      3257.4843    
      2100   313.94596     -31948.429     -13255.702     -4503.3303      3257.4843    
      2200   300.86818     -31931.717     -1343.2373      1517.4191      3257.4843    
      2300   317.32403     -31937.606      6359.6975      712.67775      3257.4843    
      2400   300.27198     -31924.13      -351.925       -3987.2343      3257.4843    
      2500   277.57991     -31918.489      14347.672      386.66896      3257.4843    
      2600   286.96594     -31943.741      5219.5769      5004.9881      3257.4843    
      2700   272.70717     -31926.598      5747.1122      2456.6921      3257.4843    
      2800   332.43379     -31942.62      -1299.6428     -411.89104      3257.4843    
      2900   302.53631     -31915.523      729.04958     -343.3965       3257.4843    
      3000   307.52852     -31921.472     -1668.4027     -1248.3859      3257.4843    
Loop time of 122.914 on 8 procs for 3000 steps with 271 atoms

Performance: 1.054 ns/day, 22.762 hours/ns, 24.407 timesteps/s, 6.614 katom-step/s
98.9% CPU use with 8 MPI tasks x 1 OpenMP threads

MPI task timing breakdown:
Section |  min time  |  avg time  |  max time  |%varavg| %total
---------------------------------------------------------------
Pair    | 67.363     | 92.198     | 103.25     | 149.0 | 75.01
Bond    | 0.0084501  | 0.0088109  | 0.0090515  |   0.2 |  0.01
Neigh   | 5.3941     | 7.3055     | 8.2048     |  40.0 |  5.94
Comm    | 1.4938     | 12.546     | 37.364     | 403.7 | 10.21
Output  | 0.0012662  | 0.0014709  | 0.0022129  |   0.7 |  0.00
Modify  | 9.8963     | 10.788     | 12.702     |  33.2 |  8.78
Other   |            | 0.06654    |            |       |  0.05

Nlocal:         33.875 ave          38 max          25 min
Histogram: 1 0 0 0 0 2 1 0 1 3
Nghost:        2801.88 ave        2850 max        2750 min
Histogram: 1 0 2 0 1 0 2 0 0 2
Neighs:        19790.8 ave       22247 max       14886 min
Histogram: 1 0 0 0 0 2 1 0 2 2

Total # of neighbors = 158326
Ave neighs/atom = 584.22878
Ave special neighs/atom = 0
Neighbor list builds = 300
Dangerous builds not checked
OMP_NUM_THREADS environment is not set. Defaulting to 1 thread. (src/comm.cpp:98)
  using 1 OpenMP thread(s) per MPI task
Reading restart file ...
  restart file = 2 Aug 2023, LAMMPS = 2 Aug 2023
  restoring atom style full from restart
  triclinic box = (0 0 0) to (14.7487 13.4318 16.6096) with tilt (-6.1972 -1.0047 -1.8606)
  2 by 2 by 2 MPI processor grid
  pair style reaxff stores no restart info
  271 atoms
Finding 1-2 1-3 1-4 neighbors ...
  special bond factors lj:    0        0        0       
  special bond factors coul:  0        0        0       
     0 = max # of 1-2 neighbors
     0 = max # of 1-3 neighbors
     0 = max # of 1-4 neighbors
     1 = max # of special neighbors
  special bonds CPU = 0.000 seconds
  read_restart CPU = 0.003 seconds
*****Positive-change 1 starts.*****
Resetting global fix info from restart file:
  fix style: nvt, fix ID: 4
Changing box ...
  triclinic box = (0 0 0) to (14.896187 13.4318 16.6096) with tilt (-6.1972 -1.0047 -1.8606)
  triclinic box = (0 0 0) to (14.896187 13.4318 16.6096) with tilt (-6.259172 -1.0047 -1.8606)
  triclinic box = (0 0 0) to (14.896187 13.4318 16.6096) with tilt (-6.259172 -1.014747 -1.8606)
All restart file global fix info was re-assigned
Neighbor list info ...
  update: every = 10 steps, delay = 0 steps, check = no
  max neighbors/atom: 2000, page size: 100000
  master list distance cutoff = 12
  ghost atom cutoff = 12
  binsize = 6, bins = 4 3 3
  2 neighbor lists, perpetual/occasional/extra = 2 0 0
  (1) pair reaxff, perpetual
      attributes: half, newton off, ghost
      pair build: half/bin/newtoff/ghost
      stencil: full/ghost/bin/3d
      bin: standard
  (2) fix qeq/reaxff, perpetual, copy from (1)
      attributes: half, newton off
      pair build: copy
      stencil: none
      bin: none
Setting up Verlet run ...
  Unit style    : real
  Current step  : 0
  Time step     : 0.5
Per MPI rank memory allocation (min/avg/max) = 107.1 | 108.1 | 109 Mbytes
   Step          Temp          PotEng         Press        f_avgp[1]        Volume    
         0   295.96326     -31876.588     -44908.598      0              3323.292     
       100   309.66031     -31862.643     -4738.8564     -1723.117       3323.292     
       200   295.92468     -31835.895     -9226.7854     -1796.706       3323.292     
       300   331.92197     -31880.213     -17983.306     -6659.7701      3323.292     
       400   274.98255     -31867.853     -3689.8096     -957.80707      3323.292     
       500   278.39036     -31884.546     -1459.6463     -2070.2264      3323.292     
       600   298.7779      -31890.537      5685.002      -4485.492       3323.292     
       700   328.74834     -31892.735     -9959.306      -5440.511       3323.292     
       800   312.96269     -31878.852     -11567.038     -8070.5283      3323.292     
       900   303.38362     -31894.939     -4917.7058     -7241.6019      3323.292     
      1000   290.30697     -31900.58      -14912.209     -6941.2433      3323.292     
      1100   280.63005     -31892.068      5925.8493     -2692.4686      3323.292     
      1200   313.35396     -31893.39      -10941.388     -4677.6952      3323.292     
      1300   328.97985     -31893.235     -15849.779      1800.3736      3323.292     
      1400   315.07761     -31896.338     -9867.6216     -1605.2581      3323.292     
      1500   297.22279     -31896.773      2945.0835     -3994.8022      3323.292     
      1600   292.99555     -31901.982     -7357.0455     -3172.259       3323.292     
      1700   293.11926     -31900.347      16887.371      2161.8787      3323.292     
      1800   291.8663      -31864.074     -10307.732      13.613643      3323.292     
      1900   353.29145     -31904.473     -11733.892     -3892.078       3323.292     
      2000   315.6921      -31897.562     -7408.3004     -2988.7482      3323.292     
      2100   289.69088     -31893.883     -10275.973     -7626.006       3323.292     
      2200   308.57329     -31915.563     -2008.6447      4449.386       3323.292     
      2300   287.41454     -31907.869     -13435.268     -4149.1512      3323.292     
      2400   292.9107      -31932.678     -3038.1229     -2989.3907      3323.292     
      2500   280.7049      -31932.454     -9328.0512     -7689.9397      3323.292     
      2600   303.39176     -31928.954     -1649.835      -4240.165       3323.292     
      2700   296.45444     -31902.278     -4565.1756     -2868.9822      3323.292     
      2800   313.00611     -31912.994     -5543.9533     -1366.2644      3323.292     
      2900   310.16988     -31924.854     -1448.2816      744.57277      3323.292     
      3000   274.25718     -31909.038      7780.7643      437.94209      3323.292     
Loop time of 120.22 on 8 procs for 3000 steps with 271 atoms

Performance: 1.078 ns/day, 22.263 hours/ns, 24.954 timesteps/s, 6.763 katom-step/s
98.7% CPU use with 8 MPI tasks x 1 OpenMP threads

MPI task timing breakdown:
Section |  min time  |  avg time  |  max time  |%varavg| %total
---------------------------------------------------------------
Pair    | 64.732     | 91.678     | 100.65     | 117.3 | 76.26
Bond    | 0.0083896  | 0.0090024  | 0.0098906  |   0.5 |  0.01
Neigh   | 5.3979     | 7.4026     | 8.2258     |  31.5 |  6.16
Comm    | 1.396      | 10.385     | 37.321     | 348.4 |  8.64
Output  | 0.0068379  | 0.0085523  | 0.010113   |   1.3 |  0.01
Modify  | 9.8408     | 10.667     | 12.695     |  26.5 |  8.87
Other   |            | 0.07007    |            |       |  0.06

Nlocal:         33.875 ave          39 max          21 min
Histogram: 1 0 0 1 0 0 0 1 2 3
Nghost:        2754.75 ave        2818 max        2686 min
Histogram: 1 0 2 0 0 2 1 0 0 2
Neighs:        19325.5 ave       22379 max       12310 min
Histogram: 1 0 0 1 0 0 0 2 2 2

Total # of neighbors = 154604
Ave neighs/atom = 570.49446
Ave special neighs/atom = 0
Neighbor list builds = 300
Dangerous builds not checked
*****Equilibration pos1 starts.*****
WARNING: New thermo_style command, previous thermo_modify settings will be lost (src/output.cpp:903)
Neighbor list info ...
  update: every = 10 steps, delay = 0 steps, check = no
  max neighbors/atom: 2000, page size: 100000
  master list distance cutoff = 12
  ghost atom cutoff = 12
  binsize = 6, bins = 4 3 3
  2 neighbor lists, perpetual/occasional/extra = 2 0 0
  (1) pair reaxff, perpetual
      attributes: half, newton off, ghost
      pair build: half/bin/newtoff/ghost
      stencil: full/ghost/bin/3d
      bin: standard
  (2) fix qeq/reaxff, perpetual, copy from (1)
      attributes: half, newton off
      pair build: copy
      stencil: none
      bin: none
Setting up Verlet run ...
  Unit style    : real
  Current step  : 0
  Time step     : 0.5
Per MPI rank memory allocation (min/avg/max) = 107.1 | 108.1 | 109 Mbytes
   Step          Temp          PotEng         Press        f_avgp[1]        Volume    
         0   274.25718     -31909.038      7780.7526      0              3323.292     
       100   310.15829     -31926.108     -3238.5184     -5252.886       3323.292     
       200   316.22843     -31910.819      2861.6826      2757.8819      3323.292     
       300   317.21983     -31917.232     -12439.064     -8313.2163      3323.292     
       400   279.76347     -31923.562      3758.4922     -1000.8102      3323.292     
       500   291.31243     -31932.92       5871.168       174.397        3323.292     
       600   295.35784     -31917.183     -812.44019     -5102.607       3323.292     
       700   287.71721     -31894.947      1334.795      -566.9043       3323.292     
       800   299.06032     -31897.989     -4561.3973     -2766.5979      3323.292     
       900   334.8053      -31929.891     -4557.1435     -9424.3202      3323.292     
      1000   277.89537     -31914.769      5048.2982      1201.0184      3323.292     
      1100   270.4046      -31926.161      3839.1075     -3211.4745      3323.292     
      1200   275.16696     -31907.068      1229.544      -3965.7947      3323.292     
      1300   306.85399     -31912.187     -11047.078     -7481.6494      3323.292     
      1400   306.71977     -31903.842     -17632.59      -9709.9384      3323.292     
      1500   311.96446     -31906.4       -1990.7424     -6841.8267      3323.292     
      1600   305.09678     -31920.177      8901.7866     -1188.8918      3323.292     
      1700   288.37073     -31929.885     -1777.0566     -3960.9893      3323.292     
      1800   286.89162     -31922.87       1090.7996     -4142.6849      3323.292     
      1900   322.70959     -31929.899      2157.7797     -2175.9329      3323.292     
      2000   316.6668      -31917.873     -733.07414     -6369.0961      3323.292     
      2100   305.73846     -31912.392      8429.1845     -2523.809       3323.292     
      2200   303.88186     -31921.599      1756.6363      1864.7389      3323.292     
      2300   277.71757     -31917.095     -3318.1927     -804.78664      3323.292     
      2400   292.81195     -31933.221      2293.2415     -4599.4866      3323.292     
      2500   287.1886      -31898.869      1179.1146     -6393.1681      3323.292     
      2600   306.33101     -31898.568     -5940.1388     -8230.0436      3323.292     
      2700   313.7158      -31906.663     -6534.3874     -10003.982      3323.292     
      2800   286.85467     -31902.94      -4642.7079     -6934.29        3323.292     
      2900   292.24649     -31928.644      4602.0065     -1669.245       3323.292     
      3000   309.62341     -31939.105      2713.4577     -4444.2171      3323.292     
Loop time of 120.717 on 8 procs for 3000 steps with 271 atoms

Performance: 1.074 ns/day, 22.355 hours/ns, 24.852 timesteps/s, 6.735 katom-step/s
98.8% CPU use with 8 MPI tasks x 1 OpenMP threads

MPI task timing breakdown:
Section |  min time  |  avg time  |  max time  |%varavg| %total
---------------------------------------------------------------
Pair    | 70.168     | 92.631     | 101.63     |  98.0 | 76.73
Bond    | 0.0084524  | 0.0090136  | 0.0095244  |   0.4 |  0.01
Neigh   | 5.5273     | 7.4367     | 8.271      |  29.4 |  6.16
Comm    | 1.0637     | 10.074     | 32.541     | 297.2 |  8.34
Output  | 0.00126    | 0.00153    | 0.0031782  |   1.6 |  0.00
Modify  | 9.6533     | 10.496     | 12.411     |  24.9 |  8.69
Other   |            | 0.06841    |            |       |  0.06

Nlocal:         33.875 ave          38 max          21 min
Histogram: 1 0 0 0 0 0 0 2 2 3
Nghost:        2773.88 ave        2835 max        2703 min
Histogram: 1 0 1 1 0 1 1 1 1 1
Neighs:        19379.8 ave       21773 max       12383 min
Histogram: 1 0 0 0 0 0 1 1 2 3

Total # of neighbors = 155038
Ave neighs/atom = 572.09594
Ave special neighs/atom = 0
Neighbor list builds = 300
Dangerous builds not checked
OMP_NUM_THREADS environment is not set. Defaulting to 1 thread. (src/comm.cpp:98)
  using 1 OpenMP thread(s) per MPI task
Reading restart file ...
  restart file = 2 Aug 2023, LAMMPS = 2 Aug 2023
  restoring atom style full from restart
  triclinic box = (0 0 0) to (14.7487 13.4318 16.6096) with tilt (-6.1972 -1.0047 -1.8606)
  2 by 2 by 2 MPI processor grid
  pair style reaxff stores no restart info
  271 atoms
Finding 1-2 1-3 1-4 neighbors ...
  special bond factors lj:    0        0        0       
  special bond factors coul:  0        0        0       
     0 = max # of 1-2 neighbors
     0 = max # of 1-3 neighbors
     0 = max # of 1-4 neighbors
     1 = max # of special neighbors
  special bonds CPU = 0.000 seconds
  read_restart CPU = 0.003 seconds
*****Negative-change 2 starts.*****
Resetting global fix info from restart file:
  fix style: nvt, fix ID: 4
Changing box ...
  triclinic box = (0 0 0) to (14.7487 13.297482 16.6096) with tilt (-6.1972 -1.0047 -1.8606)
  triclinic box = (0 0 0) to (14.7487 13.297482 16.6096) with tilt (-6.1972 -1.0047 -1.841994)
All restart file global fix info was re-assigned
Neighbor list info ...
  update: every = 10 steps, delay = 0 steps, check = no
  max neighbors/atom: 2000, page size: 100000
  master list distance cutoff = 12
  ghost atom cutoff = 12
  binsize = 6, bins = 4 3 3
  2 neighbor lists, perpetual/occasional/extra = 2 0 0
  (1) pair reaxff, perpetual
      attributes: half, newton off, ghost
      pair build: half/bin/newtoff/ghost
      stencil: full/ghost/bin/3d
      bin: standard
  (2) fix qeq/reaxff, perpetual, copy from (1)
      attributes: half, newton off
      pair build: copy
      stencil: none
      bin: none
Setting up Verlet run ...
  Unit style    : real
  Current step  : 0
  Time step     : 0.5
Per MPI rank memory allocation (min/avg/max) = 107.9 | 109.2 | 110.5 Mbytes
   Step          Temp          PotEng         Press        f_avgp[1]        Volume    
         0   295.96326     -31882.334      39545.839      0              3257.4843    
       100   310.26434     -31869.765     -426.08007      2488.702       3257.4843    
       200   307.8662      -31852.533      58.681846      258.70555      3257.4843    
       300   312.42805     -31868.981      1172.6362     -2615.7185      3257.4843    
       400   276.22429     -31870.44       2080.6366      354.92381      3257.4843    
       500   290.55699     -31902.438     -305.94395      1587.8844      3257.4843    
       600   296.21229     -31917.038      11550.68      -487.05292      3257.4843    
       700   294.56538     -31910.158     -10176.15      -2359.0784      3257.4843    
       800   317.62622     -31909.875     -3745.1934     -1572.3471      3257.4843    
       900   297.02716     -31875.488     -7845.1821     -2590.9734      3257.4843    
      1000   287.29431     -31865.051     -9866.3135     -779.89486      3257.4843    
      1100   300.67559     -31897.913     -2261.6977      1951.655       3257.4843    
      1200   288.87855     -31905.235      4316.5747      5085.2935      3257.4843    
      1300   304.26257     -31920.024     -8098.547      -4202.5823      3257.4843    
      1400   303.10645     -31916.998     -2599.2352      2036.8271      3257.4843    
      1500   287.03114     -31903.508     -13104.482      6252.2514      3257.4843    
      1600   283.51074     -31892.215      2310.1316      4971.1421      3257.4843    
      1700   296.61528     -31884.592      21656.103      1514.9663      3257.4843    
      1800   320.25675     -31886.447      1930.7472      8775.1759      3257.4843    
      1900   298.73963     -31906.438     -6838.1984     -2082.2087      3257.4843    
      2000   298.52025     -31919.379     -5601.2038      1175.0237      3257.4843    
      2100   298.99052     -31913.92      -4467.7847     -1664.7196      3257.4843    
      2200   301.6516      -31903.147     -6650.0885      98.877266      3257.4843    
      2300   312.82115     -31895.708      2039.1637     -1919.1733      3257.4843    
      2400   317.88806     -31895.216     -6535.1538      1881.2077      3257.4843    
      2500   297.38297     -31906.876     -7251.9648     -183.15868      3257.4843    
      2600   284.59926     -31912.952     -11539.127     -105.45369      3257.4843    
      2700   299.22092     -31916.975     -14500.031     -7563.5135      3257.4843    
      2800   284.66147     -31886.319     -4868.917      -3682.3573      3257.4843    
      2900   315.89783     -31897.486      11401.32      -1043.2222      3257.4843    
      3000   306.22377     -31895.147      14394.659     -1015.96        3257.4843    
Loop time of 121.34 on 8 procs for 3000 steps with 271 atoms

Performance: 1.068 ns/day, 22.470 hours/ns, 24.724 timesteps/s, 6.700 katom-step/s
98.9% CPU use with 8 MPI tasks x 1 OpenMP threads

MPI task timing breakdown:
Section |  min time  |  avg time  |  max time  |%varavg| %total
---------------------------------------------------------------
Pair    | 69.264     | 88.625     | 102.54     | 140.2 | 73.04
Bond    | 0.0084371  | 0.0088104  | 0.0093105  |   0.4 |  0.01
Neigh   | 5.4089     | 7.1432     | 8.3227     |  42.4 |  5.89
Comm    | 0.9653     | 14.888     | 34.255     | 342.0 | 12.27
Output  | 0.0063421  | 0.0078777  | 0.0093344  |   1.2 |  0.01
Modify  | 9.418      | 10.601     | 12.337     |  34.9 |  8.74
Other   |            | 0.06603    |            |       |  0.05

Nlocal:         33.875 ave          38 max          23 min
Histogram: 1 0 0 0 0 0 0 3 2 2
Nghost:        2811.25 ave        2892 max        2755 min
Histogram: 2 0 2 0 1 1 0 1 0 1
Neighs:        19756.8 ave       21808 max       13767 min
Histogram: 1 0 0 0 0 0 0 3 2 2

Total # of neighbors = 158054
Ave neighs/atom = 583.22509
Ave special neighs/atom = 0
Neighbor list builds = 300
Dangerous builds not checked
*****Equilibration neg2 starts.*****
WARNING: New thermo_style command, previous thermo_modify settings will be lost (src/output.cpp:903)
Neighbor list info ...
  update: every = 10 steps, delay = 0 steps, check = no
  max neighbors/atom: 2000, page size: 100000
  master list distance cutoff = 12
  ghost atom cutoff = 12
  binsize = 6, bins = 4 3 3
  2 neighbor lists, perpetual/occasional/extra = 2 0 0
  (1) pair reaxff, perpetual
      attributes: half, newton off, ghost
      pair build: half/bin/newtoff/ghost
      stencil: full/ghost/bin/3d
      bin: standard
  (2) fix qeq/reaxff, perpetual, copy from (1)
      attributes: half, newton off
      pair build: copy
      stencil: none
      bin: none
Setting up Verlet run ...
  Unit style    : real
  Current step  : 0
  Time step     : 0.5
Per MPI rank memory allocation (min/avg/max) = 107.9 | 109.2 | 110.5 Mbytes
   Step          Temp          PotEng         Press        f_avgp[1]        Volume    
         0   306.22377     -31895.147      14394.687      0              3257.4843    
       100   293.96076     -31891.109     -6177.2983     -8631.5         3257.4843    
       200   303.66643     -31917.407      1850.7424     -7733.9054      3257.4843    
       300   263.00013     -31908.078     -6233.0373     -2160.7322      3257.4843    
       400   285.65875     -31912.122      2443.5726     -898.63138      3257.4843    
       500   299.117       -31907.968      938.49152      1066.7399      3257.4843    
       600   301.0163      -31901.377     -11131.243      1750.7692      3257.4843    
       700   306.54668     -31904.447     -7710.3889      591.86889      3257.4843    
       800   298.48034     -31907.115      2384.2901     -737.75966      3257.4843    
       900   272.27046     -31916.66       13056          4121.5799      3257.4843    
      1000   278.01032     -31926.973     -3123.7622      2545.2283      3257.4843    
      1100   294.69592     -31917.939      3914.6949      1821.2447      3257.4843    
      1200   298.79332     -31910.304      10959.193     -4290.4312      3257.4843    
      1300   288.01024     -31897.289     -10664.733     -7169.6448      3257.4843    
      1400   300.82101     -31896.425     -17608.055     -1209.2592      3257.4843    
      1500   316.1915      -31897.726     -5361.6016     -1520.5818      3257.4843    
      1600   320.95244     -31909.661      3645.6552      211.07458      3257.4843    
      1700   290.16214     -31913.051      5475.4939      4658.1747      3257.4843    
      1800   291.70682     -31919.723      2137.7421     -2626.1177      3257.4843    
      1900   300.50376     -31917.254     -14338.661     -5652.3113      3257.4843    
      2000   314.21039     -31910.181      6645.119      -389.01103      3257.4843    
      2100   321.81419     -31899.919     -7684.6376      163.09513      3257.4843    
      2200   330.62602     -31922.541      4243.5772      3339.5661      3257.4843    
      2300   292.83769     -31924.483      635.86798     -2726.5942      3257.4843    
      2400   305.0709      -31938.647      1574.5342     -4659.8079      3257.4843    
      2500   304.06721     -31927.232     -12165.32       1739.3465      3257.4843    
      2600   313.75149     -31912.976     -8665.3285     -1337.1031      3257.4843    
      2700   315.30045     -31918.7       -7622.4574     -4982.5344      3257.4843    
      2800   297.03252     -31920.024     -5715.3053      4683.1648      3257.4843    
      2900   275.33887     -31917.839      8754.2829     -1599.6365      3257.4843    
      3000   249.78485     -31929.558     -7213.4264      1504.0652      3257.4843    
Loop time of 121.458 on 8 procs for 3000 steps with 271 atoms

Performance: 1.067 ns/day, 22.492 hours/ns, 24.700 timesteps/s, 6.694 katom-step/s
98.8% CPU use with 8 MPI tasks x 1 OpenMP threads

MPI task timing breakdown:
Section |  min time  |  avg time  |  max time  |%varavg| %total
---------------------------------------------------------------
Pair    | 66.702     | 91.159     | 102.72     | 132.8 | 75.05
Bond    | 0.0079348  | 0.0087958  | 0.0092742  |   0.4 |  0.01
Neigh   | 5.5031     | 7.2733     | 8.181      |  37.2 |  5.99
Comm    | 1.0454     | 12.614     | 37.05      | 356.9 | 10.39
Output  | 0.0012446  | 0.0016147  | 0.0037324  |   2.0 |  0.00
Modify  | 9.4216     | 10.335     | 12.135     |  31.4 |  8.51
Other   |            | 0.06731    |            |       |  0.06

Nlocal:         33.875 ave          38 max          25 min
Histogram: 1 0 0 0 0 0 3 2 0 2
Nghost:        2798.88 ave        2866 max        2727 min
Histogram: 1 0 1 0 3 0 1 0 1 1
Neighs:        19798.9 ave       22215 max       14934 min
Histogram: 1 0 0 0 0 0 3 2 1 1

Total # of neighbors = 158391
Ave neighs/atom = 584.46863
Ave special neighs/atom = 0
Neighbor list builds = 300
Dangerous builds not checked
OMP_NUM_THREADS environment is not set. Defaulting to 1 thread. (src/comm.cpp:98)
  using 1 OpenMP thread(s) per MPI task
Reading restart file ...
  restart file = 2 Aug 2023, LAMMPS = 2 Aug 2023
  restoring atom style full from restart
  triclinic box = (0 0 0) to (14.7487 13.4318 16.6096) with tilt (-6.1972 -1.0047 -1.8606)
  2 by 2 by 2 MPI processor grid
  pair style reaxff stores no restart info
  271 atoms
Finding 1-2 1-3 1-4 neighbors ...
  special bond factors lj:    0        0        0       
  special bond factors coul:  0        0        0       
     0 = max # of 1-2 neighbors
     0 = max # of 1-3 neighbors
     0 = max # of 1-4 neighbors
     1 = max # of special neighbors
  special bonds CPU = 0.000 seconds
  read_restart CPU = 0.004 seconds
*****Positive-change 2 starts.*****
Resetting global fix info from restart file:
  fix style: nvt, fix ID: 4
Changing box ...
  triclinic box = (0 0 0) to (14.7487 13.566118 16.6096) with tilt (-6.1972 -1.0047 -1.8606)
  triclinic box = (0 0 0) to (14.7487 13.566118 16.6096) with tilt (-6.1972 -1.0047 -1.879206)
All restart file global fix info was re-assigned
Neighbor list info ...
  update: every = 10 steps, delay = 0 steps, check = no
  max neighbors/atom: 2000, page size: 100000
  master list distance cutoff = 12
  ghost atom cutoff = 12
  binsize = 6, bins = 4 3 3
  2 neighbor lists, perpetual/occasional/extra = 2 0 0
  (1) pair reaxff, perpetual
      attributes: half, newton off, ghost
      pair build: half/bin/newtoff/ghost
      stencil: full/ghost/bin/3d
      bin: standard
  (2) fix qeq/reaxff, perpetual, copy from (1)
      attributes: half, newton off
      pair build: copy
      stencil: none
      bin: none
Setting up Verlet run ...
  Unit style    : real
  Current step  : 0
  Time step     : 0.5
Per MPI rank memory allocation (min/avg/max) = 106.9 | 108 | 109.1 Mbytes
   Step          Temp          PotEng         Press        f_avgp[1]        Volume    
         0   295.96326     -31871.292     -42537.754      0              3323.292     
       100   302.08016     -31851.885     -2735.9143      2417.508       3323.292     
       200   297.68314     -31834.091      1126.842       862.5104       3323.292     
       300   329.50655     -31878.087     -8485.4288     -5240.2768      3323.292     
       400   285.72074     -31877.36      -7303.8304     -668.64179      3323.292     
       500   287.03419     -31892.092     -4371.4485      1145.7608      3323.292     
       600   305.32541     -31901.039      1685.4722     -7089.5037      3323.292     
       700   320.43611     -31897.279     -9948.4383     -2629.3385      3323.292     
       800   287.38009     -31868.752     -5404.6894     -3675.9282      3323.292     
       900   295.91473     -31881.2       -6077.0227     -7472.2222      3323.292     
      1000   295.85887     -31897.409     -3938.2383     -2321.0278      3323.292     
      1100   289.93978     -31899.656      973.52261     -2167.2956      3323.292     
      1200   294.59358     -31903.448     -4518.8961     -2775.1075      3323.292     
      1300   300.43304     -31916.434     -6667.0289     -2614.5191      3323.292     
      1400   292.06635     -31924.284     -232.30945      6208.0612      3323.292     
      1500   281.5679      -31922.452     -3529.4206     -5583.1956      3323.292     
      1600   286.0467      -31900.097     -16149.911     -7028.5574      3323.292     
      1700   315.61367     -31908.579      4042.4686      377.0856       3323.292     
      1800   293.83666     -31892.91      -5207.0246      4757.9224      3323.292     
      1900   316.69681     -31918.723     -8705.1411     -5425.4348      3323.292     
      2000   286.30008     -31908.648      7260.2834      2212.2391      3323.292     
      2100   284.17223     -31921.082      6856.8379     -496.44426      3323.292     
      2200   270.0883      -31920.491     -1744.1041     -3714.449       3323.292     
      2300   302.09859     -31927.459     -16980.744     -5863.5905      3323.292     
      2400   314.77368     -31917.55       3935.9124     -4492.676       3323.292     
      2500   303.33098     -31903.284      5195.1331      2178.4084      3323.292     
      2600   302.64432     -31901.357     -17841.153     -5255.1001      3323.292     
      2700   302.93407     -31905.787     -880.83658     -3585.0774      3323.292     
      2800   272.61164     -31894.93      -24328.319     -8688.1459      3323.292     
      2900   301.23377     -31913.932      181.2314       4267.6206      3323.292     
      3000   307.41722     -31898.475     -2191.6776     -8175.4794      3323.292     
Loop time of 120.647 on 8 procs for 3000 steps with 271 atoms

Performance: 1.074 ns/day, 22.342 hours/ns, 24.866 timesteps/s, 6.739 katom-step/s
98.7% CPU use with 8 MPI tasks x 1 OpenMP threads

MPI task timing breakdown:
Section |  min time  |  avg time  |  max time  |%varavg| %total
---------------------------------------------------------------
Pair    | 64.321     | 90.573     | 100.69     | 128.2 | 75.07
Bond    | 0.0079657  | 0.0089371  | 0.0097868  |   0.6 |  0.01
Neigh   | 5.3344     | 7.334      | 8.0421     |  35.7 |  6.08
Comm    | 1.8122     | 11.914     | 38.145     | 353.2 |  9.87
Output  | 0.0064367  | 0.007949   | 0.009355   |   1.2 |  0.01
Modify  | 10.018     | 10.74      | 12.771     |  29.9 |  8.90
Other   |            | 0.0694     |            |       |  0.06

Nlocal:         33.875 ave          39 max          23 min
Histogram: 1 0 0 0 0 2 2 0 0 3
Nghost:        2744.88 ave        2794 max        2685 min
Histogram: 1 0 1 0 1 1 2 0 0 2
Neighs:        19366.1 ave       22350 max       13426 min
Histogram: 1 0 0 0 0 2 2 0 0 3

Total # of neighbors = 154929
Ave neighs/atom = 571.69373
Ave special neighs/atom = 0
Neighbor list builds = 300
Dangerous builds not checked
*****Equilibration pos2 starts.*****
WARNING: New thermo_style command, previous thermo_modify settings will be lost (src/output.cpp:903)
Neighbor list info ...
  update: every = 10 steps, delay = 0 steps, check = no
  max neighbors/atom: 2000, page size: 100000
  master list distance cutoff = 12
  ghost atom cutoff = 12
  binsize = 6, bins = 4 3 3
  2 neighbor lists, perpetual/occasional/extra = 2 0 0
  (1) pair reaxff, perpetual
      attributes: half, newton off, ghost
      pair build: half/bin/newtoff/ghost
      stencil: full/ghost/bin/3d
      bin: standard
  (2) fix qeq/reaxff, perpetual, copy from (1)
      attributes: half, newton off
      pair build: copy
      stencil: none
      bin: none
Setting up Verlet run ...
  Unit style    : real
  Current step  : 0
  Time step     : 0.5
Per MPI rank memory allocation (min/avg/max) = 106.9 | 108 | 109.2 Mbytes
   Step          Temp          PotEng         Press        f_avgp[1]        Volume    
         0   307.41722     -31898.475     -2191.7225      0              3323.292     
       100   297.85784     -31896.581     -8598.0689     -286.40602      3323.292     
       200   286.93157     -31909.636     -1743.4076     -1555.9645      3323.292     
       300   280.01328     -31925.394      852.43251     -1892.5156      3323.292     
       400   290.46427     -31919.459     -1374.3626      892.43316      3323.292     
       500   300.55893     -31911.889      5286.8117     -3460.1995      3323.292     
       600   286.07892     -31896.523     -691.61521     -1534.7742      3323.292     
       700   298.88839     -31910.297      9660.9796     -3717.0189      3323.292     
       800   298.15158     -31918.367      14652.245      2389.581       3323.292     
       900   262.22312     -31914.743     -2991.8453     -4333.7876      3323.292     
      1000   295.61308     -31934.959      2066.3653     -2349.5343      3323.292     
      1100   293.09993     -31910.954      3401.3688      4136.2821      3323.292     
      1200   321.53937     -31917.48       4838.3658      1363.6049      3323.292     
      1300   318.46387     -31914.259     -1739.903      -2745.5298      3323.292     
      1400   311.78117     -31918.905     -2566.9363      3198.8257      3323.292     
      1500   305.51976     -31919.777     -3811.9663     -2179.929       3323.292     
      1600   269.19963     -31891.241     -800.40641     -432.19079      3323.292     
      1700   320.3582      -31903.34       3145.3353     -2879.1038      3323.292     
      1800   316.35039     -31899.549      1934.688      -3703.195       3323.292     
      1900   288.0127      -31902.329     -8765.5483     -6471.7002      3323.292     
      2000   307.70928     -31927.051     -13344.678     -7323.8399      3323.292     
      2100   285.0304      -31907.795      186.82173      1471.5746      3323.292     
      2200   306.01459     -31906.635     -8023.4372     -1606.0341      3323.292     
      2300   333.75582     -31900.234      6181.5097      642.9767       3323.292     
      2400   309.92744     -31890.852     -9990.4746     -3.1998931      3323.292     
      2500   282.81072     -31894.304     -4446.2113     -8240.78        3323.292     
      2600   297.20537     -31904.851      3444.1514     -2553.1641      3323.292     
      2700   288.25692     -31908.576     -9526.3018     -4853.2755      3323.292     
      2800   275.7522      -31908.148     -6637.4161     -3339.4352      3323.292     
      2900   306.89942     -31922.721      3683.5452     -744.25085      3323.292     
      3000   324.38271     -31918.409     -9491.0468      5142.3933      3323.292     
Loop time of 120.323 on 8 procs for 3000 steps with 271 atoms

Performance: 1.077 ns/day, 22.282 hours/ns, 24.933 timesteps/s, 6.757 katom-step/s
98.8% CPU use with 8 MPI tasks x 1 OpenMP threads

MPI task timing breakdown:
Section |  min time  |  avg time  |  max time  |%varavg| %total
---------------------------------------------------------------
Pair    | 70.994     | 92.322     | 100.97     |  98.9 | 76.73
Bond    | 0.0083024  | 0.0089278  | 0.009452   |   0.5 |  0.01
Neigh   | 5.7422     | 7.4011     | 8.069      |  26.5 |  6.15
Comm    | 1.3492     | 10.021     | 31.348     | 300.1 |  8.33
Output  | 0.0012499  | 0.001574   | 0.0033333  |   1.7 |  0.00
Modify  | 9.8464     | 10.498     | 12.165     |  22.5 |  8.72
Other   |            | 0.06939    |            |       |  0.06

Nlocal:         33.875 ave          38 max          22 min
Histogram: 1 0 0 0 0 0 2 1 1 3
Nghost:           2760 ave        2829 max        2689 min
Histogram: 1 0 1 1 0 3 0 0 0 2
Neighs:          19390 ave       21793 max       12953 min
Histogram: 1 0 0 0 0 0 2 1 1 3

Total # of neighbors = 155120
Ave neighs/atom = 572.39852
Ave special neighs/atom = 0
Neighbor list builds = 300
Dangerous builds not checked
OMP_NUM_THREADS environment is not set. Defaulting to 1 thread. (src/comm.cpp:98)
  using 1 OpenMP thread(s) per MPI task
Reading restart file ...
  restart file = 2 Aug 2023, LAMMPS = 2 Aug 2023
  restoring atom style full from restart
  triclinic box = (0 0 0) to (14.7487 13.4318 16.6096) with tilt (-6.1972 -1.0047 -1.8606)
  2 by 2 by 2 MPI processor grid
  pair style reaxff stores no restart info
  271 atoms
Finding 1-2 1-3 1-4 neighbors ...
  special bond factors lj:    0        0        0       
  special bond factors coul:  0        0        0       
     0 = max # of 1-2 neighbors
     0 = max # of 1-3 neighbors
     0 = max # of 1-4 neighbors
     1 = max # of special neighbors
  special bonds CPU = 0.000 seconds
  read_restart CPU = 0.004 seconds
*****Negative-change 3 starts.*****
Resetting global fix info from restart file:
  fix style: nvt, fix ID: 4
Changing box ...
  triclinic box = (0 0 0) to (14.7487 13.4318 16.443504) with tilt (-6.1972 -1.0047 -1.8606)
All restart file global fix info was re-assigned
Neighbor list info ...
  update: every = 10 steps, delay = 0 steps, check = no
  max neighbors/atom: 2000, page size: 100000
  master list distance cutoff = 12
  ghost atom cutoff = 12
  binsize = 6, bins = 4 3 3
  2 neighbor lists, perpetual/occasional/extra = 2 0 0
  (1) pair reaxff, perpetual
      attributes: half, newton off, ghost
      pair build: half/bin/newtoff/ghost
      stencil: full/ghost/bin/3d
      bin: standard
  (2) fix qeq/reaxff, perpetual, copy from (1)
      attributes: half, newton off
      pair build: copy
      stencil: none
      bin: none
Setting up Verlet run ...
  Unit style    : real
  Current step  : 0
  Time step     : 0.5
Per MPI rank memory allocation (min/avg/max) = 108.1 | 109.3 | 110.7 Mbytes
   Step          Temp          PotEng         Press        f_avgp[1]        Volume    
         0   295.96326     -31882.534      39084.23       0              3257.4843    
       100   308.23971     -31867.523      4452.3235      2606.5377      3257.4843    
       200   309.44356     -31851.216      6189.1041      1084.6552      3257.4843    
       300   318.31779     -31874.156     -609.01817     -3871.1768      3257.4843    
       400   278.57855     -31873.561     -639.35826      2013.8534      3257.4843    
       500   312.50257     -31919.682     -4449.4778     -486.02351      3257.4843    
       600   292.00184     -31906.938      1730.7601     -313.19708      3257.4843    
       700   303.58232     -31902.151     -5891.2469      668.01463      3257.4843    
       800   321.47686     -31899.854     -3730.7923     -3475.9442      3257.4843    
       900   302.99009     -31881.939     -14394.521     -2384.3926      3257.4843    
      1000   304.74951     -31894.776     -10261.495     -2206.8709      3257.4843    
      1100   290.03605     -31901.018     -458.86995     -6890.2926      3257.4843    
      1200   296.00519     -31911.92       2825.5247      1208.4026      3257.4843    
      1300   310.28597     -31925.383     -2166.6382      302.11154      3257.4843    
      1400   304.49986     -31910.958     -15934.452     -2853.3583      3257.4843    
      1500   333.30461     -31913.748     -9110.5898      428.34644      3257.4843    
      1600   324.18333     -31905.4        4135.4547     -1880.5235      3257.4843    
      1700   283.15668     -31898.994      11636.449     -2878.4341      3257.4843    
      1800   289.82356     -31916.464     -2662.2693     -2908.336       3257.4843    
      1900   309.154       -31921.583      1831.5387     -3548.3502      3257.4843    
      2000   310.47813     -31912.366     -17051.135     -828.07425      3257.4843    
      2100   307.65482     -31906.539      9004.181      -5730.7988      3257.4843    
      2200   310.0603      -31913.89       3841.2609     -3731.6621      3257.4843    
      2300   272.48523     -31902.461     -10677.079     -1882.8606      3257.4843    
      2400   283.96187     -31918.045     -11191.023     -3731.3559      3257.4843    
      2500   306.91928     -31915.986      1083.5832     -4291.2925      3257.4843    
      2600   317.99589     -31905.219     -5393.5887     -4483.7752      3257.4843    
      2700   312.1417      -31897.492     -14135.254     -1739.389       3257.4843    
      2800   297.23695     -31888.091      326.92341     -1411.1719      3257.4843    
      2900   297.15152     -31906.816     -3259.1369     -3593.5404      3257.4843    
      3000   277.26711     -31918.078      3863.9149      1398.8025      3257.4843    
Loop time of 122.576 on 8 procs for 3000 steps with 271 atoms

Performance: 1.057 ns/day, 22.699 hours/ns, 24.475 timesteps/s, 6.633 katom-step/s
98.6% CPU use with 8 MPI tasks x 1 OpenMP threads

MPI task timing breakdown:
Section |  min time  |  avg time  |  max time  |%varavg| %total
---------------------------------------------------------------
Pair    | 94.486     | 98.247     | 102.84     |  33.8 | 80.15
Bond    | 0.0083374  | 0.0089626  | 0.0096487  |   0.5 |  0.01
Neigh   | 7.544      | 7.8755     | 8.3023     |   9.7 |  6.42
Comm    | 1.488      | 6.0696     | 9.8352     | 136.2 |  4.95
Output  | 0.0065325  | 0.0081589  | 0.0097634  |   1.3 |  0.01
Modify  | 9.8631     | 10.295     | 10.618     |   8.6 |  8.40
Other   |            | 0.07224    |            |       |  0.06

Nlocal:         33.875 ave          40 max          22 min
Histogram: 1 0 0 0 0 1 2 2 1 1
Nghost:         2780.5 ave        2847 max        2715 min
Histogram: 1 1 0 0 3 1 0 0 0 2
Neighs:          19771 ave       23388 max       13177 min
Histogram: 1 0 0 0 0 1 2 2 1 1

Total # of neighbors = 158168
Ave neighs/atom = 583.64576
Ave special neighs/atom = 0
Neighbor list builds = 300
Dangerous builds not checked
*****Equilibration neg3 starts.*****
WARNING: New thermo_style command, previous thermo_modify settings will be lost (src/output.cpp:903)
Neighbor list info ...
  update: every = 10 steps, delay = 0 steps, check = no
  max neighbors/atom: 2000, page size: 100000
  master list distance cutoff = 12
  ghost atom cutoff = 12
  binsize = 6, bins = 4 3 3
  2 neighbor lists, perpetual/occasional/extra = 2 0 0
  (1) pair reaxff, perpetual
      attributes: half, newton off, ghost
      pair build: half/bin/newtoff/ghost
      stencil: full/ghost/bin/3d
      bin: standard
  (2) fix qeq/reaxff, perpetual, copy from (1)
      attributes: half, newton off
      pair build: copy
      stencil: none
      bin: none
Setting up Verlet run ...
  Unit style    : real
  Current step  : 0
  Time step     : 0.5
Per MPI rank memory allocation (min/avg/max) = 108.1 | 109.3 | 110.7 Mbytes
   Step          Temp          PotEng         Press        f_avgp[1]        Volume    
         0   277.26711     -31918.078      3863.8893      0              3257.4843    
       100   292.06061     -31919.657     -3284.6623     -4516.4592      3257.4843    
       200   305.337       -31900.898      3889.863      -4863.8737      3257.4843    
       300   301.29054     -31894.755      11303.723     -2564.7124      3257.4843    
       400   328.66147     -31924.246      3936.3517      3281.6306      3257.4843    
       500   279.49709     -31903.512      963.10733      3402.8959      3257.4843    
       600   300.68312     -31929.053     -844.46126      550.92623      3257.4843    
       700   300.08509     -31934.053     -1789.277      -2334.7755      3257.4843    
       800   281.57873     -31906.799      3390.924      -538.13321      3257.4843    
       900   308.23934     -31908.356      9678.7228      4784.4435      3257.4843    
      1000   305.43962     -31903.51       549.50187     -6011.5817      3257.4843    
      1100   297.06497     -31897.176      2881.3007     -284.88083      3257.4843    
      1200   282.52873     -31887.072      2988.6352     -1250.9315      3257.4843    
      1300   300.9171      -31912.01      -422.28311     -4912.2473      3257.4843    
      1400   306.88141     -31927.421      2101.8951     -1769.601       3257.4843    
      1500   286.63592     -31919.942     -5389.0397      1688.0776      3257.4843    
      1600   279.33875     -31905.736      4098.1682      2186.351       3257.4843    
      1700   298.39309     -31892.511     -3606.0814      2235.0785      3257.4843    
      1800   331.04836     -31909.928      10752.173      9242.0143      3257.4843    
      1900   298.88994     -31892.322     -9567.4504      3057.3989      3257.4843    
      2000   279.32517     -31895.209      17141.19       1300.6162      3257.4843    
      2100   286.20921     -31929.778      2879.4725     -1029.1208      3257.4843    
      2200   280.84891     -31927.129      15544.745      4727.8975      3257.4843    
      2300   277.71781     -31915.178      10203.292     -2921.2998      3257.4843    
      2400   299.46174     -31919.456      7233.2051      2287.3685      3257.4843    
      2500   297.23454     -31906.739      12561.631      267.2529       3257.4843    
      2600   326.67359     -31902.302     -6556.7458     -5035.6416      3257.4843    
      2700   333.16276     -31894.838     -11786.868     -4260.4599      3257.4843    
      2800   331.79277     -31915.674     -5059.3125      5963.716       3257.4843    
      2900   320.10528     -31923.284      1345.5622      2347.6802      3257.4843    
      3000   309.05367     -31931.227      4210.6934     -6171.2971      3257.4843    
Loop time of 123.079 on 8 procs for 3000 steps with 271 atoms

Performance: 1.053 ns/day, 22.792 hours/ns, 24.375 timesteps/s, 6.606 katom-step/s
98.7% CPU use with 8 MPI tasks x 1 OpenMP threads

MPI task timing breakdown:
Section |  min time  |  avg time  |  max time  |%varavg| %total
---------------------------------------------------------------
Pair    | 94.349     | 98.498     | 103.59     |  33.9 | 80.03
Bond    | 0.0082779  | 0.0088742  | 0.0095029  |   0.5 |  0.01
Neigh   | 7.2117     | 7.8168     | 8.4935     |  14.2 |  6.35
Comm    | 1.1504     | 6.2385     | 10.383     | 134.6 |  5.07
Output  | 0.0013782  | 0.0016394  | 0.0033219  |   1.6 |  0.00
Modify  | 9.7509     | 10.446     | 11.062     |  12.6 |  8.49
Other   |            | 0.06967    |            |       |  0.06

Nlocal:         33.875 ave          38 max          21 min
Histogram: 1 0 0 0 0 0 1 0 4 2
Nghost:        2807.75 ave        2861 max        2751 min
Histogram: 2 0 0 0 1 3 0 0 0 2
Neighs:        19769.8 ave       22111 max       12592 min
Histogram: 1 0 0 0 0 0 1 0 4 2

Total # of neighbors = 158158
Ave neighs/atom = 583.60886
Ave special neighs/atom = 0
Neighbor list builds = 300
Dangerous builds not checked
OMP_NUM_THREADS environment is not set. Defaulting to 1 thread. (src/comm.cpp:98)
  using 1 OpenMP thread(s) per MPI task
Reading restart file ...
  restart file = 2 Aug 2023, LAMMPS = 2 Aug 2023
  restoring atom style full from restart
  triclinic box = (0 0 0) to (14.7487 13.4318 16.6096) with tilt (-6.1972 -1.0047 -1.8606)
  2 by 2 by 2 MPI processor grid
  pair style reaxff stores no restart info
  271 atoms
Finding 1-2 1-3 1-4 neighbors ...
  special bond factors lj:    0        0        0       
  special bond factors coul:  0        0        0       
     0 = max # of 1-2 neighbors
     0 = max # of 1-3 neighbors
     0 = max # of 1-4 neighbors
     1 = max # of special neighbors
  special bonds CPU = 0.000 seconds
  read_restart CPU = 0.004 seconds
*****Positive-change 3 starts.*****
Resetting global fix info from restart file:
  fix style: nvt, fix ID: 4
Changing box ...
  triclinic box = (0 0 0) to (14.7487 13.4318 16.775696) with tilt (-6.1972 -1.0047 -1.8606)
All restart file global fix info was re-assigned
Neighbor list info ...
  update: every = 10 steps, delay = 0 steps, check = no
  max neighbors/atom: 2000, page size: 100000
  master list distance cutoff = 12
  ghost atom cutoff = 12
  binsize = 6, bins = 4 3 3
  2 neighbor lists, perpetual/occasional/extra = 2 0 0
  (1) pair reaxff, perpetual
      attributes: half, newton off, ghost
      pair build: half/bin/newtoff/ghost
      stencil: full/ghost/bin/3d
      bin: standard
  (2) fix qeq/reaxff, perpetual, copy from (1)
      attributes: half, newton off
      pair build: copy
      stencil: none
      bin: none
Setting up Verlet run ...
  Unit style    : real
  Current step  : 0
  Time step     : 0.5
Per MPI rank memory allocation (min/avg/max) = 106.3 | 107.6 | 109 Mbytes
   Step          Temp          PotEng         Press        f_avgp[1]        Volume    
         0   295.96326     -31871.941     -43677.267      0              3323.292     
       100   303.08259     -31853.657     -3214.8876      2971.4173      3323.292     
       200   292.09275     -31832.165     -305.55653      94.334243      3323.292     
       300   325.97355     -31877.834     -9701.7982     -5077.9036      3323.292     
       400   287.0689      -31880.25       10692.363      1899.6992      3323.292     
       500   288.35757     -31895.664     -8560.675      -2310.5974      3323.292     
       600   298.28925     -31898.257      8719.091      -4132.5031      3323.292     
       700   313.95763     -31898.129      9138.5374     -3928.8683      3323.292     
       800   282.05        -31879.003     -3557.4033     -1285.3834      3323.292     
       900   313.66632     -31910.943      1733.0979     -4674.9453      3323.292     
      1000   283.5133      -31897.92      -21003.557     -908.10987      3323.292     
      1100   303.82733     -31905.268     -605.3899      -910.71222      3323.292     
      1200   310.45785     -31887.488     -8284.7522     -199.70695      3323.292     
      1300   321.74112     -31894.05      -2436.5321     -319.17255      3323.292     
      1400   288.35082     -31901.275     -8555.9137     -9130.803       3323.292     
      1500   298.83343     -31920.946     -3680.5775     -3489.4091      3323.292     
      1600   293.61099     -31914.705     -4646.3991      193.05754      3323.292     
      1700   306.52193     -31910.765     -210.71215     -2865.3014      3323.292     
      1800   305.64302     -31885.526     -553.04769     -6880.319       3323.292     
      1900   322.2663      -31897.142      2210.345      -6480.253       3323.292     
      2000   320.77728     -31911.005     -16818.167     -3215.9546      3323.292     
      2100   317.92465     -31923.126     -7699.2126     -8149.4284      3323.292     
      2200   308.03231     -31923.725      6855.9191     -6256.9174      3323.292     
      2300   280.90345     -31905.859      1471.2491     -1039.658       3323.292     
      2400   302.60973     -31912.046     -641.42228      1434.4143      3323.292     
      2500   304.24213     -31886.466      9285.5284     -1662.0204      3323.292     
      2600   324.2385      -31908.739     -5903.9633     -2687.1377      3323.292     
      2700   309.66129     -31923.021     -16364.455      1843.0042      3323.292     
      2800   297.41769     -31917.431     -3562.019      -315.34078      3323.292     
      2900   309.24473     -31925.162      454.99824      1230.7987      3323.292     
      3000   306.92233     -31909.782     -2226.3111      6854.3739      3323.292     
Loop time of 119.355 on 8 procs for 3000 steps with 271 atoms

Performance: 1.086 ns/day, 22.103 hours/ns, 25.135 timesteps/s, 6.812 katom-step/s
98.7% CPU use with 8 MPI tasks x 1 OpenMP threads

MPI task timing breakdown:
Section |  min time  |  avg time  |  max time  |%varavg| %total
---------------------------------------------------------------
Pair    | 72.488     | 92.019     | 100.58     |  89.6 | 77.10
Bond    | 0.0083694  | 0.0089092  | 0.0093392  |   0.4 |  0.01
Neigh   | 5.6989     | 7.3971     | 8.0669     |  28.3 |  6.20
Comm    | 1.1211     | 9.6713     | 29.202     | 276.2 |  8.10
Output  | 0.0064907  | 0.0080454  | 0.0094994  |   1.3 |  0.01
Modify  | 9.5028     | 10.184     | 11.889     |  24.3 |  8.53
Other   |            | 0.0668     |            |       |  0.06

Nlocal:         33.875 ave          41 max          20 min
Histogram: 1 0 0 0 0 1 1 3 1 1
Nghost:         2760.5 ave        2825 max        2689 min
Histogram: 1 0 1 1 0 3 0 0 0 2
Neighs:        19375.5 ave       22986 max       11808 min
Histogram: 1 0 0 0 0 1 1 2 2 1

Total # of neighbors = 155004
Ave neighs/atom = 571.97048
Ave special neighs/atom = 0
Neighbor list builds = 300
Dangerous builds not checked
*****Equilibration pos3 starts.*****
WARNING: New thermo_style command, previous thermo_modify settings will be lost (src/output.cpp:903)
Neighbor list info ...
  update: every = 10 steps, delay = 0 steps, check = no
  max neighbors/atom: 2000, page size: 100000
  master list distance cutoff = 12
  ghost atom cutoff = 12
  binsize = 6, bins = 4 3 3
  2 neighbor lists, perpetual/occasional/extra = 2 0 0
  (1) pair reaxff, perpetual
      attributes: half, newton off, ghost
      pair build: half/bin/newtoff/ghost
      stencil: full/ghost/bin/3d
      bin: standard
  (2) fix qeq/reaxff, perpetual, copy from (1)
      attributes: half, newton off
      pair build: copy
      stencil: none
      bin: none
Setting up Verlet run ...
  Unit style    : real
  Current step  : 0
  Time step     : 0.5
Per MPI rank memory allocation (min/avg/max) = 106.2 | 107.6 | 109.1 Mbytes
   Step          Temp          PotEng         Press        f_avgp[1]        Volume    
         0   306.92233     -31909.782     -2226.3184      0              3323.292     
       100   308.26913     -31915.09       2884.3559      817.22231      3323.292     
       200   287.49732     -31924.84      -12340.81      -11639.306      3323.292     
       300   301.67449     -31947.057     -6.7877151     -9548.8786      3323.292     
       400   297.6858      -31929.843     -3048.5804     -5546.6068      3323.292     
       500   293.42757     -31914.37      -14232.3       -1296.8693      3323.292     
       600   294.39997     -31909.906     -6772.3325     -12456.428      3323.292     
       700   305.50134     -31912.094     -8232.2266     -4291.735       3323.292     
       800   304.86858     -31916.694     -6321.2543     -3839.1904      3323.292     
       900   289.38473     -31935.803      5513.7448     -4158.7864      3323.292     
      1000   273.51731     -31937.281      8616.7463     -9092.9408      3323.292     
      1100   291.65267     -31932.035     -13275.452     -3597.0292      3323.292     
      1200   275.29086     -31901.287     -14757.512     -7408.5875      3323.292     
      1300   290.97118     -31901.55      -3230.2937     -6659.2518      3323.292     
      1400   320.53324     -31925.044     -377.71016     -2640.5413      3323.292     
      1500   323.72824     -31943.723     -5247.1372     -2092.2534      3323.292     
      1600   287.75001     -31946.184      16045.219     -8785.8216      3323.292     
      1700   254.41799     -31917.097     -904.47643     -4358.7685      3323.292     
      1800   300.27646     -31933.703      10661.921     -2271.3863      3323.292     
      1900   308.30221     -31926.074      231.68777      545.64487      3323.292     
      2000   316.35612     -31932.098     -1677.4115     -5638.6259      3323.292     
      2100   301.05707     -31926.793     -3433.45       -7050.613       3323.292     
      2200   279.33317     -31935.001     -4526.3306     -1195.9873      3323.292     
      2300   273.34282     -31940.818     -1897.1864     -3803.5327      3323.292     
      2400   270.31363     -31917.649     -3450.8404     -7554.0091      3323.292     
      2500   312.52261     -31936.379     -4553.3963     -1724.8392      3323.292     
      2600   290.17939     -31914.529      1979.516      -4246.8462      3323.292     
      2700   302.26668     -31911.668      19739.783     -2859.8708      3323.292     
      2800   315.87108     -31909.778      6165.5831     -6326.0571      3323.292     
      2900   317.2795      -31912.025     -7459.7471     -4445.3148      3323.292     
      3000   286.24501     -31916.94      -1829.2709     -4519.5904      3323.292     
Loop time of 120.487 on 8 procs for 3000 steps with 271 atoms

Performance: 1.076 ns/day, 22.312 hours/ns, 24.899 timesteps/s, 6.748 katom-step/s
98.8% CPU use with 8 MPI tasks x 1 OpenMP threads

MPI task timing breakdown:
Section |  min time  |  avg time  |  max time  |%varavg| %total
---------------------------------------------------------------
Pair    | 78.886     | 94.915     | 101.36     |  68.8 | 78.78
Bond    | 0.0082012  | 0.0090752  | 0.0097503  |   0.6 |  0.01
Neigh   | 6.1202     | 7.5731     | 8.162      |  21.5 |  6.29
Comm    | 1.0863     | 7.5344     | 23.561     | 244.3 |  6.25
Output  | 0.0013449  | 0.0015164  | 0.0023981  |   0.9 |  0.00
Modify  | 9.7819     | 10.387     | 11.85      |  18.6 |  8.62
Other   |            | 0.06788    |            |       |  0.06

Nlocal:         33.875 ave          39 max          25 min
Histogram: 1 0 0 0 0 3 1 0 1 2
Nghost:        2765.12 ave        2830 max        2698 min
Histogram: 1 1 0 1 1 2 0 0 0 2
Neighs:        19368.9 ave       21919 max       14644 min
Histogram: 1 0 0 0 0 3 1 0 0 3

Total # of neighbors = 154951
Ave neighs/atom = 571.77491
Ave special neighs/atom = 0
Neighbor list builds = 300
Dangerous builds not checked
OMP_NUM_THREADS environment is not set. Defaulting to 1 thread. (src/comm.cpp:98)
  using 1 OpenMP thread(s) per MPI task
Reading restart file ...
  restart file = 2 Aug 2023, LAMMPS = 2 Aug 2023
  restoring atom style full from restart
  triclinic box = (0 0 0) to (14.7487 13.4318 16.6096) with tilt (-6.1972 -1.0047 -1.8606)
  2 by 2 by 2 MPI processor grid
  pair style reaxff stores no restart info
  271 atoms
Finding 1-2 1-3 1-4 neighbors ...
  special bond factors lj:    0        0        0       
  special bond factors coul:  0        0        0       
     0 = max # of 1-2 neighbors
     0 = max # of 1-3 neighbors
     0 = max # of 1-4 neighbors
     1 = max # of special neighbors
  special bonds CPU = 0.000 seconds
  read_restart CPU = 0.004 seconds
*****Negative-change 4 starts.*****
Resetting global fix info from restart file:
  fix style: nvt, fix ID: 4
Changing box ...
  triclinic box = (0 0 0) to (14.7487 13.4318 16.6096) with tilt (-6.1972 -1.0047 -2.026696)
All restart file global fix info was re-assigned
Neighbor list info ...
  update: every = 10 steps, delay = 0 steps, check = no
  max neighbors/atom: 2000, page size: 100000
  master list distance cutoff = 12
  ghost atom cutoff = 12
  binsize = 6, bins = 4 3 3
  2 neighbor lists, perpetual/occasional/extra = 2 0 0
  (1) pair reaxff, perpetual
      attributes: half, newton off, ghost
      pair build: half/bin/newtoff/ghost
      stencil: full/ghost/bin/3d
      bin: standard
  (2) fix qeq/reaxff, perpetual, copy from (1)
      attributes: half, newton off
      pair build: copy
      stencil: none
      bin: none
Setting up Verlet run ...
  Unit style    : real
  Current step  : 0
  Time step     : 0.5
Per MPI rank memory allocation (min/avg/max) = 107.5 | 108.7 | 109.9 Mbytes
   Step          Temp          PotEng         Press        f_avgp[1]        Volume    
         0   295.96326     -31885.77      -2662.9238      0              3290.3881    
       100   307.17654     -31867.732      1484.0192      3158.7746      3290.3881    
       200   319.61924     -31856.898      11786.382      664.70417      3290.3881    
       300   332.09461     -31879.049     -5203.7588     -3595.5195      3290.3881    
       400   275.85322     -31869.669      1154.9105      3531.0461      3290.3881    
       500   303.27172     -31915.384     -4863.2969     -1635.3111      3290.3881    
       600   303.60237     -31919.018      7016.8351     -4195.8243      3290.3881    
       700   316.28679     -31916.661      5007.0064     -556.36721      3290.3881    
       800   302.41377     -31894.748      3573.2545     -64.442847      3290.3881    
       900   304.4929      -31876.952     -2989.5027     -4376.2078      3290.3881    
      1000   301.82682     -31871.719     -14878.382     -1603.5073      3290.3881    
      1100   326.20867     -31907.387     -1212.4724      1672.185       3290.3881    
      1200   317.72821     -31930.576     -7062.7422      1442.6095      3290.3881    
      1300   295.32645     -31920.805      7172.3957      573.51679      3290.3881    
      1400   289.13134     -31909.307     -12258.547      765.98608      3290.3881    
      1500   294.20507     -31893.646     -8369.8536      3810.4113      3290.3881    
      1600   313.65406     -31896.237     -10367.243     -393.05649      3290.3881    
      1700   317.46149     -31900.12      -14004.265      1745.823       3290.3881    
      1800   280.46269     -31878.843     -667.44638      3098.1562      3290.3881    
      1900   289.95401     -31889.894     -17635.651      4143.5093      3290.3881    
      2000   305.26282     -31897.166     -4070.3809     -2677.4203      3290.3881    
      2100   316.1941      -31896.013      4849.8911      1585.687       3290.3881    
      2200   336.02125     -31928.779      2555.0658     -7119.032       3290.3881    
      2300   293.23481     -31917.218     -4998.3215     -121.72351      3290.3881    
      2400   305.58689     -31923.607     -1010.1251     -908.70488      3290.3881    
      2500   300.93544     -31899.642      8888.7553     -4145.7062      3290.3881    
      2600   317.82699     -31903.423     -6122.2576     -2282.5293      3290.3881    
      2700   317.67382     -31905.49       11665.958     -4294.3394      3290.3881    
      2800   296.48996     -31897.98      -8558.0277     -1454.025       3290.3881    
      2900   292.24969     -31905.374      2129.2115      832.51792      3290.3881    
      3000   298.01559     -31905.844     -7623.2646      1484.7394      3290.3881    
Loop time of 121.051 on 8 procs for 3000 steps with 271 atoms

Performance: 1.071 ns/day, 22.417 hours/ns, 24.783 timesteps/s, 6.716 katom-step/s
98.8% CPU use with 8 MPI tasks x 1 OpenMP threads

MPI task timing breakdown:
Section |  min time  |  avg time  |  max time  |%varavg| %total
---------------------------------------------------------------
Pair    | 94.048     | 97.567     | 101.75     |  28.5 | 80.60
Bond    | 0.0082656  | 0.0091506  | 0.0098075  |   0.6 |  0.01
Neigh   | 7.4533     | 7.8075     | 8.2703     |   9.6 |  6.45
Comm    | 1.1624     | 5.3575     | 8.8842     | 121.4 |  4.43
Output  | 0.0068553  | 0.0085144  | 0.010109   |   1.3 |  0.01
Modify  | 9.7579     | 10.231     | 10.59      |   8.6 |  8.45
Other   |            | 0.0699     |            |       |  0.06

Nlocal:         33.875 ave          39 max          24 min
Histogram: 1 0 0 0 0 2 1 0 3 1
Nghost:        2791.75 ave        2815 max        2769 min
Histogram: 1 1 0 1 2 0 1 0 0 2
Neighs:        19559.1 ave       22553 max       14140 min
Histogram: 1 0 0 0 0 2 1 1 2 1

Total # of neighbors = 156473
Ave neighs/atom = 577.39114
Ave special neighs/atom = 0
Neighbor list builds = 300
Dangerous builds not checked
*****Equilibration neg4 starts.*****
WARNING: New thermo_style command, previous thermo_modify settings will be lost (src/output.cpp:903)
Neighbor list info ...
  update: every = 10 steps, delay = 0 steps, check = no
  max neighbors/atom: 2000, page size: 100000
  master list distance cutoff = 12
  ghost atom cutoff = 12
  binsize = 6, bins = 4 3 3
  2 neighbor lists, perpetual/occasional/extra = 2 0 0
  (1) pair reaxff, perpetual
      attributes: half, newton off, ghost
      pair build: half/bin/newtoff/ghost
      stencil: full/ghost/bin/3d
      bin: standard
  (2) fix qeq/reaxff, perpetual, copy from (1)
      attributes: half, newton off
      pair build: copy
      stencil: none
      bin: none
Setting up Verlet run ...
  Unit style    : real
  Current step  : 0
  Time step     : 0.5
Per MPI rank memory allocation (min/avg/max) = 107.6 | 108.7 | 109.9 Mbytes
   Step          Temp          PotEng         Press        f_avgp[1]        Volume    
         0   298.01559     -31905.844     -7623.3236      0              3290.3881    
[...]
  (1) pair reaxff, perpetual
      attributes: half, newton off, ghost
      pair build: half/bin/newtoff/ghost
      stencil: full/ghost/bin/3d
      bin: standard
  (2) fix qeq/reaxff, perpetual, copy from (1)
      attributes: half, newton off
      pair build: copy
      stencil: none
      bin: none
Setting up Verlet run ...
  Unit style    : real
  Current step  : 0
  Time step     : 0.5
Per MPI rank memory allocation (min/avg/max) = 107.6 | 109.1 | 110.5 Mbytes
   Step          Temp          PotEng         Press        f_avgp[1]        Volume    
         0   295.96326     -31888.74      -2632.2107      0              3290.3881    
       100   303.17614     -31866.735      1598.3981      2945.6907      3290.3881    
       200   301.22814     -31843.609      8214.1279      1680.9416      3290.3881    
       300   341.02677     -31882.82      -12829.111     -4012.9893      3290.3881    
       400   295.17675     -31876.804      4925.748       1747.3297      3290.3881    
       500   294.04434     -31895.576     -907.36152      3028.0382      3290.3881    
       600   300.7812      -31909.061     -3669.4722     -3840.5954      3290.3881    
       700   291.2454      -31903.537     -9290.8359     -1238.3867      3290.3881    
       800   298.29705     -31903.137     -14328.063     -4082.1642      3290.3881    
       900   301.01499     -31888.596     -1322.0307     -4050.2188      3290.3881    
      1000   298.10157     -31871.181     -22919.075     -2169.1165      3290.3881    
      1100   307.80931     -31875.219      8774.2553     -2763.6651      3290.3881    
      1200   283.29268     -31875.755     -350.54368     -7432.531       3290.3881    
      1300   298.19882     -31913.056      12119.632      2882.163       3290.3881    
      1400   288.09038     -31905.768     -2466.8688     -4313.5417      3290.3881    
      1500   309.57667     -31914.226      1349.6251     -5380.7297      3290.3881    
      1600   316.24689     -31903.182      4125.2972     -2723.8855      3290.3881    
      1700   325.17449     -31888.254      1042.1298     -3699.4069      3290.3881    
      1800   311.86782     -31873.198     -9828.8285     -2370.7844      3290.3881    
      1900   305.76896     -31901.427      2274.4803     -4945.8032      3290.3881    
      2000   285.02909     -31902.452     -4887.1589     -1167.3204      3290.3881    
      2100   292.81211     -31907.829     -7334.2904     -1822.5011      3290.3881    
      2200   300.13773     -31897.072     -12921.535     -7727.9915      3290.3881    
      2300   291.30541     -31877.232     -9565.8716     -6711.5455      3290.3881    
      2400   315.86373     -31892.716      1124.9989     -2932.9091      3290.3881    
      2500   312.39214     -31912.901      2869.2077     -4879.8466      3290.3881    
      2600   308.25899     -31928.829     -2542.7737     -7672.3229      3290.3881    
      2700   302.9836      -31924.398     -10989.196     -9975.999       3290.3881    
      2800   303.99444     -31903.652      3328.696      -6478.6104      3290.3881    
      2900   309.79827     -31896.805     -2561.1953      700.70069      3290.3881    
      3000   302.3202      -31902.408     -19076.628     -6577.8739      3290.3881    
Loop time of 121.763 on 8 procs for 3000 steps with 271 atoms

Performance: 1.064 ns/day, 22.549 hours/ns, 24.638 timesteps/s, 6.677 katom-step/s
98.8% CPU use with 8 MPI tasks x 1 OpenMP threads

MPI task timing breakdown:
Section |  min time  |  avg time  |  max time  |%varavg| %total
---------------------------------------------------------------
Pair    | 81.583     | 96.075     | 102.54     |  63.7 | 78.90
Bond    | 0.0083659  | 0.0089764  | 0.0097302  |   0.5 |  0.01
Neigh   | 6.3815     | 7.6529     | 8.1957     |  19.0 |  6.29
Comm    | 1.079      | 7.5541     | 22.042     | 227.0 |  6.20
Output  | 0.0064913  | 0.0085092  | 0.010595   |   1.6 |  0.01
Modify  | 9.8493     | 10.395     | 11.679     |  16.5 |  8.54
Other   |            | 0.06874    |            |       |  0.06

Nlocal:         33.875 ave          40 max          21 min
Histogram: 1 0 0 0 0 1 2 2 0 2
Nghost:        2783.25 ave        2848 max        2721 min
Histogram: 2 0 0 1 1 2 0 0 0 2
Neighs:          19565 ave       22678 max       12481 min
Histogram: 1 0 0 0 0 0 2 2 1 2

Total # of neighbors = 156520
Ave neighs/atom = 577.56458
Ave special neighs/atom = 0
Neighbor list builds = 300
Dangerous builds not checked
*****Equilibration neg6 starts.*****
WARNING: New thermo_style command, previous thermo_modify settings will be lost (src/output.cpp:903)
Neighbor list info ...
  update: every = 10 steps, delay = 0 steps, check = no
  max neighbors/atom: 2000, page size: 100000
  master list distance cutoff = 12
  ghost atom cutoff = 12
  binsize = 6, bins = 4 3 3
  2 neighbor lists, perpetual/occasional/extra = 2 0 0
  (1) pair reaxff, perpetual
      attributes: half, newton off, ghost
      pair build: half/bin/newtoff/ghost
      stencil: full/ghost/bin/3d
      bin: standard
  (2) fix qeq/reaxff, perpetual, copy from (1)
      attributes: half, newton off
      pair build: copy
      stencil: none
      bin: none
Setting up Verlet run ...
  Unit style    : real
  Current step  : 0
  Time step     : 0.5
Per MPI rank memory allocation (min/avg/max) = 107.6 | 109.1 | 110.6 Mbytes
   Step          Temp          PotEng         Press        f_avgp[1]        Volume    
         0   302.3202      -31902.408     -19076.598      0              3290.3881    
       100   294.43352     -31895.49       8456.9301     -11136.598      3290.3881    
       200   303.75206     -31910.096     -2381.3777     -4466.8572      3290.3881    
       300   307.66454     -31932.515     -356.14618     -6056.4702      3290.3881    
       400   289.44934     -31925.291     -14736.314     -6676.8789      3290.3881    
       500   276.88905     -31890.765      7721.0252     -4351.6384      3290.3881    
       600   285.20583     -31880.652      6179.8704     -6208.9499      3290.3881    
       700   308.49881     -31902.361      6083.9169     -1158.4475      3290.3881    
       800   290.03572     -31900.279     -11190.348     -8169.4635      3290.3881    
       900   295.5512      -31919.883     -12716.184     -4741.71        3290.3881    
      1000   262.13831     -31919.36       626.73316      3061.8373      3290.3881    
      1100   275.61296     -31930.711      6294.0623     -576.48719      3290.3881    
      1200   282.50236     -31904.225     -7203.7854     -2013.3645      3290.3881    
      1300   311.93998     -31917.751      3945.1287      2568.3694      3290.3881    
      1400   301.60229     -31908.331      6972.6099     -1087.1519      3290.3881    
      1500   291.88076     -31901.73       3931.7761     -7936.181       3290.3881    
      1600   291.10422     -31891.267     -3722.1526     -4169.5474      3290.3881    
      1700   310.96056     -31887.32       1894.1732     -617.75962      3290.3881    
      1800   316.92462     -31891.548     -8131.8243     -5240.1981      3290.3881    
      1900   295.10576     -31905.791     -8459.25       -4985.5254      3290.3881    
      2000   294.76808     -31913.702      8395.4118     -1449.0411      3290.3881    
      2100   297.2566      -31903.817      2862.6123     -4541.3799      3290.3881    
      2200   298.10855     -31892.599      1026.4963     -1347.6831      3290.3881    
      2300   319.67003     -31899.363      2260.8694     -1828.9913      3290.3881    
      2400   315.50536     -31876.383      4529.5783      2214.2355      3290.3881    
      2500   322.31393     -31873.788     -2146.489      -380.62852      3290.3881    
      2600   310.40684     -31891.675     -8499.2347     -4136.7854      3290.3881    
      2700   317.6138      -31915.895     -3887.8595      1748.8814      3290.3881    
      2800   271.44332     -31888.688     -1789.9581      3109.3736      3290.3881    
      2900   316.38935     -31922.872      1484.5209     -6.1289619      3290.3881    
      3000   298.41741     -31893.167      5736.6493     -2083.8431      3290.3881    
Loop time of 113.125 on 8 procs for 3000 steps with 271 atoms

Performance: 1.146 ns/day, 20.949 hours/ns, 26.519 timesteps/s, 7.187 katom-step/s
98.9% CPU use with 8 MPI tasks x 1 OpenMP threads

MPI task timing breakdown:
Section |  min time  |  avg time  |  max time  |%varavg| %total
---------------------------------------------------------------
Pair    | 62.33      | 83.888     | 94.68      | 122.4 | 74.16
Bond    | 0.0077068  | 0.0081144  | 0.0085676  |   0.4 |  0.01
Neigh   | 5.3257     | 7.2141     | 8.1276     |  37.0 |  6.38
Comm    | 0.97748    | 11.749     | 33.291     | 326.8 | 10.39
Output  | 0.0011912  | 0.0013198  | 0.0020017  |   0.7 |  0.00
Modify  | 9.2548     | 10.2       | 12.116     |  31.6 |  9.02
Other   |            | 0.0633     |            |       |  0.06

Nlocal:         33.875 ave          40 max          26 min
Histogram: 1 0 0 1 0 3 0 2 0 1
Nghost:        2782.88 ave        2842 max        2727 min
Histogram: 2 0 0 2 0 2 0 0 0 2
Neighs:        19596.5 ave       22793 max       15308 min
Histogram: 1 0 0 1 0 3 1 0 1 1

Total # of neighbors = 156772
Ave neighs/atom = 578.49446
Ave special neighs/atom = 0
Neighbor list builds = 300
Dangerous builds not checked
OMP_NUM_THREADS environment is not set. Defaulting to 1 thread. (src/comm.cpp:98)
  using 1 OpenMP thread(s) per MPI task
Reading restart file ...
  restart file = 2 Aug 2023, LAMMPS = 2 Aug 2023
  restoring atom style full from restart
  triclinic box = (0 0 0) to (14.7487 13.4318 16.6096) with tilt (-6.1972 -1.0047 -1.8606)
  2 by 2 by 2 MPI processor grid
  pair style reaxff stores no restart info
  271 atoms
Finding 1-2 1-3 1-4 neighbors ...
  special bond factors lj:    0        0        0       
  special bond factors coul:  0        0        0       
     0 = max # of 1-2 neighbors
     0 = max # of 1-3 neighbors
     0 = max # of 1-4 neighbors
     1 = max # of special neighbors
  special bonds CPU = 0.000 seconds
  read_restart CPU = 0.003 seconds
*****Positive-change 6 starts.*****
Resetting global fix info from restart file:
  fix style: nvt, fix ID: 4
Changing box ...
  triclinic box = (0 0 0) to (14.7487 13.4318 16.6096) with tilt (-6.062882 -1.0047 -1.8606)
All restart file global fix info was re-assigned
Neighbor list info ...
  update: every = 10 steps, delay = 0 steps, check = no
  max neighbors/atom: 2000, page size: 100000
  master list distance cutoff = 12
  ghost atom cutoff = 12
  binsize = 6, bins = 4 3 3
  2 neighbor lists, perpetual/occasional/extra = 2 0 0
  (1) pair reaxff, perpetual
      attributes: half, newton off, ghost
      pair build: half/bin/newtoff/ghost
      stencil: full/ghost/bin/3d
      bin: standard
  (2) fix qeq/reaxff, perpetual, copy from (1)
      attributes: half, newton off
      pair build: copy
      stencil: none
      bin: none
Setting up Verlet run ...
  Unit style    : real
  Current step  : 0
  Time step     : 0.5
Per MPI rank memory allocation (min/avg/max) = 107.1 | 108.2 | 109.3 Mbytes
   Step          Temp          PotEng         Press        f_avgp[1]        Volume    
         0   295.96326     -31886.075     -2942.3475      0              3290.3881    
       100   300.49975     -31861.983      361.73781      2636.5141      3290.3881    
       200   312.61902     -31850.422      5067.2114      1013.741       3290.3881    
       300   332.37248     -31881.942     -2633.1139     -3617.5815      3290.3881    
       400   269.67997     -31865.755      663.93141      133.39676      3290.3881    
       500   295.49668     -31904.189     -1908.1042     -282.80917      3290.3881    
       600   296.64405     -31911.801     -3732.2191     -4675.1093      3290.3881    
       700   321.04818     -31921.137     -5065.612      -2963.1044      3290.3881    
       800   307.28312     -31897.931     -5884.1712      87.295608      3290.3881    
       900   315.40146     -31890.925      1532.885      -2752.5589      3290.3881    
      1000   296.93311     -31877.925     -100.76618     -3321.7041      3290.3881    
      1100   288.43544     -31885.371      12781.377     -371.28047      3290.3881    
      1200   298.17398     -31910.679     -1382.2896      691.00721      3290.3881    
      1300   271.34529     -31912.046      3831.9494     -2654.8658      3290.3881    
      1400   290.32297     -31929.837      1534.0423     -3196.6313      3290.3881    
      1500   330.29055     -31925.669     -1576.6433     -3632.9576      3290.3881    
      1600   305.74676     -31901.545     -2572.7973      2649.204       3290.3881    
      1700   291.55162     -31894.942     -298.19136     -2773.9278      3290.3881    
      1800   291.92648     -31905.587     -21208.16      -1828.8507      3290.3881    
      1900   288.47994     -31905.242     -3455.5629     -2868.4103      3290.3881    
      2000   305.35106     -31899.511      3812.8715     -3822.0416      3290.3881    
      2100   326.57028     -31897.54      -15653.091     -4524.2082      3290.3881    
      2200   289.21326     -31881.32      -3594.14       -3969.993       3290.3881    
      2300   293.28521     -31897.574     -3108.7477     -1456.3923      3290.3881    
      2400   279.09356     -31909.624      743.85548     -6271.954       3290.3881    
      2500   282.20888     -31940.673      7338.3705     -37.927822      3290.3881    
      2600   276.10583     -31926.356     -33.26392      -3904.4076      3290.3881    
      2700   303.98683     -31928.924      19971.721      26.515325      3290.3881    
      2800   310.08162     -31917.988      8007.979       2041.577       3290.3881    
      2900   291.4574      -31894.065      4548.6362     -4816.4532      3290.3881    
      3000   337.50017     -31918.862     -1733.021      -4242.603       3290.3881    
Loop time of 110.944 on 8 procs for 3000 steps with 271 atoms

Performance: 1.168 ns/day, 20.545 hours/ns, 27.041 timesteps/s, 7.328 katom-step/s
98.9% CPU use with 8 MPI tasks x 1 OpenMP threads

MPI task timing breakdown:
Section |  min time  |  avg time  |  max time  |%varavg| %total
---------------------------------------------------------------
Pair    | 58.425     | 79.015     | 90.274     | 129.7 | 71.22
Bond    | 0.0073101  | 0.0079666  | 0.0084898  |   0.4 |  0.01
Neigh   | 5.3461     | 6.9442     | 7.7779     |  33.9 |  6.26
Comm    | 3.0452     | 14.302     | 34.888     | 304.7 | 12.89
Output  | 0.005251   | 0.006636   | 0.0078831  |   1.2 |  0.01
Modify  | 9.7478     | 10.605     | 12.217     |  27.8 |  9.56
Other   |            | 0.06272    |            |       |  0.06

Nlocal:         33.875 ave          40 max          23 min
Histogram: 1 0 0 0 0 1 1 4 0 1
Nghost:        2746.25 ave        2805 max        2682 min
Histogram: 1 1 0 1 1 1 1 0 0 2
Neighs:        19568.2 ave       22787 max       13606 min
Histogram: 1 0 0 0 0 1 1 4 0 1

Total # of neighbors = 156546
Ave neighs/atom = 577.66052
Ave special neighs/atom = 0
Neighbor list builds = 300
Dangerous builds not checked
*****Equilibration pos6 starts.*****
WARNING: New thermo_style command, previous thermo_modify settings will be lost (src/output.cpp:903)
Neighbor list info ...
  update: every = 10 steps, delay = 0 steps, check = no
  max neighbors/atom: 2000, page size: 100000
  master list distance cutoff = 12
  ghost atom cutoff = 12
  binsize = 6, bins = 4 3 3
  2 neighbor lists, perpetual/occasional/extra = 2 0 0
  (1) pair reaxff, perpetual
      attributes: half, newton off, ghost
      pair build: half/bin/newtoff/ghost
      stencil: full/ghost/bin/3d
      bin: standard
  (2) fix qeq/reaxff, perpetual, copy from (1)
      attributes: half, newton off
      pair build: copy
      stencil: none
      bin: none
Setting up Verlet run ...
  Unit style    : real
  Current step  : 0
  Time step     : 0.5
Per MPI rank memory allocation (min/avg/max) = 107.2 | 108.2 | 109.4 Mbytes
   Step          Temp          PotEng         Press        f_avgp[1]        Volume    
         0   337.50017     -31918.862     -1733.0301      0              3290.3881    
       100   298.19638     -31908.152      5454.2634     -167.77687      3290.3881    
       200   304.69803     -31927.947     -9744.9468      2059.3945      3290.3881    
       300   277.55353     -31904.356     -9585.811      -4251.9861      3290.3881    
       400   309.40758     -31916.611     -9737.4741     -2653.9018      3290.3881    
       500   301.3505      -31905.863     -1573.7271     -3719.1558      3290.3881    
       600   315.89253     -31916.415     -4868.4776     -2285.5821      3290.3881    
       700   290.23996     -31912.264     -4622.7044     -262.31207      3290.3881    
       800   287.17542     -31927.268     -9442.3778     -2756.7282      3290.3881    
       900   301.32087     -31939.742      3723.3594      3599.5876      3290.3881    
      1000   309.71455     -31931.896     -7240.1114      4924.406       3290.3881    
      1100   308.01614     -31913.478     -4428.578      -2569.6318      3290.3881    
      1200   327.93696     -31907.352     -15365.358      1382.8904      3290.3881    
      1300   327.28706     -31899.57      -4481.3714     -11091.939      3290.3881    
      1400   281.49804     -31905.261      5335.7936      5169.2749      3290.3881    
      1500   273.19089     -31909.816      1958.3869      1062.8397      3290.3881    
      1600   315.13054     -31940.644     -15282.125     -7230.7759      3290.3881    
      1700   293.51427     -31913.721     -5919.4168     -2347.1683      3290.3881    
      1800   290.24634     -31904.516     -10883.689     -626.75919      3290.3881    
      1900   307.71815     -31905.047      3936.7626      3318.2353      3290.3881    
      2000   303.90433     -31892.851     -5605.5206      1944.0096      3290.3881    
      2100   283.73017     -31904.456      11986.156      159.38127      3290.3881    
      2200   271.21565     -31908.133     -2590.8468      993.21974      3290.3881    
      2300   310.24967     -31932.679      5854.2397     -124.58859      3290.3881    
      2400   306.54867     -31915.434     -2611.2853     -5605.4799      3290.3881    
      2500   329.14746     -31909.603      5484.3862     -8565.7875      3290.3881    
      2600   323.33179     -31906.526      2792.7469      8914.1945      3290.3881    
      2700   288.21839     -31918.367      1883.502       1944.7779      3290.3881    
      2800   290.20574     -31925.576     -1836.4782     -570.84171      3290.3881    
      2900   299.12339     -31927.034     -5712.4777     -101.02895      3290.3881    
      3000   295.152       -31909.436     -13286.728      104.3261       3290.3881    
Loop time of 103.884 on 8 procs for 3000 steps with 271 atoms

Performance: 1.248 ns/day, 19.238 hours/ns, 28.878 timesteps/s, 7.826 katom-step/s
98.9% CPU use with 8 MPI tasks x 1 OpenMP threads

MPI task timing breakdown:
Section |  min time  |  avg time  |  max time  |%varavg| %total
---------------------------------------------------------------
Pair    | 56.193     | 62.029     | 86.521     | 118.7 | 59.71
Bond    | 0.0066094  | 0.0075749  | 0.0080767  |   0.6 |  0.01
Neigh   | 5.2666     | 5.6402     | 7.4761     |  29.4 |  5.43
Comm    | 0.68763    | 25.191     | 31.04      | 186.3 | 24.25
Output  | 0.001215   | 0.0014062  | 0.0019933  |   0.6 |  0.00
Modify  | 9.129      | 10.959     | 11.335     |  21.0 | 10.55
Other   |            | 0.05584    |            |       |  0.05

Nlocal:         33.875 ave          39 max          23 min
Histogram: 1 0 0 0 0 1 2 1 1 2
Nghost:        2760.38 ave        2814 max        2717 min
Histogram: 2 0 0 2 1 1 0 0 1 1
Neighs:        19596.4 ave       22525 max       13616 min
Histogram: 1 0 0 0 0 1 2 1 1 2

Total # of neighbors = 156771
Ave neighs/atom = 578.49077
Ave special neighs/atom = 0
Neighbor list builds = 300
Dangerous builds not checked
Total wall time: 0:49:52
