LAMMPS (2 Aug 2023 - Update 2)
  using 8 OpenMP thread(s) per MPI task
# Initialization
units           real
dimension       3
boundary        p p p
atom_style      full
timestep        0.5   # fs

# Define MD parameters
variable nevery equal 10                  # sampling interval
variable nrepeat equal 10                 # number of samples
variable nfreq equal ${nevery}*${nrepeat} # length of one average
variable nfreq equal 10*${nrepeat} 
variable nfreq equal 10*10 
variable nthermo equal ${nfreq}           # interval for thermo output
variable nthermo equal 100           
# 1 ps : 1e3 fs / 0.5 fs = 2e3 steps
variable nequil equal 10*${nthermo}       # steps of equilibration run
variable nequil equal 10*100       
variable nrun equal 30*${nthermo}          # stpes of equilibrated run
variable nrun equal 30*100          
variable temp equal 300.0                # temperature of initial sample
variable tdamp equal 50.0                 # time constant for thermostat
variable seed equal 123456                # seed for thermostat
variable ufac equal 1.01325e-4         # pressure unit conversion, from atm to Gpa
variable up equal 0.02                  # the deformation magnitude 2.0e-2

# Read the initial sctructure
# box tilt large
read_data       333SiO2-1-UFF-c.data
Reading data file ...
  triclinic box = (0 0 0) to (14.6913 12.723 15.9631) with tilt (-7.3456 0 0)
WARNING: Triclinic box skew is large. LAMMPS will run inefficiently. (src/domain.cpp:220)
  2 by 2 by 2 MPI processor grid
  reading atoms ...
  243 atoms
Finding 1-2 1-3 1-4 neighbors ...
  special bond factors lj:    0        0        0       
  special bond factors coul:  0        0        0       
     0 = max # of 1-2 neighbors
     0 = max # of 1-3 neighbors
     0 = max # of 1-4 neighbors
     1 = max # of special neighbors
  special bonds CPU = 0.001 seconds
  read_data CPU = 0.006 seconds

# Energy minimization
print "*****Minimization starts.*****"
*****Minimization starts.*****
velocity        all create ${temp} ${seed} dist gaussian
velocity        all create 300 ${seed} dist gaussian
velocity        all create 300 123456 dist gaussian
minimize 1.0e-6 1.0e-6 100 1000
WARNING: No pairwise cutoff or binsize set. Atom sorting therefore disabled. (src/atom.cpp:2366)
WARNING: Communication cutoff is 0.0. No ghost atoms will be generated. Atoms may get lost. (src/comm_brick.cpp:210)
Per MPI rank memory allocation (min/avg/max) = 9.864 | 9.864 | 9.864 Mbytes
   Step          Temp          E_pair         E_mol          TotEng         Press     
         0   300            0              0              216.40681      3315.4065    
         1   300            0              0              216.40681      3315.4065    
Loop time of 5.20755e-05 on 64 procs for 1 steps with 243 atoms

84.5% CPU use with 8 MPI tasks x 8 OpenMP threads

Minimization stats:
  Stopping criterion = search direction is not downhill
  Energy initial, next-to-last, final = 
                     0                  0                  0
  Force two-norm initial, final = 0 0
  Force max component initial, final = 0 0
  Final line search alpha, max atom move = 0 0
  Iterations, force evaluations = 1 0

MPI task timing breakdown:
Section |  min time  |  avg time  |  max time  |%varavg| %total
---------------------------------------------------------------
Pair    | 0          | 0          | 0          |   0.0 |  0.00
Bond    | 1.11e-07   | 1.5837e-07 | 2.23e-07   |   0.0 |  0.30
Neigh   | 0          | 0          | 0          |   0.0 |  0.00
Comm    | 3.731e-06  | 4.2429e-06 | 4.651e-06  |   0.0 |  8.15
Output  | 0          | 0          | 0          |   0.0 |  0.00
Modify  | 0          | 0          | 0          |   0.0 |  0.00
Other   |            | 4.767e-05  |            |       | 91.55

Nlocal:         30.375 ave          33 max          24 min
Histogram: 1 0 0 0 0 0 4 0 0 3
Nghost:           2.25 ave           5 max           0 min
Histogram: 2 0 1 0 2 0 0 0 2 1
Neighs:              0 ave           0 max           0 min
Histogram: 8 0 0 0 0 0 0 0 0 0

Total # of neighbors = 0
Ave neighs/atom = 0
Ave special neighs/atom = 0
Neighbor list builds = 0
Dangerous builds = 0
min_style cg
# Save the optimized structure
write_data sio2_opt.data
System init for write_data ...
WARNING: Communication cutoff is 0.0. No ghost atoms will be generated. Atoms may get lost. (src/comm_brick.cpp:210)

# Equilibration
include ff.mod.lmp
# Setup forcefield, system
# undefine any fix ave/* fix before using reset_timestep
if "$(is_defined(fix,avgp))" then "unfix avgp"
reset_timestep 0

# Assign the force field
pair_style reaxff NULL safezone 3.0 mincap 150
# pair_coeff * * CHONSSi.ff O Si
# pair_coeff * * CHOSiNa.ff O Si
# pair_coeff * * SiOCHN_2018.ff O Si
# pair_coeff * * PDMSDecomp.ff Si O
pair_coeff * * CHOFe.ff O Si
WARNING: Van der Waals parameters for element SI indicate inner wall+shielding, but earlier atoms indicate a different van der Waals method. This may cause division-by-zero errors. Keeping van der Waals setting for earlier atoms. (src/REAXFF/reaxff_ffield.cpp:251)
WARNING: Van der Waals parameters for element AL indicate inner wall+shielding, but earlier atoms indicate a different van der Waals method. This may cause division-by-zero errors. Keeping van der Waals setting for earlier atoms. (src/REAXFF/reaxff_ffield.cpp:251)
WARNING: Changed valency_val to valency_boc for X (src/REAXFF/reaxff_ffield.cpp:296)

# charge method for reaxff
fix myqeq all qeq/reaxff 1 0.0 10.0 1.0e-6 reaxff maxiter 400
# Setup neighbor style
neighbor        2 bin
neigh_modify    every 10 delay 0 check no

# Setup output
fix avgp all ave/time  ${nevery} ${nrepeat} ${nfreq} c_thermo_press mode vector
fix avgp all ave/time  10 ${nrepeat} ${nfreq} c_thermo_press mode vector
fix avgp all ave/time  10 10 ${nfreq} c_thermo_press mode vector
fix avgp all ave/time  10 10 100 c_thermo_press mode vector
thermo		${nthermo}
thermo		100
thermo_style custom step temp pe press f_avgp[1] vol
thermo_modify norm no

# equilibration
fix 4 all nve
fix 5 all langevin ${temp} ${temp} ${tdamp} ${seed}
fix 5 all langevin 300 ${temp} ${tdamp} ${seed}
fix 5 all langevin 300 300 ${tdamp} ${seed}
fix 5 all langevin 300 300 50 ${seed}
fix 5 all langevin 300 300 50 123456

run ${nequil}
run 1000

CITE-CITE-CITE-CITE-CITE-CITE-CITE-CITE-CITE-CITE-CITE-CITE-CITE

Your simulation uses code contributions which should be cited:

- pair reaxff command: doi:10.1016/j.parco.2011.08.005

@Article{Aktulga12,
 author = {H. M. Aktulga and J. C. Fogarty and S. A. Pandit and A. Y. Grama},
 title = {Parallel Reactive Molecular Dynamics: {N}umerical Methods and Algorithmic Techniques},
 journal = {Parallel Computing},
 year =    2012,
 volume =  38,
 number =  {4--5},
 pages =   {245--259}
}

- fix qeq/reaxff command: doi:10.1016/j.parco.2011.08.005

@Article{Aktulga12,
 author = {H. M. Aktulga and J. C. Fogarty and S. A. Pandit and A. Y. Grama},
 title = {Parallel Reactive Molecular Dynamics: {N}umerical Methods and Algorithmic Techniques},
 journal = {Parallel Computing},
 year =    2012,
 volume =  38,
 pages =   {245--259}
}

CITE-CITE-CITE-CITE-CITE-CITE-CITE-CITE-CITE-CITE-CITE-CITE-CITE

Neighbor list info ...
  update: every = 10 steps, delay = 0 steps, check = no
  max neighbors/atom: 2000, page size: 100000
  master list distance cutoff = 12
  ghost atom cutoff = 12
  binsize = 6, bins = 4 3 3
  2 neighbor lists, perpetual/occasional/extra = 2 0 0
  (1) pair reaxff, perpetual
      attributes: half, newton off, ghost
      pair build: half/bin/newtoff/ghost
      stencil: full/ghost/bin/3d
      bin: standard
  (2) fix qeq/reaxff, perpetual, copy from (1)
      attributes: half, newton off
      pair build: copy
      stencil: none
      bin: none
Per MPI rank memory allocation (min/avg/max) = 114.4 | 114.5 | 114.6 Mbytes
   Step          Temp          PotEng         Press        f_avgp[1]        Volume    
         0   300           -36881.566      21554.577      0              2983.7813    
       100   237.46774     -36740.786      6324.9673      19724.601      2983.7813    
       200   276.0338      -36722.302      6490.0037      2113.8964      2983.7813    
       300   304.40547     -36716.761      16740.899      4465.803       2983.7813    
       400   291.21017     -36720.789      17524.006      13881.942      2983.7813    
       500   301.75813     -36706.612      9459.5955      12432.38       2983.7813    
       600   323.54653     -36720.944      14641.903     -3.1018735      2983.7813    
       700   310.83666     -36692.967      11424.344      15468.823      2983.7813    
       800   283.30214     -36682.689      11052.111      15012.679      2983.7813    
       900   328.16442     -36694.184      19438.911      9195.7555      2983.7813    
      1000   309.57385     -36699.136      18675.452      16491.941      2983.7813    
Loop time of 40.5425 on 64 procs for 1000 steps with 243 atoms

Performance: 1.066 ns/day, 22.524 hours/ns, 24.665 timesteps/s, 5.994 katom-step/s
112.4% CPU use with 8 MPI tasks x 8 OpenMP threads

MPI task timing breakdown:
Section |  min time  |  avg time  |  max time  |%varavg| %total
---------------------------------------------------------------
Pair    | 24.801     | 25.577     | 26.352     |   9.7 | 63.09
Bond    | 0.00028041 | 0.00031966 | 0.00034937 |   0.0 |  0.00
Neigh   | 1.9756     | 1.9985     | 2.0229     |   1.2 |  4.93
Comm    | 6.4423     | 7.2371     | 8.189      |  19.0 | 17.85
Output  | 0.00045359 | 0.00053706 | 0.00095743 |   0.0 |  0.00
Modify  | 4.2104     | 4.2455     | 4.2788     |   1.0 | 10.47
Other   |            | 1.483      |            |       |  3.66

Nlocal:         30.375 ave          33 max          28 min
Histogram: 2 0 1 0 1 0 2 0 0 2
Nghost:        2725.88 ave        2744 max        2703 min
Histogram: 1 0 1 1 0 1 2 0 1 1
Neighs:        17575.9 ave       19051 max       16253 min
Histogram: 2 1 0 1 0 1 1 0 0 2

Total # of neighbors = 140607
Ave neighs/atom = 578.62963
Ave special neighs/atom = 0
Neighbor list builds = 100
Dangerous builds not checked
# Save the optimized structure

# Save initial pressure, box size
variable pxx0 equal f_avgp[1]
variable pyy0 equal f_avgp[2]
variable pzz0 equal f_avgp[3]
variable pxy0 equal f_avgp[4]
variable pxz0 equal f_avgp[5]
variable pyz0 equal f_avgp[6]
# use tmp to save constants
variable tmp equal lx
variable lx0 equal ${tmp}
variable lx0 equal 14.6913
variable tmp equal ly
variable ly0 equal ${tmp}
variable ly0 equal 12.723
variable tmp equal lz
variable lz0 equal ${tmp}
variable lz0 equal 15.9631

# define the derivatives, w.r.t. strain tensor
# Constants uses $, variables use v_
variable d1 equal -(v_pxx1-${pxx0})/(v_delta/v_len0)*${ufac}
variable d1 equal -(v_pxx1-16491.9411780233)/(v_delta/v_len0)*${ufac}
variable d1 equal -(v_pxx1-16491.9411780233)/(v_delta/v_len0)*0.000101325
variable d2 equal -(v_pyy1-${pyy0})/(v_delta/v_len0)*${ufac}
variable d2 equal -(v_pyy1-15169.6409646663)/(v_delta/v_len0)*${ufac}
variable d2 equal -(v_pyy1-15169.6409646663)/(v_delta/v_len0)*0.000101325
variable d3 equal -(v_pzz1-${pzz0})/(v_delta/v_len0)*${ufac}
variable d3 equal -(v_pzz1-24458.7830745351)/(v_delta/v_len0)*${ufac}
variable d3 equal -(v_pzz1-24458.7830745351)/(v_delta/v_len0)*0.000101325
variable d4 equal -(v_pyz1-${pyz0})/(v_delta/v_len0)*${ufac}*0.5
variable d4 equal -(v_pyz1--929.792455234152)/(v_delta/v_len0)*${ufac}*0.5
variable d4 equal -(v_pyz1--929.792455234152)/(v_delta/v_len0)*0.000101325*0.5
variable d5 equal -(v_pxz1-${pxz0})/(v_delta/v_len0)*${ufac}*0.5
variable d5 equal -(v_pxz1--2861.99563646557)/(v_delta/v_len0)*${ufac}*0.5
variable d5 equal -(v_pxz1--2861.99563646557)/(v_delta/v_len0)*0.000101325*0.5
variable d6 equal -(v_pxy1-${pxy0})/(v_delta/v_len0)*${ufac}*0.5
variable d6 equal -(v_pxy1-435.170236268693)/(v_delta/v_len0)*${ufac}*0.5
variable d6 equal -(v_pxy1-435.170236268693)/(v_delta/v_len0)*0.000101325*0.5

# Write restart
write_restart equil.res
System init for write_restart ...

# dir: direction
# uxx Perturbation
variable dir equal 1
include displace.mod.lmp
# Find which reference length to use
if "${dir} == 1" then    "variable len0 equal ${lx0}"
variable len0 equal ${lx0}
variable len0 equal 14.6913
if "${dir} == 2" then    "variable len0 equal ${ly0}"
if "${dir} == 3" then    "variable len0 equal ${lz0}"
if "${dir} == 4" then    "variable len0 equal ${lz0}"
if "${dir} == 5" then    "variable len0 equal ${lz0}"
if "${dir} == 6" then    "variable len0 equal ${ly0}"

# Reset box and simulation parameters
clear
  using 8 OpenMP thread(s) per MPI task
# box tilt large
read_restart equil.res
Reading restart file ...
  restart file = 2 Aug 2023, LAMMPS = 2 Aug 2023
  restoring atom style full from restart
  triclinic box = (0 0 0) to (14.6913 12.723 15.9631) with tilt (-7.3456 0 0)
WARNING: Triclinic box skew is large. LAMMPS will run inefficiently. (src/domain.cpp:220)
  2 by 2 by 2 MPI processor grid
  pair style reaxff stores no restart info
  243 atoms
Finding 1-2 1-3 1-4 neighbors ...
  special bond factors lj:    0        0        0       
  special bond factors coul:  0        0        0       
     0 = max # of 1-2 neighbors
     0 = max # of 1-3 neighbors
     0 = max # of 1-4 neighbors
     1 = max # of special neighbors
  special bonds CPU = 0.000 seconds
  read_restart CPU = 0.004 seconds
include ff.mod.lmp
# Setup forcefield, system
# undefine any fix ave/* fix before using reset_timestep
if "$(is_defined(fix,avgp))" then "unfix avgp"
reset_timestep 0

# Assign the force field
pair_style reaxff NULL safezone 3.0 mincap 150
# pair_coeff * * CHONSSi.ff O Si
# pair_coeff * * CHOSiNa.ff O Si
# pair_coeff * * SiOCHN_2018.ff O Si
# pair_coeff * * PDMSDecomp.ff Si O
pair_coeff * * CHOFe.ff O Si
WARNING: Van der Waals parameters for element SI indicate inner wall+shielding, but earlier atoms indicate a different van der Waals method. This may cause division-by-zero errors. Keeping van der Waals setting for earlier atoms. (src/REAXFF/reaxff_ffield.cpp:251)
WARNING: Van der Waals parameters for element AL indicate inner wall+shielding, but earlier atoms indicate a different van der Waals method. This may cause division-by-zero errors. Keeping van der Waals setting for earlier atoms. (src/REAXFF/reaxff_ffield.cpp:251)
WARNING: Changed valency_val to valency_boc for X (src/REAXFF/reaxff_ffield.cpp:296)

# charge method for reaxff
fix myqeq all qeq/reaxff 1 0.0 10.0 1.0e-6 reaxff maxiter 400
# Setup neighbor style
neighbor        2 bin
neigh_modify    every 10 delay 0 check no

# Setup output
fix avgp all ave/time  ${nevery} ${nrepeat} ${nfreq} c_thermo_press mode vector
fix avgp all ave/time  10 ${nrepeat} ${nfreq} c_thermo_press mode vector
fix avgp all ave/time  10 10 ${nfreq} c_thermo_press mode vector
fix avgp all ave/time  10 10 100 c_thermo_press mode vector
thermo		${nthermo}
thermo		100
thermo_style custom step temp pe press f_avgp[1] vol
thermo_modify norm no

# equilibration
fix 4 all nve
fix 5 all langevin ${temp} ${temp} ${tdamp} ${seed}
fix 5 all langevin 300 ${temp} ${tdamp} ${seed}
fix 5 all langevin 300 300 ${tdamp} ${seed}
fix 5 all langevin 300 300 50 ${seed}
fix 5 all langevin 300 300 50 123456


# Negative deformation
variable delta equal -${up}*${len0}
variable delta equal -0.02*${len0}
variable delta equal -0.02*14.6913
variable deltaxy equal -${up}*xy
variable deltaxy equal -0.02*xy
variable deltaxz equal -${up}*xz
variable deltaxz equal -0.02*xz
variable deltayz equal -${up}*yz
variable deltayz equal -0.02*yz
if "${dir} == 1" then    "change_box all x delta 0 ${delta} xy delta ${deltaxy} xz delta ${deltaxz} remap units box"
change_box all x delta 0 ${delta} xy delta ${deltaxy} xz delta ${deltaxz} remap units box
change_box all x delta 0 -0.293826 xy delta ${deltaxy} xz delta ${deltaxz} remap units box
change_box all x delta 0 -0.293826 xy delta 0.146912 xz delta ${deltaxz} remap units box
change_box all x delta 0 -0.293826 xy delta 0.146912 xz delta -0 remap units box
Changing box ...
WARNING: Triclinic box skew is large. LAMMPS will run inefficiently. (src/domain.cpp:220)
  triclinic box = (0 0 0) to (14.397474 12.723 15.9631) with tilt (-7.3456 0 0)
WARNING: Triclinic box skew is large. LAMMPS will run inefficiently. (src/domain.cpp:220)
  triclinic box = (0 0 0) to (14.397474 12.723 15.9631) with tilt (-7.198688 0 0)
WARNING: Triclinic box skew is large. LAMMPS will run inefficiently. (src/domain.cpp:220)
  triclinic box = (0 0 0) to (14.397474 12.723 15.9631) with tilt (-7.198688 0 0)
if "${dir} == 2" then    "change_box all y delta 0 ${delta} yz delta ${deltayz} remap units box"
if "${dir} == 3" then    "change_box all z delta 0 ${delta} remap units box"
if "${dir} == 4" then    "change_box all yz delta ${delta} remap units box"
if "${dir} == 5" then    "change_box all xz delta ${delta} remap units box"
if "${dir} == 6" then    "change_box all xy delta ${delta} remap units box"

# Run MD for Negative deformation
# save trajectory
dump dump_neg${dir} all custom ${nthermo} dump/neg_deform${dir}.lammpstrj id type x y z
dump dump_neg1 all custom ${nthermo} dump/neg_deform${dir}.lammpstrj id type x y z
dump dump_neg1 all custom 100 dump/neg_deform${dir}.lammpstrj id type x y z
dump dump_neg1 all custom 100 dump/neg_deform1.lammpstrj id type x y z
run ${nrun}
run 3000
Neighbor list info ...
  update: every = 10 steps, delay = 0 steps, check = no
  max neighbors/atom: 2000, page size: 100000
  master list distance cutoff = 12
  ghost atom cutoff = 12
  binsize = 6, bins = 4 3 3
  2 neighbor lists, perpetual/occasional/extra = 2 0 0
  (1) pair reaxff, perpetual
      attributes: half, newton off, ghost
      pair build: half/bin/newtoff/ghost
      stencil: full/ghost/bin/3d
      bin: standard
  (2) fix qeq/reaxff, perpetual, copy from (1)
      attributes: half, newton off
      pair build: copy
      stencil: none
      bin: none
Per MPI rank memory allocation (min/avg/max) = 115.9 | 116.5 | 117.1 Mbytes
   Step          Temp          PotEng         Press        f_avgp[1]        Volume    
         0   309.57385     -36570.675      129039.5       0              2924.1057    
       100   321.73941     -36685.524      27960.29       44843.578      2924.1057    
       200   291.98044     -36682.509      21986.306      31966.332      2924.1057    
       300   308.21672     -36698.728      32166.08       33618.68       2924.1057    
       400   324.00827     -36701.512      28406.346      38560.239      2924.1057    
       500   288.04773     -36720.568      19023.175      36490.234      2924.1057    
       600   310.10791     -36732.052      22548.328      29989.532      2924.1057    
       700   280.50324     -36718.638      23758.902      32758.157      2924.1057    
       800   312.51287     -36710.069      23970.276      29476.196      2924.1057    
       900   297.49749     -36709.243      28565.417      34125.682      2924.1057    
      1000   323.96751     -36689.132      21602.032      32745.196      2924.1057    
      1100   301.36788     -36703.165      22589.726      35218.564      2924.1057    
      1200   290.15713     -36700.719      33234.69       34119.327      2924.1057    
      1300   323.36146     -36719.912      24058.024      34165.852      2924.1057    
      1400   302.10317     -36707.722      29076.759      34424.065      2924.1057    
      1500   292.98005     -36726.474      22179.176      30932.442      2924.1057    
      1600   310.34303     -36701.655      19618.569      35578.956      2924.1057    
      1700   331.80692     -36727.649      26114.755      28017.347      2924.1057    
      1800   281.52929     -36729.214      25542.391      30575.581      2924.1057    
      1900   290.21412     -36701.833      23471.516      37733.087      2924.1057    
      2000   326.65478     -36710.945      28816.875      36917.426      2924.1057    
      2100   289.85122     -36704.801      27178.458      37869.566      2924.1057    
      2200   276.8193      -36707.107      26771.252      35291.347      2924.1057    
      2300   279.58061     -36706.381      30226.995      35992.458      2924.1057    
      2400   308.97216     -36711.549      26716.045      32823.483      2924.1057    
      2500   322.03747     -36714.452      20971.587      32271.631      2924.1057    
      2600   292.73958     -36714.449      18745.578      37203.569      2924.1057    
      2700   279.43831     -36720.465      22703.584      32156.998      2924.1057    
      2800   302.33003     -36698.516      29212.766      34839.495      2924.1057    
      2900   294.38919     -36704.281      24012.679      32615.888      2924.1057    
      3000   295.69069     -36696.014      18110.346      32704.079      2924.1057    
Loop time of 123.848 on 64 procs for 3000 steps with 243 atoms

Performance: 1.046 ns/day, 22.935 hours/ns, 24.223 timesteps/s, 5.886 katom-step/s
112.2% CPU use with 8 MPI tasks x 8 OpenMP threads

MPI task timing breakdown:
Section |  min time  |  avg time  |  max time  |%varavg| %total
---------------------------------------------------------------
Pair    | 77.019     | 78.527     | 81.433     |  18.6 | 63.41
Bond    | 0.00083088 | 0.00093123 | 0.0010256  |   0.0 |  0.00
Neigh   | 6.0077     | 6.0747     | 6.171      |   2.3 |  4.90
Comm    | 19.128     | 22.098     | 23.752     |  34.1 | 17.84
Output  | 0.0053414  | 0.011686   | 0.018723   |   5.8 |  0.01
Modify  | 13.195     | 13.339     | 13.444     |   2.2 | 10.77
Other   |            | 3.797      |            |       |  3.07

Nlocal:         30.375 ave          35 max          26 min
Histogram: 1 0 1 2 0 1 1 1 0 1
Nghost:        2733.62 ave        2764 max        2713 min
Histogram: 2 1 0 2 1 0 0 0 1 1
Neighs:        17904.5 ave       20577 max       15374 min
Histogram: 1 0 1 2 0 1 1 1 0 1

Total # of neighbors = 143236
Ave neighs/atom = 589.44856
Ave special neighs/atom = 0
Neighbor list builds = 300
Dangerous builds not checked
undump dump_neg${dir}
undump dump_neg1

# Run equilibration
include ff.mod.lmp
# Setup forcefield, system
# undefine any fix ave/* fix before using reset_timestep
if "$(is_defined(fix,avgp))" then "unfix avgp"
unfix avgp
reset_timestep 0

# Assign the force field
pair_style reaxff NULL safezone 3.0 mincap 150
# pair_coeff * * CHONSSi.ff O Si
# pair_coeff * * CHOSiNa.ff O Si
# pair_coeff * * SiOCHN_2018.ff O Si
# pair_coeff * * PDMSDecomp.ff Si O
pair_coeff * * CHOFe.ff O Si
WARNING: Van der Waals parameters for element SI indicate inner wall+shielding, but earlier atoms indicate a different van der Waals method. This may cause division-by-zero errors. Keeping van der Waals setting for earlier atoms. (src/REAXFF/reaxff_ffield.cpp:251)
WARNING: Van der Waals parameters for element AL indicate inner wall+shielding, but earlier atoms indicate a different van der Waals method. This may cause division-by-zero errors. Keeping van der Waals setting for earlier atoms. (src/REAXFF/reaxff_ffield.cpp:251)
WARNING: Changed valency_val to valency_boc for X (src/REAXFF/reaxff_ffield.cpp:296)

# charge method for reaxff
fix myqeq all qeq/reaxff 1 0.0 10.0 1.0e-6 reaxff maxiter 400
# Setup neighbor style
neighbor        2 bin
neigh_modify    every 10 delay 0 check no

# Setup output
fix avgp all ave/time  ${nevery} ${nrepeat} ${nfreq} c_thermo_press mode vector
fix avgp all ave/time  10 ${nrepeat} ${nfreq} c_thermo_press mode vector
fix avgp all ave/time  10 10 ${nfreq} c_thermo_press mode vector
fix avgp all ave/time  10 10 100 c_thermo_press mode vector
thermo		${nthermo}
thermo		100
thermo_style custom step temp pe press f_avgp[1] vol
WARNING: New thermo_style command, previous thermo_modify settings will be lost (src/output.cpp:903)
thermo_modify norm no

# equilibration
fix 4 all nve
fix 5 all langevin ${temp} ${temp} ${tdamp} ${seed}
fix 5 all langevin 300 ${temp} ${tdamp} ${seed}
fix 5 all langevin 300 300 ${tdamp} ${seed}
fix 5 all langevin 300 300 50 ${seed}
fix 5 all langevin 300 300 50 123456

run ${nequil}
run 1000
Neighbor list info ...
  update: every = 10 steps, delay = 0 steps, check = no
  max neighbors/atom: 2000, page size: 100000
  master list distance cutoff = 12
  ghost atom cutoff = 12
  binsize = 6, bins = 4 3 3
  2 neighbor lists, perpetual/occasional/extra = 2 0 0
  (1) pair reaxff, perpetual
      attributes: half, newton off, ghost
      pair build: half/bin/newtoff/ghost
      stencil: full/ghost/bin/3d
      bin: standard
  (2) fix qeq/reaxff, perpetual, copy from (1)
      attributes: half, newton off
      pair build: copy
      stencil: none
      bin: none
Per MPI rank memory allocation (min/avg/max) = 115.9 | 116.5 | 117 Mbytes
   Step          Temp          PotEng         Press        f_avgp[1]        Volume    
         0   295.69069     -36696.014      18110.61       0              2924.1057    
       100   308.93066     -36713.412      31606.162      33364.004      2924.1057    
       200   296.93556     -36697.427      18178.144      30435.328      2924.1057    
       300   321.62295     -36718.885      23571.89       34675.456      2924.1057    
       400   307.2981      -36700.729      31050.163      36419.105      2924.1057    
       500   286.3366      -36688.093      23870.564      32866.532      2924.1057    
       600   317.49711     -36708.581      15578.441      25711.945      2924.1057    
       700   313.70573     -36703.143      31415.823      33596.101      2924.1057    
       800   302.76405     -36689.218      23424.921      30110.139      2924.1057    
       900   315.35661     -36685.855      31430.867      32087.762      2924.1057    
      1000   336.76016     -36689.613      29018.678      34426.727      2924.1057    
Loop time of 41.289 on 64 procs for 1000 steps with 243 atoms

Performance: 1.046 ns/day, 22.938 hours/ns, 24.220 timesteps/s, 5.885 katom-step/s
111.9% CPU use with 8 MPI tasks x 8 OpenMP threads

MPI task timing breakdown:
Section |  min time  |  avg time  |  max time  |%varavg| %total
---------------------------------------------------------------
Pair    | 25.452     | 26.346     | 27.469     |  13.5 | 63.81
Bond    | 0.00028133 | 0.00031017 | 0.00034092 |   0.0 |  0.00
Neigh   | 2.0444     | 2.0855     | 2.1249     |   1.6 |  5.05
Comm    | 6.055      | 7.1825     | 8.2284     |  27.7 | 17.40
Output  | 0.00039904 | 0.00045306 | 0.00063982 |   0.0 |  0.00
Modify  | 4.3715     | 4.4157     | 4.4724     |   1.7 | 10.69
Other   |            | 1.258      |            |       |  3.05

Nlocal:         30.375 ave          33 max          26 min
Histogram: 1 0 0 0 1 0 0 5 0 1
Nghost:        2751.88 ave        2779 max        2733 min
Histogram: 2 0 1 2 0 1 1 0 0 1
Neighs:        17894.2 ave       19382 max       15381 min
Histogram: 1 0 0 0 1 0 0 5 0 1

Total # of neighbors = 143154
Ave neighs/atom = 589.11111
Ave special neighs/atom = 0
Neighbor list builds = 100
Dangerous builds not checked

# Obtain new stress tensor Negative deformation
variable pxx1 equal f_avgp[1]
variable pyy1 equal f_avgp[2]
variable pzz1 equal f_avgp[3]
variable pxy1 equal f_avgp[4]
variable pxz1 equal f_avgp[5]
variable pyz1 equal f_avgp[6]

# Compute elastic constant from pressure
# d1 = -[pxx1-pxx0]/[(]v_delta/v_len0] defined in input script
variable C1neg equal ${d1}
variable C1neg equal 90.8621105662191
variable C2neg equal ${d2}
variable C2neg equal 49.5231753523599
variable C3neg equal ${d3}
variable C3neg equal 28.010464767454
variable C4neg equal ${d4}
variable C4neg equal 14.8687329381502
variable C5neg equal ${d5}
variable C5neg equal -11.9115720409585
variable C6neg equal ${d6}
variable C6neg equal 10.5486084762006

# Reset box and simulation parameters
clear
  using 8 OpenMP thread(s) per MPI task
# box tilt large
read_restart equil.res
Reading restart file ...
  restart file = 2 Aug 2023, LAMMPS = 2 Aug 2023
  restoring atom style full from restart
  triclinic box = (0 0 0) to (14.6913 12.723 15.9631) with tilt (-7.3456 0 0)
WARNING: Triclinic box skew is large. LAMMPS will run inefficiently. (src/domain.cpp:220)
  2 by 2 by 2 MPI processor grid
  pair style reaxff stores no restart info
  243 atoms
Finding 1-2 1-3 1-4 neighbors ...
  special bond factors lj:    0        0        0       
  special bond factors coul:  0        0        0       
     0 = max # of 1-2 neighbors
     0 = max # of 1-3 neighbors
     0 = max # of 1-4 neighbors
     1 = max # of special neighbors
  special bonds CPU = 0.000 seconds
  read_restart CPU = 0.003 seconds
include ff.mod.lmp
# Setup forcefield, system
# undefine any fix ave/* fix before using reset_timestep
if "$(is_defined(fix,avgp))" then "unfix avgp"
reset_timestep 0

# Assign the force field
pair_style reaxff NULL safezone 3.0 mincap 150
# pair_coeff * * CHONSSi.ff O Si
# pair_coeff * * CHOSiNa.ff O Si
# pair_coeff * * SiOCHN_2018.ff O Si
# pair_coeff * * PDMSDecomp.ff Si O
pair_coeff * * CHOFe.ff O Si
WARNING: Van der Waals parameters for element SI indicate inner wall+shielding, but earlier atoms indicate a different van der Waals method. This may cause division-by-zero errors. Keeping van der Waals setting for earlier atoms. (src/REAXFF/reaxff_ffield.cpp:251)
WARNING: Van der Waals parameters for element AL indicate inner wall+shielding, but earlier atoms indicate a different van der Waals method. This may cause division-by-zero errors. Keeping van der Waals setting for earlier atoms. (src/REAXFF/reaxff_ffield.cpp:251)
WARNING: Changed valency_val to valency_boc for X (src/REAXFF/reaxff_ffield.cpp:296)

# charge method for reaxff
fix myqeq all qeq/reaxff 1 0.0 10.0 1.0e-6 reaxff maxiter 400
# Setup neighbor style
neighbor        2 bin
neigh_modify    every 10 delay 0 check no

# Setup output
fix avgp all ave/time  ${nevery} ${nrepeat} ${nfreq} c_thermo_press mode vector
fix avgp all ave/time  10 ${nrepeat} ${nfreq} c_thermo_press mode vector
fix avgp all ave/time  10 10 ${nfreq} c_thermo_press mode vector
fix avgp all ave/time  10 10 100 c_thermo_press mode vector
thermo		${nthermo}
thermo		100
thermo_style custom step temp pe press f_avgp[1] vol
thermo_modify norm no

# equilibration
fix 4 all nve
fix 5 all langevin ${temp} ${temp} ${tdamp} ${seed}
fix 5 all langevin 300 ${temp} ${tdamp} ${seed}
fix 5 all langevin 300 300 ${tdamp} ${seed}
fix 5 all langevin 300 300 50 ${seed}
fix 5 all langevin 300 300 50 123456


# Positive deformation
variable delta equal ${up}*${len0}
variable delta equal 0.02*${len0}
variable delta equal 0.02*14.6913
variable deltaxy equal ${up}*xy
variable deltaxy equal 0.02*xy
variable deltaxz equal ${up}*xz
variable deltaxz equal 0.02*xz
variable deltayz equal ${up}*yz
variable deltayz equal 0.02*yz
if "${dir} == 1" then    "change_box all x delta 0 ${delta} xy delta ${deltaxy} xz delta ${deltaxz} remap units box"
change_box all x delta 0 ${delta} xy delta ${deltaxy} xz delta ${deltaxz} remap units box
change_box all x delta 0 0.293826 xy delta ${deltaxy} xz delta ${deltaxz} remap units box
change_box all x delta 0 0.293826 xy delta -0.146912 xz delta ${deltaxz} remap units box
change_box all x delta 0 0.293826 xy delta -0.146912 xz delta 0 remap units box
Changing box ...
WARNING: Triclinic box skew is large. LAMMPS will run inefficiently. (src/domain.cpp:220)
  triclinic box = (0 0 0) to (14.985126 12.723 15.9631) with tilt (-7.3456 0 0)
WARNING: Triclinic box skew is large. LAMMPS will run inefficiently. (src/domain.cpp:220)
  triclinic box = (0 0 0) to (14.985126 12.723 15.9631) with tilt (-7.492512 0 0)
WARNING: Triclinic box skew is large. LAMMPS will run inefficiently. (src/domain.cpp:220)
  triclinic box = (0 0 0) to (14.985126 12.723 15.9631) with tilt (-7.492512 0 0)
if "${dir} == 2" then    "change_box all y delta 0 ${delta} yz delta ${deltayz} remap units box"
if "${dir} == 3" then    "change_box all z delta 0 ${delta} remap units box"
if "${dir} == 4" then    "change_box all yz delta ${delta} remap units box"
if "${dir} == 5" then    "change_box all xz delta ${delta} remap units box"
if "${dir} == 6" then    "change_box all xy delta ${delta} remap units box"

# Run positive deformation MD
# save trajectory
dump dump_pos${dir} all custom ${nthermo} dump/pos_deform${dir}.lammpstrj id type x y z
dump dump_pos1 all custom ${nthermo} dump/pos_deform${dir}.lammpstrj id type x y z
dump dump_pos1 all custom 100 dump/pos_deform${dir}.lammpstrj id type x y z
dump dump_pos1 all custom 100 dump/pos_deform1.lammpstrj id type x y z
run ${nrun}
run 3000
Neighbor list info ...
  update: every = 10 steps, delay = 0 steps, check = no
  max neighbors/atom: 2000, page size: 100000
  master list distance cutoff = 12
  ghost atom cutoff = 12
  binsize = 6, bins = 4 3 3
  2 neighbor lists, perpetual/occasional/extra = 2 0 0
  (1) pair reaxff, perpetual
      attributes: half, newton off, ghost
      pair build: half/bin/newtoff/ghost
      stencil: full/ghost/bin/3d
      bin: standard
  (2) fix qeq/reaxff, perpetual, copy from (1)
      attributes: half, newton off
      pair build: copy
      stencil: none
      bin: none
Per MPI rank memory allocation (min/avg/max) = 112.7 | 114 | 115.1 Mbytes
   Step          Temp          PotEng         Press        f_avgp[1]        Volume    
         0   309.57385     -36649.363      6791.7197      0              3043.4569    
       100   294.52622     -36693.951      5410.6432     -15189.801      3043.4569    
       200   317.87747     -36709.166      4858.564      -8626.1412      3043.4569    
       300   305.4026      -36678.58      -411.26538     -10928.25       3043.4569    
       400   301.53556     -36684.257      5241.8497     -9374.4372      3043.4569    
       500   310.90494     -36710.043      4285.0688     -5517.9256      3043.4569    
       600   307.6316      -36702.209      2062.8671     -10882.222      3043.4569    
       700   295.76855     -36705.781     -4421.9783     -14203.827      3043.4569    
       800   292.87455     -36702.982     -1385.3161     -13334.551      3043.4569    
       900   279.93065     -36721.979      7235.7005     -8160.4278      3043.4569    
      1000   294.08277     -36721.785      1214.3078     -10838.172      3043.4569    
      1100   269.36551     -36706.269      538.8546      -12586.907      3043.4569    
      1200   310.1079      -36705.317      3069.3958     -9879.5889      3043.4569    
      1300   273.0933      -36701.42       5860.9934     -10764.256      3043.4569    
      1400   286.58836     -36688.546     -1417.518      -12656.345      3043.4569    
      1500   310.28151     -36707.846      5647.0081     -9629.8576      3043.4569    
      1600   295.66589     -36704.754      532.87222     -9675.9293      3043.4569    
      1700   281.95081     -36693.247      2434.5864     -8753.2273      3043.4569    
      1800   307.59086     -36686.016      6041.2503     -9499.3199      3043.4569    
      1900   321.28938     -36699.303      4687.2095     -14179.641      3043.4569    
      2000   277.2433      -36709.522      5729.4601     -11358.658      3043.4569    
      2100   313.49394     -36711.242      1526.9367     -7858.1718      3043.4569    
      2200   308.27448     -36703.175      5336.1448     -8807.8718      3043.4569    
      2300   287.57806     -36703.442     -570.13428     -12056.301      3043.4569    
      2400   292.00108     -36707.891      8984.3347     -9111.8011      3043.4569    
      2500   302.12021     -36697.659      5828.2017     -1555.7731      3043.4569    
      2600   318.29235     -36712.17       1765.8511     -13030.882      3043.4569    
      2700   291.70112     -36725.045     -4125.5842     -15777.555      3043.4569    
      2800   276.02701     -36720.284      3154.2327     -11354.221      3043.4569    
      2900   272.13392     -36718.989     -1055.648      -8651.0876      3043.4569    
      3000   279.92432     -36720.059     -1502.9304     -13176.99       3043.4569    
Loop time of 119.201 on 64 procs for 3000 steps with 243 atoms

Performance: 1.087 ns/day, 22.074 hours/ns, 25.168 timesteps/s, 6.116 katom-step/s
112.5% CPU use with 8 MPI tasks x 8 OpenMP threads

MPI task timing breakdown:
Section |  min time  |  avg time  |  max time  |%varavg| %total
---------------------------------------------------------------
Pair    | 73.081     | 75.183     | 78.4       |  19.3 | 63.07
Bond    | 0.00078173 | 0.00089302 | 0.0010322  |   0.0 |  0.00
Neigh   | 6.0158     | 6.1227     | 6.2236     |   2.6 |  5.14
Comm    | 17.342     | 20.695     | 22.979     |  36.7 | 17.36
Output  | 0.0048155  | 0.0075583  | 0.010504   |   2.9 |  0.01
Modify  | 13.131     | 13.193     | 13.288     |   1.6 | 11.07
Other   |            | 3.999      |            |       |  3.35

Nlocal:         30.375 ave          35 max          26 min
Histogram: 1 1 0 2 0 1 0 2 0 1
Nghost:        2705.12 ave        2726 max        2681 min
Histogram: 2 0 1 1 0 0 0 0 2 2
Neighs:        17265.5 ave       19812 max       14847 min
Histogram: 1 1 0 2 0 1 0 2 0 1

Total # of neighbors = 138124
Ave neighs/atom = 568.41152
Ave special neighs/atom = 0
Neighbor list builds = 300
Dangerous builds not checked
undump dump_pos${dir}
undump dump_pos1

# Run equilibration
include ff.mod.lmp
# Setup forcefield, system
# undefine any fix ave/* fix before using reset_timestep
if "$(is_defined(fix,avgp))" then "unfix avgp"
unfix avgp
reset_timestep 0

# Assign the force field
pair_style reaxff NULL safezone 3.0 mincap 150
# pair_coeff * * CHONSSi.ff O Si
# pair_coeff * * CHOSiNa.ff O Si
# pair_coeff * * SiOCHN_2018.ff O Si
# pair_coeff * * PDMSDecomp.ff Si O
pair_coeff * * CHOFe.ff O Si
WARNING: Van der Waals parameters for element SI indicate inner wall+shielding, but earlier atoms indicate a different van der Waals method. This may cause division-by-zero errors. Keeping van der Waals setting for earlier atoms. (src/REAXFF/reaxff_ffield.cpp:251)
WARNING: Van der Waals parameters for element AL indicate inner wall+shielding, but earlier atoms indicate a different van der Waals method. This may cause division-by-zero errors. Keeping van der Waals setting for earlier atoms. (src/REAXFF/reaxff_ffield.cpp:251)
WARNING: Changed valency_val to valency_boc for X (src/REAXFF/reaxff_ffield.cpp:296)

# charge method for reaxff
fix myqeq all qeq/reaxff 1 0.0 10.0 1.0e-6 reaxff maxiter 400
# Setup neighbor style
neighbor        2 bin
neigh_modify    every 10 delay 0 check no

# Setup output
fix avgp all ave/time  ${nevery} ${nrepeat} ${nfreq} c_thermo_press mode vector
fix avgp all ave/time  10 ${nrepeat} ${nfreq} c_thermo_press mode vector
fix avgp all ave/time  10 10 ${nfreq} c_thermo_press mode vector
fix avgp all ave/time  10 10 100 c_thermo_press mode vector
thermo		${nthermo}
thermo		100
thermo_style custom step temp pe press f_avgp[1] vol
WARNING: New thermo_style command, previous thermo_modify settings will be lost (src/output.cpp:903)
thermo_modify norm no

# equilibration
fix 4 all nve
fix 5 all langevin ${temp} ${temp} ${tdamp} ${seed}
fix 5 all langevin 300 ${temp} ${tdamp} ${seed}
fix 5 all langevin 300 300 ${tdamp} ${seed}
fix 5 all langevin 300 300 50 ${seed}
fix 5 all langevin 300 300 50 123456

run ${nequil}
run 1000
Neighbor list info ...
  update: every = 10 steps, delay = 0 steps, check = no
  max neighbors/atom: 2000, page size: 100000
  master list distance cutoff = 12
  ghost atom cutoff = 12
  binsize = 6, bins = 4 3 3
  2 neighbor lists, perpetual/occasional/extra = 2 0 0
  (1) pair reaxff, perpetual
      attributes: half, newton off, ghost
      pair build: half/bin/newtoff/ghost
      stencil: full/ghost/bin/3d
      bin: standard
  (2) fix qeq/reaxff, perpetual, copy from (1)
      attributes: half, newton off
      pair build: copy
      stencil: none
      bin: none
Per MPI rank memory allocation (min/avg/max) = 113.4 | 114.1 | 115.1 Mbytes
   Step          Temp          PotEng         Press        f_avgp[1]        Volume    
         0   279.92432     -36720.059     -1503.3915      0              3043.4569    
       100   295.88555     -36702.538      2596.7422     -9275.3645      3043.4569    
       200   311.61725     -36711.811      8839.852      -5337.9194      3043.4569    
       300   308.16452     -36715.054      4561.2274     -5471.6511      3043.4569    
       400   312.9715      -36716.361      7768.9628     -6361.0931      3043.4569    
       500   306.44187     -36714.261      6804.5704     -9840.5804      3043.4569    
       600   289.88867     -36700.456      1431.8141     -8168.6644      3043.4569    
       700   299.23468     -36694.256      1421.9858     -8679.0001      3043.4569    
       800   304.70544     -36700.289      4625.837      -9446.5397      3043.4569    
       900   336.781       -36712.97      -565.98091     -7488.6755      3043.4569    
      1000   316.66826     -36692.9        3939.1922     -8753.4816      3043.4569    
Loop time of 39.6723 on 64 procs for 1000 steps with 243 atoms

Performance: 1.089 ns/day, 22.040 hours/ns, 25.206 timesteps/s, 6.125 katom-step/s
112.8% CPU use with 8 MPI tasks x 8 OpenMP threads

MPI task timing breakdown:
Section |  min time  |  avg time  |  max time  |%varavg| %total
---------------------------------------------------------------
Pair    | 24.105     | 25.113     | 26.272     |  14.1 | 63.30
Bond    | 0.00025318 | 0.00029923 | 0.00034897 |   0.0 |  0.00
Neigh   | 1.9284     | 1.983      | 2.0577     |   3.4 |  5.00
Comm    | 5.6507     | 6.9157     | 7.8855     |  26.8 | 17.43
Output  | 0.00040481 | 0.00044779 | 0.00061104 |   0.0 |  0.00
Modify  | 4.1549     | 4.2894     | 4.4027     |   3.3 | 10.81
Other   |            | 1.371      |            |       |  3.45

Nlocal:         30.375 ave          33 max          27 min
Histogram: 1 0 0 1 0 2 2 0 1 1
Nghost:        2700.12 ave        2718 max        2677 min
Histogram: 1 0 1 1 0 1 1 1 0 2
Neighs:        17280.1 ave       18767 max       15397 min
Histogram: 1 0 0 1 1 1 2 0 1 1

Total # of neighbors = 138241
Ave neighs/atom = 568.893
Ave special neighs/atom = 0
Neighbor list builds = 100
Dangerous builds not checked

# Obtain new stress tensor
variable pxx1 equal f_avgp[1]
variable pyy1 equal f_avgp[2]
variable pzz1 equal f_avgp[3]
variable pxy1 equal f_avgp[4]
variable pxz1 equal f_avgp[5]
variable pyz1 equal f_avgp[6]

# Compute elastic constant from pressure tensor
# d1 = -[pxx1-pxx0]/[(]v_delta/v_len0] defined in input script
variable C1pos equal ${d1}
variable C1pos equal 127.899623011593
variable C2pos equal ${d2}
variable C2pos equal 41.3228674813966
variable C3pos equal ${d3}
variable C3pos equal 54.5355908119445
variable C4pos equal ${d4}
variable C4pos equal -2.03545523560158
variable C5pos equal ${d5}
variable C5pos equal -9.63345013389029
variable C6pos equal ${d6}
variable C6pos equal 3.49677954541008

# Combine positive and negative
variable C1${dir} equal 0.5*(${C1neg}+${C1pos})
variable C11 equal 0.5*(${C1neg}+${C1pos})
variable C11 equal 0.5*(90.8621105662191+${C1pos})
variable C11 equal 0.5*(90.8621105662191+127.899623011593)
variable C2${dir} equal 0.5*(${C2neg}+${C2pos})
variable C21 equal 0.5*(${C2neg}+${C2pos})
variable C21 equal 0.5*(49.5231753523599+${C2pos})
variable C21 equal 0.5*(49.5231753523599+41.3228674813966)
variable C3${dir} equal 0.5*(${C3neg}+${C3pos})
variable C31 equal 0.5*(${C3neg}+${C3pos})
variable C31 equal 0.5*(28.010464767454+${C3pos})
variable C31 equal 0.5*(28.010464767454+54.5355908119445)
variable C4${dir} equal 0.5*(${C4neg}+${C4pos})
variable C41 equal 0.5*(${C4neg}+${C4pos})
variable C41 equal 0.5*(14.8687329381502+${C4pos})
variable C41 equal 0.5*(14.8687329381502+-2.03545523560158)
variable C5${dir} equal 0.5*(${C5neg}+${C5pos})
variable C51 equal 0.5*(${C5neg}+${C5pos})
variable C51 equal 0.5*(-11.9115720409585+${C5pos})
variable C51 equal 0.5*(-11.9115720409585+-9.63345013389029)
variable C6${dir} equal 0.5*(${C6neg}+${C6pos})
variable C61 equal 0.5*(${C6neg}+${C6pos})
variable C61 equal 0.5*(10.5486084762006+${C6pos})
variable C61 equal 0.5*(10.5486084762006+3.49677954541008)

# Delete dir to make sure it is not reused
variable dir delete
# uyy Perturbation
variable dir equal 2
include displace.mod.lmp
# Find which reference length to use
if "${dir} == 1" then    "variable len0 equal ${lx0}"
if "${dir} == 2" then    "variable len0 equal ${ly0}"
variable len0 equal ${ly0}
variable len0 equal 12.723
if "${dir} == 3" then    "variable len0 equal ${lz0}"
if "${dir} == 4" then    "variable len0 equal ${lz0}"
if "${dir} == 5" then    "variable len0 equal ${lz0}"
if "${dir} == 6" then    "variable len0 equal ${ly0}"

# Reset box and simulation parameters
clear
  using 8 OpenMP thread(s) per MPI task
# box tilt large
read_restart equil.res
Reading restart file ...
  restart file = 2 Aug 2023, LAMMPS = 2 Aug 2023
  restoring atom style full from restart
  triclinic box = (0 0 0) to (14.6913 12.723 15.9631) with tilt (-7.3456 0 0)
WARNING: Triclinic box skew is large. LAMMPS will run inefficiently. (src/domain.cpp:220)
  2 by 2 by 2 MPI processor grid
  pair style reaxff stores no restart info
  243 atoms
Finding 1-2 1-3 1-4 neighbors ...
  special bond factors lj:    0        0        0       
  special bond factors coul:  0        0        0       
     0 = max # of 1-2 neighbors
     0 = max # of 1-3 neighbors
     0 = max # of 1-4 neighbors
     1 = max # of special neighbors
  special bonds CPU = 0.000 seconds
  read_restart CPU = 0.003 seconds
include ff.mod.lmp
# Setup forcefield, system
# undefine any fix ave/* fix before using reset_timestep
if "$(is_defined(fix,avgp))" then "unfix avgp"
reset_timestep 0

# Assign the force field
pair_style reaxff NULL safezone 3.0 mincap 150
# pair_coeff * * CHONSSi.ff O Si
# pair_coeff * * CHOSiNa.ff O Si
# pair_coeff * * SiOCHN_2018.ff O Si
# pair_coeff * * PDMSDecomp.ff Si O
pair_coeff * * CHOFe.ff O Si
WARNING: Van der Waals parameters for element SI indicate inner wall+shielding, but earlier atoms indicate a different van der Waals method. This may cause division-by-zero errors. Keeping van der Waals setting for earlier atoms. (src/REAXFF/reaxff_ffield.cpp:251)
WARNING: Van der Waals parameters for element AL indicate inner wall+shielding, but earlier atoms indicate a different van der Waals method. This may cause division-by-zero errors. Keeping van der Waals setting for earlier atoms. (src/REAXFF/reaxff_ffield.cpp:251)
WARNING: Changed valency_val to valency_boc for X (src/REAXFF/reaxff_ffield.cpp:296)

# charge method for reaxff
fix myqeq all qeq/reaxff 1 0.0 10.0 1.0e-6 reaxff maxiter 400
# Setup neighbor style
neighbor        2 bin
neigh_modify    every 10 delay 0 check no

# Setup output
fix avgp all ave/time  ${nevery} ${nrepeat} ${nfreq} c_thermo_press mode vector
fix avgp all ave/time  10 ${nrepeat} ${nfreq} c_thermo_press mode vector
fix avgp all ave/time  10 10 ${nfreq} c_thermo_press mode vector
fix avgp all ave/time  10 10 100 c_thermo_press mode vector
thermo		${nthermo}
thermo		100
thermo_style custom step temp pe press f_avgp[1] vol
thermo_modify norm no

# equilibration
fix 4 all nve
fix 5 all langevin ${temp} ${temp} ${tdamp} ${seed}
fix 5 all langevin 300 ${temp} ${tdamp} ${seed}
fix 5 all langevin 300 300 ${tdamp} ${seed}
fix 5 all langevin 300 300 50 ${seed}
fix 5 all langevin 300 300 50 123456


# Negative deformation
variable delta equal -${up}*${len0}
variable delta equal -0.02*${len0}
variable delta equal -0.02*12.723
variable deltaxy equal -${up}*xy
variable deltaxy equal -0.02*xy
variable deltaxz equal -${up}*xz
variable deltaxz equal -0.02*xz
variable deltayz equal -${up}*yz
variable deltayz equal -0.02*yz
if "${dir} == 1" then    "change_box all x delta 0 ${delta} xy delta ${deltaxy} xz delta ${deltaxz} remap units box"
if "${dir} == 2" then    "change_box all y delta 0 ${delta} yz delta ${deltayz} remap units box"
change_box all y delta 0 ${delta} yz delta ${deltayz} remap units box
change_box all y delta 0 -0.25446 yz delta ${deltayz} remap units box
change_box all y delta 0 -0.25446 yz delta -0 remap units box
Changing box ...
WARNING: Triclinic box skew is large. LAMMPS will run inefficiently. (src/domain.cpp:220)
  triclinic box = (0 0 0) to (14.6913 12.46854 15.9631) with tilt (-7.3456 0 0)
WARNING: Triclinic box skew is large. LAMMPS will run inefficiently. (src/domain.cpp:220)
  triclinic box = (0 0 0) to (14.6913 12.46854 15.9631) with tilt (-7.3456 0 0)
if "${dir} == 3" then    "change_box all z delta 0 ${delta} remap units box"
if "${dir} == 4" then    "change_box all yz delta ${delta} remap units box"
if "${dir} == 5" then    "change_box all xz delta ${delta} remap units box"
if "${dir} == 6" then    "change_box all xy delta ${delta} remap units box"

# Run MD for Negative deformation
# save trajectory
dump dump_neg${dir} all custom ${nthermo} dump/neg_deform${dir}.lammpstrj id type x y z
dump dump_neg2 all custom ${nthermo} dump/neg_deform${dir}.lammpstrj id type x y z
dump dump_neg2 all custom 100 dump/neg_deform${dir}.lammpstrj id type x y z
dump dump_neg2 all custom 100 dump/neg_deform2.lammpstrj id type x y z
run ${nrun}
run 3000
Neighbor list info ...
  update: every = 10 steps, delay = 0 steps, check = no
  max neighbors/atom: 2000, page size: 100000
  master list distance cutoff = 12
  ghost atom cutoff = 12
  binsize = 6, bins = 4 3 3
  2 neighbor lists, perpetual/occasional/extra = 2 0 0
  (1) pair reaxff, perpetual
      attributes: half, newton off, ghost
      pair build: half/bin/newtoff/ghost
      stencil: full/ghost/bin/3d
      bin: standard
  (2) fix qeq/reaxff, perpetual, copy from (1)
      attributes: half, newton off
      pair build: copy
      stencil: none
      bin: none
Per MPI rank memory allocation (min/avg/max) = 116.6 | 117 | 117.7 Mbytes
   Step          Temp          PotEng         Press        f_avgp[1]        Volume    
         0   309.57385     -36545.413      158513.37      0              2924.1057    
       100   328.36144     -36672.668      24037.77       33474.642      2924.1057    
       200   351.97857     -36700.684      25247.835      13603.149      2924.1057    
       300   321.56283     -36702.922      24979.798      17485.366      2924.1057    
       400   327.68598     -36702          20120.32       18942.709      2924.1057    
       500   293.83511     -36689.507      24793.89       22088.386      2924.1057    
       600   326.31999     -36710.697      30314.556      19962.776      2924.1057    
       700   316.18728     -36709.916      23052.275      18303.14       2924.1057    
       800   289.20307     -36719.148      21771.288      17002.732      2924.1057    
       900   299.59055     -36714.36       25733.073      17061.834      2924.1057    
      1000   310.76064     -36713.932      38105.278      19206.353      2924.1057    
      1100   290.70992     -36723.681      32472.93       13580.021      2924.1057    
      1200   282.56244     -36711.537      27105.99       21389.876      2924.1057    
      1300   273.59147     -36706.003      19618.397      14036.601      2924.1057    
      1400   299.60248     -36706.975      20476.406      12023.897      2924.1057    
      1500   330.19756     -36706.035      22278.534      16997.455      2924.1057    
      1600   271.81202     -36699.341      27956.591      17135.468      2924.1057    
      1700   298.49142     -36710.157      24254.988      17288.786      2924.1057    
      1800   295.16113     -36709.732      21309.87       22597.66       2924.1057    
      1900   288.01348     -36699.058      25023.192      17953.696      2924.1057    
      2000   284.91559     -36690.531      21406.611      16897.811      2924.1057    
      2100   296.40368     -36705.947      28012.036      20902.395      2924.1057    
      2200   271.40296     -36701.59       24204.146      27708.682      2924.1057    
      2300   302.41959     -36723.552      24577.007      14922.449      2924.1057    
      2400   316.73129     -36712.326      27656.411      14737.621      2924.1057    
      2500   300.67606     -36712.796      30326.012      22108.774      2924.1057    
      2600   293.43599     -36694.75       20557.856      21526.204      2924.1057    
      2700   303.62384     -36706.44       26596.239      16911.279      2924.1057    
      2800   308.99475     -36707.133      19770.546      17680.355      2924.1057    
      2900   287.61253     -36725.402      21206.318      14062.725      2924.1057    
      3000   263.84497     -36712.082      25001.286      13662.64       2924.1057    
Loop time of 116.905 on 64 procs for 3000 steps with 243 atoms

Performance: 1.109 ns/day, 21.649 hours/ns, 25.662 timesteps/s, 6.236 katom-step/s
113.1% CPU use with 8 MPI tasks x 8 OpenMP threads

MPI task timing breakdown:
Section |  min time  |  avg time  |  max time  |%varavg| %total
---------------------------------------------------------------
Pair    | 71.95      | 74.308     | 76.385     |  14.8 | 63.56
Bond    | 0.00078957 | 0.00086246 | 0.0010344  |   0.0 |  0.00
Neigh   | 5.8421     | 6.0013     | 6.1515     |   3.3 |  5.13
Comm    | 18.515     | 20.605     | 22.827     |  27.3 | 17.63
Output  | 0.0051643  | 0.0091802  | 0.013497   |   4.0 |  0.01
Modify  | 12.868     | 13.06      | 13.206     |   2.5 | 11.17
Other   |            | 2.921      |            |       |  2.50

Nlocal:         30.375 ave          35 max          26 min
Histogram: 1 0 1 1 1 1 2 0 0 1
Nghost:        2763.25 ave        2777 max        2745 min
Histogram: 1 1 0 1 1 0 0 0 2 2
Neighs:        17901.5 ave       20562 max       15392 min
Histogram: 1 0 1 1 1 1 2 0 0 1

Total # of neighbors = 143212
Ave neighs/atom = 589.34979
Ave special neighs/atom = 0
Neighbor list builds = 300
Dangerous builds not checked
undump dump_neg${dir}
undump dump_neg2

# Run equilibration
include ff.mod.lmp
# Setup forcefield, system
# undefine any fix ave/* fix before using reset_timestep
if "$(is_defined(fix,avgp))" then "unfix avgp"
unfix avgp
reset_timestep 0

# Assign the force field
pair_style reaxff NULL safezone 3.0 mincap 150
# pair_coeff * * CHONSSi.ff O Si
# pair_coeff * * CHOSiNa.ff O Si
# pair_coeff * * SiOCHN_2018.ff O Si
# pair_coeff * * PDMSDecomp.ff Si O
pair_coeff * * CHOFe.ff O Si
WARNING: Van der Waals parameters for element SI indicate inner wall+shielding, but earlier atoms indicate a different van der Waals method. This may cause division-by-zero errors. Keeping van der Waals setting for earlier atoms. (src/REAXFF/reaxff_ffield.cpp:251)
WARNING: Van der Waals parameters for element AL indicate inner wall+shielding, but earlier atoms indicate a different van der Waals method. This may cause division-by-zero errors. Keeping van der Waals setting for earlier atoms. (src/REAXFF/reaxff_ffield.cpp:251)
WARNING: Changed valency_val to valency_boc for X (src/REAXFF/reaxff_ffield.cpp:296)

# charge method for reaxff
fix myqeq all qeq/reaxff 1 0.0 10.0 1.0e-6 reaxff maxiter 400
# Setup neighbor style
neighbor        2 bin
neigh_modify    every 10 delay 0 check no

# Setup output
fix avgp all ave/time  ${nevery} ${nrepeat} ${nfreq} c_thermo_press mode vector
fix avgp all ave/time  10 ${nrepeat} ${nfreq} c_thermo_press mode vector
fix avgp all ave/time  10 10 ${nfreq} c_thermo_press mode vector
fix avgp all ave/time  10 10 100 c_thermo_press mode vector
thermo		${nthermo}
thermo		100
thermo_style custom step temp pe press f_avgp[1] vol
WARNING: New thermo_style command, previous thermo_modify settings will be lost (src/output.cpp:903)
thermo_modify norm no

# equilibration
fix 4 all nve
fix 5 all langevin ${temp} ${temp} ${tdamp} ${seed}
fix 5 all langevin 300 ${temp} ${tdamp} ${seed}
fix 5 all langevin 300 300 ${tdamp} ${seed}
fix 5 all langevin 300 300 50 ${seed}
fix 5 all langevin 300 300 50 123456

run ${nequil}
run 1000
Neighbor list info ...
  update: every = 10 steps, delay = 0 steps, check = no
  max neighbors/atom: 2000, page size: 100000
  master list distance cutoff = 12
  ghost atom cutoff = 12
  binsize = 6, bins = 4 3 3
  2 neighbor lists, perpetual/occasional/extra = 2 0 0
  (1) pair reaxff, perpetual
      attributes: half, newton off, ghost
      pair build: half/bin/newtoff/ghost
      stencil: full/ghost/bin/3d
      bin: standard
  (2) fix qeq/reaxff, perpetual, copy from (1)
      attributes: half, newton off
      pair build: copy
      stencil: none
      bin: none
Per MPI rank memory allocation (min/avg/max) = 116.6 | 117 | 117.7 Mbytes
   Step          Temp          PotEng         Press        f_avgp[1]        Volume    
         0   263.84497     -36712.082      25001.434      0              2924.1057    
       100   296.17365     -36713.72       31488.182      16542.727      2924.1057    
       200   294.63612     -36701.592      20523.358      20304.956      2924.1057    
       300   295.85405     -36701.535      27663.748      22564.539      2924.1057    
       400   296.61838     -36691.307      21753.461      12534.172      2924.1057    
       500   324.75676     -36698.107      24997.925      14692.725      2924.1057    
       600   334.99798     -36712.45       32932.948      15834.216      2924.1057    
       700   316.38091     -36699.499      14547.128      11543.916      2924.1057    
       800   309.09301     -36697.087      20889.046      14505.228      2924.1057    
       900   307.11416     -36704.955      33347.188      17164.917      2924.1057    
      1000   299.27497     -36712.819      24789.093      20597.849      2924.1057    
Loop time of 36.6863 on 64 procs for 1000 steps with 243 atoms

Performance: 1.178 ns/day, 20.381 hours/ns, 27.258 timesteps/s, 6.624 katom-step/s
114.3% CPU use with 8 MPI tasks x 8 OpenMP threads

MPI task timing breakdown:
Section |  min time  |  avg time  |  max time  |%varavg| %total
---------------------------------------------------------------
Pair    | 22.672     | 23.341     | 23.902     |   7.2 | 63.62
Bond    | 0.00026307 | 0.00028508 | 0.00032634 |   0.0 |  0.00
Neigh   | 1.9263     | 2.0163     | 2.0634     |   3.2 |  5.50
Comm    | 5.7601     | 6.3614     | 7.0684     |  14.9 | 17.34
Output  | 0.00038875 | 0.00042845 | 0.0005751  |   0.0 |  0.00
Modify  | 4.0886     | 4.165      | 4.29       |   3.1 | 11.35
Other   |            | 0.8021     |            |       |  2.19

Nlocal:         30.375 ave          37 max          26 min
Histogram: 1 0 3 1 1 1 0 0 0 1
Nghost:        2751.25 ave        2778 max        2733 min
Histogram: 1 2 0 2 1 0 0 1 0 1
Neighs:        17905.5 ave       21698 max       15391 min
Histogram: 1 0 3 1 1 1 0 0 0 1

Total # of neighbors = 143244
Ave neighs/atom = 589.48148
Ave special neighs/atom = 0
Neighbor list builds = 100
Dangerous builds not checked

# Obtain new stress tensor Negative deformation
variable pxx1 equal f_avgp[1]
variable pyy1 equal f_avgp[2]
variable pzz1 equal f_avgp[3]
variable pxy1 equal f_avgp[4]
variable pxz1 equal f_avgp[5]
variable pyz1 equal f_avgp[6]

# Compute elastic constant from pressure
# d1 = -[pxx1-pxx0]/[(]v_delta/v_len0] defined in input script
variable C1neg equal ${d1}
variable C1neg equal 20.8015558728619
variable C2neg equal ${d2}
variable C2neg equal 78.8401116984251
variable C3neg equal ${d3}
variable C3neg equal -0.912539040982648
variable C4neg equal ${d4}
variable C4neg equal 15.3490651753184
variable C5neg equal ${d5}
variable C5neg equal -2.97295754914856
variable C6neg equal ${d6}
variable C6neg equal -13.6102556728753

# Reset box and simulation parameters
clear
  using 8 OpenMP thread(s) per MPI task
# box tilt large
read_restart equil.res
Reading restart file ...
  restart file = 2 Aug 2023, LAMMPS = 2 Aug 2023
  restoring atom style full from restart
  triclinic box = (0 0 0) to (14.6913 12.723 15.9631) with tilt (-7.3456 0 0)
WARNING: Triclinic box skew is large. LAMMPS will run inefficiently. (src/domain.cpp:220)
  2 by 2 by 2 MPI processor grid
  pair style reaxff stores no restart info
  243 atoms
Finding 1-2 1-3 1-4 neighbors ...
  special bond factors lj:    0        0        0       
  special bond factors coul:  0        0        0       
     0 = max # of 1-2 neighbors
     0 = max # of 1-3 neighbors
     0 = max # of 1-4 neighbors
     1 = max # of special neighbors
  special bonds CPU = 0.000 seconds
  read_restart CPU = 0.003 seconds
include ff.mod.lmp
# Setup forcefield, system
# undefine any fix ave/* fix before using reset_timestep
if "$(is_defined(fix,avgp))" then "unfix avgp"
reset_timestep 0

# Assign the force field
pair_style reaxff NULL safezone 3.0 mincap 150
# pair_coeff * * CHONSSi.ff O Si
# pair_coeff * * CHOSiNa.ff O Si
# pair_coeff * * SiOCHN_2018.ff O Si
# pair_coeff * * PDMSDecomp.ff Si O
pair_coeff * * CHOFe.ff O Si
WARNING: Van der Waals parameters for element SI indicate inner wall+shielding, but earlier atoms indicate a different van der Waals method. This may cause division-by-zero errors. Keeping van der Waals setting for earlier atoms. (src/REAXFF/reaxff_ffield.cpp:251)
WARNING: Van der Waals parameters for element AL indicate inner wall+shielding, but earlier atoms indicate a different van der Waals method. This may cause division-by-zero errors. Keeping van der Waals setting for earlier atoms. (src/REAXFF/reaxff_ffield.cpp:251)
WARNING: Changed valency_val to valency_boc for X (src/REAXFF/reaxff_ffield.cpp:296)

# charge method for reaxff
fix myqeq all qeq/reaxff 1 0.0 10.0 1.0e-6 reaxff maxiter 400
# Setup neighbor style
neighbor        2 bin
neigh_modify    every 10 delay 0 check no

# Setup output
fix avgp all ave/time  ${nevery} ${nrepeat} ${nfreq} c_thermo_press mode vector
fix avgp all ave/time  10 ${nrepeat} ${nfreq} c_thermo_press mode vector
fix avgp all ave/time  10 10 ${nfreq} c_thermo_press mode vector
fix avgp all ave/time  10 10 100 c_thermo_press mode vector
thermo		${nthermo}
thermo		100
thermo_style custom step temp pe press f_avgp[1] vol
thermo_modify norm no

# equilibration
fix 4 all nve
fix 5 all langevin ${temp} ${temp} ${tdamp} ${seed}
fix 5 all langevin 300 ${temp} ${tdamp} ${seed}
fix 5 all langevin 300 300 ${tdamp} ${seed}
fix 5 all langevin 300 300 50 ${seed}
fix 5 all langevin 300 300 50 123456


# Positive deformation
variable delta equal ${up}*${len0}
variable delta equal 0.02*${len0}
variable delta equal 0.02*12.723
variable deltaxy equal ${up}*xy
variable deltaxy equal 0.02*xy
variable deltaxz equal ${up}*xz
variable deltaxz equal 0.02*xz
variable deltayz equal ${up}*yz
variable deltayz equal 0.02*yz
if "${dir} == 1" then    "change_box all x delta 0 ${delta} xy delta ${deltaxy} xz delta ${deltaxz} remap units box"
if "${dir} == 2" then    "change_box all y delta 0 ${delta} yz delta ${deltayz} remap units box"
change_box all y delta 0 ${delta} yz delta ${deltayz} remap units box
change_box all y delta 0 0.25446 yz delta ${deltayz} remap units box
change_box all y delta 0 0.25446 yz delta 0 remap units box
Changing box ...
WARNING: Triclinic box skew is large. LAMMPS will run inefficiently. (src/domain.cpp:220)
  triclinic box = (0 0 0) to (14.6913 12.97746 15.9631) with tilt (-7.3456 0 0)
WARNING: Triclinic box skew is large. LAMMPS will run inefficiently. (src/domain.cpp:220)
  triclinic box = (0 0 0) to (14.6913 12.97746 15.9631) with tilt (-7.3456 0 0)
if "${dir} == 3" then    "change_box all z delta 0 ${delta} remap units box"
if "${dir} == 4" then    "change_box all yz delta ${delta} remap units box"
if "${dir} == 5" then    "change_box all xz delta ${delta} remap units box"
if "${dir} == 6" then    "change_box all xy delta ${delta} remap units box"

# Run positive deformation MD
# save trajectory
dump dump_pos${dir} all custom ${nthermo} dump/pos_deform${dir}.lammpstrj id type x y z
dump dump_pos2 all custom ${nthermo} dump/pos_deform${dir}.lammpstrj id type x y z
dump dump_pos2 all custom 100 dump/pos_deform${dir}.lammpstrj id type x y z
dump dump_pos2 all custom 100 dump/pos_deform2.lammpstrj id type x y z
run ${nrun}
run 3000
Neighbor list info ...
  update: every = 10 steps, delay = 0 steps, check = no
  max neighbors/atom: 2000, page size: 100000
  master list distance cutoff = 12
  ghost atom cutoff = 12
  binsize = 6, bins = 4 3 3
  2 neighbor lists, perpetual/occasional/extra = 2 0 0
  (1) pair reaxff, perpetual
      attributes: half, newton off, ghost
      pair build: half/bin/newtoff/ghost
      stencil: full/ghost/bin/3d
      bin: standard
  (2) fix qeq/reaxff, perpetual, copy from (1)
      attributes: half, newton off
      pair build: copy
      stencil: none
      bin: none
Per MPI rank memory allocation (min/avg/max) = 112.7 | 113.8 | 114.8 Mbytes
   Step          Temp          PotEng         Press        f_avgp[1]        Volume    
         0   309.57385     -36645.288      3951.5585      0              3043.4569    
       100   318.04505     -36690.347      5807.4698     -1452.5791      3043.4569    
       200   319.90346     -36700.442      8730.5024      6025.0368      3043.4569    
       300   294.33074     -36701.055     -5284.5155     -657.22899      3043.4569    
       400   323.92225     -36727.278      4480.8876      805.31863      3043.4569    
       500   295.07159     -36700.554      8674.5597      5002.8331      3043.4569    
       600   299.70502     -36711.076      462.57722      4021.7302      3043.4569    
       700   297.85175     -36718.312      1666.5886      4181.717       3043.4569    
       800   313.43223     -36688.816      970.67921      3459.4566      3043.4569    
       900   305.15586     -36691.274      1246.7896      4755.3222      3043.4569    
      1000   313.43344     -36690.876      9586.479       6077.8346      3043.4569    
      1100   289.01511     -36700.289     -3270.4139      276.00064      3043.4569    
      1200   286.24237     -36706.581      803.04711      1470.5775      3043.4569    
      1300   288.97795     -36712.819      4252.3757     -1513.4867      3043.4569    
      1400   303.37989     -36716.672      604.64276      5577.6731      3043.4569    
      1500   295.54228     -36703.517     -5625.3894     -2834.733       3043.4569    
      1600   310.17349     -36706.566      696.16213      2719.6536      3043.4569    
      1700   328.429       -36714.082      161.07792      4173.55        3043.4569    
      1800   311.4047      -36731.107      3973.3998      5941.6075      3043.4569    
      1900   276.26101     -36719.95       1785.5323      2425.7593      3043.4569    
      2000   283.32515     -36725.07       8818.5117      1474.9645      3043.4569    
      2100   289.18005     -36724.963      6182.5563      7828.0575      3043.4569    
      2200   305.28359     -36726.876      7441.6562      7782.0709      3043.4569    
      2300   313.80909     -36704.859     -462.84197      3231.4137      3043.4569    
      2400   329.47837     -36711.591      6700.9355      2914.2377      3043.4569    
      2500   304.93111     -36705.311      965.04144      8531.1127      3043.4569    
      2600   315.80341     -36719.169      2078.2533      2185.9406      3043.4569    
      2700   311.60522     -36679.779      5878.3355      6391.2155      3043.4569    
      2800   338.01226     -36699.425      2293.0869      10024.739      3043.4569    
      2900   307.50983     -36692.078     -3219.8775      5473.0222      3043.4569    
      3000   288.69013     -36663.029      7093.9113      4170.8767      3043.4569    
Loop time of 105.411 on 64 procs for 3000 steps with 243 atoms

Performance: 1.229 ns/day, 19.521 hours/ns, 28.460 timesteps/s, 6.916 katom-step/s
115.2% CPU use with 8 MPI tasks x 8 OpenMP threads

MPI task timing breakdown:
Section |  min time  |  avg time  |  max time  |%varavg| %total
---------------------------------------------------------------
Pair    | 63.595     | 65.904     | 67.995     |  18.6 | 62.52
Bond    | 0.00070662 | 0.00087158 | 0.0010222  |   0.0 |  0.00
Neigh   | 5.6562     | 5.8064     | 5.9574     |   4.0 |  5.51
Comm    | 16.884     | 19.003     | 21.378     |  34.0 | 18.03
Output  | 0.0048658  | 0.0076167  | 0.010829   |   3.0 |  0.01
Modify  | 12.123     | 12.247     | 12.35      |   2.3 | 11.62
Other   |            | 2.443      |            |       |  2.32

Nlocal:         30.375 ave          34 max          27 min
Histogram: 1 0 2 0 1 2 0 1 0 1
Nghost:        2684.25 ave        2708 max        2664 min
Histogram: 3 0 1 0 0 0 0 2 1 1
Neighs:        17275.4 ave       19256 max       15418 min
Histogram: 1 0 2 0 1 2 0 1 0 1

Total # of neighbors = 138203
Ave neighs/atom = 568.73663
Ave special neighs/atom = 0
Neighbor list builds = 300
Dangerous builds not checked
undump dump_pos${dir}
undump dump_pos2

# Run equilibration
include ff.mod.lmp
# Setup forcefield, system
# undefine any fix ave/* fix before using reset_timestep
if "$(is_defined(fix,avgp))" then "unfix avgp"
unfix avgp
reset_timestep 0

# Assign the force field
pair_style reaxff NULL safezone 3.0 mincap 150
# pair_coeff * * CHONSSi.ff O Si
# pair_coeff * * CHOSiNa.ff O Si
# pair_coeff * * SiOCHN_2018.ff O Si
# pair_coeff * * PDMSDecomp.ff Si O
pair_coeff * * CHOFe.ff O Si
WARNING: Van der Waals parameters for element SI indicate inner wall+shielding, but earlier atoms indicate a different van der Waals method. This may cause division-by-zero errors. Keeping van der Waals setting for earlier atoms. (src/REAXFF/reaxff_ffield.cpp:251)
WARNING: Van der Waals parameters for element AL indicate inner wall+shielding, but earlier atoms indicate a different van der Waals method. This may cause division-by-zero errors. Keeping van der Waals setting for earlier atoms. (src/REAXFF/reaxff_ffield.cpp:251)
WARNING: Changed valency_val to valency_boc for X (src/REAXFF/reaxff_ffield.cpp:296)

# charge method for reaxff
fix myqeq all qeq/reaxff 1 0.0 10.0 1.0e-6 reaxff maxiter 400
# Setup neighbor style
neighbor        2 bin
neigh_modify    every 10 delay 0 check no

# Setup output
fix avgp all ave/time  ${nevery} ${nrepeat} ${nfreq} c_thermo_press mode vector
fix avgp all ave/time  10 ${nrepeat} ${nfreq} c_thermo_press mode vector
fix avgp all ave/time  10 10 ${nfreq} c_thermo_press mode vector
fix avgp all ave/time  10 10 100 c_thermo_press mode vector
thermo		${nthermo}
thermo		100
thermo_style custom step temp pe press f_avgp[1] vol
WARNING: New thermo_style command, previous thermo_modify settings will be lost (src/output.cpp:903)
thermo_modify norm no

# equilibration
fix 4 all nve
fix 5 all langevin ${temp} ${temp} ${tdamp} ${seed}
fix 5 all langevin 300 ${temp} ${tdamp} ${seed}
fix 5 all langevin 300 300 ${tdamp} ${seed}
fix 5 all langevin 300 300 50 ${seed}
fix 5 all langevin 300 300 50 123456

run ${nequil}
run 1000
Neighbor list info ...
  update: every = 10 steps, delay = 0 steps, check = no
  max neighbors/atom: 2000, page size: 100000
  master list distance cutoff = 12
  ghost atom cutoff = 12
  binsize = 6, bins = 4 3 3
  2 neighbor lists, perpetual/occasional/extra = 2 0 0
  (1) pair reaxff, perpetual
      attributes: half, newton off, ghost
      pair build: half/bin/newtoff/ghost
      stencil: full/ghost/bin/3d
      bin: standard
  (2) fix qeq/reaxff, perpetual, copy from (1)
      attributes: half, newton off
      pair build: copy
      stencil: none
      bin: none
Per MPI rank memory allocation (min/avg/max) = 112.8 | 113.7 | 114.7 Mbytes
   Step          Temp          PotEng         Press        f_avgp[1]        Volume    
         0   288.69013     -36663.029      7092.7348      0              3043.4569    
       100   324.82892     -36721.531      2200.5812      7605.6597      3043.4569    
       200   274.64857     -36689.932      1677.093       3785.3407      3043.4569    
       300   286.13621     -36711.189      1513.7558      2126.2003      3043.4569    
       400   316.76581     -36707.304      249.06353     -563.47393      3043.4569    
       500   302.02499     -36710.806     -530.32225      4148.5248      3043.4569    
       600   267.75742     -36707.947      3299.293      -2265.615       3043.4569    
       700   288.63396     -36726.922      4686.2662      9709.0907      3043.4569    
       800   297.12277     -36724.623      2626.4548      2182.3526      3043.4569    
       900   277.69838     -36695.458      2081.1473      2255.4074      3043.4569    
      1000   296.99758     -36700.529      2284.4338      7067.0639      3043.4569    
Loop time of 34.8955 on 64 procs for 1000 steps with 243 atoms

Performance: 1.238 ns/day, 19.386 hours/ns, 28.657 timesteps/s, 6.964 katom-step/s
115.3% CPU use with 8 MPI tasks x 8 OpenMP threads

MPI task timing breakdown:
Section |  min time  |  avg time  |  max time  |%varavg| %total
---------------------------------------------------------------
Pair    | 21.171     | 21.807     | 22.361     |   8.3 | 62.49
Bond    | 0.00023985 | 0.00029407 | 0.00033576 |   0.0 |  0.00
Neigh   | 1.8147     | 1.8835     | 1.9426     |   2.5 |  5.40
Comm    | 5.8163     | 6.3687     | 7.0014     |  16.1 | 18.25
Output  | 0.00041229 | 0.00045716 | 0.00060489 |   0.0 |  0.00
Modify  | 3.9921     | 4.0405     | 4.1049     |   1.6 | 11.58
Other   |            | 0.7947     |            |       |  2.28

Nlocal:         30.375 ave          34 max          26 min
Histogram: 1 0 0 2 0 1 2 0 1 1
Nghost:        2680.88 ave        2706 max        2663 min
Histogram: 2 0 1 0 3 0 1 0 0 1
Neighs:        17268.1 ave       19262 max       14836 min
Histogram: 1 0 0 2 0 1 2 0 1 1

Total # of neighbors = 138145
Ave neighs/atom = 568.49794
Ave special neighs/atom = 0
Neighbor list builds = 100
Dangerous builds not checked

# Obtain new stress tensor
variable pxx1 equal f_avgp[1]
variable pyy1 equal f_avgp[2]
variable pzz1 equal f_avgp[3]
variable pxy1 equal f_avgp[4]
variable pxz1 equal f_avgp[5]
variable pyz1 equal f_avgp[6]

# Compute elastic constant from pressure tensor
# d1 = -[pxx1-pxx0]/[(]v_delta/v_len0] defined in input script
variable C1pos equal ${d1}
variable C1pos equal 47.7487846235273
variable C2pos equal ${d2}
variable C2pos equal 106.433791888409
variable C3pos equal ${d3}
variable C3pos equal 41.0088344374938
variable C4pos equal ${d4}
variable C4pos equal -12.9094573178925
variable C5pos equal ${d5}
variable C5pos equal -16.1831554842583
variable C6pos equal ${d6}
variable C6pos equal -6.02859949870924

# Combine positive and negative
variable C1${dir} equal 0.5*(${C1neg}+${C1pos})
variable C12 equal 0.5*(${C1neg}+${C1pos})
variable C12 equal 0.5*(20.8015558728619+${C1pos})
variable C12 equal 0.5*(20.8015558728619+47.7487846235273)
variable C2${dir} equal 0.5*(${C2neg}+${C2pos})
variable C22 equal 0.5*(${C2neg}+${C2pos})
variable C22 equal 0.5*(78.8401116984251+${C2pos})
variable C22 equal 0.5*(78.8401116984251+106.433791888409)
variable C3${dir} equal 0.5*(${C3neg}+${C3pos})
variable C32 equal 0.5*(${C3neg}+${C3pos})
variable C32 equal 0.5*(-0.912539040982648+${C3pos})
variable C32 equal 0.5*(-0.912539040982648+41.0088344374938)
variable C4${dir} equal 0.5*(${C4neg}+${C4pos})
variable C42 equal 0.5*(${C4neg}+${C4pos})
variable C42 equal 0.5*(15.3490651753184+${C4pos})
variable C42 equal 0.5*(15.3490651753184+-12.9094573178925)
variable C5${dir} equal 0.5*(${C5neg}+${C5pos})
variable C52 equal 0.5*(${C5neg}+${C5pos})
variable C52 equal 0.5*(-2.97295754914856+${C5pos})
variable C52 equal 0.5*(-2.97295754914856+-16.1831554842583)
variable C6${dir} equal 0.5*(${C6neg}+${C6pos})
variable C62 equal 0.5*(${C6neg}+${C6pos})
variable C62 equal 0.5*(-13.6102556728753+${C6pos})
variable C62 equal 0.5*(-13.6102556728753+-6.02859949870924)

# Delete dir to make sure it is not reused
variable dir delete
# uzz Perturbation
variable dir equal 3
include displace.mod.lmp
# Find which reference length to use
if "${dir} == 1" then    "variable len0 equal ${lx0}"
if "${dir} == 2" then    "variable len0 equal ${ly0}"
if "${dir} == 3" then    "variable len0 equal ${lz0}"
variable len0 equal ${lz0}
variable len0 equal 15.9631
if "${dir} == 4" then    "variable len0 equal ${lz0}"
if "${dir} == 5" then    "variable len0 equal ${lz0}"
if "${dir} == 6" then    "variable len0 equal ${ly0}"

# Reset box and simulation parameters
clear
  using 8 OpenMP thread(s) per MPI task
# box tilt large
read_restart equil.res
Reading restart file ...
  restart file = 2 Aug 2023, LAMMPS = 2 Aug 2023
  restoring atom style full from restart
  triclinic box = (0 0 0) to (14.6913 12.723 15.9631) with tilt (-7.3456 0 0)
WARNING: Triclinic box skew is large. LAMMPS will run inefficiently. (src/domain.cpp:220)
  2 by 2 by 2 MPI processor grid
  pair style reaxff stores no restart info
  243 atoms
Finding 1-2 1-3 1-4 neighbors ...
  special bond factors lj:    0        0        0       
  special bond factors coul:  0        0        0       
     0 = max # of 1-2 neighbors
     0 = max # of 1-3 neighbors
     0 = max # of 1-4 neighbors
     1 = max # of special neighbors
  special bonds CPU = 0.000 seconds
  read_restart CPU = 0.003 seconds
include ff.mod.lmp
# Setup forcefield, system
# undefine any fix ave/* fix before using reset_timestep
if "$(is_defined(fix,avgp))" then "unfix avgp"
reset_timestep 0

# Assign the force field
pair_style reaxff NULL safezone 3.0 mincap 150
# pair_coeff * * CHONSSi.ff O Si
# pair_coeff * * CHOSiNa.ff O Si
# pair_coeff * * SiOCHN_2018.ff O Si
# pair_coeff * * PDMSDecomp.ff Si O
pair_coeff * * CHOFe.ff O Si
WARNING: Van der Waals parameters for element SI indicate inner wall+shielding, but earlier atoms indicate a different van der Waals method. This may cause division-by-zero errors. Keeping van der Waals setting for earlier atoms. (src/REAXFF/reaxff_ffield.cpp:251)
WARNING: Van der Waals parameters for element AL indicate inner wall+shielding, but earlier atoms indicate a different van der Waals method. This may cause division-by-zero errors. Keeping van der Waals setting for earlier atoms. (src/REAXFF/reaxff_ffield.cpp:251)
WARNING: Changed valency_val to valency_boc for X (src/REAXFF/reaxff_ffield.cpp:296)

# charge method for reaxff
fix myqeq all qeq/reaxff 1 0.0 10.0 1.0e-6 reaxff maxiter 400
# Setup neighbor style
neighbor        2 bin
neigh_modify    every 10 delay 0 check no

# Setup output
fix avgp all ave/time  ${nevery} ${nrepeat} ${nfreq} c_thermo_press mode vector
fix avgp all ave/time  10 ${nrepeat} ${nfreq} c_thermo_press mode vector
fix avgp all ave/time  10 10 ${nfreq} c_thermo_press mode vector
fix avgp all ave/time  10 10 100 c_thermo_press mode vector
thermo		${nthermo}
thermo		100
thermo_style custom step temp pe press f_avgp[1] vol
thermo_modify norm no

# equilibration
fix 4 all nve
fix 5 all langevin ${temp} ${temp} ${tdamp} ${seed}
fix 5 all langevin 300 ${temp} ${tdamp} ${seed}
fix 5 all langevin 300 300 ${tdamp} ${seed}
fix 5 all langevin 300 300 50 ${seed}
fix 5 all langevin 300 300 50 123456


# Negative deformation
variable delta equal -${up}*${len0}
variable delta equal -0.02*${len0}
variable delta equal -0.02*15.9631
variable deltaxy equal -${up}*xy
variable deltaxy equal -0.02*xy
variable deltaxz equal -${up}*xz
variable deltaxz equal -0.02*xz
variable deltayz equal -${up}*yz
variable deltayz equal -0.02*yz
if "${dir} == 1" then    "change_box all x delta 0 ${delta} xy delta ${deltaxy} xz delta ${deltaxz} remap units box"
if "${dir} == 2" then    "change_box all y delta 0 ${delta} yz delta ${deltayz} remap units box"
if "${dir} == 3" then    "change_box all z delta 0 ${delta} remap units box"
change_box all z delta 0 ${delta} remap units box
change_box all z delta 0 -0.319262 remap units box
Changing box ...
WARNING: Triclinic box skew is large. LAMMPS will run inefficiently. (src/domain.cpp:220)
  triclinic box = (0 0 0) to (14.6913 12.723 15.643838) with tilt (-7.3456 0 0)
if "${dir} == 4" then    "change_box all yz delta ${delta} remap units box"
if "${dir} == 5" then    "change_box all xz delta ${delta} remap units box"
if "${dir} == 6" then    "change_box all xy delta ${delta} remap units box"

# Run MD for Negative deformation
# save trajectory
dump dump_neg${dir} all custom ${nthermo} dump/neg_deform${dir}.lammpstrj id type x y z
dump dump_neg3 all custom ${nthermo} dump/neg_deform${dir}.lammpstrj id type x y z
[...]
      1000   301.03232     -36714.521      12968.956      12499.571      2983.7813    
Loop time of 26.6759 on 64 procs for 1000 steps with 243 atoms

Performance: 1.619 ns/day, 14.820 hours/ns, 37.487 timesteps/s, 9.109 katom-step/s
120.8% CPU use with 8 MPI tasks x 8 OpenMP threads

MPI task timing breakdown:
Section |  min time  |  avg time  |  max time  |%varavg| %total
---------------------------------------------------------------
Pair    | 16.589     | 17.091     | 17.76      |   8.8 | 64.07
Bond    | 0.00018681 | 0.00023695 | 0.0002738  |   0.0 |  0.00
Neigh   | 1.7623     | 1.8443     | 1.8909     |   3.4 |  6.91
Comm    | 3.2273     | 3.8681     | 4.368      |  18.8 | 14.50
Output  | 0.00028755 | 0.0003209  | 0.00044306 |   0.0 |  0.00
Modify  | 3.5991     | 3.6532     | 3.7286     |   2.7 | 13.69
Other   |            | 0.2184     |            |       |  0.82

Nlocal:         30.375 ave          33 max          27 min
Histogram: 1 0 0 1 0 3 0 0 2 1
Nghost:        2723.62 ave        2739 max        2710 min
Histogram: 2 0 0 1 1 2 0 0 1 1
Neighs:        17586.6 ave       19069 max       15697 min
Histogram: 1 0 0 1 2 1 0 0 2 1

Total # of neighbors = 140693
Ave neighs/atom = 578.98354
Ave special neighs/atom = 0
Neighbor list builds = 100
Dangerous builds not checked

# Obtain new stress tensor Negative deformation
variable pxx1 equal f_avgp[1]
variable pyy1 equal f_avgp[2]
variable pzz1 equal f_avgp[3]
variable pxy1 equal f_avgp[4]
variable pxz1 equal f_avgp[5]
variable pyz1 equal f_avgp[6]

# Compute elastic constant from pressure
# d1 = -[pxx1-pxx0]/[(]v_delta/v_len0] defined in input script
variable C1neg equal ${d1}
variable C1neg equal -20.2263447897024
variable C2neg equal ${d2}
variable C2neg equal 2.25039422017455
variable C3neg equal ${d3}
variable C3neg equal -20.6245308021521
variable C4neg equal ${d4}
variable C4neg equal 1.24287827961288
variable C5neg equal ${d5}
variable C5neg equal -1.4704391221159
variable C6neg equal ${d6}
variable C6neg equal 18.5487240174043

# Reset box and simulation parameters
clear
  using 8 OpenMP thread(s) per MPI task
# box tilt large
read_restart equil.res
Reading restart file ...
  restart file = 2 Aug 2023, LAMMPS = 2 Aug 2023
  restoring atom style full from restart
  triclinic box = (0 0 0) to (14.6913 12.723 15.9631) with tilt (-7.3456 0 0)
  2 by 2 by 2 MPI processor grid
  pair style reaxff stores no restart info
  243 atoms
Finding 1-2 1-3 1-4 neighbors ...
  special bond factors lj:    0        0        0       
  special bond factors coul:  0        0        0       
     0 = max # of 1-2 neighbors
     0 = max # of 1-3 neighbors
     0 = max # of 1-4 neighbors
     1 = max # of special neighbors
  special bonds CPU = 0.000 seconds
  read_restart CPU = 0.002 seconds
include ff.mod.lmp
# Setup forcefield, system
# undefine any fix ave/* fix before using reset_timestep
if "$(is_defined(fix,avgp))" then "unfix avgp"
reset_timestep 0

# Assign the force field
pair_style reaxff NULL safezone 3.0 mincap 150
# pair_coeff * * CHONSSi.ff O Si
# pair_coeff * * CHOSiNa.ff O Si
# pair_coeff * * SiOCHN_2018.ff O Si
# pair_coeff * * PDMSDecomp.ff Si O
pair_coeff * * CHOFe.ff O Si

# charge method for reaxff
fix myqeq all qeq/reaxff 1 0.0 10.0 1.0e-6 reaxff maxiter 400
# Setup neighbor style
neighbor        2 bin
neigh_modify    every 10 delay 0 check no

# Setup output
fix avgp all ave/time  ${nevery} ${nrepeat} ${nfreq} c_thermo_press mode vector
fix avgp all ave/time  10 ${nrepeat} ${nfreq} c_thermo_press mode vector
fix avgp all ave/time  10 10 ${nfreq} c_thermo_press mode vector
fix avgp all ave/time  10 10 100 c_thermo_press mode vector
thermo		${nthermo}
thermo		100
thermo_style custom step temp pe press f_avgp[1] vol
thermo_modify norm no

# equilibration
fix 4 all nve
fix 5 all langevin ${temp} ${temp} ${tdamp} ${seed}
fix 5 all langevin 300 ${temp} ${tdamp} ${seed}
fix 5 all langevin 300 300 ${tdamp} ${seed}
fix 5 all langevin 300 300 50 ${seed}
fix 5 all langevin 300 300 50 123456


# Positive deformation
variable delta equal ${up}*${len0}
variable delta equal 0.02*${len0}
variable delta equal 0.02*12.723
variable deltaxy equal ${up}*xy
variable deltaxy equal 0.02*xy
variable deltaxz equal ${up}*xz
variable deltaxz equal 0.02*xz
variable deltayz equal ${up}*yz
variable deltayz equal 0.02*yz
if "${dir} == 1" then    "change_box all x delta 0 ${delta} xy delta ${deltaxy} xz delta ${deltaxz} remap units box"
if "${dir} == 2" then    "change_box all y delta 0 ${delta} yz delta ${deltayz} remap units box"
if "${dir} == 3" then    "change_box all z delta 0 ${delta} remap units box"
if "${dir} == 4" then    "change_box all yz delta ${delta} remap units box"
if "${dir} == 5" then    "change_box all xz delta ${delta} remap units box"
if "${dir} == 6" then    "change_box all xy delta ${delta} remap units box"
change_box all xy delta ${delta} remap units box
change_box all xy delta 0.25446 remap units box
Changing box ...
  triclinic box = (0 0 0) to (14.6913 12.723 15.9631) with tilt (-7.09114 0 0)

# Run positive deformation MD
# save trajectory
dump dump_pos${dir} all custom ${nthermo} dump/pos_deform${dir}.lammpstrj id type x y z
dump dump_pos6 all custom ${nthermo} dump/pos_deform${dir}.lammpstrj id type x y z
dump dump_pos6 all custom 100 dump/pos_deform${dir}.lammpstrj id type x y z
dump dump_pos6 all custom 100 dump/pos_deform6.lammpstrj id type x y z
run ${nrun}
run 3000
Neighbor list info ...
  update: every = 10 steps, delay = 0 steps, check = no
  max neighbors/atom: 2000, page size: 100000
  master list distance cutoff = 12
  ghost atom cutoff = 12
  binsize = 6, bins = 4 3 3
  2 neighbor lists, perpetual/occasional/extra = 2 0 0
  (1) pair reaxff, perpetual
      attributes: half, newton off, ghost
      pair build: half/bin/newtoff/ghost
      stencil: full/ghost/bin/3d
      bin: standard
  (2) fix qeq/reaxff, perpetual, copy from (1)
      attributes: half, newton off
      pair build: copy
      stencil: none
      bin: none
Per MPI rank memory allocation (min/avg/max) = 114 | 114.8 | 115.5 Mbytes
   Step          Temp          PotEng         Press        f_avgp[1]        Volume    
WARNING: Too many warnings: 117 vs 100. All future warnings will be suppressed (src/thermo.cpp:472)
         0   309.57385     -36610.585      77377.602      0              2983.7813    
       100   335.91638     -36684.859      16163.448      15523.129      2983.7813    
       200   325.95179     -36701.651      16216.372      10374.464      2983.7813    
       300   311.90337     -36708.082      11038.269      5365.2556      2983.7813    
       400   303.69966     -36720.186      13268.904      10304.351      2983.7813    
       500   272.90335     -36722.925      21494.287      12477.817      2983.7813    
       600   309.61585     -36699.819      10466.379      15332.938      2983.7813    
       700   310.32521     -36726.655      5136.047       953.16843      2983.7813    
       800   313.2544      -36721.81       16785.909      6083.9615      2983.7813    
       900   311.55396     -36715.401      12609.271      5728.6753      2983.7813    
      1000   294.898       -36711.422      10346.809      6574.36        2983.7813    
      1100   306.62601     -36729.022      20109.524      6669.7068      2983.7813    
      1200   259.24715     -36712.419      9442.2221      2504.6932      2983.7813    
      1300   306.68507     -36713.197      8430.369       5605.8512      2983.7813    
      1400   298.76228     -36701.644      13103.859      2965.0889      2983.7813    
      1500   306.54099     -36702.116      10655.592      10783.166      2983.7813    
      1600   300.9185      -36702.837      15849.611      7939.5003      2983.7813    
      1700   266.68003     -36713.408      18195.534      12560.144      2983.7813    
      1800   301.79539     -36738.666      9424.466       15800.054      2983.7813    
      1900   290.15404     -36724.07       14880.592      11537.292      2983.7813    
      2000   296.6846      -36712.62       18904.623      13942.721      2983.7813    
      2100   275.13564     -36725.43       13437.9        19287.41       2983.7813    
      2200   304.81659     -36710.392      10843.847      8004.1163      2983.7813    
      2300   284.92275     -36717.102      17512.804      9028.0381      2983.7813    
      2400   281.30659     -36718.457      10048.23       8772.1905      2983.7813    
      2500   291.05256     -36729.607      19588.579      13796.035      2983.7813    
      2600   274.3225      -36708.991      9531.6278      9175.1244      2983.7813    
      2700   296.60776     -36729.759      15620.372      5955.8842      2983.7813    
      2800   285.72147     -36703.273      12514.856      13211.359      2983.7813    
      2900   282.75576     -36710.736      11057.464      14040.129      2983.7813    
      3000   296.73809     -36693.418      12684.585      4236.5058      2983.7813    
Loop time of 81.5138 on 64 procs for 3000 steps with 243 atoms

Performance: 1.590 ns/day, 15.095 hours/ns, 36.804 timesteps/s, 8.943 katom-step/s
120.2% CPU use with 8 MPI tasks x 8 OpenMP threads

MPI task timing breakdown:
Section |  min time  |  avg time  |  max time  |%varavg| %total
---------------------------------------------------------------
Pair    | 49.101     | 51.321     | 53.247     |  18.9 | 62.96
Bond    | 0.00056795 | 0.00069344 | 0.00080919 |   0.0 |  0.00
Neigh   | 5.3192     | 5.4781     | 5.6288     |   4.7 |  6.72
Comm    | 10.844     | 12.766     | 15.048     |  38.5 | 15.66
Output  | 0.0043145  | 0.0064287  | 0.0087836  |   2.5 |  0.01
Modify  | 11.127     | 11.288     | 11.458     |   3.3 | 13.85
Other   |            | 0.6539     |            |       |  0.80

Nlocal:         30.375 ave          32 max          27 min
Histogram: 1 0 0 0 0 0 3 0 2 2
Nghost:        2702.12 ave        2717 max        2692 min
Histogram: 4 0 0 0 0 1 1 0 1 1
Neighs:        17574.2 ave       18503 max       15689 min
Histogram: 1 0 0 0 0 3 0 2 0 2

Total # of neighbors = 140594
Ave neighs/atom = 578.57613
Ave special neighs/atom = 0
Neighbor list builds = 300
Dangerous builds not checked
undump dump_pos${dir}
undump dump_pos6

# Run equilibration
include ff.mod.lmp
# Setup forcefield, system
# undefine any fix ave/* fix before using reset_timestep
if "$(is_defined(fix,avgp))" then "unfix avgp"
unfix avgp
reset_timestep 0

# Assign the force field
pair_style reaxff NULL safezone 3.0 mincap 150
# pair_coeff * * CHONSSi.ff O Si
# pair_coeff * * CHOSiNa.ff O Si
# pair_coeff * * SiOCHN_2018.ff O Si
# pair_coeff * * PDMSDecomp.ff Si O
pair_coeff * * CHOFe.ff O Si

# charge method for reaxff
fix myqeq all qeq/reaxff 1 0.0 10.0 1.0e-6 reaxff maxiter 400
# Setup neighbor style
neighbor        2 bin
neigh_modify    every 10 delay 0 check no

# Setup output
fix avgp all ave/time  ${nevery} ${nrepeat} ${nfreq} c_thermo_press mode vector
fix avgp all ave/time  10 ${nrepeat} ${nfreq} c_thermo_press mode vector
fix avgp all ave/time  10 10 ${nfreq} c_thermo_press mode vector
fix avgp all ave/time  10 10 100 c_thermo_press mode vector
thermo		${nthermo}
thermo		100
thermo_style custom step temp pe press f_avgp[1] vol
thermo_modify norm no

# equilibration
fix 4 all nve
fix 5 all langevin ${temp} ${temp} ${tdamp} ${seed}
fix 5 all langevin 300 ${temp} ${tdamp} ${seed}
fix 5 all langevin 300 300 ${tdamp} ${seed}
fix 5 all langevin 300 300 50 ${seed}
fix 5 all langevin 300 300 50 123456

run ${nequil}
run 1000
Neighbor list info ...
  update: every = 10 steps, delay = 0 steps, check = no
  max neighbors/atom: 2000, page size: 100000
  master list distance cutoff = 12
  ghost atom cutoff = 12
  binsize = 6, bins = 4 3 3
  2 neighbor lists, perpetual/occasional/extra = 2 0 0
  (1) pair reaxff, perpetual
      attributes: half, newton off, ghost
      pair build: half/bin/newtoff/ghost
      stencil: full/ghost/bin/3d
      bin: standard
  (2) fix qeq/reaxff, perpetual, copy from (1)
      attributes: half, newton off
      pair build: copy
      stencil: none
      bin: none
Per MPI rank memory allocation (min/avg/max) = 114 | 114.8 | 115.5 Mbytes
   Step          Temp          PotEng         Press        f_avgp[1]        Volume    
WARNING: Too many warnings: 121 vs 100. All future warnings will be suppressed (src/thermo.cpp:472)
         0   296.73809     -36693.418      12684.811      0              2983.7813    
       100   312.21628     -36704.079      13759.784      9140.7243      2983.7813    
       200   306.90877     -36733.277      13588.5        6392.5626      2983.7813    
       300   314.05006     -36714.148      9979.3006      6436.8372      2983.7813    
       400   309.05373     -36720.391      19816.553      11094.55       2983.7813    
       500   292.74399     -36710.929      15032.935      14054.816      2983.7813    
       600   321.95022     -36716.231      11971.083      12429.188      2983.7813    
       700   291.62716     -36694.458      10125.763      8226.0306      2983.7813    
       800   307.6626      -36707.408      16577.871      15206.069      2983.7813    
       900   276.36746     -36711.531      13699.575      11360.252      2983.7813    
      1000   282.64289     -36734.335      12706.388      13167.56       2983.7813    
Loop time of 26.952 on 64 procs for 1000 steps with 243 atoms

Performance: 1.603 ns/day, 14.973 hours/ns, 37.103 timesteps/s, 9.016 katom-step/s
120.9% CPU use with 8 MPI tasks x 8 OpenMP threads

MPI task timing breakdown:
Section |  min time  |  avg time  |  max time  |%varavg| %total
---------------------------------------------------------------
Pair    | 16.196     | 17.03      | 17.78      |  11.5 | 63.19
Bond    | 0.00019891 | 0.00022726 | 0.00026132 |   0.0 |  0.00
Neigh   | 1.7551     | 1.7955     | 1.8345     |   1.8 |  6.66
Comm    | 3.349      | 4.1373     | 4.9777     |  24.2 | 15.35
Output  | 0.00031289 | 0.00033723 | 0.00045992 |   0.0 |  0.00
Modify  | 3.7268     | 3.7664     | 3.8136     |   1.7 | 13.97
Other   |            | 0.2224     |            |       |  0.83

Nlocal:         30.375 ave          34 max          28 min
Histogram: 3 1 0 0 0 0 3 0 0 1
Nghost:        2714.38 ave        2734 max        2696 min
Histogram: 2 0 0 1 0 3 0 1 0 1
Neighs:        17576.6 ave       19637 max       16229 min
Histogram: 3 1 0 0 0 0 3 0 0 1

Total # of neighbors = 140613
Ave neighs/atom = 578.65432
Ave special neighs/atom = 0
Neighbor list builds = 100
Dangerous builds not checked

# Obtain new stress tensor
variable pxx1 equal f_avgp[1]
variable pyy1 equal f_avgp[2]
variable pzz1 equal f_avgp[3]
variable pxy1 equal f_avgp[4]
variable pxz1 equal f_avgp[5]
variable pyz1 equal f_avgp[6]

# Compute elastic constant from pressure tensor
# d1 = -[pxx1-pxx0]/[(]v_delta/v_len0] defined in input script
variable C1pos equal ${d1}
variable C1pos equal 16.8421440527392
variable C2pos equal ${d2}
variable C2pos equal 40.5917906795738
variable C3pos equal ${d3}
variable C3pos equal 47.8364121187792
variable C4pos equal ${d4}
variable C4pos equal -6.46931610799871
variable C5pos equal ${d5}
variable C5pos equal -22.4419070190945
variable C6pos equal ${d6}
variable C6pos equal 20.3381760927227

# Combine positive and negative
variable C1${dir} equal 0.5*(${C1neg}+${C1pos})
variable C16 equal 0.5*(${C1neg}+${C1pos})
variable C16 equal 0.5*(-20.2263447897024+${C1pos})
variable C16 equal 0.5*(-20.2263447897024+16.8421440527392)
variable C2${dir} equal 0.5*(${C2neg}+${C2pos})
variable C26 equal 0.5*(${C2neg}+${C2pos})
variable C26 equal 0.5*(2.25039422017455+${C2pos})
variable C26 equal 0.5*(2.25039422017455+40.5917906795738)
variable C3${dir} equal 0.5*(${C3neg}+${C3pos})
variable C36 equal 0.5*(${C3neg}+${C3pos})
variable C36 equal 0.5*(-20.6245308021521+${C3pos})
variable C36 equal 0.5*(-20.6245308021521+47.8364121187792)
variable C4${dir} equal 0.5*(${C4neg}+${C4pos})
variable C46 equal 0.5*(${C4neg}+${C4pos})
variable C46 equal 0.5*(1.24287827961288+${C4pos})
variable C46 equal 0.5*(1.24287827961288+-6.46931610799871)
variable C5${dir} equal 0.5*(${C5neg}+${C5pos})
variable C56 equal 0.5*(${C5neg}+${C5pos})
variable C56 equal 0.5*(-1.4704391221159+${C5pos})
variable C56 equal 0.5*(-1.4704391221159+-22.4419070190945)
variable C6${dir} equal 0.5*(${C6neg}+${C6pos})
variable C66 equal 0.5*(${C6neg}+${C6pos})
variable C66 equal 0.5*(18.5487240174043+${C6pos})
variable C66 equal 0.5*(18.5487240174043+20.3381760927227)

# Delete dir to make sure it is not reused
variable dir delete

# Calc and output
include calc.mod.lmp
variable C11all equal ${C11}
variable C11all equal 109.380866788906
variable C22all equal ${C22}
variable C22all equal 92.6369517934171
variable C33all equal ${C33}
variable C33all equal 83.4272817309865

variable C44all equal ${C44}
variable C44all equal 29.4418693417448
variable C55all equal ${C55}
variable C55all equal 29.2047478499322
variable C66all equal ${C66}
variable C66all equal 19.4434500550635

variable C12all equal 0.5*(${C12}+${C21})
variable C12all equal 0.5*(34.2751702481946+${C21})
variable C12all equal 0.5*(34.2751702481946+45.4230214168782)
variable C13all equal 0.5*(${C13}+${C31})
variable C13all equal 0.5*(38.4800651396225+${C31})
variable C13all equal 0.5*(38.4800651396225+41.2730277896992)
variable C23all equal 0.5*(${C23}+${C32})
variable C23all equal 0.5*(17.8532284441145+${C32})
variable C23all equal 0.5*(17.8532284441145+20.0481476982556)

variable C14all equal 0.5*(${C14}+${C41})
variable C14all equal 0.5*(0.91661033285035+${C41})
variable C14all equal 0.5*(0.91661033285035+6.41663885127431)
variable C15all equal 0.5*(${C15}+${C51})
variable C15all equal 0.5*(-0.720607374140947+${C51})
variable C15all equal 0.5*(-0.720607374140947+-10.7725110874244)
variable C16all equal 0.5*(${C16}+${C61})
variable C16all equal 0.5*(-1.6921003684816+${C61})
variable C16all equal 0.5*(-1.6921003684816+7.02269401080534)

variable C24all equal 0.5*(${C24}+${C42})
variable C24all equal 0.5*(-12.0798850537687+${C42})
variable C24all equal 0.5*(-12.0798850537687+1.21980392871295)
variable C25all equal 0.5*(${C25}+${C52})
variable C25all equal 0.5*(0.24366801159805+${C52})
variable C25all equal 0.5*(0.24366801159805+-9.57805651670343)
variable C26all equal 0.5*(${C26}+${C62})
variable C26all equal 0.5*(21.4210924498742+${C62})
variable C26all equal 0.5*(21.4210924498742+-9.81942758579227)

variable C34all equal 0.5*(${C34}+${C43})
variable C34all equal 0.5*(-6.7983849301763+${C43})
variable C34all equal 0.5*(-6.7983849301763+4.85684735605934)
variable C35all equal 0.5*(${C35}+${C53})
variable C35all equal 0.5*(2.20554173326485+${C53})
variable C35all equal 0.5*(2.20554173326485+-0.0267634655148505)
variable C36all equal 0.5*(${C36}+${C63})
variable C36all equal 0.5*(13.6059406583135+${C63})
variable C36all equal 0.5*(13.6059406583135+-2.53032479582648)

variable C45all equal 0.5*(${C45}+${C54})
variable C45all equal 0.5*(3.9919443522717+${C54})
variable C45all equal 0.5*(3.9919443522717+-0.0651592241632495)
variable C46all equal 0.5*(${C46}+${C64})
variable C46all equal 0.5*(-2.61321891419291+${C64})
variable C46all equal 0.5*(-2.61321891419291+2.03494377336761)
variable C56all equal 0.5*(${C56}+${C65})
variable C56all equal 0.5*(-11.9561730706052+${C65})
variable C56all equal 0.5*(-11.9561730706052+-1.91985639779395)

print "${C11all} ${C12all} ${C13all} ${C14all} ${C15all} ${C16all}"     file C.log screen no
print "${C12all} ${C22all} ${C23all} ${C24all} ${C25all} ${C26all}"    append C.log screen no
print "${C13all} ${C23all} ${C33all} ${C34all} ${C35all} ${C36all}"    append C.log screen no
print "${C14all} ${C24all} ${C34all} ${C44all} ${C45all} ${C46all}"    append C.log screen no
print "${C15all} ${C25all} ${C35all} ${C45all} ${C55all} ${C56all}"    append C.log screen no
print "${C16all} ${C26all} ${C36all} ${C46all} ${C56all} ${C66all}"    append C.log screen no

Total wall time: 0:28:55
