ITEM: TIMESTEP
0
ITEM: NUMBER OF ATOMS
310
ITEM: BOX BOUNDS xy xz yz pp pp pp
-9.0288000000000004e+00 1.5411400000000000e+01 -7.2027000000000001e+00
0.0000000000000000e+00 1.3079499999999999e+01 -1.8261000000000001e+00
0.0000000000000000e+00 1.7503399999999999e+01 3.3839999999999998e-01
ITEM: ATOMS id type x y z q
179 3 -2.98343 5.90531 4.85006 -0.799707
1 4 3.01355 0.42454 0.635056 0.989725
25 2 1.86445 1.95295 5.06766 0.158513
26 2 1.52669 3.35112 3.84311 0.153656
27 2 2.849 3.55753 5.17299 0.145562
42 1 2.28468 2.83656 4.50758 -0.660078
48 3 2.92523 0.84239 2.20992 -0.744495
71 4 -1.35932 2.27334 3.5621 0.74362
72 2 -0.0721564 1.45874 4.32043 -0.018793
73 2 -1.6994 3.87056 1.75207 0.178219
74 2 0.0432442 3.09553 1.67386 0.135436
75 2 -0.391377 4.3292 3.08681 0.151473
76 1 -0.774892 3.54333 2.32509 -0.670602
110 2 2.93216 5.49722 7.34389 -0.0568131
150 4 -0.860729 4.64303 8.2419 0.853324
159 2 0.709233 5.45206 4.58438 -0.0551884
163 2 0.811947 4.29847 6.39102 0.147766
164 2 -0.47839 2.9279 6.5294 0.194367
165 2 0.964915 3.00212 7.75133 0.188905
175 1 0.268627 3.58426 7.07633 -0.66982
180 3 -1.92134 5.39422 7.37068 -0.754168
195 2 -2.59101 5.94473 0.897319 0.23043
196 2 -1.12018 6.37578 2.00986 0.167278
280 2 2.86144 0.304703 6.57945 0.149358
286 2 0.623198 0.150943 2.75214 0.176486
301 2 -0.548461 1.48897 8.68022 0.188532
161 2 2.09782 6.48433 1.87194 -0.0107794
287 2 0.907413 1.32192 0.0716603 0.143794
3 4 3.59952 2.11622 3.25251 1.0747
4 4 5.19763 4.29642 1.64433 1.4975
9 4 6.19998 6.27637 3.77736 1.37744
10 4 9.09376 5.75405 0.308932 1.57158
12 4 8.56558 6.29429 5.83157 1.54795
19 2 8.5146 2.40624 7.44045 -0.0398009
22 2 5.85727 1.03354 3.46448 0.159226
23 2 4.7273 0.559312 4.89294 0.149837
24 2 5.55074 2.25147 4.86027 0.164592
29 2 8.97185 2.3227 4.2753 0.15136
30 2 7.75963 2.44886 2.84015 0.184828
31 2 8.04016 3.92724 3.96235 0.234999
32 2 4.21635 5.74085 5.21023 0.140074
41 1 5.13695 1.39419 4.25445 -0.66202
44 1 8.48591 2.99734 3.50998 -0.670467
49 3 4.09953 3.33949 2.39215 -0.801727
50 3 6.05164 3.34329 0.625901 -0.812798
51 3 4.34901 5.51428 0.783715 -0.793117
57 3 6.11876 4.9597 2.80979 -0.815564
58 3 9.23228 4.19369 0.969642 -0.823452
61 3 7.14385 5.9845 5.04692 -0.84708
62 3 8.79464 5.00859 6.91254 -0.811515
99 4 4.07964 4.6621 8.28751 0.722673
115 2 5.87235 4.70663 6.51272 0.195277
116 2 4.72731 3.15299 6.65704 0.150974
117 2 6.07558 3.51618 8.01609 0.162523
128 1 5.37975 3.94993 7.19791 -0.6732
292 2 6.72314 1.01078 7.30301 0.155644
293 1 6.3031 0.372567 8.13793 -0.648879
310 3 6.88816 0.775998 0.824562 -0.827553
17 2 9.26658 0.354684 0.720622 -0.0223431
2 4 11.0917 6.08217 3.91978 1.6311
5 4 10.7101 0.696914 1.50178 0.880301
6 4 12.9731 0.235725 7.59275 1.28691
7 4 11.7874 2.24563 5.592 1.24655
8 4 9.92083 3.59725 2.33013 1.35999
11 4 9.61118 3.68691 7.16415 1.07034
18 2 11.0101 1.01868 4.74162 -0.0534148
35 2 11.306 4.82389 8.51729 0.227908
46 1 10.6759 3.90728 8.74137 -0.671433
52 3 11.9334 0.359458 0.543809 -0.781966
53 3 12.992 2.76254 4.6288 -0.760916
54 3 12.3569 1.59231 6.94113 -0.823878
55 3 10.6674 2.16696 2.04545 -0.837905
56 3 10.8031 4.71572 3.06855 -0.816642
59 3 10.6185 3.25492 6.00151 -0.798652
60 3 9.79198 6.41794 4.80196 -0.830902
274 2 13.3892 1.01613 2.62149 -0.0243164
275 2 14.3832 1.39933 0.219577 -0.0527608
279 2 -6.19373 12.7205 6.80289 0.217681
83 2 -4.98865 11.2763 6.68215 0.167968
87 1 -5.13511 12.3506 6.9907 -0.669231
153 4 -3.76575 8.35627 8.18312 1.04464
158 2 -5.06056 9.43056 7.89711 -0.0112908
182 3 -3.26437 7.75667 6.79566 -0.791808
199 3 -3.89755 7.31299 2.89522 -0.791516
200 3 -3.45614 9.13601 0.928839 -0.815027
202 2 -3.85153 10.5943 3.01789 0.189108
203 2 -4.2089 9.71656 4.6521 0.198601
204 2 -4.27017 11.6024 4.55463 0.173819
205 2 -6.54781 11.6778 1.32473 0.195948
206 1 -4.40268 10.6251 4.00305 -0.660455
309 3 -4.41892 11.6052 0.287207 -0.831627
152 4 -2.27751 6.5922 6.12366 1.48077
154 4 0.488832 7.0629 4.97749 0.930515
155 4 1.51111 8.02659 2.30222 0.976366
160 2 1.76562 7.22214 6.04831 -0.0571378
166 2 0.642395 6.66321 8.31326 0.158284
169 2 -2.04712 10.1264 8.16756 0.148135
172 2 2.62843 10.2038 2.47887 0.135127
178 1 3.02916 9.14605 2.54241 -0.671109
183 3 -0.851884 7.27257 5.7288 -0.811982
184 3 0.739527 7.93607 3.7026 -0.81669
185 3 0.677326 8.64543 1.04402 -0.777382
193 4 -2.87516 8.09866 2.00093 1.11604
194 2 -1.77618 8.94688 2.99711 0.00308231
197 2 -1.29249 7.19049 0.315942 0.196045
198 1 -1.82803 6.73355 1.19735 -0.658154
211 4 -0.465296 12.0116 1.25175 0.90353
212 2 -1.90326 11.679 2.03547 -0.0299318
213 2 0.561955 11.6712 2.526 -0.0729624
214 3 -0.247964 10.9937 0.0608048 -0.794963
222 4 1.34631 10.9225 6.06093 0.690152
223 2 2.06402 12.1725 5.15754 -0.0591871
224 2 2.39683 9.61407 5.76631 -0.0473011
228 2 -0.786937 9.78409 6.11708 0.210016
229 2 -0.171092 10.2662 4.36872 0.160096
230 2 -0.872434 11.6193 5.54479 0.148498
232 1 -0.356796 10.6016 5.447 -0.664512
233 3 1.28551 11.3254 7.62194 -0.728907
294 2 -1.54125 12.2651 7.75706 0.15787
13 4 7.84264 8.08409 1.94817 1.58015
14 4 7.26454 8.47862 7.44099 0.9903
15 4 6.77138 10.8024 5.60201 1.26931
20 2 7.99 9.3969 8.64161 0.0189634
21 2 6.27485 7.47746 8.35422 -0.0478786
33 2 3.72271 6.6518 3.64478 0.156547
34 2 4.50766 7.59374 5.07119 0.164397
38 2 5.57568 9.89188 3.59252 0.214271
39 2 5.52742 11.7738 3.66472 0.139179
40 2 4.42018 10.7593 4.80148 0.134626
45 1 4.42041 6.61126 4.52577 -0.677558
47 1 5.39784 10.8094 4.23499 -0.674221
63 3 6.58908 7.63598 2.93424 -0.810741
64 3 8.66491 6.82093 1.41891 -0.835237
65 3 8.82241 9.131 2.75368 -0.785113
66 3 7.25652 8.96324 0.653125 -0.79332
67 3 8.39117 7.65043 6.75814 -0.827326
68 3 8.23775 10.6699 4.8449 -0.783543
69 3 6.37851 9.3781 6.52376 -0.80173
70 3 6.72777 12.1991 6.48275 -0.804024
173 2 3.73591 8.88805 1.69756 0.169129
174 2 3.45516 8.89334 3.55904 0.160417
201 4 9.1196 10.4811 3.52245 1.18922
207 1 8.44582 11.9178 2.34083 -0.659972
267 2 3.66313 9.39988 7.87983 -0.0261054
270 3 4.64355 11.8936 8.15146 -0.808083
278 2 3.46634 12.3423 2.77321 -0.0574469
285 2 7.31839 11.833 2.37816 0.165081
263 2 4.56723 10.0829 0.0816733 0.17136
146 2 -3.11976 5.09483 13.1919 0.146111
149 3 -4.26756 5.54983 15.9239 -0.750878
162 2 -3.05983 5.38842 10.8328 -0.0369073
16 2 2.63089 1.34477 17.3133 0.0163688
144 2 -2.85767 3.25868 15.5118 -0.0732706
94 4 0.301466 3.07033 12.0365 0.620874
95 4 2.67883 2.44958 10.2373 1.40131
98 4 2.38029 6.16225 16.724 1.02606
103 2 -0.396907 1.55809 11.9236 -0.0115371
104 2 -0.8742 4.15822 11.5622 -0.0543733
105 2 0.511792 3.35274 13.6704 -0.0782037
108 2 1.95868 4.72496 15.8945 -0.057987
111 2 2.89778 3.719 13.7997 -0.027583
118 2 0.41174 6.25187 11.8766 0.157972
120 2 0.834698 6.25374 13.7117 0.135735
132 3 1.89315 1.2663 9.27096 -0.781004
133 3 1.60107 3.19564 11.2258 -0.792029
142 4 -2.84155 4.95928 15.5743 0.693369
143 2 -1.72678 5.26041 16.8259 -0.0423391
147 2 -1.29707 5.15885 13.8152 0.111475
148 1 -2.36254 5.56153 13.907 -0.669044
156 2 -1.59996 3.65831 9.42619 -0.02828
167 2 0.97915 5.42971 9.70466 0.170006
176 1 0.200031 6.00957 9.12343 -0.668473
219 2 3.00673 2.464 15.8681 0.141503
276 2 2.23686 1.11411 13.6457 -0.0266264
288 2 0.25011 1.74545 16.0713 0.123354
289 2 0.383916 3.04409 17.445 0.148663
290 1 0.109567 1.97615 17.1705 -0.686018
303 2 -0.922897 0.641553 13.7884 0.143333
97 4 5.234 2.18351 11.7939 1.17549
100 4 4.19899 4.63475 13.2385 1.23393
102 4 5.16201 6.38862 15.4882 1.2645
106 2 8.41594 0.702106 12.719 -0.0602519
107 2 6.42307 2.23755 10.5967 -0.037399
109 2 4.73748 5.9676 9.17727 -0.0345849
114 2 7.41493 1.4948 15.5824 0.13119
127 1 7.30939 0.395366 15.3239 -0.679005
134 3 3.87223 1.65999 11.1256 -0.813496
135 3 5.78412 1.15609 12.9689 -0.78856
136 3 3.40377 3.59939 9.22552 -0.774978
137 3 5.12151 3.702 12.3169 -0.811908
138 3 3.54776 5.93096 12.4914 -0.786451
139 3 5.01019 5.1222 14.5266 -0.825585
140 3 6.17127 6.13306 16.6552 -0.844246
187 4 8.73653 3.77103 13.9246 0.638673
190 2 7.20858 3.20493 13.5512 0.0121122
191 3 8.75953 6.52462 17.0851 -0.800329
192 3 8.72397 5.05808 14.7723 -0.785678
215 4 5.03744 2.48707 17.4808 1.06827
216 2 6.62671 2.96078 17.0617 0.0192975
217 2 3.91052 0.786704 15.9406 0.161042
218 2 4.84227 2.33789 15.2201 0.152869
220 1 3.98614 1.91578 15.9881 -0.658927
247 4 8.27929 6.42845 10.945 0.815928
249 2 8.00941 3.94216 10.6907 0.141669
250 2 7.87023 4.86488 9.04688 0.180545
251 2 6.43272 4.88399 10.2759 0.169317
252 2 7.32608 6.12529 13.2279 0.213289
255 1 7.55279 4.8113 10.1333 -0.674738
291 2 5.81051 0.974324 8.94863 0.146845
297 2 8.4379 1.8186 9.66078 0.130059
298 1 9.07578 0.887732 9.59018 -0.669716
28 2 13.3449 1.35029 9.78133 0.177672
36 2 11.2915 2.96072 8.8399 0.180962
37 2 9.948 4.05956 9.59148 0.165834
43 1 14.0626 0.813022 9.09405 -0.652463
91 4 10.9943 1.6144 17.147 0.594244
92 2 11.093 1.06198 15.5731 -0.0615036
93 2 10.4608 3.19512 17.0314 -0.0106445
186 4 9.52401 6.14893 15.7139 1.27307
188 2 9.5207 2.50043 14.6739 -0.0742187
189 2 9.54722 3.94372 12.4748 -0.0228959
241 2 11.5305 2.49045 13.1293 0.11752
242 2 11.0924 1.85518 11.4132 0.15413
243 2 12.8622 2.33251 11.8155 0.132963
244 2 13.1186 0.842237 15.0608 0.121322
245 1 11.8834 1.93822 12.21 -0.662176
257 3 9.84928 6.2354 11.3108 -0.781749
295 2 9.90619 0.972038 8.83216 0.182474
296 2 9.42908 0.514369 10.5951 0.135747
77 4 -5.0351 12.4756 8.88957 1.01634
78 4 -6.27047 10.6815 11.0262 1.18587
79 4 -5.1346 12.1614 13.5311 0.727264
80 2 -3.40609 12.0535 9.20269 -0.0327097
81 2 -6.08092 11.8144 14.9079 -0.0542986
82 2 -5.20213 9.39401 11.1999 -0.0410314
84 2 -3.87661 10.0302 13.6393 0.14999
85 2 -3.1184 11.4549 14.6569 0.153473
86 2 -3.03784 11.5151 12.7371 0.163721
88 1 -3.59894 11.1345 13.6783 -0.667727
89 3 -6.01112 11.3428 9.56077 -0.810361
90 3 -5.87094 11.7133 12.208 -0.784305
151 4 -4.13118 6.66737 10.7518 0.903734
157 2 -3.39832 7.73283 11.809 -0.0444772
181 3 -4.14372 7.32353 9.33607 -0.812255
208 4 -5.85419 10.4775 17.3886 0.956312
210 2 -4.74496 10.5775 16.1492 -0.0371716
238 2 -3.02521 9.15535 15.8834 0.163415
282 2 -5.21474 7.441 13.6865 0.178793
283 2 -4.85247 8.3614 15.2881 0.148384
284 1 -5.60829 7.75897 14.6996 -0.661766
96 4 -0.234144 12.9862 13.5012 0.689737
101 4 2.66391 7.24213 12.3125 0.807362
112 2 3.14528 8.46181 13.4136 -0.0430681
119 2 0.29008 7.84831 12.8679 0.143515
121 2 2.22519 8.91551 10.5198 0.136097
122 2 2.36426 7.16378 9.82646 0.162256
124 2 0.770021 7.54898 15.3836 0.149265
125 2 1.14614 8.1723 17.1271 0.168281
126 2 -0.0489197 6.73135 16.8761 0.14221
129 1 0.803774 6.84857 12.752 -0.659823
130 1 2.80281 7.94112 10.5203 -0.672298
131 1 0.851357 7.28771 16.4795 -0.677852
145 2 -2.4389 6.69684 14.0219 0.160992
168 2 -0.528667 6.56622 9.78649 0.146908
170 2 -1.46092 8.54413 9.00707 0.173378
171 2 -2.63156 9.71488 9.91376 0.131825
177 1 -2.28963 9.31404 8.91288 -0.673523
221 4 0.664924 12.2084 8.93476 0.84588
225 2 0.122494 9.90444 9.78734 0.178562
226 2 -0.785025 11.2449 10.7537 0.140198
227 2 1.05496 10.9432 11.0597 0.128193
231 1 0.198903 10.9002 10.3229 -0.655604
234 4 -1.20001 9.99016 17.2493 0.968328
235 2 0.410918 10.4097 16.8637 -0.0256528
236 2 -1.55618 7.96893 15.8053 0.165814
237 2 -1.49584 9.60911 14.8672 0.145096
239 1 -1.90745 9.04307 15.7578 -0.652745
261 2 3.06313 9.15335 16.141 0.182077
262 2 2.95297 11.0584 15.7819 0.14287
268 2 2.95559 10.8322 9.87987 -0.0236008
277 2 -0.376158 11.35 13.0464 -0.0369427
299 2 1.03607 12.5162 15.5495 0.138827
300 2 -0.886473 12.6502 15.704 0.170704
306 2 2.83486 11.7511 12.3684 0.134439
307 2 2.94668 12.4501 14.1121 0.126758
264 1 3.17922 10.242 16.5413 -0.669847
240 4 5.07258 12.8256 12.7751 0.876833
246 1 6.35964 12.9337 14.2558 -0.657583
209 2 8.31009 9.76753 16.5452 -0.0328611
113 2 5.77487 7.68236 14.5959 -0.0397913
123 2 3.92265 8.07949 10.3917 0.156966
141 3 3.67392 6.84404 16.0044 -0.819094
248 2 8.09575 7.71736 9.85849 -0.0350008
253 2 6.11542 7.01558 12.0868 0.156643
254 2 7.59748 7.94691 12.8024 0.158396
256 1 7.17839 6.95122 12.4712 -0.674743
258 4 4.99111 10.1689 16.93 0.757896
259 2 5.51761 11.7817 17.1222 -0.0349171
260 2 5.87008 9.73423 15.5342 -0.0645597
265 4 4.29354 10.567 8.90864 0.981091
266 4 6.13306 10.3122 11.16 1.16738
269 2 5.45025 9.25935 12.2941 -0.0500083
271 3 7.70139 10.0371 11.2142 -0.833806
272 3 5.45834 9.90316 9.74327 -0.833422
273 3 5.71675 11.906 11.6209 -0.755672
281 2 8.79322 8.25819 14.6389 0.139856
302 2 7.28465 12.6198 9.5602 0.244436
304 2 6.50978 11.8628 14.5811 0.135684
305 2 3.81234 10.8339 13.6881 0.132259
308 1 3.44785 11.8362 13.3144 -0.666552
ITEM: TIMESTEP
100
ITEM: NUMBER OF ATOMS
310
ITEM: BOX BOUNDS xy xz yz pp pp pp
-9.0691589785824949e+00 1.5432829280191916e+01 -7.2499430857468692e+00
2.1516687181293292e-02 1.3032832977635422e+01 -1.7977866126436988e+00
-2.2648102260466985e-02 1.7526048102260471e+01 3.1324966481670563e-01
ITEM: ATOMS id type x y z q
179 3 -3.02047 5.72025 4.8685 -0.802288
1 4 2.80926 0.393877 0.720874 0.98357
25 2 1.99196 1.85899 5.15552 0.164831
26 2 1.61014 3.27372 3.98495 0.154335
27 2 2.97742 3.47073 5.30746 0.145664
42 1 2.35434 2.75256 4.66408 -0.66694
48 3 2.96619 1.06816 2.29535 -0.779826
71 4 -1.43524 2.11644 3.5926 0.742934
72 2 0.0557632 1.68218 4.41858 -0.0122089
73 2 -1.61233 3.25895 1.61599 0.12956
74 2 0.236815 3.58062 2.15325 0.141795
75 2 -1.1909 4.45485 3.13464 0.188408
76 1 -0.842801 3.50193 2.5024 -0.662609
110 2 2.92303 5.54398 7.46393 -0.0525182
150 4 -0.934366 4.44394 8.12119 0.864802
159 2 0.629016 5.3355 4.49166 -0.0451796
163 2 1.28378 4.23805 6.80079 0.148545
164 2 -0.291977 3.32995 6.16375 0.171298
165 2 0.731095 2.60009 7.5599 0.187063
175 1 0.394274 3.5298 7.08178 -0.664255
180 3 -1.84927 5.35394 7.26862 -0.766718
195 2 -2.50285 6.21183 0.832882 0.203176
196 2 -0.907941 6.52234 2.09568 0.16597
280 2 2.62154 0.426788 6.37411 0.151258
286 2 0.913317 0.220832 2.62056 0.18371
301 2 -0.347174 1.43382 8.43967 0.179889
161 2 2.73854 6.82631 2.05734 0.00243624
287 2 -0.891003 1.47377 17.2763 0.115902
3 4 3.64567 2.12556 3.33717 1.11417
4 4 5.24732 4.30583 1.70575 1.50802
9 4 6.33893 6.32402 3.74289 1.3679
10 4 9.07761 5.86865 0.276542 1.53041
12 4 8.68392 6.38996 5.87235 1.51631
19 2 9.10174 2.62535 8.63128 0.00578698
22 2 5.89551 0.961046 3.33949 0.161371
23 2 4.88295 0.387198 4.74667 0.147671
24 2 5.80894 1.98339 4.86379 0.150845
29 2 8.59665 2.54749 4.21226 0.167595
30 2 7.38853 3.24587 2.9977 0.232533
31 2 8.29679 4.42259 4.14202 0.251555
32 2 4.64633 5.49013 5.31349 0.154548
41 1 5.23121 1.25661 4.16477 -0.665533
44 1 8.30577 3.41408 3.57635 -0.675652
49 3 4.22986 3.39542 2.58967 -0.801411
50 3 6.0249 3.25056 0.695988 -0.796425
51 3 4.3099 5.36228 0.807576 -0.814993
57 3 6.25932 5.14725 2.69043 -0.837844
58 3 9.03047 4.24719 0.906689 -0.795362
61 3 7.37339 6.13896 4.9392 -0.848978
62 3 8.8543 5.04167 6.92934 -0.806415
99 4 4.11677 4.7042 8.3463 0.722053
115 2 5.91462 4.84586 6.9094 0.151151
116 2 4.71434 3.48696 6.25665 0.150045
117 2 5.77401 3.15434 7.76826 0.166851
128 1 5.24007 3.92049 7.15678 -0.670598
292 2 6.07667 1.11473 7.88646 0.144113
293 1 -1.42393 12.8352 8.38252 -0.646648
310 3 7.00653 0.814523 0.858586 -0.832119
17 2 2.00301 12.4723 1.19762 -0.00161836
2 4 11.1622 6.08078 3.91094 1.56659
5 4 10.6501 0.598306 1.57988 0.929699
6 4 13.167 0.337376 7.57267 1.2311
7 4 11.7492 2.14119 5.56641 1.27678
8 4 9.67595 3.63751 2.25969 1.304
11 4 9.6893 3.70904 7.2984 1.0771
18 2 11.044 0.75761 4.89039 -0.0438289
35 2 11.4353 4.74681 8.40357 0.190329
46 1 10.6908 3.901 8.84736 -0.684498
52 3 11.6324 0.424036 0.398848 -0.796865
53 3 12.8099 2.50469 4.53679 -0.809927
54 3 12.461 1.68556 6.93286 -0.797095
55 3 10.2525 2.01578 1.98984 -0.816704
56 3 10.7745 4.77179 2.92269 -0.779554
59 3 10.4471 2.93963 6.13554 -0.814905
60 3 9.86031 6.4631 4.78296 -0.822488
274 2 13.7045 0.705845 2.74704 -0.0502882
275 2 14.2032 1.36729 0.604861 -0.0667585
279 2 -6.40326 12.6242 6.89104 0.203061
83 2 -5.03386 11.3585 6.52673 0.186083
87 1 -5.22964 12.3454 6.92522 -0.676172
153 4 -3.92374 8.39801 8.07865 1.04939
158 2 -5.29315 9.24732 7.52485 0.0298329
182 3 -3.25242 7.73471 6.79555 -0.820667
199 3 -3.77045 7.40502 2.95603 -0.789623
200 3 -3.34388 9.30351 0.972354 -0.80278
202 2 -3.77565 10.6161 2.87747 0.203874
203 2 -3.96487 10.0893 4.68197 0.185543
204 2 -4.13511 11.8807 4.20202 0.174114
205 2 -6.73876 11.7014 1.32337 0.170635
206 1 -4.25203 10.8172 3.88404 -0.659548
309 3 -4.33755 11.5679 0.345136 -0.852408
152 4 -2.31697 6.58646 6.08911 1.45739
154 4 0.47071 6.98065 4.9308 0.935821
155 4 1.61871 8.11078 2.39605 0.982172
160 2 1.70315 7.09067 6.04383 -0.0592587
166 2 0.381749 6.64606 8.55091 0.164732
169 2 -2.80548 10.463 8.4914 0.124623
172 2 2.59835 10.193 2.13065 0.140438
178 1 3.10703 9.23932 2.66294 -0.663226
183 3 -0.917065 7.23946 5.5359 -0.806744
184 3 0.846514 7.89426 3.71376 -0.845988
185 3 1.02726 8.72564 0.943897 -0.752835
193 4 -2.81102 8.13841 2.00943 1.09145
194 2 -1.25198 8.49732 2.66335 0.0375351
197 2 -0.919381 7.47884 0.425114 0.197319
198 1 -1.51594 6.95678 1.25193 -0.660422
211 4 -0.652042 12.0722 1.32679 0.931917
212 2 -2.20413 11.9596 1.92664 -0.00777337
213 2 0.154452 11.8117 2.72726 -0.0560499
214 3 -0.283291 10.8804 0.36637 -0.789509
222 4 1.2815 10.893 5.9378 0.663574
223 2 1.89462 12.0914 4.89546 -0.0608836
224 2 2.30261 9.58742 5.65167 -0.0558179
228 2 -0.931651 9.85762 6.32368 0.202093
229 2 -0.296914 9.8713 4.53354 0.178857
230 2 -0.882028 11.4808 5.33475 0.139581
232 1 -0.443495 10.4572 5.51086 -0.663052
233 3 1.21571 11.3828 7.53856 -0.71398
294 2 -1.86436 12.0806 7.64936 0.158819
13 4 7.89773 8.23077 1.92907 1.5178
14 4 7.25143 8.44454 7.4672 0.97035
15 4 6.82038 10.8092 5.56947 1.25038
20 2 7.68682 9.21593 8.8804 0.0241693
21 2 6.14316 7.42794 8.19702 -0.0708562
33 2 3.8797 6.33546 3.85484 0.160328
34 2 4.63092 7.37862 5.24243 0.146708
38 2 5.91115 10.399 3.31318 0.199359
39 2 5.19626 11.9259 4.11818 0.132485
40 2 4.58395 10.2226 4.67321 0.141075
45 1 4.6343 6.38387 4.64717 -0.682065
47 1 5.47429 10.8486 4.22697 -0.679203
63 3 6.62446 7.86233 2.91026 -0.788059
64 3 8.71169 6.93487 1.36953 -0.830407
65 3 9.03116 9.21254 2.67862 -0.778095
66 3 7.36761 9.21271 0.602431 -0.795105
67 3 8.49204 7.75928 6.83448 -0.83707
68 3 8.4073 10.6449 4.85728 -0.771054
69 3 6.40074 9.48298 6.66691 -0.815186
70 3 6.73636 12.1909 6.37977 -0.817594
173 2 3.98206 8.81508 2.06087 0.181157
174 2 3.28946 9.32546 3.74548 0.148926
201 4 -6.20027 10.5278 3.50718 1.18226
207 1 -6.86732 11.9739 2.38531 -0.680245
267 2 4.44408 9.43647 7.41705 -0.00521533
270 3 4.71766 11.9029 8.29677 -0.772858
278 2 3.92697 12.4752 2.95489 -0.0541323
285 2 7.48982 11.9898 2.73579 0.147774
263 2 2.79342 10.8101 17.4434 0.167797
146 2 -2.94028 4.75043 13.4014 0.13227
149 3 -4.13609 5.63195 15.9274 -0.732067
162 2 -2.92927 5.4924 10.4504 -0.0419346
16 2 2.39009 1.4084 17.4301 0.0364599
144 2 -2.6555 3.42414 15.8617 -0.0731496
94 4 0.172663 3.09464 12.0921 0.612412
95 4 2.52429 2.43518 10.2633 1.41092
98 4 2.33102 6.21091 16.8664 1.04846
103 2 -0.993776 1.98863 11.7011 -0.0293491
104 2 -0.662367 4.5493 12.1972 -0.0372221
105 2 0.685203 2.90205 13.6525 -0.070798
108 2 1.50512 4.9653 15.9976 -0.0472009
111 2 3.10196 3.33845 13.7823 -0.0240139
118 2 0.187308 6.44832 11.5934 0.158752
120 2 0.607426 6.0396 13.3664 0.146765
132 3 1.74657 1.28467 9.39521 -0.788073
133 3 1.42052 3.21464 11.1539 -0.779115
142 4 -2.70216 5.07662 15.6461 0.703165
143 2 -1.4965 5.58977 16.7978 -0.0409123
147 2 -1.09992 5.25401 14.0632 0.0950542
148 1 -2.2505 5.5542 13.9425 -0.64909
156 2 -1.79349 3.22802 9.01964 -0.0144104
167 2 1.03682 4.98613 9.19133 0.181242
176 1 0.132905 5.70761 9.1059 -0.65573
219 2 2.96124 2.63178 16.1422 0.157883
276 2 2.29007 1.04797 13.1987 0.000757689
288 2 0.515311 1.44921 15.9282 0.130933
289 2 0.358201 2.91457 17.1061 0.144452
290 1 0.206771 1.81693 16.9667 -0.689448
303 2 -0.957409 1.05703 13.6293 0.132658
97 4 5.12958 2.1192 11.7638 1.1566
100 4 4.23723 4.48238 13.3109 1.19675
102 4 5.06416 6.36363 15.4713 1.22531
106 2 8.41667 0.630346 12.7674 -0.0469332
107 2 6.1466 2.07381 10.3699 -0.028918
109 2 4.79333 6.06089 9.12905 -0.0459571
114 2 7.43847 1.81655 15.5201 0.141739
127 1 7.55877 0.718389 15.1324 -0.640894
134 3 3.65368 1.72315 11.2345 -0.828563
135 3 5.76831 1.2054 12.8451 -0.817257
136 3 3.38046 3.62845 9.22976 -0.753911
137 3 5.27185 3.76846 12.2825 -0.790989
138 3 3.44227 5.79141 12.6764 -0.790113
139 3 4.98081 4.94688 14.6636 -0.80798
140 3 6.22638 6.30853 16.567 -0.829984
187 4 8.79078 3.60088 13.9578 0.647977
190 2 7.3155 3.56318 13.2166 0.0330076
191 3 8.88939 6.42211 17.1887 -0.807234
192 3 8.99505 4.80302 14.901 -0.792052
215 4 5.03251 2.38999 17.4992 1.08073
216 2 6.51121 2.98418 16.9461 0.0360066
217 2 3.4617 0.826233 16.0668 0.14289
218 2 4.57514 2.16709 15.2623 0.152381
220 1 3.80619 1.8901 16.0813 -0.680064
247 4 8.41822 6.40689 10.9606 0.784906
249 2 8.11638 3.95884 10.0199 0.160397
250 2 7.4174 5.4826 9.1626 0.134134
251 2 6.66534 4.81119 10.8023 0.191353
252 2 7.89508 6.33514 13.5523 0.205399
255 1 7.59261 4.90462 10.1599 -0.675475
291 2 5.3019 0.288085 9.36404 0.145098
297 2 8.13528 1.75012 9.9682 0.123105
298 1 8.82948 0.853356 9.7092 -0.649522
28 2 -1.66342 1.62114 9.72007 0.169762
36 2 11.2462 2.86343 9.01554 0.170056
37 2 10.1481 4.24335 9.749 0.191468
43 1 -1.20213 0.932492 9.03836 -0.659914
91 4 10.9827 1.57142 17.3132 0.595696
92 2 11.4275 0.927266 15.8398 -0.0587297
93 2 10.5362 3.10674 16.9557 -0.0122542
186 4 9.58118 6.02002 15.8314 1.28419
188 2 8.93051 2.10819 14.6764 -0.0327156
189 2 9.89958 3.53972 12.6846 -0.0234553
241 2 11.81 2.53688 12.7952 0.12935
242 2 10.7512 1.42466 11.6193 0.143787
243 2 12.5308 2.11076 11.063 0.145488
244 2 13.1059 1.03139 14.8538 0.124483
245 1 11.8404 1.81913 11.9738 -0.655438
257 3 10.0005 6.09561 11.2567 -0.779251
295 2 9.75797 1.07845 9.18999 0.189972
296 2 1.72943 12.7552 10.6571 0.113113
77 4 -5.10884 12.4653 8.8035 1.00739
78 4 -6.26258 10.541 10.8634 1.18068
79 4 -5.23757 12.1296 13.4219 0.733161
80 2 -3.33708 12.3802 8.65421 -0.00506014
81 2 -6.30812 12.0737 14.7473 -0.0592724
82 2 -5.21184 9.16755 10.9583 -0.0211843
84 2 -4.09171 10.157 13.9072 0.145533
85 2 -3.29838 11.8811 14.531 0.116767
86 2 -2.8885 11.0826 12.7885 0.157945
88 1 -3.68965 11.1667 13.5855 -0.643006
89 3 -5.89743 11.2041 9.41816 -0.819968
90 3 -5.88267 11.5272 12.1233 -0.775128
151 4 -4.11085 6.62333 10.6224 0.907724
157 2 -3.25627 7.6673 11.7017 -0.0410687
181 3 -4.31806 7.42899 9.27876 -0.808206
208 4 -6.02355 10.416 17.5055 0.972369
210 2 -5.34243 10.2857 15.9724 -0.0530304
238 2 -3.33744 9.27715 16.1655 0.160173
282 2 9.69043 7.24744 13.7667 0.186931
283 2 -4.82316 8.15108 15.1516 0.159398
284 1 9.64822 7.62487 14.8179 -0.659285
96 4 6.91591 0.261909 13.3947 0.686639
101 4 2.59151 7.03476 12.1855 0.819177
112 2 2.75161 8.4064 13.2419 -0.036087
119 2 0.256972 7.75146 12.8736 0.147779
121 2 2.05707 8.45767 10.2206 0.14161
122 2 2.73466 6.82385 9.59883 0.154312
124 2 0.982439 7.79903 15.4946 0.157274
125 2 0.795852 7.96385 17.3948 0.191776
126 2 -0.0849132 6.56668 16.4409 0.133578
129 1 0.670256 6.80087 12.5358 -0.661034
130 1 2.80401 7.61775 10.3745 -0.665876
131 1 0.772446 7.29417 16.4961 -0.67862
145 2 -2.39851 6.62698 13.6238 0.165078
168 2 -0.300595 5.94595 10.1151 0.142568
170 2 -1.78484 8.94005 8.99892 0.172535
171 2 -3.08073 9.58038 10.2098 0.14479
177 1 -2.72362 9.4871 9.12158 -0.662389
221 4 0.449883 12.1897 8.86285 0.830075
225 2 0.0859699 9.93446 9.70149 0.168924
226 2 -1.1757 11.0617 10.5255 0.162185
227 2 0.625903 11.1651 11.0698 0.121293
231 1 -0.121709 10.8851 10.2547 -0.65045
234 4 -1.3162 9.9694 17.1736 0.969593
235 2 -0.0610791 10.6136 16.2379 -0.0230001
236 2 -2.00186 7.88488 16.0257 0.158868
237 2 -2.05432 9.32833 14.8356 0.161465
239 1 -2.26085 9.02834 15.8423 -0.674843
261 2 3.15524 8.99078 16.7307 0.192683
262 2 2.87939 10.492 15.5365 0.147771
268 2 2.78495 10.3378 9.16457 -0.00425306
277 2 -0.52162 11.3476 12.9478 -0.0455985
299 2 1.38487 12.9261 15.2398 0.142862
300 2 -0.658027 12.6926 15.5766 0.119664
306 2 2.75825 11.7365 12.3548 0.145583
307 2 2.83056 12.6736 13.9488 0.128906
264 1 3.21453 10.1665 16.5557 -0.668051
240 4 5.13823 12.8219 12.6245 0.880707
246 1 13.6731 0.467906 14.0991 -0.660716
209 2 7.88457 9.72655 17.1886 -0.0186876
113 2 5.48508 7.53838 14.3436 -0.0402553
123 2 3.9231 7.96503 10.5639 0.151442
141 3 3.5693 6.77177 16.0706 -0.829453
248 2 7.95037 8.02854 10.7605 0.023295
253 2 6.40026 6.4755 12.4891 0.166386
254 2 7.47257 7.97167 12.8188 0.144513
256 1 7.42503 6.8533 12.674 -0.680951
258 4 5.01389 10.3248 16.9581 0.745104
259 2 5.33249 11.9651 17.0332 -0.0577807
260 2 5.83142 9.9492 15.5015 -0.0645403
265 4 4.40142 10.464 8.7317 0.982394
266 4 6.14411 10.2054 11.136 1.19448
269 2 5.57742 9.1374 12.3905 -0.0478925
271 3 7.73109 9.86451 10.969 -0.846909
272 3 5.25014 9.83197 9.90345 -0.845661
273 3 5.82424 11.7504 11.6385 -0.760402
281 2 8.70465 8.25726 15.0691 0.129041
302 2 -8.11407 12.7039 9.59447 0.232145
304 2 6.81423 12.1757 14.4841 0.136782
305 2 3.64966 11.0101 13.8189 0.138824
308 1 3.3226 11.9167 13.2823 -0.658903
ITEM: TIMESTEP
200
ITEM: NUMBER OF ATOMS
310
ITEM: BOX BOUNDS xy xz yz pp pp pp
-9.1349764679757453e+00 1.5448592787155395e+01 -7.3352158654081965e+00
5.3288108432104409e-02 1.2889295360908626e+01 -1.7625678154121402e+00
-3.1474275735892121e-02 1.7534874275735895e+01 2.0148346934072162e-01
ITEM: ATOMS id type x y z q
179 3 -3.12817 5.64077 4.91695 -0.8086
1 4 2.93923 0.58413 0.588565 1.03393
25 2 1.8242 1.29573 5.15788 0.159493
26 2 1.57544 2.9724 4.14409 0.14813
27 2 2.85813 2.87596 5.58932 0.154949
42 1 2.30069 2.31673 4.74249 -0.644783
48 3 3.01562 1.15446 2.02981 -0.758352
71 4 -1.38059 2.12533 3.59741 0.66589
72 2 -0.0363718 1.82516 4.62846 -0.0147633
73 2 -1.0158 3.37514 1.65428 0.120178
74 2 -0.124563 4.04559 3.30662 0.13101
75 2 -2.0109 4.39054 2.99237 0.231405
76 1 -1.1287 3.7629 2.76778 -0.65508
110 2 3.138 5.75924 7.54187 -0.0495784
150 4 -0.791117 4.1954 8.03985 0.859367
159 2 0.587187 5.22897 4.72986 -0.0332011
163 2 1.16619 4.01126 6.39173 0.161039
164 2 -0.39041 2.93773 6.25138 0.161669
165 2 1.02288 2.51844 7.51802 0.182294
175 1 0.476579 3.34568 6.90119 -0.677517
180 3 -1.63168 5.23833 7.22912 -0.774707
195 2 -2.0881 5.94122 1.29704 0.172724
196 2 -0.329536 6.7319 1.63963 0.202994
280 2 2.49536 0.51663 6.07639 0.159968
286 2 0.319733 0.15677 3.15568 0.153199
301 2 -0.351479 1.61565 8.59048 0.168121
161 2 3.36515 7.39864 1.8649 0.0393387
287 2 -0.962778 1.32932 17.4572 0.128525
3 4 3.71407 2.14527 3.41593 1.05823
4 4 5.13023 4.33925 1.83392 1.49394
9 4 6.40817 6.4825 3.71483 1.34868
10 4 8.9606 5.96364 0.196288 1.53069
12 4 8.71603 6.43324 5.89458 1.49848
19 2 9.23521 3.05927 8.51343 0.0384531
22 2 5.8718 1.14288 3.45193 0.142775
23 2 -2.65533 12.7053 4.51568 0.148463
24 2 5.40227 1.6902 5.24688 0.172256
29 2 8.70736 2.7062 4.29295 0.201382
30 2 7.41496 3.02421 2.95838 0.199128
31 2 8.02781 4.42385 4.09805 0.257022
32 2 4.89322 6.12928 5.72504 0.158747
41 1 5.11009 1.1281 4.33214 -0.670439
44 1 8.25482 3.43799 3.57959 -0.666298
49 3 4.22228 3.60052 2.9745 -0.809633
50 3 5.78645 3.19244 0.880529 -0.823037
51 3 4.12604 5.2596 0.7303 -0.801165
57 3 6.20801 5.26644 2.61112 -0.823298
58 3 8.79676 4.26082 0.841605 -0.780238
61 3 7.40169 6.2076 4.90652 -0.849289
62 3 8.86863 5.07563 6.91212 -0.796732
99 4 4.08149 4.59329 8.38317 0.705685
115 2 6.1261 4.44915 7.35156 0.161401
116 2 4.78458 3.91098 6.03736 0.164213
117 2 5.18684 2.74699 7.50651 0.166003
128 1 5.13542 3.82472 7.1169 -0.667015
292 2 5.57535 1.20853 8.57565 0.149049
293 1 -1.89255 12.7475 8.56429 -0.653104
310 3 6.8192 0.781827 0.683251 -0.829691
17 2 2.11313 12.0088 1.56504 -0.0429083
2 4 11.1382 6.0879 4.00036 1.56107
5 4 10.6148 0.583379 1.66544 0.938607
6 4 13.1836 0.213878 7.69395 1.24761
7 4 11.5016 1.71073 5.79833 1.15007
8 4 9.56507 3.70393 2.28652 1.28177
11 4 10.0098 3.88429 7.17075 1.06843
18 2 10.6806 0.238788 5.53264 -0.0637616
35 2 11.7461 4.62143 8.10305 0.122157
46 1 10.9175 3.72575 8.94424 -0.662691
52 3 11.4709 0.557776 0.373136 -0.798889
53 3 12.5563 2.05554 4.45048 -0.711117
54 3 12.4143 1.67915 7.12969 -0.774863
55 3 10.0252 1.92707 1.99231 -0.781028
56 3 10.5754 4.70769 2.9548 -0.788392
59 3 10.3458 2.85153 6.05079 -0.804591
60 3 10.0343 6.6119 5.02722 -0.846748
274 2 14.1962 0.662472 2.44725 -0.00919195
275 2 14.0499 1.12901 0.704785 -0.0643005
279 2 0.710004 0.166371 6.76134 0.181571
83 2 -5.43679 11.2787 6.27728 0.190247
87 1 -5.44401 12.3864 6.69616 -0.678937
153 4 -4.14025 8.38012 8.05547 1.04304
158 2 -5.59124 8.88548 7.38551 0.0568539
182 3 -3.21705 7.6025 6.98469 -0.779695
199 3 -3.73803 7.23244 3.01788 -0.802819
200 3 -3.40773 9.15019 1.05449 -0.819704
202 2 -3.86184 10.929 2.62599 0.210211
203 2 -4.03553 10.0782 4.34068 0.169777
204 2 -4.11344 12.0197 4.1972 0.169142
205 2 -6.75734 12.1582 1.38046 0.169664
206 1 -4.2998 11.004 3.69788 -0.672629
309 3 -4.40847 11.647 0.415259 -0.846903
152 4 -2.2731 6.46973 6.08035 1.39613
154 4 0.392805 6.88666 4.81479 0.903398
155 4 1.93595 8.21545 2.31362 0.983967
160 2 1.51784 7.03852 6.08352 -0.0496746
166 2 -0.219037 6.34802 9.19649 0.169904
169 2 -3.52183 10.5715 8.11919 0.136378
172 2 3.16049 10.2555 2.72671 0.112765
178 1 3.46798 9.15812 2.92961 -0.683984
183 3 -1.06459 7.32124 5.33296 -0.798338
184 3 1.16508 7.46355 3.52878 -0.824419
185 3 1.21072 8.67749 0.936054 -0.761055
193 4 -2.78971 8.0245 1.99345 1.0916
194 2 -1.15976 8.36498 2.51944 0.0446383
197 2 -1.31407 7.38956 0.0877752 0.194891
198 1 -1.34508 6.98681 1.22062 -0.648179
211 4 -0.726525 12.0392 1.3757 0.952732
212 2 -2.18906 11.9387 2.12596 -0.00893198
213 2 0.318491 11.9236 2.66381 -0.0663431
214 3 -0.548221 10.8526 0.433031 -0.809182
222 4 1.12575 10.8547 5.97282 0.647818
223 2 1.66833 11.9401 4.75536 -0.0646783
224 2 2.29138 9.57658 6.15966 -0.0800107
228 2 -1.07514 9.98668 6.27747 0.201839
229 2 -0.214083 9.50388 4.60906 0.164971
230 2 -0.983411 11.235 4.87507 0.149995
232 1 -0.520219 10.3487 5.33921 -0.650995
233 3 0.634933 11.5108 7.39598 -0.690307