ITEM: TIMESTEP
0
ITEM: NUMBER OF ATOMS
350
ITEM: BOX BOUNDS xy xz yz pp pp pp
-9.2171454933018477e+00 1.5608457727936326e+01 -7.7490666531515799e+00
4.0119664078240458e-01 1.3960526826327030e+01 -1.5378211122139989e+00
-1.4695996115413124e-01 1.7785259961154189e+01 1.4232346710932497e-01
ITEM: ATOMS id type x y z
207 3 -0.430339 1.37028 4.84477
304 3 -0.427242 1.84687 2.23779
74 1 0.720736 5.30318 3.7089
150 2 1.16097 4.37668 4.19584
151 2 1.16262 5.51457 2.6416
152 2 -0.458886 5.32817 3.75285
224 3 1.99632 2.91392 4.95949
299 4 -0.324061 2.65115 0.884549
300 1 1.35093 3.28383 1.39456
301 2 1.77932 3.50965 0.346063
237 3 2.24364 6.24728 5.65498
12 4 -1.99835 5.37598 0.646705
340 2 -1.54966 3.54842 3.93448
70 1 2.87096 1.00339 3.06342
4 2 -1.96236 4.82632 5.11362
31 4 0.984771 6.80863 4.79856
314 3 -2.77575 5.89034 2.32916
210 3 -1.31253 3.8666 0.779656
97 2 -3.06847 6.38312 5.53623
32 4 2.49596 6.99621 0.572415
302 2 1.92263 2.44605 2.02263
232 3 3.11338 5.72218 1.66625
303 2 1.18785 4.32282 2.03182
141 2 1.77913 1.0197 3.12029
140 2 3.28268 1.02922 1.99742
9 4 0.736756 2.37284 5.91253
213 3 -1.45537 5.83244 7.54494
13 4 -0.744834 4.31493 7.86017
208 3 1.40034 1.40617 7.01586
212 3 -0.0187466 3.60013 6.53352
233 3 4.26186 2.7381 8.53139
227 3 6.44939 0.935936 6.98863
243 3 -1.17232 6.54634 -0.0459508
23 4 3.38025 2.41911 4.31045
230 3 3.87605 3.59733 3.33251
30 4 4.36526 4.66477 2.07891
108 2 4.5415 2.54692 1.15778
226 3 4.51647 1.71747 5.2384
348 2 5.91787 1.28464 1.72459
71 1 4.7846 3.65705 0.590903
211 3 -1.96772 3.35609 8.19616
33 4 4.95799 4.01518 7.80004
26 4 6.06876 2.02572 5.82895
238 3 4.10921 5.28296 7.4213
15 4 -1.85268 6.99455 6.57609
154 2 6.88964 1.41606 0.202631
35 4 3.68429 6.39611 6.20093
36 4 3.98666 5.00516 14.3087
292 1 3.9902 0.791191 14.5089
34 4 0.572193 6.02072 9.98956
236 3 -0.988852 6.38429 10.687
244 3 1.72102 5.90857 11.0659
145 2 1.66967 1.73953 9.06481
66 1 -0.440842 2.33416 11.362
128 2 -0.224951 3.18293 10.621
72 1 2.61685 1.88163 10.7479
17 4 -2.31987 7.03765 11.248
107 2 1.52026 2.01034 10.9841
129 2 -0.27862 1.31548 10.8751
310 2 4.99491 1.64606 16.0406
242 3 -0.126017 6.46724 17.469
305 3 -1.58773 1.87466 17.2943
235 3 0.225424 4.43272 9.26767
130 2 0.914918 2.46105 12.5883
214 3 -0.76851 4.46942 13.5704
16 4 -1.39155 5.90512 13.9203
6 4 -0.458154 1.63909 16.122
228 3 0.913133 2.51923 16.3146
28 4 2.3074 3.29523 16.4507
216 3 -2.76359 6.37123 12.9181
10 4 -0.623135 2.92112 13.3509
209 3 -0.95808 1.88257 14.4104
241 3 -1.99113 5.88574 15.3929
37 4 -1.55575 6.76831 16.7243
98 2 -0.0557395 7.0241 13.7816
239 3 3.00344 4.08853 15.3083
38 4 2.61859 6.87636 12.1615
297 2 3.79788 1.87822 14.7892
143 2 3.52617 2.19669 17.0306
146 2 3.09776 2.86135 10.9485
25 4 3.45164 1.50682 9.08164
206 2 -1.71289 2.29171 11.7025
144 2 3.16482 1.05207 11.3808
245 3 3.1297 5.91096 13.3517
149 2 6.2403 1.26547 11.6409
104 2 4.7131 2.4751 12.0468
295 2 5.4671 0.73718 13.7302
106 2 1.94398 4.6602 17.5763
328 2 2.41694 7.06905 16.6628
139 2 -4.42099 13.5071 3.60326
219 3 -4.85364 11.4138 4.3612
186 2 -5.04742 11.6457 0.423838
99 2 -4.45672 13.1688 1.27491
86 1 -4.1943 12.1377 0.900986
18 4 -4.99954 11.019 2.76695
349 2 -5.89725 12.2027 1.8982
133 2 -3.7796 8.20304 0.429951
185 2 -3.20096 11.4063 2.17168
122 2 -3.29524 7.50939 2.28726
218 3 -2.45814 8.25439 7.34734
231 3 -0.648695 7.32553 5.67635
20 4 -4.56082 11.5755 5.93462
7 4 -6.81139 13.2163 7.43366
19 4 -3.49471 9.50748 7.84101
220 3 -4.02341 10.1305 6.38756
221 3 -5.81916 12.193 6.6275
100 2 -3.34908 12.7026 6.21814
252 3 0.730627 9.42275 7.09016
313 2 -2.8409 9.89879 4.0188
162 2 -0.449514 13.2873 0.960941
309 2 -0.794052 8.00565 2.80715
115 2 -1.32243 12.9157 2.65028
306 4 -2.26597 8.91351 2.35952
308 1 -1.22355 9.57251 3.79667
315 3 -2.14452 9.7029 0.992533
312 2 -0.926552 8.6107 4.53312
39 4 1.62089 9.05334 2.56367
153 2 0.1051 9.89622 2.42019
246 3 1.31958 7.94587 3.68876
311 2 -0.535709 10.4457 4.11169
247 3 1.81823 8.32991 1.20909
158 2 2.49737 8.34749 7.09415
345 2 -0.302264 11.8038 0.0209236
110 2 -0.41538 9.534 7.17114
249 3 -2.73826 10.7086 8.60761
78 1 -0.897022 13.7715 1.92934
24 4 -0.461413 13.4012 7.88767
181 2 -4.79872 8.56399 4.74557
253 3 0.23426 12.3506 6.86701
217 3 -4.75014 8.82264 8.65514
112 2 -1.45967 8.42863 16.2433
75 1 -1.18904 12.5783 17.2186
318 3 -6.94811 13.05 8.9417
294 2 -4.55936 13.869 13.8252
317 2 -6.23316 11.5431 11.0227
113 2 -3.40018 9.16012 12.266
103 2 -5.68506 9.99802 12.156
222 3 -5.45279 11.0643 12.3255
135 2 -5.4057 8.36472 14.0113
283 3 1.52845 9.92128 9.74542
102 2 -4.25099 8.38628 16.7168
344 2 -3.80786 13.5154 16.1127
320 1 -7.84716 13.2054 16.3821
321 2 -6.6976 13.2923 16.5138
335 2 -4.41976 10.3071 16.0357
22 4 -3.82585 10.8163 12.4607
68 1 -5.81669 9.44655 17.0225
43 4 1.19828 9.43387 13.7493
223 3 -3.34978 11.4685 13.9966
77 1 0.114604 8.47864 15.1019
251 3 -2.93208 11.7522 11.0866
41 4 -2.66294 12.1535 9.34232
111 2 -0.840365 9.03029 9.76793
250 3 -1.2128 12.8124 9.2179
40 4 0.629834 8.82799 8.94922
69 1 -1.58475 8.80382 11.5906
136 2 -0.417953 8.65263 11.4038
248 3 0.986472 7.31231 9.08718
138 2 -2.1015 9.64185 11.0182
114 2 -1.49433 12.0524 11.6475
254 3 1.77033 8.18687 12.8932
255 3 0.0700313 10.5379 13.1397
291 4 -2.71736 12.6504 14.7589
307 4 -4.61578 10.8199 17.7682
296 2 -1.29046 12.0389 15.8095
159 2 -0.917687 8.37265 14.5167
137 2 -1.74196 8.87513 12.7084
160 2 0.0187349 9.25002 16.0413
225 3 -3.81535 13.3958 9.09712
161 2 0.695813 7.56021 15.3626
334 2 -1.66739 13.6929 17.1956
322 2 -8.16622 12.7732 15.3493
44 4 0.00784721 11.9243 12.4317
215 3 -3.61674 7.28711 10.4756
134 2 -4.27911 12.6403 17.7497
341 2 -8.33074 12.6971 17.2507
257 3 7.062 2.04288 4.6274
262 3 5.66118 5.51808 2.41718
46 4 7.63184 1.63644 3.11833
260 3 8.79982 2.38856 2.25072
263 3 4.80669 6.71079 5.00473
264 3 9.0057 4.72521 0.940667
51 4 8.32984 6.07016 0.574144
330 2 6.88424 6.22949 1.46628
50 4 5.85949 6.84353 3.76322
54 4 9.12051 6.81236 4.76787
79 1 10.425 2.407 -0.0858107
336 2 8.62612 0.954822 8.58114
234 3 5.9925 3.58114 6.66358
1 4 14.3651 1.9133 3.58815
119 2 7.67341 5.00794 8.1323
95 2 11.7198 4.92934 8.23352
52 4 9.23641 5.45042 7.64454
269 3 9.06606 6.13467 6.22066
2 1 12.518 4.52798 4.81975
268 3 7.51246 6.95514 4.09848
3 2 12.4107 3.36693 4.51603
49 4 9.75624 3.43036 1.46705
267 3 10.4567 5.96814 3.88892
11 4 11.6779 5.09518 3.11748
261 3 11.2311 3.73814 2.43061
131 2 11.3777 2.38527 7.00706
5 3 12.8165 1.16507 3.5563
337 2 9.98939 1.39354 0.117456
117 2 11.4183 1.37027 1.21673
8 4 12.0296 3.16024 8.41525
132 2 10.5043 4.00012 5.97545
342 2 11.8024 4.8182 5.63298
120 2 9.54082 3.23544 7.58611
67 1 10.4551 4.09585 7.13248
142 2 5.89656 3.79167 0.289136
343 2 11.4223 6.10286 -0.105471
82 1 6.12974 4.50819 9.35902
173 2 7.08918 3.74426 9.39367
174 2 6.48779 5.57984 9.15003
121 2 4.9828 6.09899 9.42954
175 2 5.34942 4.35629 10.177
80 1 8.58699 2.39129 9.73264
168 2 7.63204 2.43388 10.4235
169 2 8.75302 3.35331 9.07522
298 2 6.64059 2.44096 16.902
73 1 5.87793 2.3353 11.5564
346 2 4.95713 3.2112 17.2084
165 2 8.28841 3.09711 17.0371
331 2 6.06827 5.99038 16.9349
148 2 7.1446 3.85579 11.5533
274 3 8.85129 6.11612 12.3055
109 2 4.34988 5.56191 16.586
29 4 6.5388 3.26119 13.0983
229 3 7.34073 2.17685 13.8786
240 3 5.43933 4.21759 13.6844
329 1 4.54116 6.27865 15.6973
332 2 5.63112 6.35275 15.374
258 3 9.42329 1.16579 15.2697
170 2 8.73185 4.10479 14.4508
325 2 9.40977 6.48597 16.2919
270 3 9.65965 4.5578 14.6178
27 4 8.00472 0.925121 14.6042
81 1 11.7488 2.8962 15.6318
338 2 11.3985 5.54021 13.0012
167 2 9.19291 1.05153 11.0552
48 4 10.0484 2.55888 10.7705
259 3 11.4065 2.56751 9.90691
324 2 9.90179 4.24024 17.5411
147 2 5.9187 2.74488 10.5285
271 3 9.90459 3.69936 11.8655
101 2 10.8707 5.44638 16.3536
166 2 12.3534 2.19154 14.8088
55 4 9.81953 4.90054 12.8695
47 4 10.8523 1.33244 16.1099
172 2 10.9979 3.60134 15.1208
323 1 10.4963 5.32571 17.4534
293 1 5.48266 2.23043 17.0822
171 2 12.4437 3.43925 16.3107
164 2 10.4786 2.5387 17.5442
105 2 7.05258 0.569449 15.9441
265 3 9.8682 6.30194 8.85412
163 2 0.310778 13.3995 3.38869
57 4 9.97059 8.73712 0.726189
279 3 1.91987 11.5008 4.99384
58 4 3.12569 11.3507 3.92454
277 3 2.79455 10.1797 2.93337
278 3 3.11362 12.8151 3.07122
42 4 1.39181 11.3741 6.42769
92 1 2.75132 11.8106 7.55812
126 2 2.17639 12.4992 8.38444
203 2 3.08907 10.7986 7.9634
276 3 10.047 9.47672 2.19366
275 3 9.10684 7.36233 0.662708
45 4 4.32117 13.7161 2.45408
189 2 7.44111 12.3273 4.5826
59 4 6.42154 11.5905 1.62345
83 1 5.39596 8.2452 2.67829
125 2 4.89087 7.94237 1.5152
176 2 5.33877 10.4133 0.847662
177 2 6.42963 8.7505 2.58761
178 2 7.01199 10.6404 3.1786
280 3 5.35284 12.6782 1.84564
285 3 4.48944 10.7803 4.71458
187 2 7.96582 10.4895 5.09446
87 1 7.2546 11.147 4.49858
188 2 4.72269 8.82593 3.4471
289 3 7.68765 11.6657 0.551793
200 2 3.66491 10.7739 0.860963
123 2 7.9224 12.5844 0.938572
62 4 5.76348 11.2185 5.57554
350 2 4.36537 13.262 5.51861
88 1 5.2863 13.2237 6.09173
201 2 3.70458 12.3611 6.97921
156 2 4.08095 8.80892 6.13618
94 2 7.13143 13.0211 6.81809
157 2 4.19001 8.38566 7.95663
191 2 5.19454 13.2895 7.15385
76 1 3.62199 8.16771 6.98145
182 2 7.44709 7.37155 8.37678
286 3 6.16551 10.423 6.95881
85 1 7.68417 8.25731 7.67578
183 2 8.77803 8.71526 7.74695
60 4 6.62898 9.60735 8.33997
184 2 7.31403 8.01334 6.61664
180 2 9.05057 9.17079 4.24438
84 1 9.6862 8.56728 5.07575
179 2 9.59902 9.00083 6.06791
347 2 5.1364 7.16343 0.165721
190 2 6.15374 13.8422 5.63676
124 2 8.04107 10.0282 17.2759
61 4 2.20919 11.1002 10.7058
290 3 5.84016 10.6759 12.8176
284 3 1.22107 12.2083 11.3406
326 1 2.6304 7.59515 17.6579
316 4 7.96184 11.994 10.0031
91 1 2.22945 10.8094 17.6796
199 2 1.82479 12.1745 16.9757
256 3 0.198298 13.0055 13.5828
288 3 2.29927 10.1874 14.6894
273 3 6.78652 7.25259 11.0002
195 2 3.35094 12.9561 14.5982
202 2 3.40664 10.3906 12.0986
14 4 10.4596 7.64072 9.70109
56 4 8.21934 7.46666 11.7154
197 2 4.98062 13.6758 14.9817
266 3 3.98609 7.51146 11.3591
53 4 5.29836 7.46646 10.3732
127 2 3.5369 12.2869 9.8518
319 3 6.78142 12.46 10.9744
281 3 5.27748 8.61042 9.33065
282 3 7.59992 10.6401 9.2692
205 2 4.65653 10.1971 10.1648
93 1 4.22826 11.0878 10.7497
65 4 5.57098 11.84 11.7731
64 4 3.10094 11.0911 15.7852
272 3 9.37944 8.19171 10.8095
204 2 4.1014 12.7136 11.8979
116 2 3.8418 10.0923 17.1036
333 2 3.69985 13.2077 17.0312
96 2 8.39583 9.0032 15.8479
287 3 7.89654 8.67579 12.9507
90 1 4.21132 12.978 15.3989
196 2 5.01875 11.5145 15.3227
339 2 5.21668 8.09312 13.6683
89 1 6.07439 8.9035 15.2224
192 2 6.5989 9.92286 15.6021
193 2 6.5002 7.9533 15.6741
194 2 4.89675 9.00592 15.1753
63 4 6.50073 9.31941 13.4027
198 2 1.42163 10.1046 17.4446
155 2 -0.105996 12.556 17.566
327 2 2.49514 8.83412 17.6205
21 4 9.90293 8.03494 15.6916
118 2 4.02405 7.32246 15.7858
ITEM: TIMESTEP
100
ITEM: NUMBER OF ATOMS
350
ITEM: BOX BOUNDS xy xz yz pp pp pp
-9.2171454933018477e+00 1.5608457727936326e+01 -7.7490666531515799e+00
4.0119664078240458e-01 1.3951560716365876e+01 -1.5378211122139989e+00
-1.4695996115413124e-01 1.7785259961154189e+01 1.3335735714817076e-01
ITEM: ATOMS id type x y z
207 3 -0.444609 1.56585 4.93564
304 3 -0.564786 1.68514 2.14767
74 1 0.437315 5.4429 3.57176
150 2 1.15617 4.56283 3.97483
151 2 0.672784 5.68816 2.49466
152 2 -0.66392 5.31721 3.8033
224 3 2.05912 2.82166 5.07793
299 4 -0.152535 2.59217 0.898676
300 1 1.65505 3.1977 1.24785
301 2 2.26967 3.30292 0.291232
237 3 2.21216 6.34612 5.80282
12 4 -2.11289 5.37075 0.615257
340 2 -1.68406 3.56483 3.8841
70 1 2.79871 0.967776 3.17894
4 2 -1.85554 4.79421 5.10205
31 4 1.0169 6.77358 4.74297
314 3 -2.72793 6.02331 2.3657
210 3 -1.21386 4.00635 0.742704
97 2 -3.14078 6.46938 5.58369
32 4 2.45733 6.90249 0.539842
302 2 2.08022 2.48451 1.97278
232 3 2.93756 5.82598 1.6862
303 2 1.39685 4.18203 1.75017
141 2 1.65272 0.942404 3.10244
140 2 3.23541 0.894884 2.07969
9 4 0.684588 2.41687 5.98529
213 3 -1.49336 5.69583 7.50684
13 4 -0.719868 4.32473 7.84108
208 3 1.15044 1.34508 7.08748
212 3 0.0690931 3.79164 6.4914
233 3 4.25773 2.59176 8.5187
227 3 6.65567 1.06996 6.83789
243 3 -1.22752 6.51646 0.0118103
23 4 3.41453 2.40721 4.36238
230 3 3.82955 3.54869 3.1409
30 4 4.25129 4.80327 2.18371
108 2 4.38598 2.78618 1.13015
226 3 4.49937 1.66989 5.26071
348 2 5.85113 1.34587 1.67169
71 1 4.7187 3.81344 0.673297
211 3 -2.03983 3.11252 8.1583
33 4 5.05685 3.95601 7.92622
26 4 6.03239 2.03984 5.79823
238 3 4.24358 5.21429 7.47751
15 4 -1.79609 6.94911 6.60224
154 2 6.97206 1.55447 0.275294
35 4 3.81034 6.38465 6.34483
147 2 5.38781 2.91338 10.6724
292 1 4.12508 0.860281 14.6332
34 4 0.5841 5.97025 10.0047
236 3 -0.919952 6.47982 10.4737
244 3 1.64265 6.05615 11.1994
145 2 1.68806 1.59428 9.37778
66 1 -0.224784 2.29448 11.3631
128 2 -0.000828291 3.11637 10.5982
72 1 2.92349 1.82671 10.8073
17 4 -2.13426 7.03082 11.2209
107 2 1.71275 2.02319 11.0922
129 2 -0.0491428 1.29831 11.0041
310 2 4.97653 1.67523 16.2185
242 3 -0.0179386 6.34629 17.2544
305 3 -1.49829 2.0006 17.4462
235 3 0.334851 4.38115 9.22711
130 2 1.01028 2.52139 12.5424
214 3 -0.776883 4.4196 13.4608
16 4 -1.45827 5.77621 13.9898
6 4 -0.514107 1.52795 16.1277
228 3 1.10175 2.5138 16.3388
28 4 2.38473 3.38981 16.4672
216 3 -2.64635 6.21769 12.8848
10 4 -0.710309 2.89227 13.1793
209 3 -1.08296 1.7126 14.6743
241 3 -1.85764 5.8886 15.5101
37 4 -1.5192 6.67052 16.8022
98 2 -0.119676 6.91443 13.9229
239 3 3.01885 4.10447 15.2416
38 4 2.73228 7.0129 12.03
297 2 4.22844 1.89721 14.9612
143 2 3.56182 2.2572 17.1305
146 2 3.51064 2.74844 10.9812
25 4 3.45909 1.33205 9.07989
206 2 -1.89889 2.30171 11.7746
144 2 3.33057 0.855868 11.3668
245 3 3.31555 6.03163 13.2494
106 2 2.03712 4.80961 17.5687
104 2 4.8375 1.78052 12.2921
328 2 2.5002 7.17702 16.8092
294 2 3.28056 0.708658 13.9189
248 3 1.214 7.16033 8.87051
149 2 6.36034 1.33764 11.1246
73 1 5.77821 2.22353 11.5467
215 3 -3.4864 7.16918 10.4131
139 2 -4.56395 13.5316 3.79852
219 3 -4.93713 11.2717 4.35275
186 2 -5.18369 11.6679 0.382053
99 2 -4.52151 13.3381 1.13663
86 1 -4.24732 12.1515 0.914878
18 4 -5.06038 11.0541 2.71505
349 2 -5.95747 12.3136 1.97579
133 2 -3.81322 8.10714 0.382462
185 2 -3.3473 11.5164 2.28074
122 2 -3.27494 7.4607 2.02828
218 3 -2.31485 8.25151 7.38463
231 3 -0.723074 7.17173 5.51063
20 4 -4.60651 11.5026 5.87669
7 4 -6.78905 13.1044 7.45155
19 4 -3.46173 9.47072 7.86754
220 3 -4.02584 10.1932 6.53705
221 3 -5.81563 12.1756 6.64712
100 2 -3.37887 12.6599 5.85556
252 3 0.733642 9.30154 7.18709
313 2 -2.85567 9.92331 3.93268
162 2 -0.671487 13.3035 1.00503
309 2 -0.722833 8.0335 2.73958
115 2 -1.68204 13.1277 2.64334
306 4 -2.26071 8.91783 2.31771
308 1 -1.28093 9.47873 3.8299
315 3 -2.28176 9.9208 1.02896
312 2 -1.0199 8.536 4.59824
39 4 1.71386 8.99244 2.52885
153 2 0.137649 9.70499 2.48048
246 3 1.61106 7.94197 3.74186
311 2 -0.648842 10.3725 3.94148
247 3 1.97617 8.30901 1.11756
217 3 -4.74775 8.79375 8.64136
345 2 -0.411794 11.9527 0.022366
110 2 -0.352332 9.46597 7.30966
249 3 -2.82235 10.654 8.73923
78 1 -1.1511 13.8243 1.98322
24 4 -0.460653 13.4814 7.86984
181 2 -4.63487 8.56768 4.28777
253 3 0.238538 12.2634 7.0602
307 4 -3.17529 10.7552 -0.0881155
112 2 -1.3839 8.34158 16.408
75 1 -1.3167 12.6472 17.2819
318 3 -6.94213 12.9363 8.98692
134 2 -4.29434 12.6079 17.725
317 2 -6.46958 11.6219 11.2048
113 2 -3.37553 9.13761 12.2144
103 2 -5.56766 10.0438 12.1759
222 3 -5.50805 11.1364 12.4023
135 2 -5.01311 8.27567 14.1589
161 2 0.727861 7.54074 15.3771
102 2 -4.36052 8.32662 16.7783
344 2 -4.15807 13.2412 15.979
320 1 -7.86965 13.1417 16.2576
321 2 -6.73156 13.1438 16.3737
335 2 -4.731 10.2866 16.1383
22 4 -3.82686 10.833 12.4112
68 1 -5.96022 9.36056 16.9996
43 4 1.18965 9.43678 13.7056
223 3 -3.44724 11.2764 13.9368
77 1 0.140851 8.52095 15.0803
251 3 -2.80216 11.9768 11.1041
41 4 -2.69184 12.0974 9.42203
111 2 -0.812824 8.81376 9.76735
250 3 -1.33122 12.8548 9.06556
40 4 0.715496 8.72166 9.01885
69 1 -1.52087 8.85536 11.6346
136 2 -0.393068 8.59438 11.4207
334 2 -1.65013 13.7919 17.3285
138 2 -1.71215 9.9254 11.1473
114 2 -1.47301 11.9866 11.765
254 3 1.7788 8.37292 12.7263
255 3 0.0421958 10.4491 13.0045
291 4 -2.88779 12.5057 14.7685
44 4 0.0822613 11.9892 12.5238
296 2 -1.37323 12.0327 15.7667
159 2 -0.805258 8.47593 14.5086
137 2 -1.79683 8.77466 12.7884
160 2 0.184699 9.37551 15.8993
225 3 -3.77182 13.2768 8.90532
295 2 -2.18794 13.8254 13.6584
283 3 1.58047 9.81871 9.73542
322 2 -8.2047 12.789 15.1739
257 3 7.01559 1.98642 4.32238
262 3 5.69411 5.47308 2.55203
46 4 7.68443 1.5219 3.02119
260 3 8.71757 2.53534 2.20298
263 3 5.03026 6.59712 5.14161
264 3 9.18416 4.72997 0.839409
51 4 8.32034 5.97017 0.602795
330 2 6.93359 5.93983 1.56944
50 4 5.97381 6.84279 3.87154
54 4 9.15742 6.78212 4.63367
79 1 10.4325 2.3767 0.0282245
336 2 8.6001 0.903457 8.69933
234 3 6.10406 3.50573 6.6751
1 4 14.2902 1.93637 3.61919
119 2 7.68007 4.85082 7.98801
95 2 11.5751 4.99252 8.27872
52 4 9.20177 5.49616 7.58467
269 3 9.19195 6.16746 6.20939
2 1 12.5704 4.60879 4.94163
268 3 7.51168 6.94283 4.25545
3 2 12.3606 3.45524 4.71197
49 4 9.81205 3.49253 1.52177
267 3 10.3096 6.05693 3.71061
11 4 11.7022 5.19493 3.25835
261 3 11.2677 3.85803 2.52031
131 2 11.3515 2.39459 7.07933
5 3 12.7782 1.21507 3.6846
337 2 9.9057 1.42375 0.173789
117 2 11.3088 1.30272 1.40911
8 4 11.9783 3.16152 8.46844
132 2 10.8175 4.10793 6.13428
342 2 11.8765 4.91156 5.86653
120 2 9.50623 3.24686 7.45229
67 1 10.4203 4.11969 7.22422
142 2 5.8115 3.95743 0.381198
164 2 12.0537 2.1652 -0.101895
82 1 6.2057 4.60697 9.32125
173 2 7.0768 3.72672 9.35671
174 2 6.54436 5.63432 9.03174
121 2 4.96623 6.17018 9.3886
175 2 5.54904 4.5807 10.2713
80 1 8.3663 2.25138 9.62172
168 2 7.43606 2.22099 10.3562
169 2 8.43088 3.19793 9.01455
298 2 6.61301 2.47674 16.9747
343 2 9.69043 6.06764 17.7133
346 2 5.0603 3.34343 17.3481
165 2 8.39626 3.13928 17.1421
331 2 6.06856 6.0704 16.9905
148 2 7.03315 3.68577 11.6983
274 3 8.62882 6.24102 12.4126
109 2 4.37477 6.18379 16.7017
29 4 6.30776 3.15434 13.1965
229 3 7.40402 2.36035 13.9875
240 3 5.27201 4.14455 13.829
329 1 4.6988 6.45447 15.5902
332 2 5.84052 6.22122 15.3141
258 3 9.40263 1.14932 15.3105
170 2 8.93186 3.89988 14.2726
325 2 9.39948 6.30232 16.0296
270 3 9.48789 4.70116 14.5179
27 4 7.93053 0.97234 14.5825
81 1 11.5228 2.86608 15.587
338 2 11.4008 5.71751 12.7782
167 2 9.14355 1.08016 10.9892
48 4 9.89343 2.6121 10.6332
259 3 11.2736 2.41487 9.84424
324 2 9.97772 4.14631 17.4237
36 4 4.02926 5.13149 14.3618
271 3 9.79761 3.7531 11.7319
101 2 10.9657 5.57919 16.3479
166 2 12.1635 2.33826 14.7006
55 4 9.78611 5.05757 12.8297
47 4 10.8131 1.32027 16.1095
172 2 10.6949 3.64916 15.1296
323 1 10.4389 5.29977 17.3727
293 1 5.53702 2.31918 17.1957
171 2 12.2549 3.31335 16.3951
265 3 9.76043 6.35835 8.84523
105 2 6.92539 0.582335 15.9077
163 2 0.463975 13.2304 2.93475
57 4 9.96443 8.60175 0.72803
279 3 1.90375 11.3541 5.09521
58 4 2.98069 11.3059 3.89606
277 3 2.76141 10.1162 2.75485
278 3 3.06516 12.7057 3.16919
42 4 1.34488 11.3029 6.55405
92 1 2.80036 11.6929 7.56316
126 2 2.23914 12.445 8.3344
203 2 3.17704 10.6756 8.06311
276 3 10.0258 9.59942 1.98404
275 3 9.08975 7.33719 0.68437
45 4 4.32584 13.7063 2.5508
189 2 7.45442 12.5204 4.711
59 4 6.42149 11.5635 1.42574
83 1 5.43547 8.25034 2.80908
125 2 4.9941 7.98239 1.70425
176 2 5.54584 10.2097 0.587809
177 2 6.4223 8.82827 2.72335
178 2 6.829 10.7928 3.07698
280 3 5.22622 12.6122 1.69124
285 3 4.60163 10.8551 4.55414
187 2 8.12622 10.75 5.14962
87 1 7.32488 11.4103 4.60006
188 2 4.6628 8.70018 3.55267
289 3 7.7516 11.8075 0.545105
200 2 3.89993 10.7394 0.712873
123 2 7.91672 12.6863 1.14306
62 4 5.81795 11.1256 5.51283
350 2 4.30326 13.3068 5.87403
88 1 5.38211 13.0614 6.23633
201 2 3.72321 12.1834 7.04947
156 2 4.57951 8.71474 6.33083
94 2 7.22605 12.7561 6.7972
157 2 4.33827 8.05081 8.15804
191 2 5.47206 13.1071 7.39576
76 1 3.89418 8.1046 7.13213
182 2 7.33617 7.41004 8.33356
286 3 6.07858 10.2925 6.93794
85 1 7.74081 8.24292 7.64786
183 2 8.79931 8.47745 7.92685
60 4 6.65965 9.63278 8.30479
184 2 7.63131 8.12536 6.49514
180 2 9.02468 9.16539 4.38518
84 1 9.88402 8.52481 4.84108
179 2 9.95961 8.66723 5.93369
158 2 2.73875 8.34937 7.07604
347 2 5.12901 7.13625 0.392838
190 2 6.17629 13.8045 5.79609
326 1 4.22435 7.51115 -0.0970536
327 2 4.2219 8.66104 -0.12296
124 2 7.974 9.93789 17.1976
61 4 2.13055 11.0074 10.7058
290 3 5.93432 10.7484 12.9277
284 3 1.19511 12.0919 11.4441
341 2 7.10786 12.6214 17.1928
316 4 7.87862 11.9215 9.98489
91 1 2.40271 10.7724 17.5497
199 2 2.21268 12.2564 17.0504
256 3 0.146566 13.2357 13.5566
288 3 2.34826 10.4772 14.5386
273 3 6.70128 7.33877 10.9544
195 2 3.43682 13.0174 14.4719
202 2 3.26491 10.3311 12.0119
14 4 10.5823 7.66696 9.72971
56 4 8.10637 7.54603 11.7148
197 2 4.99727 13.7978 15.0166
266 3 4.11158 7.53203 11.4414
53 4 5.27452 7.54138 10.3831
127 2 3.52941 12.3444 9.82581
319 3 6.44762 12.593 10.8042
281 3 5.41262 8.85252 9.49316
282 3 7.53558 10.5502 9.25523
205 2 4.61297 10.3792 10.206
93 1 4.11613 11.3216 10.7548
65 4 5.54113 11.8542 11.8421
64 4 3.25481 11.1077 15.6491
272 3 9.38013 8.11348 10.7522
204 2 4.03832 12.7049 12.1414
116 2 3.83253 9.84593 16.8506
333 2 3.78494 13.1741 16.9565
96 2 8.44536 9.15879 15.4837
287 3 7.78057 8.6584 12.9463
90 1 4.24732 12.9926 15.3266
196 2 5.11203 11.546 15.1413
339 2 5.09507 8.19572 13.7616
89 1 5.97876 8.93847 15.302
192 2 6.57679 10.1096 15.5545
193 2 6.58717 8.08605 15.7723
194 2 4.9993 8.91856 15.8403
63 4 6.39428 9.34566 13.4634
198 2 1.49764 10.0929 17.3106
155 2 -0.286981 12.5301 17.6552
118 2 4.37803 7.48802 15.3684
21 4 9.78898 7.99322 15.6313
ITEM: TIMESTEP
200
ITEM: NUMBER OF ATOMS
350
ITEM: BOX BOUNDS xy xz yz pp pp pp
-9.2171454933018477e+00 1.5608457727936326e+01 -7.7490666531515799e+00
4.0119664078240458e-01 1.3942594606404722e+01 -1.5378211122139989e+00
-1.4695996115413124e-01 1.7785259961154189e+01 1.2439124718701677e-01
ITEM: ATOMS id type x y z
207 3 -0.421629 1.59002 4.92524
304 3 -0.535213 1.80084 2.29785
74 1 0.522145 5.43258 3.54139
150 2 1.11093 4.57675 4.12604
151 2 0.77354 5.55388 2.42817
152 2 -0.606479 5.44038 3.72497
224 3 2.06139 2.6392 5.12156
299 4 -0.362708 2.56754 0.843186
300 1 1.40871 3.07857 1.25069
301 2 1.83948 3.18786 0.209164
237 3 2.39315 6.07645 5.47897
12 4 -1.95772 5.51129 0.720546
340 2 -1.81544 3.56323 3.92845
70 1 2.93728 0.854581 3.20015
4 2 -2.13355 4.92672 5.07504
31 4 1.06768 6.82285 4.6574
314 3 -2.79971 6.11507 2.35438
210 3 -1.36099 3.97532 0.828498
97 2 -2.96798 6.48338 5.51711
32 4 2.60831 6.79511 0.698259
302 2 1.97875 2.22998 1.99258
232 3 3.20515 5.67656 1.77301
303 2 1.36553 4.0891 1.78929
141 2 1.81455 0.692578 3.47846
140 2 3.14049 0.935472 2.03222
9 4 0.741923 2.45536 6.04839
213 3 -1.52536 5.66601 7.55408
13 4 -0.753426 4.31103 7.92196
208 3 1.16006 1.45212 7.21506
212 3 -0.00413225 3.73689 6.55299
233 3 4.38315 2.62733 8.43684
227 3 6.64036 0.844474 6.88059
243 3 -0.953076 6.55663 -0.0188716
23 4 3.40227 2.36301 4.37094
230 3 3.92874 3.51762 3.38414
30 4 4.32579 4.55337 2.18219
108 2 4.52838 2.57374 0.894989
226 3 4.62502 1.81121 5.28762
348 2 5.78826 1.62136 1.81401
71 1 4.67066 3.62362 0.568322
211 3 -1.91154 3.15305 8.33447
33 4 5.07478 4.02985 7.81766
26 4 6.10238 1.95275 5.89373
238 3 4.17399 5.2732 7.42534
15 4 -1.74509 6.91351 6.57424
154 2 6.79881 1.47586 0.255816
35 4 3.84327 6.40861 6.22372
142 2 5.72441 3.8905 0.174568
78 1 6.44525 0.42718 2.00515
106 2 3.32294 4.32655 -0.0973961
147 2 5.55663 2.27042 10.6618
292 1 4.1132 0.755114 14.7759
34 4 0.686287 5.99815 10.0115
236 3 -0.858706 6.34519 10.8478
244 3 1.87727 5.97872 11.1632
145 2 1.80296 1.7306 9.16518
66 1 -0.288716 2.38273 11.34
128 2 0.101031 3.17954 10.5713
72 1 2.8886 1.69289 10.778
17 4 -2.22414 6.92145 11.2354
107 2 1.629 1.96708 10.9957
129 2 -0.0990299 1.39569 10.9097
310 2 5.08529 1.60968 16.243
242 3 0.0663666 6.15959 17.3594
305 3 -1.66923 1.84964 17.36
235 3 0.46415 4.5347 9.36701
130 2 0.953676 2.57885 12.576
214 3 -0.95068 4.38008 13.5617
16 4 -1.51221 5.78875 13.9268
6 4 -0.387754 1.53892 15.9739
228 3 1.0456 2.3593 16.1346
28 4 2.30601 3.3551 16.4271
216 3 -2.73022 6.23228 12.8612
10 4 -0.807854 2.79105 13.2498
209 3 -1.10763 1.65444 14.3138
241 3 -1.86948 5.95197 15.4965
37 4 -1.36607 6.63323 16.7898
98 2 -0.261422 6.91155 13.7582
239 3 3.04083 4.19756 15.3317
38 4 2.71534 7.08163 12.079
297 2 4.21771 1.87116 15.0291
143 2 3.60694 2.36668 17.0566
146 2 3.56641 2.59314 11.1461
25 4 3.55661 1.38175 9.01648
206 2 -1.87283 2.46413 11.5817
144 2 3.20673 0.689993 11.224
245 3 3.38864 6.13161 13.2484
328 2 2.53617 7.13936 16.8075
104 2 4.75216 1.6687 12.4808
73 1 5.84506 1.91265 11.6706
294 2 3.43033 0.63 13.8752
215 3 -3.61711 7.10354 10.5061
139 2 -4.11442 13.5516 3.65051
219 3 -4.94524 11.3111 4.34588
186 2 -5.25119 11.6507 0.271648
99 2 -4.69111 13.1665 1.26507
86 1 -4.34941 12.1622 0.968531
18 4 -5.17005 11.033 2.73809
349 2 -5.97377 12.338 2.03764
133 2 -4.02524 8.11409 0.494647
185 2 -3.37151 11.3913 2.26999
122 2 -3.59672 7.57914 2.32469
218 3 -2.39175 8.25885 7.30435
231 3 -0.48824 7.21555 5.72869
20 4 -4.60031 11.5924 5.86185
7 4 -6.81883 13.198 7.45137
19 4 -3.44341 9.55767 7.85216
220 3 -4.05046 10.2962 6.57293
221 3 -5.90072 12.2689 6.58626
100 2 -3.32809 12.7041 5.89773
252 3 0.834333 9.29344 7.11413
313 2 -2.66567 9.80468 4.04776
162 2 -0.714595 13.338 1.08897
309 2 -0.733683 8.03815 2.38093
115 2 -1.96274 13.0124 2.56066
306 4 -2.3439 8.85176 2.25817
308 1 -1.22144 9.32233 3.68291
315 3 -2.46901 9.82642 0.944154
312 2 -0.954525 8.49058 4.46606
39 4 1.66497 9.05285 2.51242
153 2 0.0724766 9.86841 2.34161
246 3 1.42884 8.0675 3.73814
311 2 -0.53974 10.2341 3.88369
247 3 1.71948 8.24198 1.20885
217 3 -4.71858 8.82435 8.62409
345 2 -0.584691 11.7832 0.0670792
110 2 -0.331106 9.35947 7.16387
134 2 -2.82522 12.5172 -0.0367726
158 2 2.45066 8.1077 7.21715
24 4 -0.462897 13.2917 7.90989
181 2 -4.70461 8.69131 4.24845
253 3 0.225687 12.1377 7.07506
307 4 -3.23864 10.7422 -0.139431
163 2 0.123416 13.2172 3.14723
225 3 -3.85861 13.2488 8.80285
249 3 -2.66485 10.6392 8.81572
112 2 -1.17777 8.33638 16.2622
75 1 -1.3152 12.5682 17.5089
318 3 -6.88322 12.9764 9.04066
248 3 1.07706 7.2452 8.98978
317 2 -6.48604 11.4388 11.2066
113 2 -3.45438 9.39475 11.9463
103 2 -5.72187 10.0421 12.1292
222 3 -5.59767 11.1459 12.3702
135 2 -4.73331 8.15626 14.3221
161 2 0.769175 7.33542 15.1656
102 2 -4.28641 8.61051 16.8337
344 2 -4.16427 13.1143 16.0899
320 1 -7.6866 13.1837 16.1329
321 2 -6.5761 13.2526 16.3196
335 2 -4.91313 10.5726 16.0212
22 4 -3.85181 11.0065 12.3837
68 1 -6.00989 9.4075 17.0656
43 4 1.21967 9.52583 13.746
223 3 -3.35216 11.4233 13.9268
77 1 0.298789 8.34339 14.9642
251 3 -3.07082 11.8996 11.2921
41 4 -2.78873 12.1695 9.32357
111 2 -0.978054 8.89718 9.54287
250 3 -1.36814 12.8136 9.17166
40 4 0.654657 8.82195 8.97026
69 1 -1.60456 8.78224 11.3929
136 2 -0.471807 8.7481 11.3908
334 2 -1.5984 13.659 17.4525
138 2 -2.08647 9.61822 10.6729
114 2 -1.54896 11.9297 11.7823
254 3 1.86099 8.27608 12.7877
255 3 0.0780967 10.6035 13.1727
291 4 -2.81625 12.4565 14.9318
44 4 0.0542206 12.0551 12.4935
296 2 -1.24181 11.9118 15.8812
159 2 -0.811467 8.34951 14.527
137 2 -1.9693 8.84029 12.5148
160 2 0.507285 9.24794 15.849
295 2 -2.16994 13.8274 14.0004
322 2 -7.9767 12.7156 15.1834
283 3 1.45631 9.80862 9.90308
21 4 -5.63065 8.02792 15.7961
341 2 -8.36312 12.7576 17.0787
257 3 7.07151 2.09593 4.53059
262 3 5.64041 5.43921 2.43205
46 4 7.55434 1.53275 3.11115
260 3 8.64165 2.44791 2.40432
263 3 4.95413 6.6533 5.11817
264 3 9.12652 4.6246 0.70741
51 4 8.35906 5.93323 0.552976
330 2 7.01393 5.80999 1.55314
50 4 5.90972 6.8304 3.75585
54 4 9.17901 6.87399 4.62343
79 1 10.5367 2.42109 -0.0677667
336 2 8.67057 0.747303 8.71574
234 3 6.21543 3.59769 6.68233
1 4 14.2076 1.92516 3.63989
119 2 7.76938 4.86152 8.16599
95 2 11.5838 4.71786 8.5748
52 4 9.28877 5.45781 7.62775
269 3 9.26829 6.28423 6.27021
2 1 12.3497 4.60606 4.86785
268 3 7.61326 7.01183 3.97259
3 2 12.1958 3.45682 4.62117
49 4 9.81045 3.33175 1.48823
267 3 10.439 6.10798 3.69269
11 4 11.6029 5.14136 3.16294
261 3 11.0511 3.73905 2.36798
131 2 11.3378 2.39079 7.03618
5 3 12.8632 1.08652 3.52504
337 2 10.0147 1.44406 -0.0178729
117 2 11.2809 1.1661 1.2562
8 4 12.0905 2.99846 8.56185
132 2 10.8114 3.98763 6.2286
342 2 11.6006 4.94599 5.67997
120 2 9.49273 3.2489 7.56053
67 1 10.4446 4.05457 7.29971
190 2 13.9215 0.534675 5.65762
343 2 11.4039 6.09008 0.177119
347 2 5.0627 7.00355 0.522925
82 1 6.14736 4.54046 9.37854
173 2 6.97854 3.6287 9.47426
174 2 6.64523 5.55906 9.32959
121 2 4.92978 6.09104 9.53716
175 2 5.20534 4.45036 10.1865
80 1 8.40495 2.23704 9.71453
168 2 7.43333 2.14173 10.3793
169 2 8.3753 3.11117 8.94475
298 2 6.67636 2.21617 17.1738
149 2 6.61589 1.0638 11.6732
346 2 5.16225 3.2642 17.2724
165 2 8.70841 3.22605 16.9789
331 2 5.93929 5.91441 17.0619
148 2 7.12641 3.37374 11.6521
274 3 8.72205 6.23927 12.423
109 2 4.22028 5.78334 16.5025
29 4 6.3267 3.05555 13.2081
229 3 7.28776 2.22919 14.1921
240 3 5.22304 4.09553 13.6392
329 1 4.69301 6.29919 15.5292
332 2 5.86802 6.01558 15.2984
258 3 9.50368 1.22867 15.2932
170 2 8.97002 4.05964 14.5267
325 2 9.43491 6.42284 16.2402
270 3 9.63491 4.8462 14.645
27 4 7.94754 0.881251 14.6849
81 1 11.7057 3.04501 15.5232
338 2 11.2781 5.56857 12.7865
167 2 9.10383 1.21273 11.1941
48 4 9.87405 2.66551 10.6368
259 3 11.2247 2.37193 9.70047
324 2 10.009 4.23175 17.6849
36 4 3.97892 5.11905 14.2862
271 3 9.65736 3.84356 11.7536
101 2 10.9327 5.62331 16.4741
166 2 12.2463 2.53137 14.6064
55 4 9.69356 5.06851 12.7486
47 4 10.8794 1.4971 16.0283
172 2 10.803 3.80945 15.1238
323 1 10.5517 5.40547 17.5283
293 1 5.59221 2.21201 17.232
171 2 12.3752 3.46045 16.3167
265 3 9.94679 6.30379 8.8379
164 2 10.7389 2.28337 17.7421
155 2 1.2077 12.3153 0.12138
57 4 9.83933 8.68084 0.835955
279 3 1.80182 11.2273 4.99697
58 4 3.01112 11.1717 3.93246
277 3 2.85216 10.1576 2.66389
278 3 2.98879 12.9644 3.32422
42 4 1.4861 11.2442 6.53958
92 1 2.89558 11.654 7.59798