ITEM: TIMESTEP
0
ITEM: NUMBER OF ATOMS
350
ITEM: BOX BOUNDS xy xz yz pp pp pp
-9.2171454933018477e+00 1.5608457727936326e+01 -7.7490666531515799e+00
4.0119664078240458e-01 1.3960526826327030e+01 -1.5378211122139989e+00
-1.4695996115413124e-01 1.7785259961154189e+01 1.4232346710932497e-01
ITEM: ATOMS id type x y z
207 3 -0.430339 1.37028 4.84477
304 3 -0.427242 1.84687 2.23779
74 1 0.720736 5.30318 3.7089
150 2 1.16097 4.37668 4.19584
151 2 1.16262 5.51457 2.6416
152 2 -0.458886 5.32817 3.75285
224 3 1.99632 2.91392 4.95949
299 4 -0.324061 2.65115 0.884549
300 1 1.35093 3.28383 1.39456
301 2 1.77932 3.50965 0.346063
237 3 2.24364 6.24728 5.65498
12 4 -1.99835 5.37598 0.646705
340 2 -1.54966 3.54842 3.93448
70 1 2.87096 1.00339 3.06342
4 2 -1.96236 4.82632 5.11362
31 4 0.984771 6.80863 4.79856
314 3 -2.77575 5.89034 2.32916
210 3 -1.31253 3.8666 0.779656
97 2 -3.06847 6.38312 5.53623
32 4 2.49596 6.99621 0.572415
302 2 1.92263 2.44605 2.02263
232 3 3.11338 5.72218 1.66625
303 2 1.18785 4.32282 2.03182
141 2 1.77913 1.0197 3.12029
140 2 3.28268 1.02922 1.99742
9 4 0.736756 2.37284 5.91253
213 3 -1.45537 5.83244 7.54494
13 4 -0.744834 4.31493 7.86017
208 3 1.40034 1.40617 7.01586
212 3 -0.0187466 3.60013 6.53352
233 3 4.26186 2.7381 8.53139
227 3 6.44939 0.935936 6.98863
243 3 -1.17232 6.54634 -0.0459508
23 4 3.38025 2.41911 4.31045
230 3 3.87605 3.59733 3.33251
30 4 4.36526 4.66477 2.07891
108 2 4.5415 2.54692 1.15778
226 3 4.51647 1.71747 5.2384
348 2 5.91787 1.28464 1.72459
71 1 4.7846 3.65705 0.590903
211 3 -1.96772 3.35609 8.19616
33 4 4.95799 4.01518 7.80004
26 4 6.06876 2.02572 5.82895
238 3 4.10921 5.28296 7.4213
15 4 -1.85268 6.99455 6.57609
154 2 6.88964 1.41606 0.202631
35 4 3.68429 6.39611 6.20093
36 4 3.98666 5.00516 14.3087
292 1 3.9902 0.791191 14.5089
34 4 0.572193 6.02072 9.98956
236 3 -0.988852 6.38429 10.687
244 3 1.72102 5.90857 11.0659
145 2 1.66967 1.73953 9.06481
66 1 -0.440842 2.33416 11.362
128 2 -0.224951 3.18293 10.621
72 1 2.61685 1.88163 10.7479
17 4 -2.31987 7.03765 11.248
107 2 1.52026 2.01034 10.9841
129 2 -0.27862 1.31548 10.8751
310 2 4.99491 1.64606 16.0406
242 3 -0.126017 6.46724 17.469
305 3 -1.58773 1.87466 17.2943
235 3 0.225424 4.43272 9.26767
130 2 0.914918 2.46105 12.5883
214 3 -0.76851 4.46942 13.5704
16 4 -1.39155 5.90512 13.9203
6 4 -0.458154 1.63909 16.122
228 3 0.913133 2.51923 16.3146
28 4 2.3074 3.29523 16.4507
216 3 -2.76359 6.37123 12.9181
10 4 -0.623135 2.92112 13.3509
209 3 -0.95808 1.88257 14.4104
241 3 -1.99113 5.88574 15.3929
37 4 -1.55575 6.76831 16.7243
98 2 -0.0557395 7.0241 13.7816
239 3 3.00344 4.08853 15.3083
38 4 2.61859 6.87636 12.1615
297 2 3.79788 1.87822 14.7892
143 2 3.52617 2.19669 17.0306
146 2 3.09776 2.86135 10.9485
25 4 3.45164 1.50682 9.08164
206 2 -1.71289 2.29171 11.7025
144 2 3.16482 1.05207 11.3808
245 3 3.1297 5.91096 13.3517
149 2 6.2403 1.26547 11.6409
104 2 4.7131 2.4751 12.0468
295 2 5.4671 0.73718 13.7302
106 2 1.94398 4.6602 17.5763
328 2 2.41694 7.06905 16.6628
139 2 -4.42099 13.5071 3.60326
219 3 -4.85364 11.4138 4.3612
186 2 -5.04742 11.6457 0.423838
99 2 -4.45672 13.1688 1.27491
86 1 -4.1943 12.1377 0.900986
18 4 -4.99954 11.019 2.76695
349 2 -5.89725 12.2027 1.8982
133 2 -3.7796 8.20304 0.429951
185 2 -3.20096 11.4063 2.17168
122 2 -3.29524 7.50939 2.28726
218 3 -2.45814 8.25439 7.34734
231 3 -0.648695 7.32553 5.67635
20 4 -4.56082 11.5755 5.93462
7 4 -6.81139 13.2163 7.43366
19 4 -3.49471 9.50748 7.84101
220 3 -4.02341 10.1305 6.38756
221 3 -5.81916 12.193 6.6275
100 2 -3.34908 12.7026 6.21814
252 3 0.730627 9.42275 7.09016
313 2 -2.8409 9.89879 4.0188
162 2 -0.449514 13.2873 0.960941
309 2 -0.794052 8.00565 2.80715
115 2 -1.32243 12.9157 2.65028
306 4 -2.26597 8.91351 2.35952
308 1 -1.22355 9.57251 3.79667
315 3 -2.14452 9.7029 0.992533
312 2 -0.926552 8.6107 4.53312
39 4 1.62089 9.05334 2.56367
153 2 0.1051 9.89622 2.42019
246 3 1.31958 7.94587 3.68876
311 2 -0.535709 10.4457 4.11169
247 3 1.81823 8.32991 1.20909
158 2 2.49737 8.34749 7.09415
345 2 -0.302264 11.8038 0.0209236
110 2 -0.41538 9.534 7.17114
249 3 -2.73826 10.7086 8.60761
78 1 -0.897022 13.7715 1.92934
24 4 -0.461413 13.4012 7.88767
181 2 -4.79872 8.56399 4.74557
253 3 0.23426 12.3506 6.86701
217 3 -4.75014 8.82264 8.65514
112 2 -1.45967 8.42863 16.2433
75 1 -1.18904 12.5783 17.2186
318 3 -6.94811 13.05 8.9417
294 2 -4.55936 13.869 13.8252
317 2 -6.23316 11.5431 11.0227
113 2 -3.40018 9.16012 12.266
103 2 -5.68506 9.99802 12.156
222 3 -5.45279 11.0643 12.3255
135 2 -5.4057 8.36472 14.0113
283 3 1.52845 9.92128 9.74542
102 2 -4.25099 8.38628 16.7168
344 2 -3.80786 13.5154 16.1127
320 1 -7.84716 13.2054 16.3821
321 2 -6.6976 13.2923 16.5138
335 2 -4.41976 10.3071 16.0357
22 4 -3.82585 10.8163 12.4607
68 1 -5.81669 9.44655 17.0225
43 4 1.19828 9.43387 13.7493
223 3 -3.34978 11.4685 13.9966
77 1 0.114604 8.47864 15.1019
251 3 -2.93208 11.7522 11.0866
41 4 -2.66294 12.1535 9.34232
111 2 -0.840365 9.03029 9.76793
250 3 -1.2128 12.8124 9.2179
40 4 0.629834 8.82799 8.94922
69 1 -1.58475 8.80382 11.5906
136 2 -0.417953 8.65263 11.4038
248 3 0.986472 7.31231 9.08718
138 2 -2.1015 9.64185 11.0182
114 2 -1.49433 12.0524 11.6475
254 3 1.77033 8.18687 12.8932
255 3 0.0700313 10.5379 13.1397
291 4 -2.71736 12.6504 14.7589
307 4 -4.61578 10.8199 17.7682
296 2 -1.29046 12.0389 15.8095
159 2 -0.917687 8.37265 14.5167
137 2 -1.74196 8.87513 12.7084
160 2 0.0187349 9.25002 16.0413
225 3 -3.81535 13.3958 9.09712
161 2 0.695813 7.56021 15.3626
334 2 -1.66739 13.6929 17.1956
322 2 -8.16622 12.7732 15.3493
44 4 0.00784721 11.9243 12.4317
215 3 -3.61674 7.28711 10.4756
134 2 -4.27911 12.6403 17.7497
341 2 -8.33074 12.6971 17.2507
257 3 7.062 2.04288 4.6274
262 3 5.66118 5.51808 2.41718
46 4 7.63184 1.63644 3.11833
260 3 8.79982 2.38856 2.25072
263 3 4.80669 6.71079 5.00473
264 3 9.0057 4.72521 0.940667
51 4 8.32984 6.07016 0.574144
330 2 6.88424 6.22949 1.46628
50 4 5.85949 6.84353 3.76322
54 4 9.12051 6.81236 4.76787
79 1 10.425 2.407 -0.0858107
336 2 8.62612 0.954822 8.58114
234 3 5.9925 3.58114 6.66358
1 4 14.3651 1.9133 3.58815
119 2 7.67341 5.00794 8.1323
95 2 11.7198 4.92934 8.23352
52 4 9.23641 5.45042 7.64454
269 3 9.06606 6.13467 6.22066
2 1 12.518 4.52798 4.81975
268 3 7.51246 6.95514 4.09848
3 2 12.4107 3.36693 4.51603
49 4 9.75624 3.43036 1.46705
267 3 10.4567 5.96814 3.88892
11 4 11.6779 5.09518 3.11748
261 3 11.2311 3.73814 2.43061
131 2 11.3777 2.38527 7.00706
5 3 12.8165 1.16507 3.5563
337 2 9.98939 1.39354 0.117456
117 2 11.4183 1.37027 1.21673
8 4 12.0296 3.16024 8.41525
132 2 10.5043 4.00012 5.97545
342 2 11.8024 4.8182 5.63298
120 2 9.54082 3.23544 7.58611
67 1 10.4551 4.09585 7.13248
142 2 5.89656 3.79167 0.289136
343 2 11.4223 6.10286 -0.105471
82 1 6.12974 4.50819 9.35902
173 2 7.08918 3.74426 9.39367
174 2 6.48779 5.57984 9.15003
121 2 4.9828 6.09899 9.42954
175 2 5.34942 4.35629 10.177
80 1 8.58699 2.39129 9.73264
168 2 7.63204 2.43388 10.4235
169 2 8.75302 3.35331 9.07522
298 2 6.64059 2.44096 16.902
73 1 5.87793 2.3353 11.5564
346 2 4.95713 3.2112 17.2084
165 2 8.28841 3.09711 17.0371
331 2 6.06827 5.99038 16.9349
148 2 7.1446 3.85579 11.5533
274 3 8.85129 6.11612 12.3055
109 2 4.34988 5.56191 16.586
29 4 6.5388 3.26119 13.0983
229 3 7.34073 2.17685 13.8786
240 3 5.43933 4.21759 13.6844
329 1 4.54116 6.27865 15.6973
332 2 5.63112 6.35275 15.374
258 3 9.42329 1.16579 15.2697
170 2 8.73185 4.10479 14.4508
325 2 9.40977 6.48597 16.2919
270 3 9.65965 4.5578 14.6178
27 4 8.00472 0.925121 14.6042
81 1 11.7488 2.8962 15.6318
338 2 11.3985 5.54021 13.0012
167 2 9.19291 1.05153 11.0552
48 4 10.0484 2.55888 10.7705
259 3 11.4065 2.56751 9.90691
324 2 9.90179 4.24024 17.5411
147 2 5.9187 2.74488 10.5285
271 3 9.90459 3.69936 11.8655
101 2 10.8707 5.44638 16.3536
166 2 12.3534 2.19154 14.8088
55 4 9.81953 4.90054 12.8695
47 4 10.8523 1.33244 16.1099
172 2 10.9979 3.60134 15.1208
323 1 10.4963 5.32571 17.4534
293 1 5.48266 2.23043 17.0822
171 2 12.4437 3.43925 16.3107
164 2 10.4786 2.5387 17.5442
105 2 7.05258 0.569449 15.9441
265 3 9.8682 6.30194 8.85412
163 2 0.310778 13.3995 3.38869
57 4 9.97059 8.73712 0.726189
279 3 1.91987 11.5008 4.99384
58 4 3.12569 11.3507 3.92454
277 3 2.79455 10.1797 2.93337
278 3 3.11362 12.8151 3.07122
42 4 1.39181 11.3741 6.42769
92 1 2.75132 11.8106 7.55812
126 2 2.17639 12.4992 8.38444
203 2 3.08907 10.7986 7.9634
276 3 10.047 9.47672 2.19366
275 3 9.10684 7.36233 0.662708
45 4 4.32117 13.7161 2.45408
189 2 7.44111 12.3273 4.5826
59 4 6.42154 11.5905 1.62345
83 1 5.39596 8.2452 2.67829
125 2 4.89087 7.94237 1.5152
176 2 5.33877 10.4133 0.847662
177 2 6.42963 8.7505 2.58761
178 2 7.01199 10.6404 3.1786
280 3 5.35284 12.6782 1.84564
285 3 4.48944 10.7803 4.71458
187 2 7.96582 10.4895 5.09446
87 1 7.2546 11.147 4.49858
188 2 4.72269 8.82593 3.4471
289 3 7.68765 11.6657 0.551793
200 2 3.66491 10.7739 0.860963
123 2 7.9224 12.5844 0.938572
62 4 5.76348 11.2185 5.57554
350 2 4.36537 13.262 5.51861
88 1 5.2863 13.2237 6.09173
201 2 3.70458 12.3611 6.97921
156 2 4.08095 8.80892 6.13618
94 2 7.13143 13.0211 6.81809
157 2 4.19001 8.38566 7.95663
191 2 5.19454 13.2895 7.15385
76 1 3.62199 8.16771 6.98145
182 2 7.44709 7.37155 8.37678
286 3 6.16551 10.423 6.95881
85 1 7.68417 8.25731 7.67578
183 2 8.77803 8.71526 7.74695
60 4 6.62898 9.60735 8.33997
184 2 7.31403 8.01334 6.61664
180 2 9.05057 9.17079 4.24438
84 1 9.6862 8.56728 5.07575
179 2 9.59902 9.00083 6.06791
347 2 5.1364 7.16343 0.165721
190 2 6.15374 13.8422 5.63676
124 2 8.04107 10.0282 17.2759
61 4 2.20919 11.1002 10.7058
290 3 5.84016 10.6759 12.8176
284 3 1.22107 12.2083 11.3406
326 1 2.6304 7.59515 17.6579
316 4 7.96184 11.994 10.0031
91 1 2.22945 10.8094 17.6796
199 2 1.82479 12.1745 16.9757
256 3 0.198298 13.0055 13.5828
288 3 2.29927 10.1874 14.6894
273 3 6.78652 7.25259 11.0002
195 2 3.35094 12.9561 14.5982
202 2 3.40664 10.3906 12.0986
14 4 10.4596 7.64072 9.70109
56 4 8.21934 7.46666 11.7154
197 2 4.98062 13.6758 14.9817
266 3 3.98609 7.51146 11.3591
53 4 5.29836 7.46646 10.3732
127 2 3.5369 12.2869 9.8518
319 3 6.78142 12.46 10.9744
281 3 5.27748 8.61042 9.33065
282 3 7.59992 10.6401 9.2692
205 2 4.65653 10.1971 10.1648
93 1 4.22826 11.0878 10.7497
65 4 5.57098 11.84 11.7731
64 4 3.10094 11.0911 15.7852
272 3 9.37944 8.19171 10.8095
204 2 4.1014 12.7136 11.8979
116 2 3.8418 10.0923 17.1036
333 2 3.69985 13.2077 17.0312
96 2 8.39583 9.0032 15.8479
287 3 7.89654 8.67579 12.9507
90 1 4.21132 12.978 15.3989
196 2 5.01875 11.5145 15.3227
339 2 5.21668 8.09312 13.6683
89 1 6.07439 8.9035 15.2224
192 2 6.5989 9.92286 15.6021
193 2 6.5002 7.9533 15.6741
194 2 4.89675 9.00592 15.1753
63 4 6.50073 9.31941 13.4027
198 2 1.42163 10.1046 17.4446
155 2 -0.105996 12.556 17.566
327 2 2.49514 8.83412 17.6205
21 4 9.90293 8.03494 15.6916
118 2 4.02405 7.32246 15.7858
ITEM: TIMESTEP
100
ITEM: NUMBER OF ATOMS
350
ITEM: BOX BOUNDS xy xz yz pp pp pp
-9.2081793833406920e+00 1.5608457727936326e+01 -7.7490666531515799e+00
4.0119664078240458e-01 1.3960526826327030e+01 -1.5288550022528433e+00
-1.4695996115413124e-01 1.7785259961154189e+01 1.4232346710932497e-01
ITEM: ATOMS id type x y z
207 3 -0.442068 1.56839 4.93564
304 3 -0.563639 1.68628 2.14767
74 1 0.439175 5.44476 3.57176
150 2 1.15823 4.56489 3.97483
151 2 0.674105 5.68948 2.49466
152 2 -0.661945 5.31919 3.8033
224 3 2.06173 2.82427 5.07793
299 4 -0.152012 2.59269 0.898676
300 1 1.65575 3.1984 1.24785
301 2 2.26989 3.30313 0.291232
237 3 2.21513 6.3491 5.80282
12 4 -2.11251 5.37113 0.615257
340 2 -1.68204 3.56684 3.8841
70 1 2.80037 0.969439 3.17894
4 2 -1.85291 4.79683 5.10205
31 4 1.01934 6.77602 4.74297
314 3 -2.72668 6.02457 2.3657
210 3 -1.21341 4.00679 0.742704
97 2 -3.13792 6.47225 5.58369
32 4 2.45767 6.90283 0.539842
302 2 2.08128 2.48557 1.97278
232 3 2.93847 5.8269 1.6862
303 2 1.3978 4.18297 1.75017
141 2 1.65435 0.944028 3.10244
140 2 3.23652 0.895998 2.07969
9 4 0.687654 2.41994 5.98529
213 3 -1.48953 5.69966 7.50684
13 4 -0.715874 4.32873 7.84108
208 3 1.15406 1.34869 7.08748
212 3 0.0724123 3.79496 6.4914
233 3 4.26207 2.5961 8.5187
227 3 6.65916 1.07345 6.83789
243 3 -1.22744 6.51654 0.0118103
23 4 3.41678 2.40947 4.36238
230 3 3.8312 3.55034 3.1409
30 4 4.25245 4.80443 2.18371
108 2 4.38662 2.78681 1.13015
226 3 4.50207 1.67259 5.26071
348 2 5.85204 1.34678 1.67169
71 1 4.71911 3.81385 0.673297
211 3 -2.03568 3.11667 8.1583
33 4 5.06089 3.96005 7.92622
26 4 6.03536 2.04281 5.79823
238 3 4.24739 5.2181 7.47751
15 4 -1.79272 6.95248 6.60224
154 2 6.97227 1.55468 0.275294
35 4 3.81358 6.3879 6.34483
147 2 5.39322 2.91879 10.6724
292 1 4.13247 0.867671 14.6332
34 4 0.589176 5.97532 10.0047
236 3 -0.914641 6.48513 10.4737
244 3 1.64832 6.06182 11.1994
145 2 1.69282 1.59905 9.37778
66 1 -0.219029 2.30024 11.3631
128 2 0.00454427 3.12174 10.5982
72 1 2.92897 1.83218 10.8073
17 4 -2.12858 7.03651 11.2209
107 2 1.71836 2.02881 11.0922
129 2 -0.0435673 1.30389 11.0041
310 2 4.98472 1.68341 16.2185
242 3 -0.00923787 6.35499 17.2544
305 3 -1.48949 2.0094 17.4462
235 3 0.339538 4.38584 9.22711
130 2 1.01663 2.52774 12.5424
214 3 -0.770079 4.42641 13.4608
16 4 -1.4512 5.78328 13.9898
6 4 -0.50597 1.53609 16.1277
228 3 1.11 2.52204 16.3388
28 4 2.39304 3.39812 16.4672
216 3 -2.63983 6.2242 12.8848
10 4 -0.703646 2.89893 13.1793
209 3 -1.07554 1.72001 14.6743
241 3 -1.84981 5.89643 15.5101
37 4 -1.51072 6.679 16.8022
98 2 -0.112641 6.92147 13.9229
239 3 3.02654 4.11216 15.2416
38 4 2.73837 7.01899 12.03
297 2 4.23599 1.90477 14.9612
143 2 3.57046 2.26584 17.1305
146 2 3.51621 2.75401 10.9812
25 4 3.4637 1.33666 9.07989
206 2 -1.89292 2.30767 11.7746
144 2 3.33633 0.861625 11.3668
245 3 3.32225 6.03833 13.2494
106 2 2.04598 4.81847 17.5687
104 2 4.84372 1.78674 12.2921
328 2 2.50867 7.1855 16.8092
294 2 3.28759 0.715691 13.9189
248 3 1.21851 7.16483 8.87051
149 2 6.36598 1.34327 11.1246
73 1 5.78406 2.22938 11.5467
215 3 -3.48112 7.17446 10.4131
139 2 -4.56198 13.5336 3.79852
219 3 -4.93488 11.274 4.35275
186 2 -5.18343 11.6682 0.382053
99 2 -4.52087 13.3387 1.13663
86 1 -4.24679 12.1521 0.914878
18 4 -5.05895 11.0555 2.71505
349 2 -5.95641 12.3146 1.97579
133 2 -3.81296 8.1074 0.382462
185 2 -3.34609 11.5176 2.28074
122 2 -3.27385 7.46179 2.02828
218 3 -2.31109 8.25528 7.38463
231 3 -0.720246 7.17456 5.51063
20 4 -4.6035 11.5056 5.87669
7 4 -6.78525 13.1082 7.45155
19 4 -3.45772 9.47473 7.86754
220 3 -4.0225 10.1965 6.53705
221 3 -5.81223 12.179 6.64712
100 2 -3.37587 12.6629 5.85556
252 3 0.737309 9.3052 7.18709
313 2 -2.85363 9.92535 3.93268
162 2 -0.670911 13.304 1.00503
309 2 -0.721389 8.03494 2.73958
115 2 -1.68064 13.1291 2.64334
306 4 -2.25948 8.91907 2.31771
308 1 -1.27894 9.48072 3.8299
315 3 -2.28117 9.92139 1.02896
312 2 -1.01753 8.53837 4.59824
39 4 1.7152 8.99378 2.52885
153 2 0.138963 9.70631 2.48048
246 3 1.613 7.94391 3.74186
311 2 -0.646798 10.3746 3.94148
247 3 1.9768 8.30964 1.11756
217 3 -4.74336 8.79814 8.64136
345 2 -0.411709 11.9528 0.022366
110 2 -0.348604 9.46969 7.30966
249 3 -2.8179 10.6584 8.73923
78 1 -1.15003 13.8254 1.98322
24 4 -0.456645 13.4855 7.86984
181 2 -4.63265 8.5699 4.28777
253 3 0.242141 12.267 7.0602
307 4 -3.17526 10.7552 -0.0881155
112 2 -1.37562 8.34986 16.408
75 1 -1.30799 12.6559 17.2819
318 3 -6.93757 12.9408 8.98692
134 2 -4.2854 12.6169 17.725
317 2 -6.46391 11.6276 11.2048
113 2 -3.36935 9.14379 12.2144
103 2 -5.5615 10.05 12.1759
222 3 -5.50178 11.1427 12.4023
135 2 -5.00596 8.28282 14.1589
161 2 0.735623 7.5485 15.3771
102 2 -4.35206 8.33508 16.7783
344 2 -4.15 13.2493 15.979
320 1 -7.86145 13.1499 16.2576
321 2 -6.7233 13.152 16.3737
335 2 -4.72286 10.2947 16.1383
22 4 -3.82058 10.8393 12.4112
68 1 -5.95165 9.36913 16.9996
43 4 1.19658 9.44371 13.7056
223 3 -3.4402 11.2834 13.9368
77 1 0.148465 8.52857 15.0803
251 3 -2.79653 11.9825 11.1041
41 4 -2.68706 12.1022 9.42203
111 2 -0.807867 8.81872 9.76735
250 3 -1.32661 12.8594 9.06556
40 4 0.720079 8.72624 9.01885
69 1 -1.51498 8.86125 11.6346
136 2 -0.387284 8.60016 11.4207
334 2 -1.6414 13.8006 17.3285
138 2 -1.70651 9.93105 11.1473
114 2 -1.46705 11.9926 11.765
254 3 1.78524 8.37936 12.7263
255 3 0.0487715 10.4557 13.0045
291 4 -2.88034 12.5132 14.7685
44 4 0.0885967 11.9955 12.5238
296 2 -1.36527 12.0406 15.7667
159 2 -0.79793 8.48326 14.5086
137 2 -1.79036 8.78113 12.7884
160 2 0.192722 9.38353 15.8993
225 3 -3.76729 13.2814 8.90532
295 2 -2.18104 13.8323 13.6584
283 3 1.58541 9.82365 9.73542
322 2 -8.19704 12.7966 15.1739
257 3 7.01783 1.98865 4.32238
262 3 5.69546 5.47443 2.55203
46 4 7.68601 1.52349 3.02119
260 3 8.71874 2.53652 2.20298
263 3 5.0329 6.59976 5.14161
264 3 9.18466 4.73047 0.839409
51 4 8.32071 5.97054 0.602795
330 2 6.93444 5.94069 1.56944
50 4 5.97582 6.8448 3.87154
54 4 9.15981 6.78451 4.63367
79 1 10.4326 2.37679 0.0282245
336 2 8.60453 0.907881 8.69933
234 3 6.10747 3.50914 6.6751
1 4 14.2921 1.93826 3.61919
119 2 7.68414 4.85488 7.98801
95 2 11.5793 4.99674 8.27872
52 4 9.20564 5.50003 7.58467
269 3 9.19513 6.17064 6.20939
2 1 12.5729 4.61134 4.94163
268 3 7.51389 6.94503 4.25545
3 2 12.363 3.45767 4.71197
49 4 9.81288 3.49337 1.52177
267 3 10.3115 6.05886 3.71061
11 4 11.7039 5.19663 3.25835
261 3 11.2691 3.85937 2.52031
131 2 11.3551 2.3982 7.07933
5 3 12.7801 1.21698 3.6846
337 2 9.90586 1.42391 0.173789
117 2 11.3096 1.30349 1.40911
8 4 11.9826 3.16583 8.46844
132 2 10.8206 4.11107 6.13428
342 2 11.8795 4.91456 5.86653
120 2 9.51003 3.25065 7.45229
67 1 10.424 4.12337 7.22422
142 2 5.81177 3.9577 0.381198
164 2 12.0537 2.16522 -0.101895
82 1 6.21043 4.61171 9.32125
173 2 7.08155 3.73147 9.35671
174 2 6.54895 5.63891 9.03174
121 2 4.971 6.17494 9.3886
175 2 5.55425 4.58591 10.2713
80 1 8.37118 2.25627 9.62172
168 2 7.44131 2.22624 10.3562
169 2 8.43546 3.20251 9.01455
298 2 6.62157 2.4853 16.9747
343 2 9.69936 6.07657 17.7133
346 2 5.06905 3.35217 17.3481
165 2 8.4049 3.14792 17.1421
331 2 6.07713 6.07897 16.9905
148 2 7.03907 3.69169 11.6983
274 3 8.6351 6.2473 12.4126
109 2 4.38319 6.19222 16.7017
29 4 6.31443 3.16102 13.1965
229 3 7.41109 2.36742 13.9875
240 3 5.27899 4.15154 13.829
329 1 4.70667 6.46234 15.5902
332 2 5.84825 6.22895 15.3141
258 3 9.41036 1.15705 15.3105
170 2 8.93907 3.90709 14.2726
325 2 9.40756 6.31041 16.0296
270 3 9.49522 4.70849 14.5179
27 4 7.9379 0.979704 14.5825
81 1 11.5306 2.87395 15.587
338 2 11.4072 5.72397 12.7782
167 2 9.14911 1.08573 10.9892
48 4 9.89882 2.61749 10.6332
259 3 11.2786 2.41987 9.84424
324 2 9.9865 4.15509 17.4237
36 4 4.03651 5.13875 14.3618
271 3 9.80355 3.75904 11.7319
101 2 10.974 5.58744 16.3479
166 2 12.1709 2.34568 14.7006
55 4 9.7926 5.06406 12.8297
47 4 10.8212 1.3284 16.1095
172 2 10.7025 3.6568 15.1296
323 1 10.4477 5.30853 17.3727
293 1 5.54569 2.32785 17.1957
171 2 12.2631 3.32162 16.3951
265 3 9.76493 6.36285 8.84523
105 2 6.93342 0.590362 15.9077
163 2 0.465516 13.2319 2.93475
57 4 9.96486 8.60218 0.72803
279 3 1.90637 11.3567 5.09521
58 4 2.98271 11.3079 3.89606
277 3 2.76286 10.1176 2.75485
278 3 3.06682 12.7073 3.16919
42 4 1.34823 11.3062 6.55405
92 1 2.80422 11.6967 7.56316
126 2 2.24338 12.4492 8.3344
203 2 3.18114 10.6797 8.06311
276 3 10.0269 9.60049 1.98404
275 3 9.09017 7.33761 0.68437
45 4 4.32719 13.7076 2.5508
189 2 7.45685 12.5228 4.711
59 4 6.42227 11.5643 1.42574
83 1 5.43695 8.25182 2.80908
125 2 4.99503 7.98332 1.70425
176 2 5.5462 10.2101 0.587809
177 2 6.42374 8.8297 2.72335
178 2 6.83061 10.7945 3.07698
280 3 5.22714 12.6131 1.69124
285 3 4.60398 10.8575 4.55414
187 2 8.12887 10.7527 5.14962
87 1 7.32726 11.4127 4.60006
188 2 4.66465 8.70203 3.55267
289 3 7.75194 11.8078 0.545105
200 2 3.90036 10.7398 0.712873
123 2 7.91737 12.687 1.14306
62 4 5.82078 11.1285 5.51283
350 2 4.30627 13.3098 5.87403
88 1 5.3853 13.0646 6.23633
201 2 3.72681 12.187 7.04947
156 2 4.58275 8.71798 6.33083
94 2 7.22952 12.7596 6.7972
157 2 4.34242 8.05496 8.15804
191 2 5.47583 13.1108 7.39576
76 1 3.89782 8.10824 7.13213
182 2 7.34041 7.41428 8.33356
286 3 6.08212 10.296 6.93794
85 1 7.74471 8.24682 7.64786
183 2 8.80334 8.48149 7.92685
60 4 6.66388 9.63701 8.30479
184 2 7.63463 8.12868 6.49514
180 2 9.02695 9.16766 4.38518
84 1 9.88651 8.5273 4.84108
179 2 9.96265 8.67027 5.93369
158 2 2.74236 8.35298 7.07604
347 2 5.12928 7.13652 0.392838
190 2 6.17926 13.8075 5.79609
326 1 4.22437 7.51118 -0.0970536
327 2 4.22192 8.66105 -0.12296
124 2 7.98267 9.94656 17.1976
61 4 2.13597 11.0128 10.7058
290 3 5.94086 10.7549 12.9277
284 3 1.20091 12.0977 11.4441
341 2 7.11653 12.6301 17.1928
316 4 7.88368 11.9266 9.98489
91 1 2.41156 10.7812 17.5497
199 2 2.22128 12.265 17.0504
256 3 0.153417 13.2426 13.5566
288 3 2.3556 10.4846 14.5386
273 3 6.70683 7.34432 10.9544
195 2 3.44413 13.0247 14.4719
202 2 3.27099 10.3371 12.0119
14 4 10.5872 7.6719 9.72971
56 4 8.1123 7.55196 11.7148
197 2 5.00485 13.8054 15.0166
266 3 4.11737 7.53783 11.4414
53 4 5.27979 7.54665 10.3831
127 2 3.5344 12.3494 9.82581
319 3 6.4531 12.5985 10.8042
281 3 5.41744 8.85734 9.49316
282 3 7.54028 10.555 9.25523
205 2 4.61815 10.3843 10.206
93 1 4.12158 11.327 10.7548
65 4 5.54712 11.8602 11.8421
64 4 3.26271 11.1156 15.6491
272 3 9.38558 8.11893 10.7522
204 2 4.04447 12.7111 12.1414
116 2 3.84103 9.85442 16.8506
333 2 3.79349 13.1827 16.9565
96 2 8.45318 9.16661 15.4837
287 3 7.78712 8.66495 12.9463
90 1 4.25505 13.0003 15.3266
196 2 5.11968 11.5536 15.1413
339 2 5.10203 8.20268 13.7616
89 1 5.98648 8.9462 15.302
192 2 6.58464 10.1174 15.5545
193 2 6.59513 8.09401 15.7723
194 2 5.0073 8.92655 15.8403
63 4 6.40108 9.35247 13.4634
198 2 1.50637 10.1016 17.3106
155 2 -0.278079 12.539 17.6552
118 2 4.38579 7.49578 15.3684
21 4 9.79687 8.0011 15.6313
ITEM: TIMESTEP
200
ITEM: NUMBER OF ATOMS
350
ITEM: BOX BOUNDS xy xz yz pp pp pp
-9.1992132733795380e+00 1.5608457727936326e+01 -7.7490666531515799e+00
4.0119664078240458e-01 1.3960526826327030e+01 -1.5198888922916893e+00
-1.4695996115413124e-01 1.7785259961154189e+01 1.4232346710932497e-01
ITEM: ATOMS id type x y z
207 3 -0.416732 1.59658 4.9259
304 3 -0.532482 1.80303 2.29793
74 1 0.526847 5.43653 3.54229
150 2 1.11705 4.58185 4.12654
151 2 0.776105 5.55713 2.42855
152 2 -0.602463 5.44353 3.72768
224 3 2.06662 2.64523 5.12109
299 4 -0.361459 2.56827 0.843341
300 1 1.4101 3.08042 1.25124
301 2 1.83825 3.18918 0.210514
237 3 2.39901 6.08222 5.48
12 4 -1.95718 5.51188 0.720787
340 2 -1.81408 3.56686 3.92702
70 1 2.94047 0.8574 3.20092
4 2 -2.12893 4.93261 5.07252
31 4 1.07274 6.82782 4.65746
314 3 -2.7975 6.11756 2.35411
210 3 -1.36074 3.97561 0.828725
97 2 -2.96193 6.48439 5.51829
32 4 2.60906 6.79566 0.698691
302 2 1.98159 2.23024 1.99462
232 3 3.20642 5.67835 1.77311
303 2 1.36748 4.09083 1.78935
141 2 1.81756 0.696902 3.47965
140 2 3.14362 0.943053 2.03261
9 4 0.74787 2.46219 6.04818
213 3 -1.51779 5.6739 7.55516
13 4 -0.744939 4.31932 7.92232
208 3 1.16642 1.45932 7.21483
212 3 0.00303511 3.74477 6.55273
233 3 4.39174 2.63551 8.43652
227 3 6.64666 0.85149 6.88047
243 3 -0.953352 6.55631 -0.0185408
23 4 3.40703 2.36734 4.37092
230 3 3.93275 3.5206 3.38329
30 4 4.3277 4.55561 2.18209
108 2 4.53197 2.57427 0.896056
226 3 4.62994 1.81662 5.2882
348 2 5.79141 1.62185 1.81442
71 1 4.67186 3.62465 0.567215
211 3 -1.90249 3.16109 8.3354
33 4 5.08287 4.03813 7.8175
26 4 6.10787 1.95919 5.89384
238 3 4.18145 5.28106 7.42585
15 4 -1.73839 6.91981 6.57433
154 2 6.79925 1.47522 0.25513
35 4 3.84934 6.41521 6.22445
142 2 5.72304 3.89282 0.175985
78 1 6.44763 0.429096 2.00632
106 2 3.32206 4.32524 -0.0972432
147 2 5.56699 2.27899 10.6616
292 1 4.12676 0.770143 14.7756
34 4 0.696699 6.00836 10.0117
236 3 -0.848255 6.35576 10.8479
244 3 1.88823 5.99046 11.1636
145 2 1.8126 1.73747 9.16642
66 1 -0.277376 2.39472 11.3407
128 2 0.112341 3.19048 10.5721
72 1 2.89846 1.70267 10.7777
17 4 -2.21294 6.93277 11.2357
107 2 1.63944 1.97787 10.9944
129 2 -0.08866 1.40781 10.911
310 2 5.09811 1.62496 16.242
242 3 0.0836902 6.17697 17.3604
305 3 -1.65129 1.86691 17.3604
235 3 0.474579 4.54449 9.3666
130 2 0.965312 2.59217 12.5753
214 3 -0.936722 4.39426 13.562
16 4 -1.49823 5.80272 13.9271
6 4 -0.371101 1.55538 15.974
228 3 1.06217 2.37547 16.1346
28 4 2.3224 3.37143 16.4278
216 3 -2.71793 6.24496 12.8623
10 4 -0.79447 2.80536 13.2501
209 3 -1.09333 1.66936 14.315
241 3 -1.85225 5.96819 15.497
37 4 -1.34844 6.64999 16.79
98 2 -0.24668 6.92513 13.7556
239 3 3.05652 4.21328 15.3321
38 4 2.72684 7.09377 12.0788
297 2 4.23096 1.8866 15.0278
143 2 3.62342 2.38193 17.0552
146 2 3.57709 2.60277 11.1459
25 4 3.56577 1.3903 9.01633
206 2 -1.86181 2.47771 11.5818
144 2 3.21602 0.700232 11.2246
245 3 3.4016 6.14509 13.2483
328 2 2.55248 7.15737 16.808
104 2 4.76406 1.6835 12.482
73 1 5.85627 1.92396 11.6713
294 2 3.44458 0.642461 13.8734
215 3 -3.60699 7.11392 10.5066
139 2 -4.10902 13.555 3.64757
219 3 -4.94153 11.3148 4.34552
186 2 -5.25089 11.6526 0.2657
99 2 -4.68767 13.1686 1.26444
86 1 -4.34692 12.1631 0.966972
18 4 -5.16763 11.0355 2.73824
349 2 -5.96889 12.3401 2.03715
133 2 -4.02357 8.11429 0.493373
185 2 -3.3673 11.3967 2.27338
122 2 -3.59339 7.5808 2.32507
218 3 -2.38471 8.26645 7.30386
231 3 -0.482028 7.22153 5.72862
20 4 -4.594 11.5983 5.86076
7 4 -6.81108 13.2058 7.45144
19 4 -3.43551 9.56533 7.85188
220 3 -4.0429 10.3036 6.57274
221 3 -5.89327 12.2764 6.58561
100 2 -3.32186 12.71 5.8931
252 3 0.841702 9.3001 7.11399
313 2 -2.66196 9.80874 4.05007
162 2 -0.714562 13.3385 1.08984
309 2 -0.731696 8.04239 2.38097
115 2 -1.96103 13.0156 2.5618
306 4 -2.3417 8.85502 2.25791
308 1 -1.21834 9.32637 3.68217
315 3 -2.468 9.82817 0.942933
312 2 -0.949803 8.49577 4.46562
39 4 1.66819 9.05574 2.51229
153 2 0.0754194 9.87256 2.34176
246 3 1.4333 8.07145 3.73772
311 2 -0.537811 10.2388 3.882
247 3 1.72123 8.24381 1.20891
217 3 -4.70958 8.83273 8.62426
345 2 -0.585469 11.7811 0.0677258
110 2 -0.324337 9.36595 7.16388
134 2 -2.82715 12.5178 -0.0376615
158 2 2.45755 8.11574 7.21822
24 4 -0.454757 13.3007 7.90973
181 2 -4.70099 8.69486 4.24725
253 3 0.233229 12.1458 7.07482
307 4 -3.23867 10.7423 -0.140098
163 2 0.127561 13.2205 3.14716
225 3 -3.84928 13.2574 8.8028
249 3 -2.65599 10.6478 8.8155
112 2 -1.16403 8.34933 16.2594
75 1 -1.29883 12.585 17.5091
318 3 -6.87378 12.9841 9.04043
248 3 1.08665 7.25456 8.99033
317 2 -6.47444 11.4493 11.208
113 2 -3.44222 9.40642 11.9483
103 2 -5.71028 10.0535 12.1304
222 3 -5.58571 11.1581 12.3704
135 2 -4.71598 8.1717 14.3212
161 2 0.783112 7.34998 15.1673
102 2 -4.26933 8.62539 16.8372
344 2 -4.14974 13.1335 16.0891
320 1 -7.66934 13.2 16.1324
321 2 -6.55834 13.2699 16.3181
335 2 -4.89553 10.5886 16.0244
22 4 -3.83966 11.0185 12.3854
68 1 -5.99129 9.42639 17.0656
43 4 1.23446 9.54023 13.7463
223 3 -3.33899 11.437 13.9276
77 1 0.314326 8.35687 14.9618
251 3 -3.05893 11.9108 11.2923
41 4 -2.77889 12.1787 9.32346
111 2 -0.967863 8.90733 9.54393
250 3 -1.35848 12.823 9.17133
40 4 0.664062 8.83106 8.97005
69 1 -1.59358 8.79339 11.3933
136 2 -0.460416 8.76198 11.3901
334 2 -1.58259 13.676 17.4528
138 2 -2.07775 9.62749 10.6732
114 2 -1.53633 11.9423 11.7813
254 3 1.87395 8.28893 12.7879
255 3 0.0917623 10.6179 13.1732
291 4 -2.80172 12.4712 14.9312
44 4 0.0671763 12.0685 12.4932
296 2 -1.22659 11.9281 15.884
159 2 -0.79934 8.35826 14.5305
137 2 -1.95706 8.85187 12.5154
160 2 0.522465 9.26229 15.8468
295 2 -2.15549 13.8415 14.0007
322 2 -7.96022 12.7313 15.1847
283 3 1.46703 9.81937 9.90306
21 4 -5.61468 8.04454 15.7962
341 2 -8.34442 12.7753 17.079
257 3 7.07584 2.10088 4.5304
262 3 5.64282 5.44188 2.43174
46 4 7.55812 1.53594 3.11082
260 3 8.64493 2.45046 2.40347
263 3 4.95938 6.65867 5.11789
264 3 9.12758 4.6261 0.707354
51 4 8.35977 5.93456 0.552145
330 2 7.01555 5.81248 1.55189
50 4 5.9135 6.83431 3.75553
54 4 9.18407 6.8789 4.62309
79 1 10.5382 2.42184 -0.0675725
336 2 8.67972 0.757037 8.71498
234 3 6.22238 3.60531 6.68194
1 4 14.2112 1.92925 3.63963
119 2 7.77689 4.87229 8.16757
95 2 11.5917 4.7256 8.57326
52 4 9.29644 5.46542 7.6282
269 3 9.27492 6.29078 6.27043
2 1 12.3542 4.61033 4.86781
268 3 7.61657 7.01618 3.97177
3 2 12.2004 3.46241 4.62367
49 4 9.81221 3.33327 1.48893
267 3 10.4425 6.11156 3.69208
11 4 11.6058 5.14436 3.16283
261 3 11.0535 3.74061 2.36852
131 2 11.3466 2.39835 7.03598
5 3 12.8671 1.08962 3.52647
337 2 10.0163 1.44501 -0.0168655
117 2 11.2832 1.16881 1.25634
8 4 12.0996 3.00693 8.56216
132 2 10.818 3.99729 6.22874
342 2 11.6069 4.9574 5.67783
120 2 9.49937 3.25698 7.55834
67 1 10.4524 4.06263 7.29993
190 2 13.9285 0.540481 5.65943
343 2 11.4047 6.09037 0.175206
347 2 5.06361 7.00404 0.521703
82 1 6.15562 4.54884 9.37875
173 2 6.98691 3.63767 9.47495
174 2 6.6548 5.56767 9.33079
121 2 4.94004 6.10115 9.53829
175 2 5.21268 4.45856 10.1874
80 1 8.41427 2.2476 9.7153
168 2 7.44308 2.1527 10.3792
169 2 8.38432 3.12326 8.94543
298 2 6.69216 2.23226 17.1695
149 2 6.626 1.07431 11.6752
346 2 5.1808 3.28046 17.2699
165 2 8.72762 3.24421 16.9791
331 2 5.96134 5.93205 17.0598
148 2 7.13701 3.38524 11.6504
274 3 8.73403 6.25169 12.4232
109 2 4.24091 5.79805 16.5022
29 4 6.34047 3.0694 13.2078
229 3 7.30297 2.24371 14.1913
240 3 5.2372 4.10962 13.6391
329 1 4.7095 6.31397 15.5292
332 2 5.88542 6.03364 15.2964
258 3 9.51897 1.24373 15.2923
170 2 8.98521 4.07348 14.528
325 2 9.45066 6.43822 16.239
270 3 9.64914 4.86059 14.646
27 4 7.96269 0.895774 14.6846
81 1 11.7213 3.06035 15.5217
338 2 11.291 5.58095 12.7861
167 2 9.11201 1.22403 11.1949
48 4 9.8843 2.67593 10.637
259 3 11.2348 2.38098 9.70089
324 2 10.0278 4.25031 17.685
36 4 3.99393 5.13349 14.2857
271 3 9.66896 3.855 11.7533
101 2 10.95 5.64034 16.4722
166 2 12.2485 2.54199 14.6195
55 4 9.70605 5.08074 12.7495
47 4 10.8951 1.51279 16.0271
172 2 10.8174 3.82684 15.1219
323 1 10.5696 5.42413 17.5276
293 1 5.60828 2.22871 17.2312
171 2 12.3918 3.47641 16.3173
265 3 9.95633 6.31243 8.83818
164 2 10.7562 2.30063 17.7416
155 2 1.20687 12.3147 0.120262
57 4 9.84081 8.68246 0.836572
279 3 1.80719 11.2318 4.99694
58 4 3.01558 11.1754 3.9322
277 3 2.85628 10.1606 2.66377
278 3 2.99196 12.9675 3.32411
42 4 1.49271 11.2509 6.53963
92 1 2.90262 11.6606 7.59834
126 2 2.4486 12.3262 8.44795