ITEM: TIMESTEP
0
ITEM: NUMBER OF ATOMS
350
ITEM: BOX BOUNDS xy xz yz pp pp pp
-9.2171454933018477e+00 1.5608457727936326e+01 -7.7490666531515799e+00
4.0119664078240458e-01 1.3960526826327030e+01 -1.5378211122139989e+00
-1.4695996115413124e-01 1.7785259961154189e+01 1.4232346710932497e-01
ITEM: ATOMS id type x y z
207 3 -0.430339 1.37028 4.84477
304 3 -0.427242 1.84687 2.23779
74 1 0.720736 5.30318 3.7089
150 2 1.16097 4.37668 4.19584
151 2 1.16262 5.51457 2.6416
152 2 -0.458886 5.32817 3.75285
224 3 1.99632 2.91392 4.95949
299 4 -0.324061 2.65115 0.884549
300 1 1.35093 3.28383 1.39456
301 2 1.77932 3.50965 0.346063
237 3 2.24364 6.24728 5.65498
12 4 -1.99835 5.37598 0.646705
340 2 -1.54966 3.54842 3.93448
70 1 2.87096 1.00339 3.06342
4 2 -1.96236 4.82632 5.11362
31 4 0.984771 6.80863 4.79856
314 3 -2.77575 5.89034 2.32916
210 3 -1.31253 3.8666 0.779656
97 2 -3.06847 6.38312 5.53623
32 4 2.49596 6.99621 0.572415
302 2 1.92263 2.44605 2.02263
232 3 3.11338 5.72218 1.66625
303 2 1.18785 4.32282 2.03182
141 2 1.77913 1.0197 3.12029
140 2 3.28268 1.02922 1.99742
9 4 0.736756 2.37284 5.91253
213 3 -1.45537 5.83244 7.54494
13 4 -0.744834 4.31493 7.86017
208 3 1.40034 1.40617 7.01586
212 3 -0.0187466 3.60013 6.53352
233 3 4.26186 2.7381 8.53139
227 3 6.44939 0.935936 6.98863
243 3 -1.17232 6.54634 -0.0459508
23 4 3.38025 2.41911 4.31045
230 3 3.87605 3.59733 3.33251
30 4 4.36526 4.66477 2.07891
108 2 4.5415 2.54692 1.15778
226 3 4.51647 1.71747 5.2384
348 2 5.91787 1.28464 1.72459
71 1 4.7846 3.65705 0.590903
211 3 -1.96772 3.35609 8.19616
33 4 4.95799 4.01518 7.80004
26 4 6.06876 2.02572 5.82895
238 3 4.10921 5.28296 7.4213
15 4 -1.85268 6.99455 6.57609
154 2 6.88964 1.41606 0.202631
35 4 3.68429 6.39611 6.20093
36 4 3.98666 5.00516 14.3087
292 1 3.9902 0.791191 14.5089
34 4 0.572193 6.02072 9.98956
236 3 -0.988852 6.38429 10.687
244 3 1.72102 5.90857 11.0659
145 2 1.66967 1.73953 9.06481
66 1 -0.440842 2.33416 11.362
128 2 -0.224951 3.18293 10.621
72 1 2.61685 1.88163 10.7479
17 4 -2.31987 7.03765 11.248
107 2 1.52026 2.01034 10.9841
129 2 -0.27862 1.31548 10.8751
310 2 4.99491 1.64606 16.0406
242 3 -0.126017 6.46724 17.469
305 3 -1.58773 1.87466 17.2943
235 3 0.225424 4.43272 9.26767
130 2 0.914918 2.46105 12.5883
214 3 -0.76851 4.46942 13.5704
16 4 -1.39155 5.90512 13.9203
6 4 -0.458154 1.63909 16.122
228 3 0.913133 2.51923 16.3146
28 4 2.3074 3.29523 16.4507
216 3 -2.76359 6.37123 12.9181
10 4 -0.623135 2.92112 13.3509
209 3 -0.95808 1.88257 14.4104
241 3 -1.99113 5.88574 15.3929
37 4 -1.55575 6.76831 16.7243
98 2 -0.0557395 7.0241 13.7816
239 3 3.00344 4.08853 15.3083
38 4 2.61859 6.87636 12.1615
297 2 3.79788 1.87822 14.7892
143 2 3.52617 2.19669 17.0306
146 2 3.09776 2.86135 10.9485
25 4 3.45164 1.50682 9.08164
206 2 -1.71289 2.29171 11.7025
144 2 3.16482 1.05207 11.3808
245 3 3.1297 5.91096 13.3517
149 2 6.2403 1.26547 11.6409
104 2 4.7131 2.4751 12.0468
295 2 5.4671 0.73718 13.7302
106 2 1.94398 4.6602 17.5763
328 2 2.41694 7.06905 16.6628
139 2 -4.42099 13.5071 3.60326
219 3 -4.85364 11.4138 4.3612
186 2 -5.04742 11.6457 0.423838
99 2 -4.45672 13.1688 1.27491
86 1 -4.1943 12.1377 0.900986
18 4 -4.99954 11.019 2.76695
349 2 -5.89725 12.2027 1.8982
133 2 -3.7796 8.20304 0.429951
185 2 -3.20096 11.4063 2.17168
122 2 -3.29524 7.50939 2.28726
218 3 -2.45814 8.25439 7.34734
231 3 -0.648695 7.32553 5.67635
20 4 -4.56082 11.5755 5.93462
7 4 -6.81139 13.2163 7.43366
19 4 -3.49471 9.50748 7.84101
220 3 -4.02341 10.1305 6.38756
221 3 -5.81916 12.193 6.6275
100 2 -3.34908 12.7026 6.21814
252 3 0.730627 9.42275 7.09016
313 2 -2.8409 9.89879 4.0188
162 2 -0.449514 13.2873 0.960941
309 2 -0.794052 8.00565 2.80715
115 2 -1.32243 12.9157 2.65028
306 4 -2.26597 8.91351 2.35952
308 1 -1.22355 9.57251 3.79667
315 3 -2.14452 9.7029 0.992533
312 2 -0.926552 8.6107 4.53312
39 4 1.62089 9.05334 2.56367
153 2 0.1051 9.89622 2.42019
246 3 1.31958 7.94587 3.68876
311 2 -0.535709 10.4457 4.11169
247 3 1.81823 8.32991 1.20909
158 2 2.49737 8.34749 7.09415
345 2 -0.302264 11.8038 0.0209236
110 2 -0.41538 9.534 7.17114
249 3 -2.73826 10.7086 8.60761
78 1 -0.897022 13.7715 1.92934
24 4 -0.461413 13.4012 7.88767
181 2 -4.79872 8.56399 4.74557
253 3 0.23426 12.3506 6.86701
217 3 -4.75014 8.82264 8.65514
112 2 -1.45967 8.42863 16.2433
75 1 -1.18904 12.5783 17.2186
318 3 -6.94811 13.05 8.9417
294 2 -4.55936 13.869 13.8252
317 2 -6.23316 11.5431 11.0227
113 2 -3.40018 9.16012 12.266
103 2 -5.68506 9.99802 12.156
222 3 -5.45279 11.0643 12.3255
135 2 -5.4057 8.36472 14.0113
283 3 1.52845 9.92128 9.74542
102 2 -4.25099 8.38628 16.7168
344 2 -3.80786 13.5154 16.1127
320 1 -7.84716 13.2054 16.3821
321 2 -6.6976 13.2923 16.5138
335 2 -4.41976 10.3071 16.0357
22 4 -3.82585 10.8163 12.4607
68 1 -5.81669 9.44655 17.0225
43 4 1.19828 9.43387 13.7493
223 3 -3.34978 11.4685 13.9966
77 1 0.114604 8.47864 15.1019
251 3 -2.93208 11.7522 11.0866
41 4 -2.66294 12.1535 9.34232
111 2 -0.840365 9.03029 9.76793
250 3 -1.2128 12.8124 9.2179
40 4 0.629834 8.82799 8.94922
69 1 -1.58475 8.80382 11.5906
136 2 -0.417953 8.65263 11.4038
248 3 0.986472 7.31231 9.08718
138 2 -2.1015 9.64185 11.0182
114 2 -1.49433 12.0524 11.6475
254 3 1.77033 8.18687 12.8932
255 3 0.0700313 10.5379 13.1397
291 4 -2.71736 12.6504 14.7589
307 4 -4.61578 10.8199 17.7682
296 2 -1.29046 12.0389 15.8095
159 2 -0.917687 8.37265 14.5167
137 2 -1.74196 8.87513 12.7084
160 2 0.0187349 9.25002 16.0413
225 3 -3.81535 13.3958 9.09712
161 2 0.695813 7.56021 15.3626
334 2 -1.66739 13.6929 17.1956
322 2 -8.16622 12.7732 15.3493
44 4 0.00784721 11.9243 12.4317
215 3 -3.61674 7.28711 10.4756
134 2 -4.27911 12.6403 17.7497
341 2 -8.33074 12.6971 17.2507
257 3 7.062 2.04288 4.6274
262 3 5.66118 5.51808 2.41718
46 4 7.63184 1.63644 3.11833
260 3 8.79982 2.38856 2.25072
263 3 4.80669 6.71079 5.00473
264 3 9.0057 4.72521 0.940667
51 4 8.32984 6.07016 0.574144
330 2 6.88424 6.22949 1.46628
50 4 5.85949 6.84353 3.76322
54 4 9.12051 6.81236 4.76787
79 1 10.425 2.407 -0.0858107
336 2 8.62612 0.954822 8.58114
234 3 5.9925 3.58114 6.66358
1 4 14.3651 1.9133 3.58815
119 2 7.67341 5.00794 8.1323
95 2 11.7198 4.92934 8.23352
52 4 9.23641 5.45042 7.64454
269 3 9.06606 6.13467 6.22066
2 1 12.518 4.52798 4.81975
268 3 7.51246 6.95514 4.09848
3 2 12.4107 3.36693 4.51603
49 4 9.75624 3.43036 1.46705
267 3 10.4567 5.96814 3.88892
11 4 11.6779 5.09518 3.11748
261 3 11.2311 3.73814 2.43061
131 2 11.3777 2.38527 7.00706
5 3 12.8165 1.16507 3.5563
337 2 9.98939 1.39354 0.117456
117 2 11.4183 1.37027 1.21673
8 4 12.0296 3.16024 8.41525
132 2 10.5043 4.00012 5.97545
342 2 11.8024 4.8182 5.63298
120 2 9.54082 3.23544 7.58611
67 1 10.4551 4.09585 7.13248
142 2 5.89656 3.79167 0.289136
343 2 11.4223 6.10286 -0.105471
82 1 6.12974 4.50819 9.35902
173 2 7.08918 3.74426 9.39367
174 2 6.48779 5.57984 9.15003
121 2 4.9828 6.09899 9.42954
175 2 5.34942 4.35629 10.177
80 1 8.58699 2.39129 9.73264
168 2 7.63204 2.43388 10.4235
169 2 8.75302 3.35331 9.07522
298 2 6.64059 2.44096 16.902
73 1 5.87793 2.3353 11.5564
346 2 4.95713 3.2112 17.2084
165 2 8.28841 3.09711 17.0371
331 2 6.06827 5.99038 16.9349
148 2 7.1446 3.85579 11.5533
274 3 8.85129 6.11612 12.3055
109 2 4.34988 5.56191 16.586
29 4 6.5388 3.26119 13.0983
229 3 7.34073 2.17685 13.8786
240 3 5.43933 4.21759 13.6844
329 1 4.54116 6.27865 15.6973
332 2 5.63112 6.35275 15.374
258 3 9.42329 1.16579 15.2697
170 2 8.73185 4.10479 14.4508
325 2 9.40977 6.48597 16.2919
270 3 9.65965 4.5578 14.6178
27 4 8.00472 0.925121 14.6042
81 1 11.7488 2.8962 15.6318
338 2 11.3985 5.54021 13.0012
167 2 9.19291 1.05153 11.0552
48 4 10.0484 2.55888 10.7705
259 3 11.4065 2.56751 9.90691
324 2 9.90179 4.24024 17.5411
147 2 5.9187 2.74488 10.5285
271 3 9.90459 3.69936 11.8655
101 2 10.8707 5.44638 16.3536
166 2 12.3534 2.19154 14.8088
55 4 9.81953 4.90054 12.8695
47 4 10.8523 1.33244 16.1099
172 2 10.9979 3.60134 15.1208
323 1 10.4963 5.32571 17.4534
293 1 5.48266 2.23043 17.0822
171 2 12.4437 3.43925 16.3107
164 2 10.4786 2.5387 17.5442
105 2 7.05258 0.569449 15.9441
265 3 9.8682 6.30194 8.85412
163 2 0.310778 13.3995 3.38869
57 4 9.97059 8.73712 0.726189
279 3 1.91987 11.5008 4.99384
58 4 3.12569 11.3507 3.92454
277 3 2.79455 10.1797 2.93337
278 3 3.11362 12.8151 3.07122
42 4 1.39181 11.3741 6.42769
92 1 2.75132 11.8106 7.55812
126 2 2.17639 12.4992 8.38444
203 2 3.08907 10.7986 7.9634
276 3 10.047 9.47672 2.19366
275 3 9.10684 7.36233 0.662708
45 4 4.32117 13.7161 2.45408
189 2 7.44111 12.3273 4.5826
59 4 6.42154 11.5905 1.62345
83 1 5.39596 8.2452 2.67829
125 2 4.89087 7.94237 1.5152
176 2 5.33877 10.4133 0.847662
177 2 6.42963 8.7505 2.58761
178 2 7.01199 10.6404 3.1786
280 3 5.35284 12.6782 1.84564
285 3 4.48944 10.7803 4.71458
187 2 7.96582 10.4895 5.09446
87 1 7.2546 11.147 4.49858
188 2 4.72269 8.82593 3.4471
289 3 7.68765 11.6657 0.551793
200 2 3.66491 10.7739 0.860963
123 2 7.9224 12.5844 0.938572
62 4 5.76348 11.2185 5.57554
350 2 4.36537 13.262 5.51861
88 1 5.2863 13.2237 6.09173
201 2 3.70458 12.3611 6.97921
156 2 4.08095 8.80892 6.13618
94 2 7.13143 13.0211 6.81809
157 2 4.19001 8.38566 7.95663
191 2 5.19454 13.2895 7.15385
76 1 3.62199 8.16771 6.98145
182 2 7.44709 7.37155 8.37678
286 3 6.16551 10.423 6.95881
85 1 7.68417 8.25731 7.67578
183 2 8.77803 8.71526 7.74695
60 4 6.62898 9.60735 8.33997
184 2 7.31403 8.01334 6.61664
180 2 9.05057 9.17079 4.24438
84 1 9.6862 8.56728 5.07575
179 2 9.59902 9.00083 6.06791
347 2 5.1364 7.16343 0.165721
190 2 6.15374 13.8422 5.63676
124 2 8.04107 10.0282 17.2759
61 4 2.20919 11.1002 10.7058
290 3 5.84016 10.6759 12.8176
284 3 1.22107 12.2083 11.3406
326 1 2.6304 7.59515 17.6579
316 4 7.96184 11.994 10.0031
91 1 2.22945 10.8094 17.6796
199 2 1.82479 12.1745 16.9757
256 3 0.198298 13.0055 13.5828
288 3 2.29927 10.1874 14.6894
273 3 6.78652 7.25259 11.0002
195 2 3.35094 12.9561 14.5982
202 2 3.40664 10.3906 12.0986
14 4 10.4596 7.64072 9.70109
56 4 8.21934 7.46666 11.7154
197 2 4.98062 13.6758 14.9817
266 3 3.98609 7.51146 11.3591
53 4 5.29836 7.46646 10.3732
127 2 3.5369 12.2869 9.8518
319 3 6.78142 12.46 10.9744
281 3 5.27748 8.61042 9.33065
282 3 7.59992 10.6401 9.2692
205 2 4.65653 10.1971 10.1648
93 1 4.22826 11.0878 10.7497
65 4 5.57098 11.84 11.7731
64 4 3.10094 11.0911 15.7852
272 3 9.37944 8.19171 10.8095
204 2 4.1014 12.7136 11.8979
116 2 3.8418 10.0923 17.1036
333 2 3.69985 13.2077 17.0312
96 2 8.39583 9.0032 15.8479
287 3 7.89654 8.67579 12.9507
90 1 4.21132 12.978 15.3989
196 2 5.01875 11.5145 15.3227
339 2 5.21668 8.09312 13.6683
89 1 6.07439 8.9035 15.2224
192 2 6.5989 9.92286 15.6021
193 2 6.5002 7.9533 15.6741
194 2 4.89675 9.00592 15.1753
63 4 6.50073 9.31941 13.4027
198 2 1.42163 10.1046 17.4446
155 2 -0.105996 12.556 17.566
327 2 2.49514 8.83412 17.6205
21 4 9.90293 8.03494 15.6916
118 2 4.02405 7.32246 15.7858
ITEM: TIMESTEP
100
ITEM: NUMBER OF ATOMS
350
ITEM: BOX BOUNDS xy xz yz pp pp pp
-9.2171454933018477e+00 1.5608457727936326e+01 -7.7490666531515799e+00
4.0119664078240458e-01 1.3960526826327030e+01 -1.5378211122139989e+00
-1.4695996115413124e-01 1.7794226071115343e+01 1.4232346710932497e-01
ITEM: ATOMS id type x y z
207 3 -0.444609 1.56839 4.93818
304 3 -0.564786 1.68628 2.14882
74 1 0.437315 5.44476 3.57361
150 2 1.15617 4.56489 3.97689
151 2 0.672784 5.68948 2.49598
152 2 -0.66392 5.31919 3.80527
224 3 2.05912 2.82427 5.08054
299 4 -0.152535 2.59269 0.899198
300 1 1.65505 3.1984 1.24855
301 2 2.26967 3.30313 0.291451
237 3 2.21216 6.3491 5.8058
12 4 -2.11289 5.37113 0.615638
340 2 -1.68406 3.56684 3.88612
70 1 2.79871 0.969439 3.1806
4 2 -1.85554 4.79683 5.10467
31 4 1.0169 6.77602 4.74541
314 3 -2.72793 6.02457 2.36696
210 3 -1.21386 4.00679 0.743148
97 2 -3.14078 6.47225 5.58656
32 4 2.45733 6.90283 0.540185
302 2 2.08022 2.48557 1.97384
232 3 2.93756 5.8269 1.68711
303 2 1.39685 4.18297 1.75111
141 2 1.65272 0.944028 3.10406
140 2 3.23541 0.895998 2.0808
9 4 0.684588 2.41994 5.98835
213 3 -1.49336 5.69966 7.51067
13 4 -0.719868 4.32873 7.84507
208 3 1.15044 1.34869 7.0911
212 3 0.0690931 3.79496 6.49472
233 3 4.25773 2.5961 8.52303
227 3 6.65567 1.07345 6.84138
243 3 -1.22752 6.51654 0.0118897
23 4 3.41453 2.40947 4.36463
230 3 3.82955 3.55034 3.14255
30 4 4.25129 4.80443 2.18487
108 2 4.38598 2.78681 1.13079
226 3 4.49937 1.67259 5.26341
348 2 5.85113 1.34678 1.6726
71 1 4.7187 3.81385 0.673708
211 3 -2.03983 3.11667 8.16245
33 4 5.05685 3.96005 7.93026
26 4 6.03239 2.04281 5.8012
238 3 4.24358 5.2181 7.48132
15 4 -1.79609 6.95248 6.60561
154 2 6.97206 1.55468 0.275505
35 4 3.81034 6.3879 6.34807
147 2 5.38781 2.91879 10.6778
292 1 4.12508 0.867671 14.6406
34 4 0.5841 5.97532 10.0098
236 3 -0.919952 6.48513 10.479
244 3 1.64265 6.06182 11.2051
145 2 1.68806 1.59905 9.38254
66 1 -0.224784 2.30024 11.3688
128 2 -0.000828291 3.12174 10.6035
72 1 2.92349 1.83218 10.8128
17 4 -2.13426 7.03651 11.2265
107 2 1.71275 2.02881 11.0978
129 2 -0.0491428 1.30389 11.0096
310 2 4.97653 1.68341 16.2266
242 3 -0.0179386 6.35499 17.2631
305 3 -1.49829 2.0094 17.455
235 3 0.334851 4.38584 9.2318
130 2 1.01028 2.52774 12.5488
214 3 -0.776883 4.42641 13.4676
16 4 -1.45827 5.78328 13.9969
6 4 -0.514107 1.53609 16.1358
228 3 1.10175 2.52204 16.3471
28 4 2.38473 3.39812 16.4755
216 3 -2.64635 6.2242 12.8914
10 4 -0.710309 2.89893 13.1859
209 3 -1.08296 1.72001 14.6817
241 3 -1.85764 5.89643 15.5179
37 4 -1.5192 6.679 16.8106
98 2 -0.119676 6.92147 13.9299
239 3 3.01885 4.11216 15.2493
38 4 2.73228 7.01899 12.036
297 2 4.22844 1.90477 14.9687
143 2 3.56182 2.26584 17.1391
146 2 3.51064 2.75401 10.9868
25 4 3.45909 1.33666 9.0845
206 2 -1.89889 2.30767 11.7806
144 2 3.33057 0.861625 11.3725
245 3 3.31555 6.03833 13.2561
106 2 2.03712 4.81847 17.5776
104 2 4.8375 1.78674 12.2984
328 2 2.5002 7.1855 16.8177
294 2 3.28056 0.715691 13.926
248 3 1.214 7.16483 8.87502
149 2 6.36034 1.34327 11.1303
73 1 5.77821 2.22938 11.5525
215 3 -3.4864 7.17446 10.4184
139 2 -4.56395 13.5336 3.80049
219 3 -4.93713 11.274 4.355
186 2 -5.18369 11.6682 0.382318
99 2 -4.52151 13.3387 1.13727
86 1 -4.24732 12.1521 0.915409
18 4 -5.06038 11.0555 2.71648
349 2 -5.95747 12.3146 1.97685
133 2 -3.81322 8.1074 0.382727
185 2 -3.3473 11.5176 2.28196
122 2 -3.27494 7.46179 2.02937
218 3 -2.31485 8.25528 7.3884
231 3 -0.723074 7.17456 5.51346
20 4 -4.60651 11.5056 5.8797
7 4 -6.78905 13.1082 7.45535
19 4 -3.46173 9.47473 7.87155
220 3 -4.02584 10.1965 6.54039
221 3 -5.81563 12.179 6.65051
100 2 -3.37887 12.6629 5.85856
252 3 0.733642 9.3052 7.19076
313 2 -2.85567 9.92535 3.93472
162 2 -0.671487 13.304 1.00561
309 2 -0.722833 8.03494 2.74102
115 2 -1.68204 13.1291 2.64473
306 4 -2.26071 8.91907 2.31894
308 1 -1.28093 9.48072 3.83189
315 3 -2.28176 9.92139 1.02955
312 2 -1.0199 8.53837 4.60061
39 4 1.71386 8.99378 2.53018
153 2 0.137649 9.70631 2.48179
246 3 1.61106 7.94391 3.7438
311 2 -0.648842 10.3746 3.94352
247 3 1.97617 8.30964 1.11819
217 3 -4.74775 8.79814 8.64575
345 2 -0.411794 11.9528 0.0224507
110 2 -0.352332 9.46969 7.31339
249 3 -2.82235 10.6584 8.74367
78 1 -1.1511 13.8254 1.98428
24 4 -0.460653 13.4855 7.87384
181 2 -4.63487 8.5699 4.28999
253 3 0.238538 12.267 7.0638
307 4 -3.17529 10.7552 -0.0880861
112 2 -1.3839 8.34986 16.4162
75 1 -1.3167 12.6559 17.2906
318 3 -6.94213 12.9408 8.99149
134 2 -4.29434 12.6169 17.7339
317 2 -6.46958 11.6276 11.2104
113 2 -3.37553 9.14379 12.2206
103 2 -5.56766 10.05 12.182
222 3 -5.50805 11.1427 12.4086
135 2 -5.01311 8.28282 14.1661
161 2 0.727861 7.5485 15.3848
102 2 -4.36052 8.33508 16.7867
344 2 -4.15807 13.2493 15.9871
320 1 -7.86965 13.1499 16.2658
321 2 -6.73156 13.152 16.382
335 2 -4.731 10.2947 16.1465
22 4 -3.82686 10.8393 12.4175
68 1 -5.96022 9.36913 17.0081
43 4 1.18965 9.44371 13.7125
223 3 -3.44724 11.2834 13.9438
77 1 0.140851 8.52857 15.0879
251 3 -2.80216 11.9825 11.1097
41 4 -2.69184 12.1022 9.42682
111 2 -0.812824 8.81872 9.77231
250 3 -1.33122 12.8594 9.07016
40 4 0.715496 8.72624 9.02344
69 1 -1.52087 8.86125 11.6405
136 2 -0.393068 8.60016 11.4265
334 2 -1.65013 13.8006 17.3372
138 2 -1.71215 9.93105 11.153
114 2 -1.47301 11.9926 11.771
254 3 1.7788 8.37936 12.7327
255 3 0.0421958 10.4557 13.011
291 4 -2.88779 12.5132 14.7759
44 4 0.0822613 11.9955 12.5302
296 2 -1.37323 12.0406 15.7746
159 2 -0.805258 8.48326 14.516
137 2 -1.79683 8.78113 12.7949
160 2 0.184699 9.38353 15.9074
225 3 -3.77182 13.2814 8.90985
295 2 -2.18794 13.8323 13.6653
283 3 1.58047 9.82365 9.74036
322 2 -8.2047 12.7966 15.1816
257 3 7.01559 1.98865 4.32461
262 3 5.69411 5.47443 2.55338
46 4 7.68443 1.52349 3.02277
260 3 8.71757 2.53652 2.20416
263 3 5.03026 6.59976 5.14426
264 3 9.18416 4.73047 0.839902
51 4 8.32034 5.97054 0.603169
330 2 6.93359 5.94069 1.5703
50 4 5.97381 6.8448 3.87355
54 4 9.15742 6.78451 4.63606
79 1 10.4325 2.37679 0.0283121
336 2 8.6001 0.907881 8.70375
234 3 6.10406 3.50914 6.67851
1 4 14.2902 1.93826 3.62107
119 2 7.68007 4.85488 7.99207
95 2 11.5751 4.99674 8.28293
52 4 9.20177 5.50003 7.58854
269 3 9.19195 6.17064 6.21257
2 1 12.5704 4.61134 4.94417
268 3 7.51168 6.94503 4.25765
3 2 12.3606 3.45767 4.7144
49 4 9.81205 3.49337 1.5226
267 3 10.3096 6.05886 3.71254
11 4 11.7022 5.19663 3.26006
261 3 11.2677 3.85937 2.52165
131 2 11.3515 2.3982 7.08294
5 3 12.7782 1.21698 3.68652
337 2 9.9057 1.42391 0.173949
117 2 11.3088 1.30349 1.40988
8 4 11.9783 3.16583 8.47275
132 2 10.8175 4.11107 6.13742
342 2 11.8765 4.91456 5.86954
120 2 9.50623 3.25065 7.45609
67 1 10.4203 4.12337 7.22791
142 2 5.8115 3.9577 0.381462
164 2 12.0537 2.16522 -0.101873
82 1 6.2057 4.61171 9.32598
173 2 7.0768 3.73147 9.36146
174 2 6.54436 5.63891 9.03633
121 2 4.96623 6.17494 9.39337
175 2 5.54904 4.58591 10.2765
80 1 8.3663 2.25627 9.6266
168 2 7.43606 2.22624 10.3614
169 2 8.43088 3.20251 9.01913
298 2 6.61301 2.4853 16.9833
343 2 9.69043 6.07657 17.7222
346 2 5.0603 3.35217 17.3568
165 2 8.39626 3.14792 17.1507
331 2 6.06856 6.07897 16.999
148 2 7.03315 3.69169 11.7042
274 3 8.62882 6.2473 12.4189
109 2 4.37477 6.19222 16.7101
29 4 6.30776 3.16102 13.2032
229 3 7.40402 2.36742 13.9946
240 3 5.27201 4.15154 13.8359
329 1 4.6988 6.46234 15.5981
332 2 5.84052 6.22895 15.3218
258 3 9.40263 1.15705 15.3182
170 2 8.93186 3.90709 14.2798
325 2 9.39948 6.31041 16.0377
270 3 9.48789 4.70849 14.5252
27 4 7.93053 0.979704 14.5899
81 1 11.5228 2.87395 15.5949
338 2 11.4008 5.72397 12.7846
167 2 9.14355 1.08573 10.9948
48 4 9.89343 2.61749 10.6386
259 3 11.2736 2.41987 9.84924
324 2 9.97772 4.15509 17.4325
36 4 4.02926 5.13875 14.369
271 3 9.79761 3.75904 11.7379
101 2 10.9657 5.58744 16.3562
166 2 12.1635 2.34568 14.708
55 4 9.78611 5.06406 12.8362
47 4 10.8131 1.3284 16.1176
172 2 10.6949 3.6568 15.1373
323 1 10.4389 5.30853 17.3814
293 1 5.53702 2.32785 17.2044
171 2 12.2549 3.32162 16.4034
265 3 9.76043 6.36285 8.84973
105 2 6.92539 0.590362 15.9157
163 2 0.463975 13.2319 2.93629
57 4 9.96443 8.60218 0.728468
279 3 1.90375 11.3567 5.09783
58 4 2.98069 11.3079 3.89808
277 3 2.76141 10.1176 2.7563
278 3 3.06516 12.7073 3.17085
42 4 1.34488 11.3062 6.5574
92 1 2.80036 11.6967 7.56702
126 2 2.23914 12.4492 8.33864
203 2 3.17704 10.6797 8.06721
276 3 10.0258 9.60049 1.9851
275 3 9.08975 7.33761 0.684786
45 4 4.32584 13.7076 2.55215
189 2 7.45442 12.5228 4.71343
59 4 6.42149 11.5643 1.42653
83 1 5.43547 8.25182 2.81056
125 2 4.9941 7.98332 1.70518
176 2 5.54584 10.2101 0.588176
177 2 6.4223 8.8297 2.72478
178 2 6.829 10.7945 3.07859
280 3 5.22622 12.6131 1.69216
285 3 4.60163 10.8575 4.55649
187 2 8.12622 10.7527 5.15226
87 1 7.32488 11.4127 4.60243
188 2 4.6628 8.70203 3.55452
289 3 7.7516 11.8078 0.545451
200 2 3.89993 10.7398 0.713303
123 2 7.91672 12.687 1.1437
62 4 5.81795 11.1285 5.51566
350 2 4.30326 13.3098 5.87704
88 1 5.38211 13.0646 6.23952
201 2 3.72321 12.187 7.05307
156 2 4.57951 8.71798 6.33407
94 2 7.22605 12.7596 6.80067
157 2 4.33827 8.05496 8.16219
191 2 5.47206 13.1108 7.39953
76 1 3.89418 8.10824 7.13577
182 2 7.33617 7.41428 8.3378
286 3 6.07858 10.296 6.94148
85 1 7.74081 8.24682 7.65176
183 2 8.79931 8.48149 7.93089
60 4 6.65965 9.63701 8.30902
184 2 7.63131 8.12868 6.49846
180 2 9.02468 9.16766 4.38745
84 1 9.88402 8.5273 4.84357
179 2 9.95961 8.67027 5.93674
158 2 2.73875 8.35298 7.07965
347 2 5.12901 7.13652 0.393108
190 2 6.17629 13.8075 5.79907
326 1 4.22435 7.51118 -0.0970287
327 2 4.2219 8.66105 -0.122948
124 2 7.974 9.94656 17.2063
61 4 2.13055 11.0128 10.7112
290 3 5.93432 10.7549 12.9343
284 3 1.19511 12.0977 11.4499
341 2 7.10786 12.6301 17.2015
316 4 7.87862 11.9266 9.98995
91 1 2.40271 10.7812 17.5585
199 2 2.21268 12.265 17.059
256 3 0.146566 13.2426 13.5635
288 3 2.34826 10.4846 14.5459
273 3 6.70128 7.34432 10.96
195 2 3.43682 13.0247 14.4792
202 2 3.26491 10.3371 12.018
14 4 10.5823 7.6719 9.73465
56 4 8.10637 7.55196 11.7207
197 2 4.99727 13.8054 15.0241
266 3 4.11158 7.53783 11.4471
53 4 5.27452 7.54665 10.3884
127 2 3.52941 12.3494 9.83079
319 3 6.44762 12.5985 10.8097
281 3 5.41262 8.85734 9.49798
282 3 7.53558 10.555 9.25993
205 2 4.61297 10.3843 10.2112
93 1 4.11613 11.327 10.7602
65 4 5.54113 11.8602 11.8481
64 4 3.25481 11.1156 15.657
272 3 9.38013 8.11893 10.7577
204 2 4.03832 12.7111 12.1476
116 2 3.83253 9.85442 16.8591
333 2 3.78494 13.1827 16.9651
96 2 8.44536 9.16661 15.4915
287 3 7.78057 8.66495 12.9529
90 1 4.24732 13.0003 15.3344
196 2 5.11203 11.5536 15.1489
339 2 5.09507 8.20268 13.7686
89 1 5.97876 8.9462 15.3097
192 2 6.57679 10.1174 15.5624
193 2 6.58717 8.09401 15.7803
194 2 4.9993 8.92655 15.8483
63 4 6.39428 9.35247 13.4702
198 2 1.49764 10.1016 17.3193
155 2 -0.286981 12.539 17.6641
118 2 4.37803 7.49578 15.3762
21 4 9.78898 8.0011 15.6392
ITEM: TIMESTEP
200
ITEM: NUMBER OF ATOMS
350
ITEM: BOX BOUNDS xy xz yz pp pp pp
-9.2171454933018477e+00 1.5608457727936326e+01 -7.7490666531515799e+00
4.0119664078240458e-01 1.3960526826327030e+01 -1.5378211122139989e+00
-1.4695996115413124e-01 1.7803192181076497e+01 1.4232346710932497e-01
ITEM: ATOMS id type x y z
207 3 -0.422052 1.59677 4.93062
304 3 -0.534716 1.80337 2.30114
74 1 0.522883 5.43677 3.54697
150 2 1.11106 4.58222 4.13253
151 2 0.774078 5.55611 2.43201
152 2 -0.606979 5.44494 3.73001
224 3 2.06121 2.64367 5.12627
299 4 -0.36223 2.56777 0.843547
300 1 1.40936 3.0794 1.25319
301 2 1.839 3.18925 0.208652
237 3 2.39348 6.08289 5.48574
12 4 -1.95715 5.51234 0.719886
340 2 -1.81977 3.56752 3.92987
70 1 2.937 0.855047 3.20684
4 2 -2.13406 4.93616 5.07311
31 4 1.06776 6.82827 4.66228
314 3 -2.80065 6.11691 2.35483
210 3 -1.36153 3.97675 0.829287
97 2 -2.96913 6.48045 5.5252
32 4 2.60802 6.79628 0.700125
302 2 1.97871 2.22407 1.99896
232 3 3.2044 5.6786 1.77415
303 2 1.36855 4.09021 1.79428
141 2 1.81104 0.700355 3.47892
140 2 3.14669 0.963708 2.03678
9 4 0.742145 2.46129 6.05415
213 3 -1.52326 5.67373 7.56162
13 4 -0.752729 4.31918 7.93061
208 3 1.15909 1.45911 7.22211
212 3 -0.00285748 3.74318 6.56036
233 3 4.38348 2.63552 8.44458
227 3 6.6398 0.851481 6.88698
243 3 -0.953311 6.55619 -0.0213412
23 4 3.40133 2.36864 4.37549
230 3 3.92846 3.52054 3.38695
30 4 4.32541 4.5553 2.18366
108 2 4.53107 2.57448 0.901214
226 3 4.62426 1.81747 5.2932
348 2 5.78986 1.62124 1.81551
71 1 4.67034 3.62366 0.567588
211 3 -1.91132 3.16134 8.34347
33 4 5.07496 4.03767 7.82519
26 4 6.10229 1.95895 5.89939
238 3 4.17516 5.28087 7.43177
15 4 -1.74458 6.9196 6.5805
154 2 6.80047 1.47512 0.255987
78 1 6.44687 0.42968 2.00718
35 4 3.84384 6.41537 6.2303
142 2 5.72019 3.89304 0.18154
106 2 3.32007 4.32531 -0.0990379
147 2 5.55609 2.28037 10.6731
292 1 4.11231 0.769554 14.7916
34 4 0.685821 6.00845 10.0222
236 3 -0.859382 6.35531 10.8584
244 3 1.87722 5.9912 11.1745
145 2 1.80349 1.73837 9.17627
66 1 -0.286999 2.39737 11.3579
128 2 0.102722 3.18891 10.586
72 1 2.88613 1.7026 10.7887
17 4 -2.22448 6.93268 11.2473
107 2 1.63027 1.97817 11.0061
129 2 -0.0964489 1.41031 10.9316
310 2 5.08252 1.62576 16.2609
242 3 0.0652707 6.17863 17.3765
305 3 -1.66919 1.86815 17.3796
235 3 0.464051 4.54399 9.37656
130 2 0.946689 2.59823 12.5947
214 3 -0.94997 4.39451 13.5762
16 4 -1.51212 5.803 13.9405
6 4 -0.387362 1.55625 15.9905
228 3 1.0451 2.3767 16.1515
28 4 2.3056 3.37264 16.4451
216 3 -2.72989 6.2455 12.8749
10 4 -0.80757 2.80593 13.2636
209 3 -1.10604 1.67088 14.3299
241 3 -1.86987 5.96589 15.5122
37 4 -1.36575 6.64923 16.8059
98 2 -0.264011 6.92695 13.7753
239 3 3.04085 4.21296 15.349
38 4 2.71522 7.09389 12.0905
297 2 4.21402 1.88648 15.0459
143 2 3.60669 2.3831 17.0722
146 2 3.56494 2.59868 11.1531
25 4 3.55719 1.39026 9.02545
206 2 -1.88171 2.47694 11.59
144 2 3.20314 0.699977 11.2335
245 3 3.38903 6.14454 13.2613
215 3 -3.61767 7.11418 10.5173
104 2 4.75318 1.68314 12.494
73 1 5.84572 1.92477 11.6832
294 2 3.43002 0.641605 13.8885
328 2 2.53221 7.15765 16.8278
139 2 -4.1138 13.5509 3.63812
219 3 -4.94645 11.3139 4.3508
186 2 -5.25461 11.6472 0.269733
99 2 -4.68461 13.1753 1.27128
86 1 -4.34621 12.162 0.971228
18 4 -5.1689 11.0348 2.7417
349 2 -5.97291 12.3396 2.03897
133 2 -4.0241 8.11386 0.495849
185 2 -3.37711 11.4017 2.27976
122 2 -3.59505 7.57853 2.32594
218 3 -2.39276 8.2656 7.31056
231 3 -0.487378 7.22249 5.73457
20 4 -4.60125 11.5977 5.86696
7 4 -6.81896 13.2051 7.45809
19 4 -3.44424 9.56611 7.86045
220 3 -4.05192 10.3035 6.58102
221 3 -5.90029 12.2756 6.59283
100 2 -3.32887 12.7091 5.90149
252 3 0.834187 9.30161 7.12294
313 2 -2.66522 9.80823 4.05078
162 2 -0.713547 13.3397 1.08916
309 2 -0.733842 8.04198 2.38265
115 2 -1.96009 13.0157 2.56348
306 4 -2.34386 8.85467 2.25995
308 1 -1.22108 9.32556 3.68451
315 3 -2.46932 9.82849 0.945026
312 2 -0.953469 8.4956 4.46945
39 4 1.6659 9.05523 2.51613
153 2 0.0738199 9.8709 2.34306
246 3 1.42938 8.07113 3.74242
311 2 -0.541192 10.2387 3.88405
247 3 1.72096 8.24265 1.21111
217 3 -4.71844 8.83334 8.63439
345 2 -0.585918 11.7822 0.0628077
110 2 -0.331432 9.36746 7.17262
134 2 -2.82788 12.5216 -0.0314448
158 2 2.44864 8.1146 7.22631
24 4 -0.463343 13.2989 7.91691
181 2 -4.70448 8.69488 4.25205
253 3 0.225418 12.1454 7.08171
307 4 -3.24006 10.7434 -0.137195
163 2 0.120982 13.2195 3.15324
225 3 -3.85832 13.2576 8.81276
249 3 -2.66516 10.6481 8.82405
112 2 -1.17854 8.35393 16.2768
75 1 -1.31641 12.5868 17.525
318 3 -6.88289 12.9847 9.04856
248 3 1.07676 7.25456 8.99987
317 2 -6.4854 11.4468 11.2174
113 2 -3.4528 9.40768 11.9598
103 2 -5.71958 10.0529 12.1368
222 3 -5.59768 11.1579 12.3804
135 2 -4.73361 8.17448 14.3393
161 2 0.767956 7.35001 15.1756
102 2 -4.28608 8.62805 16.8537
344 2 -4.16503 13.1317 16.1074
320 1 -7.68793 13.2018 16.1511
321 2 -6.57814 13.275 16.3365
335 2 -4.91586 10.5894 16.0406
22 4 -3.85011 11.0193 12.3958
68 1 -6.0103 9.4261 17.0845
43 4 1.2212 9.53927 13.7586
223 3 -3.35243 11.4385 13.9398
77 1 0.298092 8.35804 14.9798
251 3 -3.06917 11.9096 11.3021
41 4 -2.7883 12.1783 9.33279
111 2 -0.979863 8.90692 9.55074
250 3 -1.36796 12.8222 9.17946
40 4 0.6545 8.83155 8.98031
69 1 -1.60429 8.79342 11.4035
136 2 -0.471907 8.76186 11.399
334 2 -1.59983 13.6769 17.4688
138 2 -2.0903 9.62476 10.6812
114 2 -1.54801 11.9414 11.7925
254 3 1.86254 8.28837 12.8
255 3 0.0787656 10.6172 13.1851
291 4 -2.81693 12.4713 14.9462
44 4 0.054353 12.0678 12.5059
296 2 -1.24317 11.9264 15.8994
159 2 -0.808522 8.36679 14.5421
137 2 -1.96742 8.85164 12.5271
160 2 0.513558 9.26181 15.8641
295 2 -2.16984 13.8444 14.0198
322 2 -7.97834 12.7332 15.1987
283 3 1.45609 9.81942 9.91472
21 4 -5.63105 8.04444 15.8142
341 2 -8.3657 12.7749 17.0988
257 3 7.06981 2.10021 4.53428
262 3 5.64032 5.44165 2.43394
46 4 7.55393 1.53651 3.11577
260 3 8.64101 2.45093 2.40889
263 3 4.9537 6.65813 5.12231
264 3 9.12612 4.62591 0.707968
51 4 8.35846 5.93532 0.554524
330 2 7.01424 5.8139 1.55595
50 4 5.90963 6.83409 3.75897
54 4 9.1795 6.87843 4.62899
79 1 10.5397 2.4224 -0.0659414
336 2 8.66958 0.756132 8.72437
234 3 6.21549 3.60417 6.68825
1 4 14.2079 1.92896 3.64391
119 2 7.77124 4.8715 8.17516
95 2 11.5846 4.72742 8.57933
52 4 9.28959 5.46665 7.63555
269 3 9.26902 6.29103 6.27638
2 1 12.3495 4.60931 4.87267
268 3 7.61124 7.01531 3.97577
3 2 12.1965 3.46341 4.62715
49 4 9.81019 3.334 1.49103
267 3 10.4394 6.11164 3.69705
11 4 11.6012 5.14497 3.16651
261 3 11.0498 3.7412 2.37153
131 2 11.3384 2.39709 7.04639
5 3 12.8646 1.0882 3.52933
337 2 10.0179 1.44637 -0.0176572
117 2 11.2826 1.16944 1.26014
8 4 12.0907 3.00836 8.57144
132 2 10.8109 3.99734 6.23909
342 2 11.6034 4.95789 5.68273
120 2 9.49083 3.2574 7.5656
67 1 10.4452 4.06364 7.30844
190 2 13.9215 0.540687 5.66317
343 2 11.4066 6.09529 0.173177
347 2 5.06331 7.0039 0.523387
82 1 6.14693 4.54988 9.38639
173 2 6.97998 3.63713 9.48148
174 2 6.64239 5.56907 9.33702
121 2 4.93142 6.09905 9.54843
175 2 5.20408 4.45971 10.1942
80 1 8.40483 2.24645 9.72497
168 2 7.43355 2.15173 10.3904
169 2 8.37541 3.12179 8.95543
298 2 6.67443 2.23453 17.1872
149 2 6.6169 1.07548 11.6881
346 2 5.16426 3.27937 17.2857
165 2 8.71404 3.24417 16.9964
331 2 5.93648 5.93354 17.0814
148 2 7.1249 3.38707 11.6655
274 3 8.72203 6.25266 12.4352
109 2 4.21977 5.79792 16.519
29 4 6.32694 3.06932 13.2223
229 3 7.28807 2.24283 14.2061
240 3 5.22248 4.10897 13.6541
329 1 4.69254 6.31394 15.5442
332 2 5.86774 6.02933 15.3138
258 3 9.5033 1.24359 15.308
170 2 8.97002 4.07445 14.541
325 2 9.43663 6.43708 16.2559
270 3 9.63533 4.86152 14.659
27 4 7.94747 0.895231 14.6986
81 1 11.7053 3.06044 15.5393
338 2 11.2782 5.58142 12.801
167 2 9.10442 1.22317 11.205
48 4 9.87442 2.67624 10.6471
259 3 11.2251 2.38268 9.71013
324 2 10.011 4.25488 17.7118
36 4 3.97909 5.13386 14.3002
271 3 9.65746 3.85493 11.7641
101 2 10.9278 5.62769 16.489
166 2 12.2437 2.54559 14.6271
55 4 9.69374 5.08138 12.762
47 4 10.8789 1.51249 16.044
172 2 10.8028 3.82483 15.1386
323 1 10.5518 5.42214 17.5469
293 1 5.59055 2.22987 17.2489
171 2 12.3731 3.47566 16.3344
265 3 9.94756 6.31377 8.84614
164 2 10.7406 2.29944 17.7584
155 2 1.20605 12.3168 0.121097
57 4 9.83917 8.68166 0.838288
279 3 1.80213 11.232 5.00263
58 4 3.01125 11.1752 3.93722
277 3 2.85273 10.161 2.66768
278 3 2.98927 12.9668 3.32806
42 4 1.48643 11.2515 6.54613
92 1 2.89659 11.6618 7.60475
126 2 2.4435 12.327 8.45629