ITEM: TIMESTEP
0
ITEM: NUMBER OF ATOMS
350
ITEM: BOX BOUNDS xy xz yz pp pp pp
-9.2171454933018477e+00 1.5608457727936326e+01 -7.7490666531515799e+00
4.0119664078240458e-01 1.3960526826327030e+01 -1.5378211122139989e+00
-1.4695996115413124e-01 1.7785259961154189e+01 1.4232346710932497e-01
ITEM: ATOMS id type x y z
207 3 -0.430339 1.37028 4.84477
304 3 -0.427242 1.84687 2.23779
74 1 0.720736 5.30318 3.7089
150 2 1.16097 4.37668 4.19584
151 2 1.16262 5.51457 2.6416
152 2 -0.458886 5.32817 3.75285
224 3 1.99632 2.91392 4.95949
299 4 -0.324061 2.65115 0.884549
300 1 1.35093 3.28383 1.39456
301 2 1.77932 3.50965 0.346063
237 3 2.24364 6.24728 5.65498
12 4 -1.99835 5.37598 0.646705
340 2 -1.54966 3.54842 3.93448
70 1 2.87096 1.00339 3.06342
4 2 -1.96236 4.82632 5.11362
31 4 0.984771 6.80863 4.79856
314 3 -2.77575 5.89034 2.32916
210 3 -1.31253 3.8666 0.779656
97 2 -3.06847 6.38312 5.53623
32 4 2.49596 6.99621 0.572415
302 2 1.92263 2.44605 2.02263
232 3 3.11338 5.72218 1.66625
303 2 1.18785 4.32282 2.03182
141 2 1.77913 1.0197 3.12029
140 2 3.28268 1.02922 1.99742
9 4 0.736756 2.37284 5.91253
213 3 -1.45537 5.83244 7.54494
13 4 -0.744834 4.31493 7.86017
208 3 1.40034 1.40617 7.01586
212 3 -0.0187466 3.60013 6.53352
233 3 4.26186 2.7381 8.53139
227 3 6.44939 0.935936 6.98863
243 3 -1.17232 6.54634 -0.0459508
23 4 3.38025 2.41911 4.31045
230 3 3.87605 3.59733 3.33251
30 4 4.36526 4.66477 2.07891
108 2 4.5415 2.54692 1.15778
226 3 4.51647 1.71747 5.2384
348 2 5.91787 1.28464 1.72459
71 1 4.7846 3.65705 0.590903
211 3 -1.96772 3.35609 8.19616
33 4 4.95799 4.01518 7.80004
26 4 6.06876 2.02572 5.82895
238 3 4.10921 5.28296 7.4213
15 4 -1.85268 6.99455 6.57609
154 2 6.88964 1.41606 0.202631
35 4 3.68429 6.39611 6.20093
36 4 3.98666 5.00516 14.3087
292 1 3.9902 0.791191 14.5089
34 4 0.572193 6.02072 9.98956
236 3 -0.988852 6.38429 10.687
244 3 1.72102 5.90857 11.0659
145 2 1.66967 1.73953 9.06481
66 1 -0.440842 2.33416 11.362
128 2 -0.224951 3.18293 10.621
72 1 2.61685 1.88163 10.7479
17 4 -2.31987 7.03765 11.248
107 2 1.52026 2.01034 10.9841
129 2 -0.27862 1.31548 10.8751
310 2 4.99491 1.64606 16.0406
242 3 -0.126017 6.46724 17.469
305 3 -1.58773 1.87466 17.2943
235 3 0.225424 4.43272 9.26767
130 2 0.914918 2.46105 12.5883
214 3 -0.76851 4.46942 13.5704
16 4 -1.39155 5.90512 13.9203
6 4 -0.458154 1.63909 16.122
228 3 0.913133 2.51923 16.3146
28 4 2.3074 3.29523 16.4507
216 3 -2.76359 6.37123 12.9181
10 4 -0.623135 2.92112 13.3509
209 3 -0.95808 1.88257 14.4104
241 3 -1.99113 5.88574 15.3929
37 4 -1.55575 6.76831 16.7243
98 2 -0.0557395 7.0241 13.7816
239 3 3.00344 4.08853 15.3083
38 4 2.61859 6.87636 12.1615
297 2 3.79788 1.87822 14.7892
143 2 3.52617 2.19669 17.0306
146 2 3.09776 2.86135 10.9485
25 4 3.45164 1.50682 9.08164
206 2 -1.71289 2.29171 11.7025
144 2 3.16482 1.05207 11.3808
245 3 3.1297 5.91096 13.3517
149 2 6.2403 1.26547 11.6409
104 2 4.7131 2.4751 12.0468
295 2 5.4671 0.73718 13.7302
106 2 1.94398 4.6602 17.5763
328 2 2.41694 7.06905 16.6628
139 2 -4.42099 13.5071 3.60326
219 3 -4.85364 11.4138 4.3612
186 2 -5.04742 11.6457 0.423838
99 2 -4.45672 13.1688 1.27491
86 1 -4.1943 12.1377 0.900986
18 4 -4.99954 11.019 2.76695
349 2 -5.89725 12.2027 1.8982
133 2 -3.7796 8.20304 0.429951
185 2 -3.20096 11.4063 2.17168
122 2 -3.29524 7.50939 2.28726
218 3 -2.45814 8.25439 7.34734
231 3 -0.648695 7.32553 5.67635
20 4 -4.56082 11.5755 5.93462
7 4 -6.81139 13.2163 7.43366
19 4 -3.49471 9.50748 7.84101
220 3 -4.02341 10.1305 6.38756
221 3 -5.81916 12.193 6.6275
100 2 -3.34908 12.7026 6.21814
252 3 0.730627 9.42275 7.09016
313 2 -2.8409 9.89879 4.0188
162 2 -0.449514 13.2873 0.960941
309 2 -0.794052 8.00565 2.80715
115 2 -1.32243 12.9157 2.65028
306 4 -2.26597 8.91351 2.35952
308 1 -1.22355 9.57251 3.79667
315 3 -2.14452 9.7029 0.992533
312 2 -0.926552 8.6107 4.53312
39 4 1.62089 9.05334 2.56367
153 2 0.1051 9.89622 2.42019
246 3 1.31958 7.94587 3.68876
311 2 -0.535709 10.4457 4.11169
247 3 1.81823 8.32991 1.20909
158 2 2.49737 8.34749 7.09415
345 2 -0.302264 11.8038 0.0209236
110 2 -0.41538 9.534 7.17114
249 3 -2.73826 10.7086 8.60761
78 1 -0.897022 13.7715 1.92934
24 4 -0.461413 13.4012 7.88767
181 2 -4.79872 8.56399 4.74557
253 3 0.23426 12.3506 6.86701
217 3 -4.75014 8.82264 8.65514
112 2 -1.45967 8.42863 16.2433
75 1 -1.18904 12.5783 17.2186
318 3 -6.94811 13.05 8.9417
294 2 -4.55936 13.869 13.8252
317 2 -6.23316 11.5431 11.0227
113 2 -3.40018 9.16012 12.266
103 2 -5.68506 9.99802 12.156
222 3 -5.45279 11.0643 12.3255
135 2 -5.4057 8.36472 14.0113
283 3 1.52845 9.92128 9.74542
102 2 -4.25099 8.38628 16.7168
344 2 -3.80786 13.5154 16.1127
320 1 -7.84716 13.2054 16.3821
321 2 -6.6976 13.2923 16.5138
335 2 -4.41976 10.3071 16.0357
22 4 -3.82585 10.8163 12.4607
68 1 -5.81669 9.44655 17.0225
43 4 1.19828 9.43387 13.7493
223 3 -3.34978 11.4685 13.9966
77 1 0.114604 8.47864 15.1019
251 3 -2.93208 11.7522 11.0866
41 4 -2.66294 12.1535 9.34232
111 2 -0.840365 9.03029 9.76793
250 3 -1.2128 12.8124 9.2179
40 4 0.629834 8.82799 8.94922
69 1 -1.58475 8.80382 11.5906
136 2 -0.417953 8.65263 11.4038
248 3 0.986472 7.31231 9.08718
138 2 -2.1015 9.64185 11.0182
114 2 -1.49433 12.0524 11.6475
254 3 1.77033 8.18687 12.8932
255 3 0.0700313 10.5379 13.1397
291 4 -2.71736 12.6504 14.7589
307 4 -4.61578 10.8199 17.7682
296 2 -1.29046 12.0389 15.8095
159 2 -0.917687 8.37265 14.5167
137 2 -1.74196 8.87513 12.7084
160 2 0.0187349 9.25002 16.0413
225 3 -3.81535 13.3958 9.09712
161 2 0.695813 7.56021 15.3626
334 2 -1.66739 13.6929 17.1956
322 2 -8.16622 12.7732 15.3493
44 4 0.00784721 11.9243 12.4317
215 3 -3.61674 7.28711 10.4756
134 2 -4.27911 12.6403 17.7497
341 2 -8.33074 12.6971 17.2507
257 3 7.062 2.04288 4.6274
262 3 5.66118 5.51808 2.41718
46 4 7.63184 1.63644 3.11833
260 3 8.79982 2.38856 2.25072
263 3 4.80669 6.71079 5.00473
264 3 9.0057 4.72521 0.940667
51 4 8.32984 6.07016 0.574144
330 2 6.88424 6.22949 1.46628
50 4 5.85949 6.84353 3.76322
54 4 9.12051 6.81236 4.76787
79 1 10.425 2.407 -0.0858107
336 2 8.62612 0.954822 8.58114
234 3 5.9925 3.58114 6.66358
1 4 14.3651 1.9133 3.58815
119 2 7.67341 5.00794 8.1323
95 2 11.7198 4.92934 8.23352
52 4 9.23641 5.45042 7.64454
269 3 9.06606 6.13467 6.22066
2 1 12.518 4.52798 4.81975
268 3 7.51246 6.95514 4.09848
3 2 12.4107 3.36693 4.51603
49 4 9.75624 3.43036 1.46705
267 3 10.4567 5.96814 3.88892
11 4 11.6779 5.09518 3.11748
261 3 11.2311 3.73814 2.43061
131 2 11.3777 2.38527 7.00706
5 3 12.8165 1.16507 3.5563
337 2 9.98939 1.39354 0.117456
117 2 11.4183 1.37027 1.21673
8 4 12.0296 3.16024 8.41525
132 2 10.5043 4.00012 5.97545
342 2 11.8024 4.8182 5.63298
120 2 9.54082 3.23544 7.58611
67 1 10.4551 4.09585 7.13248
142 2 5.89656 3.79167 0.289136
343 2 11.4223 6.10286 -0.105471
82 1 6.12974 4.50819 9.35902
173 2 7.08918 3.74426 9.39367
174 2 6.48779 5.57984 9.15003
121 2 4.9828 6.09899 9.42954
175 2 5.34942 4.35629 10.177
80 1 8.58699 2.39129 9.73264
168 2 7.63204 2.43388 10.4235
169 2 8.75302 3.35331 9.07522
298 2 6.64059 2.44096 16.902
73 1 5.87793 2.3353 11.5564
346 2 4.95713 3.2112 17.2084
165 2 8.28841 3.09711 17.0371
331 2 6.06827 5.99038 16.9349
148 2 7.1446 3.85579 11.5533
274 3 8.85129 6.11612 12.3055
109 2 4.34988 5.56191 16.586
29 4 6.5388 3.26119 13.0983
229 3 7.34073 2.17685 13.8786
240 3 5.43933 4.21759 13.6844
329 1 4.54116 6.27865 15.6973
332 2 5.63112 6.35275 15.374
258 3 9.42329 1.16579 15.2697
170 2 8.73185 4.10479 14.4508
325 2 9.40977 6.48597 16.2919
270 3 9.65965 4.5578 14.6178
27 4 8.00472 0.925121 14.6042
81 1 11.7488 2.8962 15.6318
338 2 11.3985 5.54021 13.0012
167 2 9.19291 1.05153 11.0552
48 4 10.0484 2.55888 10.7705
259 3 11.4065 2.56751 9.90691
324 2 9.90179 4.24024 17.5411
147 2 5.9187 2.74488 10.5285
271 3 9.90459 3.69936 11.8655
101 2 10.8707 5.44638 16.3536
166 2 12.3534 2.19154 14.8088
55 4 9.81953 4.90054 12.8695
47 4 10.8523 1.33244 16.1099
172 2 10.9979 3.60134 15.1208
323 1 10.4963 5.32571 17.4534
293 1 5.48266 2.23043 17.0822
171 2 12.4437 3.43925 16.3107
164 2 10.4786 2.5387 17.5442
105 2 7.05258 0.569449 15.9441
265 3 9.8682 6.30194 8.85412
163 2 0.310778 13.3995 3.38869
57 4 9.97059 8.73712 0.726189
279 3 1.91987 11.5008 4.99384
58 4 3.12569 11.3507 3.92454
277 3 2.79455 10.1797 2.93337
278 3 3.11362 12.8151 3.07122
42 4 1.39181 11.3741 6.42769
92 1 2.75132 11.8106 7.55812
126 2 2.17639 12.4992 8.38444
203 2 3.08907 10.7986 7.9634
276 3 10.047 9.47672 2.19366
275 3 9.10684 7.36233 0.662708
45 4 4.32117 13.7161 2.45408
189 2 7.44111 12.3273 4.5826
59 4 6.42154 11.5905 1.62345
83 1 5.39596 8.2452 2.67829
125 2 4.89087 7.94237 1.5152
176 2 5.33877 10.4133 0.847662
177 2 6.42963 8.7505 2.58761
178 2 7.01199 10.6404 3.1786
280 3 5.35284 12.6782 1.84564
285 3 4.48944 10.7803 4.71458
187 2 7.96582 10.4895 5.09446
87 1 7.2546 11.147 4.49858
188 2 4.72269 8.82593 3.4471
289 3 7.68765 11.6657 0.551793
200 2 3.66491 10.7739 0.860963
123 2 7.9224 12.5844 0.938572
62 4 5.76348 11.2185 5.57554
350 2 4.36537 13.262 5.51861
88 1 5.2863 13.2237 6.09173
201 2 3.70458 12.3611 6.97921
156 2 4.08095 8.80892 6.13618
94 2 7.13143 13.0211 6.81809
157 2 4.19001 8.38566 7.95663
191 2 5.19454 13.2895 7.15385
76 1 3.62199 8.16771 6.98145
182 2 7.44709 7.37155 8.37678
286 3 6.16551 10.423 6.95881
85 1 7.68417 8.25731 7.67578
183 2 8.77803 8.71526 7.74695
60 4 6.62898 9.60735 8.33997
184 2 7.31403 8.01334 6.61664
180 2 9.05057 9.17079 4.24438
84 1 9.6862 8.56728 5.07575
179 2 9.59902 9.00083 6.06791
347 2 5.1364 7.16343 0.165721
190 2 6.15374 13.8422 5.63676
124 2 8.04107 10.0282 17.2759
61 4 2.20919 11.1002 10.7058
290 3 5.84016 10.6759 12.8176
284 3 1.22107 12.2083 11.3406
326 1 2.6304 7.59515 17.6579
316 4 7.96184 11.994 10.0031
91 1 2.22945 10.8094 17.6796
199 2 1.82479 12.1745 16.9757
256 3 0.198298 13.0055 13.5828
288 3 2.29927 10.1874 14.6894
273 3 6.78652 7.25259 11.0002
195 2 3.35094 12.9561 14.5982
202 2 3.40664 10.3906 12.0986
14 4 10.4596 7.64072 9.70109
56 4 8.21934 7.46666 11.7154
197 2 4.98062 13.6758 14.9817
266 3 3.98609 7.51146 11.3591
53 4 5.29836 7.46646 10.3732
127 2 3.5369 12.2869 9.8518
319 3 6.78142 12.46 10.9744
281 3 5.27748 8.61042 9.33065
282 3 7.59992 10.6401 9.2692
205 2 4.65653 10.1971 10.1648
93 1 4.22826 11.0878 10.7497
65 4 5.57098 11.84 11.7731
64 4 3.10094 11.0911 15.7852
272 3 9.37944 8.19171 10.8095
204 2 4.1014 12.7136 11.8979
116 2 3.8418 10.0923 17.1036
333 2 3.69985 13.2077 17.0312
96 2 8.39583 9.0032 15.8479
287 3 7.89654 8.67579 12.9507
90 1 4.21132 12.978 15.3989
196 2 5.01875 11.5145 15.3227
339 2 5.21668 8.09312 13.6683
89 1 6.07439 8.9035 15.2224
192 2 6.5989 9.92286 15.6021
193 2 6.5002 7.9533 15.6741
194 2 4.89675 9.00592 15.1753
63 4 6.50073 9.31941 13.4027
198 2 1.42163 10.1046 17.4446
155 2 -0.105996 12.556 17.566
327 2 2.49514 8.83412 17.6205
21 4 9.90293 8.03494 15.6916
118 2 4.02405 7.32246 15.7858
ITEM: TIMESTEP
100
ITEM: NUMBER OF ATOMS
350
ITEM: BOX BOUNDS xy xz yz pp pp pp
-9.2104369899426306e+00 1.5608457727936326e+01 -7.7423581497923628e+00
4.0119664078240458e-01 1.3960526826327030e+01 -1.5378211122139989e+00
-1.4695996115413124e-01 1.7785259961154189e+01 1.4232346710932497e-01
ITEM: ATOMS id type x y z
207 3 -0.444046 1.56839 4.93564
304 3 -0.564153 1.68628 2.14767
74 1 0.439823 5.44476 3.57176
150 2 1.15823 4.56489 3.97483
151 2 0.675418 5.68948 2.49466
152 2 -0.661477 5.31919 3.8033
224 3 2.06031 2.82427 5.07793
299 4 -0.151443 2.59269 0.898676
300 1 1.65644 3.1984 1.24785
301 2 2.27112 3.30313 0.291232
237 3 2.21511 6.3491 5.80282
12 4 -2.11041 5.37113 0.615257
340 2 -1.68249 3.56684 3.8841
70 1 2.79898 0.969439 3.17894
4 2 -1.85336 4.79683 5.10205
31 4 1.02007 6.77602 4.74297
314 3 -2.72513 6.02457 2.3657
210 3 -1.21206 4.00679 0.742704
97 2 -3.13777 6.47225 5.58369
32 4 2.46057 6.90283 0.539842
302 2 2.08125 2.48557 1.97278
232 3 2.94026 5.8269 1.6862
303 2 1.39874 4.18297 1.75017
141 2 1.65298 0.944028 3.10244
140 2 3.23565 0.895998 2.07969
9 4 0.685573 2.41994 5.98529
213 3 -1.49074 5.69966 7.50684
13 4 -0.717936 4.32873 7.84108
208 3 1.15089 1.34869 7.08748
212 3 0.0707636 3.79496 6.4914
233 3 4.2588 2.5961 8.5187
227 3 6.65598 1.07345 6.83789
243 3 -1.22447 6.51654 0.0118103
23 4 3.41552 2.40947 4.36238
230 3 3.83111 3.55034 3.1409
30 4 4.25348 4.80443 2.18371
108 2 4.38717 2.78681 1.13015
226 3 4.49998 1.67259 5.26071
348 2 5.8516 1.34678 1.67169
71 1 4.7204 3.81385 0.673297
211 3 -2.03851 3.11667 8.1583
33 4 5.0586 3.96005 7.92622
26 4 6.03319 2.04281 5.79823
238 3 4.24596 5.2181 7.47751
15 4 -1.79285 6.95248 6.60224
154 2 6.97264 1.55468 0.275294
35 4 3.8133 6.3879 6.34483
147 2 5.38902 2.91879 10.6724
292 1 4.12525 0.867671 14.6332
34 4 0.586847 5.97532 10.0047
236 3 -0.916952 6.48513 10.4737
244 3 1.64544 6.06182 11.1994
145 2 1.68862 1.59905 9.37778
66 1 -0.22388 2.30024 11.3631
128 2 0.000489342 3.12174 10.5982
72 1 2.92417 1.83218 10.8073
17 4 -2.13099 7.03651 11.2209
107 2 1.71351 2.02881 11.0922
129 2 -0.0487358 1.30389 11.0041
310 2 4.97711 1.68341 16.2185
242 3 -0.0150307 6.35499 17.2544
305 3 -1.49755 2.0094 17.4462
235 3 0.336806 4.38584 9.22711
130 2 1.0113 2.52774 12.5424
214 3 -0.774924 4.42641 13.4608
16 4 -1.45563 5.78328 13.9898
6 4 -0.513604 1.53609 16.1277
228 3 1.10275 2.52204 16.3388
28 4 2.38616 3.39812 16.4672
216 3 -2.64349 6.2242 12.8848
10 4 -0.709113 2.89893 13.1793
209 3 -1.08235 1.72001 14.6743
241 3 -1.85496 5.89643 15.5101
37 4 -1.51613 6.679 16.8022
98 2 -0.116471 6.92147 13.9229
239 3 3.02064 4.11216 15.2416
38 4 2.73554 7.01899 12.03
297 2 4.22913 1.90477 14.9612
143 2 3.56268 2.26584 17.1305
146 2 3.51177 2.75401 10.9812
25 4 3.45952 1.33666 9.07989
206 2 -1.89798 2.30767 11.7746
144 2 3.33075 0.861625 11.3668
245 3 3.31831 6.03833 13.2494
106 2 2.03926 4.81847 17.5687
104 2 4.83814 1.78674 12.2921
328 2 2.50352 7.1855 16.8092
294 2 3.28066 0.715691 13.9189
248 3 1.21735 7.16483 8.87051
149 2 6.36077 1.34327 11.1246
73 1 5.77908 2.22938 11.5467
215 3 -3.48306 7.17446 10.4131
139 2 -4.5574 13.5336 3.79852
219 3 -4.93171 11.274 4.35275
186 2 -5.17806 11.6682 0.382053
99 2 -4.51504 13.3387 1.13663
86 1 -4.24145 12.1521 0.914878
18 4 -5.05507 11.0555 2.71505
349 2 -5.95153 12.3146 1.97579
133 2 -3.80937 8.1074 0.382462
185 2 -3.34175 11.5176 2.28074
122 2 -3.27142 7.46179 2.02828
218 3 -2.31095 8.25528 7.38463
231 3 -0.71971 7.17456 5.51063
20 4 -4.60098 11.5056 5.87669
7 4 -6.78273 13.1082 7.45155
19 4 -3.45722 9.47473 7.86754
220 3 -4.02097 10.1965 6.53705
221 3 -5.80977 12.179 6.64712
100 2 -3.37276 12.6629 5.85556
252 3 0.738065 9.3052 7.18709
313 2 -2.85092 9.92535 3.93268
162 2 -0.66504 13.304 1.00503
309 2 -0.719027 8.03494 2.73958
115 2 -1.67569 13.1291 2.64334
306 4 -2.25647 8.91907 2.31771
308 1 -1.2764 9.48072 3.8299
315 3 -2.27701 9.92139 1.02896
312 2 -1.01585 8.53837 4.59824
39 4 1.71815 8.99378 2.52885
153 2 0.142291 9.70631 2.48048
246 3 1.61481 7.94391 3.74186
311 2 -0.643872 10.3746 3.94148
247 3 1.98012 8.30964 1.11756
217 3 -4.74359 8.79814 8.64136
345 2 -0.406019 11.9528 0.022366
110 2 -0.347827 9.46969 7.30966
249 3 -2.81725 10.6584 8.73923
78 1 -1.1444 13.8254 1.98322
24 4 -0.454143 13.4855 7.86984
181 2 -4.6308 8.5699 4.28777
253 3 0.244442 12.267 7.0602
307 4 -3.17011 10.7552 -0.0881155
112 2 -1.37999 8.34986 16.408
75 1 -1.31064 12.6559 17.2819
318 3 -6.9359 12.9408 8.98692
134 2 -4.2883 12.6169 17.725
317 2 -6.46402 11.6276 11.2048
113 2 -3.37121 9.14379 12.2144
103 2 -5.56288 10.05 12.1759
222 3 -5.50273 11.1427 12.4023
135 2 -5.00923 8.28282 14.1589
161 2 0.731373 7.5485 15.3771
102 2 -4.35662 8.33508 16.7783
344 2 -4.15171 13.2493 15.979
320 1 -7.86334 13.1499 16.2576
321 2 -6.72525 13.152 16.3737
335 2 -4.72612 10.2947 16.1383
22 4 -3.82169 10.8393 12.4112
68 1 -5.95581 9.36913 16.9996
43 4 1.19412 9.44371 13.7056
223 3 -3.44185 11.2834 13.9368
77 1 0.144855 8.52857 15.0803
251 3 -2.79641 11.9825 11.1041
41 4 -2.68603 12.1022 9.42203
111 2 -0.808655 8.81872 9.76735
250 3 -1.32503 12.8594 9.06556
40 4 0.719622 8.72624 9.01885
69 1 -1.51669 8.86125 11.6346
136 2 -0.389015 8.60016 11.4207
334 2 -1.6435 13.8006 17.3285
138 2 -1.70743 9.93105 11.1473
114 2 -1.46726 11.9926 11.765
254 3 1.78274 8.37936 12.7263
255 3 0.0471709 10.4557 13.0045
291 4 -2.8818 12.5132 14.7685
44 4 0.0880082 11.9955 12.5238
296 2 -1.36747 12.0406 15.7667
159 2 -0.801275 8.48326 14.5086
137 2 -1.79269 8.78113 12.7884
160 2 0.189126 9.38353 15.8993
225 3 -3.76542 13.2814 8.90532
295 2 -2.18128 13.8323 13.6584
283 3 1.58514 9.82365 9.73542
322 2 -8.19857 12.7966 15.1739
257 3 7.01637 1.98865 4.32238
262 3 5.69663 5.47443 2.55203
46 4 7.68498 1.52349 3.02119
260 3 8.71863 2.53652 2.20298
263 3 5.03334 6.59976 5.14161
264 3 9.18632 4.73047 0.839409
51 4 8.32312 5.97054 0.602795
330 2 6.93635 5.94069 1.56944
50 4 5.97701 6.8448 3.87154
54 4 9.1606 6.78451 4.63367
79 1 10.4335 2.37679 0.0282245
336 2 8.60032 0.907881 8.69933
234 3 6.10559 3.50914 6.6751
1 4 14.291 1.93826 3.61919
119 2 7.68227 4.85488 7.98801
95 2 11.5774 4.99674 8.27872
52 4 9.20429 5.50003 7.58467
269 3 9.19481 6.17064 6.20939
2 1 12.5725 4.61134 4.94163
268 3 7.51494 6.94503 4.25545
3 2 12.3621 3.45767 4.71197
49 4 9.81358 3.49337 1.52177
267 3 10.3124 6.05886 3.71061
11 4 11.7046 5.19663 3.25835
261 3 11.2695 3.85937 2.52031
131 2 11.3525 2.3982 7.07933
5 3 12.7785 1.21698 3.6846
337 2 9.90621 1.42391 0.173789
117 2 11.3092 1.30349 1.40911
8 4 11.9796 3.16583 8.46844
132 2 10.8193 4.11107 6.13428
342 2 11.8787 4.91456 5.86653
120 2 9.50762 3.25065 7.45229
67 1 10.4222 4.12337 7.22422
142 2 5.81328 3.9577 0.381198
164 2 12.0546 2.16522 -0.101895
82 1 6.20777 4.61171 9.32125
173 2 7.07843 3.73147 9.35671
174 2 6.54694 5.63891 9.03174
121 2 4.96908 6.17494 9.3886
175 2 5.55109 4.58591 10.2713
80 1 8.36719 2.25627 9.62172
168 2 7.43693 2.22624 10.3562
169 2 8.43224 3.20251 9.01455
298 2 6.61398 2.4853 16.9747
343 2 9.6932 6.07657 17.7133
346 2 5.06171 3.35217 17.3481
165 2 8.39756 3.14792 17.1421
331 2 6.07134 6.07897 16.9905
148 2 7.03474 3.69169 11.6983
274 3 8.63169 6.2473 12.4126
109 2 4.37759 6.19222 16.7017
29 4 6.30909 3.16102 13.1965
229 3 7.40495 2.36742 13.9875
240 3 5.27383 4.15154 13.829
329 1 4.70177 6.46234 15.5902
332 2 5.84337 6.22895 15.3141
258 3 9.40294 1.15705 15.3105
170 2 8.93356 3.90709 14.2726
325 2 9.40237 6.31041 16.0296
270 3 9.48999 4.70849 14.5179
27 4 7.93077 0.979704 14.5825
81 1 11.524 2.87395 15.587
338 2 11.4034 5.72397 12.7782
167 2 9.14384 1.08573 10.9892
48 4 9.89449 2.61749 10.6332
259 3 11.2746 2.41987 9.84424
324 2 9.97953 4.15509 17.4237
36 4 4.03157 5.13875 14.3618
271 3 9.79924 3.75904 11.7319
101 2 10.9683 5.58744 16.3479
166 2 12.1644 2.34568 14.7006
55 4 9.78839 5.06406 12.8297
47 4 10.8135 1.3284 16.1095
172 2 10.6964 3.6568 15.1296
323 1 10.4413 5.30853 17.3727
293 1 5.53791 2.32785 17.1957
171 2 12.2563 3.32162 16.3951
265 3 9.76338 6.36285 8.84523
105 2 6.92542 0.590362 15.9077
163 2 0.470378 13.2319 2.93475
57 4 9.96852 8.60218 0.72803
279 3 1.90921 11.3567 5.09521
58 4 2.98613 11.3079 3.89606
277 3 2.76625 10.1176 2.75485
278 3 3.0713 12.7073 3.16919
42 4 1.35031 11.3062 6.55405
92 1 2.80598 11.6967 7.56316
126 2 2.24513 12.4492 8.3344
203 2 3.18214 10.6797 8.06311
276 3 10.0304 9.60049 1.98404
275 3 9.09322 7.33761 0.68437
45 4 4.33249 13.7076 2.5508
189 2 7.46046 12.5228 4.711
59 4 6.42706 11.5643 1.42574
83 1 5.43939 8.25182 2.80908
125 2 4.99789 7.98332 1.70425
176 2 5.55074 10.2101 0.587809
177 2 6.42651 8.8297 2.72335
178 2 6.83418 10.7945 3.07698
280 3 5.23232 12.6131 1.69124
285 3 4.60684 10.8575 4.55414
187 2 8.13137 10.7527 5.14962
87 1 7.33037 11.4127 4.60006
188 2 4.66693 8.70203 3.55267
289 3 7.7573 11.8078 0.545105
200 2 3.9051 10.7398 0.712873
123 2 7.92286 12.687 1.14306
62 4 5.82329 11.1285 5.51283
350 2 4.30969 13.3098 5.87403
88 1 5.38841 13.0646 6.23633
201 2 3.72908 12.187 7.04947
156 2 4.58365 8.71798 6.33083
94 2 7.2322 12.7596 6.7972
157 2 4.34206 8.05496 8.15804
191 2 5.47838 13.1108 7.39576
76 1 3.89801 8.10824 7.13213
182 2 7.33964 7.41428 8.33356
286 3 6.0835 10.296 6.93794
85 1 7.7447 8.24682 7.64786
183 2 8.80331 8.48149 7.92685
60 4 6.66424 9.63701 8.30479
184 2 7.63515 8.12868 6.49514
180 2 9.02905 9.16766 4.38518
84 1 9.88806 8.5273 4.84108
179 2 9.96372 8.67027 5.93369
158 2 2.7427 8.35298 7.07604
347 2 5.13238 7.13652 0.392838
190 2 6.18297 13.8075 5.79609
326 1 4.2279 7.51118 -0.0970536
327 2 4.22603 8.66105 -0.12296
124 2 7.9787 9.94656 17.1976
61 4 2.13581 11.0128 10.7058
290 3 5.93945 10.7549 12.9277
284 3 1.20092 12.0977 11.4441
341 2 7.11391 12.6301 17.1928
316 4 7.88434 11.9266 9.98489
91 1 2.40783 10.7812 17.5497
199 2 2.21855 12.265 17.0504
256 3 0.152932 13.2426 13.5566
288 3 2.35324 10.4846 14.5386
273 3 6.70471 7.34432 10.9544
195 2 3.44307 13.0247 14.4719
202 2 3.26983 10.3371 12.0119
14 4 10.5859 7.6719 9.72971
56 4 8.1099 7.55196 11.7148
197 2 5.00391 13.8054 15.0166
266 3 4.1151 7.53783 11.4414
53 4 5.27806 7.54665 10.3831
127 2 3.53534 12.3494 9.82581
319 3 6.45368 12.5985 10.8042
281 3 5.41681 8.85734 9.49316
282 3 7.54062 10.555 9.25523
205 2 4.61792 10.3843 10.206
93 1 4.12155 11.327 10.7548
65 4 5.54681 11.8602 11.8421
64 4 3.26011 11.1156 15.6491
272 3 9.38395 8.11893 10.7522
204 2 4.04443 12.7111 12.1414
116 2 3.83719 9.85442 16.8506
333 2 3.79126 13.1827 16.9565
96 2 8.44968 9.16661 15.4837
287 3 7.78465 8.66495 12.9463
90 1 4.25355 13.0003 15.3266
196 2 5.11755 11.5536 15.1413
339 2 5.09892 8.20268 13.7616
89 1 5.98297 8.9462 15.302
192 2 6.58159 10.1174 15.5545
193 2 6.59095 8.09401 15.7723
194 2 5.0035 8.92655 15.8403
63 4 6.3987 9.35247 13.4634
198 2 1.50242 10.1016 17.3106
155 2 -0.280982 12.539 17.6552
118 2 4.38152 7.49578 15.3684
21 4 9.79272 8.0011 15.6313
ITEM: TIMESTEP
200
ITEM: NUMBER OF ATOMS
350
ITEM: BOX BOUNDS xy xz yz pp pp pp
-9.2037284865834135e+00 1.5608457727936326e+01 -7.7356496464331457e+00
4.0119664078240458e-01 1.3960526826327030e+01 -1.5378211122139989e+00
-1.4695996115413124e-01 1.7785259961154189e+01 1.4232346710932497e-01
ITEM: ATOMS id type x y z
207 3 -0.421293 1.5951 4.92622
304 3 -0.532884 1.8028 2.29869
74 1 0.527989 5.43708 3.54169
150 2 1.11686 4.58178 4.12624
151 2 0.778995 5.55796 2.42809
152 2 -0.600847 5.44448 3.72539
224 3 2.06277 2.64446 5.12014
299 4 -0.360517 2.56885 0.843103
300 1 1.41144 3.08022 1.25045
301 2 1.84086 3.18829 0.207768
237 3 2.39933 6.08236 5.47972
12 4 -1.9529 5.51184 0.720246
340 2 -1.81502 3.56662 3.92707
70 1 2.93856 0.856229 3.20191
4 2 -2.1299 4.93313 5.07361
31 4 1.07424 6.82768 4.65736
314 3 -2.79487 6.11687 2.35371
210 3 -1.3571 3.97583 0.828521
97 2 -2.96307 6.4852 5.51878
32 4 2.6145 6.79633 0.698569
302 2 1.98063 2.22863 1.99387
232 3 3.20994 5.67883 1.77321
303 2 1.37253 4.09059 1.78874
141 2 1.81428 0.698518 3.47638
140 2 3.14448 0.954368 2.0339
9 4 0.743452 2.46171 6.04797
213 3 -1.5203 5.67364 7.55491
13 4 -0.74895 4.319 7.92248
208 3 1.16111 1.45948 7.21515
212 3 -0.00106039 3.74407 6.55244
233 3 4.38542 2.63614 8.43667
227 3 6.6416 0.852023 6.8813
243 3 -0.947652 6.55678 -0.0193884
23 4 3.40409 2.36777 4.37116
230 3 3.93232 3.52073 3.3837
30 4 4.33033 4.55537 2.18208
108 2 4.5314 2.57516 0.897101
226 3 4.6262 1.81646 5.28812
348 2 5.79145 1.62227 1.81302
71 1 4.67398 3.62523 0.567493
211 3 -1.90806 3.16065 8.3359
33 4 5.07848 4.03809 7.81758
26 4 6.10384 1.95918 5.89384
238 3 4.17901 5.28179 7.42512
15 4 -1.73843 6.91983 6.57412
154 2 6.80018 1.47521 0.255253
78 1 6.44642 0.429428 2.00575
35 4 3.84974 6.41536 6.2246
142 2 5.72679 3.89107 0.17469
106 2 3.32636 4.3269 -0.0970806
147 2 5.55854 2.28118 10.6605
292 1 4.11231 0.770201 14.7757
34 4 0.692203 6.0084 10.0117
236 3 -0.85296 6.3555 10.8478
244 3 1.88272 5.99033 11.163
145 2 1.805 1.73866 9.16641
66 1 -0.287171 2.394 11.3401
128 2 0.104006 3.18968 10.5713
72 1 2.88947 1.70318 10.7777
17 4 -2.21741 6.93293 11.2349
107 2 1.63056 1.97743 10.9941
129 2 -0.0996662 1.4069 10.9097
310 2 5.08404 1.6256 16.2423
242 3 0.0713746 6.17783 17.3603
305 3 -1.66733 1.86733 17.3601
235 3 0.46949 4.54359 9.36652
130 2 0.955948 2.59032 12.5746
214 3 -0.945462 4.3943 13.5622
16 4 -1.50703 5.80283 13.927
6 4 -0.386322 1.55537 15.9743
228 3 1.04795 2.37537 16.1355
28 4 2.30853 3.37166 16.428
216 3 -2.72465 6.24506 12.8621
10 4 -0.805708 2.80511 13.2503
209 3 -1.10577 1.67024 14.3138
241 3 -1.86372 5.96702 15.497
37 4 -1.36004 6.65007 16.79
98 2 -0.255452 6.92493 13.7581
239 3 3.04425 4.21297 15.3324
38 4 2.72127 7.09429 12.0783
297 2 4.21679 1.88683 15.0274
143 2 3.60918 2.38325 17.0561
146 2 3.56734 2.6033 11.1462
25 4 3.55777 1.39088 9.01617
206 2 -1.87074 2.47873 11.5825
144 2 3.20704 0.700334 11.2241
245 3 3.39332 6.14503 13.2478
328 2 2.53955 7.15733 16.8074
104 2 4.75272 1.68428 12.4814
73 1 5.84605 1.92504 11.6705
294 2 3.43023 0.641497 13.8739
215 3 -3.60996 7.1143 10.5062
139 2 -4.09852 13.5532 3.64007
219 3 -4.93551 11.3152 4.3452
186 2 -5.24289 11.6491 0.270014
99 2 -4.67746 13.1719 1.26607
86 1 -4.33702 12.1627 0.967494
18 4 -5.15967 11.0354 2.73786
349 2 -5.96123 12.3407 2.03487
133 2 -4.01735 8.11424 0.493547
185 2 -3.36454 11.3963 2.2716
122 2 -3.58836 7.58149 2.32769
218 3 -2.38418 8.26613 7.30423
231 3 -0.481057 7.22138 5.72854
20 4 -4.58936 11.598 5.86072
7 4 -6.80636 13.2058 7.45136
19 4 -3.43434 9.56513 7.85198
220 3 -4.04015 10.303 6.57253
221 3 -5.88855 12.2761 6.58585
100 2 -3.31592 12.7092 5.89453
252 3 0.842688 9.30074 7.11451
313 2 -2.65578 9.80995 4.04762
162 2 -0.701797 13.3387 1.08913
309 2 -0.72589 8.04024 2.38331
115 2 -1.9501 13.0162 2.56045
306 4 -2.33481 8.85429 2.25842
308 1 -1.21282 9.32767 3.68283
315 3 -2.45954 9.82679 0.942631
312 2 -0.945993 8.49629 4.46622
39 4 1.67335 9.05594 2.51244
153 2 0.0819736 9.87283 2.34202
246 3 1.43628 8.07144 3.73796
311 2 -0.530536 10.2388 3.88336
247 3 1.72717 8.24447 1.2085
217 3 -4.71013 8.83318 8.62431
345 2 -0.573349 11.7812 0.0655013
110 2 -0.323304 9.36757 7.16309
134 2 -2.8151 12.5172 -0.0354769
158 2 2.45742 8.11535 7.21782
24 4 -0.44974 13.2992 7.91026
181 2 -4.69721 8.69345 4.24797
253 3 0.237503 12.1447 7.07508
307 4 -3.22971 10.7419 -0.13989
163 2 0.137046 13.2204 3.14905
225 3 -3.84573 13.258 8.80174
249 3 -2.65457 10.6475 8.81576
112 2 -1.1693 8.35348 16.2623
75 1 -1.30327 12.585 17.509
318 3 -6.8712 12.9844 9.04031
248 3 1.08379 7.25464 8.99017
317 2 -6.47448 11.4484 11.2072
113 2 -3.44424 9.40746 11.9479
103 2 -5.71153 10.0534 12.1295
222 3 -5.58752 11.1581 12.3708
135 2 -4.72179 8.17174 14.3231
161 2 0.773449 7.34913 15.1669
102 2 -4.27918 8.62613 16.8361
344 2 -4.1518 13.1329 16.09
320 1 -7.67337 13.2005 16.1336
321 2 -6.56283 13.269 16.3202
335 2 -4.90537 10.5898 16.0189
22 4 -3.84109 11.0192 12.385
68 1 -6.00083 9.42579 17.0657
43 4 1.22973 9.53968 13.7458
223 3 -3.3415 11.4377 13.928
77 1 0.306341 8.35661 14.9637
251 3 -3.05926 11.9109 11.2918
41 4 -2.77698 12.1784 9.32323
111 2 -0.969097 8.90862 9.54467
250 3 -1.35566 12.8217 9.1716
40 4 0.663171 8.83127 8.9699
69 1 -1.5959 8.79322 11.3928
136 2 -0.462696 8.76131 11.3898
334 2 -1.58534 13.6756 17.4525
138 2 -2.07934 9.62764 10.6735
114 2 -1.53721 11.9425 11.7811
254 3 1.86876 8.2894 12.7876
255 3 0.0886642 10.6179 13.1726
291 4 -2.80391 12.4719 14.9315
44 4 0.0654703 12.0688 12.4932
296 2 -1.23113 11.928 15.8823
159 2 -0.804124 8.36201 14.5284
137 2 -1.9603 8.85081 12.5153
160 2 0.51358 9.26033 15.8463
295 2 -2.15751 13.8413 13.9987
322 2 -7.96352 12.7327 15.1836
283 3 1.46628 9.81894 9.90336
21 4 -5.62322 8.04497 15.7965
341 2 -8.35128 12.7748 17.0798
257 3 7.07254 2.10082 4.53029
262 3 5.6459 5.44171 2.43172
46 4 7.55619 1.53602 3.11145
260 3 8.64441 2.45033 2.40451
263 3 4.96049 6.65808 5.11788
264 3 9.13049 4.62673 0.707879
51 4 8.36433 5.93553 0.553301
330 2 7.0198 5.81352 1.55356
50 4 5.91603 6.83417 3.75552
54 4 9.18535 6.87925 4.62316
79 1 10.5402 2.423 -0.0680459
336 2 8.67133 0.754048 8.71757
234 3 6.2185 3.6046 6.68196
1 4 14.209 1.92894 3.63991
119 2 7.77465 4.8709 8.16656
95 2 11.589 4.72619 8.57394
52 4 9.29394 5.46576 7.6276
269 3 9.274 6.29127 6.27036
2 1 12.3534 4.61108 4.86768
268 3 7.61919 7.01613 3.97154
3 2 12.199 3.4615 4.62299
49 4 9.81359 3.33397 1.48864
267 3 10.4437 6.11225 3.69254
11 4 11.6071 5.14444 3.16288
261 3 11.0543 3.74051 2.3685
131 2 11.341 2.39847 7.03706
5 3 12.8639 1.0897 3.52497
337 2 10.0158 1.44725 -0.017497
117 2 11.2825 1.16825 1.25652
8 4 12.094 3.00675 8.56253
132 2 10.8163 3.99648 6.22902
342 2 11.605 4.95635 5.67841
120 2 9.49365 3.25691 7.55765
67 1 10.4494 4.06328 7.30015
190 2 13.9217 0.540238 5.65888
343 2 11.4096 6.09181 0.176148
347 2 5.06936 7.00319 0.521016
82 1 6.15131 4.54942 9.37809
173 2 6.98229 3.63704 9.4733
174 2 6.64911 5.56833 9.33089
121 2 4.93659 6.09975 9.53793
175 2 5.20774 4.4591 10.1856
80 1 8.40718 2.24633 9.71505
168 2 7.43579 2.15212 10.38
169 2 8.37767 3.11997 8.94502
298 2 6.67744 2.2322 17.1707
149 2 6.61586 1.07525 11.6754
346 2 5.16562 3.28103 17.2701
165 2 8.71326 3.24583 16.9782
331 2 5.94641 5.93397 17.0623
148 2 7.12821 3.38612 11.6516
274 3 8.72862 6.25122 12.4228
109 2 4.22546 5.80169 16.5019
29 4 6.32946 3.06936 13.2078
229 3 7.29013 2.2433 14.1916
240 3 5.22619 4.10938 13.639
329 1 4.69804 6.31481 15.5287
332 2 5.87423 6.03205 15.2999
258 3 9.50477 1.24307 15.2934
170 2 8.97504 4.07315 14.5272
325 2 9.43967 6.43929 16.2402
270 3 9.63852 4.86059 14.6458
27 4 7.94851 0.895627 14.6848
81 1 11.7076 3.05939 15.5228
338 2 11.2839 5.58127 12.7881
167 2 9.10582 1.22386 11.195
48 4 9.87674 2.67587 10.6369
259 3 11.2275 2.38124 9.70106
324 2 10.0136 4.25227 17.6868
36 4 3.98331 5.13307 14.2861
271 3 9.6612 3.85514 11.7533
101 2 10.937 5.63924 16.4727
166 2 12.2457 2.54476 14.6086
55 4 9.69836 5.08057 12.7492
47 4 10.8807 1.51208 16.0284
172 2 10.8055 3.82361 15.1239
323 1 10.5564 5.42399 17.5284
293 1 5.59336 2.22896 17.231
171 2 12.3766 3.47611 16.3154
265 3 9.95307 6.31286 8.83805
164 2 10.7409 2.29931 17.7421
155 2 1.21928 12.3136 0.121611
57 4 9.84775 8.68227 0.836958
279 3 1.81261 11.2323 4.99659
58 4 3.02195 11.1753 3.9321
277 3 2.86211 10.161 2.66373
278 3 3.0013 12.9678 3.3247
42 4 1.49728 11.2509 6.53932
92 1 2.90727 11.6611 7.59727
126 2 2.45377 12.3261 8.44723