ITEM: TIMESTEP
0
ITEM: NUMBER OF ATOMS
350
ITEM: BOX BOUNDS xy xz yz pp pp pp
-9.2171454933018477e+00 1.5608457727936326e+01 -7.7490666531515799e+00
4.0119664078240458e-01 1.3960526826327030e+01 -1.5378211122139989e+00
-1.4695996115413124e-01 1.7785259961154189e+01 1.4232346710932497e-01
ITEM: ATOMS id type x y z
207 3 -0.430339 1.37028 4.84477
304 3 -0.427242 1.84687 2.23779
74 1 0.720736 5.30318 3.7089
150 2 1.16097 4.37668 4.19584
151 2 1.16262 5.51457 2.6416
152 2 -0.458886 5.32817 3.75285
224 3 1.99632 2.91392 4.95949
299 4 -0.324061 2.65115 0.884549
300 1 1.35093 3.28383 1.39456
301 2 1.77932 3.50965 0.346063
237 3 2.24364 6.24728 5.65498
12 4 -1.99835 5.37598 0.646705
340 2 -1.54966 3.54842 3.93448
70 1 2.87096 1.00339 3.06342
4 2 -1.96236 4.82632 5.11362
31 4 0.984771 6.80863 4.79856
314 3 -2.77575 5.89034 2.32916
210 3 -1.31253 3.8666 0.779656
97 2 -3.06847 6.38312 5.53623
32 4 2.49596 6.99621 0.572415
302 2 1.92263 2.44605 2.02263
232 3 3.11338 5.72218 1.66625
303 2 1.18785 4.32282 2.03182
141 2 1.77913 1.0197 3.12029
140 2 3.28268 1.02922 1.99742
9 4 0.736756 2.37284 5.91253
213 3 -1.45537 5.83244 7.54494
13 4 -0.744834 4.31493 7.86017
208 3 1.40034 1.40617 7.01586
212 3 -0.0187466 3.60013 6.53352
233 3 4.26186 2.7381 8.53139
227 3 6.44939 0.935936 6.98863
243 3 -1.17232 6.54634 -0.0459508
23 4 3.38025 2.41911 4.31045
230 3 3.87605 3.59733 3.33251
30 4 4.36526 4.66477 2.07891
108 2 4.5415 2.54692 1.15778
226 3 4.51647 1.71747 5.2384
348 2 5.91787 1.28464 1.72459
71 1 4.7846 3.65705 0.590903
211 3 -1.96772 3.35609 8.19616
33 4 4.95799 4.01518 7.80004
26 4 6.06876 2.02572 5.82895
238 3 4.10921 5.28296 7.4213
15 4 -1.85268 6.99455 6.57609
154 2 6.88964 1.41606 0.202631
35 4 3.68429 6.39611 6.20093
36 4 3.98666 5.00516 14.3087
292 1 3.9902 0.791191 14.5089
34 4 0.572193 6.02072 9.98956
236 3 -0.988852 6.38429 10.687
244 3 1.72102 5.90857 11.0659
145 2 1.66967 1.73953 9.06481
66 1 -0.440842 2.33416 11.362
128 2 -0.224951 3.18293 10.621
72 1 2.61685 1.88163 10.7479
17 4 -2.31987 7.03765 11.248
107 2 1.52026 2.01034 10.9841
129 2 -0.27862 1.31548 10.8751
310 2 4.99491 1.64606 16.0406
242 3 -0.126017 6.46724 17.469
305 3 -1.58773 1.87466 17.2943
235 3 0.225424 4.43272 9.26767
130 2 0.914918 2.46105 12.5883
214 3 -0.76851 4.46942 13.5704
16 4 -1.39155 5.90512 13.9203
6 4 -0.458154 1.63909 16.122
228 3 0.913133 2.51923 16.3146
28 4 2.3074 3.29523 16.4507
216 3 -2.76359 6.37123 12.9181
10 4 -0.623135 2.92112 13.3509
209 3 -0.95808 1.88257 14.4104
241 3 -1.99113 5.88574 15.3929
37 4 -1.55575 6.76831 16.7243
98 2 -0.0557395 7.0241 13.7816
239 3 3.00344 4.08853 15.3083
38 4 2.61859 6.87636 12.1615
297 2 3.79788 1.87822 14.7892
143 2 3.52617 2.19669 17.0306
146 2 3.09776 2.86135 10.9485
25 4 3.45164 1.50682 9.08164
206 2 -1.71289 2.29171 11.7025
144 2 3.16482 1.05207 11.3808
245 3 3.1297 5.91096 13.3517
149 2 6.2403 1.26547 11.6409
104 2 4.7131 2.4751 12.0468
295 2 5.4671 0.73718 13.7302
106 2 1.94398 4.6602 17.5763
328 2 2.41694 7.06905 16.6628
139 2 -4.42099 13.5071 3.60326
219 3 -4.85364 11.4138 4.3612
186 2 -5.04742 11.6457 0.423838
99 2 -4.45672 13.1688 1.27491
86 1 -4.1943 12.1377 0.900986
18 4 -4.99954 11.019 2.76695
349 2 -5.89725 12.2027 1.8982
133 2 -3.7796 8.20304 0.429951
185 2 -3.20096 11.4063 2.17168
122 2 -3.29524 7.50939 2.28726
218 3 -2.45814 8.25439 7.34734
231 3 -0.648695 7.32553 5.67635
20 4 -4.56082 11.5755 5.93462
7 4 -6.81139 13.2163 7.43366
19 4 -3.49471 9.50748 7.84101
220 3 -4.02341 10.1305 6.38756
221 3 -5.81916 12.193 6.6275
100 2 -3.34908 12.7026 6.21814
252 3 0.730627 9.42275 7.09016
313 2 -2.8409 9.89879 4.0188
162 2 -0.449514 13.2873 0.960941
309 2 -0.794052 8.00565 2.80715
115 2 -1.32243 12.9157 2.65028
306 4 -2.26597 8.91351 2.35952
308 1 -1.22355 9.57251 3.79667
315 3 -2.14452 9.7029 0.992533
312 2 -0.926552 8.6107 4.53312
39 4 1.62089 9.05334 2.56367
153 2 0.1051 9.89622 2.42019
246 3 1.31958 7.94587 3.68876
311 2 -0.535709 10.4457 4.11169
247 3 1.81823 8.32991 1.20909
158 2 2.49737 8.34749 7.09415
345 2 -0.302264 11.8038 0.0209236
110 2 -0.41538 9.534 7.17114
249 3 -2.73826 10.7086 8.60761
78 1 -0.897022 13.7715 1.92934
24 4 -0.461413 13.4012 7.88767
181 2 -4.79872 8.56399 4.74557
253 3 0.23426 12.3506 6.86701
217 3 -4.75014 8.82264 8.65514
112 2 -1.45967 8.42863 16.2433
75 1 -1.18904 12.5783 17.2186
318 3 -6.94811 13.05 8.9417
294 2 -4.55936 13.869 13.8252
317 2 -6.23316 11.5431 11.0227
113 2 -3.40018 9.16012 12.266
103 2 -5.68506 9.99802 12.156
222 3 -5.45279 11.0643 12.3255
135 2 -5.4057 8.36472 14.0113
283 3 1.52845 9.92128 9.74542
102 2 -4.25099 8.38628 16.7168
344 2 -3.80786 13.5154 16.1127
320 1 -7.84716 13.2054 16.3821
321 2 -6.6976 13.2923 16.5138
335 2 -4.41976 10.3071 16.0357
22 4 -3.82585 10.8163 12.4607
68 1 -5.81669 9.44655 17.0225
43 4 1.19828 9.43387 13.7493
223 3 -3.34978 11.4685 13.9966
77 1 0.114604 8.47864 15.1019
251 3 -2.93208 11.7522 11.0866
41 4 -2.66294 12.1535 9.34232
111 2 -0.840365 9.03029 9.76793
250 3 -1.2128 12.8124 9.2179
40 4 0.629834 8.82799 8.94922
69 1 -1.58475 8.80382 11.5906
136 2 -0.417953 8.65263 11.4038
248 3 0.986472 7.31231 9.08718
138 2 -2.1015 9.64185 11.0182
114 2 -1.49433 12.0524 11.6475
254 3 1.77033 8.18687 12.8932
255 3 0.0700313 10.5379 13.1397
291 4 -2.71736 12.6504 14.7589
307 4 -4.61578 10.8199 17.7682
296 2 -1.29046 12.0389 15.8095
159 2 -0.917687 8.37265 14.5167
137 2 -1.74196 8.87513 12.7084
160 2 0.0187349 9.25002 16.0413
225 3 -3.81535 13.3958 9.09712
161 2 0.695813 7.56021 15.3626
334 2 -1.66739 13.6929 17.1956
322 2 -8.16622 12.7732 15.3493
44 4 0.00784721 11.9243 12.4317
215 3 -3.61674 7.28711 10.4756
134 2 -4.27911 12.6403 17.7497
341 2 -8.33074 12.6971 17.2507
257 3 7.062 2.04288 4.6274
262 3 5.66118 5.51808 2.41718
46 4 7.63184 1.63644 3.11833
260 3 8.79982 2.38856 2.25072
263 3 4.80669 6.71079 5.00473
264 3 9.0057 4.72521 0.940667
51 4 8.32984 6.07016 0.574144
330 2 6.88424 6.22949 1.46628
50 4 5.85949 6.84353 3.76322
54 4 9.12051 6.81236 4.76787
79 1 10.425 2.407 -0.0858107
336 2 8.62612 0.954822 8.58114
234 3 5.9925 3.58114 6.66358
1 4 14.3651 1.9133 3.58815
119 2 7.67341 5.00794 8.1323
95 2 11.7198 4.92934 8.23352
52 4 9.23641 5.45042 7.64454
269 3 9.06606 6.13467 6.22066
2 1 12.518 4.52798 4.81975
268 3 7.51246 6.95514 4.09848
3 2 12.4107 3.36693 4.51603
49 4 9.75624 3.43036 1.46705
267 3 10.4567 5.96814 3.88892
11 4 11.6779 5.09518 3.11748
261 3 11.2311 3.73814 2.43061
131 2 11.3777 2.38527 7.00706
5 3 12.8165 1.16507 3.5563
337 2 9.98939 1.39354 0.117456
117 2 11.4183 1.37027 1.21673
8 4 12.0296 3.16024 8.41525
132 2 10.5043 4.00012 5.97545
342 2 11.8024 4.8182 5.63298
120 2 9.54082 3.23544 7.58611
67 1 10.4551 4.09585 7.13248
142 2 5.89656 3.79167 0.289136
343 2 11.4223 6.10286 -0.105471
82 1 6.12974 4.50819 9.35902
173 2 7.08918 3.74426 9.39367
174 2 6.48779 5.57984 9.15003
121 2 4.9828 6.09899 9.42954
175 2 5.34942 4.35629 10.177
80 1 8.58699 2.39129 9.73264
168 2 7.63204 2.43388 10.4235
169 2 8.75302 3.35331 9.07522
298 2 6.64059 2.44096 16.902
73 1 5.87793 2.3353 11.5564
346 2 4.95713 3.2112 17.2084
165 2 8.28841 3.09711 17.0371
331 2 6.06827 5.99038 16.9349
148 2 7.1446 3.85579 11.5533
274 3 8.85129 6.11612 12.3055
109 2 4.34988 5.56191 16.586
29 4 6.5388 3.26119 13.0983
229 3 7.34073 2.17685 13.8786
240 3 5.43933 4.21759 13.6844
329 1 4.54116 6.27865 15.6973
332 2 5.63112 6.35275 15.374
258 3 9.42329 1.16579 15.2697
170 2 8.73185 4.10479 14.4508
325 2 9.40977 6.48597 16.2919
270 3 9.65965 4.5578 14.6178
27 4 8.00472 0.925121 14.6042
81 1 11.7488 2.8962 15.6318
338 2 11.3985 5.54021 13.0012
167 2 9.19291 1.05153 11.0552
48 4 10.0484 2.55888 10.7705
259 3 11.4065 2.56751 9.90691
324 2 9.90179 4.24024 17.5411
147 2 5.9187 2.74488 10.5285
271 3 9.90459 3.69936 11.8655
101 2 10.8707 5.44638 16.3536
166 2 12.3534 2.19154 14.8088
55 4 9.81953 4.90054 12.8695
47 4 10.8523 1.33244 16.1099
172 2 10.9979 3.60134 15.1208
323 1 10.4963 5.32571 17.4534
293 1 5.48266 2.23043 17.0822
171 2 12.4437 3.43925 16.3107
164 2 10.4786 2.5387 17.5442
105 2 7.05258 0.569449 15.9441
265 3 9.8682 6.30194 8.85412
163 2 0.310778 13.3995 3.38869
57 4 9.97059 8.73712 0.726189
279 3 1.91987 11.5008 4.99384
58 4 3.12569 11.3507 3.92454
277 3 2.79455 10.1797 2.93337
278 3 3.11362 12.8151 3.07122
42 4 1.39181 11.3741 6.42769
92 1 2.75132 11.8106 7.55812
126 2 2.17639 12.4992 8.38444
203 2 3.08907 10.7986 7.9634
276 3 10.047 9.47672 2.19366
275 3 9.10684 7.36233 0.662708
45 4 4.32117 13.7161 2.45408
189 2 7.44111 12.3273 4.5826
59 4 6.42154 11.5905 1.62345
83 1 5.39596 8.2452 2.67829
125 2 4.89087 7.94237 1.5152
176 2 5.33877 10.4133 0.847662
177 2 6.42963 8.7505 2.58761
178 2 7.01199 10.6404 3.1786
280 3 5.35284 12.6782 1.84564
285 3 4.48944 10.7803 4.71458
187 2 7.96582 10.4895 5.09446
87 1 7.2546 11.147 4.49858
188 2 4.72269 8.82593 3.4471
289 3 7.68765 11.6657 0.551793
200 2 3.66491 10.7739 0.860963
123 2 7.9224 12.5844 0.938572
62 4 5.76348 11.2185 5.57554
350 2 4.36537 13.262 5.51861
88 1 5.2863 13.2237 6.09173
201 2 3.70458 12.3611 6.97921
156 2 4.08095 8.80892 6.13618
94 2 7.13143 13.0211 6.81809
157 2 4.19001 8.38566 7.95663
191 2 5.19454 13.2895 7.15385
76 1 3.62199 8.16771 6.98145
182 2 7.44709 7.37155 8.37678
286 3 6.16551 10.423 6.95881
85 1 7.68417 8.25731 7.67578
183 2 8.77803 8.71526 7.74695
60 4 6.62898 9.60735 8.33997
184 2 7.31403 8.01334 6.61664
180 2 9.05057 9.17079 4.24438
84 1 9.6862 8.56728 5.07575
179 2 9.59902 9.00083 6.06791
347 2 5.1364 7.16343 0.165721
190 2 6.15374 13.8422 5.63676
124 2 8.04107 10.0282 17.2759
61 4 2.20919 11.1002 10.7058
290 3 5.84016 10.6759 12.8176
284 3 1.22107 12.2083 11.3406
326 1 2.6304 7.59515 17.6579
316 4 7.96184 11.994 10.0031
91 1 2.22945 10.8094 17.6796
199 2 1.82479 12.1745 16.9757
256 3 0.198298 13.0055 13.5828
288 3 2.29927 10.1874 14.6894
273 3 6.78652 7.25259 11.0002
195 2 3.35094 12.9561 14.5982
202 2 3.40664 10.3906 12.0986
14 4 10.4596 7.64072 9.70109
56 4 8.21934 7.46666 11.7154
197 2 4.98062 13.6758 14.9817
266 3 3.98609 7.51146 11.3591
53 4 5.29836 7.46646 10.3732
127 2 3.5369 12.2869 9.8518
319 3 6.78142 12.46 10.9744
281 3 5.27748 8.61042 9.33065
282 3 7.59992 10.6401 9.2692
205 2 4.65653 10.1971 10.1648
93 1 4.22826 11.0878 10.7497
65 4 5.57098 11.84 11.7731
64 4 3.10094 11.0911 15.7852
272 3 9.37944 8.19171 10.8095
204 2 4.1014 12.7136 11.8979
116 2 3.8418 10.0923 17.1036
333 2 3.69985 13.2077 17.0312
96 2 8.39583 9.0032 15.8479
287 3 7.89654 8.67579 12.9507
90 1 4.21132 12.978 15.3989
196 2 5.01875 11.5145 15.3227
339 2 5.21668 8.09312 13.6683
89 1 6.07439 8.9035 15.2224
192 2 6.5989 9.92286 15.6021
193 2 6.5002 7.9533 15.6741
194 2 4.89675 9.00592 15.1753
63 4 6.50073 9.31941 13.4027
198 2 1.42163 10.1046 17.4446
155 2 -0.105996 12.556 17.566
327 2 2.49514 8.83412 17.6205
21 4 9.90293 8.03494 15.6916
118 2 4.02405 7.32246 15.7858
ITEM: TIMESTEP
100
ITEM: NUMBER OF ATOMS
350
ITEM: BOX BOUNDS xy xz yz pp pp pp
-9.2217889371845310e+00 1.5616227085664262e+01 -7.7529411864781554e+00
4.0119664078240458e-01 1.3960526826327030e+01 -1.5385900227701059e+00
-1.4695996115413124e-01 1.7785259961154189e+01 1.4232346710932497e-01
ITEM: ATOMS id type x y z
207 3 -0.444867 1.56839 4.93564
304 3 -0.565104 1.68628 2.14767
74 1 0.437499 5.44476 3.57176
150 2 1.15671 4.56489 3.97483
151 2 0.673085 5.68948 2.49466
152 2 -0.664287 5.31919 3.8033
224 3 2.06012 2.82427 5.07793
299 4 -0.152646 2.59269 0.898676
300 1 1.65584 3.1984 1.24785
301 2 2.27077 3.30313 0.291232
237 3 2.21323 6.3491 5.80282
12 4 -2.11398 5.37113 0.615257
340 2 -1.68494 3.56684 3.8841
70 1 2.80007 0.969439 3.17894
4 2 -1.8565 4.79683 5.10205
31 4 1.01737 6.77602 4.74297
314 3 -2.72933 6.02457 2.3657
210 3 -1.2145 4.00679 0.742704
97 2 -3.14239 6.47225 5.58369
32 4 2.45852 6.90283 0.539842
302 2 2.08122 2.48557 1.97278
232 3 2.93899 5.8269 1.6862
303 2 1.39752 4.18297 1.75017
141 2 1.65351 0.944028 3.10244
140 2 3.23699 0.895998 2.07969
9 4 0.684896 2.41994 5.98529
213 3 -1.49414 5.69966 7.50684
13 4 -0.720263 4.32873 7.84108
208 3 1.15098 1.34869 7.08748
212 3 0.0690928 3.79496 6.4914
233 3 4.25983 2.5961 8.5187
227 3 6.65896 1.07345 6.83789
243 3 -1.22817 6.51654 0.0118103
23 4 3.4162 2.40947 4.36238
230 3 3.83143 3.55034 3.1409
30 4 4.25338 4.80443 2.18371
108 2 4.38814 2.78681 1.13015
226 3 4.50158 1.67259 5.26071
348 2 5.85402 1.34678 1.67169
71 1 4.72102 3.81385 0.673297
211 3 -2.04089 3.11667 8.1583
33 4 5.05934 3.96005 7.92622
26 4 6.03537 2.04281 5.79823
238 3 4.24567 5.2181 7.47751
15 4 -1.79703 6.95248 6.60224
154 2 6.97552 1.55468 0.275294
35 4 3.81221 6.3879 6.34483
147 2 5.39047 2.91879 10.6724
292 1 4.12711 0.867671 14.6332
34 4 0.584357 5.97532 10.0047
236 3 -0.920447 6.48513 10.4737
244 3 1.64344 6.06182 11.1994
145 2 1.68887 1.59905 9.37778
66 1 -0.224931 2.30024 11.3631
128 2 -0.000863576 3.12174 10.5982
72 1 2.92492 1.83218 10.8073
17 4 -2.13536 7.03651 11.2209
107 2 1.71357 2.02881 11.0922
129 2 -0.0492023 1.30389 11.0041
310 2 4.97899 1.68341 16.2185
242 3 -0.0179824 6.35499 17.2544
305 3 -1.49907 2.0094 17.4462
235 3 0.334983 4.38584 9.22711
130 2 1.01075 2.52774 12.5424
214 3 -0.777306 4.42641 13.4608
16 4 -1.45903 5.78328 13.9898
6 4 -0.514399 1.53609 16.1277
228 3 1.10227 2.52204 16.3388
28 4 2.38589 3.39812 16.4672
216 3 -2.6477 6.2242 12.8848
10 4 -0.710699 2.89893 13.1793
209 3 -1.08353 1.72001 14.6743
241 3 -1.85861 5.89643 15.5101
37 4 -1.51999 6.679 16.8022
98 2 -0.11977 6.92147 13.9229
239 3 3.02032 4.11216 15.2416
38 4 2.73361 7.01899 12.03
297 2 4.23052 1.90477 14.9612
143 2 3.56356 2.26584 17.1305
146 2 3.51236 2.75401 10.9812
25 4 3.46078 1.33666 9.07989
206 2 -1.89987 2.30767 11.7746
144 2 3.3322 0.861625 11.3668
245 3 3.31717 6.03833 13.2494
106 2 2.03811 4.81847 17.5687
104 2 4.83988 1.78674 12.2921
328 2 2.50141 7.1855 16.8092
294 2 3.28216 0.715691 13.9189
248 3 1.21458 7.16483 8.87051
149 2 6.36349 1.34327 11.1246
73 1 5.78107 2.22938 11.5467
215 3 -3.48818 7.17446 10.4131
139 2 -4.56627 13.5336 3.79852
219 3 -4.93963 11.274 4.35275
186 2 -5.18632 11.6682 0.382053
99 2 -4.5238 13.3387 1.13663
86 1 -4.24948 12.1521 0.914878
18 4 -5.06295 11.0555 2.71505
349 2 -5.96049 12.3146 1.97579
133 2 -3.81516 8.1074 0.382462
185 2 -3.34901 11.5176 2.28074
122 2 -3.27661 7.46179 2.02828
218 3 -2.31604 8.25528 7.38463
231 3 -0.723471 7.17456 5.51063
20 4 -4.60885 11.5056 5.87669
7 4 -6.79248 13.1082 7.45155
19 4 -3.46349 9.47473 7.86754
220 3 -4.02789 10.1965 6.53705
221 3 -5.81857 12.179 6.64712
100 2 -3.3806 12.6629 5.85556
252 3 0.733974 9.3052 7.18709
313 2 -2.85713 9.92535 3.93268
162 2 -0.671857 13.304 1.00503
309 2 -0.723229 8.03494 2.73958
115 2 -1.68292 13.1291 2.64334
306 4 -2.26188 8.91907 2.31771
308 1 -1.2816 9.48072 3.8299
315 3 -2.28294 9.92139 1.02896
312 2 -1.02045 8.53837 4.59824
39 4 1.71469 8.99378 2.52885
153 2 0.137683 9.70631 2.48048
246 3 1.61183 7.94391 3.74186
311 2 -0.649202 10.3746 3.94148
247 3 1.97712 8.30964 1.11756
217 3 -4.75016 8.79814 8.64136
345 2 -0.412034 11.9528 0.022366
110 2 -0.352543 9.46969 7.30966
249 3 -2.82379 10.6584 8.73923
78 1 -1.15171 13.8254 1.98322
24 4 -0.460919 13.4855 7.86984
181 2 -4.63722 8.5699 4.28777
253 3 0.238622 12.267 7.0602
307 4 -3.17691 10.7552 -0.0881155
112 2 -1.38462 8.34986 16.408
75 1 -1.31739 12.6559 17.2819
318 3 -6.94564 12.9408 8.98692
134 2 -4.29652 12.6169 17.725
317 2 -6.47285 11.6276 11.2048
113 2 -3.37725 9.14379 12.2144
103 2 -5.57048 10.05 12.1759
222 3 -5.51084 11.1427 12.4023
135 2 -5.01565 8.28282 14.1589
161 2 0.72819 7.5485 15.3771
102 2 -4.36273 8.33508 16.7783
344 2 -4.16018 13.2493 15.979
320 1 -7.87362 13.1499 16.2576
321 2 -6.73496 13.152 16.3737
335 2 -4.7334 10.2947 16.1383
22 4 -3.82881 10.8393 12.4112
68 1 -5.96324 9.36913 16.9996
43 4 1.19021 9.44371 13.7056
223 3 -3.449 11.2834 13.9368
77 1 0.140887 8.52857 15.0803
251 3 -2.80359 11.9825 11.1041
41 4 -2.69323 12.1022 9.42203
111 2 -0.813265 8.81872 9.76735
250 3 -1.33192 12.8594 9.06556
40 4 0.715819 8.72624 9.01885
69 1 -1.52167 8.86125 11.6346
136 2 -0.3933 8.60016 11.4207
334 2 -1.65099 13.8006 17.3285
138 2 -1.71304 9.93105 11.1473
114 2 -1.47378 11.9926 11.765
254 3 1.77966 8.37936 12.7263
255 3 0.0421821 10.4557 13.0045
291 4 -2.88927 12.5132 14.7685
44 4 0.0822676 11.9955 12.5238
296 2 -1.37395 12.0406 15.7667
159 2 -0.805695 8.48326 14.5086
137 2 -1.79777 8.78113 12.7884
160 2 0.184756 9.38353 15.8993
225 3 -3.77374 13.2814 8.90532
295 2 -2.18907 13.8323 13.6584
283 3 1.58122 9.82365 9.73542
322 2 -8.20884 12.7966 15.1739
257 3 7.01906 1.98865 4.32238
262 3 5.69692 5.47443 2.55203
46 4 7.68824 1.52349 3.02119
260 3 8.72189 2.53652 2.20298
263 3 5.03274 6.59976 5.14161
264 3 9.18872 4.73047 0.839409
51 4 8.32446 5.97054 0.602795
330 2 6.93702 5.94069 1.56944
50 4 5.97676 6.8448 3.87154
54 4 9.16197 6.78451 4.63367
79 1 10.4377 2.37679 0.0282245
336 2 8.60437 0.907881 8.69933
234 3 6.10708 3.50914 6.6751
1 4 14.2973 1.93826 3.61919
119 2 7.68388 4.85488 7.98801
95 2 11.5809 4.99674 8.27872
52 4 9.20634 5.50003 7.58467
269 3 9.19651 6.17064 6.20939
2 1 12.5766 4.61134 4.94163
268 3 7.51541 6.94503 4.25545
3 2 12.3668 3.45767 4.71197
49 4 9.81692 3.49337 1.52177
267 3 10.3147 6.05886 3.71061
11 4 11.7081 5.19663 3.25835
261 3 11.2733 3.85937 2.52031
131 2 11.3572 2.3982 7.07933
5 3 12.7845 1.21698 3.6846
337 2 9.91061 1.42391 0.173789
117 2 11.3144 1.30349 1.40911
8 4 11.9842 3.16583 8.46844
132 2 10.8229 4.11107 6.13428
342 2 11.8824 4.91456 5.86653
120 2 9.51095 3.25065 7.45229
67 1 10.4255 4.12337 7.22422
142 2 5.81437 3.9577 0.381198
164 2 12.0597 2.16522 -0.101895
82 1 6.20877 4.61171 9.32125
173 2 7.0803 3.73147 9.35671
174 2 6.5476 5.63891 9.03174
121 2 4.96868 6.17494 9.3886
175 2 5.55178 4.58591 10.2713
80 1 8.37045 2.25627 9.62172
168 2 7.43974 2.22624 10.3562
169 2 8.43506 3.20251 9.01455
298 2 6.61628 2.4853 16.9747
343 2 9.69524 6.07657 17.7133
346 2 5.0628 3.35217 17.3481
165 2 8.40042 3.14792 17.1421
331 2 6.07156 6.07897 16.9905
148 2 7.03663 3.69169 11.6983
274 3 8.6331 6.2473 12.4126
109 2 4.37692 6.19222 16.7017
29 4 6.31088 3.16102 13.1965
229 3 7.40769 2.36742 13.9875
240 3 5.27461 4.15154 13.829
329 1 4.70112 6.46234 15.5902
332 2 5.84341 6.22895 15.3141
258 3 9.40729 1.15705 15.3105
170 2 8.93629 3.90709 14.2726
325 2 9.40414 6.31041 16.0296
270 3 9.4926 4.70849 14.5179
27 4 7.93447 0.979704 14.5825
81 1 11.5285 2.87395 15.587
338 2 11.4064 5.72397 12.7782
167 2 9.14808 1.08573 10.9892
48 4 9.89834 2.61749 10.6332
259 3 11.2792 2.41987 9.84424
324 2 9.98267 4.15509 17.4237
36 4 4.03124 5.13875 14.3618
271 3 9.80248 3.75904 11.7319
101 2 10.9712 5.58744 16.3479
166 2 12.1696 2.34568 14.7006
55 4 9.79097 5.06406 12.8297
47 4 10.8184 1.3284 16.1095
172 2 10.7002 3.6568 15.1296
323 1 10.4441 5.30853 17.3727
293 1 5.53975 2.32785 17.1957
171 2 12.261 3.32162 16.3951
265 3 9.76528 6.36285 8.84523
105 2 6.92882 0.590362 15.9077
163 2 0.464172 13.2319 2.93475
57 4 9.96937 8.60218 0.72803
279 3 1.90467 11.3567 5.09521
58 4 2.98215 11.3079 3.89606
277 3 2.76275 10.1176 2.75485
278 3 3.06666 12.7073 3.16919
42 4 1.34552 11.3062 6.55405
92 1 2.80173 11.6967 7.56316
126 2 2.24023 12.4492 8.3344
203 2 3.17859 10.6797 8.06311
276 3 10.0308 9.60049 1.98404
275 3 9.09426 7.33761 0.68437
45 4 4.32797 13.7076 2.5508
189 2 7.45811 12.5228 4.711
59 4 6.42466 11.5643 1.42574
83 1 5.43816 8.25182 2.80908
125 2 4.99657 7.98332 1.70425
176 2 5.54858 10.2101 0.587809
177 2 6.42548 8.8297 2.72335
178 2 6.83238 10.7945 3.07698
280 3 5.2288 12.6131 1.69124
285 3 4.60389 10.8575 4.55414
187 2 8.13025 10.7527 5.14962
87 1 7.32851 11.4127 4.60006
188 2 4.66509 8.70203 3.55267
289 3 7.75544 11.8078 0.545105
200 2 3.90185 10.7398 0.712873
123 2 7.92064 12.687 1.14306
62 4 5.82083 11.1285 5.51283
350 2 4.30538 13.3098 5.87403
88 1 5.38476 13.0646 6.23633
201 2 3.72504 12.187 7.04947
156 2 4.58177 8.71798 6.33083
94 2 7.22963 12.7596 6.7972
157 2 4.3404 8.05496 8.15804
191 2 5.47476 13.1108 7.39576
76 1 3.8961 8.10824 7.13213
182 2 7.3398 7.41428 8.33356
286 3 6.08158 10.296 6.93794
85 1 7.74464 8.24682 7.64786
183 2 8.80367 8.48149 7.92685
60 4 6.66295 9.63701 8.30479
184 2 7.63509 8.12868 6.49514
180 2 9.02916 9.16766 4.38518
84 1 9.88893 8.5273 4.84108
179 2 9.96455 8.67027 5.93369
158 2 2.74009 8.35298 7.07604
347 2 5.13154 7.13652 0.392838
190 2 6.17934 13.8075 5.79609
326 1 4.22643 7.51118 -0.0970536
327 2 4.22398 8.66105 -0.12296
124 2 7.97795 9.94656 17.1976
61 4 2.13158 11.0128 10.7058
290 3 5.93726 10.7549 12.9277
284 3 1.19568 12.0977 11.4441
341 2 7.11138 12.6301 17.1928
316 4 7.88252 11.9266 9.98489
91 1 2.40388 10.7812 17.5497
199 2 2.21375 12.265 17.0504
256 3 0.146604 13.2426 13.5566
288 3 2.3494 10.4846 14.5386
273 3 6.7046 7.34432 10.9544
195 2 3.4385 13.0247 14.4719
202 2 3.26651 10.3371 12.0119
14 4 10.5876 7.6719 9.72971
56 4 8.11039 7.55196 11.7148
197 2 4.99973 13.8054 15.0166
266 3 4.1136 7.53783 11.4414
53 4 5.27713 7.54665 10.3831
127 2 3.53114 12.3494 9.82581
319 3 6.45081 12.5985 10.8042
281 3 5.41529 8.85734 9.49316
282 3 7.53931 10.555 9.25523
205 2 4.61524 10.3843 10.206
93 1 4.11816 11.327 10.7548
65 4 5.54387 11.8602 11.8421
64 4 3.25641 11.1156 15.6491
272 3 9.38479 8.11893 10.7522
204 2 4.04031 12.7111 12.1414
116 2 3.83441 9.85442 16.8506
333 2 3.7868 13.1827 16.9565
96 2 8.44955 9.16661 15.4837
287 3 7.78443 8.66495 12.9463
90 1 4.2494 13.0003 15.3266
196 2 5.11456 11.5536 15.1413
339 2 5.09758 8.20268 13.7616
89 1 5.98171 8.9462 15.302
192 2 6.58005 10.1174 15.5545
193 2 6.59043 8.09401 15.7723
194 2 5.00177 8.92655 15.8403
63 4 6.39744 9.35247 13.4634
198 2 1.49836 10.1016 17.3106
155 2 -0.287159 12.539 17.6552
118 2 4.38019 7.49578 15.3684
21 4 9.79384 8.0011 15.6313
ITEM: TIMESTEP
200
ITEM: NUMBER OF ATOMS
350
ITEM: BOX BOUNDS xy xz yz pp pp pp
-9.2264323810672124e+00 1.5623996443392198e+01 -7.7568157198047318e+00
4.0119664078240458e-01 1.3960526826327030e+01 -1.5393589333262128e+00
-1.4695996115413124e-01 1.7785259961154189e+01 1.4232346710932497e-01
ITEM: ATOMS id type x y z
207 3 -0.423903 1.59731 4.92641
304 3 -0.535819 1.80322 2.29835
74 1 0.523966 5.43691 3.54296
150 2 1.11364 4.58219 4.12797
151 2 0.774397 5.55743 2.42874
152 2 -0.606518 5.44342 3.72666
224 3 2.06311 2.64358 5.12125
299 4 -0.362429 2.56808 0.843196
300 1 1.41029 3.08075 1.25186
301 2 1.83996 3.18812 0.209435
237 3 2.3964 6.08251 5.48034
12 4 -1.95912 5.51231 0.719822
340 2 -1.82047 3.56646 3.92694
70 1 2.94048 0.858398 3.20132
4 2 -2.13697 4.93395 5.07018
31 4 1.06896 6.82813 4.65815
314 3 -2.80325 6.11652 2.35282
210 3 -1.36286 3.97599 0.828527
97 2 -2.96927 6.48179 5.51776
32 4 2.61079 6.79596 0.699949
302 2 1.98045 2.22894 1.99545
232 3 3.20857 5.67898 1.77249
303 2 1.3702 4.0912 1.78903
141 2 1.81737 0.696089 3.47944
140 2 3.14471 0.944512 2.03358
9 4 0.742476 2.46135 6.04807
213 3 -1.52533 5.67391 7.55411
13 4 -0.754264 4.31904 7.92231
208 3 1.15983 1.45894 7.21549
212 3 -0.00394799 3.74332 6.5528
233 3 4.38822 2.63555 8.43652
227 3 6.64629 0.850951 6.8802
243 3 -0.953852 6.55719 -0.0199492
23 4 3.40465 2.3683 4.37166
230 3 3.93296 3.52139 3.38479
30 4 4.33009 4.55572 2.18177
108 2 4.53423 2.57465 0.899617
226 3 4.62842 1.81709 5.28828
348 2 5.79598 1.62085 1.81454
71 1 4.67525 3.62422 0.567326
211 3 -1.91309 3.16202 8.33571
33 4 5.07992 4.03812 7.81779
26 4 6.10773 1.95889 5.89362
238 3 4.17918 5.28116 7.42473
15 4 -1.74568 6.91981 6.57379
154 2 6.8048 1.4749 0.255429
78 1 6.45292 0.429544 2.00593
35 4 3.8473 6.41513 6.22385
142 2 5.72818 3.89132 0.175489
106 2 3.32558 4.32676 -0.0970326
147 2 5.56149 2.28021 10.6601
292 1 4.11353 0.769794 14.7756
34 4 0.685769 6.00872 10.0125
236 3 -0.859961 6.35598 10.8477
244 3 1.87882 5.99134 11.1631
145 2 1.80597 1.74 9.16771
66 1 -0.284582 2.39617 11.3456
128 2 0.105531 3.18733 10.5752
72 1 2.88947 1.70243 10.7789
17 4 -2.22724 6.93299 11.235
107 2 1.6261 1.97882 10.9968
129 2 -0.0940297 1.40767 10.9202
310 2 5.08259 1.62439 16.2409
242 3 0.0638039 6.17698 17.3604
305 3 -1.66944 1.86733 17.3605
235 3 0.463931 4.54407 9.36683
130 2 0.947515 2.59661 12.5831
214 3 -0.95155 4.3942 13.561
16 4 -1.51509 5.80236 13.9262
6 4 -0.387363 1.55577 15.9745
228 3 1.04677 2.37732 16.1351
28 4 2.3081 3.3721 16.4278
216 3 -2.73333 6.24376 12.8619
10 4 -0.807709 2.80551 13.2494
209 3 -1.10704 1.67185 14.3134
241 3 -1.87143 5.96602 15.4965
37 4 -1.36703 6.64929 16.7896
98 2 -0.266284 6.92575 13.7597
239 3 3.04409 4.21258 15.3325
38 4 2.7183 7.09385 12.0778
297 2 4.21914 1.88708 15.0234
143 2 3.60811 2.38046 17.0553
146 2 3.56625 2.60014 11.1429
25 4 3.5612 1.39044 9.01701
206 2 -1.88439 2.47645 11.5754
144 2 3.20433 0.698583 11.223
245 3 3.39275 6.14455 13.2473
215 3 -3.62221 7.11473 10.5061
104 2 4.75738 1.68404 12.4829
73 1 5.85126 1.92526 11.6705
294 2 3.43175 0.639026 13.8743
328 2 2.53245 7.15657 16.8076
139 2 -4.11597 13.5562 3.64838
219 3 -4.95178 11.3151 4.3461
186 2 -5.25634 11.6515 0.265459
99 2 -4.69462 13.1688 1.26717
86 1 -4.3523 12.1639 0.969141
18 4 -5.17518 11.0347 2.73816
349 2 -5.97766 12.3372 2.03797
133 2 -4.02954 8.11237 0.49567
185 2 -3.37042 11.3965 2.27397
122 2 -3.59752 7.58024 2.32597
218 3 -2.39477 8.26557 7.30328
231 3 -0.487383 7.22219 5.72937
20 4 -4.60604 11.5981 5.86195
7 4 -6.82597 13.2051 7.45111
19 4 -3.4474 9.56568 7.85241
220 3 -4.05574 10.3033 6.574
221 3 -5.90641 12.276 6.58673
100 2 -3.3335 12.7102 5.89626
252 3 0.836112 9.30182 7.11535
313 2 -2.66638 9.80961 4.04887
162 2 -0.715565 13.3398 1.08915
309 2 -0.734903 8.04255 2.37972
115 2 -1.96186 13.0147 2.56188
306 4 -2.34526 8.85478 2.25785
308 1 -1.22113 9.3258 3.68103
315 3 -2.47263 9.82841 0.942976
312 2 -0.953886 8.49594 4.46485
39 4 1.6668 9.05514 2.51333
153 2 0.0743755 9.87075 2.33964
246 3 1.4302 8.07121 3.73896
311 2 -0.540636 10.2387 3.88028
247 3 1.72241 8.2431 1.20909
217 3 -4.72251 8.83296 8.62576
345 2 -0.584006 11.781 0.066682
110 2 -0.332828 9.36681 7.16386
134 2 -2.83013 12.5182 -0.0374648
158 2 2.45204 8.11293 7.21933
24 4 -0.463697 13.299 7.90943
181 2 -4.71021 8.69498 4.24831
253 3 0.227057 12.1458 7.07522
307 4 -3.24311 10.7428 -0.139679
163 2 0.120766 13.2194 3.15147
225 3 -3.86219 13.258 8.80338
249 3 -2.6687 10.6479 8.81534
112 2 -1.17874 8.35117 16.2601
75 1 -1.31746 12.5864 17.5088
318 3 -6.89045 12.9844 9.03963
248 3 1.07689 7.25441 8.99075
317 2 -6.49404 11.4494 11.2075
113 2 -3.45637 9.40691 11.9464
103 2 -5.72636 10.0535 12.1245
222 3 -5.60233 11.1579 12.3681
135 2 -4.73752 8.17404 14.3235
161 2 0.766179 7.3496 15.1653
102 2 -4.29108 8.62665 16.8366
344 2 -4.17115 13.1352 16.0888
320 1 -7.69573 13.2015 16.1347
321 2 -6.58575 13.2728 16.32
335 2 -4.91941 10.5891 16.0248
22 4 -3.85369 11.0193 12.3835
68 1 -6.01683 9.42581 17.0659
43 4 1.22205 9.53987 13.7453
223 3 -3.3566 11.4368 13.9276
77 1 0.299805 8.35729 14.9632
251 3 -3.07197 11.9102 11.2919
41 4 -2.79149 12.1786 9.323
111 2 -0.977535 8.90899 9.5441
250 3 -1.36952 12.8216 9.17037
40 4 0.655326 8.83191 8.97074
69 1 -1.60588 8.7929 11.393
136 2 -0.472581 8.76031 11.3884
334 2 -1.6027 13.6763 17.4517
138 2 -2.09093 9.62564 10.6721
114 2 -1.54809 11.9421 11.7803
254 3 1.86537 8.28844 12.7866
255 3 0.0789878 10.6169 13.1719
291 4 -2.8185 12.4715 14.9302
44 4 0.0545816 12.068 12.4934
296 2 -1.24623 11.9296 15.8831
159 2 -0.811108 8.36382 14.5277
137 2 -1.97109 8.8517 12.5156
160 2 0.511672 9.26066 15.8478
295 2 -2.17441 13.8418 13.9946
322 2 -7.9866 12.7341 15.1826
283 3 1.45878 9.8191 9.90437
21 4 -5.63664 8.04365 15.7964
341 2 -8.37539 12.7736 17.0827
257 3 7.07661 2.10175 4.5303
262 3 5.64584 5.44199 2.43084
46 4 7.56152 1.53612 3.11247
260 3 8.64974 2.44953 2.40602
263 3 4.95828 6.65822 5.11712
264 3 9.13477 4.62577 0.707436
51 4 8.36699 5.93495 0.553687
330 2 7.02192 5.81305 1.55268
50 4 5.9156 6.83428 3.75521
54 4 9.18935 6.87835 4.62377
79 1 10.5514 2.42289 -0.0670171
336 2 8.67587 0.756842 8.71726
234 3 6.22081 3.60472 6.6814
1 4 14.2217 1.9293 3.64063
119 2 7.77921 4.87213 8.16715
95 2 11.597 4.72845 8.57249
52 4 9.29944 5.46639 7.62829
269 3 9.2784 6.29002 6.27002
2 1 12.3618 4.60918 4.86812
268 3 7.61727 7.01547 3.97099
3 2 12.2076 3.46245 4.62383
49 4 9.82055 3.33382 1.48877
267 3 10.45 6.11162 3.69255
11 4 11.6127 5.14459 3.1636
261 3 11.0608 3.741 2.36869
131 2 11.35 2.39851 7.03653
5 3 12.8775 1.0889 3.52623
337 2 10.029 1.44674 -0.0170912
117 2 11.2944 1.16875 1.25853
8 4 12.1022 3.00865 8.56254
132 2 10.8234 3.99769 6.22986
342 2 11.6141 4.95608 5.67884
120 2 9.50128 3.25733 7.55863
67 1 10.4574 4.06335 7.30058
190 2 13.9358 0.540085 5.65957
343 2 11.4188 6.09487 0.172155
347 2 5.06719 7.00228 0.520103
82 1 6.15396 4.55014 9.37773
173 2 6.98694 3.63729 9.47259
174 2 6.64934 5.56939 9.32877
121 2 4.93725 6.10104 9.5379
175 2 5.2109 4.46121 10.1855
80 1 8.41259 2.24591 9.71527
168 2 7.44039 2.15228 10.3793
169 2 8.38264 3.12099 8.9454
298 2 6.67707 2.23283 17.1644
149 2 6.62243 1.07534 11.6755
346 2 5.16391 3.28167 17.2705
165 2 8.72246 3.24481 16.9781
331 2 5.94614 5.93358 17.0633
148 2 7.13118 3.38734 11.6519
274 3 8.73078 6.25311 12.4228
109 2 4.22512 5.79633 16.5007
29 4 6.33279 3.06921 13.2087
229 3 7.29531 2.24336 14.1916
240 3 5.22728 4.10853 13.6402
329 1 4.69758 6.31386 15.529
332 2 5.87355 6.0295 15.2972
258 3 9.51221 1.24427 15.2917
170 2 8.97812 4.07515 14.5272
325 2 9.44608 6.43767 16.2394
270 3 9.64495 4.86112 14.6446
27 4 7.9561 0.895903 14.6841
81 1 11.7169 3.05981 15.5227
338 2 11.2882 5.58204 12.7879
167 2 9.1139 1.22477 11.1955
48 4 9.88387 2.67695 10.6363
259 3 11.2353 2.38222 9.69929
324 2 10.022 4.25485 17.6926
36 4 3.98324 5.1333 14.2855
271 3 9.66772 3.85621 11.752
101 2 10.9416 5.63051 16.4724
166 2 12.2516 2.5433 14.6136
55 4 9.70325 5.08179 12.7485
47 4 10.889 1.51248 16.0276
172 2 10.8134 3.82521 15.1227
323 1 10.5635 5.42293 17.5289
293 1 5.5932 2.22909 17.23
171 2 12.3862 3.47491 16.3182
265 3 9.95742 6.31313 8.83788
164 2 10.7504 2.30141 17.7409
155 2 1.207 12.3181 0.121341
57 4 9.84906 8.68157 0.837084
279 3 1.80421 11.2329 4.99714
58 4 3.01434 11.1751 3.93264
277 3 2.85496 10.1611 2.66448
278 3 2.99322 12.967 3.3246
42 4 1.48797 11.2518 6.53924
92 1 2.89878 11.6631 7.59746