ITEM: TIMESTEP
0
ITEM: NUMBER OF ATOMS
274
ITEM: BOX BOUNDS xy xz yz pp pp pp
-8.3797999999999995e+00 1.8013900000000000e+01 -8.3797999999999995e+00
0.0000000000000000e+00 1.3273200000000001e+01 1.1950000000000001e+00
0.0000000000000000e+00 1.6075500000000002e+01 4.3120000000000003e-01
ITEM: ATOMS id type q x y z
25 4 1.39725 1.15073 6.32429 3.2957
119 2 0.0181839 7.37272 1.47358 5.42333
7 4 1.15317 1.09775 2.16928 5.40104
9 4 1.27071 -0.716687 4.35017 1.89906
10 4 1.58179 0.110336 4.3744 7.38102
242 1 -0.65506 3.37059 0.821538 2.96924
21 4 0.835719 5.63584 1.7375 5.70736
26 4 1.22945 5.24154 4.84378 6.84244
41 1 -0.677339 1.23904 0.555357 6.38051
44 1 -0.672656 3.67725 4.25428 1.48855
55 3 -0.813616 1.03294 1.08187 0.990016
56 3 -0.832504 -0.206031 2.19884 4.54758
58 3 -0.858196 -1.78476 3.52355 2.70593
59 3 -0.832965 -0.0969903 3.52951 0.540146
243 2 0.167963 2.80872 1.75675 2.54313
61 3 -0.77133 1.23902 3.28258 6.42084
62 3 -0.861086 -0.617392 5.23559 6.31276
74 3 -0.765744 5.34439 0.733182 7.24483
78 3 -0.912433 0.31768 5.2444 2.62628
81 3 -0.794338 5.4622 3.24149 6.04984
84 3 -0.803458 2.84821 5.69932 3.8781
85 3 -0.810281 4.48499 5.89759 5.98385
113 2 0.0171946 -2.06355 5.50147 4.21288
111 2 7.86615e-05 2.54074 1.91734 4.39198
112 2 0.0283878 -1.65241 5.40222 0.836843
265 2 0.188928 4.03789 0.205219 2.22657
118 2 0.00971683 4.4553 1.33827 4.42471
12 4 1.31994 -1.03628 6.38543 5.28621
222 3 -0.768712 6.58608 1.71235 1.33626
223 2 -0.0895004 6.41293 1.19203 4.00187
141 2 0.177437 4.49197 3.43195 1.72111
142 2 0.159784 2.76085 3.83156 0.852448
143 2 0.266116 3.33387 4.83988 2.48036
220 4 1.01923 7.09534 0.686654 2.47171
24 4 1.22205 4.71919 5.22001 0.301759
135 2 0.223446 1.18129 0.739022 7.52517
244 2 0.126956 2.82441 0.132924 3.80381
267 2 0.158348 -3.68593 6.17292 0.499302
5 4 1.33739 1.58732 2.55265 15.9898
8 4 1.27228 1.77693 2.88156 10.9513
13 4 1.30524 0.267898 5.06098 12.4662
114 2 -0.0372657 0.610185 6.25854 13.6236
20 4 1.26611 4.49246 3.17939 9.40253
23 4 1.2204 6.8203 2.84731 11.3875
262 3 -0.823151 0.586808 2.01687 14.8187
226 4 0.918314 3.44371 6.3561 14.8071
42 1 -0.659244 2.15291 1.5979 12.2972
57 3 -0.822989 0.399234 2.47484 10.1926
63 3 -0.904433 -0.436235 3.86782 13.1434
64 3 -0.829231 1.67131 4.501 12.0443
65 3 -0.86869 -2.59153 6.21934 9.80028
66 3 -0.880425 -0.476469 5.90814 11.3437
73 3 -0.819359 3.05332 2.82229 9.94344
75 3 -0.873427 5.55088 3.1055 10.5329
76 3 -0.843499 6.99198 1.41726 12.0971
266 2 0.0460357 -0.904649 4.9509 15.2835
228 2 0.0122592 2.4332 5.05683 15.1498
137 2 0.164404 3.09101 1.10636 11.6851
123 2 0.0690416 4.66213 5.79403 9.86052
229 2 -0.0344664 3.43046 6.3981 13.0305
124 2 0.0481345 3.26954 5.10463 11.7381
136 2 0.198276 2.47784 2.16228 13.2923
179 4 1.23726 7.57963 2.98754 15.9243
183 1 -0.678103 6.14327 2.12744 15.1025
99 3 -0.796607 7.81146 0.979661 8.48686
117 2 0.123623 4.83814 1.86224 8.30668
196 2 0.169932 5.4015 3.0265 14.9896
80 3 -0.779013 4.62143 4.62544 8.58512
227 3 -0.847215 4.89707 5.94015 15.2372
195 2 0.234787 6.41073 1.68941 14.1185
245 1 -0.676604 3.06508 3.17439 14.8981
246 2 0.166838 2.6963 3.75115 14.0058
247 2 0.166558 3.49848 2.13754 14.6089
248 2 0.157044 3.7222 3.79451 15.6211
138 2 0.16084 1.23593 0.933926 12.3635
82 3 -0.839627 1.00476 5.29954 8.37911
197 2 0.21434 5.78281 1.36672 15.8064
60 3 -0.819078 -0.940058 3.4049 8.23345
29 4 0.95708 3.51693 6.52084 10.8607
121 2 -0.0142108 6.81827 3.97391 12.6451
133 2 0.143504 -6.18792 12.991 6.06907
3 3 -0.782346 -5.83823 11.4972 0.77314
272 2 0.175834 0.95297 10.1067 0.210183
16 4 1.48293 -3.30886 7.98486 6.60222
17 4 1.20284 -4.54214 9.91004 4.72429
154 2 0.156581 0.49257 9.71703 7.40396
19 4 1.40483 -1.46216 12.7157 7.62945
31 4 1.2502 -1.81754 10.5783 3.07636
33 4 1.10756 0.166085 11.312 5.47376
48 1 -0.636969 -1.03638 9.17536 2.07938
49 1 -0.65018 -0.235429 9.67139 6.5074
271 2 0.171749 1.79335 10.2349 2.04476
68 3 -0.851307 -1.93357 7.54611 5.86697
149 2 0.158627 1.28288 8.52312 7.08928
70 3 -0.773366 -4.48897 8.48 5.41925
79 3 -0.851901 0.319552 6.94006 4.59096
87 3 -0.793585 1.53621 7.54824 2.07454
30 4 0.989059 2.36697 8.02567 0.889549
89 3 -0.743976 -1.82319 12.0464 2.1168
90 3 -0.834008 -3.11828 10.2369 3.88238
93 3 -0.761479 -0.364295 10.8416 4.01444
94 3 -0.845362 -0.639527 12.4739 6.21184
115 2 -0.0396964 -4.78717 11.1116 5.84554
252 2 0.226612 -4.53447 9.22921 1.78974
151 2 0.216783 0.0558559 9.46343 1.60653
152 2 0.140213 -1.91025 9.12707 1.27657
153 2 0.205482 -0.914531 8.25592 2.73079
251 1 -0.682027 -4.88121 8.78851 0.79967
155 2 0.241914 0.0480671 8.81557 5.8248
156 2 0.284362 -1.3133 9.68779 6.85818
46 1 -0.648691 2.03952 7.64131 7.45909
148 2 0.172058 3.07873 7.95904 7.80896
161 2 0.176392 -0.956483 10.1514 0.30888
47 1 -0.639914 1.89753 9.85232 0.927845
1 4 1.24659 -6.59211 12.6665 1.80096
122 2 0.0161559 2.811 7.82132 5.6373
91 3 -0.849393 -3.0501 9.34765 7.63188
28 4 1.21922 3.79692 6.68282 4.76196
69 3 -0.798194 -5.83501 9.8847 3.71497
147 2 0.200139 2.08831 6.73512 6.71592
268 2 0.15155 -3.98859 8.39143 0.176908
2 3 -0.827297 -7.44219 11.8184 2.83966
50 1 -0.672535 2.3072 10.3543 12.0506
18 4 1.20892 -2.31804 8.50229 13.0025
159 2 0.208062 1.25748 10.0739 12.1563
32 4 0.982231 -2.75035 10.3007 8.82379
35 4 1.25829 -1.20237 10.9641 14.289
128 2 0.0539448 2.81243 9.2381 13.5807
160 2 0.174998 0.999452 10.2983 14.6639
71 3 -0.832909 -2.41453 7.02217 13.7325
51 1 -0.635097 0.451305 11.1201 15.2915
162 2 0.200121 1.03861 12.134 15.2972
72 3 -0.819695 -2.16945 8.35217 11.4396
83 3 -0.792504 -0.429539 7.5749 9.31534
88 3 -0.777115 2.92419 7.68793 15.4303
92 3 -0.843794 -1.68585 11.4141 8.49578
95 3 -0.778749 4.19476 7.86687 11.5311
96 3 -0.781636 -1.15224 9.31905 13.7655
97 3 -0.812129 -1.0333 11.8259 12.9135
98 3 -0.770122 -2.56582 11.2922 15.1685
116 2 -0.0174368 -3.83015 9.231 13.3789
120 2 0.0340804 0.30214 12.5329 10.7842
126 2 0.104357 -2.22781 9.50417 10.2714
127 2 -0.0450446 -4.13839 10.9896 9.34876
193 2 0.031436 -5.11654 9.96468 14.6546
86 3 -0.799125 2.21042 6.88933 10.1469
15 4 0.996804 -3.99366 10.7804 15.9385
22 4 1.27415 -0.311347 13.088 12.2946
27 4 1.36429 1.06298 6.76366 8.95495
14 4 1.52819 -1.40309 6.85789 10.4788
235 2 0.153315 11.8311 1.11211 2.66918
37 4 1.29815 13.0912 1.64857 5.8245
221 1 -0.652803 8.99741 0.626242 2.49953
39 4 1.27195 11.1881 3.56736 7.44755
45 1 -0.636702 6.8867 5.71788 7.02791
54 1 -0.653032 10.6897 4.88964 6.25162
101 3 -0.77327 14.0364 2.64826 5.08158
102 3 -0.836731 13.9009 0.754914 6.81221
170 2 0.190526 11.4277 4.79904 5.36838
4 4 1.47461 15.1702 2.33832 3.79962
106 3 -0.811225 12.0483 2.47339 6.65168
232 3 -0.792058 14.6701 0.815785 3.13434
129 2 -0.0185343 12.1953 0.759518 4.62497
130 2 0.0832295 7.43636 6.0761 3.36043
225 2 0.121501 9.03166 0.941201 3.66106
169 2 0.166918 9.61952 4.72072 5.90358
146 2 0.155226 7.50052 5.06906 6.2609
273 2 0.195052 9.35686 0.413361 0.489274
250 2 0.18207 12.6864 4.23873 0.632789
224 2 0.15797 9.60388 1.40109 1.85713
171 2 0.209256 10.8916 5.8205 6.97728
249 1 -0.635641 13.3633 5.07696 0.175092
11 4 1.53266 12.8681 6.02553 8.94442
36 4 1.22841 8.95495 1.8955 9.20142
52 1 -0.67798 10.1897 0.586032 9.79021
172 4 1.05697 16.1964 2.482 13.8271
100 3 -0.788062 8.22627 2.95808 10.4431
187 3 -0.848728 9.48653 0.568078 12.9724
110 2 0.00643261 14.5993 2.60471 10.2466
188 3 -0.775602 8.83768 2.5569 14.8172
202 2 0.169024 14.0325 3.40614 11.8006
163 2 0.159431 11.0951 0.949036 9.04446
6 4 1.29309 15.9038 2.2567 9.25813
165 2 0.175912 10.3852 1.04271 10.801
199 2 0.175927 11.9082 1.33225 15.2504
173 1 -0.670692 14.4654 1.55645 13.876
174 2 0.13344 14.2468 2.47482 14.9195
175 2 -0.00731556 15.8775 1.29245 12.5601
176 2 0.157632 13.8095 1.73105 12.9606
204 2 0.115419 8.49436 6.64978 10.7699
178 4 1.07503 14.3536 5.64298 14.4731
180 4 1.31479 9.9604 1.726 14.0669
181 4 1.28237 11.9589 3.89148 12.7276
205 2 0.26828 8.70478 4.71148 10.405
185 1 -0.686383 12.9804 3.17288 11.329
107 3 -0.759431 12.3961 4.42322 8.72368
189 3 -0.79626 11.1124 2.78036 13.4485
190 3 -0.734038 13.2383 4.57933 13.9379
192 3 -0.781204 11.1354 5.10808 12.0382
263 3 -0.844816 15.6868 0.717583 8.72166
77 3 -0.772654 7.12624 4.64048 16.0551
200 2 0.275013 12.7033 3.70174 10.2669
201 2 0.135608 12.587 2.07518 11.4635
186 1 -0.643376 9.11372 5.77513 10.2588
184 1 -0.65052 10.911 0.739919 15.4675
182 4 1.04335 10.7258 6.35997 11.1102
177 2 0.178226 14.4165 0.463204 14.333
203 2 0.187158 9.40835 5.9587 9.19438
144 2 0.17005 7.14579 5.55444 8.14847
105 3 -0.778333 9.87622 2.92478 8.09946
233 2 0.164135 2.84908 12.451 3.7804
255 2 0.159063 2.46184 12.6946 5.71261
103 3 -0.781339 5.35022 6.77163 1.42268
53 1 -0.651801 7.90163 7.56096 3.23528
104 3 -0.823371 4.84087 7.61176 3.99922
230 4 1.09145 5.43875 12.3523 2.71285
125 2 0.0846938 3.97572 7.4992 1.20024
218 2 0.177324 10.2523 9.66507 7.21895
166 2 0.0236775 6.94318 8.94165 2.54028
168 2 0.173909 8.01981 7.98739 4.24477
206 4 1.22752 9.46231 10.4049 3.54099
217 2 0.182112 6.7243 8.16051 5.52736
208 4 1.10981 8.07403 10.1864 6.48417
209 1 -0.651888 6.51091 8.89577 6.3522
261 2 0.214449 6.62498 11.3926 4.52375
211 3 -0.811614 8.75572 10.3431 5.0036
212 3 -0.794411 7.27414 11.4243 7.11895
213 2 0.00270695 8.62767 9.27675 2.59584
254 1 -0.676214 2.10705 11.6623 5.43022
270 2 0.201908 0.98997 12.4394 2.36463
239 2 0.12521 7.18701 8.97589 0.337735
167 2 0.175041 8.87316 7.55854 2.69095
145 2 0.176899 6.74077 6.94274 6.72813
216 2 0.141603 6.42995 8.44996 7.43428
238 3 -0.761805 5.90951 11.5445 1.27563
240 2 0.163135 8.76379 10.2304 0.634153
38 4 0.969967 5.95883 7.36751 2.76073
260 2 0.132582 4.63964 11.2539 4.54939
258 1 -0.659602 5.69306 10.9769 3.97663
259 2 0.183536 5.8005 9.8554 3.78
215 2 0.192131 5.64385 9.49568 6.15155
256 2 0.150558 2.43671 11.2775 4.40563
234 2 0.163465 3.14014 12.2809 1.84633
253 2 0.16306 11.0412 8.13708 0.708171
257 2 0.131428 2.27824 10.8588 6.25779
150 2 0.139863 2.91607 10.2615 0.485946
231 1 -0.659218 3.46649 12.7914 2.82751
207 4 1.23859 6.41661 12.7171 7.80368
67 3 -0.833219 12.9303 6.79383 7.49411
210 1 -0.659289 9.27303 9.50935 7.78281
134 2 0.235802 8.8168 12.7897 5.98539
219 2 0.158067 8.96804 8.4071 7.95573
198 2 0.162582 2.55755 12.4912 15.0237
40 4 0.89979 6.38528 11.3593 13.0753
108 3 -0.787274 5.18621 10.3904 12.6942
109 3 -0.808123 7.00719 11.3838 14.5104
214 2 -0.040509 5.35102 12.1173 8.90329
132 2 -0.0437042 7.53236 11.2931 11.9459
264 2 0.0520086 9.36549 12.1764 15.5856
164 2 0.162105 1.68381 12.2734 9.7509
34 4 0.960118 3.93525 9.38056 12.263
269 2 0.161371 11.6924 7.96409 13.5677
139 2 0.135092 11.1148 9.47569 12.5401
194 2 -0.00940902 10.3124 7.85998 11.9738
191 3 -0.808968 11.6632 6.70786 9.85873
157 2 0.125869 2.58191 10.4774 10.8206
241 2 0.17314 9.79736 9.80717 14.9404
43 1 -0.635917 11.0415 8.87507 13.4951
131 2 -0.0277948 5.99735 12.9377 12.5464
158 2 0.18564 2.54203 11.3414 12.5318
140 2 0.163145 10.0101 8.65945 13.7545
274 2 0.159753 9.14963 10.1199 8.73364
236 4 0.994904 7.80684 11.4941 15.9146
237 1 -0.658004 9.27157 10.265 15.9256
ITEM: TIMESTEP
100
ITEM: NUMBER OF ATOMS
274
ITEM: BOX BOUNDS xy xz yz pp pp pp
-8.3797999999999995e+00 1.8013900000000000e+01 -8.3797999999999995e+00
0.0000000000000000e+00 1.3272536340000000e+01 1.1950000000000001e+00
0.0000000000000000e+00 1.6075500000000002e+01 4.3117844000000005e-01
ITEM: ATOMS id type q x y z
25 4 1.31466 1.18903 6.46763 3.37586
119 2 0.0174125 7.45755 1.68834 5.57781
7 4 1.1182 1.22601 2.2469 5.2982
9 4 1.27247 -0.785153 4.394 1.76798
10 4 1.56377 0.201617 4.21905 7.3229
242 1 -0.666591 3.37011 0.642426 3.17858
21 4 0.81439 5.70832 1.87604 5.73917
26 4 1.21956 5.23608 4.85801 6.8283
41 1 -0.666599 1.22576 0.564436 6.09318
44 1 -0.694708 3.54479 4.31102 1.58238
55 3 -0.817163 1.20636 1.03216 0.867068
56 3 -0.763691 -0.177342 2.14682 4.5037
58 3 -0.836718 -1.66776 3.51955 2.73693
59 3 -0.800302 -0.0244309 3.61419 0.686347
243 2 0.142666 3.02944 1.64118 2.54795
61 3 -0.796232 1.33598 3.39365 6.35624
62 3 -0.854915 -0.63971 5.12721 6.3228
74 3 -0.7877 5.38606 0.72397 7.21847
78 3 -0.828303 0.325319 5.26719 2.60965
81 3 -0.820956 5.49089 3.37787 6.20155
84 3 -0.810116 2.86353 5.99697 3.90128
85 3 -0.786528 4.28308 5.91939 6.03931
113 2 0.0242915 -1.63489 5.73184 4.01013
111 2 -0.00555849 2.65644 2.04584 4.34598
112 2 0.0132784 -1.93027 5.48077 0.949464
267 2 0.166255 -3.84058 6.31485 0.387244
118 2 0.00767524 4.59316 1.33144 4.38383
12 4 1.3099 -0.942279 6.35514 5.42143
222 3 -0.775458 6.77301 1.69216 1.34808
223 2 -0.0980274 6.34788 1.24997 4.07907
141 2 0.153341 4.24523 3.36664 1.82334
142 2 0.175 2.64639 4.06132 0.904465
143 2 0.258919 3.29121 4.99278 2.50165
220 4 0.976117 6.93983 0.633152 2.49744
24 4 1.16361 4.71884 5.14737 0.435266
135 2 0.253154 0.421382 0.484433 6.94137
133 2 0.149322 2.29222 0.581876 6.45722
244 2 0.146386 2.58522 0.256465 3.96486
5 4 1.31547 1.718 2.51787 15.9671
8 4 1.26911 1.73693 2.83662 10.9296
13 4 1.30859 0.359025 5.12614 12.4256
114 2 -0.0391719 0.901478 5.96123 13.7704
20 4 1.24945 4.5163 3.05075 9.44341
23 4 1.20869 6.89666 2.74864 11.4534
262 3 -0.815812 0.518325 2.13152 14.9821
226 4 0.899554 3.51585 6.49138 14.7616
42 1 -0.653151 2.28683 1.61998 12.2534
57 3 -0.813251 0.273907 2.24051 10.3739
63 3 -0.854936 -0.43816 3.96454 13.0917
64 3 -0.837662 1.67437 4.50742 11.8679
65 3 -0.813479 -2.38183 6.10262 9.71927
66 3 -0.853733 -0.453396 6.10464 11.5121
73 3 -0.810384 2.99796 2.75367 9.9056
75 3 -0.84232 5.63051 3.0256 10.6086
76 3 -0.823787 6.77692 1.22666 12.0219
266 2 0.035788 -1.17845 4.90859 15.2899
228 2 0.00326876 2.38724 5.21094 15.0188
137 2 0.176974 3.28153 1.2646 11.6472
123 2 0.0816941 4.72928 5.66907 9.81613
229 2 -0.0329209 3.59175 6.55568 12.9858
124 2 0.0514153 3.21362 5.23961 11.7083
136 2 0.178456 2.59321 2.24778 13.23
179 4 1.23572 7.62451 2.86294 15.929
183 1 -0.68595 6.15436 1.9628 15.1608
99 3 -0.82494 7.7916 1.04477 8.51743
117 2 0.119759 4.88758 1.80394 8.32308
196 2 0.164191 5.46472 2.85144 15.095
80 3 -0.762764 4.64046 4.48165 8.72038
227 3 -0.807666 4.93392 6.2143 15.2951
195 2 0.212259 6.44038 1.54995 14.0836
245 1 -0.680808 3.04742 3.31414 14.8642
246 2 0.153149 2.60899 3.84108 13.8977
247 2 0.161335 3.58655 2.35003 14.6166
248 2 0.145011 3.76064 3.9875 15.5237
138 2 0.165318 1.53795 0.772278 12.3725
82 3 -0.814959 0.961717 5.25486 8.4744
197 2 0.206973 5.77423 1.15997 15.8603
60 3 -0.812452 -0.751158 3.06778 8.0656
29 4 0.928223 3.61364 6.5806 10.7936
121 2 -0.0198474 7.02422 3.87544 12.7558
268 2 0.184373 -3.74714 8.68854 0.768033
3 3 -0.812481 -5.74595 11.6512 0.840485
272 2 0.174993 0.944349 10.0464 0.163918
16 4 1.49049 -3.45513 7.96879 6.80161
17 4 1.21946 -4.60227 9.84195 4.72953
154 2 0.142947 0.65466 9.91345 7.23006
19 4 1.36137 -1.53424 12.7741 7.67819
31 4 1.23473 -1.78198 10.4668 3.05965
33 4 1.11651 0.171037 11.2908 5.4969
48 1 -0.639183 -1.02551 9.03081 2.06778
49 1 -0.65101 -0.148288 9.63582 6.38169
2 3 -0.810401 -7.5344 12.0345 2.85548
68 3 -0.800774 -2.08241 7.32694 6.01656
149 2 0.176243 1.35983 8.47253 7.01394
70 3 -0.769261 -4.47473 8.41409 5.45946
79 3 -0.854798 0.312102 7.17976 4.80325
87 3 -0.807598 1.5542 7.66059 2.21984
30 4 1.00366 2.29483 7.99279 0.907355
89 3 -0.734659 -2.00757 11.8278 2.14458
90 3 -0.785897 -3.23165 10.1042 3.80001
93 3 -0.764854 -0.370539 10.9072 4.04287
94 3 -0.811533 -0.557819 12.5065 6.17093
115 2 -0.0260248 -4.53964 10.9675 5.91415
252 2 0.22437 -5.18203 9.34829 1.9248
151 2 0.205891 0.0939613 9.40966 1.62039
152 2 0.154559 -1.87309 8.84727 1.32538
153 2 0.195261 -0.930168 8.17822 2.86656
251 1 -0.662644 -4.86648 8.91886 0.834405
155 2 0.270059 0.129051 8.6667 5.75526
156 2 0.254598 -1.20138 9.57661 6.83625
46 1 -0.658389 2.15486 7.75041 7.45756
148 2 0.168236 3.11708 8.27157 7.71468
161 2 0.180301 -0.937089 9.87449 0.236902
47 1 -0.643251 1.9466 9.85306 0.794773
1 4 1.29461 -6.52195 12.7054 1.81741
122 2 0.00864539 2.68878 8.04347 5.57264
91 3 -0.894072 -3.22726 9.3552 7.58082
28 4 1.19764 3.73479 6.92675 4.8316
69 3 -0.849364 -5.88706 10.1042 3.77107
147 2 0.193032 2.27348 6.72618 6.84291
134 2 0.219007 -7.36416 12.6222 5.26181
265 2 0.198269 -4.37095 12.6978 2.58734
271 2 0.168837 1.87552 10.2618 1.90278
50 1 -0.649483 2.39962 10.1949 11.9103
18 4 1.2427 -2.31347 8.33613 12.9968
159 2 0.207503 1.35208 9.72705 11.9011
32 4 0.982955 -2.91804 10.3791 8.7018
35 4 1.25546 -1.18188 10.7818 14.1616
128 2 0.0583397 2.71282 9.16821 13.5325
160 2 0.172729 1.24272 10.5207 14.6049
71 3 -0.855604 -2.55539 6.99 13.7196
51 1 -0.638596 0.389672 10.9082 15.2127
162 2 0.188637 0.473241 12.0432 15.3019
72 3 -0.812922 -2.14456 8.41607 11.3014
83 3 -0.767682 -0.283913 7.62503 9.36315
88 3 -0.775364 2.86928 7.80306 15.4136
92 3 -0.83837 -1.74143 11.3996 8.49477
95 3 -0.798288 4.27291 7.92312 11.5802
96 3 -0.764879 -1.10304 9.07721 13.6483
97 3 -0.825767 -1.01121 11.7042 12.9168
98 3 -0.786722 -2.5343 10.9876 15.2523
116 2 0.00339275 -3.81895 9.21048 13.1513
120 2 0.0343845 0.179031 12.5252 10.6016
126 2 0.0953989 -2.57826 9.5549 10.1344
127 2 -0.046532 -4.36108 11.114 9.11988
193 2 0.0275396 -5.01037 10.2433 14.5863
86 3 -0.804507 2.32393 7.01603 10.027
15 4 1.04701 -3.91469 10.89 15.9764
22 4 1.24002 -0.398503 13.0283 12.2273
27 4 1.35513 1.21318 6.78237 8.92329
14 4 1.50873 -1.34051 7.01269 10.4731
235 2 0.173223 12.2838 1.17406 3.00071
37 4 1.25786 13.0729 1.66057 5.84433
221 1 -0.627951 8.81731 0.493063 2.34455
39 4 1.21915 11.2232 3.68353 7.56459
45 1 -0.666618 6.85501 5.64717 7.09564
54 1 -0.650138 10.7702 4.91807 6.2913
101 3 -0.779882 13.9527 2.74619 5.00006
102 3 -0.856642 13.882 0.651755 6.7018
170 2 0.20368 11.6725 4.69665 5.52182
4 4 1.48686 15.076 2.33317 3.79628
106 3 -0.792432 11.9319 2.48459 6.66418
232 3 -0.802085 14.5881 0.869897 3.07529
129 2 -0.00188526 12.337 0.655949 4.69616
130 2 0.0662031 7.21661 6.33223 3.48115
225 2 0.129976 8.97487 0.638794 3.53755
169 2 0.161345 9.68836 4.68455 5.92793
146 2 0.159378 7.47568 4.93941 6.4082
273 2 0.181245 9.4342 0.318674 0.376329
250 2 0.17907 12.4715 4.45484 0.620447
224 2 0.184502 9.17421 1.34143 1.67398
171 2 0.212985 10.8194 5.89669 6.84892
249 1 -0.655833 13.1557 5.20771 0.161017
231 1 -0.668936 12.0127 0.115213 2.80513
77 3 -0.763099 5.86156 4.108 0.0213111
11 4 1.49626 12.7882 6.03991 9.12477
36 4 1.31986 8.87189 2.02649 9.13772
52 1 -0.675488 10.086 0.716646 9.90705
172 4 0.995871 16.1317 2.51993 13.9308
100 3 -0.803765 8.23902 2.96783 10.4616
187 3 -0.86246 9.25137 0.780175 13.0707
110 2 -0.0028407 14.4226 2.61522 10.0547
188 3 -0.750471 8.96723 2.62532 15.0203
202 2 0.177791 14.0663 3.4324 11.626
163 2 0.163379 11.0245 1.31821 9.65391
6 4 1.31053 15.873 2.15652 9.29034
165 2 0.166228 10.1234 0.295977 10.9731
199 2 0.183448 11.9938 0.852967 15.0995
173 1 -0.651064 14.4786 1.43939 13.7011
174 2 0.0987946 14.3336 2.4082 14.9555
175 2 0.0279271 15.9927 1.08702 12.8003
176 2 0.170818 13.9321 1.94414 12.8029
204 2 0.118766 8.31567 6.53863 10.4124
178 4 1.12182 14.1214 5.58353 14.4663
180 4 1.29554 10.0415 1.67607 14.0815
181 4 1.33188 11.93 3.98051 12.7765
205 2 0.287016 8.7533 4.64485 10.2566
185 1 -0.683315 13.0014 3.16298 11.3757
107 3 -0.784154 12.3545 4.47034 8.86206
189 3 -0.78569 11.2609 2.72714 13.4312
190 3 -0.795198 13.1722 4.542 13.8707
192 3 -0.78305 11.094 5.16139 12.0547
263 3 -0.845698 15.6577 0.724881 8.75165
105 3 -0.79061 9.73587 3.00492 8.27458
200 2 0.265415 12.7001 3.61551 10.3041
201 2 0.148255 12.7328 2.08403 11.441
186 1 -0.667692 9.07203 5.72805 10.1111
184 1 -0.662095 10.9638 0.583548 15.3164
182 4 1.02379 10.5387 6.40237 11.116
177 2 0.17021 13.9974 0.469571 14.0487
203 2 0.180174 9.47487 5.86415 9.07036
144 2 0.175983 7.03096 5.41352 8.24875
233 2 0.168218 3.11512 12.4502 3.66894
255 2 0.155795 1.88363 12.7178 4.99761
103 3 -0.753888 5.37343 6.88882 1.26095
53 1 -0.632144 7.84508 7.67049 3.23112
104 3 -0.835526 4.87311 7.69002 3.97016
230 4 1.07258 5.51692 12.3709 2.61871
125 2 0.108895 3.96112 7.4984 1.04197
218 2 0.170015 10.498 9.89887 7.13806
166 2 0.042921 6.79307 8.95578 2.5585
168 2 0.176119 8.25012 7.97871 4.28765
206 4 1.23866 9.44482 10.553 3.60528
217 2 0.16052 7.41854 7.79817 5.5575
208 4 1.11682 8.09844 10.1813 6.39483
209 1 -0.645802 6.80361 8.66758 6.00267
261 2 0.229568 6.32597 11.8531 4.7792
211 3 -0.83023 8.73915 10.3813 4.98667
212 3 -0.787346 7.26124 11.4781 6.99891
213 2 0.00781971 8.62523 9.38991 2.62199
254 1 -0.675593 2.16648 11.6598 5.28487
270 2 0.191654 0.616753 12.2472 1.98673
239 2 0.137584 7.33068 8.83606 0.344314
167 2 0.163739 8.65339 7.46932 2.47356
145 2 0.177086 6.85804 6.7735 6.77291
216 2 0.133663 6.46878 8.53605 7.09144
238 3 -0.743338 6.04687 11.5231 0.99329
240 2 0.158026 8.84874 10.0563 0.858987
38 4 0.971635 5.87574 7.33817 2.77664
260 2 0.147898 4.58 11.0787 4.2627
258 1 -0.672743 5.7045 11.1408 4.03538
259 2 0.176498 6.18798 10.1683 3.73652
215 2 0.213045 5.97385 9.11314 5.36978
256 2 0.151416 2.43771 10.9672 4.43023
234 2 0.173372 2.97435 12.8688 1.87476
253 2 0.140961 11.1974 8.18302 0.420722
257 2 0.149354 2.88864 11.6042 6.16094
150 2 0.159495 2.87007 10.1843 0.182432
219 2 0.154954 9.36818 8.3855 7.43529
207 4 1.21935 6.38347 12.7034 7.75139
67 3 -0.834973 12.7431 6.78008 7.70017
210 1 -0.662935 9.48619 9.55082 7.54018
237 1 -0.662604 8.16987 9.78883 0.00235466
198 2 0.164555 2.24679 12.3659 14.9578
40 4 0.954518 6.37544 11.2004 13.0433
108 3 -0.837155 5.22118 10.2797 12.7862
109 3 -0.831161 6.99789 11.1638 14.4385
214 2 -0.0501537 5.27483 11.8286 8.71807
132 2 -0.0459773 7.62307 11.0243 11.8704
264 2 0.0475632 9.34213 12.0507 15.3486
164 2 0.166484 1.52803 12.7542 9.11339
34 4 1.02361 4.08012 9.29637 12.3894
269 2 0.155056 11.1787 8.04188 13.7887
139 2 0.135333 11.4889 9.06954 12.3173
194 2 -0.0149448 10.2797 7.7719 12.1733
191 3 -0.823579 11.6953 6.79454 10.1124
157 2 0.136738 2.85748 10.1894 10.7059
241 2 0.161385 9.95653 9.88184 15.0913
43 1 -0.62023 11.078 9.0815 13.3805
131 2 -0.0301574 6.04444 12.724 12.4331
158 2 0.154975 2.40017 11.2472 12.3666
140 2 0.142394 9.97265 9.22767 13.3118
274 2 0.151764 9.28172 9.96285 8.53613
236 4 1.05396 7.81577 11.3162 15.7395
ITEM: TIMESTEP
200
ITEM: NUMBER OF ATOMS
274
ITEM: BOX BOUNDS xy xz yz pp pp pp
-8.3797999999999995e+00 1.8013900000000000e+01 -8.3797999999999995e+00
0.0000000000000000e+00 1.3271872680000000e+01 1.1950000000000001e+00
0.0000000000000000e+00 1.6075500000000002e+01 4.3115688000000002e-01
ITEM: ATOMS id type q x y z
244 2 0.138174 2.89851 0.171287 3.81283
119 2 -0.0123685 7.46328 1.90435 5.54326
7 4 1.15855 1.1763 2.21837 5.27764
9 4 1.29292 -0.69907 4.4767 1.79403
10 4 1.58584 0.350626 4.26552 7.28399
242 1 -0.656673 3.53342 0.807629 3.0066
21 4 0.801126 5.79023 1.94387 5.69437
26 4 1.20304 5.21467 4.90346 6.89036
41 1 -0.692295 1.39432 0.533242 6.12962
44 1 -0.68627 3.6492 4.34951 1.70199
55 3 -0.758139 1.32589 1.02906 0.953805
56 3 -0.834103 -0.131803 2.37206 4.39539
58 3 -0.826927 -1.69083 3.65145 2.71241
59 3 -0.843427 0.299593 3.59051 0.956769
243 2 0.174181 3.09552 1.74166 2.50159
61 3 -0.799262 1.46626 3.31928 6.30343
62 3 -0.838913 -0.531508 5.21133 6.34161
74 3 -0.782526 5.39219 0.772589 7.16237
78 3 -0.855464 0.050842 5.57602 2.64473
81 3 -0.803071 5.34117 3.42242 6.05728
84 3 -0.800978 2.49777 5.87141 4.11142
85 3 -0.796937 4.48277 5.99656 6.01072
113 2 0.0239679 -1.99405 5.68032 4.27194
111 2 0.0147822 2.50979 2.00442 4.21678
112 2 0.0181689 -1.83931 5.17245 0.551557
133 2 0.176958 2.391 0.520959 6.58947
118 2 0.0283195 4.47179 1.45166 4.49645
12 4 1.31486 -1.05654 6.44023 5.43186
222 3 -0.813235 6.38571 1.66095 1.38349
223 2 -0.081281 6.33861 1.21803 3.97129
141 2 0.177674 4.44509 3.5567 2.03514
142 2 0.187353 2.75244 3.87666 1.12761
143 2 0.248026 3.27147 4.97035 2.59967
220 4 1.06459 6.86223 0.525928 2.37174
24 4 1.22659 4.70315 5.16984 0.42827
135 2 0.228077 0.570083 0.558711 6.90834
265 2 0.193135 4.2011 0.102131 2.25566
267 2 0.168199 -3.97132 6.37677 0.497307
5 4 1.27746 1.73403 2.73009 16.0353
8 4 1.31178 1.76004 2.7604 10.83
13 4 1.29402 0.336068 5.0472 12.3953
114 2 -0.0508973 0.830919 6.24524 13.4222
20 4 1.26154 4.4673 3.11314 9.29787
23 4 1.19617 6.77447 2.69114 11.4025
262 3 -0.831697 0.473727 2.20648 15.163
226 4 0.895584 3.52855 6.45241 14.7985
42 1 -0.664417 2.20602 1.52172 12.2069
57 3 -0.822501 0.357364 2.23171 10.2785
63 3 -0.873988 -0.455388 3.97076 13.1603
64 3 -0.839312 1.65219 4.44961 11.751
65 3 -0.808894 -2.48523 5.95875 9.73999
66 3 -0.845824 -0.603592 5.8504 11.4663
73 3 -0.805224 2.99755 2.74186 9.84437
75 3 -0.830731 5.38145 3.13689 10.5659
76 3 -0.841394 6.70509 1.29451 12.0833
266 2 0.026782 -1.28547 4.93251 15.0411
228 2 -0.0255061 2.45256 5.18468 15.0516
137 2 0.184024 3.25636 1.09655 11.9275
123 2 0.089374 4.92478 5.78952 9.8288
229 2 -0.0309174 3.45129 6.46921 13.111
124 2 0.0677862 3.17419 5.13636 11.7258
136 2 0.177829 2.20724 2.11834 13.2295
179 4 1.30194 7.60795 2.86087 16.0192
183 1 -0.672559 6.37307 1.77373 15.1116
99 3 -0.843156 7.77723 1.22777 8.56488
117 2 0.10726 4.92323 1.87111 8.15607
196 2 0.16907 5.38634 2.31628 15.3222
80 3 -0.781243 4.52119 4.59939 8.74785
227 3 -0.810009 4.94917 5.92565 15.2691
195 2 0.241479 6.58247 1.61676 14.0408
245 1 -0.707191 3.04095 3.26352 14.7585
246 2 0.151984 2.54654 3.77242 13.9176
247 2 0.172379 3.62024 2.35025 14.454
248 2 0.170326 3.72511 3.9966 15.2829
138 2 0.160399 1.29943 0.79676 12.0923
82 3 -0.840554 0.999815 5.26552 8.41492
197 2 0.217782 6.49897 0.780574 15.7145
121 2 0.00386761 6.76692 3.72528 12.7079
29 4 0.951111 3.71593 6.49867 10.8318
60 3 -0.798935 -0.573227 3.21325 8.12057
187 3 -0.810299 9.06009 0.703103 13.1321
268 2 0.171169 -4.0241 8.49625 0.75856
3 3 -0.806151 -5.61659 11.5586 0.746288
272 2 0.166347 0.909528 10.2468 0.302902
16 4 1.45192 -3.45261 7.9419 6.76897
17 4 1.24827 -4.4329 9.76691 4.65432
154 2 0.16005 0.444979 9.93191 7.47755
19 4 1.34507 -1.50672 12.9623 7.72241
31 4 1.3058 -1.87995 10.4757 3.05964
33 4 1.14905 0.0371248 11.2896 5.47406
48 1 -0.641986 -1.16683 9.10113 1.89536
49 1 -0.657336 -0.277238 9.80183 6.57924
2 3 -0.81691 -7.32817 11.9177 2.74054
68 3 -0.848247 -2.02057 7.36395 6.24239
149 2 0.203034 0.99897 8.35613 7.00006
70 3 -0.756591 -4.65366 8.35809 5.36782
79 3 -0.835563 0.147742 7.33123 4.88911
87 3 -0.81406 1.45633 7.63335 2.25423
30 4 1.0124 2.23498 8.14449 1.0183
89 3 -0.800367 -2.06104 11.9521 2.13032
90 3 -0.85881 -3.1072 9.86135 3.75608
93 3 -0.801901 -0.651674 10.8308 4.10222
94 3 -0.806249 -0.560563 12.5123 6.256
115 2 -0.0141961 -4.32814 10.9904 5.79934
252 2 0.224607 -5.32244 9.33261 1.97534
151 2 0.203019 -0.040477 9.46448 1.60141
152 2 0.165897 -1.85159 8.94352 0.992051
153 2 0.200886 -1.13752 8.16833 2.5663
251 1 -0.670384 -5.08127 8.92851 0.862689
155 2 0.270355 -0.0492959 8.80654 5.90912
156 2 0.272627 -1.39351 9.70034 6.87609
46 1 -0.66498 1.74814 7.51186 7.17895
148 2 0.16836 2.77811 7.79325 7.44393
161 2 0.178297 -0.850441 10.1328 0.194685
47 1 -0.662278 1.84046 9.9475 1.08168
1 4 1.29883 -6.37062 12.6468 1.74812
122 2 0.0066931 2.8707 8.09016 5.71207
91 3 -0.874807 -3.17359 9.40492 7.52339
28 4 1.17804 3.69075 6.80988 4.84648
69 3 -0.861273 -5.78778 10.1356 3.87182
147 2 0.229005 1.61542 6.61735 6.49956
134 2 0.213727 -7.14371 12.5195 5.35078
25 4 1.3766 1.03425 6.5695 3.45189
271 2 0.172716 1.7833 10.2993 2.1093
50 1 -0.663287 2.38358 10.0715 11.9659
18 4 1.2324 -2.37536 8.28352 12.8765
159 2 0.195957 1.59045 9.28025 11.8396
32 4 0.995046 -2.91328 10.3228 8.73733
35 4 1.28708 -0.99286 10.6719 14.0933
128 2 0.0500017 2.86943 9.27887 13.6302
160 2 0.159154 1.38348 10.6747 14.6576
71 3 -0.832936 -2.61274 6.91656 13.7008
51 1 -0.664142 0.5014 11.0906 15.2238
162 2 0.197539 0.513992 12.2171 15.4305
72 3 -0.839934 -2.3496 8.18653 11.2642
83 3 -0.771854 -0.147724 7.51903 9.42973
88 3 -0.784732 3.0833 7.82762 15.5332
92 3 -0.811477 -1.94744 11.5159 8.54915
95 3 -0.816741 4.31244 7.69639 11.7307
96 3 -0.779098 -1.15261 9.04782 13.6554
97 3 -0.823685 -0.910967 11.5309 12.8169
98 3 -0.777432 -2.4517 10.908 15.0527
116 2 0.00621634 -3.81853 9.19571 13.1659
120 2 0.0161834 0.261269 12.7046 10.6957
126 2 0.0846226 -2.41205 9.3617 9.96664
127 2 -0.0357866 -4.40484 10.841 9.37186
193 2 0.0367491 -4.9682 10.4127 14.484
86 3 -0.812071 2.52427 7.05922 9.91746
15 4 1.05004 -3.83953 10.8331 15.8487
22 4 1.22588 -0.467557 12.9814 12.2031
27 4 1.3884 1.25665 6.68427 8.95382
14 4 1.47265 -1.42704 6.8624 10.4721
158 2 0.171702 2.01272 10.98 12.4964
235 2 0.158509 11.8927 1.18836 2.79683
37 4 1.24793 13.172 1.68503 5.79374
221 1 -0.644402 8.76915 0.440963 2.24438
39 4 1.22317 11.2383 3.6504 7.52149
45 1 -0.663995 6.92093 5.55216 7.2173
54 1 -0.654913 10.5479 4.93392 6.35486
101 3 -0.782385 14.1011 2.70493 4.9559
102 3 -0.853246 14.014 0.655254 6.67259
170 2 0.171255 11.0056 4.46243 5.36832
4 4 1.50797 15.2334 2.41438 3.74373
106 3 -0.808405 12.1108 2.54975 6.62659
232 3 -0.786353 14.6915 0.925899 2.91425
129 2 -0.0056402 12.3544 0.740492 4.59394
130 2 0.0822644 7.33512 6.33181 3.37976
225 2 0.118235 8.85392 0.685264 3.46346
169 2 0.183177 9.41945 4.8627 6.34949
146 2 0.151359 7.45649 4.79708 6.48319
273 2 0.176423 9.37985 0.226187 0.290899
250 2 0.170285 12.5844 4.54144 0.672354
224 2 0.169622 9.1054 1.34034 1.62529
171 2 0.234829 11.0205 5.9014 6.67243
249 1 -0.642368 13.1844 5.34304 0.157153
77 3 -0.763003 5.82637 4.08161 0.0780002
11 4 1.51419 12.7856 6.11323 9.08086
36 4 1.28552 8.86938 2.16597 9.2374
52 1 -0.674519 10.1315 0.870953 9.86382
172 4 0.992132 16.2485 2.5353 13.9869
100 3 -0.812807 8.24089 2.95462 10.6137
177 2 0.169173 14.0714 0.500659 13.8486
110 2 0.0201014 14.5647 2.75105 10.0871
188 3 -0.77818 8.93919 2.63615 15.2447
202 2 0.168522 14.0294 3.49263 11.8403
163 2 0.16594 11.0363 1.33384 9.37557
6 4 1.29895 15.909 2.10754 9.28458
165 2 0.185648 10.199 1.10454 11.0025
199 2 0.178006 12.0374 0.943365 15.2589
173 1 -0.639125 14.6406 1.4141 13.5009
174 2 0.076332 14.5159 2.35619 14.8651
175 2 0.0449142 16.1593 1.09699 12.7614
176 2 0.156619 14.0523 2.01408 12.6452
203 2 0.176721 9.58139 6.36083 9.13496
178 4 1.0919 13.9973 5.56855 14.4968