ITEM: TIMESTEP
0
ITEM: NUMBER OF ATOMS
366
ITEM: BOX BOUNDS xy xz yz pp pp pp
-8.3370488766021680e+00 1.6684150499081433e+01 -8.4375460746530955e+00
-3.4040069833810205e-01 1.3444835739784946e+01 6.5974769713251458e-01
-8.0556304019379965e-02 1.6989556304019288e+01 -3.1796495855315698e-01
ITEM: ATOMS id type x y z
254 2 -2.59754 5.4805 3.43736
244 2 2.75797 4.85923 7.72941
208 2 -2.52071 6.14784 7.28921
67 1 -2.27949 5.29506 6.54154
359 2 -1.12687 4.08183 0.258105
291 2 0.170909 4.96041 3.87688
317 1 -1.68147 5.09537 0.777689
3 4 0.82917 2.8786 4.7544
8 4 -0.81909 4.17888 7.20874
64 1 0.639627 4.11836 3.31088
98 3 0.168332 3.57311 6.0281
114 3 2.38562 2.46255 4.5931
201 2 -0.177006 3.44329 2.79378
202 2 1.46261 4.55555 2.55084
203 2 1.35758 2.79289 1.83715
310 1 1.81668 0.768503 7.12152
338 1 1.90104 2.04222 1.13207
341 2 2.28723 2.71132 0.179946
344 2 3.66974 4.85635 1.26544
340 2 2.78229 1.56283 1.76869
78 1 2.13547 6.43658 5.68401
342 1 2.707 5.55653 1.30869
239 2 2.18853 5.98585 4.34481
311 2 1.87869 0.67232 6.04587
358 2 1.12458 1.2317 0.846456
345 2 1.74708 5.1973 0.804811
312 2 1.91088 1.82702 7.44692
216 2 3.31527 0.289547 2.44622
325 2 0.836414 -0.0333151 3.6683
343 2 2.50997 6.03934 2.2772
210 2 2.63278 0.437858 0.124135
207 2 -1.73277 5.65997 5.59738
313 2 0.921122 0.171912 7.56909
241 2 1.67681 5.59944 6.39284
125 3 -0.00645041 5.26806 8.17498
65 1 -0.364621 1.20319 4.78037
318 2 -0.977547 5.58288 1.57577
29 4 5.50024 4.27452 7.67715
31 4 3.91533 6.25672 5.65985
70 1 4.22554 0.733148 2.89321
21 4 4.06722 2.21694 4.29393
219 2 3.82867 4.54854 3.60027
220 2 4.90848 3.30266 2.51327
126 3 4.59401 5.07237 6.55233
71 1 4.67495 3.7952 3.56773
336 2 -0.940751 2.60257 0.390364
362 2 4.95996 1.00819 2.042
115 3 6.45731 1.38896 0.976696
118 3 5.12736 1.74154 5.45172
119 3 7.44775 0.9712 6.93997
20 4 7.57842 0.173768 1.68153
97 3 -1.55471 3.20586 8.22464
25 4 6.70913 2.10654 5.99127
222 2 5.32097 4.33349 0.789823
319 2 -2.76312 4.92215 0.996779
217 2 4.74031 0.0832145 3.68922
23 4 8.26343 -0.0859496 7.92378
288 1 -2.74233 6.60671 3.37823
218 2 5.62943 4.01407 4.14442
128 3 2.94486 6.32508 15.6552
102 3 -2.22287 5.94102 10.2135
121 3 5.60721 1.93059 10.6178
315 2 0.740982 1.14183 16.3574
296 4 4.75714 2.27644 14.8701
363 2 0.975182 2.9535 16.1867
6 4 1.32646 2.01404 10.6926
10 4 0.0970485 4.03089 13.1602
95 3 0.304369 1.7938 9.50574
96 3 1.43188 0.551789 11.5479
99 3 -0.618005 3.0341 14.1426
100 3 0.865413 3.10176 11.8164
103 3 -0.967044 5.06493 12.6198
117 3 2.86428 2.07212 10.1701
127 3 1.47565 4.86053 13.9132
314 1 0.245783 2.16454 16.4552
7 4 -0.971578 6.20719 16.6661
300 2 2.26979 2.11285 13.3406
30 4 1.01361 6.1993 9.05723
297 1 2.27452 1.10666 13.9285
79 1 2.66891 5.28646 8.76038
32 4 1.63849 6.18818 14.6903
206 2 1.30043 0.894271 14.5713
230 2 2.44235 4.51801 9.64069
302 2 2.60769 2.78124 15.5172
12 4 -1.29551 6.2229 11.5136
120 3 5.80151 2.1347 15.9713
298 1 3.58259 3.50741 15.6379
242 2 1.17486 5.89399 11.5261
299 2 3.76685 0.784162 14.6337
304 2 3.52011 4.06827 16.6313
122 3 7.44567 0.385818 12.2461
129 3 0.422291 6.23449 15.8926
116 3 4.37663 0.705012 8.55998
243 2 3.53008 6.00545 9.00106
234 2 3.07035 5.77616 10.6807
101 3 -2.39007 6.2438 15.8488
303 2 3.78412 4.29027 14.6983
130 3 3.95733 4.27949 12.3946
301 2 5.4628 2.46345 13.2842
123 3 4.60908 3.37726 8.65573
24 4 4.42274 2.05632 9.61962
76 1 4.67197 5.25447 12.5483
4 4 2.1107 -0.170821 12.7426
9 4 -3.51148 6.39728 9.45325
22 4 7.15374 2.13051 16.8456
27 4 7.23503 1.73559 11.4242
290 2 -2.48383 7.19242 4.32742
36 4 0.447761 11.3748 -0.0192151
361 2 -5.3843 10.6413 2.01085
333 2 -3.49874 10.6683 2.03436
332 1 -4.44085 11.2286 1.69912
327 2 -5.9064 12.6724 3.18231
15 4 -2.66981 9.06435 7.28271
17 4 -4.28189 11.0607 5.69992
106 3 -5.81354 10.7685 4.82985
107 3 -3.8569 9.84553 6.7028
108 3 -4.48405 12.3746 6.52683
133 3 -3.19471 11.2355 4.59225
360 2 -4.40177 12.3388 2.06839
293 2 -4.5732 9.17532 1.77361
256 2 -2.63305 9.38117 3.07493
321 2 -2.77864 8.23502 1.19815
231 2 0.465756 9.68755 8.38648
295 2 -4.01409 7.51589 0.823282
213 2 -2.27075 8.66752 4.85155
322 2 -1.32555 8.98564 0.135608
324 1 -7.04901 12.5842 3.1434
289 1 -4.66429 7.98187 1.68985
292 2 -2.32887 7.13673 2.39306
348 2 -7.69483 13.3846 0.603922
323 2 -0.924352 7.7917 1.61314
255 2 -1.78084 10.4536 1.67006
240 2 1.76069 7.60039 5.86701
215 2 -0.587128 8.78537 5.83412
69 1 -1.76712 8.3601 5.79435
132 3 -1.83448 12.756 2.58409
253 2 1.77643 7.2939 2.93647
214 2 -1.92504 7.17819 6.03338
83 1 -1.62509 9.92576 2.70441
34 4 1.96059 9.37676 1.85209
35 4 -1.72251 11.4979 3.76861
28 4 3.0442 6.96344 -0.0333917
82 1 1.06659 8.18804 2.99892
84 1 1.25108 9.58394 5.90868
131 3 2.69931 8.34858 0.77732
134 3 0.896563 10.4253 1.23681
138 3 -0.394796 11.3225 4.56653
251 2 0.0162855 7.85358 2.76418
252 2 -0.612659 9.26526 2.75512
257 2 1.15466 8.7007 4.11378
258 2 0.925883 9.2278 6.92842
354 3 -0.285385 12.7974 0.429453
135 3 -1.60058 10.0681 8.06099
104 3 -3.01346 7.49441 8.30037
320 1 -1.6666 8.08848 0.782947
326 2 -7.47418 12.4516 2.08656
38 4 1.0209 11.3847 5.5816
237 2 1.61052 7.7009 7.96406
1 4 -5.12042 13.1801 7.78409
238 2 0.607016 8.64119 9.95599
144 3 -0.813402 12.0442 14.5466
68 1 -4.71771 12.7118 16.4572
212 2 -5.50389 12.2817 15.689
147 3 1.32817 9.34385 11.8848
357 2 -5.95751 11.0379 14.0502
105 3 -5.87114 12.1491 8.76338
14 4 -4.02525 11.0294 16.8377
18 4 -2.53391 8.56962 13.2306
19 4 -4.12207 10.6528 11.0439
109 3 -3.60957 7.7418 13.9633
112 3 -3.51555 9.68207 12.1327
113 3 -3.89772 12.3557 13.5313
137 3 -2.97765 11.0607 10.0561
145 3 -2.6375 10.7317 16.1779
66 1 -4.34312 12.2377 12.3894
111 3 -5.69629 10.2847 10.6184
356 2 -3.76748 12.8782 11.3193
146 3 -0.289898 10.8076 10.458
26 4 -0.0990135 12.9499 13.3888
232 2 -0.596107 8.17822 8.58206
328 1 -5.54098 9.78932 16.1681
75 1 0.416064 8.65037 8.81189
136 3 -1.35128 12.671 8.80337
236 2 0.669966 7.6279 11.0718
278 2 2.29237 9.24049 8.5833
110 3 -1.70047 7.59225 12.2313
142 3 -1.57087 9.4253 14.1357
37 4 -1.50521 11.1168 9.38516
39 4 2.39425 8.64508 12.9664
40 4 -1.19656 10.6408 15.1098
41 4 1.00388 10.8123 11.3245
140 3 1.56041 7.5017 13.7542
143 3 -0.0885638 10.1984 16.1821
77 1 0.507446 6.53715 10.8542
148 3 0.815125 11.8402 12.5926
211 2 -3.67222 13.0521 15.8931
309 2 15.0702 0.32665 1.8241
42 4 8.91393 2.13916 3.59055
72 1 6.41185 4.17297 0.651831
86 1 8.67743 5.62946 5.07792
124 3 6.65313 3.50526 6.78574
149 3 8.57499 0.790085 2.73579
150 3 7.57684 2.40918 4.7703
164 3 8.99412 3.43805 2.61666
168 3 9.34754 5.04008 0.525349
50 4 10.0612 4.19547 1.67455
305 4 12.7337 0.345062 2.00557
266 2 8.84604 4.8013 6.8784
265 2 9.45081 4.80932 5.29751
87 1 8.98863 4.36642 8.02167
263 2 8.38037 5.49584 4.09628
221 2 6.95644 4.33636 1.6412
268 2 8.39127 3.48431 8.30862
264 2 7.77998 5.4273 5.8411
355 2 14.8063 1.4707 5.58985
209 2 12.7186 4.61464 6.35798
44 4 13.1556 -0.0410516 7.31284
155 3 10.3114 1.9645 4.37644
205 2 15.0232 1.22837 3.66463
308 2 14.2536 2.19679 2.15003
228 2 5.53212 5.88726 0.0415491
261 2 13.9456 2.42544 4.4664
52 4 10.8417 3.94182 8.08918
262 2 13.0547 4.1669 4.64818
46 4 11.5753 2.36194 5.45977
85 1 12.9527 3.0887 4.36316
156 3 12.3647 1.00613 6.48346
165 3 11.2995 3.21071 1.13962
166 3 10.8595 5.4028 2.67739
170 3 11.1508 3.58686 6.33063
260 2 12.3421 3.00524 3.3848
307 3 11.7868 0.628172 0.776499
306 1 14.1653 1.05806 1.85733
152 3 14.0886 0.611107 8.38346
204 2 16.0159 0.198229 4.98895
11 4 12.2125 6.38749 14.9389
163 3 12.9345 0.711081 12.7826
267 2 8.78734 5.29085 8.84806
51 4 9.76342 6.03065 16.7894
172 3 6.34857 5.36911 8.5083
45 4 9.96817 1.55645 9.93999
48 4 9.66708 1.94912 14.9622
73 1 7.21043 3.20411 12.6259
154 3 8.5739 2.21639 10.665
158 3 9.42586 0.609719 14.0873
160 3 8.35942 2.24362 15.8922
180 3 10.0249 5.14932 12.0752
224 2 6.24855 3.964 12.588
225 2 8.16831 3.78241 12.4656
226 2 7.22586 2.52497 13.5787
350 1 8.44844 5.78865 15.4583
351 2 8.57286 4.70308 15.2739
153 3 9.29824 0.450823 8.9382
175 3 9.92723 3.18298 13.9588
353 2 7.40855 6.12951 15.7966
176 3 11.9995 3.16388 12.4015
233 2 5.22045 5.94726 13.3358
161 3 13.8124 1.98324 10.5437
177 3 11.8018 5.10659 14.066
171 3 11.7222 5.18929 8.60401
169 3 10.7148 2.73739 9.06234
162 3 11.1159 1.1424 10.9474
2 4 14.6153 1.93245 9.22498
5 4 14.7369 1.97638 15.1057
49 4 12.4378 1.79204 11.6738
55 4 11.0023 4.12974 13.1568
151 3 13.3912 2.26208 16.003
157 3 14.8395 0.508592 14.5256
159 3 10.8468 1.82269 16.1266
223 2 7.499 4.62745 16.7896
179 3 8.39152 6.44209 10.1006
43 4 12.138 1.8627 16.9436
56 4 9.82843 6.49665 11.1147
188 3 8.70422 9.85058 8.37
58 4 3.63283 11.322 3.95112
183 3 2.99052 10.0278 2.94229
185 3 2.3874 11.9322 4.75307
269 2 10.4319 8.40156 7.46674
189 3 3.70493 12.308 8.09816
280 2 3.53786 10.088 7.32401
287 4 11.3664 6.78057 3.22791
184 3 4.29732 12.5491 2.97481
229 2 5.51056 7.89158 0.224162
88 1 10.3344 7.26058 7.26622
270 2 11.3165 6.85078 6.90969
346 1 7.68707 12.4267 0.146767
247 2 4.37933 8.56593 6.86669
245 2 4.50806 8.3799 4.91949
274 2 6.10285 8.28266 3.96499
246 2 5.86351 7.5515 5.95173
80 1 4.74806 7.84694 5.95158
13 4 8.73608 10.8976 4.06961
54 4 9.47198 7.44261 5.63546
57 4 7.55278 8.57978 2.08989
59 4 7.52355 9.08245 7.5773
61 4 6.05188 11.1749 5.82088
90 1 6.67246 7.48099 3.35094
181 3 8.42215 7.72447 1.05828
182 3 8.41838 9.82854 2.93546
187 3 8.22284 8.32383 6.03518
191 3 7.4667 11.1471 5.0125
192 3 4.76231 10.7415 4.90272
193 3 6.32907 10.0539 7.16795
194 3 5.80534 12.65 6.31612
91 1 6.22945 9.59175 1.04979
365 2 6.31408 10.7071 1.25454
277 2 5.33834 9.04239 1.61003
316 2 6.96331 11.9204 0.868859
174 3 10.6604 7.4297 4.5254
294 2 10.1682 7.81615 1.44045
275 2 7.46213 6.79055 3.99322
282 2 4.0088 10.7333 0.0466277
276 2 5.90464 6.89818 2.76311
92 1 3.52015 9.66212 8.3911
259 2 2.37736 9.43567 5.669
139 3 0.646852 12.2454 6.88144
364 2 9.79863 6.73776 8.082
186 3 6.96828 7.93288 8.41747
329 2 8.96394 10.0438 -0.0151001
286 2 7.18259 8.86107 10.9894
272 2 10.3689 8.54211 12.1576
167 3 11.0364 6.67129 16.2043
227 2 5.54952 6.52488 15.6342
285 2 7.14107 9.44792 12.8042
60 4 3.68859 11.3227 9.31208
62 4 3.60522 10.915 14.9647
366 2 6.94139 9.10671 16.9436
273 2 9.60085 7.36878 13.3766
190 3 2.27682 11.3054 10.3455
195 3 3.1163 9.77473 13.9052
197 3 2.31744 11.2244 16.0063
196 3 4.34987 12.1605 14.4078
53 4 6.71352 6.64919 9.37377
347 2 7.79469 12.4449 16.4067
283 2 5.95697 10.6383 15.6999
331 2 9.91397 10.2959 15.2118
352 2 8.78602 6.44779 14.6204
337 2 8.30564 12.185 13.5
339 2 9.06235 10.6489 12.4236
334 1 8.92734 10.9843 13.5154
47 4 5.32805 13.0835 13.5027
335 2 8.28738 10.1789 14.0408
141 3 3.62969 7.95969 12.0398
178 3 11.2078 6.88229 10.4248
248 2 8.39629 8.5998 15.2154
249 2 6.69576 7.99004 15.6812
81 1 7.25095 8.72773 14.9752
173 3 5.54604 7.00235 10.4994
235 2 6.99679 9.79987 15.3433
250 2 7.00225 8.52079 13.8808
33 4 4.32118 6.77057 11.3695
16 4 9.24205 10.8618 9.4741
63 4 6.44144 11.1995 11.0849
89 1 9.48611 7.87364 12.3391
93 1 4.97195 10.1599 16.0345
94 1 6.67884 9.46994 11.8023
198 3 7.77782 11.4789 10.2314
199 3 5.03253 11.1834 10.1543
200 3 6.13424 12.034 12.429
271 2 8.41171 8.46768 12.1661
281 2 4.97525 8.98312 15.8058
284 2 5.52995 9.14453 11.938
74 1 5.65947 6.59832 16.7729
349 2 9.16331 11.307 16.8142
279 2 4.2949 8.84215 8.59877
330 2 10.8328 8.76713 15.9246
ITEM: TIMESTEP
100
ITEM: NUMBER OF ATOMS
366
ITEM: BOX BOUNDS xy xz yz pp pp pp
-8.3370488766021680e+00 1.6684150499081433e+01 -8.4375460746530955e+00
-3.4040069833810205e-01 1.3444835739784946e+01 6.5974769713251458e-01
-8.0556304019379965e-02 1.6989556304019288e+01 -3.1796495855315698e-01
ITEM: ATOMS id type x y z
254 2 -2.5378 5.59806 3.54885
244 2 2.61576 5.08724 7.67904
208 2 -2.56737 6.22984 7.31577
67 1 -2.30235 5.33867 6.63188
359 2 -1.26055 4.09774 0.391106
291 2 -0.149952 4.73205 3.52915
317 1 -1.82849 4.99854 0.840653
3 4 0.870981 2.91521 4.77544
8 4 -0.905344 4.26867 7.34225
64 1 0.574966 3.96296 3.24394
98 3 0.221421 3.68741 5.9541
114 3 2.44189 2.38429 4.66371
201 2 -0.0486915 3.00562 2.72281
202 2 1.4405 4.41684 2.62015
203 2 1.44037 2.74844 1.87999
310 1 1.95064 0.776318 6.95332
338 1 2.05344 2.06034 1.08985
341 2 2.37395 2.69292 0.234333
344 2 3.5498 4.71215 1.05424
340 2 2.94617 1.66587 1.66793
78 1 1.98452 6.35078 5.63433
342 1 2.86903 5.58802 1.3077
239 2 2.14059 5.81838 4.37413
311 2 1.69046 0.367206 5.97167
358 2 1.44218 1.15411 0.814056
345 2 1.76831 5.25515 1.17934
312 2 2.49949 1.7571 6.96689
216 2 3.41302 0.376925 2.51986
204 2 0.509108 0.390762 5.23116
343 2 3.15905 6.09843 2.33459
210 2 2.88104 0.564474 -0.0690902
207 2 -1.96354 5.58785 5.61417
313 2 1.02982 0.854843 7.67412
241 2 1.37788 5.74624 6.34715
125 3 -0.0806812 5.39887 8.27759
65 1 -0.243961 1.21392 4.91888
318 2 -1.32047 5.48893 1.77147
29 4 5.52625 4.25117 7.62974
31 4 3.7802 6.28865 5.72428
70 1 4.42794 0.824719 2.95133
21 4 4.10175 2.26443 4.27427
219 2 3.61818 4.56086 3.31018
220 2 4.88758 3.34811 2.49203
126 3 4.57337 5.11428 6.4946
71 1 4.53045 3.88076 3.4842
336 2 -0.784574 2.70269 0.606781
362 2 5.2301 1.01032 2.14123
115 3 6.58023 1.42733 1.0403
118 3 5.24571 1.92164 5.36054
119 3 7.50957 0.971367 6.87535
20 4 7.60766 0.0322895 1.65592
97 3 -1.59009 3.04438 8.02313
25 4 6.86456 2.07154 5.93001
23 4 8.29171 -0.151313 7.86318
218 2 5.29999 4.46737 4.11956
217 2 4.79034 0.128082 3.87196
128 3 3.00956 6.33101 15.7341
102 3 -2.25819 5.92325 10.3819
121 3 5.72991 1.82471 10.6248
315 2 0.808784 1.1885 16.5597
296 4 4.62702 2.23138 14.9852
363 2 0.882661 3.07898 16.284
6 4 1.3673 1.92871 10.7204
10 4 0.264604 3.97202 13.1109
95 3 0.265264 1.97076 9.58387
96 3 1.38519 0.397669 11.4441
99 3 -0.553267 3.02131 14.2309
100 3 0.871415 3.05267 11.8646
103 3 -0.828129 4.95106 12.4542
117 3 2.89071 2.41664 10.1753
127 3 1.53431 4.77081 14.0136
314 1 0.28275 2.15472 16.6272
7 4 -0.946767 6.11877 16.6973
300 2 2.21653 2.06429 13.4654
30 4 0.962871 6.2377 9.08053
297 1 2.21233 1.12403 14.012
79 1 2.75753 5.52217 8.75339
32 4 1.59781 6.16223 14.811
206 2 1.31501 0.992968 14.6948
230 2 2.57931 4.6509 9.52017
302 2 2.56099 2.98996 15.4496
12 4 -1.1989 6.28616 11.6011
120 3 5.75251 2.04041 16.0752
298 1 3.56416 3.54279 15.7131
242 2 1.13385 5.72574 11.4915
299 2 3.60369 0.830079 14.855
304 2 3.48752 4.07088 16.6557
122 3 7.42452 0.441963 12.3393
129 3 0.40612 6.20154 15.8817
116 3 4.14072 0.668366 8.67225
243 2 3.73398 6.03645 8.88781
234 2 3.44323 5.54187 10.6367
101 3 -2.32077 6.22063 15.8279
303 2 3.83903 4.29966 14.8062
130 3 3.88678 4.14314 12.4613
301 2 5.29532 2.38788 13.3612
123 3 4.66882 3.28357 8.52673
24 4 4.34622 2.1148 9.52357
76 1 4.58743 5.13932 12.3976
4 4 1.96999 -0.153474 12.8029
9 4 -3.45332 6.3937 9.4692
27 4 7.13627 1.7705 11.4852
211 2 5.11818 -0.320709 16.1421
290 2 -2.33397 7.35084 4.33434
36 4 0.509279 11.298 -0.0533098
361 2 -5.29526 10.6421 2.13985
333 2 -3.4365 10.6984 1.93918
332 1 -4.4532 11.2704 1.80568
327 2 -6.15201 12.842 3.03133
15 4 -2.78771 9.09088 7.3313
17 4 -4.2899 11.0555 5.66478
106 3 -5.76514 10.9632 4.85357
107 3 -4.00482 9.78525 6.61502
108 3 -4.4405 12.3679 6.56534
133 3 -2.93588 11.3328 4.73778
360 2 -4.3722 12.3266 2.27325
293 2 -4.51339 9.25603 1.71907
256 2 -2.54933 9.29487 2.94877
321 2 -2.75977 8.1871 1.10242
1 4 -5.24014 13.0898 7.84555
295 2 -4.35606 7.45239 0.982484
213 2 -2.327 8.90988 5.10479
322 2 -1.39318 9.0109 0.0396547
324 1 -7.16818 12.4909 3.03073
289 1 -4.79709 8.12142 1.73158
292 2 -2.3239 7.21923 2.39153
139 3 0.552878 12.1928 7.04989
323 2 -0.848973 7.97214 1.63062
255 2 -1.78178 10.3375 1.60109
240 2 1.66464 7.63932 5.64494
215 2 -0.553745 8.81499 5.97192
69 1 -1.63869 8.37968 5.92914
132 3 -1.91182 12.5579 2.43269
253 2 1.76785 7.37276 2.89035
214 2 -1.81287 7.23288 6.05603
83 1 -1.64993 9.88943 2.57986
34 4 2.0986 9.53433 1.86678
35 4 -1.66508 11.4088 3.76604
28 4 3.16361 7.02522 0.00442414
82 1 1.11129 8.30482 2.96698
84 1 1.35659 9.56491 5.93323
237 2 1.77499 7.68591 8.07033
134 3 0.972117 10.4543 1.24894
138 3 -0.271424 11.4535 4.60966
251 2 0.111673 7.92385 2.6364
252 2 -0.599372 9.32793 2.73512
257 2 1.18423 8.76427 4.0786
258 2 0.959126 9.2819 6.97135
354 3 -0.0523287 12.7321 0.47594
135 3 -1.73694 10.0918 8.01809
104 3 -3.03396 7.57466 8.34384
320 1 -1.64914 8.08328 0.737422
38 4 1.02021 11.3441 5.59545
325 2 -7.76563 13.3571 3.71024
348 2 -7.6969 13.3278 0.462274
326 2 -7.56184 12.4355 1.94112
288 1 -2.71346 6.72473 3.45304
238 2 0.754452 8.76822 9.9029
144 3 -0.893473 12.0685 14.4977
68 1 -4.43101 12.8753 16.4036
212 2 -5.1203 12.5814 15.455
147 3 1.33154 9.23134 11.8796
357 2 -5.6729 11.0983 14.0267
105 3 -6.15446 12.1508 8.70035
14 4 -4.07241 11.1173 16.8581
18 4 -2.54117 8.69819 13.1492
19 4 -4.1169 10.6348 11.1713
109 3 -3.61236 7.98451 14.2039
112 3 -3.50564 9.56349 12.1089
113 3 -3.83971 12.5122 13.3441
137 3 -3.12629 11.0752 10.0799
145 3 -2.68722 10.7266 16.0755
66 1 -4.29332 12.4122 12.2017
111 3 -5.51619 10.2749 10.617
356 2 -4.04865 13.0119 11.1883
146 3 -0.537161 10.7103 10.4096
26 4 -0.0821131 12.9126 13.2752
232 2 -0.45901 8.3799 8.63878
328 1 -5.53486 9.84154 16.2736
75 1 0.577252 8.68055 8.81594
136 3 -1.31161 12.6596 8.83886
236 2 0.902991 7.6673 11.2729
330 2 -4.75336 9.04919 16.0159
110 3 -1.75857 7.53626 12.3951
142 3 -1.52384 9.60772 13.9668
37 4 -1.72685 11.0765 9.35948
39 4 2.29841 8.6399 12.9544
40 4 -1.31063 10.6689 15.1578
41 4 0.836002 10.9014 11.1629
140 3 1.7053 7.41362 13.7738
143 3 -0.0592088 10.116 16.1459
331 2 -6.00997 10.4239 15.2519
148 3 0.818499 11.9387 12.4229
77 1 0.567625 6.54188 10.9459
231 2 0.699055 9.73051 8.45525
309 2 15.0559 0.697476 1.32117
42 4 8.98932 2.01934 3.56285
72 1 6.40725 4.18128 0.651177
86 1 8.43199 5.61619 5.03715
124 3 6.83681 3.45831 6.8598
149 3 8.63071 0.710777 2.65292
150 3 7.76572 2.18677 4.70497
164 3 8.92407 3.29006 2.5887
168 3 9.35913 4.95974 0.433631
50 4 10.0756 4.22684 1.72014
305 4 12.7661 0.187509 1.77196
266 2 8.88177 4.96458 6.90039
265 2 8.80452 4.61184 5.40096
87 1 9.05755 4.43948 8.03473
263 2 8.55916 5.71492 3.81594
221 2 6.9247 4.08523 1.68829
268 2 8.60358 3.38084 8.13604
264 2 7.42716 5.8608 5.35464
355 2 14.9868 1.50051 5.77478
209 2 12.7122 4.63172 6.55775
44 4 13.1336 -0.0238116 7.48886
155 3 10.3219 1.85184 4.47406
205 2 15.1225 1.07867 3.83607
308 2 14.0725 1.97649 2.60669
228 2 5.56862 6.01859 0.174346
261 2 13.9327 2.24006 4.55205
52 4 10.8471 3.91489 8.13383
262 2 12.8858 3.95207 4.69608
46 4 11.4857 2.23374 5.50509
85 1 12.8977 2.80417 4.36245
156 3 12.2121 1.07446 6.41192
165 3 11.2759 3.3695 1.18439
166 3 10.7185 5.39794 2.78503
170 3 11.1113 3.61331 6.54654
260 2 12.2963 2.56298 3.37541
307 3 11.8063 0.636134 0.636883
306 1 14.1708 0.98836 1.95565
270 2 11.1776 6.29328 6.77627
319 2 12.9887 4.81082 1.05842
222 2 5.35579 4.42822 0.733752
364 2 9.74977 6.55765 7.99774
352 2 8.67329 6.27281 14.5388
163 3 13.02 0.830849 12.7763
267 2 8.77306 5.13614 8.95093
51 4 9.76515 6.01955 16.7927
172 3 6.15179 5.37184 8.55009
45 4 9.93837 1.61229 9.95906
48 4 9.73918 1.86939 14.97
73 1 7.06854 3.06152 12.8744
154 3 8.59542 2.24351 10.6355
158 3 9.38462 0.562304 14.087
160 3 8.45559 2.14301 15.9077
180 3 9.98964 4.9925 11.8972
224 2 6.13627 3.8359 12.6223
225 2 8.07451 3.56377 12.6986
226 2 7.00904 2.49427 13.8155
350 1 8.46413 5.69856 15.4549
351 2 8.46505 4.62453 15.324
153 3 9.3469 0.664963 8.69472
175 3 10.0379 3.24822 14.0315
353 2 7.45183 6.11664 15.9078
176 3 11.9167 3.18156 12.2928
233 2 5.57263 5.74188 13.0044
161 3 13.6392 2.17358 10.5395
177 3 11.8074 5.30956 13.9748
171 3 11.7505 5.1692 8.72304
169 3 10.7721 2.65872 9.08094
162 3 10.9694 1.00214 10.9684
2 4 14.5292 1.90343 9.29847
5 4 14.7874 1.99611 15.335
49 4 12.4489 1.84494 11.7032
55 4 11.0579 4.18471 13.1441
151 3 13.4638 2.3984 16.1795
157 3 14.8652 0.355847 14.7068
159 3 11.0498 1.54978 15.8662
223 2 7.55572 4.52768 16.8891
179 3 8.17681 6.36116 10.0963
152 3 14.0067 0.439821 8.71372
56 4 9.84091 6.33678 11.1363
22 4 7.24837 2.12725 16.8996
43 4 12.1525 1.88765 16.944
188 3 8.78656 9.79716 8.38863
58 4 3.64735 11.3625 3.83324
183 3 3.07502 10.2624 2.83358
185 3 2.4637 11.7305 4.9208
269 2 10.6888 8.10519 7.41629
189 3 3.62468 12.4492 8.26596
280 2 3.75929 10.071 7.35026
287 4 11.3665 6.8611 3.1584
184 3 4.06954 12.5795 2.8661
229 2 5.55346 7.99974 0.16962
88 1 10.3377 7.01762 7.13796
186 3 6.85763 7.92164 8.23224
346 1 7.6228 12.4576 0.0739734
247 2 4.31987 8.48113 6.9651
245 2 4.36002 8.40426 4.96194
274 2 5.95585 8.23723 3.68582
246 2 5.81352 7.63655 6.03651
80 1 4.70991 7.87173 5.98823
13 4 8.74618 10.8958 4.02343
54 4 9.37273 7.32272 5.57151
57 4 7.55234 8.52999 2.0467
59 4 7.60447 9.16235 7.44934
61 4 6.06255 11.257 5.8256
90 1 6.45972 7.35232 3.14907
181 3 8.2221 7.55343 0.98968
182 3 8.50567 9.6157 2.92107
187 3 8.29152 8.39429 5.99082
191 3 7.54278 11.3253 4.94015
192 3 4.90576 10.6943 4.75905
193 3 6.32532 10.1889 7.01894
194 3 5.56814 12.6619 6.42994
91 1 6.40796 9.66083 0.990956
365 2 6.39783 10.7923 1.18821
277 2 5.43095 9.10728 1.42974
316 2 6.94112 12.0088 0.934946
174 3 10.6156 7.54143 4.43899
294 2 9.99512 8.03241 1.57451
275 2 7.13866 6.71448 3.89702
282 2 3.84001 10.4843 0.0237458
276 2 5.77674 6.69164 2.5895
131 3 2.87909 8.50268 0.65168
329 2 8.9662 9.80661 -0.0572115
259 2 2.48563 9.55614 5.84498
286 2 7.12137 8.90005 10.8365
272 2 10.3829 8.41652 12.0725
167 3 11.0013 6.64659 16.0121
227 2 5.63273 6.63839 15.6265
285 2 7.18394 9.19768 12.7883
60 4 3.49888 11.3741 9.4491
62 4 3.47681 10.9385 14.9941
279 2 4.55115 9.175 8.84159
273 2 9.45087 7.35774 13.292
190 3 2.17404 11.2104 10.2467
195 3 2.86213 9.76311 13.9746
197 3 2.41801 11.475 16.106
196 3 4.36827 11.9938 14.1686
53 4 6.72846 6.70635 9.33078
347 2 7.56518 12.4255 16.1929
283 2 5.91346 10.2561 15.7372
92 1 3.65119 9.72759 8.50546
366 2 7.26419 9.11585 16.9022
337 2 8.18023 12.2716 13.8143
339 2 9.39939 10.7689 12.4459
334 1 9.24927 11.0162 13.5081
47 4 5.43493 13.1372 13.5201
335 2 8.61843 10.2381 14.0307
141 3 3.5939 7.88032 12.0581
178 3 11.118 6.85931 10.2612
248 2 8.70822 9.03311 15.5379
249 2 7.00438 7.96524 15.5389
81 1 7.57311 8.71208 14.9433
173 3 5.62767 7.07923 10.4294
235 2 6.87003 9.67031 14.8948
250 2 7.77714 8.37496 13.832
33 4 4.41467 6.76553 11.3385
16 4 9.26293 10.8293 9.42513
63 4 6.42021 11.2892 11.1409
89 1 9.46484 7.77758 12.265
93 1 4.76933 9.94356 16.0217
94 1 6.6801 9.47541 11.7085
198 3 7.75874 11.2263 10.2983
199 3 4.91783 11.2721 10.3976
200 3 6.41669 12.2922 12.4532
271 2 8.41574 8.38388 12.0227
281 2 4.54761 8.88363 15.7135
284 2 5.45754 9.23237 11.7021
74 1 5.74883 6.70617 16.8046
349 2 9.03725 11.2905 16.7611
11 4 12.1932 6.52724 14.8885
278 2 2.51705 9.24937 8.71933
ITEM: TIMESTEP
200
ITEM: NUMBER OF ATOMS
366
ITEM: BOX BOUNDS xy xz yz pp pp pp
-8.3370488766021680e+00 1.6684150499081433e+01 -8.4375460746530955e+00
-3.4040069833810205e-01 1.3444835739784946e+01 6.5974769713251458e-01
-8.0556304019379965e-02 1.6989556304019288e+01 -3.1796495855315698e-01
ITEM: ATOMS id type x y z
254 2 -2.78621 5.62216 3.37263
244 2 2.52046 4.74071 7.91595
208 2 -2.52082 6.20279 7.14963
67 1 -2.2329 5.30971 6.45823
359 2 -1.19687 4.00724 0.246445
291 2 -0.556218 4.4863 3.69815
317 1 -1.7943 4.93933 0.578935
3 4 0.797952 2.88924 4.8682
8 4 -0.808198 4.28678 7.29192
64 1 0.291751 3.81431 3.26971
98 3 0.106796 3.68589 6.06854
114 3 2.38293 2.52976 4.78241
201 2 -0.065279 2.81233 2.73825
202 2 1.1041 4.36689 2.68466
203 2 1.43909 2.68262 1.99259
310 1 1.9828 0.850473 6.94368
338 1 2.01678 2.0011 1.3297
341 2 2.34476 2.65127 0.308753
344 2 3.20978 4.58007 1.28828
340 2 3.05309 1.67563 1.85662
78 1 2.11945 6.40499 5.54915
342 1 2.7923 5.60122 1.35952
239 2 2.33128 5.87719 4.2896
311 2 2.25874 0.445097 5.7966
358 2 1.35585 1.1256 0.990165
345 2 1.68177 5.6432 1.41006
312 2 2.38134 1.89216 7.16439
216 2 3.42647 0.285615 2.59473
204 2 0.542436 0.346724 5.22075
343 2 3.1652 6.17602 2.23598
210 2 2.84652 0.573162 0.18333
207 2 -1.75191 5.5371 5.50156
313 2 0.879115 0.701079 7.11874
241 2 1.5353 5.6383 6.15598
125 3 -0.0327357 5.25867 8.21733
65 1 -0.145654 1.13809 4.895
318 2 -1.36121 5.40184 1.53554
23 4 8.26582 -0.161817 7.79592
31 4 3.87973 6.26385 5.789
70 1 4.36038 0.709035 3.06633
21 4 4.13604 2.18252 4.31456
219 2 3.71393 4.51931 3.36772
220 2 4.88147 3.40865 2.40464
126 3 4.59011 4.99856 6.38961
71 1 4.6076 3.80823 3.44029
336 2 -0.831272 2.41947 0.588113
362 2 5.21252 0.922687 2.29318
115 3 6.59057 1.3512 1.18374
118 3 5.27797 1.84693 5.42664
119 3 7.4585 0.868669 6.81548
20 4 7.64188 0.116012 1.77636
217 2 4.72129 -0.0161428 3.83994
325 2 0.725996 -0.0762253 3.53125
222 2 5.18412 4.27348 0.62706
123 3 4.76184 3.10672 8.37808
97 3 -1.56041 3.21009 8.08665
128 3 3.02795 6.35475 15.7588
102 3 -2.34082 5.93883 10.4705
121 3 5.69501 1.98025 10.4879
315 2 0.944624 1.10011 16.7006
296 4 4.6221 2.24833 14.9856
363 2 0.981833 2.86737 16.4186
6 4 1.34802 2.10781 10.8076
10 4 0.301146 3.87911 13.2155
95 3 0.221213 2.0673 9.66897
96 3 1.49466 0.648257 11.478
99 3 -0.44692 2.82931 14.2459
100 3 0.851446 3.12006 11.9742
103 3 -0.827555 4.92186 12.6034
117 3 2.88724 2.41682 10.2894
127 3 1.46919 4.728 13.9946
314 1 0.351291 2.016 16.7142
7 4 -1.01862 6.15264 16.5585
300 2 2.16635 2.0722 13.8511
30 4 0.874616 6.22605 9.03454
297 1 2.27922 1.00262 14.1503
79 1 2.62166 5.42181 8.81611
32 4 1.53434 6.15673 14.79
206 2 1.38 0.552738 14.8004
230 2 2.40099 4.82496 9.82639
302 2 2.58802 2.91785 15.7576
12 4 -1.30922 6.19701 11.6757
120 3 5.82442 1.96763 15.9937
298 1 3.56723 3.53548 15.7825
242 2 1.31669 5.77898 11.1499
299 2 3.62923 0.75681 14.6776
304 2 3.59139 4.17626 16.7564
122 3 7.14524 0.394411 12.2882
129 3 0.229647 6.061 15.6999
116 3 3.9873 0.61921 8.88108
243 2 3.54326 6.079 8.7071
234 2 3.34971 6.04779 10.5293
101 3 -2.46274 6.2364 15.8218
303 2 3.66209 4.25155 14.7581
130 3 3.98529 4.17711 12.3415
301 2 5.3256 2.60024 13.4476
22 4 7.16938 2.06261 16.9822
24 4 4.29596 2.11458 9.5308
76 1 4.62671 5.22365 12.4782
4 4 2.0904 -0.0338144 12.7166
9 4 -3.59113 6.40564 9.54583
27 4 7.16334 1.76267 11.5229
211 2 5.04174 -0.24326 16.1627
77 1 0.361106 6.47674 10.9285
290 2 -2.5187 7.36521 4.35418
348 2 -7.68202 13.425 0.283668
361 2 -5.32283 10.9575 1.92068
333 2 -3.38199 10.5638 2.08724
332 1 -4.25647 11.2863 1.68938
327 2 -5.97882 12.8441 2.78181
15 4 -2.77002 9.05477 7.41236
17 4 -4.31023 11.0598 5.69879
106 3 -5.56546 11.048 4.65183
107 3 -4.109 9.70402 6.60988
108 3 -4.37744 12.3874 6.65678
133 3 -2.99729 11.3389 4.71162
360 2 -4.10184 12.3515 2.08788
293 2 -4.49868 9.27769 1.78893
256 2 -2.4417 9.20897 2.99881
321 2 -2.73177 8.20777 1.06972
1 4 -5.32347 13.1873 7.97288
295 2 -4.13405 7.73451 0.611579
213 2 -2.48358 8.87256 5.11243
322 2 -1.23458 8.98553 0.0463639
324 1 -7.12003 12.5875 2.88316
289 1 -4.70924 8.06787 1.55787
292 2 -2.24677 7.27739 2.40328
139 3 0.65563 12.026 6.96537
323 2 -0.841097 8.07183 1.54178
255 2 -1.71611 10.3067 1.70265
240 2 1.77392 7.57307 5.60693
215 2 -0.603693 8.88593 5.85847
69 1 -1.73068 8.45179 5.92521
132 3 -1.7561 12.6199 2.7957
253 2 1.90479 7.34576 3.03546
214 2 -1.85234 7.23947 6.05502
83 1 -1.59414 9.82244 2.78343
34 4 2.08271 9.43445 1.88209
35 4 -1.65177 11.4234 3.82685
28 4 3.16692 7.02375 0.0428758
82 1 1.16078 8.21091 2.9888
84 1 1.32341 9.56031 5.8626
237 2 1.54384 7.67636 7.88161
134 3 0.958499 10.3966 1.03787
138 3 -0.216144 11.3518 4.5408
251 2 0.160412 7.84226 2.48766
252 2 -0.601404 9.22031 2.8235
257 2 1.11836 8.72358 4.0737
258 2 0.962708 9.17808 6.9149
354 3 -0.289469 12.6782 0.354172
135 3 -1.81592 10.1278 8.16534
104 3 -3.12711 7.59579 8.37889
320 1 -1.60116 8.10255 0.70376
38 4 1.07997 11.3209 5.52126
288 1 -2.7379 6.7833 3.36948
326 2 -7.57752 12.4978 1.79555
231 2 0.697501 9.67712 8.43188
238 2 0.868761 8.6531 9.93628
144 3 -0.822711 12.2787 14.5436
68 1 -4.42672 12.8857 16.5721
212 2 -5.09701 12.602 15.6445
147 3 1.26473 9.37287 11.8778
357 2 -5.72093 11.1089 14.0028
105 3 -6.24654 12.0854 8.6301
14 4 -3.9162 11.1051 16.8639
18 4 -2.61416 8.72424 13.1789
19 4 -4.26844 10.7453 11.0402
109 3 -3.56403 7.95915 14.2354
112 3 -3.54344 9.7158 12.1111
113 3 -3.83491 12.5056 13.286
137 3 -3.20586 11.1353 9.98622
145 3 -2.54878 10.8385 16.1088
66 1 -4.37791 12.4683 12.1681
111 3 -5.7185 10.3814 10.5926
356 2 -4.09655 13.0586 11.0774
146 3 -0.444286 10.6285 10.3364
26 4 0.0130653 13.086 13.3828
232 2 -0.523709 8.30857 8.72549
328 1 -5.49221 9.82865 16.2509
75 1 0.584739 8.60012 8.82138
136 3 -1.2629 12.6323 8.80673
236 2 0.570429 7.57715 11.2717
36 4 1.13225 11.0534 16.9453
110 3 -1.74813 7.54778 12.4229
142 3 -1.58156 9.70469 13.8251
37 4 -1.67122 11.2116 9.45642
39 4 2.31918 8.54038 12.962
40 4 -1.14097 10.7137 15.0265
41 4 0.915396 10.7668 11.3053
140 3 1.44064 7.46546 13.7123
143 3 -0.0312629 9.99544 16.067
330 2 -4.9382 8.92489 16.0083
148 3 0.733653 11.9858 12.4341
331 2 -5.8682 10.1979 15.1909
278 2 2.45368 9.29209 8.54123
309 2 15.2079 0.192017 1.60726
42 4 9.02447 1.95378 3.66546
72 1 6.25262 4.13504 0.544834
86 1 8.259 5.58044 5.1013
124 3 6.84537 3.55175 6.79556
149 3 8.92764 0.656012 2.65103
150 3 7.71721 2.24556 4.56333
164 3 9.11146 3.3179 2.70841
168 3 9.2832 4.92852 0.423266
50 4 10.1374 4.20672 1.65055
305 4 12.9239 0.0822609 1.79404
266 2 8.74477 4.94045 6.95176
265 2 8.98377 4.7794 5.32195
87 1 8.97911 4.47424 8.01877
263 2 7.81935 5.37983 4.07636
221 2 6.85055 4.13386 1.56986
268 2 8.38547 3.48713 8.15928
264 2 7.39978 5.59639 5.92191
355 2 14.9827 1.26668 5.67843
209 2 12.7995 4.61131 6.36151
44 4 13.0925 -0.0623244 7.50534
155 3 10.4014 1.77142 4.70567
205 2 15.3098 0.965275 3.85884
308 2 14.2548 2.04065 2.17177
228 2 5.54183 6.00323 0.142183
261 2 14.0347 2.07955 4.45655
52 4 10.8219 3.98384 8.09003
262 2 12.9625 3.71526 4.64442
46 4 11.6404 2.05414 5.5827
85 1 12.9865 2.62683 4.32014
156 3 12.2646 1.01878 6.63492
165 3 11.0693 3.13576 0.987682
166 3 10.9415 5.44637 2.37586
170 3 11.2883 3.59601 6.54461
260 2 12.4087 2.41074 3.33173
307 3 12.0739 0.762057 0.704555
306 1 14.3323 0.827863 2.07378
270 2 11.0756 6.56032 6.83911
319 2 13.0277 4.67843 0.699746
29 4 5.68919 4.22436 7.61509
25 4 6.9223 2.06117 5.88105