ITEM: TIMESTEP
0
ITEM: NUMBER OF ATOMS
366
ITEM: BOX BOUNDS xy xz yz pp pp pp
-8.3370488766021680e+00 1.6854851625161821e+01 -8.4375460746530955e+00
-3.3722104875257047e-01 1.3310163024989247e+01 8.3044882321290159e-01
-8.0556304019379965e-02 1.6989556304019288e+01 -3.1478530896762541e-01
ITEM: ATOMS id type x y z
254 2 -2.56236 5.42548 3.43736
244 2 2.83607 4.81042 7.72941
208 2 -2.44701 6.08614 7.28921
67 1 -2.21327 5.24188 6.54154
359 2 -1.12348 4.04079 0.258105
291 2 0.210483 4.91058 3.87688
317 1 -1.67289 5.04419 0.777689
3 4 0.87752 2.84959 4.7544
8 4 -0.746197 4.13686 7.20874
64 1 0.673542 4.07695 3.31088
98 3 0.229419 3.53716 6.0281
114 3 2.43236 2.4377 4.5931
201 2 -0.148263 3.40863 2.79378
202 2 1.48892 4.50977 2.55084
203 2 1.37676 2.76473 1.83715
310 1 1.88871 0.760593 7.12152
338 1 1.91316 2.02157 1.13207
341 2 2.28983 2.68398 0.179946
344 2 3.6832 4.80756 1.26544
340 2 2.80078 1.54698 1.76869
78 1 2.19311 6.37199 5.68401
342 1 2.72089 5.50074 1.30869
239 2 2.23278 5.92577 4.34481
311 2 1.93996 0.665373 6.04587
358 2 1.13385 1.21916 0.846456
345 2 1.75594 5.1451 0.804811
312 2 1.98616 1.80853 7.44692
216 2 3.34054 0.286427 2.44622
325 2 0.873903 -0.0332064 3.6683
343 2 2.53355 5.97872 2.2772
210 2 2.63483 0.433255 0.124135
207 2 -1.67599 5.60315 5.59738
313 2 0.997618 0.169969 7.56909
241 2 1.74154 5.54322 6.39284
125 3 0.0761049 5.21515 8.17498
65 1 -0.316012 1.19094 4.78037
318 2 -0.960983 5.52682 1.57577
29 4 5.57782 4.23155 7.67715
31 4 3.97273 6.19392 5.65985
70 1 4.25528 0.725593 2.89321
21 4 4.11096 2.19455 4.29393
219 2 3.86548 4.50283 3.60027
220 2 4.93442 3.26941 2.51327
126 3 4.66034 5.02142 6.55233
71 1 4.71143 3.75702 3.56773
336 2 -0.936041 2.57632 0.390364
362 2 4.98118 0.997882 2.042
115 3 6.46788 1.37484 0.976696
118 3 5.18268 1.7239 5.45172
119 3 7.51795 0.961264 6.93997
20 4 7.59604 0.171805 1.68153
97 3 -1.47166 3.17357 8.22464
25 4 6.76985 2.08525 5.99127
222 2 5.32967 4.28994 0.789823
319 2 -2.75235 4.8727 0.996779
217 2 4.778 0.082158 3.68922
23 4 8.34348 -0.0853144 7.92378
288 1 -2.70774 6.54042 3.37823
218 2 5.67168 3.9737 4.14442
128 3 3.10222 6.2616 15.6552
102 3 -2.11993 5.88138 10.2135
121 3 5.71419 1.91106 10.6178
315 2 0.905362 1.13019 16.3574
296 4 4.90665 2.25346 14.8701
363 2 1.13785 2.92374 16.1867
6 4 1.43419 1.99367 10.6926
10 4 0.229456 3.99036 13.1602
95 3 0.400231 1.77564 9.50574
96 3 1.54816 0.546047 11.5479
99 3 -0.475773 3.00354 14.1426
100 3 0.984383 3.07052 11.8164
103 3 -0.840041 5.01406 12.6198
117 3 2.96678 2.05118 10.1701
127 3 1.61559 4.8117 13.9132
314 1 0.41114 2.14267 16.4552
7 4 -0.804112 6.14489 16.6661
300 2 2.404 2.0915 13.3406
30 4 1.10499 6.13708 9.05723
297 1 2.41461 1.09537 13.9285
79 1 2.75732 5.23337 8.76038
32 4 1.7862 6.12608 14.6903
206 2 1.44695 0.885104 14.5713
230 2 2.53956 4.4726 9.64069
302 2 2.76367 2.7532 15.5172
12 4 -1.17957 6.16044 11.5136
120 3 5.96203 2.11313 15.9713
298 1 3.73977 3.47211 15.6379
242 2 1.29092 5.83482 11.5261
299 2 3.91399 0.776096 14.6337
304 2 3.68723 4.02736 16.6313
122 3 7.56893 0.381736 12.2461
129 3 0.582022 6.17192 15.8926
116 3 4.46304 0.697738 8.55998
243 2 3.6209 5.94517 9.00106
234 2 3.17796 5.71817 10.6807
101 3 -2.23078 6.18114 15.8488
303 2 3.93191 4.24715 14.6983
130 3 4.08208 4.23647 12.3946
301 2 5.59645 2.43859 13.2842
123 3 4.69645 3.34327 8.65573
24 4 4.51974 2.03553 9.61962
76 1 4.79826 5.2017 12.5483
4 4 2.23893 -0.169337 12.7426
9 4 -3.41614 6.33308 9.45325
22 4 7.32301 2.10898 16.8456
27 4 7.35007 1.71801 11.4242
290 2 -2.43975 7.12027 4.32742
36 4 0.448374 11.2609 -0.0192151
361 2 -5.36339 10.5347 2.01085
333 2 -3.47759 10.5614 2.03436
332 1 -4.42305 11.1161 1.69912
327 2 -5.87377 12.5455 3.18231
15 4 -2.59618 8.97348 7.28271
17 4 -4.22409 10.9499 5.69992
106 3 -5.76444 10.6606 4.82985
107 3 -3.78906 9.74685 6.7028
108 3 -4.41798 12.2507 6.52683
133 3 -3.14799 11.1229 4.59225
360 2 -4.38028 12.2151 2.06839
293 2 -4.55465 9.08334 1.77361
256 2 -2.60149 9.28713 3.07493
321 2 -2.76585 8.15245 1.19815
231 2 0.550426 9.59045 8.38648
295 2 -4.00505 7.44051 0.823282
213 2 -2.22142 8.58062 4.85155
322 2 -1.32339 8.89556 0.135608
324 1 -7.01677 12.4581 3.1434
289 1 -4.64659 7.90183 1.68985
292 2 -2.30413 7.06514 2.39306
348 2 -7.68798 13.2505 0.603922
323 2 -0.907415 7.71356 1.61314
255 2 -1.76333 10.3488 1.67006
240 2 1.82016 7.52416 5.86701
215 2 -0.527981 8.69729 5.83412
69 1 -1.70837 8.27627 5.79435
132 3 -1.80784 12.6282 2.58409
253 2 1.8066 7.22074 2.93647
214 2 -1.8639 7.10619 6.03338
83 1 -1.59724 9.82628 2.70441
34 4 1.97992 9.28277 1.85209
35 4 -1.68402 11.3827 3.76861
28 4 3.04467 6.89358 -0.0333917
82 1 1.09739 8.10593 2.99892
84 1 1.31097 9.48788 5.90868
131 3 2.70789 8.26487 0.77732
134 3 0.909737 10.3208 1.23681
138 3 -0.348325 11.209 4.56653
251 2 0.0447329 7.77482 2.76418
252 2 -0.584302 9.17238 2.75512
257 2 1.1966 8.61347 4.11378
258 2 0.995973 9.1353 6.92842
354 3 -0.280284 12.6692 0.429453
135 3 -1.51916 9.96723 8.06099
104 3 -2.92965 7.41924 8.30037
320 1 -1.65796 8.00737 0.782947
326 2 -7.45251 12.3268 2.08656
38 4 1.07752 11.2706 5.5816
237 2 1.69096 7.62367 7.96406
1 4 -5.04178 13.0481 7.78409
238 2 0.707381 8.55455 9.95599
144 3 -0.66713 11.9235 14.5466
68 1 -4.55233 12.5845 16.4572
212 2 -5.34619 12.1586 15.689
147 3 1.44782 9.25019 11.8848
357 2 -5.81621 10.9273 14.0502
105 3 -5.7827 12.0274 8.76338
14 4 -3.85607 10.9188 16.8377
18 4 -2.40079 8.4837 13.2306
19 4 -4.01082 10.546 11.0439
109 3 -3.46913 7.66416 13.9633
112 3 -3.39342 9.58503 12.1327
113 3 -3.7616 12.232 13.5313
137 3 -2.87629 10.9499 10.0561
145 3 -2.47492 10.6242 16.1779
66 1 -4.21842 12.1151 12.3894
111 3 -5.5893 10.1816 10.6184
356 2 -3.65348 12.7492 11.3193
146 3 -0.184512 10.6993 10.458
26 4 0.03568 12.8201 13.3888
232 2 -0.509481 8.09622 8.58206
328 1 -5.3785 9.69121 16.1681
75 1 0.504989 8.56365 8.81189
136 3 -1.26244 12.544 8.80337
236 2 0.78149 7.5514 11.0718
278 2 2.37901 9.14786 8.5833
110 3 -1.57735 7.51611 12.2313
142 3 -1.42871 9.33083 14.1357
37 4 -1.41055 11.0054 9.38516
39 4 2.52472 8.5584 12.9664
40 4 -1.04466 10.5341 15.1098
41 4 1.11793 10.7039 11.3245
140 3 1.69876 7.42645 13.7542
143 3 0.0740625 10.0962 16.1821
77 1 0.616793 6.47155 10.8542
148 3 0.941856 11.7216 12.5926
211 2 -3.51248 12.9214 15.8931
309 2 15.0892 0.323159 1.8241
42 4 8.95064 2.11754 3.59055
72 1 6.41918 4.13101 0.651831
86 1 8.72901 5.57295 5.07792
124 3 6.72179 3.46999 6.78574
149 3 8.60315 0.781959 2.73579
150 3 7.62535 2.38486 4.7703
164 3 9.02109 3.40345 2.61666
168 3 9.3536 4.98945 0.525349
50 4 10.0788 4.15329 1.67455
305 4 12.7545 0.341387 2.00557
266 2 8.91563 4.75307 6.8784
265 2 9.5046 4.761 5.29751
87 1 9.06965 4.32253 8.02167
263 2 8.42214 5.44066 4.09628
221 2 6.97366 4.29277 1.6412
268 2 8.47516 3.44925 8.30862
264 2 7.83919 5.37281 5.8411
355 2 14.8631 1.45577 5.58985
209 2 12.783 4.56827 6.35798
44 4 13.2295 -0.0408655 7.31284
155 3 10.3559 1.94463 4.37644
205 2 15.0607 1.21587 3.66463
308 2 14.2759 2.1746 2.15003
228 2 5.53334 5.82816 0.0415491
261 2 13.9911 2.40096 4.4664
52 4 10.9234 3.90217 8.08918
262 2 13.1019 4.12501 4.64818
46 4 11.6307 2.3381 5.45977
85 1 12.9971 3.05759 4.36316
156 3 12.4303 0.995844 6.48346
165 3 11.3117 3.17838 1.13962
166 3 10.8871 5.34854 2.67739
170 3 11.2149 3.55076 6.33063
260 2 12.3767 2.97496 3.3848
307 3 11.7953 0.621666 0.776499
306 1 14.1847 1.04725 1.85733
152 3 14.1733 0.604772 8.38346
204 2 16.0666 0.196022 4.98895
11 4 12.3627 6.3234 14.9389
163 3 13.0632 0.703745 12.7826
267 2 8.87662 5.23771 8.84806
51 4 9.93212 5.97012 16.7894
172 3 6.43446 5.31519 8.5083
45 4 10.0684 1.54066 9.93999
48 4 9.81751 1.92941 14.9622
73 1 7.3375 3.17185 12.6259
154 3 8.68136 2.194 10.665
158 3 9.56754 0.603397 14.0873
160 3 8.51915 2.22096 15.8922
180 3 10.1465 5.0976 12.0752
224 2 6.37524 3.92413 12.588
225 2 8.29377 3.74436 12.4656
226 2 7.36245 2.4995 13.5787
350 1 8.60383 5.73054 15.4583
351 2 8.72641 4.65582 15.2739
153 3 9.38843 0.446091 8.9382
175 3 10.0676 3.15093 13.9588
353 2 7.56732 6.06799 15.7966
176 3 12.1243 3.13202 12.4015
233 2 5.35461 5.88756 13.3358
161 3 13.9186 1.96318 10.5437
177 3 11.9432 5.0553 14.066
171 3 11.809 5.13717 8.60401
169 3 10.8062 2.70979 9.06234
162 3 11.2262 1.13075 10.9474
2 4 14.7084 1.9129 9.22498
5 4 14.8888 1.95639 15.1057
49 4 12.5554 1.77389 11.6738
55 4 11.1347 4.08822 13.1568
151 3 13.552 2.23924 16.003
157 3 14.9856 0.503282 14.5256
159 3 11.0089 1.80424 16.1266
223 2 7.6677 4.58095 16.7896
179 3 8.49333 6.37744 10.1006
43 4 12.3083 1.84385 16.9436
56 4 9.94038 6.43146 11.1147
188 3 8.78873 9.75185 8.37
58 4 3.67315 11.2085 3.95112
183 3 3.02074 9.92733 2.94229
185 3 2.43574 11.8126 4.75307
269 2 10.5074 8.31732 7.46674
189 3 3.78671 12.1847 8.09816
280 2 3.61191 9.98694 7.32401
287 4 11.3995 6.71254 3.22791
184 3 4.32787 12.4234 2.97481
229 2 5.51361 7.81244 0.224162
88 1 10.4079 7.18775 7.26622
270 2 11.3864 6.78205 6.90969
346 1 7.68935 12.3022 0.146767
247 2 4.4488 8.48005 6.86669
245 2 4.55806 8.29588 4.91949
274 2 6.14331 8.19961 3.96499
246 2 5.92383 7.47576 5.95173
80 1 4.80838 7.76825 5.95158
13 4 8.77758 10.7884 4.06961
54 4 9.52914 7.36796 5.63546
57 4 7.57448 8.49376 2.08989
59 4 7.60012 8.99141 7.5773
61 4 6.11089 11.0629 5.82088
90 1 6.70678 7.40596 3.35094
181 3 8.43354 7.647 1.05828
182 3 8.44854 9.73003 2.93546
187 3 8.28399 8.24036 6.03518
191 3 7.51763 11.0354 5.0125
192 3 4.81214 10.6338 4.90272
193 3 6.40155 9.95319 7.16795
194 3 5.86931 12.5233 6.31612
91 1 6.24076 9.49561 1.04979
365 2 6.32743 10.5998 1.25454
277 2 5.35525 8.95174 1.61003
316 2 6.97281 11.8009 0.868859
174 3 10.7064 7.35518 4.5254
294 2 10.1834 7.73776 1.44045
275 2 7.50287 6.72242 3.99322
282 2 4.01007 10.6257 0.0466277
276 2 5.93307 6.82898 2.76311
92 1 3.60487 9.56528 8.3911
259 2 2.43486 9.34109 5.669
139 3 0.716472 12.1227 6.88144
364 2 9.88025 6.67016 8.082
186 3 7.05326 7.85333 8.41747
329 2 8.9646 9.94313 -0.0151001
286 2 7.29329 8.77223 10.9894
272 2 10.4913 8.45647 12.1576
167 3 11.1993 6.60435 16.2043
227 2 5.70667 6.45941 15.6342
285 2 7.26991 9.35321 12.8042
60 4 3.78251 11.2092 9.31208
62 4 3.75567 10.8057 14.9647
366 2 7.11164 9.01541 16.9436
273 2 9.73542 7.29487 13.3766
190 3 2.38108 11.1921 10.3455
195 3 3.25616 9.67676 13.9052
197 3 2.47831 11.1119 16.0063
196 3 4.49475 12.0386 14.4078
53 4 6.80806 6.58247 9.37377
347 2 7.95957 12.3202 16.4067
283 2 6.11478 10.5317 15.6999
331 2 10.0669 10.1927 15.2118
352 2 8.93303 6.38309 14.6204
337 2 8.44145 12.063 13.5
339 2 9.18739 10.5421 12.4236
334 1 9.0633 10.8743 13.5154
47 4 5.46389 12.9524 13.5027
335 2 8.42859 10.0768 14.0408
141 3 3.7509 7.87986 12.0398
178 3 11.3128 6.81324 10.4248
248 2 8.54925 8.51358 15.2154
249 2 6.85338 7.90991 15.6812
81 1 7.40151 8.64023 14.9752
173 3 5.65184 6.93211 10.4994
235 2 7.15103 9.70164 15.3433
250 2 7.14186 8.43535 13.8808
33 4 4.43568 6.70264 11.3695
16 4 9.3376 10.753 9.4741
63 4 6.5531 11.0873 11.0849
89 1 9.61031 7.79468 12.3391
93 1 5.1331 10.0581 16.0345
94 1 6.79767 9.37502 11.8023
198 3 7.88094 11.3639 10.2314
199 3 5.13488 11.0713 10.1543
200 3 6.25934 11.9135 12.429
271 2 8.53418 8.38278 12.1661
281 2 5.13411 8.89306 15.8058
284 2 5.65014 9.05286 11.938
74 1 5.82801 6.53212 16.7729
349 2 9.33226 11.1937 16.8142
279 2 4.3817 8.75351 8.59877
330 2 10.9929 8.67923 15.9246
ITEM: TIMESTEP
100
ITEM: NUMBER OF ATOMS
366
ITEM: BOX BOUNDS xy xz yz pp pp pp
-8.3370488766021680e+00 1.6854851625161821e+01 -8.4375460746530955e+00
-3.3722104875257047e-01 1.3310163024989247e+01 8.3044882321290159e-01
-8.0556304019379965e-02 1.6989556304019288e+01 -3.1478530896762541e-01
ITEM: ATOMS id type x y z
254 2 -2.53372 5.48811 3.53019
244 2 2.67019 4.98692 7.63539
208 2 -2.48313 6.1444 7.25624
67 1 -2.22463 5.25099 6.56767
359 2 -1.23475 4.01924 0.414424
291 2 -0.132319 4.71914 3.61343
317 1 -1.80356 4.92089 0.876523
3 4 0.900319 2.8963 4.76487
8 4 -0.828756 4.21393 7.32434
64 1 0.58643 3.97398 3.24918
98 3 0.286994 3.63966 5.97084
114 3 2.49395 2.39488 4.64627
201 2 0.00280425 3.06114 2.70492
202 2 1.49049 4.52423 2.61079
203 2 1.441 2.72008 1.90335
310 1 2.02377 0.800966 6.97039
338 1 2.05012 2.04629 1.14183
341 2 2.39013 2.73058 0.242614
344 2 3.31219 4.57435 1.05352
340 2 2.95808 1.61741 1.7578
78 1 2.05674 6.23897 5.64717
342 1 2.80262 5.54448 1.37434
239 2 2.15831 5.69203 4.35818
311 2 1.88993 0.345882 5.96638
358 2 1.42637 1.11363 0.841508
345 2 1.63924 5.50011 1.11419
312 2 2.52489 1.80049 7.0231
216 2 3.39963 0.322101 2.6014
204 2 0.38962 0.273056 5.17125
343 2 3.19223 5.88034 2.39703
210 2 2.89494 0.57185 -0.0284971
207 2 -1.84617 5.51061 5.5342
313 2 1.03882 0.829373 7.55929
241 2 1.44575 5.66436 6.38297
125 3 -0.00325699 5.36935 8.2688
65 1 -0.233304 1.20166 4.89476
318 2 -1.3343 5.38501 1.75117
29 4 5.61378 4.21519 7.6422
31 4 3.85848 6.21351 5.69754
70 1 4.42283 0.803487 2.9679
21 4 4.12231 2.30468 4.33135
219 2 3.67659 4.60174 3.41218
220 2 4.83102 3.38806 2.45484
126 3 4.66215 5.07042 6.47825
71 1 4.58562 3.88461 3.46351
336 2 -0.689153 2.66845 0.597745
362 2 5.23348 0.96794 2.19548
115 3 6.60408 1.40552 1.01785
118 3 5.26765 1.89659 5.36917
119 3 7.59648 0.961289 6.86185
20 4 7.61695 0.0408181 1.6589
97 3 -1.50974 3.01342 8.02087
25 4 6.90986 2.04061 5.92672
23 4 8.38319 -0.164732 7.86614
217 2 4.77674 0.159703 3.86511
325 2 0.74434 -0.0441767 3.71348
128 3 3.17053 6.31326 15.7422
102 3 -2.14772 5.85231 10.374
121 3 5.83461 1.81437 10.6427
315 2 0.987613 1.13668 16.5189
296 4 4.76292 2.21667 15.0088
363 2 1.08204 3.01766 16.2477
6 4 1.47195 1.93909 10.7008
10 4 0.402137 3.90164 13.1069
95 3 0.381415 1.95289 9.57763
96 3 1.51857 0.386763 11.479
99 3 -0.403957 2.97371 14.229
100 3 0.993237 3.01296 11.8201
103 3 -0.699511 4.9057 12.4629
117 3 2.99109 2.39094 10.1938
127 3 1.68594 4.70304 13.9898
314 1 0.475628 2.11297 16.6158
7 4 -0.784855 6.04044 16.6947
300 2 2.4549 2.04266 13.3212
30 4 1.06135 6.16858 9.07113
297 1 2.36567 1.14537 13.9971
79 1 2.83771 5.43767 8.70712
32 4 1.71598 6.08619 14.7786
206 2 1.44337 1.14739 14.6087
230 2 2.62772 4.611 9.54797
302 2 2.75529 3.06144 15.4218
12 4 -1.07303 6.22154 11.5944
120 3 5.90001 2.00456 16.0812
298 1 3.77561 3.56236 15.7624
242 2 1.27403 5.67622 11.4681
299 2 3.77307 0.801464 14.8752
304 2 3.67113 4.05548 16.7428
122 3 7.54236 0.432037 12.3236
129 3 0.545862 6.11272 15.8866
116 3 4.2437 0.666366 8.68528
243 2 3.80947 5.96846 8.81826
234 2 3.50265 5.52935 10.5844
101 3 -2.16079 6.15153 15.8243
303 2 4.11321 4.35119 14.8954
130 3 4.01583 4.05438 12.4907
301 2 5.44445 2.34853 13.3794
123 3 4.74241 3.2667 8.54961
24 4 4.44015 2.09274 9.54194
76 1 4.695 5.09119 12.4181
4 4 2.10031 -0.176334 12.8535
9 4 -3.35051 6.33718 9.47833
27 4 7.25454 1.7628 11.4776
211 2 5.3007 -0.283856 16.1693
290 2 -2.30933 7.2404 4.35037
36 4 0.531733 11.193 -0.0390192
361 2 -5.2204 10.4529 2.17425
333 2 -3.43104 10.6247 1.91362
332 1 -4.39714 11.0964 1.77272
327 2 -6.01354 12.7322 2.99088
15 4 -2.70477 8.9974 7.31506
17 4 -4.25706 10.9439 5.64484
106 3 -5.71639 10.851 4.83733
107 3 -3.95129 9.67685 6.61546
108 3 -4.38566 12.2546 6.5501
133 3 -2.91463 11.1734 4.75013
360 2 -4.31272 12.2206 2.279
293 2 -4.56608 9.11401 1.75898
256 2 -2.48764 9.13026 2.96379
321 2 -2.79992 8.02571 1.1161
1 4 -5.15384 12.9726 7.83342
295 2 -4.40028 7.53425 0.715155
213 2 -2.25361 8.82369 5.06872
322 2 -1.4135 8.94288 0.0258633
324 1 -7.12736 12.377 3.00373
289 1 -4.74135 7.99823 1.6662
292 2 -2.30326 7.13086 2.36667
237 2 1.79811 7.57498 8.03805
323 2 -0.85821 7.89538 1.58963
255 2 -1.66516 10.1319 1.60657
240 2 1.74261 7.49511 5.66785
215 2 -0.492793 8.74144 5.94755
69 1 -1.58396 8.307 5.8933
132 3 -1.87895 12.4108 2.4212
253 2 1.73622 7.25023 2.90478
214 2 -1.73905 7.15155 5.99638
83 1 -1.5661 9.75012 2.61884
34 4 2.1288 9.43503 1.85544
35 4 -1.61642 11.2706 3.76685
28 4 3.13311 6.98009 0.0326172
82 1 1.14984 8.14593 2.96033
84 1 1.43306 9.45084 5.91115
139 3 0.641115 12.0283 7.00986
134 3 0.977511 10.3636 1.29511
138 3 -0.236673 11.3542 4.62403
251 2 0.17072 7.7946 2.69671
252 2 -0.531427 9.14139 2.76361
257 2 1.23807 8.64747 4.09171
258 2 1.04155 9.22084 6.93519
354 3 -0.0391129 12.613 0.452183
135 3 -1.64461 10.0067 7.99928
104 3 -2.94095 7.52927 8.34039
320 1 -1.64736 7.97762 0.724251
326 2 -7.49369 12.3017 1.90828
38 4 1.06567 11.2386 5.61243
231 2 0.778641 9.67273 8.33928
288 1 -2.6917 6.62219 3.45848
348 2 -7.69156 13.2818 0.472302
238 2 0.865987 8.70773 9.83957
144 3 -0.764725 11.9609 14.5186
68 1 -4.25067 12.7664 16.4282
212 2 -4.93557 12.4704 15.4911
147 3 1.44143 9.13979 11.8623
357 2 -5.48302 11.0239 14.055
105 3 -6.06401 12.0318 8.71552
14 4 -3.90343 10.995 16.8663
18 4 -2.40676 8.62806 13.1357
19 4 -4.02903 10.5351 11.1668
109 3 -3.46223 7.91048 14.2197
112 3 -3.38616 9.47544 12.1098
113 3 -3.72147 12.4167 13.3485
137 3 -3.04624 10.9581 10.0679
145 3 -2.52902 10.5789 16.085
66 1 -4.19365 12.3147 12.2111
111 3 -5.42287 10.1553 10.6326
356 2 -3.97663 12.8929 11.1861
146 3 -0.451142 10.6134 10.4126
26 4 0.0462057 12.7823 13.2805
232 2 -0.359242 8.2982 8.62186
328 1 -5.37037 9.72344 16.2845
75 1 0.67412 8.63023 8.7576
136 3 -1.21158 12.5576 8.85164
236 2 0.987893 7.61619 11.2885
330 2 -4.59452 8.91732 16.0083
110 3 -1.63612 7.48435 12.3656
142 3 -1.37384 9.52652 13.9437
37 4 -1.63354 10.9833 9.35949
39 4 2.42268 8.53968 12.9626
40 4 -1.1568 10.5539 15.1548
41 4 0.950811 10.797 11.1484
140 3 1.82559 7.36097 13.757
143 3 0.0934473 9.97672 16.1184
331 2 -5.84548 10.2966 15.2634
148 3 0.940764 11.8239 12.4262
77 1 0.682964 6.48025 10.9316
309 2 15.0919 0.711211 1.30022
42 4 9.05131 1.98928 3.55543
72 1 6.46271 4.1542 0.679919
86 1 8.48349 5.52496 5.03532
124 3 6.89174 3.4244 6.85417
149 3 8.67111 0.689412 2.65594
150 3 7.8124 2.15603 4.69011
164 3 8.95814 3.27123 2.60983
168 3 9.35574 4.91295 0.435274
50 4 10.0852 4.17737 1.71887
305 4 12.7978 0.199839 1.78403
266 2 8.85804 4.85509 6.92944
265 2 8.88176 4.54311 5.41647
87 1 9.07579 4.37464 8.02816
263 2 8.58035 5.58388 3.81009
221 2 7.04412 4.05118 1.71032
268 2 8.6409 3.33522 8.17873
264 2 7.47626 5.75936 5.38284
355 2 14.9817 1.5466 5.76662
209 2 12.7813 4.56459 6.47611
44 4 13.2022 -0.017262 7.48098
155 3 10.3649 1.81753 4.4887
205 2 15.117 1.17527 3.78775
308 2 14.1171 1.99777 2.53761
228 2 5.57719 5.95429 0.181614
261 2 13.9782 2.25771 4.49905
52 4 10.9625 3.84418 8.10181
262 2 12.9416 3.90551 4.63653
46 4 11.5154 2.231 5.50985
85 1 12.9587 2.81332 4.31501
156 3 12.2786 1.07879 6.42187
165 3 11.2703 3.33203 1.18325
166 3 10.7578 5.36439 2.80752
170 3 11.178 3.60365 6.5348
260 2 12.4204 2.62243 3.30539
307 3 11.8514 0.587643 0.620225
306 1 14.2076 0.987565 1.9486
270 2 11.2248 6.23876 6.76812
218 2 5.43512 4.39993 4.06757
319 2 13.009 4.7002 1.09853
222 2 5.40914 4.37315 0.80099
276 2 5.82814 6.57642 2.59992
364 2 9.79234 6.47226 8.00468
152 3 14.0991 0.424284 8.71994
163 3 13.1481 0.82265 12.7803
267 2 8.77857 5.07903 8.96802
51 4 9.92246 5.96889 16.7944
172 3 6.25087 5.31784 8.57342
45 4 10.0473 1.57151 9.96735
48 4 9.8945 1.85052 14.9795
73 1 7.19673 3.03743 12.89
154 3 8.68837 2.24388 10.6307
158 3 9.54333 0.558458 14.0745
160 3 8.60775 2.12723 15.8889
180 3 10.0917 4.92945 11.9091
224 2 6.25417 3.78377 12.6369
225 2 8.19476 3.56156 12.7229
226 2 7.14317 2.48746 13.8384
350 1 8.60468 5.62069 15.4589
351 2 8.66557 4.50689 15.4126
153 3 9.44233 0.663665 8.6884
175 3 10.1798 3.22616 14.0338
353 2 7.63246 6.05151 15.9022
176 3 12.034 3.16868 12.263
233 2 5.65676 5.66814 13.0506
161 3 13.767 2.15068 10.5494
177 3 11.9512 5.26316 13.9767
171 3 11.8586 5.12737 8.72143
169 3 10.904 2.59258 9.06847
162 3 11.0818 0.966832 10.9726
2 4 14.6357 1.87623 9.30755
5 4 14.954 1.97042 15.3451
49 4 12.5616 1.81677 11.7041
55 4 11.185 4.15884 13.128
151 3 13.6257 2.38283 16.1861
157 3 15.0158 0.314667 14.7023
159 3 11.2153 1.51818 15.8683
223 2 7.76969 4.50452 16.8821
179 3 8.26739 6.29216 10.1044
43 4 12.3159 1.86496 16.9498
56 4 9.94679 6.28956 11.1516
22 4 7.38614 2.1103 16.8713
352 2 8.88709 6.16083 14.5472
188 3 8.87304 9.70801 8.37528
58 4 3.68577 11.2286 3.8331
183 3 3.09971 10.1253 2.85967
185 3 2.5067 11.6444 4.91966
269 2 10.7621 7.9767 7.50745
189 3 3.70633 12.329 8.26767
280 2 3.89992 9.94215 7.37477
287 4 11.4121 6.76442 3.1827
184 3 4.1255 12.4327 2.86745
229 2 5.56179 7.92316 0.21895
88 1 10.4015 6.95855 7.16892
186 3 6.93953 7.83435 8.24497
346 1 7.62615 12.3727 0.0694016
247 2 4.38279 8.42828 6.94247
245 2 4.38797 8.30341 4.93949
274 2 5.99243 8.12701 3.69285
246 2 5.83356 7.58704 6.00195
80 1 4.76006 7.80157 5.97601
13 4 8.80341 10.7844 4.00533
54 4 9.42227 7.24357 5.56517
57 4 7.56042 8.45152 2.05162
59 4 7.67635 9.07329 7.44431
61 4 6.11362 11.1591 5.80716
90 1 6.49443 7.25765 3.17082
181 3 8.20411 7.47924 0.974388
182 3 8.54162 9.50878 2.90874
187 3 8.35067 8.31831 5.97286
191 3 7.60221 11.2163 4.92431
192 3 4.9567 10.581 4.74863
193 3 6.37368 10.1094 7.01623
194 3 5.62988 12.5731 6.39912
91 1 6.40917 9.59717 1.01017
365 2 6.38451 10.732 1.16979
277 2 5.43743 9.04813 1.50732
316 2 6.94087 11.954 0.944165
174 3 10.702 7.48521 4.43166
294 2 10.0422 7.83067 1.698
275 2 7.1877 6.62913 3.9224
282 2 3.86157 10.4093 -0.00481983
259 2 2.53477 9.42116 5.79226
131 3 2.86467 8.48993 0.666683
329 2 8.96132 9.64184 -0.0629968
286 2 7.17823 8.76728 10.8869
272 2 10.5286 8.32616 12.1009
167 3 11.1773 6.5831 16.0249
227 2 5.79321 6.56561 15.6364
285 2 7.2605 9.10893 12.796
60 4 3.60281 11.2626 9.45526
62 4 3.64854 10.8364 14.9881
366 2 7.42298 9.02857 16.9089
273 2 9.5346 7.36351 13.3746
190 3 2.25321 11.1001 10.2489
195 3 2.99797 9.65013 13.9848
197 3 2.5978 11.3669 16.1239
196 3 4.51585 11.8537 14.1776
53 4 6.83672 6.65925 9.33795
347 2 7.76144 12.3535 16.1821
283 2 6.06109 10.1621 15.7633
278 2 2.6025 9.16607 8.692
279 2 4.61021 8.95017 8.85491
337 2 8.29564 12.2145 13.8779
339 2 9.55414 10.6639 12.4428
334 1 9.42732 10.9178 13.5058
47 4 5.57775 12.9991 13.5228
335 2 8.79403 10.1443 14.0169
141 3 3.70592 7.80742 12.059
178 3 11.2215 6.8027 10.2739
248 2 8.85808 8.99213 15.4944
249 2 7.11146 7.90078 15.5974
81 1 7.73651 8.63952 14.956
173 3 5.7435 7.00965 10.4471
235 2 7.10569 9.59658 14.9104
250 2 7.89676 8.33027 13.8736
33 4 4.49591 6.67965 11.3397
16 4 9.34905 10.7152 9.43587
63 4 6.53169 11.1728 11.1335
89 1 9.56645 7.70893 12.3187
93 1 4.95612 9.83759 16.0062
94 1 6.77964 9.3802 11.7302
198 3 7.84898 11.1095 10.2916
199 3 5.02555 11.1591 10.412
200 3 6.54772 12.1641 12.437
271 2 8.52773 8.31267 12.0318
281 2 4.69976 8.77522 15.7323
284 2 5.54376 9.16057 11.7511
74 1 5.90572 6.62674 16.8242
349 2 9.2397 11.1905 16.7547
92 1 3.75098 9.60348 8.51942
11 4 12.3569 6.46852 14.8939
ITEM: TIMESTEP
200
ITEM: NUMBER OF ATOMS
366
ITEM: BOX BOUNDS xy xz yz pp pp pp
-8.3370488766021680e+00 1.6854851625161821e+01 -8.4375460746530955e+00
-3.3722104875257047e-01 1.3310163024989247e+01 8.3044882321290159e-01
-8.0556304019379965e-02 1.6989556304019288e+01 -3.1478530896762541e-01
ITEM: ATOMS id type x y z
254 2 -2.70119 5.54655 3.40266
244 2 2.44197 4.6617 7.94355
208 2 -2.43427 6.12128 7.03515
67 1 -2.17725 5.24803 6.41814
359 2 -1.17797 3.95463 0.241656
291 2 -0.389327 4.71792 3.6493
317 1 -1.7809 4.85066 0.586736
3 4 0.879308 2.97547 4.80736
8 4 -0.738911 4.2303 7.28228
64 1 0.397233 3.9638 3.30293
98 3 0.136632 3.66417 6.04599
114 3 2.52487 2.55156 4.72204
201 2 -0.100727 2.9958 2.73575
202 2 1.27436 4.52356 2.55024
203 2 1.47195 2.77806 2.04386
310 1 2.04756 0.8737 6.92582
338 1 2.10497 2.07381 1.35606
341 2 2.42849 2.69067 0.35944
344 2 3.27959 4.54762 1.3249
340 2 3.11849 1.78829 1.85999
78 1 2.19265 6.27535 5.55345
342 1 2.61719 5.51345 1.33994
239 2 2.34057 5.79333 4.30375
311 2 2.11677 0.510969 5.79162
358 2 1.52504 1.12133 1.01272
345 2 1.5553 5.26829 0.944359
312 2 2.53471 1.88665 6.9811
216 2 3.29967 0.587669 2.53642
204 2 0.663499 0.352491 5.13058
343 2 2.53413 5.94826 2.42574
210 2 2.90083 0.561693 0.217547
207 2 -1.69677 5.36284 5.41143
313 2 1.0126 0.813997 7.40076
241 2 1.66282 5.54023 6.22812
125 3 0.0525388 5.22829 8.18295
65 1 -0.067785 1.18547 4.89017
318 2 -1.35245 5.36481 1.54926
222 2 5.01752 4.16255 0.577821
31 4 3.98831 6.19994 5.74463
70 1 4.30712 0.72194 3.06251
21 4 4.17721 2.24289 4.35598
219 2 3.76059 4.44363 3.40189
220 2 4.94467 3.25847 2.45965
126 3 4.67884 4.98523 6.45095
71 1 4.693 3.79252 3.43418
336 2 -0.689701 2.22462 0.567199
362 2 5.1486 0.846523 2.2745
115 3 6.60508 1.34898 1.22683
118 3 5.2864 1.84809 5.44694
119 3 7.53596 0.814513 6.78889
20 4 7.6452 0.110386 1.77032
97 3 -1.47502 3.16264 8.10356
25 4 6.9663 2.00109 5.87881
348 2 0.868494 0.0960366 0.274947
123 3 4.8324 3.1047 8.40965
325 2 0.822938 -0.0134512 3.54419
22 4 6.49809 2.35134 -0.0496838
128 3 3.17246 6.29488 15.7664
102 3 -2.23803 5.84982 10.4527
121 3 5.7958 1.98193 10.509
315 2 1.38367 1.22325 16.5229
296 4 4.81115 2.25691 15.0181
363 2 1.11199 2.95474 16.3321
6 4 1.45836 2.05347 10.8176
10 4 0.474076 3.83787 13.1909
95 3 0.408402 1.99954 9.64074
96 3 1.59382 0.606158 11.5274
99 3 -0.281904 2.76656 14.2191
100 3 0.977569 3.09339 11.9155
103 3 -0.712074 4.8626 12.6025
117 3 2.99987 2.43892 10.2888
127 3 1.65096 4.64982 13.9956
314 1 0.629483 1.99154 16.5904
7 4 -0.849633 6.02319 16.545
300 2 2.49063 1.96717 13.4834
30 4 0.927991 6.2222 9.00933
297 1 2.50978 1.00037 14.1544
79 1 2.69562 5.29215 8.82758
32 4 1.70977 6.08104 14.7717
206 2 1.52519 0.728096 14.7925
230 2 2.77789 4.65183 9.7433
302 2 2.69586 2.89343 15.5551
12 4 -1.18717 6.11346 11.6605
120 3 5.98088 1.97208 16.0337
298 1 3.66027 3.50291 15.7484
242 2 1.44887 5.59863 11.0567
299 2 3.75409 0.781549 14.7927
304 2 3.58353 4.09876 16.7246
122 3 7.27592 0.421753 12.3164
129 3 0.402189 5.91085 15.6956
116 3 4.08121 0.628928 8.87489
243 2 3.53407 5.99132 8.56099
234 2 3.67408 5.70559 10.5295
101 3 -2.31524 6.11751 15.8472
303 2 3.89102 4.26993 14.7859
130 3 4.07637 4.12586 12.4109
301 2 5.50186 2.51627 13.4563
27 4 7.28359 1.7724 11.5184
24 4 4.37678 2.10068 9.5456
76 1 4.72566 5.1404 12.5271
4 4 2.13196 -0.151677 12.8296
9 4 -3.48355 6.31484 9.5351
77 1 0.500101 6.36826 10.8522
211 2 5.27219 -0.23425 16.1763
290 2 -2.42541 7.29976 4.3542
288 1 -2.68475 6.67352 3.38089
361 2 -5.32135 10.8528 2.07695
333 2 -3.41268 10.4573 2.09018
332 1 -4.25077 11.145 1.74979
327 2 -5.91317 12.5418 2.8409
15 4 -2.69387 8.97945 7.38944
17 4 -4.26027 10.9576 5.67235
106 3 -5.50777 10.8987 4.64141
107 3 -4.05994 9.60131 6.61575
108 3 -4.3382 12.2838 6.63078
133 3 -2.98237 11.219 4.71585
360 2 -4.12439 12.21 2.23675
293 2 -4.4579 9.11573 1.71487
256 2 -2.42505 9.03679 2.91657
321 2 -2.67355 8.13753 1.01041
1 4 -5.25942 13.0875 7.94101
295 2 -4.11094 7.64929 0.606688
213 2 -2.39013 8.8288 5.10209
322 2 -1.14811 8.81598 -0.0685081
324 1 -7.11596 12.4791 2.8426
289 1 -4.69213 8.00836 1.55422
292 2 -2.21207 7.16528 2.35788
237 2 1.75196 7.49723 7.83225
323 2 -0.773264 7.7924 1.44057
255 2 -1.58315 10.1049 1.65641
240 2 1.85098 7.46678 5.65406
215 2 -0.522375 8.7866 5.8541
69 1 -1.6872 8.37203 5.91767
132 3 -1.70136 12.4834 2.78039
253 2 1.78973 7.18174 3.05109
214 2 -1.84409 7.16136 6.00429
83 1 -1.53953 9.67792 2.7459
34 4 2.07367 9.36068 1.88317
35 4 -1.6273 11.2959 3.82247
28 4 3.11248 6.93772 0.0916717
82 1 1.18882 8.11062 2.98673
84 1 1.402 9.42356 5.84665
139 3 0.729728 11.8971 6.98678
134 3 0.980163 10.3084 1.09923
138 3 -0.184445 11.231 4.54288
251 2 0.12111 7.79237 2.57244
252 2 -0.520377 9.11269 2.92706
257 2 1.20071 8.62272 4.09182
258 2 1.00469 9.02795 6.89587
354 3 -0.29943 12.5696 0.317293
135 3 -1.73748 10.0438 8.13542
104 3 -3.02574 7.48005 8.41164
320 1 -1.57655 7.92354 0.64644
326 2 -7.40615 12.4477 1.73562
38 4 1.13446 11.2184 5.51625
231 2 0.766383 9.54 8.41249
217 2 -3.86909 13.2156 3.8688
131 3 2.79748 8.3215 0.843005
23 4 -0.0899229 13.1459 7.80108
238 2 0.99237 8.5719 9.89664
144 3 -0.665145 12.1904 14.6157
68 1 -4.20999 12.7407 16.5899
212 2 -4.9182 12.4603 15.6391
147 3 1.36332 9.27377 11.8237
357 2 -5.53923 11.0589 14.0165
105 3 -6.16481 11.986 8.63782
14 4 -3.72083 10.957 16.8905
18 4 -2.4643 8.67837 13.1744
19 4 -4.1901 10.6412 11.0398
109 3 -3.37341 7.90764 14.2682
112 3 -3.4221 9.63941 12.0967
113 3 -3.70596 12.4876 13.2736
137 3 -3.15381 11.0437 9.95213
145 3 -2.35709 10.6753 16.142
66 1 -4.28729 12.36 12.1869
111 3 -5.6638 10.2925 10.5875
356 2 -4.10835 12.9441 11.0875
146 3 -0.392781 10.4801 10.3353
26 4 0.145196 12.9518 13.4121
232 2 -0.405118 8.20162 8.74565
328 1 -5.31497 9.73828 16.3435
75 1 0.682065 8.48275 8.81441
136 3 -1.18162 12.54 8.80125
236 2 0.746035 7.40293 11.2467
148 3 0.83589 11.8298 12.4448
110 3 -1.61471 7.48441 12.3988
142 3 -1.40275 9.64775 13.7867
37 4 -1.61673 11.09 9.42294
39 4 2.41325 8.43627 12.9742
40 4 -0.991716 10.5852 15.0324
41 4 1.02494 10.6595 11.2867
140 3 1.52471 7.37696 13.7117
143 3 0.193016 9.84363 16.0475
36 4 1.32212 10.9226 16.9562
330 2 -4.81645 8.82329 16.0248
331 2 -5.74863 10.2029 15.2577
309 2 15.2488 0.244021 1.67223
42 4 9.04453 1.91228 3.65954
72 1 6.15529 4.14287 0.554881
86 1 8.31465 5.51217 5.12603
124 3 6.94835 3.4925 6.8335
149 3 8.95748 0.639872 2.63113
150 3 7.74088 2.17066 4.55198
164 3 9.12198 3.28037 2.71647
168 3 9.29891 4.90383 0.450253
50 4 10.1598 4.12614 1.69406
305 4 12.9549 0.0873153 1.76677
266 2 8.77247 4.83992 6.95299
265 2 8.99533 4.71916 5.41875
87 1 9.09813 4.4276 8.05828
263 2 7.93357 5.33087 4.08538
221 2 6.72744 4.12717 1.59502
268 2 8.56755 3.39566 8.31597
264 2 7.50318 5.66031 5.88671
355 2 15.0901 1.37184 5.63886
209 2 12.7976 4.56237 6.39297
44 4 13.1671 -0.025471 7.47808
155 3 10.4292 1.74698 4.73107
205 2 15.3613 1.08386 3.81017
308 2 14.221 2.05659 2.0839
228 2 5.47031 6.03087 0.0938169
261 2 14.0479 2.02392 4.45365
52 4 10.9391 3.90543 8.09079
262 2 13.0663 3.72801 4.68139
46 4 11.6947 2.05882 5.54625
85 1 13.0177 2.58534 4.295
156 3 12.3278 1.07917 6.64052
165 3 11.0636 3.07948 0.996418
166 3 10.993 5.36429 2.40596
170 3 11.3739 3.63044 6.59267
260 2 12.5123 2.41074 3.31106
307 3 12.0708 0.709944 0.658048
306 1 14.3461 0.86535 2.05938
270 2 11.1083 6.49632 6.83908
29 4 5.76292 4.20787 7.62433
218 2 5.66119 4.25918 3.88133