ITEM: TIMESTEP
0
ITEM: NUMBER OF ATOMS
366
ITEM: BOX BOUNDS xy xz yz pp pp pp
-8.3370488766021680e+00 1.6854851625161821e+01 -8.4375460746530955e+00
-3.4040069833810205e-01 1.3444835739784946e+01 8.3044882321290159e-01
-8.0556304019379965e-02 1.7160257430099676e+01 -3.1796495855315698e-01
ITEM: ATOMS id type x y z
254 2 -2.56236 5.4805 3.47254
244 2 2.83607 4.85923 7.80751
208 2 -2.44701 6.14784 7.36291
67 1 -2.21327 5.29506 6.60776
359 2 -1.12348 4.08183 0.261492
291 2 0.210483 4.96041 3.91645
317 1 -1.67289 5.09537 0.786271
3 4 0.87752 2.8786 4.80275
8 4 -0.746197 4.17888 7.28164
64 1 0.673542 4.11836 3.34479
98 3 0.229419 3.57311 6.08919
114 3 2.43236 2.46255 4.63983
201 2 -0.148263 3.44329 2.82252
202 2 1.48892 4.55555 2.57715
203 2 1.37676 2.79289 1.85633
310 1 1.88871 0.768503 7.19354
338 1 1.91316 2.04222 1.1442
341 2 2.28983 2.71132 0.182551
344 2 3.6832 4.85635 1.2789
340 2 2.80078 1.56283 1.78718
78 1 2.19311 6.43658 5.74165
342 1 2.72089 5.55653 1.32258
239 2 2.23278 5.98585 4.38906
311 2 1.93996 0.67232 6.10713
358 2 1.13385 1.2317 0.855726
345 2 1.75594 5.1973 0.813665
312 2 1.98616 1.82702 7.52219
216 2 3.34054 0.289547 2.47148
325 2 0.873903 -0.0333151 3.70579
343 2 2.53355 6.03934 2.30078
210 2 2.63483 0.437858 0.126182
207 2 -1.67599 5.65997 5.65416
313 2 0.997618 0.171912 7.64559
241 2 1.74154 5.59944 6.45758
125 3 0.0761049 5.26806 8.25753
65 1 -0.316012 1.20319 4.82898
318 2 -0.960983 5.58288 1.59233
29 4 5.57782 4.27452 7.75473
31 4 3.97273 6.25672 5.71726
70 1 4.25528 0.733148 2.92295
21 4 4.11096 2.21694 4.33768
219 2 3.86548 4.54854 3.63708
220 2 4.93442 3.30266 2.53921
126 3 4.66034 5.07237 6.61866
71 1 4.71143 3.7952 3.60421
336 2 -0.936041 2.60257 0.395073
362 2 4.98118 1.00819 2.06323
115 3 6.46788 1.38896 0.987268
118 3 5.18268 1.74154 5.50704
119 3 7.51795 0.9712 7.01017
20 4 7.59604 0.173768 1.69915
97 3 -1.47166 3.20586 8.30769
25 4 6.76985 2.10654 6.05199
222 2 5.32967 4.33349 0.798527
319 2 -2.75235 4.92215 1.00755
217 2 4.778 0.0832145 3.72692
23 4 8.34348 -0.0859496 8.00382
288 1 -2.70774 6.60671 3.41282
218 2 5.67168 4.01407 4.18667
128 3 3.10222 6.32508 15.8126
102 3 -2.11993 5.94102 10.3164
121 3 5.71419 1.93059 10.7248
315 2 0.905362 1.14183 16.5218
296 4 4.90665 2.27644 15.0196
363 2 1.13785 2.9535 16.3494
6 4 1.43419 2.01404 10.8003
10 4 0.229456 4.03089 13.2926
95 3 0.400231 1.7938 9.6016
96 3 1.54816 0.551789 11.6641
99 3 -0.475773 3.0341 14.2848
100 3 0.984383 3.10176 11.9354
103 3 -0.840041 5.06493 12.7468
117 3 2.96678 2.07212 10.2726
127 3 1.61559 4.86053 14.0532
314 1 0.41114 2.16454 16.6206
7 4 -0.804112 6.20719 16.8335
300 2 2.404 2.11285 13.4748
30 4 1.10499 6.1993 9.14861
297 1 2.41461 1.10666 14.0686
79 1 2.75732 5.28646 8.84879
32 4 1.7862 6.18818 14.838
206 2 1.44695 0.894271 14.7178
230 2 2.53956 4.51801 9.7379
302 2 2.76367 2.78124 15.6732
12 4 -1.17957 6.2229 11.6295
120 3 5.96203 2.1347 16.1318
298 1 3.73977 3.50741 15.7951
242 2 1.29092 5.89399 11.6422
299 2 3.91399 0.784162 14.7808
304 2 3.68723 4.06827 16.7984
122 3 7.56893 0.385818 12.3693
129 3 0.582022 6.23449 16.0523
116 3 4.46304 0.705012 8.64638
243 2 3.6209 6.00545 9.09187
234 2 3.17796 5.77616 10.7883
101 3 -2.23078 6.2438 16.0081
303 2 3.93191 4.29027 14.8461
130 3 4.08208 4.27949 12.5194
301 2 5.59645 2.46345 13.4178
123 3 4.69645 3.37726 8.74309
24 4 4.51974 2.05632 9.71662
76 1 4.79826 5.25447 12.6746
4 4 2.23893 -0.170821 12.8708
9 4 -3.41614 6.39728 9.54859
22 4 7.32301 2.13051 17.0149
27 4 7.35007 1.73559 11.5392
290 2 -2.43975 7.19242 4.3715
36 4 0.448374 11.3748 -0.0186016
361 2 -5.36339 10.6413 2.03176
333 2 -3.47759 10.6683 2.05551
332 1 -4.42305 11.2286 1.71692
327 2 -5.87377 12.6724 3.21494
15 4 -2.59618 9.06435 7.35634
17 4 -4.22409 11.0607 5.75773
106 3 -5.76444 10.7685 4.87896
107 3 -3.78906 9.84553 6.77063
108 3 -4.41798 12.3746 6.5929
133 3 -3.14799 11.2355 4.63898
360 2 -4.38028 12.3388 2.08988
293 2 -4.55465 9.17532 1.79215
256 2 -2.60149 9.38117 3.10649
321 2 -2.76585 8.23502 1.21094
231 2 0.550426 9.68755 8.47115
295 2 -4.00505 7.51589 0.83232
213 2 -2.22142 8.66752 4.90087
322 2 -1.32339 8.98564 0.137769
324 1 -7.01677 12.5842 3.17564
289 1 -4.64659 7.98187 1.70756
292 2 -2.30413 7.13673 2.4178
348 2 -7.68798 13.3846 0.610767
323 2 -0.907415 7.7917 1.63007
255 2 -1.76333 10.4536 1.68757
240 2 1.82016 7.60039 5.92648
215 2 -0.527981 8.78537 5.89327
69 1 -1.70837 8.3601 5.8531
132 3 -1.80784 12.756 2.61074
253 2 1.8066 7.2939 2.96664
214 2 -1.8639 7.17819 6.09452
83 1 -1.59724 9.92576 2.73226
34 4 1.97992 9.37676 1.87141
35 4 -1.68402 11.4979 3.8071
28 4 3.04467 6.96344 -0.03292
82 1 1.09739 8.18804 3.02971
84 1 1.31097 9.58394 5.96857
131 3 2.70789 8.34858 0.785899
134 3 0.909737 10.4253 1.24998
138 3 -0.348325 11.3225 4.613
251 2 0.0447329 7.85358 2.79263
252 2 -0.584302 9.26526 2.78348
257 2 1.1966 8.7007 4.15572
258 2 0.995973 9.2278 6.99851
354 3 -0.280284 12.7974 0.434553
135 3 -1.51916 10.0681 8.14241
104 3 -2.92965 7.49441 8.38418
320 1 -1.65796 8.08848 0.791582
326 2 -7.45251 12.4516 2.10823
38 4 1.07752 11.3847 5.63822
237 2 1.69096 7.7009 8.0445
1 4 -5.04178 13.1801 7.86274
238 2 0.707381 8.64119 10.0564
144 3 -0.66713 12.0442 14.6928
68 1 -4.55233 12.7118 16.6225
212 2 -5.34619 12.2817 15.8467
147 3 1.44782 9.34385 12.0045
357 2 -5.81621 11.0379 14.1915
105 3 -5.7827 12.1491 8.85182
14 4 -3.85607 11.0294 17.0069
18 4 -2.40079 8.56962 13.3638
19 4 -4.01082 10.6528 11.1551
109 3 -3.46913 7.7418 14.1038
112 3 -3.39342 9.68207 12.2548
113 3 -3.7616 12.3557 13.6675
137 3 -2.87629 11.0607 10.1575
145 3 -2.47492 10.7317 16.3405
66 1 -4.21842 12.2377 12.5141
111 3 -5.5893 10.2847 10.7254
356 2 -3.65348 12.8782 11.4333
146 3 -0.184512 10.8076 10.5634
26 4 0.03568 12.9499 13.5235
232 2 -0.509481 8.17822 8.66868
328 1 -5.3785 9.78932 16.3306
75 1 0.504989 8.65037 8.90082
136 3 -1.26244 12.671 8.89221
236 2 0.78149 7.6279 11.1834
278 2 2.37901 9.24049 8.66994
110 3 -1.57735 7.59225 12.3544
142 3 -1.42871 9.4253 14.2779
37 4 -1.41055 11.1168 9.47982
39 4 2.52472 8.64508 13.0969
40 4 -1.04466 10.6408 15.2617
41 4 1.11793 10.8123 11.4386
140 3 1.69876 7.5017 13.8926
143 3 0.0740625 10.1984 16.3447
77 1 0.616793 6.53715 10.9635
148 3 0.941856 11.8402 12.7193
211 2 -3.51248 13.0521 16.0528
309 2 15.0892 0.32665 1.84315
42 4 8.95064 2.13916 3.62726
72 1 6.41918 4.17297 0.659155
86 1 8.72901 5.62946 5.12951
124 3 6.72179 3.50526 6.8544
149 3 8.60315 0.790085 2.76395
150 3 7.62535 2.40918 4.81881
164 3 9.02109 3.43805 2.64363
168 3 9.3536 5.04008 0.531408
50 4 10.0788 4.19547 1.6921
305 4 12.7545 0.345062 2.02643
266 2 8.91563 4.8013 6.94799
265 2 9.5046 4.80932 5.35129
87 1 9.06965 4.36642 8.10269
263 2 8.42214 5.49584 4.13805
221 2 6.97366 4.33636 1.65842
268 2 8.47516 3.48431 8.39251
264 2 7.83919 5.4273 5.90032
355 2 14.8631 1.4707 5.64655
209 2 12.783 4.61464 6.42236
44 4 13.2295 -0.0410516 7.38677
155 3 10.3559 1.9645 4.42101
205 2 15.0607 1.22837 3.70208
308 2 14.2759 2.19679 2.17234
228 2 5.53334 5.88726 0.0427701
261 2 13.9911 2.42544 4.51187
52 4 10.9234 3.94182 8.17088
262 2 13.1019 4.1669 4.69546
46 4 11.6307 2.36194 5.51517
85 1 12.9971 3.0887 4.40759
156 3 12.4303 1.00613 6.5491
165 3 11.3117 3.21071 1.15183
166 3 10.8871 5.4028 2.70497
170 3 11.2149 3.58686 6.39474
260 2 12.3767 3.00524 3.41945
307 3 11.7953 0.628172 0.78507
306 1 14.1847 1.05806 1.87671
152 3 14.1733 0.611107 8.4681
204 2 16.0666 0.198229 5.03965
11 4 12.3627 6.38749 15.0891
163 3 13.0632 0.711081 12.9112
267 2 8.87662 5.29085 8.93734
51 4 9.93212 6.03065 16.9581
172 3 6.43446 5.36911 8.59419
45 4 10.0684 1.55645 10.0402
48 4 9.81751 1.94912 15.1127
73 1 7.3375 3.20411 12.753
154 3 8.68136 2.21639 10.7724
158 3 9.56754 0.609719 14.229
160 3 8.51915 2.24362 16.052
180 3 10.1465 5.14932 12.1968
224 2 6.37524 3.964 12.7147
225 2 8.29377 3.78241 12.5911
226 2 7.36245 2.52497 13.7153
350 1 8.60383 5.78865 15.6137
351 2 8.72641 4.70308 15.4274
153 3 9.38843 0.450823 9.02838
175 3 10.0676 3.18298 14.0992
353 2 7.56732 6.12951 15.9554
176 3 12.1243 3.16388 12.5263
233 2 5.35461 5.94726 13.4699
161 3 13.9186 1.98324 10.6499
177 3 11.9432 5.10659 14.2075
171 3 11.809 5.18929 8.69086
169 3 10.8062 2.73739 9.15377
162 3 11.2262 1.1424 11.0577
2 4 14.7084 1.93245 9.31803
5 4 14.8888 1.97638 15.2576
49 4 12.5554 1.79204 11.7913
55 4 11.1347 4.12974 13.2892
151 3 13.552 2.26208 16.1639
157 3 14.9856 0.508592 14.6717
159 3 11.0089 1.82269 16.2887
223 2 7.6677 4.62745 16.9583
179 3 8.49333 6.44209 10.2024
43 4 12.3083 1.8627 17.1139
56 4 9.94038 6.49665 11.2267
188 3 8.78873 9.85058 8.4545
58 4 3.67315 11.322 3.99144
183 3 3.02074 10.0278 2.97252
185 3 2.43574 11.9322 4.80141
269 2 10.5074 8.40156 7.54221
189 3 3.78671 12.308 8.17994
280 2 3.61191 10.088 7.39805
287 4 11.3995 6.78057 3.26099
184 3 4.32787 12.5491 3.00537
229 2 5.51361 7.89158 0.227209
88 1 10.4079 7.26058 7.33969
270 2 11.3864 6.85078 6.97959
346 1 7.68935 12.4267 0.149041
247 2 4.4488 8.56593 6.93617
245 2 4.55806 8.3799 4.96949
274 2 6.14331 8.28266 4.00544
246 2 5.92383 7.5515 6.01205
80 1 4.80838 7.84694 6.0119
13 4 8.77758 10.8976 4.11111
54 4 9.52914 7.44261 5.69262
57 4 7.57448 8.57978 2.1116
59 4 7.60012 9.08245 7.65388
61 4 6.11089 11.1749 5.8799
90 1 6.70678 7.48099 3.38526
181 3 8.43354 7.72447 1.06967
182 3 8.44854 9.82854 2.96562
187 3 8.28399 8.32383 6.09634
191 3 7.51763 11.1471 5.06343
192 3 4.81214 10.7415 4.95255
193 3 6.40155 10.0539 7.24043
194 3 5.86931 12.65 6.38009
91 1 6.24076 9.59175 1.0611
365 2 6.32743 10.7071 1.26789
277 2 5.35525 9.04239 1.62693
316 2 6.97281 11.9204 0.878354
174 3 10.7064 7.4297 4.57146
294 2 10.1834 7.81615 1.45566
275 2 7.50287 6.79055 4.03396
282 2 4.01007 10.7333 0.0478996
276 2 5.93307 6.89818 2.79155
92 1 3.60487 9.66212 8.47582
259 2 2.43486 9.43567 5.72649
139 3 0.716472 12.2454 6.95106
364 2 9.88025 6.73776 8.16362
186 3 7.05326 7.93288 8.50245
329 2 8.9646 10.0438 -0.0144455
286 2 7.29329 8.86107 11.1001
272 2 10.4913 8.54211 12.28
167 3 11.1993 6.67129 16.3671
227 2 5.70667 6.52488 15.7914
285 2 7.26991 9.44792 12.933
60 4 3.78251 11.3227 9.40601
62 4 3.75567 10.915 15.1151
366 2 7.11164 9.10671 17.1138
273 2 9.73542 7.36878 13.5111
190 3 2.38108 11.3054 10.4498
195 3 3.25616 9.77473 14.0451
197 3 2.47831 11.2244 16.1671
196 3 4.49475 12.1605 14.5527
53 4 6.80806 6.64919 9.46832
347 2 7.95957 12.4449 16.5716
283 2 6.11478 10.6383 15.8577
331 2 10.0669 10.2959 15.3647
352 2 8.93303 6.44779 14.7674
337 2 8.44145 12.185 13.6358
339 2 9.18739 10.6489 12.5486
334 1 9.0633 10.9843 13.6514
47 4 5.46389 13.0835 13.6386
335 2 8.42859 10.1789 14.182
141 3 3.7509 7.95969 12.161
178 3 11.3128 6.88229 10.5299
248 2 8.54925 8.5998 15.3683
249 2 6.85338 7.99004 15.8388
81 1 7.40151 8.72773 15.1257
173 3 5.65184 7.00235 10.6052
235 2 7.15103 9.79987 15.4976
250 2 7.14186 8.52079 14.0204
33 4 4.43568 6.77057 11.484
16 4 9.3376 10.8618 9.56965
63 4 6.5531 11.1995 11.1965
89 1 9.61031 7.87364 12.4632
93 1 5.1331 10.1599 16.1956
94 1 6.79767 9.46994 11.9211
198 3 7.88094 11.4789 10.3345
199 3 5.13488 11.1834 10.2566
200 3 6.25934 12.034 12.5541
271 2 8.53418 8.46768 12.2886
281 2 5.13411 8.98312 15.9647
284 2 5.65014 9.14453 12.0582
74 1 5.82801 6.59832 16.9415
349 2 9.33226 11.307 16.9831
279 2 4.3817 8.84215 8.68556
330 2 10.9929 8.76713 16.0847
ITEM: TIMESTEP
100
ITEM: NUMBER OF ATOMS
366
ITEM: BOX BOUNDS xy xz yz pp pp pp
-8.3370488766021680e+00 1.6854851625161821e+01 -8.4375460746530955e+00
-3.4040069833810205e-01 1.3444835739784946e+01 8.3044882321290159e-01
-8.0556304019379965e-02 1.7160257430099676e+01 -3.1796495855315698e-01
ITEM: ATOMS id type x y z
254 2 -2.56482 5.62106 3.57649
244 2 2.80535 5.13823 7.80011
208 2 -2.45176 6.23144 7.31326
67 1 -2.18505 5.30432 6.6698
359 2 -1.27014 4.09116 0.324574
291 2 -0.0810968 4.74422 3.64704
317 1 -1.82305 4.99797 0.801577
3 4 0.935918 2.91259 4.81742
8 4 -0.795828 4.27072 7.4439
64 1 0.687818 3.97344 3.27256
98 3 0.27307 3.68666 6.01365
114 3 2.49277 2.35876 4.73302
201 2 0.0510643 3.01772 2.72629
202 2 1.55775 4.50198 2.60972
203 2 1.5215 2.75662 1.89218
310 1 2.04822 0.823828 7.06013
338 1 2.10035 2.06791 1.08685
341 2 2.4484 2.70228 0.229917
344 2 3.37227 4.57443 1.15467
340 2 3.00546 1.59505 1.66627
78 1 2.05748 6.35409 5.69331
342 1 2.87677 5.56563 1.32559
239 2 2.24807 5.87395 4.54484
311 2 1.94979 0.268299 6.08681
358 2 1.42734 1.17668 0.748278
345 2 1.76068 5.50873 1.01606
312 2 2.51432 1.83315 7.04412
216 2 3.47546 0.447533 2.52045
204 2 0.454645 0.335589 5.2371
343 2 3.12476 6.00787 2.38045
325 2 0.730163 -0.0755261 3.73794
207 2 -1.8064 5.48448 5.62562
313 2 1.04109 0.869322 7.64586
241 2 1.45244 5.75125 6.41536
125 3 0.0109359 5.39038 8.33985
65 1 -0.212837 1.23111 4.89464
318 2 -1.33787 5.47955 1.68368
29 4 5.60076 4.26232 7.70441
31 4 3.85981 6.28026 5.82551
70 1 4.45706 0.827309 2.99853
21 4 4.15464 2.2385 4.3093
219 2 3.60178 4.43641 3.38912
220 2 5.09237 3.62194 2.45742
126 3 4.63506 5.1069 6.61048
71 1 4.60263 3.87048 3.5043
336 2 -0.840473 2.56187 0.534473
362 2 5.22368 0.993536 2.18727
115 3 6.59831 1.41433 1.0688
118 3 5.32777 1.92956 5.41356
119 3 7.57401 0.969657 6.97015
20 4 7.62884 0.0520006 1.66513
97 3 -1.47411 3.04139 8.13544
25 4 6.92451 2.06607 5.99973
222 2 5.33308 4.33227 0.644795
218 2 5.26743 4.45023 4.25464
217 2 4.82567 0.0872992 3.84721
23 4 8.36349 -0.125478 7.93886
128 3 3.16942 6.33195 15.9194
102 3 -2.15962 5.93971 10.5099
121 3 5.81856 1.80465 10.6994
315 2 1.01965 1.2054 16.6276
296 4 4.77596 2.23039 15.1588
363 2 1.02056 3.10979 16.4736
6 4 1.46519 1.92891 10.8405
10 4 0.389674 3.99672 13.2343
95 3 0.358348 1.94318 9.71936
96 3 1.502 0.402044 11.552
99 3 -0.417375 3.03911 14.3878
100 3 0.981276 3.04222 11.9957
103 3 -0.704808 4.96238 12.578
117 3 2.97449 2.41381 10.2706
127 3 1.67613 4.79316 14.1355
314 1 0.433951 2.13093 16.7489
7 4 -0.797639 6.12128 16.854
300 2 2.41614 2.03623 13.4447
30 4 1.00919 6.33801 9.14264
297 1 2.36757 1.13744 14.0949
79 1 2.83515 5.47118 8.88143
32 4 1.72056 6.15813 14.9364
206 2 1.44782 1.08846 14.7386
230 2 3.00647 4.51164 9.50899
302 2 2.70371 2.96736 15.5971
12 4 -1.08127 6.28476 11.7256
120 3 5.88084 2.02094 16.2369
298 1 3.69726 3.53699 15.8524
242 2 1.23666 5.64774 11.5083
299 2 3.77229 0.800246 14.9545
304 2 3.63774 4.0706 16.8598
122 3 7.55921 0.456485 12.4876
129 3 0.538217 6.20213 16.0079
116 3 4.23624 0.659262 8.73891
243 2 3.60295 6.27227 9.07085
234 2 3.53521 5.54198 10.7151
101 3 -2.14301 6.22865 15.9843
303 2 3.942 4.3082 14.9535
130 3 4.01261 4.14325 12.6127
301 2 5.45075 2.41187 13.5279
123 3 4.77833 3.26935 8.60915
24 4 4.44015 2.10516 9.60988
76 1 4.70481 5.13841 12.5137
4 4 2.10035 -0.130451 12.9366
9 4 -3.36448 6.38388 9.59366
27 4 7.25874 1.7584 11.5964
211 2 5.27611 -0.305287 16.2785
210 2 3.71671 0.265064 17.157
290 2 -2.29857 7.35678 4.38931
36 4 0.481016 11.278 -0.0591073
361 2 -5.29296 10.6994 2.16092
333 2 -3.43327 10.7199 1.98109
332 1 -4.43295 11.2906 1.81929
327 2 -6.09504 12.7324 3.12453
15 4 -2.71864 9.08977 7.4259
17 4 -4.22996 11.0522 5.72497
106 3 -5.68908 10.9622 4.93192
107 3 -3.94145 9.79467 6.68702
108 3 -4.36779 12.3641 6.6336
133 3 -2.88916 11.3469 4.78612
360 2 -4.34593 12.3912 2.26961
293 2 -4.55858 9.26664 1.8039
256 2 -2.48037 9.265 2.99146
321 2 -2.83799 8.17236 1.17563
326 2 -7.476 12.4009 1.99749
295 2 -4.36191 7.58596 0.83332
213 2 -2.2757 8.88255 5.18411
322 2 -1.36371 8.99994 0.0622547
324 1 -7.12177 12.4724 3.07542
289 1 -4.73052 8.12632 1.73574
292 2 -2.30924 7.23133 2.4
237 2 2.00171 7.66659 8.14952
323 2 -0.855481 7.9682 1.62073
255 2 -1.73814 10.2972 1.62855
240 2 1.71556 7.63525 5.71772
215 2 -0.509114 8.81501 6.00264
69 1 -1.58323 8.37439 5.97658
132 3 -1.88746 12.5679 2.49495
253 2 1.76681 7.41033 2.92181
214 2 -1.72061 7.19846 6.0796
83 1 -1.61669 9.90116 2.62206
34 4 2.11817 9.55863 1.9013
35 4 -1.64217 11.4234 3.79639
28 4 3.15782 7.0211 0.0131117
82 1 1.13564 8.33143 2.98426
84 1 1.39352 9.56027 5.96914
1 4 -5.14723 13.0816 7.94146
134 3 0.988063 10.4404 1.23066
138 3 -0.236422 11.4653 4.63825
251 2 0.12607 8.01141 2.59538
252 2 -0.60116 9.37868 2.79107
257 2 1.19729 8.79355 4.10731
258 2 1.0712 9.24374 7.00424
354 3 -0.0451058 12.7235 0.500911
135 3 -1.65553 10.0906 8.10833
104 3 -2.9426 7.63248 8.40014
320 1 -1.63576 8.08491 0.759921
139 3 0.619646 12.2094 7.13062
38 4 1.08099 11.3273 5.63703
288 1 -2.7012 6.74443 3.48428
231 2 0.685208 9.69135 8.47268
348 2 -7.69228 13.3943 0.50003
238 2 0.895689 8.79346 9.95106
144 3 -0.732817 12.0654 14.6391
68 1 -4.26691 12.8797 16.5368
212 2 -4.94194 12.5802 15.6199
147 3 1.43819 9.23972 12.0021
357 2 -5.51883 11.1575 14.2229
105 3 -6.04935 12.1346 8.78777
14 4 -3.88322 11.1134 17.0193
18 4 -2.41518 8.69523 13.2896
19 4 -3.99549 10.626 11.2834
109 3 -3.44916 7.99474 14.3461
112 3 -3.38942 9.5745 12.2346
113 3 -3.71386 12.5023 13.4548
137 3 -3.00522 11.0659 10.1946
145 3 -2.51273 10.7434 16.2307
66 1 -4.18942 12.3993 12.31
111 3 -5.39539 10.2754 10.7111
356 2 -3.94247 12.9979 11.2911
146 3 -0.427457 10.7038 10.4932
26 4 0.0647025 12.9107 13.4159
232 2 -0.369188 8.06526 8.70767
328 1 -5.35229 9.86246 16.4468
75 1 0.707789 8.62037 8.86977
136 3 -1.21934 12.6557 8.93858
236 2 1.08263 7.62343 11.3845
148 3 0.928672 11.9342 12.5323
110 3 -1.61622 7.52944 12.5304
142 3 -1.37797 9.60434 14.1269
37 4 -1.61655 11.066 9.45702
39 4 2.40744 8.64297 13.0668
40 4 -1.1592 10.679 15.2904
41 4 0.942379 10.8872 11.293
140 3 1.83845 7.40992 13.9056
143 3 0.13608 10.1373 16.344
330 2 -4.55881 9.05498 16.1995
77 1 0.705828 6.52906 11.0487
309 2 15.0902 0.707438 1.4472
42 4 9.00504 2.01942 3.60175
72 1 6.41001 4.14984 0.644426
86 1 8.471 5.61394 5.1267
124 3 6.91516 3.46326 6.91617
149 3 8.65488 0.72928 2.66127
150 3 7.81474 2.16488 4.75941
164 3 8.93555 3.28754 2.6146
168 3 9.36319 4.95646 0.451809
50 4 10.0877 4.24034 1.73873
305 4 12.7864 0.197071 1.78927
266 2 8.92074 4.92686 6.98955
265 2 8.79284 4.58947 5.48608
87 1 9.12235 4.41603 8.11852
263 2 8.63253 5.70511 3.92274
221 2 6.87513 4.12438 1.72188
268 2 8.65711 3.36306 8.24452
264 2 7.46521 5.88184 5.4183
355 2 15.0114 1.51802 5.73148
209 2 12.822 4.60902 6.59223
44 4 13.2166 -0.0179134 7.57048
155 3 10.3893 1.86319 4.5411
205 2 15.1478 1.18316 3.79548
308 2 14.0393 2.04 2.60704
228 2 5.58008 6.01285 0.150733
261 2 13.9696 2.27845 4.57262
52 4 10.9208 3.92109 8.22048
262 2 12.9203 3.94092 4.73248
46 4 11.508 2.21405 5.56997
85 1 12.9365 2.80734 4.41625
156 3 12.2809 1.07927 6.48314
165 3 11.2685 3.36448 1.16803
166 3 10.7584 5.3932 2.7846
170 3 11.2094 3.59147 6.58124
260 2 12.3398 2.55199 3.44628
307 3 11.8197 0.652942 0.649159
306 1 14.1582 1.02291 2.00044
270 2 11.2435 6.39649 6.85669
319 2 12.9731 4.81605 0.993002
276 2 5.84311 6.64659 2.64967
152 3 14.1154 0.439262 8.77999
163 3 13.1342 0.826774 12.8852
267 2 8.85032 5.1194 9.03917
51 4 9.96404 6.02103 16.9908
172 3 6.24572 5.38298 8.62294
45 4 10.0338 1.59962 10.0483
48 4 9.90217 1.854 15.1206
73 1 7.19832 3.0764 12.9586
154 3 8.69906 2.22813 10.763
158 3 9.53361 0.551526 14.2499
160 3 8.6328 2.12366 16.0948
180 3 10.1137 4.98953 12.0429
224 2 6.25846 3.85788 12.7323
225 2 8.21356 3.56672 12.7537
226 2 7.14714 2.51673 13.9325
350 1 8.64786 5.7079 15.6772
351 2 8.64485 4.63034 15.5045
153 3 9.42825 0.661234 8.77505
175 3 10.1976 3.23581 14.1883
353 2 7.64008 6.08368 16.0598
176 3 12.0325 3.17561 12.4206
233 2 5.69769 5.75406 13.0952
161 3 13.72 2.15537 10.6276
177 3 11.9508 5.31277 14.115
171 3 11.8468 5.18124 8.81536
169 3 10.8599 2.65759 9.16677
162 3 11.08 0.994965 11.0705
2 4 14.6285 1.90177 9.39429
5 4 14.914 1.9963 15.4687
49 4 12.5562 1.84242 11.8078
55 4 11.1891 4.17927 13.2839
151 3 13.6151 2.38586 16.334
157 3 14.9914 0.386331 14.8051
159 3 11.2225 1.52591 16.032
223 2 7.72706 4.54294 17.0518
179 3 8.29423 6.34699 10.1909
352 2 8.88239 6.30518 14.773
56 4 9.91639 6.31365 11.243
22 4 7.43068 2.10238 17.0836
43 4 12.3144 1.85993 17.1078
188 3 8.85227 9.80694 8.48975
58 4 3.67869 11.3723 3.86035
183 3 3.10147 10.2927 2.86399
185 3 2.51897 11.7158 4.97902
269 2 10.7904 8.13936 7.52368
189 3 3.73119 12.4621 8.37335
280 2 3.86678 10.071 7.46824
287 4 11.4011 6.87718 3.19542
184 3 4.07621 12.597 2.90129
229 2 5.59653 7.99551 0.206497
88 1 10.4478 7.11902 7.18858
259 2 2.52537 9.50433 5.79328
346 1 7.6329 12.4656 0.127579
247 2 4.41596 8.46641 7.03834
245 2 4.4256 8.38057 5.05547
274 2 5.97526 8.20694 3.71688
246 2 5.87115 7.59567 6.10793
80 1 4.78063 7.87743 6.07059
13 4 8.77437 10.8812 4.0618
54 4 9.41638 7.32639 5.63947
57 4 7.56931 8.51222 2.05967
59 4 7.68711 9.17305 7.51426
61 4 6.11845 11.248 5.88887
90 1 6.50964 7.33042 3.18729
181 3 8.25497 7.54502 1.01696
182 3 8.5583 9.64689 2.98525
187 3 8.37571 8.41449 6.11751
191 3 7.57861 11.3232 4.97516
192 3 4.94934 10.7073 4.80144
193 3 6.38251 10.1768 7.06376
194 3 5.63141 12.6456 6.5085
91 1 6.4202 9.63311 1.00344
365 2 6.4299 10.7717 1.22067
277 2 5.43776 9.08356 1.48206
316 2 6.93749 12.0207 0.99188
174 3 10.6366 7.53595 4.46765
294 2 10.0658 7.97893 1.65848
275 2 7.19956 6.71084 3.95389
282 2 3.80384 10.5118 -0.00835246
329 2 9.04595 9.84553 0.00126381
131 3 2.89929 8.49134 0.690014
186 3 6.93457 7.93302 8.31104
364 2 9.78237 6.65566 8.00586
286 2 7.22201 8.89889 10.9597
272 2 10.4482 8.41841 12.1514
167 3 11.1785 6.6378 16.1759
227 2 5.86592 6.63441 15.8365
285 2 7.28461 9.2517 12.9202
60 4 3.60239 11.3762 9.55227
62 4 3.61193 10.9367 15.1348
279 2 4.66248 9.19904 8.94321
273 2 9.57253 7.28797 13.363
190 3 2.27943 11.2085 10.3599
195 3 2.98569 9.77743 14.0972
197 3 2.55915 11.4686 16.2456
196 3 4.49602 12.0173 14.2984
53 4 6.81258 6.69918 9.4166
347 2 7.76338 12.4006 16.4193
283 2 6.00702 10.2718 15.8992
331 2 10.0456 10.375 15.4394
366 2 7.42616 9.09203 17.0715
337 2 8.36345 12.2905 13.8054
339 2 9.56935 10.7884 12.5874
334 1 9.39335 11.0172 13.6678
47 4 5.5536 13.1463 13.6285
335 2 8.79942 10.1915 14.1555
141 3 3.70882 7.88377 12.1658
178 3 11.2055 6.84854 10.3683
248 2 8.76365 8.87906 15.57
249 2 7.11339 7.95816 15.7509
81 1 7.70683 8.72759 15.1112
173 3 5.72261 7.06934 10.5211
235 2 7.1346 9.73074 15.1514
250 2 7.7737 8.41484 13.9457
33 4 4.52348 6.76842 11.4442
16 4 9.36325 10.8191 9.5221
63 4 6.51816 11.2968 11.2605
89 1 9.5586 7.7616 12.3614
93 1 4.90253 9.92946 16.1491
94 1 6.76968 9.47313 11.8256
198 3 7.87292 11.2286 10.4062
199 3 5.03831 11.2698 10.507
200 3 6.5198 12.3074 12.5596
271 2 8.49653 8.36225 12.1563
281 2 4.65662 8.88976 15.8883
284 2 5.58792 9.22017 11.8462
74 1 5.95179 6.68169 16.9621
349 2 9.24518 11.2897 16.982
92 1 3.75284 9.73199 8.61382
11 4 12.3528 6.52504 15.0288
278 2 2.66949 9.23714 8.8292
ITEM: TIMESTEP
200
ITEM: NUMBER OF ATOMS
366
ITEM: BOX BOUNDS xy xz yz pp pp pp
-8.3370488766021680e+00 1.6854851625161821e+01 -8.4375460746530955e+00
-3.4040069833810205e-01 1.3444835739784946e+01 8.3044882321290159e-01
-8.0556304019379965e-02 1.7160257430099676e+01 -3.1796495855315698e-01
ITEM: ATOMS id type x y z
254 2 -2.74179 5.65148 3.43713
244 2 2.9132 4.75785 8.03393
208 2 -2.40398 6.0954 7.23728
67 1 -2.1104 5.2519 6.54016
359 2 -1.18945 3.98687 0.149172
291 2 -0.210197 4.76467 3.77918
317 1 -1.78201 4.90494 0.513838
3 4 0.938314 2.90557 4.83335
8 4 -0.678002 4.31488 7.36078
64 1 0.525177 3.9917 3.3767
98 3 0.227362 3.65755 6.15962
114 3 2.58359 2.54256 4.73563
201 2 -0.0379677 3.03249 2.81093
202 2 1.31669 4.47548 2.62906
203 2 1.54411 2.77045 2.06261
310 1 2.04845 0.847993 7.01884
338 1 2.06878 2.08306 1.36485
341 2 2.41105 2.73455 0.330966
344 2 3.06035 4.57213 1.30172
340 2 3.10985 1.69362 1.90773
78 1 2.18968 6.41052 5.61118
342 1 2.6047 5.53488 1.38523
239 2 2.30917 5.97732 4.43654
311 2 2.30492 0.484754 5.96896
358 2 1.36789 1.25064 1.06872
345 2 1.45941 5.49426 1.18717
312 2 2.48224 1.88424 7.13929
216 2 3.49096 0.435664 2.5692
204 2 0.609619 0.329291 5.06803
343 2 2.72921 6.06534 2.39972
23 4 8.3478 -0.160343 7.86699
207 2 -1.71684 5.5554 5.54732
313 2 0.984976 0.721328 7.34402
241 2 1.51737 5.6497 6.12967
125 3 0.0640543 5.38542 8.24937
65 1 -0.076291 1.17777 4.88885
318 2 -1.36894 5.35104 1.5753
210 2 2.82334 0.579548 0.210464
31 4 3.95963 6.27462 5.93765
70 1 4.45066 0.710443 3.08935
21 4 4.23338 2.24232 4.32465
219 2 3.73616 4.28847 3.40359
220 2 5.23376 3.89564 2.34663
126 3 4.63074 4.97669 6.51863
71 1 4.74338 3.78118 3.40265
336 2 -0.900171 2.27127 0.505224
362 2 5.35814 0.949299 2.38822
115 3 6.57824 1.34397 1.16726
118 3 5.34537 1.81693 5.48112
119 3 7.52605 0.869376 6.93627
20 4 7.69517 0.131594 1.80107
97 3 -1.38796 3.23683 8.20859
123 3 4.93087 3.06678 8.49499
222 2 5.14692 4.36632 0.678084
218 2 5.53494 4.07916 4.26179
217 2 4.684 -0.0873065 3.87412
325 2 0.863596 -0.0291837 3.61982
22 4 6.46219 2.35616 -0.075603
128 3 3.15566 6.39458 15.9555
102 3 -2.26309 5.98873 10.531
121 3 5.75727 1.95892 10.6357
315 2 1.11123 1.03186 16.7138
296 4 4.83051 2.24118 15.1593
363 2 1.16069 2.84424 16.5666
6 4 1.4734 2.13273 10.8959
10 4 0.427666 3.89609 13.3401
95 3 0.309601 2.05812 9.77098
96 3 1.66563 0.705904 11.5562
99 3 -0.323398 2.85004 14.3553
100 3 0.977701 3.16754 12.0711
103 3 -0.7166 4.92534 12.7458
117 3 2.98317 2.50636 10.323
127 3 1.61475 4.74 14.117
314 1 0.513844 1.95896 16.769
7 4 -0.858379 6.13538 16.6856
300 2 2.42583 2.08957 13.7775
30 4 0.961439 6.35351 9.0656
297 1 2.46951 1.05563 14.1895
79 1 2.68946 5.44412 8.90673
32 4 1.70301 6.16288 14.9164
206 2 1.52042 0.728264 14.8434
230 2 2.43544 4.8606 9.90352
302 2 2.7305 2.96539 15.7304
12 4 -1.17154 6.21492 11.7802
120 3 5.99445 1.94493 16.1623
298 1 3.71155 3.51242 15.9004
242 2 1.18876 5.78436 11.6603
299 2 3.88903 0.720389 14.7581
304 2 3.70579 4.04351 16.886
122 3 7.28252 0.411621 12.4569
129 3 0.387051 6.04716 15.8239
116 3 4.07032 0.602605 8.99107
243 2 3.49308 6.28674 8.89954
234 2 3.40838 6.03317 10.6294
101 3 -2.27292 6.25916 15.9518
303 2 3.92429 4.28458 15.0106
130 3 4.12574 4.17007 12.4605
301 2 5.52792 2.63189 13.6648
77 1 0.495539 6.49122 11.0198
24 4 4.40766 2.10839 9.65455
76 1 4.71976 5.23133 12.5928
4 4 2.21159 -0.00600955 12.8313
9 4 -3.50837 6.40262 9.61064
27 4 7.27711 1.75412 11.6513
211 2 5.19062 -0.121875 16.3843
290 2 -2.48416 7.34386 4.43745
288 1 -2.73669 6.75985 3.44304
361 2 -5.16189 10.8775 2.21346
333 2 -3.28101 10.5075 1.89968
332 1 -4.23456 11.2449 1.70771
327 2 -5.91017 12.6026 2.83958
15 4 -2.69633 9.08441 7.47574
17 4 -4.24181 11.0402 5.79114
106 3 -5.52256 11.0298 4.7264
107 3 -4.02541 9.70112 6.71973
108 3 -4.31453 12.38 6.72932
133 3 -2.94974 11.309 4.78161
360 2 -4.0742 12.3843 2.10799
293 2 -4.49561 9.29444 1.74912
256 2 -2.38517 9.24257 3.04571
321 2 -2.8129 8.15795 1.05875
326 2 -7.50912 12.478 1.84119
295 2 -4.12342 7.71056 0.661556
213 2 -2.44796 8.8913 5.20305
322 2 -1.24104 8.87086 0.0135407
324 1 -7.08562 12.5873 2.94128
289 1 -4.70434 8.12726 1.58613
292 2 -2.23404 7.28185 2.43176
237 2 1.797 7.72188 7.96529
323 2 -0.880446 7.86963 1.52165
255 2 -1.61647 10.2784 1.69959
240 2 1.80868 7.5493 5.70101
215 2 -0.544066 8.85906 5.96239
69 1 -1.71423 8.43048 5.99464
132 3 -1.68908 12.6324 2.90169
253 2 1.9073 7.34123 3.05472
214 2 -1.84174 7.22411 6.14968
83 1 -1.54342 9.85577 2.78727
34 4 2.11824 9.39094 1.8684
35 4 -1.60697 11.4407 3.88586
28 4 3.11285 6.96925 0.100261
82 1 1.19249 8.21849 2.99476
84 1 1.36374 9.53813 5.93484
1 4 -5.22512 13.1825 8.04451
134 3 0.993068 10.3552 1.00805
138 3 -0.178075 11.3392 4.59461
251 2 0.164295 7.89583 2.54849
252 2 -0.518574 9.29674 2.91042
257 2 1.17523 8.73971 4.17481
258 2 1.07886 9.25189 7.02214
354 3 -0.301853 12.6515 0.42891
135 3 -1.71247 10.1246 8.23199
348 2 -7.63189 13.2946 0.448296
320 1 -1.63057 8.07233 0.720271
139 3 0.680886 12.0226 7.00087
38 4 1.10378 11.3332 5.56343
238 2 1.05282 8.68403 9.95711
144 3 -0.691754 12.288 14.6698
68 1 -4.27537 12.957 16.7563
212 2 -4.94864 12.6777 15.7998
147 3 1.36221 9.35536 11.992
357 2 -5.54881 10.9667 14.0044
105 3 -6.13521 12.0887 8.75331
14 4 -3.69384 11.1721 17.0149
18 4 -2.46484 8.71723 13.3192
19 4 -4.16337 10.7444 11.1551
109 3 -3.42766 7.95614 14.3866
112 3 -3.38915 9.70342 12.2682
113 3 -3.72442 12.5005 13.3844
137 3 -3.08827 11.1021 10.0981
145 3 -2.39004 10.8515 16.2452
66 1 -4.314 12.445 12.2861
111 3 -5.64395 10.3239 10.7262
356 2 -3.98779 13.0071 11.1375
146 3 -0.325778 10.6227 10.4041
26 4 0.153688 13.0931 13.477
232 2 -0.469182 8.49623 8.8826
328 1 -5.24453 9.89994 16.3724
75 1 0.64699 8.68915 8.88593
136 3 -1.16784 12.6159 8.89115
236 2 0.634125 7.58132 11.2691
148 3 0.806637 11.9909 12.5241
110 3 -1.60548 7.56757 12.5493
142 3 -1.4115 9.70265 13.9908
37 4 -1.54959 11.1871 9.54566
39 4 2.4326 8.54195 13.0649
40 4 -0.992302 10.7227 15.1884
41 4 1.03329 10.7565 11.4102
140 3 1.58123 7.48414 13.8551
143 3 0.120528 10.0567 16.2183
330 2 -4.61724 9.01771 16.2313
36 4 1.27634 11.0582 17.1183
104 3 -3.09971 7.54238 8.5598
331 2 -5.72891 10.2038 15.2808
231 2 0.673976 9.75221 8.58481
309 2 15.221 0.387467 1.612
42 4 9.07742 1.97718 3.69763
72 1 6.21893 4.08646 0.600533
86 1 8.27079 5.64422 5.20282
124 3 6.93307 3.58477 6.80977
149 3 8.99478 0.673552 2.63741
150 3 7.76468 2.21411 4.61849
164 3 9.15934 3.35154 2.81558
168 3 9.27829 4.92978 0.489816
50 4 10.1564 4.1874 1.68752
305 4 12.9285 0.128626 1.82595
266 2 8.79547 4.93771 7.07742
265 2 8.99975 4.83655 5.44916
87 1 9.07601 4.47968 8.07609
263 2 7.92758 5.4771 4.14249
221 2 6.77277 4.04009 1.5592
268 2 8.52103 3.50065 8.23952
264 2 7.37304 5.6704 5.92704
355 2 15.0569 1.29524 5.66551
209 2 12.8758 4.56478 6.50436
44 4 13.1764 -0.0771659 7.595
155 3 10.4453 1.77268 4.78679
205 2 15.2859 1.12219 3.87396
308 2 14.1671 2.17579 2.11476
228 2 5.44445 5.94099 0.13748
261 2 14.0785 2.08156 4.53649
52 4 10.9351 4.00186 8.19875
262 2 12.9975 3.72567 4.61574
46 4 11.711 2.0253 5.66761
85 1 13.0162 2.62951 4.39929
156 3 12.3239 1.00776 6.69489
165 3 11.035 3.08224 0.99781
166 3 10.9595 5.44209 2.38523
170 3 11.3809 3.59294 6.66164
260 2 12.4041 2.29659 3.45426
307 3 12.0624 0.714384 0.696847
306 1 14.3008 0.977332 2.1243
29 4 5.78321 4.19793 7.6996
319 2 12.9953 4.70077 0.528482
276 2 5.96239 6.58826 2.43865
270 2 11.1182 6.44582 7.0602