ITEM: TIMESTEP
0
ITEM: NUMBER OF ATOMS
366
ITEM: BOX BOUNDS xy xz yz pp pp pp
-8.3370488766021680e+00 1.6854851625161821e+01 -8.4375460746530955e+00
-1.6969957225771504e-01 1.3444835739784946e+01 8.3044882321290159e-01
-8.0556304019379965e-02 1.6989556304019288e+01 -1.4726383247276997e-01
ITEM: ATOMS id type x y z
254 2 -2.56236 5.51568 3.43736
244 2 2.83607 4.93733 7.72941
208 2 -2.44701 6.22154 7.28921
67 1 -2.21327 5.36128 6.54154
359 2 -1.12348 4.08522 0.258105
291 2 0.210483 4.99998 3.87688
317 1 -1.67289 5.10395 0.777689
3 4 0.87752 2.92695 4.7544
8 4 -0.746197 4.25177 7.20874
64 1 0.673542 4.15227 3.31088
98 3 0.229419 3.6342 6.0281
114 3 2.43236 2.50929 4.5931
201 2 -0.148263 3.47203 2.79378
202 2 1.48892 4.58186 2.55084
203 2 1.37676 2.81206 1.83715
310 1 1.88871 0.840523 7.12152
338 1 1.91316 2.05434 1.13207
341 2 2.28983 2.71392 0.179946
344 2 3.6832 4.86981 1.26544
340 2 2.80078 1.58132 1.76869
78 1 2.19311 6.49423 5.68401
342 1 2.72089 5.57042 1.30869
239 2 2.23278 6.0301 4.34481
311 2 1.93996 0.733585 6.04587
358 2 1.13385 1.24097 0.846456
345 2 1.75594 5.20615 0.804811
312 2 1.98616 1.90229 7.44692
216 2 3.34054 0.314815 2.44622
325 2 0.873903 0.00417344 3.6683
343 2 2.53355 6.06291 2.2772
210 2 2.63483 0.439905 0.124135
207 2 -1.67599 5.71675 5.59738
313 2 0.997618 0.248409 7.56909
241 2 1.74154 5.66417 6.39284
125 3 0.0761049 5.35061 8.17498
65 1 -0.316012 1.2518 4.78037
318 2 -0.960983 5.59944 1.57577
29 4 5.57782 4.3521 7.67715
31 4 3.97273 6.31412 5.65985
70 1 4.25528 0.762886 2.89321
21 4 4.11096 2.26069 4.29393
219 2 3.86548 4.58535 3.60027
220 2 4.93442 3.3286 2.51327
126 3 4.66034 5.1387 6.55233
71 1 4.71143 3.83168 3.56773
336 2 -0.936041 2.60728 0.390364
362 2 4.98118 1.02941 2.042
115 3 6.46788 1.39953 0.976696
118 3 5.18268 1.79687 5.45172
119 3 7.51795 1.04141 6.93997
20 4 7.59604 0.191388 1.68153
97 3 -1.47166 3.28891 8.22464
25 4 6.76985 2.16726 5.99127
222 2 5.32967 4.3422 0.789823
319 2 -2.75235 4.93292 0.996779
217 2 4.778 0.120912 3.68922
23 4 8.34348 -0.00590619 7.92378
288 1 -2.70774 6.6413 3.37823
218 2 5.67168 4.05632 4.14442
128 3 3.10222 6.48244 15.6552
102 3 -2.11993 6.04396 10.2135
121 3 5.71419 2.03757 10.6178
315 2 0.905362 1.30621 16.3574
296 4 4.90665 2.42595 14.8701
363 2 1.13785 3.11617 16.1867
6 4 1.43419 2.12177 10.6926
10 4 0.229456 4.1633 13.1602
95 3 0.400231 1.88966 9.50574
96 3 1.54816 0.668073 11.5479
99 3 -0.475773 3.17634 14.1426
100 3 0.984383 3.22073 11.8164
103 3 -0.840041 5.19194 12.6198
117 3 2.96678 2.17463 10.1701
127 3 1.61559 5.00047 13.9132
314 1 0.41114 2.3299 16.4552
7 4 -0.804112 6.37466 16.6661
300 2 2.404 2.24707 13.3406
30 4 1.10499 6.29068 9.05723
297 1 2.41461 1.24675 13.9285
79 1 2.75732 5.37486 8.76038
32 4 1.7862 6.33589 14.6903
206 2 1.44695 1.04079 14.5713
230 2 2.53956 4.61522 9.64069
302 2 2.76367 2.93722 15.5172
12 4 -1.17957 6.33884 11.5136
120 3 5.96203 2.29522 15.9713
298 1 3.73977 3.66459 15.6379
242 2 1.29092 6.01005 11.5261
299 2 3.91399 0.931304 14.6337
304 2 3.68723 4.23539 16.6313
122 3 7.56893 0.509085 12.2461
129 3 0.582022 6.39423 15.8926
116 3 4.46304 0.791417 8.55998
243 2 3.6209 6.09627 9.00106
234 2 3.17796 5.88377 10.6807
101 3 -2.23078 6.40309 15.8488
303 2 3.93191 4.43806 14.6983
130 3 4.08208 4.40424 12.3946
301 2 5.59645 2.5971 13.2842
123 3 4.69645 3.46463 8.65573
24 4 4.51974 2.15332 9.61962
76 1 4.79826 5.38076 12.5483
4 4 2.23893 -0.0425891 12.7426
9 4 -3.41614 6.49262 9.45325
22 4 7.32301 2.29977 16.8456
27 4 7.35007 1.85064 11.4242
290 2 -2.43975 7.2365 4.32742
36 4 0.448374 11.3755 -0.0192151
361 2 -5.36339 10.6622 2.01085
333 2 -3.47759 10.6895 2.03436
332 1 -4.42305 11.2464 1.69912
327 2 -5.87377 12.7051 3.18231
15 4 -2.59618 9.13799 7.28271
17 4 -4.22409 11.1185 5.69992
106 3 -5.76444 10.8176 4.82985
107 3 -3.78906 9.91336 6.7028
108 3 -4.41798 12.4407 6.52683
133 3 -3.14799 11.2822 4.59225
360 2 -4.38028 12.3602 2.06839
293 2 -4.55465 9.19386 1.77361
256 2 -2.60149 9.41273 3.07493
321 2 -2.76585 8.24781 1.19815
231 2 0.550426 9.77222 8.38648
295 2 -4.00505 7.52493 0.823282
213 2 -2.22142 8.71684 4.85155
322 2 -1.32339 8.9878 0.135608
324 1 -7.01677 12.6164 3.1434
289 1 -4.64659 7.99957 1.68985
292 2 -2.30413 7.16147 2.39306
348 2 -7.68798 13.3914 0.603922
323 2 -0.907415 7.80864 1.61314
255 2 -1.76333 10.4711 1.67006
240 2 1.82016 7.65987 5.86701
215 2 -0.527981 8.84452 5.83412
69 1 -1.70837 8.41885 5.79435
132 3 -1.80784 12.7827 2.58409
253 2 1.8066 7.32407 2.93647
214 2 -1.8639 7.23933 6.03338
83 1 -1.59724 9.95361 2.70441
34 4 1.97992 9.39608 1.85209
35 4 -1.68402 11.5364 3.76861
28 4 3.04467 6.96391 -0.0333917
82 1 1.09739 8.21883 2.99892
84 1 1.31097 9.64383 5.90868
131 3 2.70789 8.35716 0.77732
134 3 0.909737 10.4385 1.23681
138 3 -0.348325 11.3689 4.56653
251 2 0.0447329 7.88203 2.76418
252 2 -0.584302 9.29361 2.75512
257 2 1.1966 8.74264 4.11378
258 2 0.995973 9.29789 6.92842
354 3 -0.280284 12.8025 0.429453
135 3 -1.51916 10.1496 8.06099
104 3 -2.92965 7.57822 8.30037
320 1 -1.65796 8.09712 0.782947
326 2 -7.45251 12.4732 2.08656
38 4 1.07752 11.4413 5.5816
237 2 1.69096 7.78135 7.96406
1 4 -5.04178 13.2587 7.78409
238 2 0.707381 8.74155 9.95599
144 3 -0.66713 12.1905 14.5466
68 1 -4.55233 12.8772 16.4572
212 2 -5.34619 12.4394 15.689
147 3 1.44782 9.46351 11.8848
357 2 -5.81621 11.1793 14.0502
105 3 -5.7827 12.2376 8.76338
14 4 -3.85607 11.1985 16.8377
18 4 -2.40079 8.70273 13.2306
19 4 -4.01082 10.764 11.0439
109 3 -3.46913 7.88224 13.9633
112 3 -3.39342 9.80421 12.1327
113 3 -3.7616 12.4919 13.5313
137 3 -2.87629 11.1621 10.0561
145 3 -2.47492 10.8943 16.1779
66 1 -4.21842 12.3624 12.3894
111 3 -5.5893 10.3917 10.6184
356 2 -3.65348 12.9922 11.3193
146 3 -0.184512 10.9129 10.458
26 4 0.03568 13.0846 13.3888
232 2 -0.509481 8.26485 8.58206
328 1 -5.3785 9.95181 16.1681
75 1 0.504989 8.7393 8.81189
136 3 -1.26244 12.7598 8.80337
236 2 0.78149 7.73943 11.0718
278 2 2.37901 9.32713 8.5833
110 3 -1.57735 7.71537 12.2313
142 3 -1.42871 9.56747 14.1357
37 4 -1.41055 11.2115 9.38516
39 4 2.52472 8.77555 12.9664
40 4 -1.04466 10.7927 15.1098
41 4 1.11793 10.9263 11.3245
140 3 1.69876 7.64004 13.7542
143 3 0.0740625 10.361 16.1821
77 1 0.616793 6.64649 10.8542
148 3 0.941856 11.967 12.5926
211 2 -3.51248 13.2119 15.8931
309 2 15.0892 0.345697 1.8241
42 4 8.95064 2.17587 3.59055
72 1 6.41918 4.18029 0.651831
86 1 8.72901 5.68105 5.07792
124 3 6.72179 3.57393 6.78574
149 3 8.60315 0.818248 2.73579
150 3 7.62535 2.45769 4.7703
164 3 9.02109 3.46503 2.61666
168 3 9.3536 5.04613 0.525349
50 4 10.0788 4.21302 1.67455
305 4 12.7545 0.365923 2.00557
266 2 8.91563 4.87089 6.8784
265 2 9.5046 4.8631 5.29751
87 1 9.06965 4.44744 8.02167
263 2 8.42214 5.53761 4.09628
221 2 6.97366 4.35358 1.6412
268 2 8.47516 3.56821 8.30862
264 2 7.83919 5.48652 5.8411
355 2 14.8631 1.52741 5.58985
209 2 12.783 4.67902 6.35798
44 4 13.2295 0.0328823 7.31284
155 3 10.3559 2.00907 4.37644
205 2 15.0607 1.26583 3.66463
308 2 14.2759 2.2191 2.15003
228 2 5.53334 5.88848 0.0415491
261 2 13.9911 2.47091 4.4664
52 4 10.9234 4.02351 8.08918
262 2 13.1019 4.21419 4.64818
46 4 11.6307 2.41735 5.45977
85 1 12.9971 3.13314 4.36316
156 3 12.4303 1.07177 6.48346
165 3 11.3117 3.22291 1.13962
166 3 10.8871 5.43038 2.67739
170 3 11.2149 3.65097 6.33063
260 2 12.3767 3.03989 3.3848
307 3 11.7953 0.636742 0.776499
306 1 14.1847 1.07743 1.85733
152 3 14.1733 0.695747 8.38346
204 2 16.0666 0.248924 4.98895
11 4 12.3627 6.53769 14.9389
163 3 13.0632 0.839712 12.7826
267 2 8.87662 5.38013 8.84806
51 4 9.93212 6.19935 16.7894
172 3 6.43446 5.45499 8.5083
45 4 10.0684 1.65666 9.93999
48 4 9.81751 2.09955 14.9622
73 1 7.3375 3.33118 12.6259
154 3 8.68136 2.32385 10.665
158 3 9.56754 0.751398 14.0873
160 3 8.51915 2.40335 15.8922
180 3 10.1465 5.27088 12.0752
224 2 6.37524 4.09068 12.588
225 2 8.29377 3.90787 12.4656
226 2 7.36245 2.66157 13.5787
350 1 8.60383 5.94404 15.4583
351 2 8.72641 4.85662 15.2739
153 3 9.38843 0.541011 8.9382
175 3 10.0676 3.32338 13.9588
353 2 7.56732 6.28828 15.7966
176 3 12.1243 3.2887 12.4015
233 2 5.35461 6.08142 13.3358
161 3 13.9186 2.08948 10.5437
177 3 11.9432 5.24806 14.066
171 3 11.809 5.27613 8.60401
169 3 10.8062 2.82882 9.06234
162 3 11.2262 1.25268 10.9474
2 4 14.7084 2.0255 9.22498
5 4 14.8888 2.12824 15.1057
49 4 12.5554 1.90958 11.6738
55 4 11.1347 4.26212 13.1568
151 3 13.552 2.42292 16.003
157 3 14.9856 0.654654 14.5256
159 3 11.0089 1.98476 16.1266
223 2 7.6677 4.79615 16.7896
179 3 8.49333 6.5439 10.1006
43 4 12.3083 2.03294 16.9436
56 4 9.94038 6.6086 11.1147
188 3 8.78873 9.93508 8.37
58 4 3.67315 11.3623 3.95112
183 3 3.02074 10.0581 2.94229
185 3 2.43574 11.9805 4.75307
269 2 10.5074 8.47704 7.46674
189 3 3.78671 12.3898 8.09816
280 2 3.61191 10.1621 7.32401
287 4 11.3995 6.81366 3.22791
184 3 4.32787 12.5797 2.97481
229 2 5.51361 7.89463 0.224162
88 1 10.4079 7.33404 7.26622
270 2 11.3864 6.92068 6.90969
346 1 7.68935 12.4289 0.146767
247 2 4.4488 8.63541 6.86669
245 2 4.55806 8.4299 4.91949
274 2 6.14331 8.32312 3.96499
246 2 5.92383 7.61182 5.95173
80 1 4.80838 7.90727 5.95158
13 4 8.77758 10.9391 4.06961
54 4 9.52914 7.49977 5.63546
57 4 7.57448 8.60149 2.08989
59 4 7.60012 9.15903 7.5773
61 4 6.11089 11.2339 5.82088
90 1 6.70678 7.51531 3.35094
181 3 8.43354 7.73585 1.05828
182 3 8.44854 9.8587 2.93546
187 3 8.28399 8.38498 6.03518
191 3 7.51763 11.198 5.0125
192 3 4.81214 10.7913 4.90272
193 3 6.40155 10.1264 7.16795
194 3 5.86931 12.714 6.31612
91 1 6.24076 9.60305 1.04979
365 2 6.32743 10.7205 1.25454
277 2 5.35525 9.0593 1.61003
316 2 6.97281 11.9298 0.868859
174 3 10.7064 7.47576 4.5254
294 2 10.1834 7.83136 1.44045
275 2 7.50287 6.83129 3.99322
282 2 4.01007 10.7345 0.0466277
276 2 5.93307 6.92662 2.76311
92 1 3.60487 9.74684 8.3911
259 2 2.43486 9.49316 5.669
139 3 0.716472 12.315 6.88144
364 2 9.88025 6.81939 8.082
186 3 7.05326 8.01786 8.41747
329 2 8.9646 10.0444 -0.0151001
286 2 7.29329 8.97177 10.9894
272 2 10.4913 8.66449 12.1576
167 3 11.1993 6.83414 16.2043
227 2 5.70667 6.68203 15.6342
285 2 7.26991 9.57676 12.8042
60 4 3.78251 11.4166 9.31208
62 4 3.75567 11.0655 14.9647
366 2 7.11164 9.27695 16.9436
273 2 9.73542 7.50335 13.3766
190 3 2.38108 11.4096 10.3455
195 3 3.25616 9.91459 13.9052
197 3 2.47831 11.3852 16.0063
196 3 4.49475 12.3054 14.4078
53 4 6.80806 6.74373 9.37377
347 2 7.95957 12.6098 16.4067
283 2 6.11478 10.7961 15.6999
331 2 10.0669 10.4488 15.2118
352 2 8.93303 6.5948 14.6204
337 2 8.44145 12.3208 13.5
339 2 9.18739 10.7739 12.4236
334 1 9.0633 11.1203 13.5154
47 4 5.46389 13.2193 13.5027
335 2 8.42859 10.3201 14.0408
141 3 3.7509 8.08089 12.0398
178 3 11.3128 6.98734 10.4248
248 2 8.54925 8.75276 15.2154
249 2 6.85338 8.14766 15.6812
81 1 7.40151 8.87829 14.9752
173 3 5.65184 7.10815 10.4994
235 2 7.15103 9.9541 15.3433
250 2 7.14186 8.6604 13.8808
33 4 4.43568 6.88507 11.3695
16 4 9.3376 10.9574 9.4741
63 4 6.5531 11.3112 11.0849
89 1 9.61031 7.99783 12.3391
93 1 5.1331 10.3211 16.0345
94 1 6.79767 9.58877 11.8023
198 3 7.88094 11.582 10.2314
199 3 5.13488 11.2857 10.1543
200 3 6.25934 12.1591 12.429
271 2 8.53418 8.59015 12.1661
281 2 5.13411 9.14198 15.8058
284 2 5.65014 9.26471 11.938
74 1 5.82801 6.76686 16.7729
349 2 9.33226 11.4759 16.8142
279 2 4.3817 8.92895 8.59877
330 2 10.9929 8.92718 15.9246
ITEM: TIMESTEP
100
ITEM: NUMBER OF ATOMS
366
ITEM: BOX BOUNDS xy xz yz pp pp pp
-8.3370488766021680e+00 1.6854851625161821e+01 -8.4375460746530955e+00
-1.6969957225771504e-01 1.3444835739784946e+01 8.3044882321290159e-01
-8.0556304019379965e-02 1.6989556304019288e+01 -1.4726383247276997e-01
ITEM: ATOMS id type x y z
254 2 -2.55931 5.62939 3.58253
244 2 2.7127 5.15405 7.7142
208 2 -2.46865 6.30094 7.25233
67 1 -2.20317 5.39504 6.58398
359 2 -1.25042 4.06619 0.361121
291 2 -0.113411 4.78675 3.50969
317 1 -1.8212 4.99488 0.844961
3 4 0.917871 2.96796 4.75684
8 4 -0.819999 4.33787 7.34363
64 1 0.642331 4.00825 3.23072
98 3 0.285944 3.74602 5.9505
114 3 2.4991 2.43692 4.6584
201 2 0.0228203 3.08012 2.6931
202 2 1.59429 4.54835 2.57739
203 2 1.50077 2.75987 1.90405
310 1 2.03321 0.855924 6.95619
338 1 2.07899 2.05338 1.10817
341 2 2.39465 2.69826 0.212607
344 2 3.34153 4.53086 1.08473
340 2 2.97086 1.66254 1.63877
78 1 2.05036 6.41527 5.61108
342 1 2.8843 5.539 1.35584
239 2 2.21289 5.94428 4.42348
311 2 1.75047 0.451778 5.95799
358 2 1.44266 1.15383 0.831109
345 2 1.71047 5.54996 1.13848
312 2 2.561 1.8469 6.97388
216 2 3.40486 0.429306 2.57334
204 2 0.570144 0.426601 5.24578
343 2 3.26223 5.91769 2.41228
210 2 2.88936 0.563995 -0.0646612
207 2 -1.8507 5.64173 5.56872
313 2 1.0989 0.928631 7.66194
241 2 1.43673 5.80638 6.3194
125 3 0.00107692 5.48251 8.26306
65 1 -0.202205 1.26179 4.90131
318 2 -1.33972 5.4846 1.69967
29 4 5.61139 4.33908 7.62938
31 4 3.85316 6.35892 5.72898
70 1 4.44289 0.845148 2.9848
21 4 4.13974 2.31025 4.29305
219 2 3.7119 4.68275 3.31667
220 2 4.88244 3.45478 2.47569
126 3 4.6544 5.18652 6.48882
71 1 4.56581 3.91612 3.46984
336 2 -0.771262 2.68108 0.605396
362 2 5.27103 1.01752 2.15586
115 3 6.60536 1.42796 1.03961
118 3 5.28903 1.97639 5.37552
119 3 7.58079 1.04734 6.88451
20 4 7.63169 0.0741916 1.649
97 3 -1.50484 3.12853 8.0311
25 4 6.9148 2.13161 5.93848
23 4 8.37924 -0.0720447 7.8664
218 2 5.38273 4.45397 4.08484
217 2 4.78308 0.147862 3.92402
128 3 3.19772 6.50576 15.7391
102 3 -2.15244 6.0337 10.3911
121 3 5.83068 1.91334 10.6208
315 2 0.942021 1.33503 16.5247
296 4 4.76494 2.39309 15
363 2 1.05333 3.22193 16.2787
6 4 1.47734 2.03646 10.7244
10 4 0.394332 4.09751 13.1082
95 3 0.36742 2.06242 9.5804
96 3 1.49096 0.513237 11.4619
99 3 -0.409523 3.1509 14.2278
100 3 0.996887 3.19028 11.8543
103 3 -0.698739 5.09027 12.4588
117 3 2.98655 2.50864 10.1679
127 3 1.68038 4.91264 13.9885
314 1 0.438857 2.31515 16.6212
7 4 -0.789085 6.27859 16.702
300 2 2.37512 2.29111 13.518
30 4 1.05811 6.33306 9.06048
297 1 2.37361 1.28811 14.0033
79 1 2.85636 5.59833 8.77411
32 4 1.7165 6.29511 14.7737
206 2 1.47623 1.15486 14.7099
230 2 2.67998 4.76313 9.53765
302 2 2.72975 3.15878 15.4667
12 4 -1.07797 6.41843 11.6098
120 3 5.88354 2.18932 16.0784
298 1 3.73782 3.73514 15.7279
242 2 1.25936 5.86768 11.4756
299 2 3.70893 1.0288 14.8223
304 2 3.63814 4.29703 16.7385
122 3 7.55942 0.57216 12.3476
129 3 0.544543 6.33706 15.8707
116 3 4.23345 0.747249 8.66126
243 2 3.8262 6.13419 8.89226
234 2 3.54976 5.66198 10.6484
101 3 -2.15093 6.37444 15.8296
303 2 4.01384 4.49939 14.829
130 3 4.00445 4.2548 12.4557
301 2 5.4238 2.53893 13.3779
123 3 4.75655 3.36724 8.52515
24 4 4.43646 2.20148 9.51842
76 1 4.6939 5.25709 12.4021
4 4 2.10353 -0.0199126 12.8219
9 4 -3.35709 6.48171 9.47529
27 4 7.25165 1.88382 11.4771
211 2 5.28854 -0.144514 16.1282
290 2 -2.32744 7.38896 4.37838
36 4 0.504295 11.2947 -0.0578384
361 2 -5.28018 10.6408 2.14481
333 2 -3.40759 10.6703 1.95818
332 1 -4.44441 11.2787 1.81395
327 2 -6.1115 12.951 2.96941
15 4 -2.70839 9.16268 7.32986
17 4 -4.24846 11.1139 5.66459
106 3 -5.70297 11.017 4.86638
107 3 -3.95212 9.84785 6.63231
108 3 -4.36595 12.444 6.56039
133 3 -2.89924 11.3701 4.755
360 2 -4.34848 12.3623 2.28147
293 2 -4.54867 9.27552 1.79894
256 2 -2.50927 9.29676 2.93916
321 2 -2.81715 8.09979 1.12494
1 4 -5.14505 13.1719 7.84449
295 2 -4.3535 7.69895 0.696369
213 2 -2.26009 8.96844 5.08406
322 2 -1.39425 9.00215 0.0605513
324 1 -7.13121 12.5225 3.0202
289 1 -4.72535 8.1272 1.66602
292 2 -2.32267 7.26003 2.37137
326 2 -7.55035 12.4476 1.93541
323 2 -0.865144 7.99121 1.61619
255 2 -1.72822 10.4061 1.59948
240 2 1.71839 7.69012 5.64349
215 2 -0.50612 8.87588 5.95644
69 1 -1.57841 8.45284 5.90729
132 3 -1.88234 12.589 2.43815
253 2 1.7732 7.38746 2.94671
214 2 -1.74829 7.30789 6.02741
83 1 -1.62156 9.92248 2.58047
34 4 2.11181 9.56581 1.87063
35 4 -1.6292 11.4346 3.76102
28 4 3.15908 7.00642 0.0355573
82 1 1.13712 8.32036 2.97441
84 1 1.41711 9.62427 5.92566
237 2 1.84056 7.79167 8.06544
134 3 0.981186 10.4628 1.2486
138 3 -0.229561 11.4956 4.60966
251 2 0.142546 7.99669 2.62871
252 2 -0.574365 9.37549 2.76969
257 2 1.2207 8.82284 4.10327
258 2 1.03061 9.3489 6.94217
354 3 -0.0316552 12.7399 0.473119
135 3 -1.64791 10.1721 8.01059
104 3 -2.93823 7.67438 8.32265
320 1 -1.63523 8.06094 0.74006
139 3 0.625942 12.2693 7.05209
38 4 1.06905 11.3959 5.59153
325 2 -7.71067 13.3711 3.70256
231 2 0.746153 9.79938 8.43682
288 1 -2.707 6.75629 3.47898
348 2 -7.71215 13.3498 0.445605
238 2 0.865841 8.84423 9.90755
144 3 -0.752951 12.214 14.5016
68 1 -4.25697 13.0465 16.3968
212 2 -4.94182 12.7395 15.4668
147 3 1.45162 9.37523 11.8909
357 2 -5.50971 11.2943 14.0312
105 3 -6.05465 12.2321 8.70233
14 4 -3.89879 11.2889 16.8648
18 4 -2.40622 8.83797 13.1484
19 4 -4.01306 10.7533 11.1699
109 3 -3.45521 8.12676 14.2066
112 3 -3.38332 9.69821 12.1132
113 3 -3.70683 12.6426 13.3287
137 3 -3.02693 11.1737 10.0752
145 3 -2.53263 10.8748 16.0813
66 1 -4.1825 12.5395 12.1894
111 3 -5.41284 10.3786 10.6232
356 2 -3.93579 13.1179 11.1611
146 3 -0.440317 10.8044 10.4081
26 4 0.0544503 13.0486 13.2761
232 2 -0.385778 8.45485 8.68492
328 1 -5.37288 10.0145 16.2953
75 1 0.65253 8.7749 8.82796
136 3 -1.21251 12.742 8.84975
236 2 1.00917 7.81666 11.2536
330 2 -4.57443 9.20808 16.0146
110 3 -1.63073 7.67949 12.3883
142 3 -1.37544 9.75517 13.966
37 4 -1.62532 11.1697 9.35735
39 4 2.41681 8.76798 12.9515
40 4 -1.1603 10.8234 15.1465
41 4 0.94324 11.0144 11.1691
140 3 1.82164 7.56258 13.7536
143 3 0.103984 10.2873 16.1489
77 1 0.679791 6.68397 10.9348
148 3 0.935642 12.0676 12.4046
331 2 -5.86299 10.5829 15.2995
309 2 15.0755 0.725909 1.30573
42 4 9.02326 2.05037 3.55876
72 1 6.43803 4.1759 0.65895
86 1 8.47922 5.65438 5.05161
124 3 6.91662 3.53756 6.86039
149 3 8.66546 0.737288 2.65422
150 3 7.79965 2.22015 4.69973
164 3 8.95309 3.30898 2.59341
168 3 9.35411 4.97495 0.436488
50 4 10.0902 4.2559 1.72595
305 4 12.7928 0.223454 1.77874
266 2 8.92488 5.01025 6.91927
265 2 8.8266 4.65418 5.43713
87 1 9.12579 4.50427 8.04335
263 2 8.60402 5.73085 3.81811
221 2 6.95321 4.09411 1.6816
268 2 8.67759 3.44092 8.17182
264 2 7.47048 5.92561 5.37619
355 2 15.0351 1.54552 5.75954
209 2 12.8187 4.69787 6.49375
44 4 13.2108 0.0565916 7.48554
155 3 10.3737 1.89133 4.49587
205 2 15.1539 1.14452 3.81293
308 2 14.0942 2.03103 2.56307
228 2 5.5859 6.0403 0.15948
261 2 13.9963 2.30659 4.54074
52 4 10.9358 3.99483 8.12897
262 2 12.91 4.00213 4.65772
46 4 11.5277 2.29707 5.49182
85 1 12.9543 2.85336 4.34645
156 3 12.2929 1.15319 6.41679
165 3 11.2742 3.38488 1.16888
166 3 10.76 5.41789 2.76799
170 3 11.1819 3.69357 6.53118
260 2 12.3692 2.59881 3.34988
307 3 11.8242 0.647852 0.641658
306 1 14.197 1.0156 1.95724
270 2 11.2016 6.43179 6.8014
319 2 12.9755 4.82222 1.03279
222 2 5.39411 4.39918 0.740626
352 2 8.87895 6.4357 14.5691
163 3 13.139 0.962571 12.7878
267 2 8.83759 5.20675 8.96143
51 4 9.93918 6.20414 16.8143
172 3 6.24199 5.45953 8.55242
45 4 10.0405 1.69291 9.95977
48 4 9.89426 2.0125 14.9609
73 1 7.18978 3.19455 12.8523
154 3 8.68667 2.35353 10.6299
158 3 9.53317 0.702085 14.0912
160 3 8.61142 2.29976 15.898
180 3 10.1075 5.1121 11.9108
224 2 6.25392 3.9736 12.6181
225 2 8.20075 3.69263 12.6644
226 2 7.13405 2.64705 13.8164
350 1 8.63173 5.87303 15.4847
351 2 8.65876 4.77856 15.3791
153 3 9.43791 0.748083 8.68874
175 3 10.182 3.38301 14.0374
353 2 7.64968 6.26424 15.8682
176 3 12.0336 3.3139 12.2786
233 2 5.66125 5.88017 13.0282
161 3 13.7462 2.26924 10.5324
177 3 11.9543 5.45062 13.9791
171 3 11.8477 5.2718 8.71883
169 3 10.8877 2.7295 9.07684
162 3 11.0741 1.09947 10.9834
2 4 14.6222 1.99249 9.29023
5 4 14.9421 2.13989 15.3359
49 4 12.552 1.96002 11.7094
55 4 11.1899 4.32658 13.1401
151 3 13.6119 2.55821 16.1712
157 3 15.0118 0.487012 14.6994
159 3 11.2091 1.69445 15.87
223 2 7.7419 4.70485 16.8979
179 3 8.27653 6.4424 10.1012
152 3 14.1047 0.52251 8.70774
56 4 9.93378 6.44439 11.1367
22 4 7.41079 2.28355 16.8916
43 4 12.3105 2.05361 16.9391
188 3 8.86496 9.89358 8.39002
58 4 3.68474 11.3775 3.83276
183 3 3.10101 10.2925 2.83989
185 3 2.5121 11.7812 4.91408
269 2 10.7396 8.18034 7.48847
189 3 3.71923 12.533 8.27813
280 2 3.87952 10.1304 7.37028
287 4 11.4132 6.89867 3.16786
184 3 4.11965 12.5909 2.86485
229 2 5.57215 8.03054 0.207878
88 1 10.4029 7.1604 7.16705
186 3 6.94995 7.99521 8.23127
346 1 7.6112 12.4693 0.0813401
247 2 4.41144 8.52164 6.97102
245 2 4.41847 8.46125 4.97591
274 2 5.995 8.24857 3.69479
246 2 5.87363 7.68674 6.03794
80 1 4.77765 7.94724 6.00487
13 4 8.78165 10.9282 4.01407
54 4 9.42396 7.37284 5.5686
57 4 7.56263 8.54762 2.04346
59 4 7.68402 9.24545 7.44902
61 4 6.11337 11.3213 5.82417
90 1 6.49161 7.37763 3.16867
181 3 8.21764 7.56616 0.993955
182 3 8.55859 9.6783 2.93601
187 3 8.38027 8.47734 6.009
191 3 7.58507 11.3707 4.92845
192 3 4.94211 10.7425 4.76725
193 3 6.38189 10.2655 7.02658
194 3 5.63883 12.7417 6.41692
91 1 6.41735 9.66717 0.981234
365 2 6.427 10.8003 1.14166
277 2 5.43725 9.14405 1.48395
316 2 6.92648 12.047 0.956853
174 3 10.6702 7.58272 4.41532
294 2 10.0673 7.98304 1.60553
275 2 7.18402 6.7526 3.9173
282 2 3.8431 10.4836 0.00294943
276 2 5.81372 6.7101 2.6126
131 3 2.88474 8.51815 0.67052
259 2 2.55145 9.6295 5.8095
329 2 8.98995 9.79166 -0.0121439
364 2 9.72582 6.70036 7.97299
286 2 7.21512 9.01488 10.8562
272 2 10.483 8.52377 12.051
167 3 11.1796 6.81324 16.0166
227 2 5.81465 6.80005 15.6147
285 2 7.2948 9.32324 12.8056
60 4 3.59365 11.4667 9.45226
62 4 3.62487 11.0818 14.9873
279 2 4.62799 9.21345 8.8958
273 2 9.57516 7.48849 13.3083
190 3 2.2632 11.3115 10.2482
195 3 2.99867 9.8979 13.9707
197 3 2.56758 11.6325 16.0997
196 3 4.51095 12.1247 14.1705
53 4 6.82419 6.80113 9.32348
347 2 7.7275 12.591 16.195
283 2 6.06573 10.4144 15.7322
11 4 12.3519 6.674 14.8856
366 2 7.43024 9.25345 16.8891
337 2 8.28986 12.4773 13.8334
339 2 9.54489 10.9518 12.4313
334 1 9.40668 11.168 13.5116
47 4 5.5727 13.2735 13.5145
335 2 8.77588 10.398 14.0347
141 3 3.72029 8.01247 12.0554
178 3 11.2103 6.96153 10.2593
248 2 8.87058 9.22162 15.4941
249 2 7.18171 8.11214 15.5526
81 1 7.73944 8.86728 14.9401
173 3 5.74692 7.1827 10.4242
235 2 7.03699 9.80082 14.9343
250 2 7.90355 8.54899 13.826
33 4 4.51521 6.88395 11.3471
16 4 9.35465 10.9178 9.42479
63 4 6.52788 11.402 11.1407
89 1 9.57138 7.88358 12.2675
93 1 4.93051 10.0892 16.0031
94 1 6.78741 9.59184 11.7215
198 3 7.85409 11.3318 10.2915
199 3 5.02864 11.3667 10.4155
200 3 6.53771 12.4296 12.4435
271 2 8.5272 8.48646 12.039
281 2 4.69226 9.0406 15.7275
284 2 5.57139 9.36089 11.7327
74 1 5.91565 6.85826 16.8132
349 2 9.20185 11.4617 16.7753
92 1 3.73775 9.80925 8.53616
278 2 2.61682 9.30831 8.73586
ITEM: TIMESTEP
200
ITEM: NUMBER OF ATOMS
366
ITEM: BOX BOUNDS xy xz yz pp pp pp
-8.3370488766021680e+00 1.6854851625161821e+01 -8.4375460746530955e+00
-1.6969957225771504e-01 1.3444835739784946e+01 8.3044882321290159e-01
-8.0556304019379965e-02 1.6989556304019288e+01 -1.4726383247276997e-01
ITEM: ATOMS id type x y z
254 2 -2.77227 5.61644 3.41124
244 2 2.44163 4.83315 7.92544
208 2 -2.38748 6.21154 7.13936
67 1 -2.10339 5.34908 6.45116
359 2 -1.21934 4.01187 0.222922
291 2 -0.357222 4.65294 3.71419
317 1 -1.79234 4.89655 0.600556
3 4 0.892901 2.97743 4.78232
8 4 -0.698513 4.36679 7.26784
64 1 0.446329 3.96409 3.2856
98 3 0.16337 3.72779 6.06543
114 3 2.5315 2.59459 4.74204
201 2 0.0235156 3.02452 2.69735
202 2 1.22837 4.50297 2.56795
203 2 1.52944 2.78093 2.02053
310 1 2.09039 0.947548 6.91113
338 1 2.12464 2.10815 1.35685
341 2 2.45743 2.75077 0.373165
344 2 3.1316 4.51244 1.45528
340 2 3.04375 1.71843 1.85651
78 1 2.21555 6.46525 5.55476
342 1 2.62093 5.52196 1.32144
239 2 2.40314 5.99331 4.27006
311 2 2.36645 0.630892 5.81727
358 2 1.45019 1.29539 0.970807
345 2 1.49964 5.42222 1.27994
312 2 2.38647 1.99216 7.04603
216 2 3.46686 0.418733 2.62466
204 2 0.661059 0.431197 5.09422
343 2 2.85347 6.19682 2.222
210 2 2.86541 0.580785 0.198274
207 2 -1.69374 5.62903 5.47679
313 2 1.01989 0.761748 7.19394
241 2 1.60433 5.68699 6.14908
125 3 0.0918258 5.35071 8.20047
65 1 -0.085896 1.20401 4.86481
318 2 -1.37462 5.30841 1.50969
217 2 4.72187 -0.0194537 3.91526
31 4 3.97703 6.35599 5.79633
70 1 4.37682 0.746065 3.09382
21 4 4.17211 2.27677 4.33255
219 2 3.69968 4.44843 3.40884
220 2 4.92286 3.44869 2.4074
126 3 4.66624 5.07036 6.40582
71 1 4.67309 3.86323 3.41988
336 2 -0.856169 2.52346 0.619017
362 2 5.27042 0.971588 2.32929
115 3 6.57269 1.37126 1.19284
118 3 5.30356 1.94009 5.45519
119 3 7.53426 0.939131 6.85191
20 4 7.69223 0.129821 1.78271
97 3 -1.45671 3.29896 8.07338
123 3 4.86696 3.19416 8.38812
222 2 5.09459 4.30689 0.609368
23 4 8.36777 -0.0864367 7.81174
325 2 0.888963 0.0690115 3.49361
22 4 6.48264 2.38449 -0.0775373
25 4 6.97388 2.11005 5.88368
128 3 3.1724 6.51271 15.8107
102 3 -2.2528 6.06708 10.4622
121 3 5.79659 2.08747 10.4817
315 2 1.01316 1.17595 16.6959
296 4 4.80092 2.39284 14.9807
363 2 1.19147 2.98473 16.3683
6 4 1.44736 2.19406 10.8172
10 4 0.4591 4.04617 13.2099
95 3 0.309112 2.14493 9.68078
96 3 1.58515 0.723653 11.5031
99 3 -0.280897 2.98256 14.2348
100 3 0.960458 3.25041 11.9562
103 3 -0.692196 5.07554 12.6029
117 3 3.0026 2.48808 10.2994
127 3 1.64132 4.8626 13.993
314 1 0.485899 2.17134 16.6976
7 4 -0.84621 6.29013 16.54
300 2 2.41251 2.22705 13.7868
30 4 0.94575 6.38597 9.01815
297 1 2.45016 1.1485 14.144
79 1 2.73984 5.43343 8.8503
32 4 1.70706 6.28702 14.7977
206 2 1.5567 0.809232 14.8249
230 2 2.89636 4.76433 9.75844
302 2 2.71229 3.09201 15.5734
12 4 -1.18813 6.33349 11.6763
120 3 5.96966 2.15234 16.007
298 1 3.6765 3.68401 15.7155
242 2 1.40545 5.86374 11.0903
299 2 3.86965 0.892105 14.682
304 2 3.61054 4.30212 16.7015
122 3 7.27466 0.546594 12.3211
129 3 0.412205 6.15245 15.7055
116 3 4.09724 0.691897 8.8677
243 2 3.51764 6.2396 8.61723
234 2 3.60954 5.96791 10.5615
101 3 -2.27457 6.38652 15.844
303 2 3.83133 4.41027 14.7345
130 3 4.09289 4.29647 12.3376
301 2 5.49538 2.74928 13.4619
77 1 0.498446 6.57436 10.86
24 4 4.41473 2.19361 9.52966
76 1 4.72577 5.33828 12.4904
4 4 2.19693 0.0590509 12.7732
9 4 -3.48604 6.48369 9.53779
27 4 7.28384 1.89026 11.5075
211 2 5.23057 -0.110474 16.158
290 2 -2.48778 7.40075 4.38182
288 1 -2.70302 6.78933 3.39622
361 2 -5.28188 10.9574 2.03688
333 2 -3.28515 10.6661 2.06565
332 1 -4.21772 11.33 1.72997
327 2 -5.92908 12.7806 2.81056
15 4 -2.70828 9.144 7.39851
17 4 -4.25177 11.1083 5.69271
106 3 -5.52869 11.0967 4.6575
107 3 -4.05822 9.7785 6.63269
108 3 -4.31715 12.4571 6.63028
133 3 -2.98329 11.3492 4.69057
360 2 -4.0892 12.4748 2.11714
293 2 -4.38852 9.3007 1.60706
256 2 -2.37039 9.18678 3.06634
321 2 -2.78638 8.18651 1.01651
1 4 -5.23337 13.285 7.95475
295 2 -4.18079 7.57755 0.688669
213 2 -2.39491 8.9535 5.11008
322 2 -1.21769 8.90939 -0.0325293
324 1 -7.07273 12.6571 2.86435
289 1 -4.68981 8.12383 1.56097
292 2 -2.24255 7.29174 2.38687
326 2 -7.46684 12.5398 1.78369
323 2 -0.830904 7.95685 1.50654
255 2 -1.6495 10.2503 1.69787
240 2 1.83525 7.67912 5.67408
215 2 -0.554684 8.92195 5.89411
69 1 -1.71212 8.51708 5.92243
132 3 -1.67911 12.6449 2.81646
253 2 1.92881 7.39832 3.08705
214 2 -1.8699 7.2921 6.06255
83 1 -1.56255 9.81963 2.75887
34 4 2.09674 9.38749 1.88707
35 4 -1.62066 11.4332 3.83575
28 4 3.16231 6.94951 0.104472
82 1 1.15929 8.23452 2.98375
84 1 1.36453 9.61 5.87319
237 2 1.73655 7.7091 7.86928
134 3 0.990456 10.3699 1.02015
138 3 -0.183662 11.3708 4.54886
251 2 0.165188 7.8621 2.47022
252 2 -0.543609 9.26208 2.88183
257 2 1.04066 8.80095 4.06327
258 2 1.05826 9.23522 6.92347
354 3 -0.284867 12.6896 0.3574
135 3 -1.72288 10.2182 8.13737
104 3 -3.04253 7.66358 8.414
320 1 -1.59618 8.09173 0.665546
139 3 0.718328 12.1015 6.93153
38 4 1.11548 11.3678 5.49803
131 3 2.82389 8.34354 0.909964
231 2 0.692265 9.74335 8.37014
348 2 -7.69067 13.4283 0.360609
238 2 1.00019 8.82942 9.92482
144 3 -0.698301 12.4261 14.571
68 1 -4.26563 13.0347 16.5909
212 2 -4.9665 12.7467 15.6653
147 3 1.37546 9.48975 11.8692
357 2 -5.62021 11.2697 13.8787
105 3 -6.16042 12.1851 8.62386
14 4 -3.77142 11.2856 16.8591
18 4 -2.46584 8.87725 13.1872
19 4 -4.17484 10.8563 11.0383
109 3 -3.39246 8.10703 14.2436
112 3 -3.41812 9.85731 12.119
113 3 -3.68406 12.6702 13.2402
137 3 -3.11902 11.2329 9.94686
145 3 -2.40843 10.9642 16.1223
66 1 -4.26524 12.5883 12.1375
111 3 -5.61827 10.498 10.5738
356 2 -4.02699 13.1629 11.052
146 3 -0.379914 10.6999 10.3349
26 4 0.149288 13.2353 13.3723
232 2 -0.4504 8.35889 8.82577
328 1 -5.33037 10.0466 16.3163
75 1 0.647081 8.66457 8.83198
136 3 -1.15043 12.7105 8.80021
236 2 0.665591 7.64374 11.2583
36 4 1.29241 11.2256 16.9491
110 3 -1.60239 7.70685 12.3986
142 3 -1.42872 9.866 13.8394
37 4 -1.58576 11.2871 9.44055
39 4 2.4283 8.66108 12.9635
40 4 -1.00106 10.8689 15.0436
41 4 1.01766 10.8721 11.2909
140 3 1.57347 7.58505 13.7255
143 3 0.145791 10.1805 16.0745
330 2 -4.76022 9.1673 16.0682
148 3 0.807654 12.1124 12.4259
309 2 15.3022 0.22464 1.96314
42 4 9.0594 1.9842 3.66806
72 1 6.19937 4.14511 0.516538
86 1 8.29041 5.68464 5.14181
124 3 6.94583 3.6395 6.77742
149 3 8.97219 0.693596 2.63178
150 3 7.74477 2.24207 4.55251
164 3 9.15277 3.35628 2.75278
168 3 9.27445 4.95993 0.459164
50 4 10.159 4.21696 1.66647
305 4 12.9527 0.129435 1.79206
266 2 8.79444 5.0278 6.99317
265 2 9.01536 4.87689 5.41722
87 1 9.08299 4.56723 8.03691
263 2 7.85544 5.44959 4.15098
221 2 6.77321 4.05928 1.5468
268 2 8.56933 3.57412 8.21969
264 2 7.44318 5.76968 5.91911
355 2 15.0426 1.29128 5.63382
209 2 12.859 4.67585 6.38184
44 4 13.1889 0.0288742 7.48953
155 3 10.4399 1.83163 4.73044
205 2 15.3481 1.07808 3.85075
308 2 14.2424 2.0699 2.2568
228 2 5.49664 6.06489 0.0950082
261 2 14.0456 2.12093 4.4426
52 4 10.9327 4.07122 8.07853
262 2 13.0119 3.79808 4.47905
46 4 11.6933 2.13659 5.58376
85 1 13.0122 2.69708 4.28904
156 3 12.3359 1.09151 6.62682
165 3 11.0643 3.14495 0.964633
166 3 10.977 5.4453 2.3651
170 3 11.37 3.66768 6.55526
260 2 12.3798 2.36557 3.36268
307 3 12.0702 0.769996 0.71165
306 1 14.3583 0.900589 2.01242
270 2 11.2577 6.55557 7.09445
319 2 13.0117 4.64977 0.628718
364 2 9.50368 6.60486 7.98478
29 4 5.78455 4.30816 7.60455
218 2 5.58453 4.43719 3.78738