LAMMPS data file via write_data, version 2 Aug 2023, timestep = 3000, units = real

371 atoms
4 atom types

0 17.3186 xlo xhi
0 12.8149 ylo yhi
0 18.6403 zlo zhi
-8.851 0.4589 0.2054 xy xz yz

Masses

1 12.0107
2 1.00794
3 15.9994
4 28.0855

Atoms # full

360 25 2 0.2084503248456689 -2.7802073238302945 4.382316591609278 1.5137575471870042 0 0 0
2 1 2 -0.01555391783291579 2.3881231037929993 1.422824497225046 2.8241084195255426 0 0 0
345 19 2 0.04128764286125704 7.405804188370884 0.4137043913196503 9.243383735714719 0 1 0
324 10 2 0.1544219983892047 0.74788852264265 0.484853323685102 8.057834371621322 0 0 0
68 2 2 0.03837567075614882 1.881746206786236 1.2345600915760928 7.033120582779716 0 0 0
7 2 4 1.084596773614556 0.8168907884450136 2.4604565905528166 6.277658836625543 0 0 0
11 2 4 1.261922373561582 0.29966968201143945 4.209473291601028 2.440104978494887 0 0 0
14 2 4 1.260470241412233 -0.8759213103721571 4.687454912547572 7.745440423773751 0 0 0
30 2 4 1.084147238133216 5.653661831368188 3.0308632910092776 1.7329840145773714 0 0 0
31 2 4 1.258065283629585 1.5705050627931327 6.303458900303869 4.161181882141588 0 0 0
72 2 2 0.01724223849729614 -2.3381986956445457 3.883103595531109 8.186392685261339 0 0 0
33 2 4 1.23904499647862 5.628362717248276 4.382025247178978 8.264533247003172 0 0 0
35 2 4 1.042869122049979 4.283439628265188 5.801468759248485 5.657997242957502 0 0 0
5 2 4 1.270546152460055 -1.185499968256691 1.9730295612407 4.022748474829033 0 0 0
70 2 2 -0.02538561273312369 1.398290779673812 3.388351482485969 1.3495709673936795 0 0 0
237 2 3 -0.7858546863994894 3.644665092860978 0.8855261318437564 9.180362164729484 0 0 0
102 2 2 0.196904716152408 2.6004566244454677 3.6207856758940173 5.2652601792883384 0 0 0
103 2 2 0.1379828895767269 3.032035407922388 1.8337386357674823 5.509693675292125 0 0 0
104 2 2 0.2353389185479288 3.2513338546406483 3.0699206097318648 6.950051082884123 0 0 0
130 2 2 0.1329522074788081 4.626610170317588 2.082482348471564 3.8163991078194153 0 0 0
131 2 2 0.1515290588560506 4.151985755230126 1.020009733949332 2.2778647664566822 0 0 0
132 2 2 0.1647248472368917 3.5003310486553287 2.8564951583364104 2.446195211153101 0 0 0
250 2 3 -0.81366997501216 4.8427112336080596 5.16707092756267 7.073213103457999 0 0 0
192 2 1 -0.6945740341661534 2.715243783047362 2.799499147637468 6.047183417473412 0 0 0
202 2 1 -0.6781045801357161 4.26397563462198 2.0697508054811053 2.703912746830637 0 0 0
223 2 3 -0.8238169778893251 -0.034797431686741875 1.6989273671916694 5.216511999501692 0 0 0
225 2 3 -0.8648270277550129 -0.615772911159802 2.9524241958292667 2.9168776752033754 0 0 0
226 2 3 -0.8238128848482771 -0.5247220872278251 5.34319335839349 1.68815584728313 0 0 0
227 2 3 -0.8068709302615058 0.2287541193598736 3.5754331661926972 7.295739928248696 0 0 0
229 2 3 -0.8026132194051524 -1.2107110894218382 5.79534073995252 6.569673732663268 0 0 0
243 2 3 -0.7743906632342812 6.0107080923076 2.1350159410201908 0.2879094056342702 0 0 0
244 2 3 -0.85027880986059 1.151052984318635 4.893542972955128 3.6007413276562965 0 0 0
245 2 3 -0.7928679867234776 5.010815710908823 4.431696871567959 1.4468606206772978 0 0 0
246 2 3 -0.8490259709500962 4.691285791176614 3.3229721546956137 8.955407378295375 0 0 0
249 2 3 -0.8296216864534771 2.788151690669689 6.155817048214445 5.22774413493637 0 0 0
32 2 4 1.240348896859827 4.40027369237849 5.835177051322128 0.7556928821811055 0 0 0
247 2 3 -0.7896734238389815 -0.3487031668294853 5.523975645055647 8.98500610775207 0 0 0
1 1 4 0.9400815051351468 1.4330750080745858 0.15121944420522745 2.1616148156873756 0 0 0
3 1 2 -0.008382115558802868 -0.05430766878454497 0.7977297007547496 1.7505614414996644 0 0 0
329 13 2 0.1761671914776881 -1.5781349353072014 2.504821245996103 0.5527009287393616 0 0 0
136 2 2 0.01505432423923264 5.017364456488369 4.803576429790407 4.484885427861852 0 0 0
139 2 2 0.2447939942742027 2.33679718473949 4.873849351699167 9.115844364368108 0 0 0
335 16 2 0.1679931996854471 8.019734410694674 1.0478640417364133 2.9264991655312045 0 0 0
10 2 4 1.089237010087893 1.8370113780040418 1.7435086681244736 11.605129383249693 0 0 0
17 2 4 1.239864897387169 0.18519836344094065 4.678115511054814 15.467341848268497 0 0 0
73 2 2 0.01455537693693491 -2.395665812607167 6.085575940107172 12.422875775805192 0 0 0
24 2 4 1.239022737527514 6.922479147493827 1.5533743281762882 17.535357952341787 0 0 0
26 2 4 1.419011447376135 4.2960272988084 2.2739205005571503 10.02826983436993 0 0 0
252 2 3 -0.8210799042891977 6.056519910806327 3.2495675423692263 13.436990587033504 0 0 0
28 2 4 1.24490631482333 4.324391619441231 1.9931657182907367 16.08042804687638 0 0 0
29 2 4 1.329993888183388 6.546616618260535 2.1798191559053874 12.400489859776968 0 0 0
253 2 3 -0.7999804625313708 1.191711660662592 5.400456641734894 16.5394365733182 0 0 0
36 2 4 1.255951593056652 5.630322629791596 4.226798453935395 14.699167743188303 0 0 0
37 2 4 1.196526039123019 2.190257373352183 6.3193920864381585 17.619315571103048 0 0 0
251 2 3 -0.8176785312612381 4.388379369096333 3.6219303972892116 15.537717556008683 0 0 0
328 12 2 0.1569716056477464 0.13106814715874626 1.6527623968728489 18.065861344660757 1 0 0
254 2 3 -0.7978102783533989 3.258575622013941 5.665062985261738 18.609318184259575 0 0 0
78 2 2 -0.009394421169059858 3.502829125482041 2.1807700716272005 17.54495862229269 0 0 0
110 2 2 0.1525879690503825 -0.7220800420751408 2.015186883996595 10.886970726807391 0 0 0
111 2 2 0.1636463207978172 0.3250647359102557 3.452703261760981 11.890257663711047 0 0 0
112 2 2 0.1613313504266895 -0.4237861006057562 1.8263859828500744 12.68802353267508 0 0 0
113 2 2 0.1973495236974981 0.563449235802314 2.8952697748609895 13.64232929563747 0 0 0
114 2 2 0.1971765889109848 0.4614488159475577 2.323884605401781 15.43092564005542 0 0 0
115 2 2 0.2124154127836209 1.9972609929991774 3.282430088611321 14.757598714230356 0 0 0
69 2 2 0.007603680849791765 0.6555502778103857 0.8649632479534549 10.547446689927797 0 0 0
140 2 2 0.2109214410132388 2.5807259655648824 5.504548554084247 10.924109756982334 0 0 0
326 11 2 0.1878782724346331 -0.07597870875841017 3.6602768499157046 17.937363458810793 0 0 0
142 2 2 0.2121086204450491 2.9395331294494413 4.552344682393651 13.851097501283087 0 0 0
143 2 2 0.2683992862652798 2.8614775760272577 4.1614405931834675 12.006264670339592 0 0 0
144 2 2 0.216875631818918 1.957898278993024 5.726415047328544 12.727451647880464 0 0 0
195 2 1 -0.6749503438895955 0.009154438976717416 2.256474822115128 11.759595856446985 0 0 0
196 2 1 -0.6681727126619085 0.900474830991735 3.1270364615487614 14.720727927803724 0 0 0
205 2 1 -0.6517214844827043 2.319401243174255 5.779517394430356 9.740796461870234 0 0 0
206 2 1 -0.6843277300409196 2.870794045302798 4.987477592984957 12.811083699341435 0 0 0
224 2 3 -0.8300620912109361 2.1423896835926937 1.0515383860815235 12.974443373247569 0 0 0
230 2 3 -0.7843358392474281 -1.3037718870012505 4.02512547477245 16.11439527870995 0 0 0
231 2 3 -0.7884815169902003 -0.11748675689439958 5.76818616952436 14.145679106445408 0 0 0
18 2 4 1.050110105573028 -0.7090556674685395 6.51321218901726 12.832168555194434 0 0 0
238 2 3 -0.8014845253628446 2.721346111095759 2.820956621757293 10.929238954122265 0 0 0
239 2 3 -0.8469625934773471 3.335427445710369 0.9984643295181128 15.386279277537932 0 0 0
240 2 3 -0.8578174622963171 5.74633357443814 1.3767174899011179 16.344305851757206 0 0 0
241 2 3 -0.8275617488235473 5.5042235556794425 1.8816682929109354 11.069416163943211 0 0 0
242 2 3 -0.8034266286557743 7.402247320122396 0.8811311706087149 13.0823491622137 0 0 0
327 11 1 -0.6697228335091404 -0.5894367627578342 2.6101753224558126 18.149696018493287 0 0 0
38 2 4 1.315121919123218 4.2098218759054635 6.337058341752709 12.830052666407381 0 0 0
71 2 2 0.09706046465966323 -1.5829050405941683 6.566857546725418 17.959585468191875 0 0 -1
331 15 2 0.1691986070019718 -5.460645070546256 9.438471024039996 4.319295054444893 0 0 0
313 3 1 -0.6752048953275868 -4.6802586568863385 10.661530624673366 0.4269570399921442 0 0 0
13 2 4 1.015048942943125 -0.6985530167688594 6.722485940438428 0.8240399196230946 0 0 0
16 2 4 1.137205185377582 -2.1847229299366258 7.031747573755874 6.821199213646763 0 0 0
20 2 4 1.352561829332158 -3.286918155540209 8.462773488432493 9.155306264787809 0 0 0
21 2 4 1.027196563164749 -3.656595167466735 10.46279958772759 6.8922153369597945 0 0 0
325 10 1 -0.6740088013172888 -7.5737814358519495 12.309827317435413 7.935112693962838 0 -1 0
40 2 4 0.7142439406020807 0.8551208264806491 9.709859784223783 4.372812482780757 0 0 0
42 2 4 0.9754287044312481 1.5784574153541269 9.073859801642863 8.198651425556395 0 0 0
74 2 2 0.007582583940858569 -4.38375238329145 9.283955242098562 5.765906637345559 0 0 0
79 2 2 0.00911006289830996 0.23256503554400199 7.096941044762777 4.9586642630971705 0 0 0
80 2 2 -0.002017777667316208 -1.1339105028376153 8.341066153338733 6.468197900949681 0 0 0
337 17 2 0.1560375659245966 -2.681531805244052 12.449465002290177 0.5510939333306648 0 0 1
84 2 2 -0.03009995669060533 -0.007983523159254269 9.557750202548588 5.975321761001201 0 0 0
86 2 2 -0.03379741290004508 0.6531790750759323 10.415941598673147 7.736973111775037 0 0 0
87 2 2 -0.03943743682465329 2.079708509609633 8.441306492358699 6.771982023109673 0 0 0
105 2 2 0.1500097828703919 -5.273265830396276 8.713675025978517 2.82127651161312 0 0 0
106 2 2 0.191170235420384 -3.588748577406457 7.960848052492772 2.161262531622954 0 0 0
107 2 2 0.1347244474601915 -3.6877369934633606 9.256303311156914 3.6579006075065625 0 0 0
108 2 2 0.0291735276514942 -1.413031874643806 8.061298518534377 1.7478532419220805 0 0 0
262 2 3 -0.8241286985059105 0.7176145506260417 8.028615500042758 9.004444865569857 0 0 0
323 10 2 0.1919354748481773 -7.076405430374992 12.105928855697108 6.919229906749462 0 -1 0
370 32 3 -0.8078771047362843 -7.661358744843541 11.818945780299158 3.2527886744575887 0 0 0
145 2 2 0.07210167938326617 0.08097007615854855 8.59963324898871 3.096277182386423 0 0 0
146 2 2 0.1411149809180193 -1.6311075012959002 9.595392140956449 4.429001169808348 0 0 0
147 2 2 0.1950707748111869 -1.4095883046259228 7.756013103777094 4.648167200462077 0 0 0
12 2 4 1.320850434087183 -4.452481699745716 6.9569696674480435 4.366118859672241 0 0 0
149 2 2 0.09988518133958119 -2.665140578428599 11.291669234580429 5.0472984482959875 0 0 0
150 2 2 0.1481470747516206 -1.1969159324902292 11.308170294863348 6.443772005965189 0 0 0
193 2 1 -0.654701069704767 -4.203576785060752 8.392882435161985 3.1348304467892283 0 0 0
194 2 1 -0.6490672561409174 -2.6063777875887943 7.240543651456235 0.5403985727188036 0 0 0
334 15 1 -0.6597644057907623 -6.085050065827431 10.092087122820118 5.074865721498597 0 0 0
207 2 1 -0.6665279498539272 -0.85421878003277 8.714648699179497 4.539007580052665 0 0 0
208 2 1 -0.6432903025754889 -2.3317863475195644 11.580331690922437 6.168517006309449 0 0 0
228 2 3 -0.823876648494822 -3.2558178604904757 7.088786744816518 5.648317716623198 0 0 0
233 2 3 -0.797712884824923 -2.9472881941868248 6.88439155291414 8.588276026099495 0 0 0
234 2 3 -0.8743281177377282 -3.0320527434152957 9.680020053385698 8.04014990502786 0 0 0
235 2 3 -0.7623942037548482 -4.838946235575561 11.468481015365722 7.508448094957007 0 0 0
312 3 2 0.1515077297346933 -5.227265454375781 9.635588114257502 0.6188582433384967 0 0 0
257 2 3 -0.8945361070409881 1.954535480175373 7.383964433013628 3.0000095115109526 0 0 0
259 2 3 -0.8125838359608146 0.8146436256959585 11.121190792134398 3.6434677333846768 0 0 0
333 15 2 0.1653642881669422 -5.763229824767441 11.173756135837843 5.2967085101078615 0 0 0
344 19 2 0.1821182059791349 -1.0639839805414006 11.090894711915453 8.087102048597648 0 0 0
4 1 3 -0.8608559910880897 -6.866305003636848 12.480146300001515 0.8431105290896869 0 -1 0
148 2 2 0.1528144064964649 -2.631530614604953 12.696100646845004 6.398811743410339 0 0 0
129 2 2 0.1638004896475152 -1.3111934637036766 12.618146669805851 1.388919097960793 0 0 0
346 19 1 -0.6568524887399453 -0.4197606450405629 11.932769875776883 8.470172656505511 0 0 0
6 2 4 1.09337704293653 -5.7114822768498765 12.230042554377366 8.737602773485659 0 0 0
330 14 2 0.1560483935171861 -2.9527283025282145 8.211796541040673 0.033648507220177655 0 0 1
310 3 2 0.1477160581292631 -4.467904078149487 11.149252539601498 1.4689826491745535 0 0 0
128 2 2 0.1716066578199658 -1.2770165709833068 12.020661763284213 3.285276172995301 0 0 0
201 2 1 -0.6503317097459456 -0.8155426443326619 12.76790436691236 2.531926307236445 0 0 0
109 2 2 0.1874911133302319 -3.383817363958113 6.591132802312065 1.0164488358257426 0 0 0
347 20 2 0.2114441800214119 0.3903800479134323 11.678418176250364 9.288801536635738 0 -1 0
83 2 2 0.07492007748013216 2.4710309613519077 9.020860354846391 4.553486697898403 0 0 0
88 2 2 0.03514352663856434 -1.9901452189603568 11.57177134071099 9.573849537446005 0 0 0
22 2 4 1.08468372822863 -3.727235638369215 11.004122120450814 13.422857165085322 0 0 0
121 2 2 0.2072989291437254 -2.802384088452757 7.889193417041664 12.373590374793487 0 0 0
43 2 4 1.280224226051502 -1.9026111723747603 10.42273413730061 10.931243752248857 0 0 0
44 2 4 1.379916174908051 2.6611523422789154 9.061221431545924 13.76563016486728 0 0 0
45 2 4 1.495781392953083 1.0752822059005482 10.905739382399378 11.708584092073236 0 0 0
75 2 2 0.1483719695428821 -2.591342668165687 12.084113763494567 15.019776574611488 0 0 0
311 3 2 0.1642301090803304 -3.3089562866859867 10.798888788181248 18.466762285104046 0 0 -1
99 2 2 0.2641202903071014 -5.519912828489977 9.985051721596323 9.9719646950033 0 0 0
100 2 2 0.1274179745387561 -6.999753884834789 11.34309752277091 10.329320400767909 0 0 0
101 2 2 0.2191683703265901 -5.22515834492135 11.561538315591369 11.140364103706094 0 0 0
119 2 2 0.1637256204025321 -1.054313430448754 8.668089916956449 13.026595233019387 0 0 0
120 2 2 0.1626027681157345 -2.4697804055272226 7.936808639324424 14.19369806986825 0 0 0
125 2 2 0.1489102782832986 -1.7533980474792537 10.21202763662254 15.04812961472881 0 0 0
126 2 2 0.022323548071967 -3.8184503469633713 9.428910838656066 14.227822428106997 0 0 0
248 2 3 -0.7825978506436356 0.17463719008563033 6.565074402542228 11.517138293073772 0 0 0
151 2 2 0.1980946538430933 3.1820540082846613 8.315070263708053 16.668955194030044 0 0 0
127 2 2 0.1553762270357031 -3.4571387267697378 10.428900287334768 15.895944375185092 0 0 0
154 2 2 0.224589650423387 0.8121988489591094 7.515438786427634 14.589556824668984 0 0 0
155 2 2 0.1654399349598734 0.2807371935573414 9.273116119911885 14.558326728202758 0 0 0
156 2 2 0.1760252913283387 1.5320078336957583 8.689128823436436 15.850752666848624 0 0 0
191 2 1 -0.6603056320839615 -5.790400573500676 11.14959757210656 10.232943680911278 0 0 0
198 2 1 -0.6821994201686419 -2.056353829747627 7.820611380646028 13.187407465384782 0 0 0
200 2 1 -0.6812050644088578 -2.725084658527484 10.736787322352571 15.078316798984776 0 0 0
209 2 1 -0.6737199966567963 3.3824119220181297 7.243624272501125 16.52205902372045 0 0 0
210 2 1 -0.6636252918459237 1.120802605296813 8.578516565939367 14.815123764081674 0 0 0
232 2 3 -0.7795897842864787 -5.003999221144348 8.356283903797127 9.732108629173592 0 0 0
236 2 3 -0.828114709532715 -5.153543178947404 11.678290606316304 13.676119918757411 0 0 0
265 2 3 -0.8378391372504871 3.3387793634914233 7.680893598773128 13.297468459334446 0 0 0
263 2 3 -0.8001315010302795 -2.362597236648594 8.96572514931119 10.440182632000573 0 0 0
264 2 3 -0.8393028030130073 -2.903287462493614 10.948743047265623 12.099082928738188 0 0 0
266 2 3 -0.8829167501547639 -0.3456061640142765 10.49543725195833 11.352605661943215 0 0 0
339 17 1 -0.6686699377538703 -1.6507799221760213 12.607926356333149 18.166244958224848 0 0 0
315 4 3 -0.8294233549192339 -6.4484971281687 11.077419629516738 17.20009116455031 0 0 0
316 4 3 -0.8350534548185629 -7.4801151786732945 12.108466293046261 15.003336115419318 0 0 0
319 7 2 -0.01505347657191452 -0.9975320205667937 11.396601434846593 14.30086236609159 0 0 0
8 2 4 1.475411377101385 -6.255130929259383 12.901731681123902 14.252041553841197 0 -1 0
116 2 2 0.1693655458386537 -4.1259503064016165 7.597398556500512 12.590074994926562 1 0 0
336 17 2 0.1635140374556317 -2.1393433702567597 12.004060519240362 17.302864568206147 0 0 0
27 2 4 1.275134606508529 -0.2494045934588327 12.835399165359497 13.784194052287985 0 -1 0
338 17 2 0.1775582538403869 -0.6034113003634056 12.288649937125843 18.327472822648 0 0 0
317 5 2 0.030257508613474 -4.1737530954360835 12.42348714023286 17.92192487606724 0 -1 0
34 2 4 1.307477848605531 0.6234975714616136 6.606341618021249 9.807599232619943 0 0 0
152 2 2 0.2053490812368061 2.8729756013931578 6.932828643065868 15.508021424533268 0 0 0
320 8 2 0.08750634253563201 1.1267722948549357 9.233997263130755 18.4682834269202 0 0 0
309 3 4 1.076767059889736 -5.751478131525227 11.80149204625533 18.3962668096955 0 0 -1
267 2 3 -0.8618068661613696 1.8298662221620754 9.932625232063813 12.76971795618077 0 0 0
255 2 3 -0.7835494251938825 0.9343274783814337 7.572892559303972 18.49997530806185 0 0 -1
363 27 2 0.1943198908751583 -3.7346292887639145 6.915401629498752 17.98581671152459 0 0 0
141 2 2 0.210731990391412 2.9351150547965537 6.634242971485333 9.350068204652413 0 0 0
25 2 4 0.7286461233651964 8.761214116721913 1.013540824071019 8.093830030675342 0 0 0
47 2 4 1.353679762900416 11.047567878788543 1.9299062591366825 4.198669864808955 0 0 0
348 21 2 0.1706335369757078 15.852806499821712 0.9793988594650943 0.9395264238071084 0 0 0
51 2 4 1.516581833513125 13.573691769343508 2.24152178697265 5.914888855882905 0 0 0
55 2 4 1.263336750812731 12.325876254560175 4.431602495061986 2.4142139976568417 0 0 0
357 24 2 0.2174113506159587 11.256728782097834 2.374037914533688 1.311745728099267 0 0 0
57 2 4 1.297387005367961 12.336541435366216 4.470304137313594 7.576827209214484 0 0 0
354 22 1 -0.6635424253696779 15.748403019658417 0.3597176415686736 9.261521233260867 0 0 0
350 21 2 0.1399390807988879 14.669322217311993 0.46017120368087566 2.4673150051371584 0 0 0
358 24 2 0.1892325428360087 9.81273969288916 1.3119859645006604 0.39633594217478324 0 0 0
93 2 2 0.1083359534301438 13.34808066042491 5.817151886550822 8.032139869494925 0 0 0
284 2 3 -0.8173300470120468 13.32963282696964 3.7691315146566637 6.534176159051549 0 0 0
133 2 2 0.1741016754671071 7.487111465950923 4.533806045111623 2.8209666680298935 0 0 0
134 2 2 0.1775421386852665 8.129355138363636 2.843159974826872 2.191669985476873 0 0 0
352 22 2 0.1496936580748622 15.698770073051584 1.538418977117754 9.101235991463636 0 0 0
351 21 1 -0.649922834929514 15.426782024302907 0.1086886631507857 1.5394403066659286 0 0 0
89 2 2 0.02118202894886223 16.139169542359447 0.41493081722875086 3.3893991898840414 -1 0 0
157 2 2 0.1581340434558885 9.004968064616355 0.9493683329200336 4.987880368491779 0 0 0
158 2 2 0.1831885666597312 8.523092560529504 2.6241050349729593 4.147393642308309 0 0 0
159 2 2 0.1608426281250924 9.551503058236364 2.6193201306427265 5.923658849506801 0 0 0
371 33 3 -0.8251337733109291 12.867030135427413 0.13993236299412173 0.13414928867250198 0 0 0
166 2 2 0.2399906917915411 13.387184532837278 3.0247510356284533 0.5510995090299086 0 0 0
167 2 2 0.1927759099215582 14.018657148979635 2.6681735657496772 2.400995420331099 0 0 0
137 2 2 0.1802257101400988 6.828908125789808 6.436035049799407 4.9866570498947524 0 0 0
172 2 2 0.1561334906584617 8.564371035430757 4.920453885072745 5.56429474036501 0 0 0
203 2 1 -0.6532133506835464 7.3113976547383706 3.405278499537207 2.7039736962553786 0 0 0
288 2 3 -0.8628128149953371 11.140799160793161 5.310291038488767 6.884518920653262 0 0 0
211 2 1 -0.6562277287467385 9.203783028837956 2.0907797816365 4.934648209751951 0 0 0
81 2 2 -0.0515263496244161 6.9235573188926045 3.459448144798322 7.63802932208392 0 0 0
214 2 1 -0.6570180840504534 13.722919407433483 3.489797255852033 1.6341970250313598 0 0 0
359 24 1 -0.6466915176779473 10.632354193636083 2.1955813911462942 0.35897176234616607 0 0 0
269 2 3 -0.8196306885999711 10.701017673336107 0.7744161811704497 3.1645501873151316 0 0 0
271 2 3 -0.7975062033685767 9.778655980451527 1.9896012635949227 8.809541041540811 0 0 0
272 2 3 -0.8410840352713148 14.738694981153124 2.1955483941361957 4.702088439954232 0 0 0
273 2 3 -0.8251143450488819 12.03870983027102 1.649216469604743 5.366540810611738 0 0 0
274 2 3 -0.8192236795710915 14.058001273443464 1.3283929846481195 7.145047327950316 0 0 0
280 2 3 -0.7803527229219391 11.462174885611713 3.315954840602311 3.384988783608631 0 0 0
281 2 3 -0.7580161059315544 13.051539884108434 5.680200493296283 3.356491295091911 0 0 0
282 2 3 -0.7738450702622842 11.499499320931175 5.0464114427903235 1.0270506175530918 0 0 0
283 2 3 -0.8302517377346453 12.034575697073654 3.6483425804587846 8.8751858668333 0 0 0
216 2 1 -0.6861699831438425 8.744400054100135 6.056584291261721 5.435274633675794 0 0 0
77 2 2 -0.02260845872905359 8.159516782363388 1.6801181909174578 6.566099080286223 0 0 0
170 2 2 0.1772757275564389 8.655814752110961 6.350666974212736 4.374972020671087 0 0 0
135 2 2 0.1164232146796911 6.81836304782553 2.84049087023573 3.6399824407350474 0 0 0
161 2 2 0.1668170410422591 10.05250286208084 5.440033558738755 9.032047276258062 0 0 0
9 2 4 1.23180469038826 15.478810349462861 2.655160446152858 16.775838092881415 0 0 0
48 2 4 1.276636520708701 12.278630997737883 1.3525491231500253 18.037736123881224 0 0 0
368 31 2 0.1468231718841325 8.977096652456899 5.976028419375467 17.783178839255022 0 0 0
53 2 4 1.444714030901903 9.672833451923882 1.7391613685527747 16.07610729777042 0 0 0
54 2 4 0.9957144742658327 11.955678015277556 1.8123418061812888 12.437202287638288 0 0 0
60 2 4 0.9879052758096335 11.665038755927755 3.478111644360867 14.956882955232997 0 0 0
82 2 2 -0.01706864672979148 6.967841288015725 4.448994381989017 15.757733343436131 0 0 0
212 2 1 -0.6623817248322352 9.701230972871231 4.606085771539196 9.741816797882016 0 0 0
91 2 2 -0.05017437947263211 13.502617671303346 1.2657114717716738 12.23583860179187 0 0 0
94 2 2 0.00232668258892239 11.15154700569868 5.76216884203043 10.340582722349767 0 0 0
95 2 2 0.1172239227278886 12.899495757089774 3.229116297917967 16.28077255078937 0 0 0
96 2 2 -0.04287167171522883 11.98184661060523 5.130020245422244 14.642995991775479 0 0 0
361 26 2 0.1401722171986487 12.75873722060876 5.757748315538689 16.65396667704994 0 0 0
117 2 2 0.1212122584294771 11.66430939601636 6.344184087321769 12.775870721031913 0 0 0
369 31 1 -0.6696962350040759 9.636092396557645 5.06343424264126 17.872888386380943 0 0 0
50 2 4 1.307373496803497 10.756663326751294 2.9935341404418514 9.675786645618947 0 0 0
162 2 2 0.1759293919458804 9.656129548200482 4.9116023264665145 10.86507191489596 0 0 0
163 2 2 0.2161924426387969 8.228573793683298 4.07676871598622 12.239550403397784 0 0 0
164 2 2 0.1788514814715282 7.662955415793575 3.346657760917143 10.563450403577997 0 0 0
165 2 2 0.2089233581327405 8.784351497618168 2.378818970081126 11.832303024315205 0 0 0
175 2 2 0.2013573483752276 7.989628157728794 6.27336259845037 13.951208426366705 0 0 0
92 2 2 0.1112709239615 11.224376784333737 0.2989223115689639 12.70065573612502 0 0 0
213 2 1 -0.6590070968146284 8.001329917096559 3.1982820158771013 11.674905245231482 0 0 0
367 31 2 0.2455116656908332 9.840704612993141 4.570360097329484 16.8220607937108 0 0 0
270 2 3 -0.7324207723514714 13.617081823290963 2.736475332701 17.479932644384807 0 0 0
275 2 3 -0.8289941941672302 15.558537637989325 1.323471705879143 15.934752421052478 0 0 0
160 2 2 0.1885875805643303 8.71221908632478 4.253926262411801 9.392371294366212 0 0 0
277 2 3 -0.7837524241471295 11.208333495944888 1.2056554790322649 16.840224147165237 0 0 0
278 2 3 -0.7987125631483061 8.565869417428054 2.011182969752064 17.183266881814944 0 0 0
279 2 3 -0.7940710648971688 11.330197043902206 2.5335675720440607 11.173931057334695 0 0 0
256 2 3 -0.7753729789704346 5.266512251689977 5.631260749660224 14.097409557310108 0 0 0
289 2 3 -0.8069268467208568 10.211258080658668 3.439634940836221 15.533372954527703 0 0 0
290 2 3 -0.8501655062568994 12.0161192615758 2.6478463495504387 13.75160025153712 0 0 0
343 18 1 -0.6548122620069311 6.195385296912666 6.5276634709404275 18.171735370154657 0 0 0
341 18 2 0.1524710142971586 6.2839104343992345 5.479790133554785 17.61021723376896 0 0 0
276 2 3 -0.8846331794105859 9.21019230748054 0.7584462943116297 14.979761692296911 0 0 0
56 2 4 0.9274458900019072 11.256354384994614 6.079189606135343 18.59513092784452 0 0 -1
286 2 3 -0.8014929958594066 4.941309651338617 6.325526088409723 11.362863567593024 0 0 0
58 2 4 1.51307331550981 6.241987902908715 6.482854778995806 10.381911496589012 0 0 0
356 24 2 0.2137684384737654 10.59878921963446 3.3860578540105886 18.479972255922316 0 0 -1
174 2 2 0.1488366748454976 9.808854179359901 6.554188449771963 13.991404063863818 0 0 0
285 2 3 -0.8529118394572065 6.421262438782206 5.331690271342088 9.32147905535086 0 0 0
366 30 2 0.1979607241948285 9.210244732034605 4.329619619337098 18.588987485828326 0 0 -1
19 2 4 1.141958717959066 9.515115506078144 10.534556131218345 4.211716100524413 0 0 0
23 2 4 1.244140927062708 0.9413828223701709 12.261915121616502 2.5340448037326313 0 0 0
299 2 3 -0.7932357707933273 4.2304059995888705 11.859718240810514 8.779796184337972 0 0 0
46 2 4 1.445279847862496 5.010656228896491 11.86941973731426 0.8597798649356474 0 0 0
215 2 1 -0.6526341833294991 9.884482423598785 7.410833090991635 0.6323554122154122 0 0 0
59 2 4 1.109228949680071 10.468298759749592 6.494039374459965 6.156590448473397 0 0 0
62 2 4 1.288263784296645 4.643747940767817 10.456264937511124 3.8150025489696286 0 0 0
64 2 4 1.085029747143456 7.232159859784704 8.56005478017084 8.299541730808095 0 0 0
66 2 4 1.500959330712932 6.935167832419408 10.54913628542411 6.02603815753118 0 0 0
138 2 2 0.2223340607207543 5.463103763774968 6.623533267579148 3.6206811997971275 0 0 0
85 2 2 0.2143053326794477 5.359033202302868 7.767774938503298 5.2223968484399546 0 0 0
98 2 2 -0.01325128826242338 8.666383328209896 7.494634354409626 8.137393069089581 0 0 0
122 2 2 0.1762105485255395 9.604640971287603 8.201662652982874 3.343168672128579 0 0 0
123 2 2 0.184859282608879 8.994873421651018 9.411832895671894 2.0337184849903505 0 0 0
124 2 2 0.2030937627534227 7.748621023968177 8.876816299145727 3.3369306734177573 0 0 0
261 2 3 -0.8096191029725155 1.3872674138534262 11.280854422886605 1.0471059367526043 0 0 0
342 18 2 0.1614973735053084 6.693942170373289 6.518664628778548 0.14059720996590777 0 0 1
49 2 4 1.279373746952065 5.540817625580425 12.772179518473155 8.002133234638793 0 0 0
185 2 2 0.1876585860860476 7.731430702867265 10.867902598845761 8.891224120516474 0 0 0
179 2 2 0.1374071074065326 3.079627342219468 10.622369612413983 5.707579859768844 0 0 0
180 2 2 0.2389994614068963 2.956170220526847 12.098600202449093 4.4296808642263885 0 0 0
181 2 2 0.2234613721655715 4.340357266475399 12.06462957819903 5.634669880584278 0 0 0
182 2 2 0.1542622682299302 9.647816299852611 8.7418107531667 6.982994587196037 0 0 0
365 29 2 0.1500709625404123 9.013399610439677 6.737630573761849 1.1510432609637804 0 0 1
184 2 2 0.1940235387534371 10.204481678839407 8.135060788065378 8.58320444273942 0 0 0
41 2 4 1.366861032116884 1.9231523707978346 10.101599222071618 0.17299635307172562 0 0 0
199 2 1 -0.6538076481933531 8.893134920050176 9.070950028796279 3.062282090331619 0 0 0
183 2 2 0.1926469627830664 11.479418191403642 8.443269931213733 7.470541659361431 0 0 0
219 2 1 -0.6826434242638222 3.6059117238689735 11.45895275830121 5.046554003273889 0 0 0
220 2 1 -0.702628157884068 10.430858504703242 8.14788548423809 7.521004885584694 0 0 0
322 10 2 0.1775367541571172 9.194081634676865 11.434334565739103 8.321644413404082 -1 -1 0
204 2 1 -0.6632342224705094 5.696060654153281 6.683098591888485 4.7124888065198025 0 0 0
298 2 3 -0.8108679667407286 2.8967842549840626 9.498822656479431 8.784685614050652 0 0 0
287 2 3 -0.8120138935730169 11.408806894159847 7.10544395613749 4.918215617386949 0 0 0
293 2 3 -0.8123915230135913 3.9105279473405474 9.029566119919664 3.776326499280405 0 0 0
294 2 3 -0.8244166603113359 4.660099272323643 11.264978515615867 2.232532033984406 0 0 0
171 2 2 0.1265330210765541 8.084915109989597 6.686624376505897 6.176435373172838 0 0 0
260 2 3 -0.8533392374594428 2.69070494545483 9.061458431052218 1.044005649866619 0 0 0
349 21 2 0.1817442356561862 7.390186397304309 12.169115407008263 1.8407546480966042 0 -1 0
301 2 3 -0.7845589981138352 8.526369400812566 10.618725123408133 5.469407310950836 0 0 0
302 2 3 -0.7999129720445204 6.135398515177311 10.45535586140469 4.556324897445458 0 0 0
303 2 3 -0.823076374170293 6.764669347993939 9.235215963652328 6.934407775527925 0 0 0
304 2 3 -0.800107025708321 6.426915078296475 11.766329704917556 6.974681021297664 0 0 0
258 2 3 -0.837396684662819 4.361211122730099 7.225527754142663 1.6821905108200823 0 0 0
169 2 2 0.1649472220203661 10.730934558724483 7.841332046982209 1.2996064671595047 0 0 0
186 2 2 0.161356868051315 9.208923267543947 9.690709229337017 8.994038788092503 0 0 0
39 2 4 1.493286613019563 3.189717540566751 8.094285105599532 2.258750229829242 0 0 0
221 2 1 -0.6754480332391913 8.124951065452139 9.88985160188723 9.282398349442225 0 0 0
76 2 2 0.03490965813488326 0.8379433846696893 12.502081783256207 7.22052065544131 0 -1 0
355 23 2 0.1708777561006351 7.950002334169423 12.735285919639974 8.90410252794672 0 0 0
332 15 2 0.1890511335301208 10.917670807151534 9.44204523863245 6.029749310349112 -1 0 0
15 2 4 0.9676043987327989 11.279889778578223 7.446905446537664 10.7975608352411 0 0 0
153 2 2 0.2104435404374581 4.476219501919646 7.007983215696509 16.545954603247043 0 0 0
61 2 4 1.009406187746291 8.397851319411545 7.85618640442202 12.190854872686073 0 0 0
63 2 4 1.161455567714208 6.730574861890132 9.923864142658337 17.556135176356893 0 0 0
292 2 3 -0.7611072790337152 7.4229702906193005 6.619114171067828 11.439477332192709 0 0 0