ITEM: TIMESTEP
0
ITEM: NUMBER OF ATOMS
366
ITEM: BOX BOUNDS xy xz yz pp pp pp
-8.3370488766021680e+00 1.6854851625161821e+01 -8.4375460746530955e+00
-3.4040069833810205e-01 1.3444835739784946e+01 8.3044882321290159e-01
-8.0556304019379965e-02 1.6989556304019288e+01 -3.1796495855315698e-01
ITEM: ATOMS id type x y z
254 2 -2.56236 5.4805 3.43736
244 2 2.83607 4.85923 7.72941
208 2 -2.44701 6.14784 7.28921
67 1 -2.21327 5.29506 6.54154
359 2 -1.12348 4.08183 0.258105
291 2 0.210483 4.96041 3.87688
317 1 -1.67289 5.09537 0.777689
3 4 0.87752 2.8786 4.7544
8 4 -0.746197 4.17888 7.20874
64 1 0.673542 4.11836 3.31088
98 3 0.229419 3.57311 6.0281
114 3 2.43236 2.46255 4.5931
201 2 -0.148263 3.44329 2.79378
202 2 1.48892 4.55555 2.55084
203 2 1.37676 2.79289 1.83715
310 1 1.88871 0.768503 7.12152
338 1 1.91316 2.04222 1.13207
341 2 2.28983 2.71132 0.179946
344 2 3.6832 4.85635 1.26544
340 2 2.80078 1.56283 1.76869
78 1 2.19311 6.43658 5.68401
342 1 2.72089 5.55653 1.30869
239 2 2.23278 5.98585 4.34481
311 2 1.93996 0.67232 6.04587
358 2 1.13385 1.2317 0.846456
345 2 1.75594 5.1973 0.804811
312 2 1.98616 1.82702 7.44692
216 2 3.34054 0.289547 2.44622
325 2 0.873903 -0.0333151 3.6683
343 2 2.53355 6.03934 2.2772
210 2 2.63483 0.437858 0.124135
207 2 -1.67599 5.65997 5.59738
313 2 0.997618 0.171912 7.56909
241 2 1.74154 5.59944 6.39284
125 3 0.0761049 5.26806 8.17498
65 1 -0.316012 1.20319 4.78037
318 2 -0.960983 5.58288 1.57577
29 4 5.57782 4.27452 7.67715
31 4 3.97273 6.25672 5.65985
70 1 4.25528 0.733148 2.89321
21 4 4.11096 2.21694 4.29393
219 2 3.86548 4.54854 3.60027
220 2 4.93442 3.30266 2.51327
126 3 4.66034 5.07237 6.55233
71 1 4.71143 3.7952 3.56773
336 2 -0.936041 2.60257 0.390364
362 2 4.98118 1.00819 2.042
115 3 6.46788 1.38896 0.976696
118 3 5.18268 1.74154 5.45172
119 3 7.51795 0.9712 6.93997
20 4 7.59604 0.173768 1.68153
97 3 -1.47166 3.20586 8.22464
25 4 6.76985 2.10654 5.99127
222 2 5.32967 4.33349 0.789823
319 2 -2.75235 4.92215 0.996779
217 2 4.778 0.0832145 3.68922
23 4 8.34348 -0.0859496 7.92378
288 1 -2.70774 6.60671 3.37823
218 2 5.67168 4.01407 4.14442
128 3 3.10222 6.32508 15.6552
102 3 -2.11993 5.94102 10.2135
121 3 5.71419 1.93059 10.6178
315 2 0.905362 1.14183 16.3574
296 4 4.90665 2.27644 14.8701
363 2 1.13785 2.9535 16.1867
6 4 1.43419 2.01404 10.6926
10 4 0.229456 4.03089 13.1602
95 3 0.400231 1.7938 9.50574
96 3 1.54816 0.551789 11.5479
99 3 -0.475773 3.0341 14.1426
100 3 0.984383 3.10176 11.8164
103 3 -0.840041 5.06493 12.6198
117 3 2.96678 2.07212 10.1701
127 3 1.61559 4.86053 13.9132
314 1 0.41114 2.16454 16.4552
7 4 -0.804112 6.20719 16.6661
300 2 2.404 2.11285 13.3406
30 4 1.10499 6.1993 9.05723
297 1 2.41461 1.10666 13.9285
79 1 2.75732 5.28646 8.76038
32 4 1.7862 6.18818 14.6903
206 2 1.44695 0.894271 14.5713
230 2 2.53956 4.51801 9.64069
302 2 2.76367 2.78124 15.5172
12 4 -1.17957 6.2229 11.5136
120 3 5.96203 2.1347 15.9713
298 1 3.73977 3.50741 15.6379
242 2 1.29092 5.89399 11.5261
299 2 3.91399 0.784162 14.6337
304 2 3.68723 4.06827 16.6313
122 3 7.56893 0.385818 12.2461
129 3 0.582022 6.23449 15.8926
116 3 4.46304 0.705012 8.55998
243 2 3.6209 6.00545 9.00106
234 2 3.17796 5.77616 10.6807
101 3 -2.23078 6.2438 15.8488
303 2 3.93191 4.29027 14.6983
130 3 4.08208 4.27949 12.3946
301 2 5.59645 2.46345 13.2842
123 3 4.69645 3.37726 8.65573
24 4 4.51974 2.05632 9.61962
76 1 4.79826 5.25447 12.5483
4 4 2.23893 -0.170821 12.7426
9 4 -3.41614 6.39728 9.45325
22 4 7.32301 2.13051 16.8456
27 4 7.35007 1.73559 11.4242
290 2 -2.43975 7.19242 4.32742
36 4 0.448374 11.3748 -0.0192151
361 2 -5.36339 10.6413 2.01085
333 2 -3.47759 10.6683 2.03436
332 1 -4.42305 11.2286 1.69912
327 2 -5.87377 12.6724 3.18231
15 4 -2.59618 9.06435 7.28271
17 4 -4.22409 11.0607 5.69992
106 3 -5.76444 10.7685 4.82985
107 3 -3.78906 9.84553 6.7028
108 3 -4.41798 12.3746 6.52683
133 3 -3.14799 11.2355 4.59225
360 2 -4.38028 12.3388 2.06839
293 2 -4.55465 9.17532 1.77361
256 2 -2.60149 9.38117 3.07493
321 2 -2.76585 8.23502 1.19815
231 2 0.550426 9.68755 8.38648
295 2 -4.00505 7.51589 0.823282
213 2 -2.22142 8.66752 4.85155
322 2 -1.32339 8.98564 0.135608
324 1 -7.01677 12.5842 3.1434
289 1 -4.64659 7.98187 1.68985
292 2 -2.30413 7.13673 2.39306
348 2 -7.68798 13.3846 0.603922
323 2 -0.907415 7.7917 1.61314
255 2 -1.76333 10.4536 1.67006
240 2 1.82016 7.60039 5.86701
215 2 -0.527981 8.78537 5.83412
69 1 -1.70837 8.3601 5.79435
132 3 -1.80784 12.756 2.58409
253 2 1.8066 7.2939 2.93647
214 2 -1.8639 7.17819 6.03338
83 1 -1.59724 9.92576 2.70441
34 4 1.97992 9.37676 1.85209
35 4 -1.68402 11.4979 3.76861
28 4 3.04467 6.96344 -0.0333917
82 1 1.09739 8.18804 2.99892
84 1 1.31097 9.58394 5.90868
131 3 2.70789 8.34858 0.77732
134 3 0.909737 10.4253 1.23681
138 3 -0.348325 11.3225 4.56653
251 2 0.0447329 7.85358 2.76418
252 2 -0.584302 9.26526 2.75512
257 2 1.1966 8.7007 4.11378
258 2 0.995973 9.2278 6.92842
354 3 -0.280284 12.7974 0.429453
135 3 -1.51916 10.0681 8.06099
104 3 -2.92965 7.49441 8.30037
320 1 -1.65796 8.08848 0.782947
326 2 -7.45251 12.4516 2.08656
38 4 1.07752 11.3847 5.5816
237 2 1.69096 7.7009 7.96406
1 4 -5.04178 13.1801 7.78409
238 2 0.707381 8.64119 9.95599
144 3 -0.66713 12.0442 14.5466
68 1 -4.55233 12.7118 16.4572
212 2 -5.34619 12.2817 15.689
147 3 1.44782 9.34385 11.8848
357 2 -5.81621 11.0379 14.0502
105 3 -5.7827 12.1491 8.76338
14 4 -3.85607 11.0294 16.8377
18 4 -2.40079 8.56962 13.2306
19 4 -4.01082 10.6528 11.0439
109 3 -3.46913 7.7418 13.9633
112 3 -3.39342 9.68207 12.1327
113 3 -3.7616 12.3557 13.5313
137 3 -2.87629 11.0607 10.0561
145 3 -2.47492 10.7317 16.1779
66 1 -4.21842 12.2377 12.3894
111 3 -5.5893 10.2847 10.6184
356 2 -3.65348 12.8782 11.3193
146 3 -0.184512 10.8076 10.458
26 4 0.03568 12.9499 13.3888
232 2 -0.509481 8.17822 8.58206
328 1 -5.3785 9.78932 16.1681
75 1 0.504989 8.65037 8.81189
136 3 -1.26244 12.671 8.80337
236 2 0.78149 7.6279 11.0718
278 2 2.37901 9.24049 8.5833
110 3 -1.57735 7.59225 12.2313
142 3 -1.42871 9.4253 14.1357
37 4 -1.41055 11.1168 9.38516
39 4 2.52472 8.64508 12.9664
40 4 -1.04466 10.6408 15.1098
41 4 1.11793 10.8123 11.3245
140 3 1.69876 7.5017 13.7542
143 3 0.0740625 10.1984 16.1821
77 1 0.616793 6.53715 10.8542
148 3 0.941856 11.8402 12.5926
211 2 -3.51248 13.0521 15.8931
309 2 15.0892 0.32665 1.8241
42 4 8.95064 2.13916 3.59055
72 1 6.41918 4.17297 0.651831
86 1 8.72901 5.62946 5.07792
124 3 6.72179 3.50526 6.78574
149 3 8.60315 0.790085 2.73579
150 3 7.62535 2.40918 4.7703
164 3 9.02109 3.43805 2.61666
168 3 9.3536 5.04008 0.525349
50 4 10.0788 4.19547 1.67455
305 4 12.7545 0.345062 2.00557
266 2 8.91563 4.8013 6.8784
265 2 9.5046 4.80932 5.29751
87 1 9.06965 4.36642 8.02167
263 2 8.42214 5.49584 4.09628
221 2 6.97366 4.33636 1.6412
268 2 8.47516 3.48431 8.30862
264 2 7.83919 5.4273 5.8411
355 2 14.8631 1.4707 5.58985
209 2 12.783 4.61464 6.35798
44 4 13.2295 -0.0410516 7.31284
155 3 10.3559 1.9645 4.37644
205 2 15.0607 1.22837 3.66463
308 2 14.2759 2.19679 2.15003
228 2 5.53334 5.88726 0.0415491
261 2 13.9911 2.42544 4.4664
52 4 10.9234 3.94182 8.08918
262 2 13.1019 4.1669 4.64818
46 4 11.6307 2.36194 5.45977
85 1 12.9971 3.0887 4.36316
156 3 12.4303 1.00613 6.48346
165 3 11.3117 3.21071 1.13962
166 3 10.8871 5.4028 2.67739
170 3 11.2149 3.58686 6.33063
260 2 12.3767 3.00524 3.3848
307 3 11.7953 0.628172 0.776499
306 1 14.1847 1.05806 1.85733
152 3 14.1733 0.611107 8.38346
204 2 16.0666 0.198229 4.98895
11 4 12.3627 6.38749 14.9389
163 3 13.0632 0.711081 12.7826
267 2 8.87662 5.29085 8.84806
51 4 9.93212 6.03065 16.7894
172 3 6.43446 5.36911 8.5083
45 4 10.0684 1.55645 9.93999
48 4 9.81751 1.94912 14.9622
73 1 7.3375 3.20411 12.6259
154 3 8.68136 2.21639 10.665
158 3 9.56754 0.609719 14.0873
160 3 8.51915 2.24362 15.8922
180 3 10.1465 5.14932 12.0752
224 2 6.37524 3.964 12.588
225 2 8.29377 3.78241 12.4656
226 2 7.36245 2.52497 13.5787
350 1 8.60383 5.78865 15.4583
351 2 8.72641 4.70308 15.2739
153 3 9.38843 0.450823 8.9382
175 3 10.0676 3.18298 13.9588
353 2 7.56732 6.12951 15.7966
176 3 12.1243 3.16388 12.4015
233 2 5.35461 5.94726 13.3358
161 3 13.9186 1.98324 10.5437
177 3 11.9432 5.10659 14.066
171 3 11.809 5.18929 8.60401
169 3 10.8062 2.73739 9.06234
162 3 11.2262 1.1424 10.9474
2 4 14.7084 1.93245 9.22498
5 4 14.8888 1.97638 15.1057
49 4 12.5554 1.79204 11.6738
55 4 11.1347 4.12974 13.1568
151 3 13.552 2.26208 16.003
157 3 14.9856 0.508592 14.5256
159 3 11.0089 1.82269 16.1266
223 2 7.6677 4.62745 16.7896
179 3 8.49333 6.44209 10.1006
43 4 12.3083 1.8627 16.9436
56 4 9.94038 6.49665 11.1147
188 3 8.78873 9.85058 8.37
58 4 3.67315 11.322 3.95112
183 3 3.02074 10.0278 2.94229
185 3 2.43574 11.9322 4.75307
269 2 10.5074 8.40156 7.46674
189 3 3.78671 12.308 8.09816
280 2 3.61191 10.088 7.32401
287 4 11.3995 6.78057 3.22791
184 3 4.32787 12.5491 2.97481
229 2 5.51361 7.89158 0.224162
88 1 10.4079 7.26058 7.26622
270 2 11.3864 6.85078 6.90969
346 1 7.68935 12.4267 0.146767
247 2 4.4488 8.56593 6.86669
245 2 4.55806 8.3799 4.91949
274 2 6.14331 8.28266 3.96499
246 2 5.92383 7.5515 5.95173
80 1 4.80838 7.84694 5.95158
13 4 8.77758 10.8976 4.06961
54 4 9.52914 7.44261 5.63546
57 4 7.57448 8.57978 2.08989
59 4 7.60012 9.08245 7.5773
61 4 6.11089 11.1749 5.82088
90 1 6.70678 7.48099 3.35094
181 3 8.43354 7.72447 1.05828
182 3 8.44854 9.82854 2.93546
187 3 8.28399 8.32383 6.03518
191 3 7.51763 11.1471 5.0125
192 3 4.81214 10.7415 4.90272
193 3 6.40155 10.0539 7.16795
194 3 5.86931 12.65 6.31612
91 1 6.24076 9.59175 1.04979
365 2 6.32743 10.7071 1.25454
277 2 5.35525 9.04239 1.61003
316 2 6.97281 11.9204 0.868859
174 3 10.7064 7.4297 4.5254
294 2 10.1834 7.81615 1.44045
275 2 7.50287 6.79055 3.99322
282 2 4.01007 10.7333 0.0466277
276 2 5.93307 6.89818 2.76311
92 1 3.60487 9.66212 8.3911
259 2 2.43486 9.43567 5.669
139 3 0.716472 12.2454 6.88144
364 2 9.88025 6.73776 8.082
186 3 7.05326 7.93288 8.41747
329 2 8.9646 10.0438 -0.0151001
286 2 7.29329 8.86107 10.9894
272 2 10.4913 8.54211 12.1576
167 3 11.1993 6.67129 16.2043
227 2 5.70667 6.52488 15.6342
285 2 7.26991 9.44792 12.8042
60 4 3.78251 11.3227 9.31208
62 4 3.75567 10.915 14.9647
366 2 7.11164 9.10671 16.9436
273 2 9.73542 7.36878 13.3766
190 3 2.38108 11.3054 10.3455
195 3 3.25616 9.77473 13.9052
197 3 2.47831 11.2244 16.0063
196 3 4.49475 12.1605 14.4078
53 4 6.80806 6.64919 9.37377
347 2 7.95957 12.4449 16.4067
283 2 6.11478 10.6383 15.6999
331 2 10.0669 10.2959 15.2118
352 2 8.93303 6.44779 14.6204
337 2 8.44145 12.185 13.5
339 2 9.18739 10.6489 12.4236
334 1 9.0633 10.9843 13.5154
47 4 5.46389 13.0835 13.5027
335 2 8.42859 10.1789 14.0408
141 3 3.7509 7.95969 12.0398
178 3 11.3128 6.88229 10.4248
248 2 8.54925 8.5998 15.2154
249 2 6.85338 7.99004 15.6812
81 1 7.40151 8.72773 14.9752
173 3 5.65184 7.00235 10.4994
235 2 7.15103 9.79987 15.3433
250 2 7.14186 8.52079 13.8808
33 4 4.43568 6.77057 11.3695
16 4 9.3376 10.8618 9.4741
63 4 6.5531 11.1995 11.0849
89 1 9.61031 7.87364 12.3391
93 1 5.1331 10.1599 16.0345
94 1 6.79767 9.46994 11.8023
198 3 7.88094 11.4789 10.2314
199 3 5.13488 11.1834 10.1543
200 3 6.25934 12.034 12.429
271 2 8.53418 8.46768 12.1661
281 2 5.13411 8.98312 15.8058
284 2 5.65014 9.14453 11.938
74 1 5.82801 6.59832 16.7729
349 2 9.33226 11.307 16.8142
279 2 4.3817 8.84215 8.59877
330 2 10.9929 8.76713 15.9246
ITEM: TIMESTEP
100
ITEM: NUMBER OF ATOMS
366
ITEM: BOX BOUNDS xy xz yz pp pp pp
-8.3437825123419529e+00 1.6854851625161821e+01 -8.4442797103928804e+00
-3.4040069833810205e-01 1.3444835739784946e+01 8.3044882321290159e-01
-8.0556304019379965e-02 1.6989556304019288e+01 -3.1796495855315698e-01
ITEM: ATOMS id type x y z
254 2 -2.56278 5.59835 3.55011
244 2 2.72193 5.04474 7.71006
208 2 -2.45884 6.24192 7.23434
67 1 -2.19889 5.32402 6.57326
359 2 -1.26041 4.09232 0.37097
291 2 -0.0857802 4.76086 3.55259
317 1 -1.8204 5.002 0.837897
3 4 0.918234 2.91842 4.76352
8 4 -0.816279 4.26218 7.3455
64 1 0.647553 3.99494 3.2398
98 3 0.28199 3.68296 5.96157
114 3 2.49196 2.3942 4.65961
201 2 0.0260298 3.05145 2.69629
202 2 1.54973 4.49732 2.60511
203 2 1.49535 2.74567 1.8924
310 1 2.03587 0.795853 6.96478
338 1 2.07582 2.05195 1.10639
341 2 2.39143 2.69684 0.235467
344 2 3.36102 4.59606 1.12768
340 2 2.97894 1.64146 1.66227
78 1 2.05366 6.3513 5.60155
342 1 2.85694 5.55357 1.33139
239 2 2.2519 5.88054 4.43122
311 2 1.88314 0.327683 5.96678
358 2 1.43806 1.15131 0.819635
345 2 1.76076 5.36997 1.13278
312 2 2.52723 1.79865 7.00237
216 2 3.4175 0.35458 2.55576
204 2 0.487141 0.327319 5.2146
343 2 3.12413 5.9617 2.39052
210 2 2.89643 0.557013 -0.0601926
207 2 -1.83127 5.5663 5.5267
313 2 1.05371 0.826818 7.59179
241 2 1.43414 5.75058 6.31112
125 3 -0.00254106 5.40107 8.26993
65 1 -0.214636 1.22412 4.88827
318 2 -1.33168 5.49527 1.70209
29 4 5.60242 4.26112 7.6292
31 4 3.84862 6.29506 5.73446
70 1 4.4448 0.818645 2.9521
21 4 4.14083 2.27289 4.29191
219 2 3.64668 4.56454 3.39426
220 2 4.8681 3.42439 2.46259
126 3 4.64526 5.11236 6.498
71 1 4.57261 3.86553 3.47514
336 2 -0.793318 2.70399 0.605184
362 2 5.24674 0.992052 2.13578
115 3 6.59828 1.42257 1.04225
118 3 5.2931 1.91857 5.36589
119 3 7.57923 0.969539 6.88375
20 4 7.62197 0.0504096 1.65316
97 3 -1.50291 3.04589 8.03463
25 4 6.91826 2.06417 5.9354
218 2 5.39283 4.41969 4.09428
23 4 8.37115 -0.144948 7.86565
217 2 4.81773 0.168613 3.9229
128 3 3.18282 6.33844 15.7467
102 3 -2.15308 5.9279 10.388
121 3 5.83296 1.81501 10.6237
315 2 0.954407 1.17561 16.5613
296 4 4.7614 2.23303 15.0046
363 2 1.05917 3.05671 16.2839
6 4 1.47125 1.93471 10.7226
10 4 0.392139 3.97008 13.107
95 3 0.37024 1.96104 9.58456
96 3 1.4989 0.396059 11.4496
99 3 -0.412034 3.01943 14.2342
100 3 0.98704 3.05131 11.8528
103 3 -0.709138 4.95707 12.4632
117 3 2.98772 2.40921 10.1782
127 3 1.67556 4.77934 13.989
314 1 0.436128 2.14513 16.6319
7 4 -0.790933 6.11689 16.6978
300 2 2.37564 2.05857 13.2923
30 4 1.05331 6.24724 9.06765
297 1 2.36241 1.10811 13.9762
79 1 2.84582 5.50093 8.75814
32 4 1.72581 6.15383 14.7832
206 2 1.41718 0.996402 14.6327
230 2 2.68482 4.62345 9.54416
302 2 2.71985 3.00507 15.4832
12 4 -1.07888 6.28879 11.6107
120 3 5.88933 2.03379 16.0742
298 1 3.73359 3.56878 15.7331
242 2 1.2543 5.73192 11.4695
299 2 3.77345 0.825092 14.8562
304 2 3.68055 4.08143 16.7181
122 3 7.55022 0.4496 12.3455
129 3 0.542487 6.18934 15.8692
116 3 4.23619 0.668337 8.66515
243 2 3.81016 6.03517 8.90418
234 2 3.54102 5.54251 10.6394
101 3 -2.15616 6.22102 15.8243
303 2 4.0034 4.33585 14.8286
130 3 4.01086 4.13539 12.4593
301 2 5.41606 2.40677 13.3814
123 3 4.75576 3.28838 8.53333
24 4 4.44117 2.1124 9.52375
76 1 4.69781 5.13912 12.4028
4 4 2.10072 -0.14155 12.8286
9 4 -3.35904 6.39088 9.48545
27 4 7.25142 1.76978 11.4799
211 2 5.28106 -0.318843 16.136
290 2 -2.3216 7.34765 4.34323
36 4 0.501299 11.2912 -0.0541615
361 2 -5.28155 10.6207 2.14027
333 2 -3.4228 10.6739 1.93554
332 1 -4.44469 11.2521 1.79988
327 2 -6.12949 12.8702 3.00381
15 4 -2.71545 9.08785 7.32982
17 4 -4.24164 11.0495 5.66185
106 3 -5.71014 10.9605 4.86422
107 3 -3.95315 9.78284 6.62349
108 3 -4.37786 12.3693 6.5616
133 3 -2.90187 11.3192 4.74336
360 2 -4.35759 12.3126 2.27471
293 2 -4.55726 9.25683 1.76422
256 2 -2.50998 9.30158 2.93366
321 2 -2.80515 8.08507 1.1029
1 4 -5.15837 13.0899 7.84724
295 2 -4.36607 7.63497 0.752577
213 2 -2.26835 8.91521 5.09333
322 2 -1.40278 9.01143 0.0391008
324 1 -7.13732 12.4844 3.03316
289 1 -4.73585 8.10862 1.68533
292 2 -2.32568 7.23729 2.35638
38 4 1.0692 11.3403 5.59732
323 2 -0.857096 7.9645 1.59757
255 2 -1.72812 10.3308 1.59607
240 2 1.71924 7.64436 5.64049
215 2 -0.50481 8.81595 5.9552
69 1 -1.57847 8.38009 5.90313
132 3 -1.89191 12.566 2.44164
253 2 1.74944 7.35553 2.91603
214 2 -1.74512 7.23185 6.00961
83 1 -1.62634 9.89051 2.57797
34 4 2.11553 9.54648 1.86612
35 4 -1.63169 11.4112 3.75994
28 4 3.1541 7.02173 0.0246084
82 1 1.12587 8.30058 2.96546
84 1 1.41122 9.56539 5.92644
237 2 1.84656 7.70208 8.06559
134 3 0.975452 10.4547 1.24828
138 3 -0.239248 11.4571 4.60295
251 2 0.129679 7.97903 2.63968
252 2 -0.600978 9.33742 2.7534
257 2 1.22324 8.77441 4.07862
258 2 1.02685 9.29474 6.96243
354 3 -0.0508465 12.729 0.472132
135 3 -1.6521 10.0944 8.00823
104 3 -2.94392 7.60684 8.33023
320 1 -1.64423 8.06614 0.730807
139 3 0.616853 12.19 7.04638
325 2 -7.72135 13.3572 3.70877
231 2 0.770599 9.72539 8.44118
326 2 -7.53587 12.414 1.94259
288 1 -2.70876 6.72433 3.45513
348 2 -7.7075 13.3492 0.470642
238 2 0.858741 8.76417 9.8927
144 3 -0.754602 12.0737 14.5043
68 1 -4.25962 12.8766 16.3998
212 2 -4.93902 12.5652 15.4783
147 3 1.43904 9.23546 11.8854
357 2 -5.52303 11.1394 14.0384
105 3 -6.06324 12.1452 8.7067
14 4 -3.90415 11.11 16.8596
18 4 -2.41684 8.70591 13.1467
19 4 -4.015 10.6291 11.1712
109 3 -3.46227 7.98612 14.2121
112 3 -3.39454 9.56788 12.1091
113 3 -3.71876 12.5121 13.3354
137 3 -3.03107 11.0649 10.0767
145 3 -2.53103 10.7179 16.078
66 1 -4.19489 12.4159 12.198
111 3 -5.41576 10.2699 10.6193
356 2 -3.95108 12.9976 11.1799
146 3 -0.445049 10.7125 10.4057
26 4 0.0476445 12.9142 13.2809
232 2 -0.371284 8.38274 8.65254
328 1 -5.36695 9.83719 16.2845
75 1 0.65757 8.69302 8.81393
136 3 -1.22385 12.6634 8.84992
236 2 1.01992 7.67848 11.2647
330 2 -4.5942 9.02683 15.9983
110 3 -1.6366 7.54617 12.395
142 3 -1.38049 9.61592 13.9597
37 4 -1.63139 11.0745 9.35897
39 4 2.41241 8.63668 12.9547
40 4 -1.16239 10.6702 15.1468
41 4 0.941709 10.9005 11.1648
140 3 1.82871 7.42285 13.7657
143 3 0.106624 10.114 16.1461
331 2 -5.86264 10.418 15.2715
148 3 0.933498 11.9417 12.4229
77 1 0.680819 6.55404 10.9414
309 2 15.0777 0.710563 1.30764
42 4 9.0266 2.01753 3.55551
72 1 6.41793 4.17712 0.664559
86 1 8.47277 5.60304 5.04399
124 3 6.90647 3.45957 6.85797
149 3 8.66427 0.718151 2.64727
150 3 7.81171 2.17202 4.70437
164 3 8.94742 3.2902 2.59821
168 3 9.35439 4.95889 0.437422
50 4 10.0851 4.23262 1.72367
305 4 12.7882 0.196319 1.7741
266 2 8.91879 4.92666 6.91645
265 2 8.83259 4.59828 5.41428
87 1 9.12141 4.41836 8.03709
263 2 8.58899 5.67703 3.81841
221 2 6.94562 4.08051 1.69234
268 2 8.66758 3.35737 8.16356
264 2 7.45922 5.84983 5.37022
355 2 15.0371 1.53102 5.75523
209 2 12.8189 4.63386 6.49427
44 4 13.2076 -0.0184553 7.48736
155 3 10.3774 1.85124 4.48755
205 2 15.1204 1.15683 3.78472
308 2 14.0859 2.00228 2.56503
228 2 5.57691 6.04108 0.151246
261 2 13.9753 2.26787 4.53353
52 4 10.9327 3.90364 8.11756
262 2 12.9037 3.94944 4.69157
46 4 11.5289 2.22879 5.50148
85 1 12.9398 2.814 4.35497
156 3 12.2783 1.08355 6.41201
165 3 11.2724 3.36991 1.17475
166 3 10.7482 5.4057 2.77628
170 3 11.1689 3.61211 6.5513
260 2 12.3411 2.57292 3.36862
307 3 11.8221 0.636277 0.638268
306 1 14.1943 0.99037 1.95676
270 2 11.206 6.34523 6.79396
319 2 12.9859 4.81687 1.04781
222 2 5.37166 4.40964 0.748883
352 2 8.87301 6.24465 14.55
163 3 13.1373 0.826103 12.7791
267 2 8.84138 5.11641 8.96199
51 4 9.93741 6.02288 16.8087
172 3 6.23978 5.37898 8.54653
45 4 10.0429 1.60369 9.9537
48 4 9.89811 1.8623 14.9676
73 1 7.18619 3.0635 12.8688
154 3 8.69416 2.24444 10.6398
158 3 9.53615 0.560867 14.0903
160 3 8.61901 2.14133 15.9085
180 3 10.0971 4.99264 11.9141
224 2 6.24839 3.84138 12.6246
225 2 8.19117 3.56878 12.6848
226 2 7.13318 2.51084 13.8214
350 1 8.63024 5.68814 15.4755
351 2 8.66583 4.59652 15.3718
153 3 9.43814 0.665842 8.68746
175 3 10.186 3.2422 14.0369
353 2 7.64914 6.08581 15.8845
176 3 12.032 3.18462 12.287
233 2 5.66502 5.75009 13.0135
161 3 13.7511 2.16767 10.5381
177 3 11.9483 5.31503 13.9739
171 3 11.8515 5.18294 8.71933
169 3 10.8768 2.64712 9.07185
162 3 11.0779 0.994173 10.9678
2 4 14.6253 1.90101 9.29633
5 4 14.9368 1.99397 15.3346
49 4 12.5557 1.8402 11.7039
55 4 11.1862 4.18997 13.1411
151 3 13.6152 2.39522 16.1779
157 3 15.0087 0.356175 14.69
159 3 11.2159 1.53346 15.8661
223 2 7.72742 4.52426 16.8913
179 3 8.27343 6.35308 10.1003
152 3 14.099 0.43981 8.70372
56 4 9.92855 6.3334 11.1506
22 4 7.41321 2.12115 16.8997
43 4 12.3126 1.87568 16.9435
188 3 8.86294 9.8068 8.38948
58 4 3.68319 11.3552 3.82655
183 3 3.09712 10.267 2.8356
185 3 2.512 11.7325 4.92419
269 2 10.7746 8.08687 7.48089
189 3 3.70992 12.4579 8.27843
280 2 3.84569 10.0586 7.35597
287 4 11.4063 6.86341 3.16236
184 3 4.10321 12.5703 2.86005
229 2 5.57797 8.01186 0.194197
88 1 10.4091 7.08008 7.15817
186 3 6.93754 7.92073 8.23055
346 1 7.6178 12.46 0.0901158
247 2 4.38877 8.51109 6.98387
245 2 4.42241 8.38022 4.9702
274 2 5.99073 8.21192 3.70194
246 2 5.85859 7.62222 6.03433
80 1 4.77377 7.87407 5.99804
13 4 8.77902 10.8889 4.01854
54 4 9.41205 7.31995 5.57228
57 4 7.55897 8.52924 2.04684
59 4 7.67936 9.16872 7.44359
61 4 6.10627 11.2567 5.82562
90 1 6.49031 7.34906 3.16691
181 3 8.21762 7.54784 0.993277
182 3 8.54928 9.6326 2.92859
187 3 8.35718 8.40888 5.9988
191 3 7.58337 11.3192 4.93383
192 3 4.94765 10.6922 4.7527
193 3 6.36917 10.1939 7.01895
194 3 5.62171 12.6665 6.42293
91 1 6.41378 9.65602 0.987762
365 2 6.42109 10.7898 1.1745
277 2 5.43854 9.11856 1.47869
316 2 6.93152 12.029 0.957645
174 3 10.6708 7.54379 4.423
294 2 10.0336 7.97099 1.68728
275 2 7.18033 6.71554 3.91383
282 2 3.84603 10.4919 0.0137945
276 2 5.81051 6.67981 2.61321
131 3 2.88822 8.51681 0.667621
259 2 2.54354 9.56364 5.80349
329 2 8.98518 9.80603 -0.031691
364 2 9.76424 6.62127 7.9876
286 2 7.21252 8.89094 10.8552
272 2 10.4803 8.41248 12.0757
167 3 11.1766 6.64882 16.0221
227 2 5.85498 6.62513 15.615
285 2 7.27874 9.22671 12.7936
60 4 3.5892 11.3721 9.45473
62 4 3.62472 10.9368 14.9872
279 2 4.62489 9.13335 8.84225
273 2 9.55279 7.37019 13.3109
190 3 2.26278 11.2062 10.2535
195 3 2.99379 9.76218 13.9732
197 3 2.56999 11.4733 16.1065
196 3 4.50068 11.9914 14.1681
53 4 6.82205 6.70941 9.32745
347 2 7.73848 12.4124 16.2042
283 2 6.02314 10.2814 15.7445
11 4 12.3493 6.52784 14.8859
366 2 7.42384 9.09549 16.8964
337 2 8.30388 12.3492 13.7978
339 2 9.5401 10.7909 12.4498
334 1 9.39163 11.0324 13.5098
47 4 5.55831 13.1402 13.5145
335 2 8.75818 10.2591 14.0308
141 3 3.7062 7.88246 12.054
178 3 11.2098 6.85387 10.2705
248 2 8.85119 9.02118 15.4799
249 2 7.18425 7.94802 15.5566
81 1 7.73301 8.71741 14.9391
173 3 5.73896 7.07983 10.4241
235 2 7.08343 9.66128 14.9458
250 2 7.85935 8.41041 13.8162
33 4 4.51215 6.76336 11.3404
16 4 9.35529 10.8248 9.42719
63 4 6.52103 11.2928 11.138
89 1 9.56484 7.77436 12.2783
93 1 4.92176 9.93601 16.0054
94 1 6.77493 9.47718 11.7095
198 3 7.85104 11.227 10.298
199 3 5.02222 11.2671 10.4091
200 3 6.53138 12.298 12.4413
271 2 8.51686 8.38112 12.0352
281 2 4.66936 8.87549 15.72
284 2 5.56008 9.23866 11.718
74 1 5.92819 6.68313 16.809
349 2 9.21851 11.2855 16.7837
92 1 3.73142 9.72489 8.51305
278 2 2.61221 9.25634 8.72449
ITEM: TIMESTEP
200
ITEM: NUMBER OF ATOMS
366
ITEM: BOX BOUNDS xy xz yz pp pp pp
1.0049719805092661e-01 2.4327743882927148e+01 7.4728922577653272e+00
-3.4040069833810205e-01 1.3444835739784946e+01 8.3044882321290159e-01
-8.0556304019379965e-02 1.6989556304019288e+01 -3.1796495855315698e-01
ITEM: ATOMS id type x y z
217 2 4.69305 0.0110059 3.95499
364 2 9.45948 6.52162 7.9773
218 2 5.61833 4.2035 3.97019
25 4 6.96885 2.04289 5.88196
20 4 7.67059 0.103979 1.78911
119 3 7.52233 0.846711 6.84306
118 3 5.31351 1.84537 5.43964
115 3 6.58549 1.35688 1.17757
362 2 5.21907 0.854806 2.32568
71 1 4.6672 3.78946 3.43256
126 3 4.63721 4.98954 6.42181
114 3 2.50589 2.54103 4.72462
220 2 4.97384 3.19324 2.474
219 2 3.72697 4.45509 3.37341
21 4 4.18742 2.21227 4.33901
310 1 2.0118 0.8273 6.93104
338 1 2.07874 2.05202 1.35448
341 2 2.38041 2.68634 0.333747
344 2 3.24081 4.57167 1.22687
340 2 3.10415 1.72994 1.8805
70 1 4.37028 0.698459 3.05779
29 4 5.76389 4.23043 7.62327
325 2 0.866969 -0.0711794 3.55026
311 2 2.11912 0.398617 5.79809
358 2 1.44901 1.16902 1.05662
210 2 2.87433 0.562266 0.220699
312 2 2.54266 1.84338 7.07487
216 2 3.46131 0.33307 2.53594
42 4 9.06429 1.94034 3.6649
222 2 5.09064 4.33841 0.674727
72 1 6.18619 4.14124 0.557352
270 2 11.0224 6.39315 6.79321
86 1 8.28225 5.61877 5.13863
124 3 6.9251 3.55786 6.79897
150 3 7.76053 2.20321 4.56218
164 3 9.13168 3.34019 2.75347
166 3 10.979 5.44726 2.36719
168 3 9.28852 4.94259 0.453384
50 4 10.1524 4.19882 1.67531
266 2 8.80222 4.91953 6.9911
265 2 9.04033 4.83362 5.35718
87 1 9.06896 4.47546 8.02772
263 2 7.82564 5.42028 4.14585
221 2 6.78156 4.05085 1.57983
228 2 5.45364 6.04298 0.0718963
268 2 8.5594 3.48765 8.20404
264 2 7.4973 5.70492 5.95652
23 4 8.35082 -0.162709 7.79936
123 3 4.8594 3.11997 8.40816
31 4 3.97939 6.27475 5.80229
348 2 0.739438 -0.0454899 0.349165
353 2 7.54517 6.06795 15.9085
27 4 7.27709 1.77238 11.5225
121 3 5.77765 1.98105 10.4987
4 4 2.16221 -0.141326 12.8187
296 4 4.79298 2.23435 15.0026
76 1 4.73087 5.218 12.4819
24 4 4.37979 2.11117 9.54777
233 2 5.43044 5.8436 13.3926
301 2 5.47482 2.62231 13.4645
96 3 1.6123 0.649901 11.5484
130 3 4.09323 4.17709 12.3403
303 2 3.82548 4.20739 14.7313
116 3 4.07788 0.62598 8.85742
117 3 2.98125 2.4418 10.2724
122 3 7.26822 0.419252 12.3131
304 2 3.60216 4.16969 16.6984
299 2 3.89619 0.751429 14.6705
300 2 2.31844 1.96028 13.667
298 1 3.68228 3.51242 15.7444
297 1 2.48749 0.948271 14.1647
120 3 5.9742 1.97269 16.0139
55 4 11.0242 4.16075 13.0476
352 2 8.71999 6.00015 14.391
267 2 8.82155 5.18197 8.89656
22 4 7.31427 2.06823 16.9883
56 4 9.74484 6.47257 11.0906
51 4 9.89915 5.99063 16.7606
179 3 8.5019 6.4014 10.1268
223 2 7.48284 4.60938 16.8541
172 3 6.38545 5.41658 8.51714
48 4 9.95848 1.92864 14.8959
73 1 7.22885 3.19251 12.7939
154 3 8.62974 1.98956 10.6086
160 3 8.6083 2.10799 16.0078
180 3 10.001 5.01861 12.1816
224 2 6.33285 3.88946 12.6742
225 2 8.23641 3.68937 12.4613
226 2 7.2794 2.63171 13.8069
350 1 8.54701 5.64314 15.4787
351 2 8.7019 4.47778 15.523
175 3 10.1617 3.25286 14.0478
206 2 1.61166 0.541179 14.8958
302 2 2.72107 2.89215 15.634
211 2 5.18563 -0.248304 16.1265
177 3 11.8306 5.37103 13.9743
275 2 7.16794 6.72644 3.95152
326 2 8.43033 12.4965 1.80547
361 2 10.6442 10.9447 2.14109
333 2 12.6231 10.6088 2.05223
332 1 11.6681 11.2689 1.72597
327 2 9.98818 12.7604 2.76216
15 4 13.2258 9.06629 7.40272
17 4 11.6594 11.0477 5.69868
106 3 10.3886 11.0248 4.65658
107 3 11.8674 9.69423 6.62908
108 3 11.6032 12.3888 6.64428
133 3 12.9531 11.3173 4.71319
360 2 11.8052 12.3704 2.09868
293 2 11.4657 9.24432 1.67249
54 4 9.29286 7.24421 5.57457
13 4 8.75925 11.1047 3.94854
1 4 10.6724 13.1929 7.95437
295 2 11.7761 7.69567 0.603944
35 4 14.3035 11.4178 3.82306
132 3 14.2169 12.6271 2.82587
324 1 8.86069 12.5747 2.87383
289 1 11.2182 8.11213 1.54672
188 3 8.92469 9.67515 8.33611
246 2 5.90553 7.60999 6.161
329 2 9.01783 9.87143 -0.00743122
269 2 10.6464 8.01249 7.67675
287 4 11.407 6.93798 3.00025
57 4 7.62115 8.52624 2.04234
229 2 5.49006 8.05137 0.165176
316 2 6.97063 12.1069 0.665619
294 2 10.0473 7.98215 1.32109
174 3 10.2912 7.36312 4.35045
274 2 5.8751 8.22022 3.58913
277 2 5.52611 9.22592 1.46115
365 2 6.57813 10.8419 1.09545
91 1 6.44633 9.64143 0.952849
88 1 10.207 7.07834 7.20756
193 3 6.48694 10.1902 7.00135
186 3 7.01657 7.87125 8.33439
191 3 7.5626 11.5116 4.86172
187 3 8.20136 8.30437 5.92918
182 3 8.25896 9.66289 2.91742
181 3 8.38684 7.58977 1.00023
90 1 6.49863 7.3707 3.15008
276 2 5.87742 6.64519 2.49395
59 4 7.63597 9.11636 7.46801
331 2 10.1424 10.279 15.1738
144 3 15.224 12.305 14.5717
68 1 11.6677 12.8588 16.5782
212 2 10.9455 12.5673 15.6704
346 1 8.53887 12.2635 16.9479
357 2 10.3441 11.1286 13.9486
105 3 9.77316 12.1006 8.64907
14 4 12.1732 11.11 16.8522
18 4 13.4431 8.73479 13.1791
19 4 11.7302 10.7281 11.0357
109 3 12.5153 7.97142 14.2562
112 3 12.4854 9.7122 12.1189
113 3 12.2203 12.5467 13.2577
137 3 12.7974 11.1232 9.96873
145 3 13.5378 10.8051 16.1152
66 1 11.6408 12.4405 12.16
111 3 10.2853 10.371 10.5741
356 2 11.8572 13.0405 11.0678
37 4 14.3278 11.1987 9.445
26 4 16.0531 13.1006 13.3865
330 2 11.2753 9.02481 15.9607
328 1 10.6131 9.85177 16.2915
136 3 14.7402 12.6321 8.81735
286 2 7.00784 8.99779 11.3052
272 2 10.2185 8.61733 12.0688
167 3 11.055 6.73356 16.0267
349 2 9.36058 11.4281 16.6059
74 1 5.82115 6.7232 16.7528
227 2 5.75261 6.76349 15.5541
285 2 7.161 9.26391 13.1537
271 2 8.30443 8.45494 12.2624
273 2 9.46133 7.3607 13.2541
53 4 6.82356 6.74258 9.35101
198 3 7.74171 11.1729 10.3387
94 1 6.59162 9.54682 12.2326
11 4 12.2865 6.55992 14.9475
89 1 9.32956 7.90708 12.277
366 2 7.45134 9.01559 16.9774
16 4 9.0294 10.8559 9.39626
337 2 8.30712 12.3454 13.9252
250 2 8.19663 8.21347 14.0666
235 2 7.21248 9.59888 14.8458
173 3 5.80672 7.1858 10.5139
81 1 7.84737 8.65425 15.0447
249 2 7.18078 7.87592 15.7123
248 2 8.83093 9.04663 15.6551
178 3 11.2169 6.96525 10.5233
339 2 9.34586 10.7863 12.4251
335 2 8.71193 10.1762 14.0672
334 1 9.30438 11.0696 13.5021
33 4 4.65378 6.91099 11.523
309 2 15.2639 0.206197 1.71781
319 2 12.9677 4.66798 0.63774
306 1 14.3543 0.852611 2.04158
307 3 12.0797 0.753854 0.704808
260 2 12.4222 2.35806 3.35678
149 3 8.96249 0.668057 2.61632
170 3 11.3921 3.60175 6.5755
165 3 11.0512 3.11894 0.989052
156 3 12.3176 1.02287 6.61963
85 1 13.0343 2.60645 4.32277
305 4 12.9487 0.0986176 1.79677
46 4 11.7031 2.06301 5.57696
262 2 13.0403 3.73084 4.60622
52 4 10.9325 3.99286 8.07367
261 2 14.0358 2.05692 4.44984
308 2 14.2873 2.04653 2.23522
205 2 15.3585 1.02504 3.86764
155 3 10.4447 1.7648 4.71162
355 2 15.0997 1.38888 5.63978
209 2 12.837 4.63015 6.42497
44 4 13.1677 -0.0477397 7.49245
254 2 13.0707 5.50572 3.35763
244 2 18.3557 4.65307 7.94976
208 2 13.4856 6.12023 7.19936
67 1 13.7729 5.29083 6.49648
359 2 14.7173 4.00103 0.217967
97 3 14.468 3.21918 8.09161
291 2 15.6483 4.71755 3.75128
317 1 14.116 4.93052 0.561872
3 4 16.8307 2.95821 4.78505
8 4 15.2062 4.30037 7.29045
64 1 16.3994 4.0024 3.294
336 2 15.1079 2.42685 0.5745
98 3 16.092 3.6821 6.07204
201 2 15.915 3.063 2.7223
202 2 17.2254 4.53166 2.59753
203 2 17.4181 2.75031 2.01069
78 1 18.1156 6.40601 5.53325
342 1 18.5093 5.52988 1.3115
343 2 18.6464 6.0524 2.30296
239 2 18.1973 5.97178 4.35199
318 2 14.5438 5.36813 1.55649
65 1 15.8709 1.18 4.86793
125 3 16.0133 5.28089 8.20341
241 2 17.5308 5.61848 6.16076
345 2 17.4379 5.3257 1.216
207 2 14.1515 5.58108 5.46983
313 2 16.8829 0.745331 7.28673