ITEM: TIMESTEP
0
ITEM: NUMBER OF ATOMS
366
ITEM: BOX BOUNDS xy xz yz pp pp pp
-8.3370488766021680e+00 1.6854851625161821e+01 -8.4375460746530955e+00
-3.4040069833810205e-01 1.3444835739784946e+01 8.3044882321290159e-01
-8.0556304019379965e-02 1.6989556304019288e+01 -3.1796495855315698e-01
ITEM: ATOMS id type x y z
254 2 -2.56236 5.4805 3.43736
244 2 2.83607 4.85923 7.72941
208 2 -2.44701 6.14784 7.28921
67 1 -2.21327 5.29506 6.54154
359 2 -1.12348 4.08183 0.258105
291 2 0.210483 4.96041 3.87688
317 1 -1.67289 5.09537 0.777689
3 4 0.87752 2.8786 4.7544
8 4 -0.746197 4.17888 7.20874
64 1 0.673542 4.11836 3.31088
98 3 0.229419 3.57311 6.0281
114 3 2.43236 2.46255 4.5931
201 2 -0.148263 3.44329 2.79378
202 2 1.48892 4.55555 2.55084
203 2 1.37676 2.79289 1.83715
310 1 1.88871 0.768503 7.12152
338 1 1.91316 2.04222 1.13207
341 2 2.28983 2.71132 0.179946
344 2 3.6832 4.85635 1.26544
340 2 2.80078 1.56283 1.76869
78 1 2.19311 6.43658 5.68401
342 1 2.72089 5.55653 1.30869
239 2 2.23278 5.98585 4.34481
311 2 1.93996 0.67232 6.04587
358 2 1.13385 1.2317 0.846456
345 2 1.75594 5.1973 0.804811
312 2 1.98616 1.82702 7.44692
216 2 3.34054 0.289547 2.44622
325 2 0.873903 -0.0333151 3.6683
343 2 2.53355 6.03934 2.2772
210 2 2.63483 0.437858 0.124135
207 2 -1.67599 5.65997 5.59738
313 2 0.997618 0.171912 7.56909
241 2 1.74154 5.59944 6.39284
125 3 0.0761049 5.26806 8.17498
65 1 -0.316012 1.20319 4.78037
318 2 -0.960983 5.58288 1.57577
29 4 5.57782 4.27452 7.67715
31 4 3.97273 6.25672 5.65985
70 1 4.25528 0.733148 2.89321
21 4 4.11096 2.21694 4.29393
219 2 3.86548 4.54854 3.60027
220 2 4.93442 3.30266 2.51327
126 3 4.66034 5.07237 6.55233
71 1 4.71143 3.7952 3.56773
336 2 -0.936041 2.60257 0.390364
362 2 4.98118 1.00819 2.042
115 3 6.46788 1.38896 0.976696
118 3 5.18268 1.74154 5.45172
119 3 7.51795 0.9712 6.93997
20 4 7.59604 0.173768 1.68153
97 3 -1.47166 3.20586 8.22464
25 4 6.76985 2.10654 5.99127
222 2 5.32967 4.33349 0.789823
319 2 -2.75235 4.92215 0.996779
217 2 4.778 0.0832145 3.68922
23 4 8.34348 -0.0859496 7.92378
288 1 -2.70774 6.60671 3.37823
218 2 5.67168 4.01407 4.14442
128 3 3.10222 6.32508 15.6552
102 3 -2.11993 5.94102 10.2135
121 3 5.71419 1.93059 10.6178
315 2 0.905362 1.14183 16.3574
296 4 4.90665 2.27644 14.8701
363 2 1.13785 2.9535 16.1867
6 4 1.43419 2.01404 10.6926
10 4 0.229456 4.03089 13.1602
95 3 0.400231 1.7938 9.50574
96 3 1.54816 0.551789 11.5479
99 3 -0.475773 3.0341 14.1426
100 3 0.984383 3.10176 11.8164
103 3 -0.840041 5.06493 12.6198
117 3 2.96678 2.07212 10.1701
127 3 1.61559 4.86053 13.9132
314 1 0.41114 2.16454 16.4552
7 4 -0.804112 6.20719 16.6661
300 2 2.404 2.11285 13.3406
30 4 1.10499 6.1993 9.05723
297 1 2.41461 1.10666 13.9285
79 1 2.75732 5.28646 8.76038
32 4 1.7862 6.18818 14.6903
206 2 1.44695 0.894271 14.5713
230 2 2.53956 4.51801 9.64069
302 2 2.76367 2.78124 15.5172
12 4 -1.17957 6.2229 11.5136
120 3 5.96203 2.1347 15.9713
298 1 3.73977 3.50741 15.6379
242 2 1.29092 5.89399 11.5261
299 2 3.91399 0.784162 14.6337
304 2 3.68723 4.06827 16.6313
122 3 7.56893 0.385818 12.2461
129 3 0.582022 6.23449 15.8926
116 3 4.46304 0.705012 8.55998
243 2 3.6209 6.00545 9.00106
234 2 3.17796 5.77616 10.6807
101 3 -2.23078 6.2438 15.8488
303 2 3.93191 4.29027 14.6983
130 3 4.08208 4.27949 12.3946
301 2 5.59645 2.46345 13.2842
123 3 4.69645 3.37726 8.65573
24 4 4.51974 2.05632 9.61962
76 1 4.79826 5.25447 12.5483
4 4 2.23893 -0.170821 12.7426
9 4 -3.41614 6.39728 9.45325
22 4 7.32301 2.13051 16.8456
27 4 7.35007 1.73559 11.4242
290 2 -2.43975 7.19242 4.32742
36 4 0.448374 11.3748 -0.0192151
361 2 -5.36339 10.6413 2.01085
333 2 -3.47759 10.6683 2.03436
332 1 -4.42305 11.2286 1.69912
327 2 -5.87377 12.6724 3.18231
15 4 -2.59618 9.06435 7.28271
17 4 -4.22409 11.0607 5.69992
106 3 -5.76444 10.7685 4.82985
107 3 -3.78906 9.84553 6.7028
108 3 -4.41798 12.3746 6.52683
133 3 -3.14799 11.2355 4.59225
360 2 -4.38028 12.3388 2.06839
293 2 -4.55465 9.17532 1.77361
256 2 -2.60149 9.38117 3.07493
321 2 -2.76585 8.23502 1.19815
231 2 0.550426 9.68755 8.38648
295 2 -4.00505 7.51589 0.823282
213 2 -2.22142 8.66752 4.85155
322 2 -1.32339 8.98564 0.135608
324 1 -7.01677 12.5842 3.1434
289 1 -4.64659 7.98187 1.68985
292 2 -2.30413 7.13673 2.39306
348 2 -7.68798 13.3846 0.603922
323 2 -0.907415 7.7917 1.61314
255 2 -1.76333 10.4536 1.67006
240 2 1.82016 7.60039 5.86701
215 2 -0.527981 8.78537 5.83412
69 1 -1.70837 8.3601 5.79435
132 3 -1.80784 12.756 2.58409
253 2 1.8066 7.2939 2.93647
214 2 -1.8639 7.17819 6.03338
83 1 -1.59724 9.92576 2.70441
34 4 1.97992 9.37676 1.85209
35 4 -1.68402 11.4979 3.76861
28 4 3.04467 6.96344 -0.0333917
82 1 1.09739 8.18804 2.99892
84 1 1.31097 9.58394 5.90868
131 3 2.70789 8.34858 0.77732
134 3 0.909737 10.4253 1.23681
138 3 -0.348325 11.3225 4.56653
251 2 0.0447329 7.85358 2.76418
252 2 -0.584302 9.26526 2.75512
257 2 1.1966 8.7007 4.11378
258 2 0.995973 9.2278 6.92842
354 3 -0.280284 12.7974 0.429453
135 3 -1.51916 10.0681 8.06099
104 3 -2.92965 7.49441 8.30037
320 1 -1.65796 8.08848 0.782947
326 2 -7.45251 12.4516 2.08656
38 4 1.07752 11.3847 5.5816
237 2 1.69096 7.7009 7.96406
1 4 -5.04178 13.1801 7.78409
238 2 0.707381 8.64119 9.95599
144 3 -0.66713 12.0442 14.5466
68 1 -4.55233 12.7118 16.4572
212 2 -5.34619 12.2817 15.689
147 3 1.44782 9.34385 11.8848
357 2 -5.81621 11.0379 14.0502
105 3 -5.7827 12.1491 8.76338
14 4 -3.85607 11.0294 16.8377
18 4 -2.40079 8.56962 13.2306
19 4 -4.01082 10.6528 11.0439
109 3 -3.46913 7.7418 13.9633
112 3 -3.39342 9.68207 12.1327
113 3 -3.7616 12.3557 13.5313
137 3 -2.87629 11.0607 10.0561
145 3 -2.47492 10.7317 16.1779
66 1 -4.21842 12.2377 12.3894
111 3 -5.5893 10.2847 10.6184
356 2 -3.65348 12.8782 11.3193
146 3 -0.184512 10.8076 10.458
26 4 0.03568 12.9499 13.3888
232 2 -0.509481 8.17822 8.58206
328 1 -5.3785 9.78932 16.1681
75 1 0.504989 8.65037 8.81189
136 3 -1.26244 12.671 8.80337
236 2 0.78149 7.6279 11.0718
278 2 2.37901 9.24049 8.5833
110 3 -1.57735 7.59225 12.2313
142 3 -1.42871 9.4253 14.1357
37 4 -1.41055 11.1168 9.38516
39 4 2.52472 8.64508 12.9664
40 4 -1.04466 10.6408 15.1098
41 4 1.11793 10.8123 11.3245
140 3 1.69876 7.5017 13.7542
143 3 0.0740625 10.1984 16.1821
77 1 0.616793 6.53715 10.8542
148 3 0.941856 11.8402 12.5926
211 2 -3.51248 13.0521 15.8931
309 2 15.0892 0.32665 1.8241
42 4 8.95064 2.13916 3.59055
72 1 6.41918 4.17297 0.651831
86 1 8.72901 5.62946 5.07792
124 3 6.72179 3.50526 6.78574
149 3 8.60315 0.790085 2.73579
150 3 7.62535 2.40918 4.7703
164 3 9.02109 3.43805 2.61666
168 3 9.3536 5.04008 0.525349
50 4 10.0788 4.19547 1.67455
305 4 12.7545 0.345062 2.00557
266 2 8.91563 4.8013 6.8784
265 2 9.5046 4.80932 5.29751
87 1 9.06965 4.36642 8.02167
263 2 8.42214 5.49584 4.09628
221 2 6.97366 4.33636 1.6412
268 2 8.47516 3.48431 8.30862
264 2 7.83919 5.4273 5.8411
355 2 14.8631 1.4707 5.58985
209 2 12.783 4.61464 6.35798
44 4 13.2295 -0.0410516 7.31284
155 3 10.3559 1.9645 4.37644
205 2 15.0607 1.22837 3.66463
308 2 14.2759 2.19679 2.15003
228 2 5.53334 5.88726 0.0415491
261 2 13.9911 2.42544 4.4664
52 4 10.9234 3.94182 8.08918
262 2 13.1019 4.1669 4.64818
46 4 11.6307 2.36194 5.45977
85 1 12.9971 3.0887 4.36316
156 3 12.4303 1.00613 6.48346
165 3 11.3117 3.21071 1.13962
166 3 10.8871 5.4028 2.67739
170 3 11.2149 3.58686 6.33063
260 2 12.3767 3.00524 3.3848
307 3 11.7953 0.628172 0.776499
306 1 14.1847 1.05806 1.85733
152 3 14.1733 0.611107 8.38346
204 2 16.0666 0.198229 4.98895
11 4 12.3627 6.38749 14.9389
163 3 13.0632 0.711081 12.7826
267 2 8.87662 5.29085 8.84806
51 4 9.93212 6.03065 16.7894
172 3 6.43446 5.36911 8.5083
45 4 10.0684 1.55645 9.93999
48 4 9.81751 1.94912 14.9622
73 1 7.3375 3.20411 12.6259
154 3 8.68136 2.21639 10.665
158 3 9.56754 0.609719 14.0873
160 3 8.51915 2.24362 15.8922
180 3 10.1465 5.14932 12.0752
224 2 6.37524 3.964 12.588
225 2 8.29377 3.78241 12.4656
226 2 7.36245 2.52497 13.5787
350 1 8.60383 5.78865 15.4583
351 2 8.72641 4.70308 15.2739
153 3 9.38843 0.450823 8.9382
175 3 10.0676 3.18298 13.9588
353 2 7.56732 6.12951 15.7966
176 3 12.1243 3.16388 12.4015
233 2 5.35461 5.94726 13.3358
161 3 13.9186 1.98324 10.5437
177 3 11.9432 5.10659 14.066
171 3 11.809 5.18929 8.60401
169 3 10.8062 2.73739 9.06234
162 3 11.2262 1.1424 10.9474
2 4 14.7084 1.93245 9.22498
5 4 14.8888 1.97638 15.1057
49 4 12.5554 1.79204 11.6738
55 4 11.1347 4.12974 13.1568
151 3 13.552 2.26208 16.003
157 3 14.9856 0.508592 14.5256
159 3 11.0089 1.82269 16.1266
223 2 7.6677 4.62745 16.7896
179 3 8.49333 6.44209 10.1006
43 4 12.3083 1.8627 16.9436
56 4 9.94038 6.49665 11.1147
188 3 8.78873 9.85058 8.37
58 4 3.67315 11.322 3.95112
183 3 3.02074 10.0278 2.94229
185 3 2.43574 11.9322 4.75307
269 2 10.5074 8.40156 7.46674
189 3 3.78671 12.308 8.09816
280 2 3.61191 10.088 7.32401
287 4 11.3995 6.78057 3.22791
184 3 4.32787 12.5491 2.97481
229 2 5.51361 7.89158 0.224162
88 1 10.4079 7.26058 7.26622
270 2 11.3864 6.85078 6.90969
346 1 7.68935 12.4267 0.146767
247 2 4.4488 8.56593 6.86669
245 2 4.55806 8.3799 4.91949
274 2 6.14331 8.28266 3.96499
246 2 5.92383 7.5515 5.95173
80 1 4.80838 7.84694 5.95158
13 4 8.77758 10.8976 4.06961
54 4 9.52914 7.44261 5.63546
57 4 7.57448 8.57978 2.08989
59 4 7.60012 9.08245 7.5773
61 4 6.11089 11.1749 5.82088
90 1 6.70678 7.48099 3.35094
181 3 8.43354 7.72447 1.05828
182 3 8.44854 9.82854 2.93546
187 3 8.28399 8.32383 6.03518
191 3 7.51763 11.1471 5.0125
192 3 4.81214 10.7415 4.90272
193 3 6.40155 10.0539 7.16795
194 3 5.86931 12.65 6.31612
91 1 6.24076 9.59175 1.04979
365 2 6.32743 10.7071 1.25454
277 2 5.35525 9.04239 1.61003
316 2 6.97281 11.9204 0.868859
174 3 10.7064 7.4297 4.5254
294 2 10.1834 7.81615 1.44045
275 2 7.50287 6.79055 3.99322
282 2 4.01007 10.7333 0.0466277
276 2 5.93307 6.89818 2.76311
92 1 3.60487 9.66212 8.3911
259 2 2.43486 9.43567 5.669
139 3 0.716472 12.2454 6.88144
364 2 9.88025 6.73776 8.082
186 3 7.05326 7.93288 8.41747
329 2 8.9646 10.0438 -0.0151001
286 2 7.29329 8.86107 10.9894
272 2 10.4913 8.54211 12.1576
167 3 11.1993 6.67129 16.2043
227 2 5.70667 6.52488 15.6342
285 2 7.26991 9.44792 12.8042
60 4 3.78251 11.3227 9.31208
62 4 3.75567 10.915 14.9647
366 2 7.11164 9.10671 16.9436
273 2 9.73542 7.36878 13.3766
190 3 2.38108 11.3054 10.3455
195 3 3.25616 9.77473 13.9052
197 3 2.47831 11.2244 16.0063
196 3 4.49475 12.1605 14.4078
53 4 6.80806 6.64919 9.37377
347 2 7.95957 12.4449 16.4067
283 2 6.11478 10.6383 15.6999
331 2 10.0669 10.2959 15.2118
352 2 8.93303 6.44779 14.6204
337 2 8.44145 12.185 13.5
339 2 9.18739 10.6489 12.4236
334 1 9.0633 10.9843 13.5154
47 4 5.46389 13.0835 13.5027
335 2 8.42859 10.1789 14.0408
141 3 3.7509 7.95969 12.0398
178 3 11.3128 6.88229 10.4248
248 2 8.54925 8.5998 15.2154
249 2 6.85338 7.99004 15.6812
81 1 7.40151 8.72773 14.9752
173 3 5.65184 7.00235 10.4994
235 2 7.15103 9.79987 15.3433
250 2 7.14186 8.52079 13.8808
33 4 4.43568 6.77057 11.3695
16 4 9.3376 10.8618 9.4741
63 4 6.5531 11.1995 11.0849
89 1 9.61031 7.87364 12.3391
93 1 5.1331 10.1599 16.0345
94 1 6.79767 9.46994 11.8023
198 3 7.88094 11.4789 10.2314
199 3 5.13488 11.1834 10.1543
200 3 6.25934 12.034 12.429
271 2 8.53418 8.46768 12.1661
281 2 5.13411 8.98312 15.8058
284 2 5.65014 9.14453 11.938
74 1 5.82801 6.59832 16.7729
349 2 9.33226 11.307 16.8142
279 2 4.3817 8.84215 8.59877
330 2 10.9929 8.76713 15.9246
ITEM: TIMESTEP
100
ITEM: NUMBER OF ATOMS
366
ITEM: BOX BOUNDS xy xz yz pp pp pp
-8.3370488766021680e+00 1.6846316568857802e+01 -8.4375460746530955e+00
-3.4040069833810205e-01 1.3444835739784946e+01 8.2191376690888163e-01
-8.0556304019379965e-02 1.6989556304019288e+01 -3.1796495855315698e-01
ITEM: ATOMS id type x y z
254 2 -2.56175 5.59835 3.55011
244 2 2.72064 5.04474 7.71006
208 2 -2.4593 6.24192 7.23434
67 1 -2.19949 5.32402 6.57326
359 2 -1.25857 4.09232 0.37097
291 2 -0.0851713 4.76086 3.55259
317 1 -1.81834 5.002 0.837897
3 4 0.917328 2.91842 4.76352
8 4 -0.81778 4.26218 7.3455
64 1 0.647933 3.99494 3.2398
98 3 0.280878 3.68296 5.96157
114 3 2.49085 2.3942 4.65961
201 2 0.0262042 3.05145 2.69629
202 2 1.55067 4.49732 2.60511
203 2 1.49577 2.74567 1.8924
310 1 2.03282 0.795853 6.96478
338 1 2.07628 2.05195 1.10639
341 2 2.39264 2.69684 0.235467
344 2 3.36274 4.59606 1.12768
340 2 2.97891 1.64146 1.66227
78 1 2.05406 6.3513 5.60155
342 1 2.85904 5.55357 1.33139
239 2 2.25264 5.88054 4.43122
311 2 1.88035 0.327683 5.96678
358 2 1.43821 1.15131 0.819635
345 2 1.76286 5.36997 1.13278
312 2 2.52466 1.79865 7.00237
216 2 3.4164 0.35458 2.55576
204 2 0.484717 0.327319 5.2146
343 2 3.12591 5.9617 2.39052
210 2 2.89671 0.557013 -0.0601926
207 2 -1.83123 5.5663 5.5267
313 2 1.05037 0.826818 7.59179
241 2 1.43389 5.75058 6.31112
125 3 -0.00392678 5.40107 8.26993
65 1 -0.216451 1.22412 4.88827
318 2 -1.3298 5.49527 1.70209
29 4 5.60078 4.26112 7.6292
31 4 3.84893 6.29506 5.73446
70 1 4.44373 0.818645 2.9521
21 4 4.13983 2.27289 4.29191
219 2 3.64727 4.56454 3.39426
220 2 4.86858 3.42439 2.46259
126 3 4.6446 5.11236 6.498
71 1 4.57281 3.86553 3.47514
336 2 -0.792291 2.70399 0.605184
362 2 5.24616 0.992052 2.13578
115 3 6.59845 1.42257 1.04225
118 3 5.2914 1.91857 5.36589
119 3 7.57631 0.969539 6.88375
20 4 7.62116 0.0504096 1.65316
97 3 -1.50536 3.04589 8.03463
25 4 6.91636 2.06417 5.9354
218 2 5.39301 4.41969 4.09428
23 4 8.36719 -0.144948 7.86565
217 2 4.81586 0.168613 3.9229
128 3 3.17823 6.33844 15.7467
102 3 -2.15524 5.9279 10.388
121 3 5.82863 1.81501 10.6237
315 2 0.94684 1.17561 16.5613
296 4 4.75512 2.23303 15.0046
363 2 1.05268 3.05671 16.2839
6 4 1.46693 1.93471 10.7226
10 4 0.387664 3.97008 13.107
95 3 0.366489 1.96104 9.58456
96 3 1.49345 0.396059 11.4496
99 3 -0.417537 3.01943 14.2342
100 3 0.982721 3.05131 11.8528
103 3 -0.712803 4.95707 12.4632
117 3 2.98391 2.40921 10.1782
127 3 1.67106 4.77934 13.989
314 1 0.429011 2.14513 16.6319
7 4 -0.796097 6.11689 16.6978
300 2 2.37012 2.05857 13.2923
30 4 1.05196 6.24724 9.06765
297 1 2.35608 1.10811 13.9762
79 1 2.84425 5.50093 8.75814
32 4 1.72161 6.15383 14.7832
206 2 1.41047 0.996402 14.6327
230 2 2.68242 4.62345 9.54416
302 2 2.71373 3.00507 15.4832
12 4 -1.08146 6.28879 11.6107
120 3 5.88243 2.03379 16.0742
298 1 3.72762 3.56878 15.7331
242 2 1.25151 5.73192 11.4695
299 2 3.76655 0.825092 14.8562
304 2 3.67436 4.08143 16.7181
122 3 7.54436 0.4496 12.3455
129 3 0.537767 6.18934 15.8692
116 3 4.23224 0.668337 8.66515
243 2 3.80878 6.03517 8.90418
234 2 3.53854 5.54251 10.6394
101 3 -2.16084 6.22102 15.8243
303 2 3.99826 4.33585 14.8286
130 3 4.00679 4.13539 12.4593
301 2 5.41067 2.40677 13.3814
123 3 4.75319 3.28838 8.53333
24 4 4.43752 2.1124 9.52375
76 1 4.69427 5.13912 12.4028
4 4 2.09433 -0.14155 12.8286
9 4 -3.36053 6.39088 9.48545
27 4 7.24664 1.76978 11.4799
211 2 5.27295 -0.318843 16.136
290 2 -2.32009 7.34765 4.34323
36 4 0.506943 11.2912 -0.0541615
361 2 -5.27731 10.6207 2.14027
333 2 -3.41844 10.6739 1.93554
332 1 -4.43997 11.2521 1.79988
327 2 -6.12455 12.8702 3.00381
15 4 -2.71453 9.08785 7.32982
17 4 -4.23893 11.0495 5.66185
106 3 -5.70708 10.9605 4.86422
107 3 -3.95154 9.78284 6.62349
108 3 -4.37493 12.3693 6.5616
133 3 -2.89857 11.3192 4.74336
360 2 -4.35258 12.3126 2.27471
293 2 -4.55352 9.25683 1.76422
256 2 -2.5068 9.30158 2.93366
321 2 -2.80168 8.08507 1.1029
1 4 -5.1557 13.0899 7.84724
295 2 -4.36265 7.63497 0.752577
213 2 -2.26642 8.91521 5.09333
322 2 -1.39832 9.01143 0.0391008
324 1 -7.13259 12.4844 3.03316
289 1 -4.73265 8.10862 1.68533
292 2 -2.32325 7.23729 2.35638
38 4 1.07209 11.3403 5.59732
323 2 -0.853926 7.9645 1.59757
255 2 -1.72377 10.3308 1.59607
240 2 1.72027 7.64436 5.64049
215 2 -0.503353 8.81595 5.9552
69 1 -1.57721 8.38009 5.90313
132 3 -1.88685 12.566 2.44164
253 2 1.75166 7.35553 2.91603
214 2 -1.74448 7.23185 6.00961
83 1 -1.62269 9.89051 2.57797
34 4 2.11936 9.54648 1.86612
35 4 -1.62786 11.4112 3.75994
28 4 3.15757 7.02173 0.0246084
82 1 1.12854 8.30058 2.96546
84 1 1.41307 9.56539 5.92644
237 2 1.84642 7.70208 8.06559
134 3 0.980038 10.4547 1.24828
138 3 -0.235806 11.4571 4.60295
251 2 0.132345 7.97903 2.63968
252 2 -0.597688 9.33742 2.7534
257 2 1.2256 8.77441 4.07862
258 2 1.02805 9.29474 6.96243
354 3 -0.044742 12.729 0.472132
135 3 -1.65101 10.0944 8.00823
104 3 -2.94423 7.60684 8.33023
320 1 -1.64058 8.06614 0.730807
139 3 0.619462 12.19 7.04638
325 2 -7.71652 13.3572 3.70877
231 2 0.771292 9.72539 8.44118
326 2 -7.53065 12.414 1.94259
288 1 -2.70712 6.72433 3.45513
348 2 -7.70108 13.3492 0.470642
238 2 0.858241 8.76417 9.8927
144 3 -0.755711 12.0737 14.5043
68 1 -4.26125 12.8766 16.3998
212 2 -4.94036 12.5652 15.4783
147 3 1.4378 9.23546 11.8854
357 2 -5.52438 11.1394 14.0384
105 3 -6.06147 12.1452 8.7067
14 4 -3.90689 11.11 16.8596
18 4 -2.41896 8.70591 13.1467
19 4 -4.0152 10.6291 11.1712
109 3 -3.46528 7.98612 14.2121
112 3 -3.39573 9.56788 12.1091
113 3 -3.71907 12.5121 13.3354
137 3 -3.03051 11.0649 10.0767
145 3 -2.53359 10.7179 16.078
66 1 -4.1947 12.4159 12.198
111 3 -5.41586 10.2699 10.6193
356 2 -3.9501 12.9976 11.1799
146 3 -0.444828 10.7125 10.4057
26 4 0.0475565 12.9142 13.2809
232 2 -0.371367 8.38274 8.65254
328 1 -5.37005 9.83719 16.2845
75 1 0.657564 8.69302 8.81393
136 3 -1.22189 12.6634 8.84992
236 2 1.0182 7.67848 11.2647
330 2 -4.59756 9.02683 15.9983
110 3 -1.63894 7.54617 12.395
142 3 -1.38256 9.61592 13.9597
37 4 -1.63047 11.0745 9.35897
39 4 2.41034 8.63668 12.9547
40 4 -1.16452 10.6702 15.1468
41 4 0.941653 10.9005 11.1648
140 3 1.82564 7.42285 13.7657
143 3 0.10373 10.114 16.1461
331 2 -5.86495 10.418 15.2715
148 3 0.933344 11.9417 12.4229
77 1 0.678699 6.55404 10.9414
309 2 15.0774 0.710563 1.30764
42 4 9.02584 2.01753 3.55551
72 1 6.41966 4.17712 0.664559
86 1 8.47307 5.60304 5.04399
124 3 6.90481 3.45957 6.85797
149 3 8.6633 0.718151 2.64727
150 3 7.81046 2.17202 4.70437
164 3 8.94776 3.2902 2.59821
168 3 9.35662 4.95889 0.437422
50 4 10.0863 4.23262 1.72367
305 4 12.7874 0.196319 1.7741
266 2 8.91783 4.92666 6.91645
265 2 8.8322 4.59828 5.41428
87 1 9.11965 4.41836 8.03709
263 2 8.58993 5.67703 3.81841
221 2 6.9468 4.08051 1.69234
268 2 8.66522 3.35737 8.16356
264 2 7.45948 5.84983 5.37022
355 2 15.035 1.53102 5.75523
209 2 12.818 4.63386 6.49427
44 4 13.2039 -0.0184553 7.48736
155 3 10.3761 1.85124 4.48755
205 2 15.1191 1.15683 3.78472
308 2 14.0856 2.00228 2.56503
228 2 5.57983 6.04108 0.151246
261 2 13.9742 2.26787 4.53353
52 4 10.9307 3.90364 8.11756
262 2 12.9033 3.94944 4.69157
46 4 11.5272 2.22879 5.50148
85 1 12.939 2.814 4.35497
156 3 12.2757 1.08355 6.41201
165 3 11.2735 3.36991 1.17475
166 3 10.7496 5.4057 2.77628
170 3 11.1674 3.61211 6.5513
260 2 12.3407 2.57292 3.36862
307 3 11.8221 0.636277 0.638268
306 1 14.1938 0.99037 1.95676
270 2 11.2058 6.34523 6.79396
319 2 12.9877 4.81687 1.04781
222 2 5.37347 4.40964 0.748883
352 2 8.86897 6.24465 14.55
163 3 13.1315 0.826103 12.7791
267 2 8.83952 5.11641 8.96199
51 4 9.93214 6.02288 16.8087
172 3 6.23824 5.37898 8.54653
45 4 10.0388 1.60369 9.9537
48 4 9.89167 1.8623 14.9676
73 1 7.18138 3.0635 12.8688
154 3 8.69003 2.24444 10.6398
158 3 9.52949 0.560867 14.0903
160 3 8.61225 2.14133 15.9085
180 3 10.0937 4.99264 11.9141
224 2 6.24409 3.84138 12.6246
225 2 8.1867 3.56878 12.6848
226 2 7.12763 2.51084 13.8214
350 1 8.62546 5.68814 15.4755
351 2 8.66055 4.59652 15.3718
153 3 9.43418 0.665842 8.68746
175 3 10.1807 3.2422 14.0369
353 2 7.64436 6.08581 15.8845
176 3 12.0275 3.18462 12.287
233 2 5.66148 5.75009 13.0135
161 3 13.7469 2.16767 10.5381
177 3 11.9441 5.31503 13.9739
171 3 11.8498 5.18294 8.71933
169 3 10.8737 2.64712 9.07185
162 3 11.073 0.994173 10.9678
2 4 14.6217 1.90101 9.29633
5 4 14.9302 1.99397 15.3346
49 4 12.5508 1.8402 11.7039
55 4 11.1819 4.18997 13.1411
151 3 13.6084 2.39522 16.1779
157 3 15.0017 0.356175 14.69
159 3 11.2088 1.53346 15.8661
223 2 7.72137 4.52426 16.8913
179 3 8.27163 6.35308 10.1003
152 3 14.0949 0.43981 8.70372
56 4 9.92621 6.3334 11.1506
22 4 7.40595 2.12115 16.8997
43 4 12.3052 1.87568 16.9435
188 3 8.8637 9.8068 8.38948
58 4 3.68696 11.3552 3.82655
183 3 3.10083 10.267 2.8356
185 3 2.51542 11.7325 4.92419
269 2 10.7749 8.08687 7.48089
189 3 3.71206 12.4579 8.27843
280 2 3.84708 10.0586 7.35597
287 4 11.4082 6.86341 3.16236
184 3 4.10807 12.5703 2.86005
229 2 5.58185 8.01186 0.194197
88 1 10.4091 7.08008 7.15817
186 3 6.93743 7.92073 8.23055
346 1 7.62395 12.46 0.0901158
247 2 4.38957 8.51109 6.98387
245 2 4.42413 8.38022 4.9702
274 2 5.99299 8.21192 3.70194
246 2 5.85941 7.62222 6.03433
80 1 4.77473 7.87407 5.99804
13 4 8.78247 10.8889 4.01854
54 4 9.41295 7.31995 5.57228
57 4 7.5622 8.52924 2.04684
59 4 7.68026 9.16872 7.44359
61 4 6.10901 11.2567 5.82562
90 1 6.49241 7.34906 3.16691
181 3 8.22087 7.54784 0.993277
182 3 8.55264 9.6326 2.92859
187 3 8.35841 8.40888 5.9988
191 3 7.58658 11.3192 4.93383
192 3 4.95064 10.6922 4.7527
193 3 6.3708 10.1939 7.01895
194 3 5.62486 12.6665 6.42293
91 1 6.41809 9.65602 0.987762
365 2 6.42588 10.7898 1.1745
277 2 5.44235 9.11856 1.47869
316 2 6.93704 12.029 0.957645
174 3 10.6724 7.54379 4.423
294 2 10.0367 7.97099 1.68728
275 2 7.18174 6.71554 3.91383
282 2 3.85124 10.4919 0.0137945
276 2 5.81253 6.67981 2.61321
131 3 2.89212 8.51681 0.667621
259 2 2.54545 9.56364 5.80349
329 2 8.99007 9.80603 -0.031691
364 2 9.76361 6.62127 7.9876
286 2 7.21161 8.89094 10.8552
272 2 10.4785 8.41248 12.0757
167 3 11.1721 6.64882 16.0221
227 2 5.8506 6.62513 15.615
285 2 7.27705 9.22671 12.7936
60 4 3.59022 11.3721 9.45473
62 4 3.6228 10.9368 14.9872
279 2 4.62509 9.13335 8.84225
273 2 9.54992 7.37019 13.3109
190 3 2.26332 11.2062 10.2535
195 3 2.99179 9.76218 13.9732
197 3 2.56779 11.4733 16.1065
196 3 4.49969 11.9914 14.1681
53 4 6.8208 6.70941 9.32745
347 2 7.73671 12.4124 16.2042
283 2 6.02053 10.2814 15.7445
11 4 12.3452 6.52784 14.8859
366 2 7.42007 9.09549 16.8964
337 2 8.30325 12.3492 13.7978
339 2 9.53936 10.7909 12.4498
334 1 9.39049 11.0324 13.5098
47 4 5.55822 13.1402 13.5145
335 2 8.7564 10.2591 14.0308
141 3 3.70419 7.88246 12.054
178 3 11.2082 6.85387 10.2705
248 2 8.84807 9.02118 15.4799
249 2 7.18056 7.94802 15.5566
81 1 7.73001 8.71741 14.9391
173 3 5.73735 7.07983 10.4241
235 2 7.0809 9.66128 14.9458
250 2 7.85675 8.41041 13.8162
33 4 4.50994 6.76336 11.3404
16 4 9.35605 10.8248 9.42719
63 4 6.52118 11.2928 11.138
89 1 9.56268 7.77436 12.2783
93 1 4.91885 9.93601 16.0054
94 1 6.77389 9.47718 11.7095
198 3 7.85158 11.227 10.298
199 3 5.02271 11.2671 10.4091
200 3 6.5314 12.298 12.4413
271 2 8.51512 8.38112 12.0352
281 2 4.66606 8.87549 15.72
284 2 5.55892 9.23866 11.718
74 1 5.92326 6.68313 16.809
349 2 9.21589 11.2855 16.7837
92 1 3.73208 9.72489 8.51305
278 2 2.61253 9.25634 8.72449
ITEM: TIMESTEP
200
ITEM: NUMBER OF ATOMS
366
ITEM: BOX BOUNDS xy xz yz pp pp pp
1.0049719805092661e-01 2.4324141041798679e+01 7.4863595292448970e+00
-3.4040069833810205e-01 1.3444835739784946e+01 8.1337871060486222e-01
-8.0556304019379965e-02 1.6989556304019288e+01 -3.1796495855315698e-01
ITEM: ATOMS id type x y z
217 2 4.68871 0.0101174 3.95462
364 2 9.45952 6.52226 7.97757
218 2 5.6173 4.20429 3.96928
25 4 6.96591 2.0429 5.88204
20 4 7.66863 0.103869 1.78918
119 3 7.51633 0.846808 6.84237
118 3 5.31055 1.84592 5.43956
115 3 6.5847 1.35707 1.17859
362 2 5.21834 0.854158 2.3243
71 1 4.66718 3.78934 3.43132
126 3 4.63582 4.98922 6.42186
114 3 2.50293 2.54153 4.72432
220 2 4.97295 3.19596 2.47587
219 2 3.72608 4.45417 3.37292
21 4 4.18529 2.21221 4.33858
310 1 2.00034 0.815497 6.92593
338 1 2.07879 2.05171 1.35373
341 2 2.3818 2.68518 0.333149
344 2 3.24119 4.56803 1.22037
340 2 3.10262 1.73092 1.87901
70 1 4.36698 0.69843 3.05694
29 4 5.76115 4.23001 7.62384
325 2 0.866299 -0.0709083 3.5475
311 2 2.00314 0.42113 5.78783
358 2 1.45054 1.16658 1.05581
210 2 2.8749 0.562294 0.218409
312 2 2.57192 1.82535 7.06856
216 2 3.46037 0.33176 2.53067
42 4 9.06264 1.94062 3.66507
222 2 5.09445 4.33893 0.672694
72 1 6.19015 4.14233 0.556424
270 2 11.0233 6.39132 6.794
86 1 8.28317 5.61874 5.1376
124 3 6.92262 3.55758 6.79957
150 3 7.75816 2.20382 4.56214
164 3 9.13211 3.34047 2.75328
166 3 10.9819 5.44686 2.36742
168 3 9.29332 4.94267 0.453251
50 4 10.1553 4.19879 1.67526
266 2 8.79933 4.92087 6.98953
265 2 9.04142 4.8337 5.35554
87 1 9.06622 4.47571 8.02723
263 2 7.82795 5.42142 4.14446
221 2 6.78537 4.05322 1.57979
228 2 5.46198 6.04292 0.0693163
268 2 8.55486 3.48742 8.20246
264 2 7.49745 5.70268 5.95505
23 4 8.34295 -0.163018 7.79989
123 3 4.85432 3.11999 8.40808
31 4 3.97929 6.27465 5.80235
348 2 0.737656 -0.0422935 0.349607
204 2 0.627542 0.382329 5.17371
353 2 7.53585 6.06869 15.9085
27 4 7.26776 1.77233 11.5224
121 3 5.76917 1.98165 10.4985
4 4 2.14966 -0.142157 12.8186
296 4 4.78038 2.23483 15.0018
76 1 4.72382 5.21807 12.4818
24 4 4.37196 2.11057 9.54711
233 2 5.42417 5.84303 13.3929
301 2 5.46655 2.61643 13.4614
96 3 1.60151 0.649721 11.5489
130 3 4.08464 4.1782 12.3412
303 2 3.81286 4.20546 14.7275
116 3 4.06928 0.624328 8.85742
117 3 2.97314 2.44166 10.272
122 3 7.25636 0.418869 12.3123
304 2 3.59025 4.17001 16.7018
299 2 3.88373 0.75035 14.67
300 2 2.30523 1.95932 13.6656
298 1 3.66942 3.51174 15.7438
297 1 2.47546 0.947908 14.1644
120 3 5.96065 1.97279 16.0137
55 4 11.0154 4.16036 13.0481
352 2 8.71247 6.00077 14.3902
267 2 8.81836 5.18083 8.89497
22 4 7.29994 2.06863 16.9892
56 4 9.74023 6.47281 11.0903
51 4 9.88858 5.99065 16.7604
179 3 8.49832 6.40206 10.1268
223 2 7.47165 4.60951 16.8518
172 3 6.38232 5.41625 8.5176
48 4 9.94546 1.92875 14.8956
73 1 7.21994 3.19158 12.7952
154 3 8.62073 1.98947 10.6088
160 3 8.59502 2.10739 16.0078
180 3 9.99398 5.0193 12.1815
224 2 6.32282 3.88715 12.6742
225 2 8.228 3.68912 12.462
226 2 7.26917 2.6313 13.8077
350 1 8.53805 5.64302 15.4776
351 2 8.69147 4.47771 15.521
175 3 10.151 3.25312 14.0473
206 2 1.60027 0.541118 14.8962
302 2 2.70812 2.88959 15.6356
211 2 5.16974 -0.249314 16.1247
177 3 11.8219 5.37118 13.9741
275 2 7.1702 6.72709 3.95348
326 2 8.44335 12.496 1.80488
361 2 10.6538 10.945 2.1419
333 2 12.6321 10.6091 2.0519
332 1 11.6778 11.2689 1.72589
327 2 9.9987 12.7588 2.76199
15 4 13.2276 9.06601 7.40252
17 4 11.6646 11.0487 5.69969
106 3 10.395 11.0249 4.65625
107 3 11.8712 9.69424 6.62858
108 3 11.6075 12.3904 6.64521
133 3 12.9594 11.3183 4.71237
360 2 11.8154 12.3708 2.0977
293 2 11.4727 9.24412 1.67253
54 4 9.29461 7.24389 5.57388
13 4 8.76647 11.1047 3.94869
1 4 10.677 13.1951 7.95303
295 2 11.784 7.69403 0.604422
35 4 14.3113 11.4169 3.8228
132 3 14.2268 12.6276 2.82452
324 1 8.87057 12.5748 2.87286
289 1 11.2243 8.11218 1.54701
188 3 8.92602 9.67493 8.33646
246 2 5.90677 7.60882 6.16151
329 2 9.0296 9.87298 -0.00843262
269 2 10.647 8.01254 7.67453
287 4 11.4109 6.93796 3.00034
57 4 7.62717 8.52683 2.04188
229 2 5.49913 8.05303 0.162079
316 2 6.98331 12.1068 0.664567
294 2 10.0538 7.98151 1.32138
174 3 10.2944 7.36285 4.35024
274 2 5.87779 8.22228 3.58852
277 2 5.53255 9.22996 1.45706
365 2 6.58952 10.8424 1.0954
91 1 6.45362 9.64175 0.952796
88 1 10.2082 7.07758 7.2069
193 3 6.49017 10.1908 7.00152
186 3 7.01585 7.87123 8.33443
191 3 7.56896 11.5123 4.86183
187 3 8.20358 8.30371 5.92905
182 3 8.26521 9.66245 2.91729
181 3 8.39285 7.58982 0.999831
90 1 6.50261 7.37214 3.14888
276 2 5.88076 6.64729 2.49299
59 4 7.63771 9.11592 7.46869
331 2 10.1384 10.2788 15.1734
144 3 15.2219 12.3047 14.5712
68 1 11.6638 12.8584 16.5766
212 2 10.9412 12.5667 15.6692
346 1 8.53512 12.2647 16.9478
357 2 10.341 11.1235 13.9436
105 3 9.7763 12.1022 8.64805
14 4 12.1676 11.1099 16.8519
18 4 13.4385 8.73462 13.1792
19 4 11.7305 10.728 11.0355
109 3 12.5084 7.97153 14.2562
112 3 12.4834 9.7124 12.1184
113 3 12.22 12.5461 13.2582
137 3 12.7986 11.1243 9.96913
145 3 13.5328 10.8052 16.1156
66 1 11.6414 12.4402 12.1605
111 3 10.2866 10.3714 10.5732
356 2 11.8579 13.041 11.0681
37 4 14.3298 11.1994 9.44534
26 4 16.0532 13.0999 13.3868
330 2 11.269 9.02351 15.9606
328 1 10.6074 9.85157 16.2907
136 3 14.7435 12.6322 8.81709
286 2 7.00449 8.99683 11.3019
272 2 10.2199 8.61472 12.0648
167 3 11.045 6.73334 16.0265
349 2 9.35674 11.4293 16.6068
74 1 5.81152 6.72388 16.7536
227 2 5.73761 6.76496 15.5478
285 2 7.16227 9.27167 13.1458
271 2 8.29935 8.45608 12.2638
273 2 9.46051 7.35973 13.2545
53 4 6.82069 6.74283 9.35071
198 3 7.74361 11.1734 10.3384
94 1 6.58726 9.54587 12.2315
11 4 12.278 6.55985 14.9474
89 1 9.3278 7.90566 12.2783
366 2 7.44313 9.01563 16.9773
16 4 9.03118 10.8564 9.39566
337 2 8.30712 12.3477 13.9291
250 2 8.1896 8.21364 14.068
235 2 7.20597 9.60032 14.8463
173 3 5.80341 7.18623 10.514
81 1 7.84114 8.65395 15.0456
249 2 7.17682 7.87755 15.7111
248 2 8.82474 9.04523 15.6553
178 3 11.213 6.96611 10.5245
339 2 9.33559 10.7874 12.4254
335 2 8.70639 10.1764 14.0677
334 1 9.29991 11.0695 13.5016
33 4 4.64946 6.91126 11.5232
309 2 15.2628 0.203224 1.71598
319 2 12.9728 4.66999 0.63858
306 1 14.3553 0.849713 2.04596
307 3 12.0807 0.753597 0.704251
260 2 12.422 2.35361 3.3581
149 3 8.96047 0.667866 2.61626
170 3 11.3893 3.60194 6.57561
165 3 11.054 3.11826 0.989481
156 3 12.3119 1.02315 6.62012
85 1 13.0349 2.60504 4.32396
305 4 12.9469 0.097737 1.79739
46 4 11.6996 2.06361 5.57688
262 2 13.0403 3.72995 4.60452
52 4 10.9283 3.9928 8.07382
261 2 14.0388 2.05609 4.45266
308 2 14.2878 2.04469 2.23676
205 2 15.3615 1.02297 3.86824
155 3 10.4416 1.76519 4.71144
355 2 15.1007 1.37837 5.64263
209 2 12.8343 4.63038 6.42619
44 4 13.1604 -0.0478713 7.49287
254 2 13.0719 5.50966 3.35852
244 2 18.3511 4.65278 7.95062
208 2 13.4834 6.12064 7.2002
67 1 13.7706 5.29015 6.49755
359 2 14.7225 4.00077 0.216124
97 3 14.4626 3.21924 8.09124
291 2 15.6505 4.71758 3.7473
317 1 14.1212 4.93097 0.562573
3 4 16.8284 2.9617 4.78382
8 4 15.2023 4.30059 7.29031
64 1 16.4019 4.00349 3.29369
336 2 15.1075 2.41986 0.57115
98 3 16.0892 3.6821 6.0714
201 2 15.9162 3.06374 2.72167
202 2 17.2307 4.53419 2.59789
203 2 17.4178 2.74884 2.00953
78 1 18.1155 6.40647 5.53221
342 1 18.5127 5.52901 1.3116
343 2 18.6563 6.05762 2.29975
239 2 18.1997 5.97038 4.35017
318 2 14.549 5.36686 1.55555
65 1 15.8746 1.18002 4.87242
125 3 16.0102 5.28028 8.20358
241 2 17.5305 5.61949 6.16056
345 2 17.4303 5.33478 1.21276
207 2 14.1498 5.5789 5.47043