ITEM: TIMESTEP
0
ITEM: NUMBER OF ATOMS
366
ITEM: BOX BOUNDS xy xz yz pp pp pp
-8.3370488766021680e+00 1.6854851625161821e+01 -8.4375460746530955e+00
-3.4040069833810205e-01 1.3444835739784946e+01 8.3044882321290159e-01
-8.0556304019379965e-02 1.6989556304019288e+01 -3.1796495855315698e-01
ITEM: ATOMS id type x y z
254 2 -2.56236 5.4805 3.43736
244 2 2.83607 4.85923 7.72941
208 2 -2.44701 6.14784 7.28921
67 1 -2.21327 5.29506 6.54154
359 2 -1.12348 4.08183 0.258105
291 2 0.210483 4.96041 3.87688
317 1 -1.67289 5.09537 0.777689
3 4 0.87752 2.8786 4.7544
8 4 -0.746197 4.17888 7.20874
64 1 0.673542 4.11836 3.31088
98 3 0.229419 3.57311 6.0281
114 3 2.43236 2.46255 4.5931
201 2 -0.148263 3.44329 2.79378
202 2 1.48892 4.55555 2.55084
203 2 1.37676 2.79289 1.83715
310 1 1.88871 0.768503 7.12152
338 1 1.91316 2.04222 1.13207
341 2 2.28983 2.71132 0.179946
344 2 3.6832 4.85635 1.26544
340 2 2.80078 1.56283 1.76869
78 1 2.19311 6.43658 5.68401
342 1 2.72089 5.55653 1.30869
239 2 2.23278 5.98585 4.34481
311 2 1.93996 0.67232 6.04587
358 2 1.13385 1.2317 0.846456
345 2 1.75594 5.1973 0.804811
312 2 1.98616 1.82702 7.44692
216 2 3.34054 0.289547 2.44622
325 2 0.873903 -0.0333151 3.6683
343 2 2.53355 6.03934 2.2772
210 2 2.63483 0.437858 0.124135
207 2 -1.67599 5.65997 5.59738
313 2 0.997618 0.171912 7.56909
241 2 1.74154 5.59944 6.39284
125 3 0.0761049 5.26806 8.17498
65 1 -0.316012 1.20319 4.78037
318 2 -0.960983 5.58288 1.57577
29 4 5.57782 4.27452 7.67715
31 4 3.97273 6.25672 5.65985
70 1 4.25528 0.733148 2.89321
21 4 4.11096 2.21694 4.29393
219 2 3.86548 4.54854 3.60027
220 2 4.93442 3.30266 2.51327
126 3 4.66034 5.07237 6.55233
71 1 4.71143 3.7952 3.56773
336 2 -0.936041 2.60257 0.390364
362 2 4.98118 1.00819 2.042
115 3 6.46788 1.38896 0.976696
118 3 5.18268 1.74154 5.45172
119 3 7.51795 0.9712 6.93997
20 4 7.59604 0.173768 1.68153
97 3 -1.47166 3.20586 8.22464
25 4 6.76985 2.10654 5.99127
222 2 5.32967 4.33349 0.789823
319 2 -2.75235 4.92215 0.996779
217 2 4.778 0.0832145 3.68922
23 4 8.34348 -0.0859496 7.92378
288 1 -2.70774 6.60671 3.37823
218 2 5.67168 4.01407 4.14442
128 3 3.10222 6.32508 15.6552
102 3 -2.11993 5.94102 10.2135
121 3 5.71419 1.93059 10.6178
315 2 0.905362 1.14183 16.3574
296 4 4.90665 2.27644 14.8701
363 2 1.13785 2.9535 16.1867
6 4 1.43419 2.01404 10.6926
10 4 0.229456 4.03089 13.1602
95 3 0.400231 1.7938 9.50574
96 3 1.54816 0.551789 11.5479
99 3 -0.475773 3.0341 14.1426
100 3 0.984383 3.10176 11.8164
103 3 -0.840041 5.06493 12.6198
117 3 2.96678 2.07212 10.1701
127 3 1.61559 4.86053 13.9132
314 1 0.41114 2.16454 16.4552
7 4 -0.804112 6.20719 16.6661
300 2 2.404 2.11285 13.3406
30 4 1.10499 6.1993 9.05723
297 1 2.41461 1.10666 13.9285
79 1 2.75732 5.28646 8.76038
32 4 1.7862 6.18818 14.6903
206 2 1.44695 0.894271 14.5713
230 2 2.53956 4.51801 9.64069
302 2 2.76367 2.78124 15.5172
12 4 -1.17957 6.2229 11.5136
120 3 5.96203 2.1347 15.9713
298 1 3.73977 3.50741 15.6379
242 2 1.29092 5.89399 11.5261
299 2 3.91399 0.784162 14.6337
304 2 3.68723 4.06827 16.6313
122 3 7.56893 0.385818 12.2461
129 3 0.582022 6.23449 15.8926
116 3 4.46304 0.705012 8.55998
243 2 3.6209 6.00545 9.00106
234 2 3.17796 5.77616 10.6807
101 3 -2.23078 6.2438 15.8488
303 2 3.93191 4.29027 14.6983
130 3 4.08208 4.27949 12.3946
301 2 5.59645 2.46345 13.2842
123 3 4.69645 3.37726 8.65573
24 4 4.51974 2.05632 9.61962
76 1 4.79826 5.25447 12.5483
4 4 2.23893 -0.170821 12.7426
9 4 -3.41614 6.39728 9.45325
22 4 7.32301 2.13051 16.8456
27 4 7.35007 1.73559 11.4242
290 2 -2.43975 7.19242 4.32742
36 4 0.448374 11.3748 -0.0192151
361 2 -5.36339 10.6413 2.01085
333 2 -3.47759 10.6683 2.03436
332 1 -4.42305 11.2286 1.69912
327 2 -5.87377 12.6724 3.18231
15 4 -2.59618 9.06435 7.28271
17 4 -4.22409 11.0607 5.69992
106 3 -5.76444 10.7685 4.82985
107 3 -3.78906 9.84553 6.7028
108 3 -4.41798 12.3746 6.52683
133 3 -3.14799 11.2355 4.59225
360 2 -4.38028 12.3388 2.06839
293 2 -4.55465 9.17532 1.77361
256 2 -2.60149 9.38117 3.07493
321 2 -2.76585 8.23502 1.19815
231 2 0.550426 9.68755 8.38648
295 2 -4.00505 7.51589 0.823282
213 2 -2.22142 8.66752 4.85155
322 2 -1.32339 8.98564 0.135608
324 1 -7.01677 12.5842 3.1434
289 1 -4.64659 7.98187 1.68985
292 2 -2.30413 7.13673 2.39306
348 2 -7.68798 13.3846 0.603922
323 2 -0.907415 7.7917 1.61314
255 2 -1.76333 10.4536 1.67006
240 2 1.82016 7.60039 5.86701
215 2 -0.527981 8.78537 5.83412
69 1 -1.70837 8.3601 5.79435
132 3 -1.80784 12.756 2.58409
253 2 1.8066 7.2939 2.93647
214 2 -1.8639 7.17819 6.03338
83 1 -1.59724 9.92576 2.70441
34 4 1.97992 9.37676 1.85209
35 4 -1.68402 11.4979 3.76861
28 4 3.04467 6.96344 -0.0333917
82 1 1.09739 8.18804 2.99892
84 1 1.31097 9.58394 5.90868
131 3 2.70789 8.34858 0.77732
134 3 0.909737 10.4253 1.23681
138 3 -0.348325 11.3225 4.56653
251 2 0.0447329 7.85358 2.76418
252 2 -0.584302 9.26526 2.75512
257 2 1.1966 8.7007 4.11378
258 2 0.995973 9.2278 6.92842
354 3 -0.280284 12.7974 0.429453
135 3 -1.51916 10.0681 8.06099
104 3 -2.92965 7.49441 8.30037
320 1 -1.65796 8.08848 0.782947
326 2 -7.45251 12.4516 2.08656
38 4 1.07752 11.3847 5.5816
237 2 1.69096 7.7009 7.96406
1 4 -5.04178 13.1801 7.78409
238 2 0.707381 8.64119 9.95599
144 3 -0.66713 12.0442 14.5466
68 1 -4.55233 12.7118 16.4572
212 2 -5.34619 12.2817 15.689
147 3 1.44782 9.34385 11.8848
357 2 -5.81621 11.0379 14.0502
105 3 -5.7827 12.1491 8.76338
14 4 -3.85607 11.0294 16.8377
18 4 -2.40079 8.56962 13.2306
19 4 -4.01082 10.6528 11.0439
109 3 -3.46913 7.7418 13.9633
112 3 -3.39342 9.68207 12.1327
113 3 -3.7616 12.3557 13.5313
137 3 -2.87629 11.0607 10.0561
145 3 -2.47492 10.7317 16.1779
66 1 -4.21842 12.2377 12.3894
111 3 -5.5893 10.2847 10.6184
356 2 -3.65348 12.8782 11.3193
146 3 -0.184512 10.8076 10.458
26 4 0.03568 12.9499 13.3888
232 2 -0.509481 8.17822 8.58206
328 1 -5.3785 9.78932 16.1681
75 1 0.504989 8.65037 8.81189
136 3 -1.26244 12.671 8.80337
236 2 0.78149 7.6279 11.0718
278 2 2.37901 9.24049 8.5833
110 3 -1.57735 7.59225 12.2313
142 3 -1.42871 9.4253 14.1357
37 4 -1.41055 11.1168 9.38516
39 4 2.52472 8.64508 12.9664
40 4 -1.04466 10.6408 15.1098
41 4 1.11793 10.8123 11.3245
140 3 1.69876 7.5017 13.7542
143 3 0.0740625 10.1984 16.1821
77 1 0.616793 6.53715 10.8542
148 3 0.941856 11.8402 12.5926
211 2 -3.51248 13.0521 15.8931
309 2 15.0892 0.32665 1.8241
42 4 8.95064 2.13916 3.59055
72 1 6.41918 4.17297 0.651831
86 1 8.72901 5.62946 5.07792
124 3 6.72179 3.50526 6.78574
149 3 8.60315 0.790085 2.73579
150 3 7.62535 2.40918 4.7703
164 3 9.02109 3.43805 2.61666
168 3 9.3536 5.04008 0.525349
50 4 10.0788 4.19547 1.67455
305 4 12.7545 0.345062 2.00557
266 2 8.91563 4.8013 6.8784
265 2 9.5046 4.80932 5.29751
87 1 9.06965 4.36642 8.02167
263 2 8.42214 5.49584 4.09628
221 2 6.97366 4.33636 1.6412
268 2 8.47516 3.48431 8.30862
264 2 7.83919 5.4273 5.8411
355 2 14.8631 1.4707 5.58985
209 2 12.783 4.61464 6.35798
44 4 13.2295 -0.0410516 7.31284
155 3 10.3559 1.9645 4.37644
205 2 15.0607 1.22837 3.66463
308 2 14.2759 2.19679 2.15003
228 2 5.53334 5.88726 0.0415491
261 2 13.9911 2.42544 4.4664
52 4 10.9234 3.94182 8.08918
262 2 13.1019 4.1669 4.64818
46 4 11.6307 2.36194 5.45977
85 1 12.9971 3.0887 4.36316
156 3 12.4303 1.00613 6.48346
165 3 11.3117 3.21071 1.13962
166 3 10.8871 5.4028 2.67739
170 3 11.2149 3.58686 6.33063
260 2 12.3767 3.00524 3.3848
307 3 11.7953 0.628172 0.776499
306 1 14.1847 1.05806 1.85733
152 3 14.1733 0.611107 8.38346
204 2 16.0666 0.198229 4.98895
11 4 12.3627 6.38749 14.9389
163 3 13.0632 0.711081 12.7826
267 2 8.87662 5.29085 8.84806
51 4 9.93212 6.03065 16.7894
172 3 6.43446 5.36911 8.5083
45 4 10.0684 1.55645 9.93999
48 4 9.81751 1.94912 14.9622
73 1 7.3375 3.20411 12.6259
154 3 8.68136 2.21639 10.665
158 3 9.56754 0.609719 14.0873
160 3 8.51915 2.24362 15.8922
180 3 10.1465 5.14932 12.0752
224 2 6.37524 3.964 12.588
225 2 8.29377 3.78241 12.4656
226 2 7.36245 2.52497 13.5787
350 1 8.60383 5.78865 15.4583
351 2 8.72641 4.70308 15.2739
153 3 9.38843 0.450823 8.9382
175 3 10.0676 3.18298 13.9588
353 2 7.56732 6.12951 15.7966
176 3 12.1243 3.16388 12.4015
233 2 5.35461 5.94726 13.3358
161 3 13.9186 1.98324 10.5437
177 3 11.9432 5.10659 14.066
171 3 11.809 5.18929 8.60401
169 3 10.8062 2.73739 9.06234
162 3 11.2262 1.1424 10.9474
2 4 14.7084 1.93245 9.22498
5 4 14.8888 1.97638 15.1057
49 4 12.5554 1.79204 11.6738
55 4 11.1347 4.12974 13.1568
151 3 13.552 2.26208 16.003
157 3 14.9856 0.508592 14.5256
159 3 11.0089 1.82269 16.1266
223 2 7.6677 4.62745 16.7896
179 3 8.49333 6.44209 10.1006
43 4 12.3083 1.8627 16.9436
56 4 9.94038 6.49665 11.1147
188 3 8.78873 9.85058 8.37
58 4 3.67315 11.322 3.95112
183 3 3.02074 10.0278 2.94229
185 3 2.43574 11.9322 4.75307
269 2 10.5074 8.40156 7.46674
189 3 3.78671 12.308 8.09816
280 2 3.61191 10.088 7.32401
287 4 11.3995 6.78057 3.22791
184 3 4.32787 12.5491 2.97481
229 2 5.51361 7.89158 0.224162
88 1 10.4079 7.26058 7.26622
270 2 11.3864 6.85078 6.90969
346 1 7.68935 12.4267 0.146767
247 2 4.4488 8.56593 6.86669
245 2 4.55806 8.3799 4.91949
274 2 6.14331 8.28266 3.96499
246 2 5.92383 7.5515 5.95173
80 1 4.80838 7.84694 5.95158
13 4 8.77758 10.8976 4.06961
54 4 9.52914 7.44261 5.63546
57 4 7.57448 8.57978 2.08989
59 4 7.60012 9.08245 7.5773
61 4 6.11089 11.1749 5.82088
90 1 6.70678 7.48099 3.35094
181 3 8.43354 7.72447 1.05828
182 3 8.44854 9.82854 2.93546
187 3 8.28399 8.32383 6.03518
191 3 7.51763 11.1471 5.0125
192 3 4.81214 10.7415 4.90272
193 3 6.40155 10.0539 7.16795
194 3 5.86931 12.65 6.31612
91 1 6.24076 9.59175 1.04979
365 2 6.32743 10.7071 1.25454
277 2 5.35525 9.04239 1.61003
316 2 6.97281 11.9204 0.868859
174 3 10.7064 7.4297 4.5254
294 2 10.1834 7.81615 1.44045
275 2 7.50287 6.79055 3.99322
282 2 4.01007 10.7333 0.0466277
276 2 5.93307 6.89818 2.76311
92 1 3.60487 9.66212 8.3911
259 2 2.43486 9.43567 5.669
139 3 0.716472 12.2454 6.88144
364 2 9.88025 6.73776 8.082
186 3 7.05326 7.93288 8.41747
329 2 8.9646 10.0438 -0.0151001
286 2 7.29329 8.86107 10.9894
272 2 10.4913 8.54211 12.1576
167 3 11.1993 6.67129 16.2043
227 2 5.70667 6.52488 15.6342
285 2 7.26991 9.44792 12.8042
60 4 3.78251 11.3227 9.31208
62 4 3.75567 10.915 14.9647
366 2 7.11164 9.10671 16.9436
273 2 9.73542 7.36878 13.3766
190 3 2.38108 11.3054 10.3455
195 3 3.25616 9.77473 13.9052
197 3 2.47831 11.2244 16.0063
196 3 4.49475 12.1605 14.4078
53 4 6.80806 6.64919 9.37377
347 2 7.95957 12.4449 16.4067
283 2 6.11478 10.6383 15.6999
331 2 10.0669 10.2959 15.2118
352 2 8.93303 6.44779 14.6204
337 2 8.44145 12.185 13.5
339 2 9.18739 10.6489 12.4236
334 1 9.0633 10.9843 13.5154
47 4 5.46389 13.0835 13.5027
335 2 8.42859 10.1789 14.0408
141 3 3.7509 7.95969 12.0398
178 3 11.3128 6.88229 10.4248
248 2 8.54925 8.5998 15.2154
249 2 6.85338 7.99004 15.6812
81 1 7.40151 8.72773 14.9752
173 3 5.65184 7.00235 10.4994
235 2 7.15103 9.79987 15.3433
250 2 7.14186 8.52079 13.8808
33 4 4.43568 6.77057 11.3695
16 4 9.3376 10.8618 9.4741
63 4 6.5531 11.1995 11.0849
89 1 9.61031 7.87364 12.3391
93 1 5.1331 10.1599 16.0345
94 1 6.79767 9.46994 11.8023
198 3 7.88094 11.4789 10.2314
199 3 5.13488 11.1834 10.1543
200 3 6.25934 12.034 12.429
271 2 8.53418 8.46768 12.1661
281 2 5.13411 8.98312 15.8058
284 2 5.65014 9.14453 11.938
74 1 5.82801 6.59832 16.7729
349 2 9.33226 11.307 16.8142
279 2 4.3817 8.84215 8.59877
330 2 10.9929 8.76713 15.9246
ITEM: TIMESTEP
100
ITEM: NUMBER OF ATOMS
366
ITEM: BOX BOUNDS xy xz yz pp pp pp
-8.3370488766021680e+00 1.6863386681465840e+01 -8.4375460746530955e+00
-3.4040069833810205e-01 1.3444835739784946e+01 8.3898387951692044e-01
-8.0556304019379965e-02 1.6989556304019288e+01 -3.1796495855315698e-01
ITEM: ATOMS id type x y z
254 2 -2.55812 5.59835 3.55011
244 2 2.72843 5.04474 7.71006
208 2 -2.45198 6.24192 7.23434
67 1 -2.19283 5.32402 6.57326
359 2 -1.25812 4.09232 0.37097
291 2 -0.0815382 4.76086 3.55259
317 1 -1.81742 5.002 0.837897
3 4 0.922172 2.91842 4.76352
8 4 -0.810354 4.26218 7.3455
64 1 0.651253 3.99494 3.2398
98 3 0.28692 3.68296 5.96157
114 3 2.49559 2.3942 4.65961
201 2 0.028981 3.05145 2.69629
202 2 1.55336 4.49732 2.60511
203 2 1.49774 2.74567 1.8924
310 1 2.03987 0.795853 6.96478
338 1 2.07746 2.05195 1.10639
341 2 2.39295 2.69684 0.235467
344 2 3.36395 4.59606 1.12768
340 2 2.98066 1.64146 1.66227
78 1 2.05974 6.3513 5.60155
342 1 2.86045 5.55357 1.33139
239 2 2.25715 5.88054 4.43122
311 2 1.8864 0.327683 5.96678
358 2 1.43911 1.15131 0.819635
345 2 1.76407 5.36997 1.13278
312 2 2.53175 1.79865 7.00237
216 2 3.41903 0.35458 2.55576
204 2 0.490013 0.327319 5.2146
343 2 3.12838 5.9617 2.39052
210 2 2.89673 0.557013 -0.0601926
207 2 -1.82562 5.5663 5.5267
313 2 1.05805 0.826818 7.59179
241 2 1.44028 5.75058 6.31112
125 3 0.0044237 5.40107 8.26993
65 1 -0.211482 1.22412 4.88827
318 2 -1.32802 5.49527 1.70209
29 4 5.60849 4.26112 7.6292
31 4 3.85474 6.29506 5.73446
70 1 4.44676 0.818645 2.9521
21 4 4.1442 2.27289 4.29191
219 2 3.65074 4.56454 3.39426
220 2 4.87112 3.42439 2.46259
126 3 4.65117 5.11236 6.498
71 1 4.57637 3.86553 3.47514
336 2 -0.791605 2.70399 0.605184
362 2 5.24838 0.992052 2.13578
115 3 6.59958 1.42257 1.04225
118 3 5.29684 1.91857 5.36589
119 3 7.58327 0.969539 6.88375
20 4 7.62289 0.0504096 1.65316
97 3 -1.49724 3.04589 8.03463
25 4 6.92237 2.06417 5.9354
218 2 5.39718 4.41969 4.09428
23 4 8.37513 -0.144948 7.86565
217 2 4.81986 0.168613 3.9229
128 3 3.19406 6.33844 15.7467
102 3 -2.14477 5.9279 10.388
121 3 5.83933 1.81501 10.6237
315 2 0.963482 1.17561 16.5613
296 4 4.77021 2.23303 15.0046
363 2 1.06904 3.05671 16.2839
6 4 1.47773 1.93471 10.7226
10 4 0.400852 3.97008 13.107
95 3 0.376155 1.96104 9.58456
96 3 1.50498 0.396059 11.4496
99 3 -0.403222 3.01943 14.2342
100 3 0.994654 3.05131 11.8528
103 3 -0.700259 4.95707 12.4632
117 3 2.99416 2.40921 10.1782
127 3 1.68513 4.77934 13.989
314 1 0.445723 2.14513 16.6319
7 4 -0.779318 6.11689 16.6978
300 2 2.38349 2.05857 13.2923
30 4 1.06111 6.24724 9.06765
297 1 2.37014 1.10811 13.9762
79 1 2.85309 5.50093 8.75814
32 4 1.73647 6.15383 14.7832
206 2 1.42518 0.996402 14.6327
230 2 2.69205 4.62345 9.54416
302 2 2.72929 3.00507 15.4832
12 4 -1.06977 6.28879 11.6107
120 3 5.89858 2.03379 16.0742
298 1 3.74344 3.56878 15.7331
242 2 1.26306 5.73192 11.4695
299 2 3.78148 0.825092 14.8562
304 2 3.69115 4.08143 16.7181
122 3 7.55679 0.4496 12.3455
129 3 0.553717 6.18934 15.8692
116 3 4.24099 0.668337 8.66515
243 2 3.81777 6.03517 8.90418
234 2 3.54926 5.54251 10.6394
101 3 -2.14494 6.22102 15.8243
303 2 4.01317 4.33585 14.8286
130 3 4.01933 4.13539 12.4593
301 2 5.42413 2.40677 13.3814
123 3 4.7618 3.28838 8.53333
24 4 4.44713 2.1124 9.52375
76 1 4.70675 5.13912 12.4028
4 4 2.10724 -0.14155 12.8286
9 4 -3.35096 6.39088 9.48545
27 4 7.2582 1.76978 11.4799
211 2 5.28917 -0.318843 16.136
290 2 -2.31566 7.34765 4.34323
36 4 0.506969 11.2912 -0.0541615
361 2 -5.27509 10.6207 2.14027
333 2 -3.41643 10.6739 1.93554
332 1 -4.43809 11.2521 1.79988
327 2 -6.12147 12.8702 3.00381
15 4 -2.70712 9.08785 7.32982
17 4 -4.23318 11.0495 5.66185
106 3 -5.70213 10.9605 4.86422
107 3 -3.94484 9.78284 6.62349
108 3 -4.36828 12.3693 6.5616
133 3 -2.89374 11.3192 4.74336
360 2 -4.35022 12.3126 2.27471
293 2 -4.55168 9.25683 1.76422
256 2 -2.50378 9.30158 2.93366
321 2 -2.80049 8.08507 1.1029
1 4 -5.14777 13.0899 7.84724
295 2 -4.36182 7.63497 0.752577
213 2 -2.26125 8.91521 5.09333
322 2 -1.3982 9.01143 0.0391008
324 1 -7.12948 12.4844 3.03316
289 1 -4.73088 8.10862 1.68533
292 2 -2.32081 7.23729 2.35638
38 4 1.07777 11.3403 5.59732
323 2 -0.852248 7.9645 1.59757
255 2 -1.72209 10.3308 1.59607
240 2 1.72599 7.64436 5.64049
215 2 -0.497317 8.81595 5.9552
69 1 -1.57122 8.38009 5.90313
132 3 -1.88433 12.566 2.44164
253 2 1.75465 7.35553 2.91603
214 2 -1.73839 7.23185 6.00961
83 1 -1.62003 9.89051 2.57797
34 4 2.12131 9.54648 1.86612
35 4 -1.62402 11.4112 3.75994
28 4 3.15767 7.02173 0.0246084
82 1 1.13159 8.30058 2.96546
84 1 1.41908 9.56539 5.92644
237 2 1.85457 7.70208 8.06559
134 3 0.981367 10.4547 1.24828
138 3 -0.231123 11.4571 4.60295
251 2 0.135066 7.97903 2.63968
252 2 -0.594855 9.33742 2.7534
257 2 1.22976 8.77441 4.07862
258 2 1.03509 9.29474 6.96243
354 3 -0.0441893 12.729 0.472132
135 3 -1.64292 10.0944 8.00823
104 3 -2.93582 7.60684 8.33023
320 1 -1.63977 8.06614 0.730807
139 3 0.626589 12.19 7.04638
325 2 -7.71273 13.3572 3.70877
231 2 0.779813 9.72539 8.44118
326 2 -7.52862 12.414 1.94259
288 1 -2.70358 6.72433 3.45513
348 2 -7.70053 13.3492 0.470642
238 2 0.868214 8.76417 9.8927
144 3 -0.741126 12.0737 14.5043
68 1 -4.24477 12.8766 16.3998
212 2 -4.92481 12.5652 15.4783
147 3 1.44976 9.23546 11.8854
357 2 -5.51026 11.1394 14.0384
105 3 -6.05268 12.1452 8.7067
14 4 -3.88995 11.11 16.8596
18 4 -2.40574 8.70591 13.1467
19 4 -4.00394 10.6291 11.1712
109 3 -3.45099 7.98612 14.2121
112 3 -3.38354 9.56788 12.1091
113 3 -3.70565 12.5121 13.3354
137 3 -3.02035 11.0649 10.0767
145 3 -2.51743 10.7179 16.078
66 1 -4.18242 12.4159 12.198
111 3 -5.40516 10.2699 10.6193
356 2 -3.93884 12.9976 11.1799
146 3 -0.434341 10.7125 10.4057
26 4 0.060918 12.9142 13.2809
232 2 -0.362634 8.38274 8.65254
328 1 -5.35369 9.83719 16.2845
75 1 0.666458 8.69302 8.81393
136 3 -1.21296 12.6634 8.84992
236 2 1.02955 7.67848 11.2647
330 2 -4.58148 9.02683 15.9983
110 3 -1.62646 7.54617 12.395
142 3 -1.36852 9.61592 13.9597
37 4 -1.62103 11.0745 9.35897
39 4 2.42337 8.63668 12.9547
40 4 -1.14929 10.6702 15.1468
41 4 0.952898 10.9005 11.1648
140 3 1.83948 7.42285 13.7657
143 3 0.119957 10.114 16.1461
331 2 -5.8496 10.418 15.2715
148 3 0.945848 11.9417 12.4229
77 1 0.689721 6.55404 10.9414
309 2 15.0788 0.710563 1.30764
42 4 9.02948 2.01753 3.55551
72 1 6.42041 4.17712 0.664559
86 1 8.4782 5.60304 5.04399
124 3 6.91175 3.45957 6.85797
149 3 8.66603 0.718151 2.64727
150 3 7.81525 2.17202 4.70437
164 3 8.95044 3.2902 2.59821
168 3 9.35714 4.95889 0.437422
50 4 10.0881 4.23262 1.72367
305 4 12.7892 0.196319 1.7741
266 2 8.92483 4.92666 6.91645
265 2 8.83769 4.59828 5.41428
87 1 9.12776 4.41836 8.03709
263 2 8.59383 5.67703 3.81841
221 2 6.94857 4.08051 1.69234
268 2 8.67347 3.35737 8.16356
264 2 7.46493 5.84983 5.37022
355 2 15.0408 1.53102 5.75523
209 2 12.8246 4.63386 6.49427
44 4 13.2115 -0.0184553 7.48736
155 3 10.3806 1.85124 4.48755
205 2 15.123 1.15683 3.78472
308 2 14.0882 2.00228 2.56503
228 2 5.58006 6.04108 0.151246
261 2 13.9788 2.26787 4.53353
52 4 10.9389 3.90364 8.11756
262 2 12.9081 3.94944 4.69157
46 4 11.5328 2.22879 5.50148
85 1 12.9435 2.814 4.35497
156 3 12.2821 1.08355 6.41201
165 3 11.2748 3.36991 1.17475
166 3 10.7524 5.4057 2.77628
170 3 11.1741 3.61211 6.5513
260 2 12.3442 2.57292 3.36862
307 3 11.8228 0.636277 0.638268
306 1 14.1959 0.99037 1.95676
270 2 11.2127 6.34523 6.79396
319 2 12.9889 4.81687 1.04781
222 2 5.3743 4.40964 0.748883
352 2 8.8836 6.24465 14.55
163 3 13.1443 0.826103 12.7791
267 2 8.84856 5.11641 8.96199
51 4 9.94903 6.02288 16.8087
172 3 6.24687 5.37898 8.54653
45 4 10.0488 1.60369 9.9537
48 4 9.90672 1.8623 14.9676
73 1 7.19433 3.0635 12.8688
154 3 8.70075 2.24444 10.6398
158 3 9.54366 0.560867 14.0903
160 3 8.62824 2.14133 15.9085
180 3 10.1057 4.99264 11.9141
224 2 6.25679 3.84138 12.6246
225 2 8.19947 3.56878 12.6848
226 2 7.14153 2.51084 13.8214
350 1 8.64101 5.68814 15.4755
351 2 8.67601 4.59652 15.3718
153 3 9.44295 0.665842 8.68746
175 3 10.1948 3.2422 14.0369
353 2 7.66033 6.08581 15.8845
176 3 12.0399 3.18462 12.287
233 2 5.67458 5.75009 13.0135
161 3 13.7576 2.16767 10.5381
177 3 11.9581 5.31503 13.9739
171 3 11.8586 5.18294 8.71933
169 3 10.8828 2.64712 9.07185
162 3 11.084 0.994173 10.9678
2 4 14.631 1.90101 9.29633
5 4 14.9456 1.99397 15.3346
49 4 12.5626 1.8402 11.7039
55 4 11.1951 4.18997 13.1411
151 3 13.6247 2.39522 16.1779
157 3 15.0165 0.356175 14.69
159 3 11.2248 1.53346 15.8661
223 2 7.73834 4.52426 16.8913
179 3 8.28181 6.35308 10.1003
152 3 14.1037 0.43981 8.70372
56 4 9.93744 6.3334 11.1506
22 4 7.42294 2.12115 16.8997
43 4 12.3223 1.87568 16.9435
188 3 8.87217 9.8068 8.38948
58 4 3.69087 11.3552 3.82655
183 3 3.10375 10.267 2.8356
185 3 2.52043 11.7325 4.92419
269 2 10.7825 8.08687 7.48089
189 3 3.72042 12.4579 8.27843
280 2 3.85452 10.0586 7.35597
287 4 11.4114 6.86341 3.16236
184 3 4.11101 12.5703 2.86005
229 2 5.58213 8.01186 0.194197
88 1 10.4163 7.08008 7.15817
186 3 6.94575 7.92073 8.23055
346 1 7.62412 12.46 0.0901158
247 2 4.39664 8.51109 6.98387
245 2 4.42918 8.38022 4.9702
274 2 5.99677 8.21192 3.70194
246 2 5.86553 7.62222 6.03433
80 1 4.78081 7.87407 5.99804
13 4 8.78657 10.8889 4.01854
54 4 9.4186 7.31995 5.57228
57 4 7.56433 8.52924 2.04684
59 4 7.68779 9.16872 7.44359
61 4 6.11492 11.2567 5.82562
90 1 6.49565 7.34906 3.16691
181 3 8.22195 7.54784 0.993277
182 3 8.55564 9.6326 2.92859
187 3 8.36449 8.40888 5.9988
191 3 7.59159 11.3192 4.93383
192 3 4.95547 10.6922 4.7527
193 3 6.3779 10.1939 7.01895
194 3 5.63136 12.6665 6.42293
91 1 6.41916 9.65602 0.987762
365 2 6.42713 10.7898 1.1745
277 2 5.44391 9.11856 1.47869
316 2 6.93808 12.029 0.957645
174 3 10.6769 7.54379 4.423
294 2 10.0385 7.97099 1.68728
275 2 7.18573 6.71554 3.91383
282 2 3.85134 10.4919 0.0137945
276 2 5.81523 6.67981 2.61321
131 3 2.89287 8.51681 0.667621
259 2 2.55133 9.56364 5.80349
329 2 8.99012 9.80603 -0.031691
364 2 9.77167 6.62127 7.9876
286 2 7.22255 8.89094 10.8552
272 2 10.4907 8.41248 12.0757
167 3 11.1882 6.64882 16.0221
227 2 5.8663 6.62513 15.615
285 2 7.28992 9.22671 12.7936
60 4 3.59975 11.3721 9.45473
62 4 3.63787 10.9368 14.9872
279 2 4.63401 9.13335 8.84225
273 2 9.56331 7.37019 13.3109
190 3 2.27366 11.2062 10.2535
195 3 3.00584 9.76218 13.9732
197 3 2.58398 11.4733 16.1065
196 3 4.51394 11.9914 14.1681
53 4 6.8302 6.70941 9.32745
347 2 7.75299 12.4124 16.2042
283 2 6.03636 10.2814 15.7445
11 4 12.3602 6.52784 14.8859
366 2 7.43705 9.09549 16.8964
337 2 8.31713 12.3492 13.7978
339 2 9.55189 10.7909 12.4498
334 1 9.40408 11.0324 13.5098
47 4 5.57182 13.1402 13.5145
335 2 8.77051 10.2591 14.0308
141 3 3.71633 7.88246 12.054
178 3 11.2185 6.85387 10.2705
248 2 8.86363 9.02118 15.4799
249 2 7.1962 7.94802 15.5566
81 1 7.74503 8.71741 14.9391
173 3 5.74786 7.07983 10.4241
235 2 7.09592 9.66128 14.9458
250 2 7.87065 8.41041 13.8162
33 4 4.52136 6.76336 11.3404
16 4 9.36555 10.8248 9.42719
63 4 6.5324 11.2928 11.138
89 1 9.57504 7.77436 12.2783
93 1 4.93493 9.93601 16.0054
94 1 6.78568 9.47718 11.7095
198 3 7.86195 11.227 10.298
199 3 5.0332 11.2671 10.4091
200 3 6.54392 12.298 12.4413
271 2 8.52723 8.38112 12.0352
281 2 4.68186 8.87549 15.72
284 2 5.57072 9.23866 11.718
74 1 5.94015 6.68313 16.809
349 2 9.23276 11.2855 16.7837
92 1 3.74067 9.72489 8.51305
278 2 2.62133 9.25634 8.72449
ITEM: TIMESTEP
200
ITEM: NUMBER OF ATOMS
366
ITEM: BOX BOUNDS xy xz yz pp pp pp
1.0049719805092661e-01 2.4358281267014757e+01 7.4863595292448970e+00
-3.4040069833810205e-01 1.3444835739784946e+01 8.4751893582093984e-01
-8.0556304019379965e-02 1.6989556304019288e+01 -3.1796495855315698e-01
ITEM: ATOMS id type x y z
217 2 4.69907 0.0128193 3.95417
364 2 9.47926 6.52114 7.97869
218 2 5.62655 4.2024 3.96955
25 4 6.97689 2.04235 5.88182
20 4 7.67319 0.104142 1.78934
119 3 7.53042 0.846656 6.84351
118 3 5.32103 1.84555 5.44017
115 3 6.58807 1.35793 1.17812
362 2 5.22046 0.855588 2.32579
71 1 4.67464 3.78866 3.4322
126 3 4.64998 4.98949 6.42237
114 3 2.51424 2.54115 4.72428
220 2 4.98002 3.19221 2.47415
219 2 3.73425 4.45514 3.37341
21 4 4.19346 2.21253 4.33934
310 1 2.01963 0.828186 6.93201
338 1 2.08115 2.05161 1.35334
341 2 2.38041 2.68536 0.333318
344 2 3.24291 4.56875 1.22712
340 2 3.10748 1.73019 1.879
70 1 4.3738 0.697686 3.05757
29 4 5.77663 4.23077 7.62378
123 3 4.87153 3.12065 8.40835
311 2 2.13326 0.39837 5.79864
358 2 1.45175 1.16631 1.05599
210 2 2.87492 0.561655 0.218896
312 2 2.5469 1.84508 7.07609
216 2 3.46187 0.327925 2.54066
42 4 9.07047 1.94026 3.6646
222 2 5.09437 4.34041 0.67232
72 1 6.18968 4.14173 0.556592
270 2 11.0379 6.39168 6.79221
86 1 8.29335 5.61972 5.13986
124 3 6.93645 3.55766 6.79877
150 3 7.76759 2.20252 4.56175
164 3 9.13757 3.34084 2.75391
166 3 10.9872 5.44715 2.36679
168 3 9.29452 4.94282 0.453468
50 4 10.1586 4.19902 1.67591
266 2 8.81438 4.91995 6.99288
265 2 9.05236 4.83596 5.35887
87 1 9.08212 4.47578 8.0281
263 2 7.83968 5.42392 4.14532
221 2 6.78403 4.0483 1.57908
228 2 5.45952 6.04455 0.0715284
268 2 8.57189 3.48793 8.20418
264 2 7.50823 5.70464 5.95659
23 4 8.35899 -0.162564 7.79973
325 2 0.86815 -0.073859 3.55131
31 4 3.99216 6.27491 5.8024
348 2 0.739757 -0.0421042 0.351183
353 2 7.56868 6.06795 15.9082
27 4 7.29038 1.77217 11.5226
121 3 5.79028 1.9806 10.4988
4 4 2.17514 -0.140821 12.8194
296 4 4.8104 2.23395 15.0027
76 1 4.74814 5.21807 12.4819
24 4 4.39169 2.11116 9.54802
233 2 5.44862 5.84315 13.3924
301 2 5.49105 2.62272 13.4646
96 3 1.62519 0.65027 11.5487
130 3 4.11012 4.17756 12.3396
303 2 3.84301 4.20664 14.7309
116 3 4.08738 0.625816 8.85723
117 3 2.99408 2.44213 10.2722
122 3 7.2819 0.419672 12.3141
304 2 3.62301 4.1697 16.6979
299 2 3.91313 0.751096 14.6701
300 2 2.33426 1.96004 13.6666
298 1 3.70103 3.51198 15.7444
297 1 2.50395 0.949007 14.164
120 3 5.99192 1.97213 16.0137
55 4 11.0417 4.16079 13.0478
352 2 8.7418 5.99926 14.3912
267 2 8.83691 5.18117 8.89663
22 4 7.33351 2.06846 16.9876
56 4 9.76213 6.47229 11.0903
51 4 9.92267 5.99091 16.7611
179 3 8.51858 6.40146 10.1271
223 2 7.50529 4.60878 16.8533
172 3 6.39993 5.4168 8.51709
48 4 9.97615 1.92834 14.8956
73 1 7.24512 3.19231 12.7938
154 3 8.64327 1.99004 10.6085
160 3 8.62673 2.10846 16.0077
180 3 10.0182 5.01962 12.1827
224 2 6.34852 3.88998 12.6742
225 2 8.25298 3.68903 12.46
226 2 7.29624 2.63216 13.8073
350 1 8.57012 5.64351 15.4788
351 2 8.72529 4.47783 15.5238
175 3 10.18 3.25265 14.0482
206 2 1.62914 0.543126 14.897
302 2 2.73835 2.89129 15.6347
211 2 5.20188 -0.249216 16.1249
177 3 11.8505 5.37139 13.9744
54 4 9.30586 7.24394 5.57562
326 2 8.44424 12.4941 1.80649
361 2 10.6576 10.945 2.14321
333 2 12.6365 10.6078 2.05055
332 1 11.6811 11.2685 1.72615
327 2 10.0058 12.7679 2.75878
15 4 13.2425 9.06621 7.40239
17 4 11.6763 11.0472 5.69849
106 3 10.4054 11.024 4.65701
107 3 11.8845 9.69436 6.62963
108 3 11.6221 12.3889 6.6437
133 3 12.9688 11.3167 4.71263
360 2 11.8191 12.3707 2.09912
293 2 11.4761 9.2444 1.67235
57 4 7.63108 8.52761 2.0422
13 4 8.77405 11.1038 3.94817
1 4 10.6935 13.193 7.95453
295 2 11.7851 7.69449 0.603303
35 4 14.3188 11.4178 3.82296
132 3 14.2326 12.6283 2.82691
324 1 8.87653 12.573 2.87433
289 1 11.228 8.11224 1.54675
188 3 8.94293 9.67482 8.3357
246 2 5.9187 7.60974 6.16131
329 2 9.02929 9.87167 -0.00626484
269 2 10.6606 8.01113 7.67108
287 4 11.417 6.93813 2.99988
275 2 7.17979 6.72796 3.95254
229 2 5.49797 8.0523 0.163983
316 2 6.98319 12.1081 0.665709
294 2 10.0567 7.98237 1.32215
174 3 10.302 7.36322 4.35051
274 2 5.88868 8.21877 3.58815
277 2 5.53574 9.21908 1.47028
365 2 6.58731 10.8424 1.09493
91 1 6.45792 9.64232 0.951956
88 1 10.222 7.07708 7.20625
193 3 6.50419 10.1896 7.00197
186 3 7.03396 7.87131 8.33413
191 3 7.57899 11.5114 4.86088
187 3 8.21481 8.30616 5.93031
182 3 8.27203 9.6627 2.91727
181 3 8.39498 7.58986 1.00029
90 1 6.50905 7.3703 3.15051
276 2 5.88559 6.64368 2.49884
59 4 7.65263 9.11662 7.46746
331 2 10.1678 10.2793 15.1738
144 3 15.251 12.3051 14.5721
68 1 11.6971 12.858 16.5771
212 2 10.9731 12.5666 15.6694
346 1 8.56863 12.2655 16.9487
357 2 10.3693 11.1286 13.9487
105 3 9.79423 12.1004 8.64932
14 4 12.2016 11.1095 16.8516
18 4 13.4653 8.73501 13.1794
19 4 11.7522 10.7277 11.0352
109 3 12.5377 7.97206 14.257
112 3 12.5074 9.71261 12.1191
113 3 12.2468 12.546 13.2569
137 3 12.8191 11.123 9.96803
145 3 13.5656 10.8036 16.1153
66 1 11.6652 12.4405 12.1598
111 3 10.3063 10.3711 10.5735
356 2 11.8795 13.0396 11.0674
37 4 14.3487 11.1986 9.44456
26 4 16.0803 13.1009 13.3872
330 2 11.3034 9.02594 15.9607
328 1 10.6404 9.85237 16.2918
136 3 14.7616 12.6325 8.81766
286 2 7.0265 8.99698 11.3043
272 2 10.241 8.61448 12.0644
167 3 11.0787 6.73372 16.0271
349 2 9.38997 11.4301 16.6078
74 1 5.84565 6.72426 16.7527
227 2 5.77571 6.76512 15.5536
285 2 7.18324 9.2688 13.1506
271 2 8.32187 8.45689 12.2643
273 2 9.48434 7.35962 13.2543
53 4 6.83981 6.74291 9.35114
198 3 7.76327 11.1727 10.3389
94 1 6.61047 9.54615 12.2326
11 4 12.3088 6.56014 14.9478
89 1 9.34942 7.9061 12.2781
366 2 7.47658 9.01445 16.9771
16 4 9.05046 10.8552 9.39573
337 2 8.33297 12.3467 13.9269
250 2 8.23043 8.21815 14.0639
235 2 7.23543 9.60014 14.8471
173 3 5.82479 7.18626 10.5141
81 1 7.87315 8.65369 15.0447
249 2 7.20793 7.87338 15.7122
248 2 8.8555 9.04667 15.6567
178 3 11.2342 6.96588 10.5239
339 2 9.36969 10.7868 12.4255
335 2 8.73713 10.1777 14.0677
334 1 9.32932 11.0706 13.5031
33 4 4.67225 6.91091 11.5226
309 2 15.2681 0.205397 1.72943
319 2 12.9727 4.66951 0.638278
306 1 14.3566 0.853383 2.04204
307 3 12.0823 0.753275 0.704348
260 2 12.4293 2.35902 3.35561
149 3 8.96705 0.667701 2.61585
170 3 11.4029 3.60246 6.57569
165 3 11.055 3.11825 0.989491
156 3 12.3253 1.02382 6.62007
85 1 13.0408 2.60695 4.32237
305 4 12.9507 0.0989402 1.79749
46 4 11.7104 2.06323 5.57686
262 2 13.0465 3.73183 4.60632
52 4 10.9454 3.99277 8.07398
261 2 14.0417 2.05811 4.44975
308 2 14.2907 2.04607 2.23804
205 2 15.3636 1.02456 3.86804
155 3 10.4517 1.76438 4.7113
355 2 15.1073 1.39298 5.63988
209 2 12.8478 4.63064 6.42492
44 4 13.1754 -0.0471961 7.49262
254 2 13.0794 5.50801 3.35776
244 2 18.3664 4.65346 7.95047
208 2 13.4992 6.11994 7.199
67 1 13.7849 5.29027 6.49652
359 2 14.7212 4.00058 0.216539
97 3 14.4798 3.21938 8.09159
291 2 15.6569 4.71769 3.75196
317 1 14.1211 4.93071 0.562367
3 4 16.8381 2.95862 4.7846
8 4 15.2177 4.30078 7.29032
64 1 16.4068 4.00305 3.29422
336 2 15.1068 2.42499 0.57361
98 3 16.1016 3.68194 6.0728
201 2 15.9211 3.06563 2.72232
202 2 17.2329 4.53243 2.59846
203 2 17.4217 2.74877 2.01036
78 1 18.1281 6.40647 5.53302
342 1 18.516 5.53016 1.3115
343 2 18.6577 6.0544 2.30177
239 2 18.2137 5.97034 4.35238
318 2 14.5505 5.3677 1.55574
65 1 15.8769 1.18115 4.8675
125 3 16.0267 5.2807 8.20336
241 2 17.543 5.61991 6.16227
345 2 17.4435 5.33006 1.21907
207 2 14.1627 5.58063 5.46998