ITEM: TIMESTEP
0
ITEM: NUMBER OF ATOMS
366
ITEM: BOX BOUNDS xy xz yz pp pp pp
-8.3370488766021680e+00 1.6854851625161821e+01 -8.4375460746530955e+00
-3.4040069833810205e-01 1.3444835739784946e+01 8.3044882321290159e-01
-8.0556304019379965e-02 1.6989556304019288e+01 -3.1796495855315698e-01
ITEM: ATOMS id type x y z
254 2 -2.56236 5.4805 3.43736
244 2 2.83607 4.85923 7.72941
208 2 -2.44701 6.14784 7.28921
67 1 -2.21327 5.29506 6.54154
359 2 -1.12348 4.08183 0.258105
291 2 0.210483 4.96041 3.87688
317 1 -1.67289 5.09537 0.777689
3 4 0.87752 2.8786 4.7544
8 4 -0.746197 4.17888 7.20874
64 1 0.673542 4.11836 3.31088
98 3 0.229419 3.57311 6.0281
114 3 2.43236 2.46255 4.5931
201 2 -0.148263 3.44329 2.79378
202 2 1.48892 4.55555 2.55084
203 2 1.37676 2.79289 1.83715
310 1 1.88871 0.768503 7.12152
338 1 1.91316 2.04222 1.13207
341 2 2.28983 2.71132 0.179946
344 2 3.6832 4.85635 1.26544
340 2 2.80078 1.56283 1.76869
78 1 2.19311 6.43658 5.68401
342 1 2.72089 5.55653 1.30869
239 2 2.23278 5.98585 4.34481
311 2 1.93996 0.67232 6.04587
358 2 1.13385 1.2317 0.846456
345 2 1.75594 5.1973 0.804811
312 2 1.98616 1.82702 7.44692
216 2 3.34054 0.289547 2.44622
325 2 0.873903 -0.0333151 3.6683
343 2 2.53355 6.03934 2.2772
210 2 2.63483 0.437858 0.124135
207 2 -1.67599 5.65997 5.59738
313 2 0.997618 0.171912 7.56909
241 2 1.74154 5.59944 6.39284
125 3 0.0761049 5.26806 8.17498
65 1 -0.316012 1.20319 4.78037
318 2 -0.960983 5.58288 1.57577
29 4 5.57782 4.27452 7.67715
31 4 3.97273 6.25672 5.65985
70 1 4.25528 0.733148 2.89321
21 4 4.11096 2.21694 4.29393
219 2 3.86548 4.54854 3.60027
220 2 4.93442 3.30266 2.51327
126 3 4.66034 5.07237 6.55233
71 1 4.71143 3.7952 3.56773
336 2 -0.936041 2.60257 0.390364
362 2 4.98118 1.00819 2.042
115 3 6.46788 1.38896 0.976696
118 3 5.18268 1.74154 5.45172
119 3 7.51795 0.9712 6.93997
20 4 7.59604 0.173768 1.68153
97 3 -1.47166 3.20586 8.22464
25 4 6.76985 2.10654 5.99127
222 2 5.32967 4.33349 0.789823
319 2 -2.75235 4.92215 0.996779
217 2 4.778 0.0832145 3.68922
23 4 8.34348 -0.0859496 7.92378
288 1 -2.70774 6.60671 3.37823
218 2 5.67168 4.01407 4.14442
128 3 3.10222 6.32508 15.6552
102 3 -2.11993 5.94102 10.2135
121 3 5.71419 1.93059 10.6178
315 2 0.905362 1.14183 16.3574
296 4 4.90665 2.27644 14.8701
363 2 1.13785 2.9535 16.1867
6 4 1.43419 2.01404 10.6926
10 4 0.229456 4.03089 13.1602
95 3 0.400231 1.7938 9.50574
96 3 1.54816 0.551789 11.5479
99 3 -0.475773 3.0341 14.1426
100 3 0.984383 3.10176 11.8164
103 3 -0.840041 5.06493 12.6198
117 3 2.96678 2.07212 10.1701
127 3 1.61559 4.86053 13.9132
314 1 0.41114 2.16454 16.4552
7 4 -0.804112 6.20719 16.6661
300 2 2.404 2.11285 13.3406
30 4 1.10499 6.1993 9.05723
297 1 2.41461 1.10666 13.9285
79 1 2.75732 5.28646 8.76038
32 4 1.7862 6.18818 14.6903
206 2 1.44695 0.894271 14.5713
230 2 2.53956 4.51801 9.64069
302 2 2.76367 2.78124 15.5172
12 4 -1.17957 6.2229 11.5136
120 3 5.96203 2.1347 15.9713
298 1 3.73977 3.50741 15.6379
242 2 1.29092 5.89399 11.5261
299 2 3.91399 0.784162 14.6337
304 2 3.68723 4.06827 16.6313
122 3 7.56893 0.385818 12.2461
129 3 0.582022 6.23449 15.8926
116 3 4.46304 0.705012 8.55998
243 2 3.6209 6.00545 9.00106
234 2 3.17796 5.77616 10.6807
101 3 -2.23078 6.2438 15.8488
303 2 3.93191 4.29027 14.6983
130 3 4.08208 4.27949 12.3946
301 2 5.59645 2.46345 13.2842
123 3 4.69645 3.37726 8.65573
24 4 4.51974 2.05632 9.61962
76 1 4.79826 5.25447 12.5483
4 4 2.23893 -0.170821 12.7426
9 4 -3.41614 6.39728 9.45325
22 4 7.32301 2.13051 16.8456
27 4 7.35007 1.73559 11.4242
290 2 -2.43975 7.19242 4.32742
36 4 0.448374 11.3748 -0.0192151
361 2 -5.36339 10.6413 2.01085
333 2 -3.47759 10.6683 2.03436
332 1 -4.42305 11.2286 1.69912
327 2 -5.87377 12.6724 3.18231
15 4 -2.59618 9.06435 7.28271
17 4 -4.22409 11.0607 5.69992
106 3 -5.76444 10.7685 4.82985
107 3 -3.78906 9.84553 6.7028
108 3 -4.41798 12.3746 6.52683
133 3 -3.14799 11.2355 4.59225
360 2 -4.38028 12.3388 2.06839
293 2 -4.55465 9.17532 1.77361
256 2 -2.60149 9.38117 3.07493
321 2 -2.76585 8.23502 1.19815
231 2 0.550426 9.68755 8.38648
295 2 -4.00505 7.51589 0.823282
213 2 -2.22142 8.66752 4.85155
322 2 -1.32339 8.98564 0.135608
324 1 -7.01677 12.5842 3.1434
289 1 -4.64659 7.98187 1.68985
292 2 -2.30413 7.13673 2.39306
348 2 -7.68798 13.3846 0.603922
323 2 -0.907415 7.7917 1.61314
255 2 -1.76333 10.4536 1.67006
240 2 1.82016 7.60039 5.86701
215 2 -0.527981 8.78537 5.83412
69 1 -1.70837 8.3601 5.79435
132 3 -1.80784 12.756 2.58409
253 2 1.8066 7.2939 2.93647
214 2 -1.8639 7.17819 6.03338
83 1 -1.59724 9.92576 2.70441
34 4 1.97992 9.37676 1.85209
35 4 -1.68402 11.4979 3.76861
28 4 3.04467 6.96344 -0.0333917
82 1 1.09739 8.18804 2.99892
84 1 1.31097 9.58394 5.90868
131 3 2.70789 8.34858 0.77732
134 3 0.909737 10.4253 1.23681
138 3 -0.348325 11.3225 4.56653
251 2 0.0447329 7.85358 2.76418
252 2 -0.584302 9.26526 2.75512
257 2 1.1966 8.7007 4.11378
258 2 0.995973 9.2278 6.92842
354 3 -0.280284 12.7974 0.429453
135 3 -1.51916 10.0681 8.06099
104 3 -2.92965 7.49441 8.30037
320 1 -1.65796 8.08848 0.782947
326 2 -7.45251 12.4516 2.08656
38 4 1.07752 11.3847 5.5816
237 2 1.69096 7.7009 7.96406
1 4 -5.04178 13.1801 7.78409
238 2 0.707381 8.64119 9.95599
144 3 -0.66713 12.0442 14.5466
68 1 -4.55233 12.7118 16.4572
212 2 -5.34619 12.2817 15.689
147 3 1.44782 9.34385 11.8848
357 2 -5.81621 11.0379 14.0502
105 3 -5.7827 12.1491 8.76338
14 4 -3.85607 11.0294 16.8377
18 4 -2.40079 8.56962 13.2306
19 4 -4.01082 10.6528 11.0439
109 3 -3.46913 7.7418 13.9633
112 3 -3.39342 9.68207 12.1327
113 3 -3.7616 12.3557 13.5313
137 3 -2.87629 11.0607 10.0561
145 3 -2.47492 10.7317 16.1779
66 1 -4.21842 12.2377 12.3894
111 3 -5.5893 10.2847 10.6184
356 2 -3.65348 12.8782 11.3193
146 3 -0.184512 10.8076 10.458
26 4 0.03568 12.9499 13.3888
232 2 -0.509481 8.17822 8.58206
328 1 -5.3785 9.78932 16.1681
75 1 0.504989 8.65037 8.81189
136 3 -1.26244 12.671 8.80337
236 2 0.78149 7.6279 11.0718
278 2 2.37901 9.24049 8.5833
110 3 -1.57735 7.59225 12.2313
142 3 -1.42871 9.4253 14.1357
37 4 -1.41055 11.1168 9.38516
39 4 2.52472 8.64508 12.9664
40 4 -1.04466 10.6408 15.1098
41 4 1.11793 10.8123 11.3245
140 3 1.69876 7.5017 13.7542
143 3 0.0740625 10.1984 16.1821
77 1 0.616793 6.53715 10.8542
148 3 0.941856 11.8402 12.5926
211 2 -3.51248 13.0521 15.8931
309 2 15.0892 0.32665 1.8241
42 4 8.95064 2.13916 3.59055
72 1 6.41918 4.17297 0.651831
86 1 8.72901 5.62946 5.07792
124 3 6.72179 3.50526 6.78574
149 3 8.60315 0.790085 2.73579
150 3 7.62535 2.40918 4.7703
164 3 9.02109 3.43805 2.61666
168 3 9.3536 5.04008 0.525349
50 4 10.0788 4.19547 1.67455
305 4 12.7545 0.345062 2.00557
266 2 8.91563 4.8013 6.8784
265 2 9.5046 4.80932 5.29751
87 1 9.06965 4.36642 8.02167
263 2 8.42214 5.49584 4.09628
221 2 6.97366 4.33636 1.6412
268 2 8.47516 3.48431 8.30862
264 2 7.83919 5.4273 5.8411
355 2 14.8631 1.4707 5.58985
209 2 12.783 4.61464 6.35798
44 4 13.2295 -0.0410516 7.31284
155 3 10.3559 1.9645 4.37644
205 2 15.0607 1.22837 3.66463
308 2 14.2759 2.19679 2.15003
228 2 5.53334 5.88726 0.0415491
261 2 13.9911 2.42544 4.4664
52 4 10.9234 3.94182 8.08918
262 2 13.1019 4.1669 4.64818
46 4 11.6307 2.36194 5.45977
85 1 12.9971 3.0887 4.36316
156 3 12.4303 1.00613 6.48346
165 3 11.3117 3.21071 1.13962
166 3 10.8871 5.4028 2.67739
170 3 11.2149 3.58686 6.33063
260 2 12.3767 3.00524 3.3848
307 3 11.7953 0.628172 0.776499
306 1 14.1847 1.05806 1.85733
152 3 14.1733 0.611107 8.38346
204 2 16.0666 0.198229 4.98895
11 4 12.3627 6.38749 14.9389
163 3 13.0632 0.711081 12.7826
267 2 8.87662 5.29085 8.84806
51 4 9.93212 6.03065 16.7894
172 3 6.43446 5.36911 8.5083
45 4 10.0684 1.55645 9.93999
48 4 9.81751 1.94912 14.9622
73 1 7.3375 3.20411 12.6259
154 3 8.68136 2.21639 10.665
158 3 9.56754 0.609719 14.0873
160 3 8.51915 2.24362 15.8922
180 3 10.1465 5.14932 12.0752
224 2 6.37524 3.964 12.588
225 2 8.29377 3.78241 12.4656
226 2 7.36245 2.52497 13.5787
350 1 8.60383 5.78865 15.4583
351 2 8.72641 4.70308 15.2739
153 3 9.38843 0.450823 8.9382
175 3 10.0676 3.18298 13.9588
353 2 7.56732 6.12951 15.7966
176 3 12.1243 3.16388 12.4015
233 2 5.35461 5.94726 13.3358
161 3 13.9186 1.98324 10.5437
177 3 11.9432 5.10659 14.066
171 3 11.809 5.18929 8.60401
169 3 10.8062 2.73739 9.06234
162 3 11.2262 1.1424 10.9474
2 4 14.7084 1.93245 9.22498
5 4 14.8888 1.97638 15.1057
49 4 12.5554 1.79204 11.6738
55 4 11.1347 4.12974 13.1568
151 3 13.552 2.26208 16.003
157 3 14.9856 0.508592 14.5256
159 3 11.0089 1.82269 16.1266
223 2 7.6677 4.62745 16.7896
179 3 8.49333 6.44209 10.1006
43 4 12.3083 1.8627 16.9436
56 4 9.94038 6.49665 11.1147
188 3 8.78873 9.85058 8.37
58 4 3.67315 11.322 3.95112
183 3 3.02074 10.0278 2.94229
185 3 2.43574 11.9322 4.75307
269 2 10.5074 8.40156 7.46674
189 3 3.78671 12.308 8.09816
280 2 3.61191 10.088 7.32401
287 4 11.3995 6.78057 3.22791
184 3 4.32787 12.5491 2.97481
229 2 5.51361 7.89158 0.224162
88 1 10.4079 7.26058 7.26622
270 2 11.3864 6.85078 6.90969
346 1 7.68935 12.4267 0.146767
247 2 4.4488 8.56593 6.86669
245 2 4.55806 8.3799 4.91949
274 2 6.14331 8.28266 3.96499
246 2 5.92383 7.5515 5.95173
80 1 4.80838 7.84694 5.95158
13 4 8.77758 10.8976 4.06961
54 4 9.52914 7.44261 5.63546
57 4 7.57448 8.57978 2.08989
59 4 7.60012 9.08245 7.5773
61 4 6.11089 11.1749 5.82088
90 1 6.70678 7.48099 3.35094
181 3 8.43354 7.72447 1.05828
182 3 8.44854 9.82854 2.93546
187 3 8.28399 8.32383 6.03518
191 3 7.51763 11.1471 5.0125
192 3 4.81214 10.7415 4.90272
193 3 6.40155 10.0539 7.16795
194 3 5.86931 12.65 6.31612
91 1 6.24076 9.59175 1.04979
365 2 6.32743 10.7071 1.25454
277 2 5.35525 9.04239 1.61003
316 2 6.97281 11.9204 0.868859
174 3 10.7064 7.4297 4.5254
294 2 10.1834 7.81615 1.44045
275 2 7.50287 6.79055 3.99322
282 2 4.01007 10.7333 0.0466277
276 2 5.93307 6.89818 2.76311
92 1 3.60487 9.66212 8.3911
259 2 2.43486 9.43567 5.669
139 3 0.716472 12.2454 6.88144
364 2 9.88025 6.73776 8.082
186 3 7.05326 7.93288 8.41747
329 2 8.9646 10.0438 -0.0151001
286 2 7.29329 8.86107 10.9894
272 2 10.4913 8.54211 12.1576
167 3 11.1993 6.67129 16.2043
227 2 5.70667 6.52488 15.6342
285 2 7.26991 9.44792 12.8042
60 4 3.78251 11.3227 9.31208
62 4 3.75567 10.915 14.9647
366 2 7.11164 9.10671 16.9436
273 2 9.73542 7.36878 13.3766
190 3 2.38108 11.3054 10.3455
195 3 3.25616 9.77473 13.9052
197 3 2.47831 11.2244 16.0063
196 3 4.49475 12.1605 14.4078
53 4 6.80806 6.64919 9.37377
347 2 7.95957 12.4449 16.4067
283 2 6.11478 10.6383 15.6999
331 2 10.0669 10.2959 15.2118
352 2 8.93303 6.44779 14.6204
337 2 8.44145 12.185 13.5
339 2 9.18739 10.6489 12.4236
334 1 9.0633 10.9843 13.5154
47 4 5.46389 13.0835 13.5027
335 2 8.42859 10.1789 14.0408
141 3 3.7509 7.95969 12.0398
178 3 11.3128 6.88229 10.4248
248 2 8.54925 8.5998 15.2154
249 2 6.85338 7.99004 15.6812
81 1 7.40151 8.72773 14.9752
173 3 5.65184 7.00235 10.4994
235 2 7.15103 9.79987 15.3433
250 2 7.14186 8.52079 13.8808
33 4 4.43568 6.77057 11.3695
16 4 9.3376 10.8618 9.4741
63 4 6.5531 11.1995 11.0849
89 1 9.61031 7.87364 12.3391
93 1 5.1331 10.1599 16.0345
94 1 6.79767 9.46994 11.8023
198 3 7.88094 11.4789 10.2314
199 3 5.13488 11.1834 10.1543
200 3 6.25934 12.034 12.429
271 2 8.53418 8.46768 12.1661
281 2 5.13411 8.98312 15.8058
284 2 5.65014 9.14453 11.938
74 1 5.82801 6.59832 16.7729
349 2 9.33226 11.307 16.8142
279 2 4.3817 8.84215 8.59877
330 2 10.9929 8.76713 15.9246
ITEM: TIMESTEP
100
ITEM: NUMBER OF ATOMS
366
ITEM: BOX BOUNDS xy xz yz pp pp pp
-8.3370488766021680e+00 1.6854851625161821e+01 -8.4375460746530955e+00
-3.4055968081737864e-01 1.3451569375524731e+01 8.3044882321290159e-01
-8.0556304019379965e-02 1.6989556304019288e+01 -3.1812394103243358e-01
ITEM: ATOMS id type x y z
254 2 -2.55993 5.60116 3.55011
244 2 2.72454 5.04727 7.71006
208 2 -2.45564 6.24505 7.23434
67 1 -2.19616 5.3267 6.57326
359 2 -1.25834 4.09437 0.37097
291 2 -0.0833547 4.76325 3.55259
317 1 -1.81788 5.00451 0.837897
3 4 0.91975 2.91989 4.76352
8 4 -0.814067 4.26432 7.3455
64 1 0.649593 3.99695 3.2398
98 3 0.283899 3.68481 5.96157
114 3 2.49322 2.39541 4.65961
201 2 0.0275926 3.05298 2.69629
202 2 1.55201 4.49958 2.60511
203 2 1.49675 2.74705 1.8924
310 1 2.03635 0.796262 6.96478
338 1 2.07687 2.05299 1.10639
341 2 2.3928 2.6982 0.235467
344 2 3.36334 4.59836 1.12768
340 2 2.97978 1.64229 1.66227
78 1 2.0569 6.35449 5.60155
342 1 2.85975 5.55636 1.33139
239 2 2.25489 5.88349 4.43122
311 2 1.88338 0.327858 5.96678
358 2 1.43866 1.1519 0.819635
345 2 1.76346 5.37267 1.13278
312 2 2.5282 1.79956 7.00237
216 2 3.41771 0.354769 2.55576
204 2 0.487365 0.327494 5.2146
343 2 3.12715 5.96469 2.39052
210 2 2.89672 0.557302 -0.0601926
207 2 -1.82843 5.56909 5.5267
313 2 1.05421 0.827242 7.59179
241 2 1.43709 5.75346 6.31112
125 3 0.00024846 5.40378 8.26993
65 1 -0.213966 1.22474 4.88827
318 2 -1.32891 5.49803 1.70209
29 4 5.60463 4.26326 7.6292
31 4 3.85183 6.29822 5.73446
70 1 4.44525 0.819066 2.9521
21 4 4.14201 2.27403 4.29191
219 2 3.64901 4.56683 3.39426
220 2 4.86985 3.42611 2.46259
126 3 4.64788 5.11492 6.498
71 1 4.57459 3.86747 3.47514
336 2 -0.791948 2.70535 0.605184
362 2 5.24727 0.992559 2.13578
115 3 6.59902 1.42329 1.04225
118 3 5.29412 1.91954 5.36589
119 3 7.57979 0.970035 6.88375
20 4 7.62202 0.050446 1.65316
97 3 -1.5013 3.04742 8.03463
25 4 6.91936 2.06521 5.9354
218 2 5.39509 4.42192 4.09428
23 4 8.37116 -0.14501 7.86565
217 2 4.81786 0.168708 3.9229
128 3 3.18615 6.34162 15.7467
102 3 -2.15001 5.93088 10.388
121 3 5.83398 1.81592 10.6237
315 2 0.955161 1.17621 16.5613
296 4 4.76266 2.23416 15.0046
363 2 1.06086 3.05825 16.2839
6 4 1.47233 1.93569 10.7226
10 4 0.394258 3.97207 13.107
95 3 0.371322 1.96203 9.58456
96 3 1.49922 0.396269 11.4496
99 3 -0.410379 3.02095 14.2342
100 3 0.988688 3.05285 11.8528
103 3 -0.706531 4.95956 12.4632
117 3 2.98904 2.41043 10.1782
127 3 1.67809 4.78175 13.989
314 1 0.437367 2.14622 16.6319
7 4 -0.787707 6.11996 16.6978
300 2 2.3768 2.05961 13.2923
30 4 1.05653 6.25037 9.06765
297 1 2.36311 1.10867 13.9762
79 1 2.84867 5.5037 8.75814
32 4 1.72904 6.15692 14.7832
206 2 1.41783 0.996911 14.6327
230 2 2.68724 4.62577 9.54416
302 2 2.72151 3.00658 15.4832
12 4 -1.07561 6.29195 11.6107
120 3 5.8905 2.03481 16.0742
298 1 3.73553 3.57058 15.7331
242 2 1.25728 5.7348 11.4695
299 2 3.77402 0.825515 14.8562
304 2 3.68276 4.08348 16.7181
122 3 7.55057 0.449836 12.3455
129 3 0.545742 6.19245 15.8692
116 3 4.23662 0.668683 8.66515
243 2 3.81328 6.0382 8.90418
234 2 3.5439 5.54529 10.6394
101 3 -2.15289 6.22414 15.8243
303 2 4.00572 4.33803 14.8286
130 3 4.01306 4.13747 12.4593
301 2 5.4174 2.40798 13.3814
123 3 4.75749 3.29004 8.53333
24 4 4.44233 2.11347 9.52375
76 1 4.70051 5.1417 12.4028
4 4 2.10078 -0.141609 12.8286
9 4 -3.35574 6.39409 9.48545
27 4 7.25242 1.77068 11.4799
211 2 5.28106 -0.318991 16.136
290 2 -2.31787 7.35133 4.34323
36 4 0.506956 11.2968 -0.0541615
361 2 -5.2762 10.626 2.14027
333 2 -3.41743 10.6793 1.93554
332 1 -4.43903 11.2577 1.79988
327 2 -6.12301 12.8766 3.00381
15 4 -2.71082 9.0924 7.32982
17 4 -4.23606 11.0551 5.66185
106 3 -5.7046 10.966 4.86422
107 3 -3.94819 9.78774 6.62349
108 3 -4.3716 12.3755 6.5616
133 3 -2.89616 11.3249 4.74336
360 2 -4.3514 12.3187 2.27471
293 2 -4.5526 9.26147 1.76422
256 2 -2.50529 9.30624 2.93366
321 2 -2.80108 8.08912 1.1029
1 4 -5.15174 13.0965 7.84724
295 2 -4.36224 7.6388 0.752577
213 2 -2.26383 8.91968 5.09333
322 2 -1.39826 9.01595 0.0391008
324 1 -7.13104 12.4906 3.03316
289 1 -4.73176 8.11269 1.68533
292 2 -2.32203 7.24092 2.35638
38 4 1.07493 11.346 5.59732
323 2 -0.853087 7.96849 1.59757
255 2 -1.72293 10.336 1.59607
240 2 1.72313 7.6482 5.64049
215 2 -0.500335 8.82037 5.9552
69 1 -1.57422 8.38429 5.90313
132 3 -1.88559 12.5723 2.44164
253 2 1.75315 7.35922 2.91603
214 2 -1.74144 7.23547 6.00961
83 1 -1.62136 9.89546 2.57797
34 4 2.12033 9.55126 1.86612
35 4 -1.62594 11.417 3.75994
28 4 3.15762 7.02525 0.0246084
82 1 1.13006 8.30474 2.96546
84 1 1.41607 9.57018 5.92644
237 2 1.85049 7.70594 8.06559
134 3 0.980703 10.46 1.24828
138 3 -0.233465 11.4629 4.60295
251 2 0.133706 7.98303 2.63968
252 2 -0.596271 9.3421 2.7534
257 2 1.22768 8.77881 4.07862
258 2 1.03157 9.29939 6.96243
354 3 -0.0444656 12.7354 0.472132
135 3 -1.64696 10.0994 8.00823
104 3 -2.94002 7.61065 8.33023
320 1 -1.64018 8.07018 0.730807
139 3 0.623026 12.1961 7.04638
325 2 -7.71462 13.3639 3.70877
231 2 0.775553 9.73027 8.44118
326 2 -7.52963 12.4202 1.94259
288 1 -2.70535 6.7277 3.45513
348 2 -7.70081 13.3559 0.470642
238 2 0.863228 8.76856 9.8927
144 3 -0.748418 12.0798 14.5043
68 1 -4.25301 12.883 16.3998
212 2 -4.93259 12.5715 15.4783
147 3 1.44378 9.24009 11.8854
357 2 -5.51732 11.145 14.0384
105 3 -6.05707 12.1513 8.7067
14 4 -3.89842 11.1156 16.8596
18 4 -2.41235 8.71027 13.1467
19 4 -4.00957 10.6344 11.1712
109 3 -3.45813 7.99012 14.2121
112 3 -3.38963 9.57267 12.1091
113 3 -3.71236 12.5183 13.3354
137 3 -3.02543 11.0704 10.0767
145 3 -2.52551 10.7232 16.078
66 1 -4.18856 12.4221 12.198
111 3 -5.41051 10.275 10.6193
356 2 -3.94447 13.0041 11.1799
146 3 -0.439584 10.7179 10.4057
26 4 0.0542373 12.9207 13.2809
232 2 -0.367 8.38695 8.65254
328 1 -5.36187 9.84212 16.2845
75 1 0.662011 8.69737 8.81393
136 3 -1.21742 12.6698 8.84992
236 2 1.02388 7.68233 11.2647
330 2 -4.58952 9.03135 15.9983
110 3 -1.6327 7.54996 12.395
142 3 -1.37554 9.62074 13.9597
37 4 -1.62575 11.0801 9.35897
39 4 2.41686 8.64101 12.9547
40 4 -1.15691 10.6756 15.1468
41 4 0.947275 10.9059 11.1648
140 3 1.83256 7.42657 13.7657
143 3 0.111843 10.1191 16.1461
331 2 -5.85727 10.4233 15.2715
148 3 0.939596 11.9477 12.4229
77 1 0.68421 6.55733 10.9414
309 2 15.0781 0.710929 1.30764
42 4 9.02766 2.01855 3.55551
72 1 6.42004 4.17922 0.664559
86 1 8.47563 5.60586 5.04399
124 3 6.90828 3.46131 6.85797
149 3 8.66466 0.718522 2.64727
150 3 7.81286 2.17312 4.70437
164 3 8.9491 3.29186 2.59821
168 3 9.35688 4.96138 0.437422
50 4 10.0872 4.23474 1.72367
305 4 12.7883 0.196428 1.7741
266 2 8.92133 4.92913 6.91645
265 2 8.83495 4.60059 5.41428
87 1 9.12371 4.42058 8.03709
263 2 8.59188 5.67988 3.81841
221 2 6.94768 4.08256 1.69234
268 2 8.66934 3.35906 8.16356
264 2 7.46221 5.85276 5.37022
355 2 15.0379 1.5318 5.75523
209 2 12.8213 4.63618 6.49427
44 4 13.2077 -0.0184533 7.48736
155 3 10.3783 1.85217 4.48755
205 2 15.1211 1.15742 3.78472
308 2 14.0869 2.0033 2.56503
228 2 5.57995 6.04412 0.151246
261 2 13.9765 2.26901 4.53353
52 4 10.9348 3.9056 8.11756
262 2 12.9057 3.95142 4.69157
46 4 11.53 2.22991 5.50148
85 1 12.9412 2.81542 4.35497
156 3 12.2789 1.08411 6.41201
165 3 11.2741 3.37161 1.17475
166 3 10.751 5.40841 2.77628
170 3 11.1708 3.61393 6.5513
260 2 12.3424 2.57421 3.36862
307 3 11.8225 0.636607 0.638268
306 1 14.1949 0.990877 1.95676
270 2 11.2092 6.34841 6.79396
319 2 12.9883 4.81929 1.04781
222 2 5.37388 4.41186 0.748883
352 2 8.87628 6.24779 14.55
163 3 13.1379 0.826528 12.7791
267 2 8.84404 5.11898 8.96199
51 4 9.94059 6.0259 16.8087
172 3 6.24256 5.38168 8.54653
45 4 10.0438 1.60451 9.9537
48 4 9.89919 1.86324 14.9676
73 1 7.18785 3.06505 12.8688
154 3 8.69539 2.24558 10.6398
158 3 9.53657 0.561159 14.0903
160 3 8.62024 2.14242 15.9085
180 3 10.0997 4.99515 11.9141
224 2 6.25044 3.84331 12.6246
225 2 8.19308 3.57058 12.6848
226 2 7.13458 2.51211 13.8214
350 1 8.63324 5.69099 15.4755
351 2 8.66828 4.59883 15.3718
153 3 9.43856 0.666186 8.68746
175 3 10.1878 3.24384 14.0369
353 2 7.65234 6.08886 15.8845
176 3 12.0337 3.18623 12.287
233 2 5.66803 5.75298 13.0135
161 3 13.7522 2.16876 10.5381
177 3 11.9511 5.3177 13.9739
171 3 11.8542 5.18554 8.71933
169 3 10.8782 2.64846 9.07185
162 3 11.0785 0.994681 10.9678
2 4 14.6263 1.90197 9.29633
5 4 14.9379 1.99498 15.3346
49 4 12.5567 1.84113 11.7039
55 4 11.1885 4.19207 13.1411
151 3 13.6166 2.39643 16.1779
157 3 15.0091 0.356364 14.69
159 3 11.2168 1.53424 15.8661
223 2 7.72985 4.52653 16.8913
179 3 8.27672 6.35627 10.1003
152 3 14.0993 0.440041 8.70372
56 4 9.93183 6.33658 11.1506
22 4 7.41444 2.12222 16.8997
43 4 12.3137 1.87663 16.9435
188 3 8.86793 9.81172 8.38948
58 4 3.68891 11.3608 3.82655
183 3 3.10229 10.2721 2.8356
185 3 2.51792 11.7384 4.92419
269 2 10.7787 8.09092 7.48089
189 3 3.71624 12.4641 8.27843
280 2 3.8508 10.0636 7.35597
287 4 11.4098 6.86685 3.16236
184 3 4.10954 12.5766 2.86005
229 2 5.58199 8.01588 0.194197
88 1 10.4127 7.08363 7.15817
186 3 6.94159 7.92471 8.23055
346 1 7.62404 12.4662 0.0901158
247 2 4.39311 8.51536 6.98387
245 2 4.42665 8.38442 4.9702
274 2 5.99488 8.21604 3.70194
246 2 5.86247 7.62604 6.03433
80 1 4.77777 7.87802 5.99804
13 4 8.78452 10.8943 4.01854
54 4 9.41577 7.32362 5.57228
57 4 7.56327 8.53351 2.04684
59 4 7.68402 9.17331 7.44359
61 4 6.11197 11.2624 5.82562
90 1 6.49403 7.35275 3.16691
181 3 8.22141 7.55163 0.993277
182 3 8.55414 9.63743 2.92859
187 3 8.36145 8.41309 5.9988
191 3 7.58908 11.3249 4.93383
192 3 4.95305 10.6976 4.7527
193 3 6.37435 10.199 7.01895
194 3 5.62811 12.6728 6.42293
91 1 6.41863 9.66086 0.987762
365 2 6.42651 10.7952 1.1745
277 2 5.44313 9.12313 1.47869
316 2 6.93756 12.035 0.957645
174 3 10.6746 7.54758 4.423
294 2 10.0376 7.97499 1.68728
275 2 7.18374 6.71891 3.91383
282 2 3.85129 10.4971 0.0137945
276 2 5.81388 6.68317 2.61321
131 3 2.89249 8.52108 0.667621
259 2 2.54839 9.56844 5.80349
329 2 8.99009 9.81094 -0.031691
364 2 9.76764 6.6246 7.9876
286 2 7.21708 8.8954 10.8552
272 2 10.4846 8.4167 12.0757
167 3 11.1801 6.65215 16.0221
227 2 5.85845 6.62845 15.615
285 2 7.28349 9.23133 12.7936
60 4 3.59498 11.3778 9.45473
62 4 3.63034 10.9422 14.9872
279 2 4.62955 9.13793 8.84225
273 2 9.55661 7.37389 13.3109
190 3 2.26849 11.2118 10.2535
195 3 2.99881 9.76708 13.9732
197 3 2.57589 11.479 16.1065
196 3 4.50682 11.9974 14.1681
53 4 6.8255 6.71278 9.32745
347 2 7.74485 12.4186 16.2042
283 2 6.02844 10.2866 15.7445
11 4 12.3527 6.53111 14.8859
366 2 7.42856 9.10005 16.8964
337 2 8.31019 12.3554 13.7978
339 2 9.54562 10.7963 12.4498
334 1 9.39729 11.038 13.5098
47 4 5.56502 13.1467 13.5145
335 2 8.76345 10.2642 14.0308
141 3 3.71026 7.88641 12.054
178 3 11.2133 6.85731 10.2705
248 2 8.85585 9.0257 15.4799
249 2 7.18838 7.95201 15.5566
81 1 7.73752 8.72178 14.9391
173 3 5.74261 7.08339 10.4241
235 2 7.08841 9.66613 14.9458
250 2 7.8637 8.41462 13.8162
33 4 4.51565 6.76675 11.3404
16 4 9.3608 10.8302 9.42719
63 4 6.52679 11.2985 11.138
89 1 9.56886 7.77825 12.2783
93 1 4.92689 9.94098 16.0054
94 1 6.77979 9.48193 11.7095
198 3 7.85677 11.2326 10.298
199 3 5.02796 11.2727 10.4091
200 3 6.53766 12.3041 12.4413
271 2 8.52118 8.38532 12.0352
281 2 4.67396 8.87994 15.72
284 2 5.56482 9.24329 11.718
74 1 5.9317 6.68648 16.809
349 2 9.22432 11.2911 16.7837
92 1 3.73638 9.72977 8.51305
278 2 2.61693 9.26098 8.72449
ITEM: TIMESTEP
200
ITEM: NUMBER OF ATOMS
366
ITEM: BOX BOUNDS xy xz yz pp pp pp
1.0049719805092661e-01 2.4341211154406718e+01 7.4863595292448970e+00
-3.4071866329665523e-01 1.3458303011264515e+01 8.3044882321290159e-01
-8.0556304019379965e-02 1.6989556304019288e+01 -3.1828292351171017e-01
ITEM: ATOMS id type x y z
217 2 4.69328 0.0079389 3.95153
364 2 9.47133 6.52805 7.98035
218 2 5.6202 4.20708 3.96908
25 4 6.97149 2.04559 5.88222
20 4 7.66974 0.105675 1.78879
119 3 7.52359 0.8475 6.84432
118 3 5.31673 1.84825 5.43945
115 3 6.58642 1.35843 1.17848
362 2 5.22305 0.856179 2.32098
71 1 4.67092 3.79136 3.4304
126 3 4.64161 4.99479 6.42244
114 3 2.50811 2.54289 4.72553
220 2 4.97689 3.20179 2.47525
219 2 3.72982 4.45533 3.3723
21 4 4.18957 2.21258 4.33801
310 1 2.01298 0.827101 6.93009
338 1 2.08127 2.05182 1.35417
341 2 2.38329 2.68534 0.335209
344 2 3.24193 4.57245 1.2274
340 2 3.1047 1.72979 1.8796
70 1 4.36991 0.697884 3.05582
29 4 5.76841 4.23427 7.62329
325 2 0.868306 -0.0692964 3.55233
311 2 2.12214 0.396042 5.79908
358 2 1.45256 1.16577 1.05405
210 2 2.87578 0.560555 0.217654
312 2 2.54396 1.84428 7.07354
216 2 3.46731 0.334725 2.52923
42 4 9.06588 1.94309 3.66467
222 2 5.09251 4.3397 0.666948
72 1 6.18832 4.14563 0.554431
270 2 11.032 6.39952 6.79409
86 1 8.28753 5.62611 5.13946
124 3 6.92982 3.56096 6.79884
150 3 7.7627 2.2058 4.56245
164 3 9.13482 3.3435 2.75327
166 3 10.9847 5.45309 2.36594
168 3 9.29376 4.94805 0.454194
50 4 10.1573 4.20346 1.67543
266 2 8.80663 4.92615 6.99315
265 2 9.04697 4.84395 5.35683
87 1 9.07445 4.48069 8.02783
263 2 7.83262 5.43092 4.14568
221 2 6.78067 4.05825 1.58222
228 2 5.46221 6.04992 0.071605
268 2 8.56249 3.49181 8.20228
264 2 7.50299 5.70849 5.95666
23 4 8.35119 -0.162753 7.7996
123 3 4.86346 3.12356 8.40843
31 4 3.98579 6.28172 5.80377
348 2 0.738779 -0.0434956 0.352919
22 4 6.48649 2.38974 -0.0804499
353 2 7.55228 6.07533 15.9103
27 4 7.27944 1.77326 11.5225
121 3 5.78021 1.98255 10.4986
4 4 2.16296 -0.141525 12.8186
296 4 4.79556 2.23619 15.0033
76 1 4.73672 5.22315 12.4808
24 4 4.38208 2.11347 9.54759
233 2 5.43721 5.84936 13.3919
301 2 5.4778 2.62311 13.4661
96 3 1.61354 0.652131 11.5489
130 3 4.0973 4.18395 12.3396
303 2 3.82439 4.2092 14.7288
116 3 4.07813 0.626743 8.85639
117 3 2.98309 2.44424 10.2715
122 3 7.26962 0.419579 12.3137
304 2 3.60456 4.17338 16.7008
299 2 3.89838 0.753048 14.6687
300 2 2.31766 1.95996 13.6688
298 1 3.68443 3.51487 15.7446
297 1 2.48922 0.94777 14.164
120 3 5.97669 1.97401 16.0146
55 4 11.0286 4.16383 13.0485
352 2 8.73248 6.00569 14.3917
267 2 8.82745 5.18877 8.89981
177 3 11.8362 5.37637 13.9736
56 4 9.75159 6.47872 11.0907
51 4 9.90683 5.99716 16.7621
179 3 8.50827 6.40773 10.1272
223 2 7.48794 4.61338 16.8505
172 3 6.39109 5.42186 8.5163
48 4 9.96035 1.9304 14.8954
73 1 7.23242 3.19434 12.7942
154 3 8.63182 1.99058 10.609
160 3 8.61193 2.11074 16.0078
180 3 10.0068 5.02379 12.1818
224 2 6.33613 3.8937 12.6742
225 2 8.24187 3.69046 12.4624
226 2 7.28132 2.63297 13.8079
350 1 8.55587 5.64786 15.4789
351 2 8.70859 4.48157 15.5214
175 3 10.1662 3.25563 14.0476
206 2 1.6144 0.539227 14.8977
302 2 2.72009 2.89051 15.6377
211 2 5.1857 -0.249284 16.1249
275 2 7.1747 6.73681 3.9531
326 2 8.444 12.5106 1.80615
361 2 10.6571 10.9513 2.14185
333 2 12.6358 10.6225 2.05084
332 1 11.6801 11.2799 1.72676
327 2 10.0012 12.7686 2.76634
15 4 13.2348 9.07474 7.40298
17 4 11.671 11.0584 5.69908
106 3 10.3998 11.0354 4.65743
107 3 11.8783 9.70449 6.62976
108 3 11.6153 12.4008 6.64499
133 3 12.9646 11.3291 4.71255
360 2 11.8147 12.3831 2.09986
293 2 11.4754 9.25572 1.67214
54 4 9.29989 7.25151 5.57557
13 4 8.77014 11.1156 3.94928
1 4 10.686 13.2052 7.95453
295 2 11.7808 7.70241 0.604518
35 4 14.3149 11.4292 3.82242
132 3 14.2295 12.6412 2.82629
324 1 8.87382 12.5879 2.87539
289 1 11.2265 8.12178 1.54701
188 3 8.93431 9.68466 8.33584
246 2 5.91397 7.6167 6.16357
329 2 9.02661 9.87933 -0.00977549
269 2 10.6517 8.01819 7.67063
287 4 11.4137 6.94504 2.99952
276 2 5.87788 6.65119 2.50495
229 2 5.49928 8.06262 0.161402
316 2 6.98438 12.1185 0.668786
294 2 10.0534 7.9924 1.32384
174 3 10.2979 7.36935 4.34955
274 2 5.89025 8.22962 3.58436
277 2 5.52923 9.21358 1.48619
365 2 6.58261 10.8526 1.09492
91 1 6.46 9.65246 0.950639
88 1 10.2145 7.08404 7.20596
193 3 6.49757 10.1994 7.00151
186 3 7.02563 7.87935 8.33443
191 3 7.57315 11.5228 4.86177
187 3 8.20919 8.31394 5.93089
182 3 8.2688 9.67293 2.91727
181 3 8.39475 7.59661 0.999929
90 1 6.50376 7.37782 3.15109
57 4 7.62986 8.53746 2.0419
59 4 7.64521 9.12519 7.46774
331 2 10.1527 10.2886 15.175
144 3 15.2366 12.3158 14.5699
68 1 11.6816 12.8712 16.5756
212 2 10.9585 12.5794 15.6664
334 1 9.31155 11.0815 13.5028
357 2 10.3521 11.1371 13.9449
105 3 9.7855 12.1122 8.64899
14 4 12.1848 11.1208 16.8518
18 4 13.4523 8.74314 13.1799
19 4 11.7413 10.7387 11.0351
109 3 12.5224 7.97962 14.2566
112 3 12.4954 9.72223 12.1191
113 3 12.2334 12.5576 13.2573
137 3 12.809 11.1348 9.9688
145 3 13.5491 10.8158 16.115
66 1 11.6527 12.4518 12.1601
111 3 10.2969 10.3814 10.5733
356 2 11.8701 13.0517 11.0664
37 4 14.3399 11.2097 9.4448
26 4 16.0668 13.1137 13.3863
330 2 11.2888 9.03762 15.9621
328 1 10.6232 9.86316 16.2915
136 3 14.7526 12.6436 8.81656
286 2 7.01739 9.00799 11.3019
272 2 10.2244 8.62373 12.0674
167 3 11.0627 6.73913 16.0267
349 2 9.37295 11.4407 16.609
74 1 5.8293 6.73237 16.7525
227 2 5.7546 6.77089 15.5496
285 2 7.1716 9.27379 13.1524
271 2 8.31079 8.46264 12.2623
273 2 9.46931 7.36678 13.2537
53 4 6.83055 6.74995 9.3502
198 3 7.7536 11.1841 10.3394
94 1 6.60055 9.55639 12.232
11 4 12.2928 6.56619 14.947
89 1 9.33575 7.91388 12.2766
366 2 7.45883 9.02244 16.9772
16 4 9.04065 10.8661 9.39568
337 2 8.32002 12.3604 13.9291
250 2 8.212 8.22301 14.0649
235 2 7.22192 9.60696 14.8441
173 3 5.81427 7.19352 10.5137
81 1 7.85772 8.66116 15.0443
249 2 7.1947 7.88284 15.7098
248 2 8.84045 9.05485 15.6567
178 3 11.2238 6.9716 10.5234
339 2 9.34932 10.7989 12.4265
335 2 8.71956 10.1855 14.0679
346 1 8.55097 12.2766 16.9507
33 4 4.66143 6.91809 11.5233
309 2 15.2658 0.204137 1.72835
319 2 12.9719 4.67595 0.641951
306 1 14.3545 0.852188 2.04174
307 3 12.0803 0.75555 0.705417
260 2 12.4228 2.35745 3.35876
149 3 8.96336 0.669605 2.61552
170 3 11.3985 3.60554 6.57607
165 3 11.054 3.12181 0.989253
156 3 12.3186 1.02406 6.62015
85 1 13.0376 2.60915 4.32391
305 4 12.9475 0.0989602 1.7976
46 4 11.7049 2.06519 5.57838
262 2 13.0441 3.73414 4.6032
52 4 10.9367 3.99729 8.07407
261 2 14.0393 2.05904 4.45089
308 2 14.2893 2.04555 2.23988
205 2 15.3597 1.02742 3.86912
155 3 10.4477 1.76731 4.71157
355 2 15.1019 1.39305 5.63927
209 2 12.8427 4.63587 6.42638
44 4 13.1681 -0.0474134 7.49277
254 2 13.0753 5.51764 3.35958
244 2 18.3629 4.65564 7.95366
208 2 13.4903 6.12671 7.20084
67 1 13.7778 5.29629 6.49774
359 2 14.7222 4.00533 0.214895
97 3 14.4718 3.22323 8.09178
291 2 15.6528 4.71907 3.74712
317 1 14.1217 4.93791 0.560177
3 4 16.8339 2.96131 4.78422
8 4 15.2104 4.30568 7.29089
64 1 16.4066 4.00691 3.29242
336 2 15.1023 2.4263 0.572345
98 3 16.0949 3.68671 6.07241
201 2 15.9208 3.06615 2.7195
202 2 17.2334 4.54368 2.59521
203 2 17.4205 2.74952 2.00981
78 1 18.1225 6.4142 5.5321
342 1 18.5138 5.53567 1.31121
343 2 18.6582 6.07249 2.29596
239 2 18.2077 5.98014 4.35514
318 2 14.5552 5.37513 1.56095
65 1 15.8726 1.18202 4.86786
125 3 16.0186 5.2861 8.20454
241 2 17.5366 5.62696 6.15833
345 2 17.4326 5.33891 1.21546
207 2 14.1564 5.58451 5.47035