LAMMPS (2 Aug 2023 - Update 2)
  using 1 OpenMP thread(s) per MPI task
Reading data file ...
  triclinic box = (0 0 0) to (16.7222 13.589 17.3161) with tilt (-7.3464 -0.3071 -0.018)
WARNING: Triclinic box skew is large. LAMMPS will run inefficiently. (src/domain.cpp:220)
  2 by 1 by 2 MPI processor grid
  reading atoms ...
  386 atoms
Finding 1-2 1-3 1-4 neighbors ...
  special bond factors lj:    0        0        0       
  special bond factors coul:  0        0        0       
     0 = max # of 1-2 neighbors
     0 = max # of 1-3 neighbors
     0 = max # of 1-4 neighbors
     1 = max # of special neighbors
  special bonds CPU = 0.001 seconds
  read_data CPU = 0.044 seconds
WARNING: Van der Waals parameters for element SI indicate inner wall+shielding, but earlier atoms indicate a different van der Waals method. This may cause division-by-zero errors. Keeping van der Waals setting for earlier atoms. (src/REAXFF/reaxff_ffield.cpp:251)
*****Minimization starts.*****

CITE-CITE-CITE-CITE-CITE-CITE-CITE-CITE-CITE-CITE-CITE-CITE-CITE

Your simulation uses code contributions which should be cited:
- pair reaxff command: doi:10.1016/j.parco.2011.08.005
- fix qeq/reaxff command: doi:10.1016/j.parco.2011.08.005
The log file lists these citations in BibTeX format.

CITE-CITE-CITE-CITE-CITE-CITE-CITE-CITE-CITE-CITE-CITE-CITE-CITE

Switching to 'neigh_modify every 1 delay 0 check yes' setting during minimization
WARNING: Fix qeq/reaxff group is not charge neutral, net charge = -0.82 (src/REAXFF/fix_qeq_reaxff.cpp:392)
Neighbor list info ...
  update: every = 1 steps, delay = 0 steps, check = yes
  max neighbors/atom: 2000, page size: 100000
  master list distance cutoff = 12
  ghost atom cutoff = 12
  binsize = 6, bins = 5 3 3
  2 neighbor lists, perpetual/occasional/extra = 2 0 0
  (1) pair reaxff, perpetual
      attributes: half, newton off, ghost
      pair build: half/bin/newtoff/ghost
      stencil: full/ghost/bin/3d
      bin: standard
  (2) fix qeq/reaxff, perpetual, copy from (1)
      attributes: half, newton off
      pair build: copy
      stencil: none
      bin: none
Setting up cg style minimization ...
  Unit style    : real
  Current step  : 0
Per MPI rank memory allocation (min/avg/max) = 163.3 | 165.2 | 167.3 Mbytes
   Step          Temp          Press         Density         Volume         PotEng         TotEng    
         0   0              191465.71      1.7215889      3934.8755     -35522.347     -35522.347    
        21   0              29399.619      1.7215889      3934.8755     -38002.156     -38002.156    
Loop time of 4.77586 on 4 procs for 21 steps with 386 atoms

89.4% CPU use with 4 MPI tasks x 1 OpenMP threads

Minimization stats:
  Stopping criterion = energy tolerance
  Energy initial, next-to-last, final = 
     -35522.3470973834  -38002.1510517603  -38002.1563268602
  Force two-norm initial, final = 4367.2495 510.79514
  Force max component initial, final = 823.44362 214.80031
  Final line search alpha, max atom move = 0.0003507811 0.075347889
  Iterations, force evaluations = 21 48

MPI task timing breakdown:
Section |  min time  |  avg time  |  max time  |%varavg| %total
---------------------------------------------------------------
Pair    | 2.6047     | 2.9076     | 3.5457     |  22.0 | 60.88
Bond    | 0.00013263 | 0.0001514  | 0.00016734 |   0.0 |  0.00
Neigh   | 0          | 0          | 0          |   0.0 |  0.00
Comm    | 0.23428    | 0.87428    | 1.1791     |  40.2 | 18.31
Output  | 0.025713   | 0.026289   | 0.0272     |   0.3 |  0.55
Modify  | 0.94394    | 0.95409    | 0.96425    |   1.0 | 19.98
Other   |            | 0.01344    |            |       |  0.28

Nlocal:           96.5 ave         107 max          90 min
Histogram: 1 1 0 1 0 0 0 0 0 1
Nghost:           4182 ave        4231 max        4146 min
Histogram: 2 0 0 0 0 0 1 0 0 1
Neighs:        64325.2 ave       70744 max       60487 min
Histogram: 1 1 0 1 0 0 0 0 0 1

Total # of neighbors = 257301
Ave neighs/atom = 666.5829
Ave special neighs/atom = 0
Neighbor list builds = 0
Dangerous builds = 0
System init for write_data ...
##### Equilibration starts.##### 
WARNING: Compute rdf cutoff less than neighbor cutoff - forcing a needless neighbor list build (src/compute_rdf.cpp:179)
Neighbor list info ...
  update: every = 10 steps, delay = 0 steps, check = yes
  max neighbors/atom: 2000, page size: 100000
  master list distance cutoff = 12
  ghost atom cutoff = 12
  binsize = 6, bins = 5 3 3
  3 neighbor lists, perpetual/occasional/extra = 2 1 0
  (1) pair reaxff, perpetual
      attributes: half, newton off, ghost
      pair build: half/bin/newtoff/ghost
      stencil: full/ghost/bin/3d
      bin: standard
  (2) compute rdf, occasional
      attributes: half, newton on, cut 7
      pair build: half/bin/newton/tri
      stencil: half/bin/3d/tri
      bin: standard
  (3) fix qeq/reaxff, perpetual, copy from (1)
      attributes: half, newton off
      pair build: copy
      stencil: none
      bin: none
Setting up Verlet run ...
  Unit style    : real
  Current step  : 0
  Time step     : 0.5
Per MPI rank memory allocation (min/avg/max) = 168.2 | 170.1 | 172.1 Mbytes
   Step          Temp          Press          PotEng         TotEng    
         0   300            33398.564     -38002.157     -37657.873    
       100   254.2043       13311.469     -37907.274     -37615.547    
Loop time of 5.77597 on 4 procs for 100 steps with 386 atoms

Performance: 0.748 ns/day, 32.089 hours/ns, 17.313 timesteps/s, 6.683 katom-step/s
98.7% CPU use with 4 MPI tasks x 1 OpenMP threads

MPI task timing breakdown:
Section |  min time  |  avg time  |  max time  |%varavg| %total
---------------------------------------------------------------
Pair    | 4.4509     | 4.7009     | 5.045      |  11.0 | 81.39
Bond    | 0.00028901 | 0.00029628 | 0.00031331 |   0.0 |  0.01
Neigh   | 0          | 0          | 0          |   0.0 |  0.00
Comm    | 0.17801    | 0.52216    | 0.77246    |  32.9 |  9.04
Output  | 0.00040773 | 0.00094895 | 0.00152    |   0.0 |  0.02
Modify  | 0.54787    | 0.5481     | 0.54839    |   0.0 |  9.49
Other   |            | 0.003555   |            |       |  0.06

Nlocal:           96.5 ave         105 max          91 min
Histogram: 1 0 1 1 0 0 0 0 0 1
Nghost:         4191.5 ave        4237 max        4154 min
Histogram: 2 0 0 0 0 0 0 1 0 1
Neighs:          64296 ave       69439 max       61086 min
Histogram: 1 1 0 1 0 0 0 0 0 1

Total # of neighbors = 257184
Ave neighs/atom = 666.27979
Ave special neighs/atom = 0
Neighbor list builds = 0
Dangerous builds = 0
System init for write_data ...
WARNING: Compute rdf cutoff less than neighbor cutoff - forcing a needless neighbor list build (src/compute_rdf.cpp:179)
Total wall time: 0:00:10
