LAMMPS (2 Aug 2023 - Update 2)
  using 1 OpenMP thread(s) per MPI task
Reading data file ...
  triclinic box = (0 0 0) to (15.3172 13.8463 18.3222) with tilt (-7.7318 0.2463 -0.1382)
WARNING: Triclinic box skew is large. LAMMPS will run inefficiently. (src/domain.cpp:220)
  1 by 2 by 2 MPI processor grid
  reading atoms ...
  365 atoms
Finding 1-2 1-3 1-4 neighbors ...
  special bond factors lj:    0        0        0       
  special bond factors coul:  0        0        0       
     0 = max # of 1-2 neighbors
     0 = max # of 1-3 neighbors
     0 = max # of 1-4 neighbors
     1 = max # of special neighbors
  special bonds CPU = 0.000 seconds
  read_data CPU = 0.006 seconds
WARNING: Van der Waals parameters for element SI indicate inner wall+shielding, but earlier atoms indicate a different van der Waals method. This may cause division-by-zero errors. Keeping van der Waals setting for earlier atoms. (src/REAXFF/reaxff_ffield.cpp:251)
*****Minimization starts.*****

CITE-CITE-CITE-CITE-CITE-CITE-CITE-CITE-CITE-CITE-CITE-CITE-CITE

Your simulation uses code contributions which should be cited:
- pair reaxff command: doi:10.1016/j.parco.2011.08.005
- fix qeq/reaxff command: doi:10.1016/j.parco.2011.08.005
The log file lists these citations in BibTeX format.

CITE-CITE-CITE-CITE-CITE-CITE-CITE-CITE-CITE-CITE-CITE-CITE-CITE

Switching to 'neigh_modify every 1 delay 0 check yes' setting during minimization
WARNING: Fix qeq/reaxff group is not charge neutral, net charge = -6.56 (src/REAXFF/fix_qeq_reaxff.cpp:392)
Neighbor list info ...
  update: every = 1 steps, delay = 0 steps, check = yes
  max neighbors/atom: 2000, page size: 100000
  master list distance cutoff = 12
  ghost atom cutoff = 12
  binsize = 6, bins = 4 3 4
  2 neighbor lists, perpetual/occasional/extra = 2 0 0
  (1) pair reaxff, perpetual
      attributes: half, newton off, ghost
      pair build: half/bin/newtoff/ghost
      stencil: full/ghost/bin/3d
      bin: standard
  (2) fix qeq/reaxff, perpetual, copy from (1)
      attributes: half, newton off
      pair build: copy
      stencil: none
      bin: none
Setting up cg style minimization ...
  Unit style    : real
  Current step  : 0
Per MPI rank memory allocation (min/avg/max) = 156.3 | 157.7 | 158.8 Mbytes
   Step          Temp          Press         Density         Volume         PotEng         TotEng    
         0   0              172056.5       1.701333       3885.8921     -32797.121     -32797.121    
        77   0              1211.5092      1.701333       3885.8921     -35647.605     -35647.605    
Loop time of 19.7873 on 4 procs for 77 steps with 365 atoms

95.0% CPU use with 4 MPI tasks x 1 OpenMP threads

Minimization stats:
  Stopping criterion = energy tolerance
  Energy initial, next-to-last, final = 
      -32797.120824034  -35647.6025734452  -35647.6046846989
  Force two-norm initial, final = 4765.628 639.47105
  Force max component initial, final = 1232.8275 343.3193
  Final line search alpha, max atom move = 0.00018490621 0.063481871
  Iterations, force evaluations = 77 383

MPI task timing breakdown:
Section |  min time  |  avg time  |  max time  |%varavg| %total
---------------------------------------------------------------
Pair    | 13.524     | 14.186     | 14.974     |  13.8 | 71.69
Bond    | 0.00090759 | 0.0009616  | 0.0010434  |   0.0 |  0.00
Neigh   | 0          | 0          | 0          |   0.0 |  0.00
Comm    | 0.81557    | 1.5936     | 2.2453     |  40.6 |  8.05
Output  | 0.039501   | 0.044379   | 0.047039   |   1.4 |  0.22
Modify  | 3.9286     | 3.9295     | 3.9304     |   0.0 | 19.86
Other   |            | 0.03276    |            |       |  0.17

Nlocal:          91.25 ave          94 max          88 min
Histogram: 1 0 0 1 0 0 0 0 1 1
Nghost:        3988.25 ave        4016 max        3960 min
Histogram: 2 0 0 0 0 0 0 0 0 2
Neighs:          58228 ave       59964 max       56239 min
Histogram: 1 0 0 1 0 0 0 1 0 1

Total # of neighbors = 232912
Ave neighs/atom = 638.11507
Ave special neighs/atom = 0
Neighbor list builds = 0
Dangerous builds = 0
System init for write_data ...
##### Equilibration starts.##### 
WARNING: Compute rdf cutoff less than neighbor cutoff - forcing a needless neighbor list build (src/compute_rdf.cpp:179)
Neighbor list info ...
  update: every = 10 steps, delay = 0 steps, check = yes
  max neighbors/atom: 2000, page size: 100000
  master list distance cutoff = 12
  ghost atom cutoff = 12
  binsize = 6, bins = 4 3 4
  3 neighbor lists, perpetual/occasional/extra = 2 1 0
  (1) pair reaxff, perpetual
      attributes: half, newton off, ghost
      pair build: half/bin/newtoff/ghost
      stencil: full/ghost/bin/3d
      bin: standard
  (2) compute rdf, occasional
      attributes: half, newton on, cut 7
      pair build: half/bin/newton/tri
      stencil: half/bin/3d/tri
      bin: standard
  (3) fix qeq/reaxff, perpetual, copy from (1)
      attributes: half, newton off
      pair build: copy
      stencil: none
      bin: none
Setting up Verlet run ...
  Unit style    : real
  Current step  : 0
  Time step     : 0.5
Per MPI rank memory allocation (min/avg/max) = 161.1 | 162.4 | 163.6 Mbytes
   Step          Temp          Press          PotEng         TotEng    
         0   300            5040.552      -35647.605     -35322.1      
       100   209.47912      15460.345     -35510.262     -35282.974    
Loop time of 2.56911 on 4 procs for 100 steps with 365 atoms

Performance: 1.682 ns/day, 14.273 hours/ns, 38.924 timesteps/s, 14.207 katom-step/s
98.9% CPU use with 4 MPI tasks x 1 OpenMP threads

MPI task timing breakdown:
Section |  min time  |  avg time  |  max time  |%varavg| %total
---------------------------------------------------------------
Pair    | 2.0679     | 2.1316     | 2.1645     |   2.7 | 82.97
Bond    | 0.00015211 | 0.00016025 | 0.00016622 |   0.0 |  0.01
Neigh   | 0.023606   | 0.023695   | 0.023782   |   0.0 |  0.92
Comm    | 0.025907   | 0.058699   | 0.12239    |  16.2 |  2.28
Output  | 0.00032714 | 0.00067229 | 0.0012418  |   0.0 |  0.03
Modify  | 0.35142    | 0.35151    | 0.35162    |   0.0 | 13.68
Other   |            | 0.002747   |            |       |  0.11

Nlocal:          91.25 ave          92 max          89 min
Histogram: 1 0 0 0 0 0 0 0 0 3
Nghost:         3972.5 ave        3994 max        3951 min
Histogram: 1 1 0 0 0 0 0 0 1 1
Neighs:          58217 ave       58741 max       56756 min
Histogram: 1 0 0 0 0 0 0 0 0 3

Total # of neighbors = 232868
Ave neighs/atom = 637.99452
Ave special neighs/atom = 0
Neighbor list builds = 1
Dangerous builds = 0
System init for write_data ...
WARNING: Compute rdf cutoff less than neighbor cutoff - forcing a needless neighbor list build (src/compute_rdf.cpp:179)
Total wall time: 0:00:22
