LAMMPS (2 Aug 2023 - Update 2)
  using 1 OpenMP thread(s) per MPI task
Reading data file ...
  triclinic box = (0 0 0) to (17.1722 13.1279 17.5867) with tilt (-8.382 0.0305 0.3027)
WARNING: Triclinic box skew is large. LAMMPS will run inefficiently. (src/domain.cpp:220)
  2 by 1 by 2 MPI processor grid
  reading atoms ...
  362 atoms
Finding 1-2 1-3 1-4 neighbors ...
  special bond factors lj:    0        0        0       
  special bond factors coul:  0        0        0       
     0 = max # of 1-2 neighbors
     0 = max # of 1-3 neighbors
     0 = max # of 1-4 neighbors
     1 = max # of special neighbors
  special bonds CPU = 0.000 seconds
  read_data CPU = 0.006 seconds
WARNING: Van der Waals parameters for element SI indicate inner wall+shielding, but earlier atoms indicate a different van der Waals method. This may cause division-by-zero errors. Keeping van der Waals setting for earlier atoms. (src/REAXFF/reaxff_ffield.cpp:251)
*****Minimization starts.*****

CITE-CITE-CITE-CITE-CITE-CITE-CITE-CITE-CITE-CITE-CITE-CITE-CITE

Your simulation uses code contributions which should be cited:
- pair reaxff command: doi:10.1016/j.parco.2011.08.005
- fix qeq/reaxff command: doi:10.1016/j.parco.2011.08.005
The log file lists these citations in BibTeX format.

CITE-CITE-CITE-CITE-CITE-CITE-CITE-CITE-CITE-CITE-CITE-CITE-CITE

Switching to 'neigh_modify every 1 delay 0 check yes' setting during minimization
WARNING: Fix qeq/reaxff group is not charge neutral, net charge = -7.38 (src/REAXFF/fix_qeq_reaxff.cpp:392)
Neighbor list info ...
  update: every = 1 steps, delay = 0 steps, check = yes
  max neighbors/atom: 2000, page size: 100000
  master list distance cutoff = 12
  ghost atom cutoff = 12
  binsize = 6, bins = 5 3 3
  2 neighbor lists, perpetual/occasional/extra = 2 0 0
  (1) pair reaxff, perpetual
      attributes: half, newton off, ghost
      pair build: half/bin/newtoff/ghost
      stencil: full/ghost/bin/3d
      bin: standard
  (2) fix qeq/reaxff, perpetual, copy from (1)
      attributes: half, newton off
      pair build: copy
      stencil: none
      bin: none
Setting up cg style minimization ...
  Unit style    : real
  Current step  : 0
Per MPI rank memory allocation (min/avg/max) = 159.7 | 160.9 | 162.2 Mbytes
   Step          Temp          Press         Density         Volume         PotEng         TotEng    
         0   0              179799.59      1.6616584      3964.6564     -32369.652     -32369.652    
        39   0             -3711.8956      1.6616584      3964.6564     -35236.953     -35236.953    
Loop time of 6.44678 on 4 procs for 39 steps with 362 atoms

95.9% CPU use with 4 MPI tasks x 1 OpenMP threads

Minimization stats:
  Stopping criterion = energy tolerance
  Energy initial, next-to-last, final = 
     -32369.6516123212  -35236.9335244483  -35236.9529117294
  Force two-norm initial, final = 4319.6543 194.41365
  Force max component initial, final = 572.55529 70.906701
  Final line search alpha, max atom move = 0.0038907978 0.27588364
  Iterations, force evaluations = 39 97

MPI task timing breakdown:
Section |  min time  |  avg time  |  max time  |%varavg| %total
---------------------------------------------------------------
Pair    | 4.8362     | 4.9141     | 5.0282     |   3.3 | 76.22
Bond    | 0.00028349 | 0.00029735 | 0.00031198 |   0.0 |  0.00
Neigh   | 0          | 0          | 0          |   0.0 |  0.00
Comm    | 0.22471    | 0.33895    | 0.41681    |  12.6 |  5.26
Output  | 0.014698   | 0.01711    | 0.01853    |   1.1 |  0.27
Modify  | 1.1679     | 1.168      | 1.168      |   0.0 | 18.12
Other   |            | 0.008406   |            |       |  0.13

Nlocal:           90.5 ave          96 max          81 min
Histogram: 1 0 0 0 0 0 0 1 1 1
Nghost:        4079.25 ave        4110 max        4040 min
Histogram: 1 0 0 0 0 1 0 1 0 1
Neighs:        56049.2 ave       58901 max       50722 min
Histogram: 1 0 0 0 0 0 0 1 1 1

Total # of neighbors = 224197
Ave neighs/atom = 619.32873
Ave special neighs/atom = 0
Neighbor list builds = 0
Dangerous builds = 0
System init for write_data ...
##### Equilibration starts.##### 
WARNING: Compute rdf cutoff less than neighbor cutoff - forcing a needless neighbor list build (src/compute_rdf.cpp:179)
Neighbor list info ...
  update: every = 10 steps, delay = 0 steps, check = yes
  max neighbors/atom: 2000, page size: 100000
  master list distance cutoff = 12
  ghost atom cutoff = 12
  binsize = 6, bins = 5 3 3
  3 neighbor lists, perpetual/occasional/extra = 2 1 0
  (1) pair reaxff, perpetual
      attributes: half, newton off, ghost
      pair build: half/bin/newtoff/ghost
      stencil: full/ghost/bin/3d
      bin: standard
  (2) compute rdf, occasional
      attributes: half, newton on, cut 7
      pair build: half/bin/newton/tri
      stencil: half/bin/3d/tri
      bin: standard
  (3) fix qeq/reaxff, perpetual, copy from (1)
      attributes: half, newton off
      pair build: copy
      stencil: none
      bin: none
Setting up Verlet run ...
  Unit style    : real
  Current step  : 0
  Time step     : 0.5
Per MPI rank memory allocation (min/avg/max) = 163.8 | 165.4 | 167.1 Mbytes
   Step          Temp          Press          PotEng         TotEng    
         0   300            10.531065     -35236.953     -34914.131    
       100   203.26422      1036.2669     -35094.527     -34875.8      
Loop time of 5.92725 on 4 procs for 100 steps with 362 atoms

Performance: 0.729 ns/day, 32.929 hours/ns, 16.871 timesteps/s, 6.107 katom-step/s
97.5% CPU use with 4 MPI tasks x 1 OpenMP threads

MPI task timing breakdown:
Section |  min time  |  avg time  |  max time  |%varavg| %total
---------------------------------------------------------------
Pair    | 4.7881     | 4.9172     | 4.9907     |   3.7 | 82.96
Bond    | 0.00029138 | 0.00030121 | 0.00030968 |   0.0 |  0.01
Neigh   | 0.027634   | 0.036268   | 0.039973   |   2.6 |  0.61
Comm    | 0.35973    | 0.43305    | 0.56198    |  12.5 |  7.31
Output  | 0.00059037 | 0.0010981  | 0.0019221  |   1.7 |  0.02
Modify  | 0.53172    | 0.53546    | 0.54419    |   0.7 |  9.03
Other   |            | 0.003857   |            |       |  0.07

Nlocal:           90.5 ave          95 max          81 min
Histogram: 1 0 0 0 0 0 0 0 2 1
Nghost:         4037.5 ave        4054 max        4018 min
Histogram: 1 0 0 0 0 2 0 0 0 1
Neighs:        56022.5 ave       58209 max       50745 min
Histogram: 1 0 0 0 0 0 0 0 0 3

Total # of neighbors = 224090
Ave neighs/atom = 619.03315
Ave special neighs/atom = 0
Neighbor list builds = 1
Dangerous builds = 0
System init for write_data ...
WARNING: Compute rdf cutoff less than neighbor cutoff - forcing a needless neighbor list build (src/compute_rdf.cpp:179)
Total wall time: 0:00:12
