LAMMPS (2 Aug 2023 - Update 2)
  using 2 OpenMP thread(s) per MPI task
Reading data file ...
  triclinic box = (0 0 0) to (17.3186 12.8149 18.6403) with tilt (-8.851 0.4589 0.2054)
WARNING: Triclinic box skew is large. LAMMPS will run inefficiently. (src/domain.cpp:220)
  2 by 1 by 2 MPI processor grid
  reading atoms ...
  371 atoms
Finding 1-2 1-3 1-4 neighbors ...
  special bond factors lj:    0        0        0       
  special bond factors coul:  0        0        0       
     0 = max # of 1-2 neighbors
     0 = max # of 1-3 neighbors
     0 = max # of 1-4 neighbors
     1 = max # of special neighbors
  special bonds CPU = 0.000 seconds
  read_data CPU = 0.006 seconds
WARNING: Van der Waals parameters for element SI indicate inner wall+shielding, but earlier atoms indicate a different van der Waals method. This may cause division-by-zero errors. Keeping van der Waals setting for earlier atoms. (src/REAXFF/reaxff_ffield.cpp:251)
*****Minimization starts.*****

CITE-CITE-CITE-CITE-CITE-CITE-CITE-CITE-CITE-CITE-CITE-CITE-CITE

Your simulation uses code contributions which should be cited:
- pair reaxff command: doi:10.1016/j.parco.2011.08.005
- fix qeq/reaxff command: doi:10.1016/j.parco.2011.08.005
The log file lists these citations in BibTeX format.

CITE-CITE-CITE-CITE-CITE-CITE-CITE-CITE-CITE-CITE-CITE-CITE-CITE

Switching to 'neigh_modify every 1 delay 0 check yes' setting during minimization
WARNING: Fix qeq/reaxff group is not charge neutral, net charge = -4.92 (src/REAXFF/fix_qeq_reaxff.cpp:392)
Neighbor list info ...
  update: every = 1 steps, delay = 0 steps, check = yes
  max neighbors/atom: 2000, page size: 100000
  master list distance cutoff = 12
  ghost atom cutoff = 12
  binsize = 6, bins = 5 3 4
  2 neighbor lists, perpetual/occasional/extra = 2 0 0
  (1) pair reaxff, perpetual
      attributes: half, newton off, ghost
      pair build: half/bin/newtoff/ghost
      stencil: full/ghost/bin/3d
      bin: standard
  (2) fix qeq/reaxff, perpetual, copy from (1)
      attributes: half, newton off
      pair build: copy
      stencil: none
      bin: none
Setting up cg style minimization ...
  Unit style    : real
  Current step  : 0
Per MPI rank memory allocation (min/avg/max) = 160.5 | 162.3 | 164.1 Mbytes
   Step          Temp          Press         Density         Volume         PotEng         TotEng    
         0   0              147799.14      1.6093426      4136.956      -33205.282     -33205.282    
        32   0             -6921.1729      1.6093426      4136.956      -36313.713     -36313.713    
Loop time of 7.50842 on 8 procs for 32 steps with 371 atoms

82.4% CPU use with 4 MPI tasks x 2 OpenMP threads

Minimization stats:
  Stopping criterion = energy tolerance
  Energy initial, next-to-last, final = 
     -33205.2820362564  -36313.6905712945  -36313.7126279815
  Force two-norm initial, final = 4390.0473 102.57319
  Force max component initial, final = 1049.7545 22.961354
  Final line search alpha, max atom move = 0.0039042588 0.089647068
  Iterations, force evaluations = 32 71

MPI task timing breakdown:
Section |  min time  |  avg time  |  max time  |%varavg| %total
---------------------------------------------------------------
Pair    | 3.4851     | 3.872      | 4.1139     |  11.9 | 51.57
Bond    | 0.00020555 | 0.00021567 | 0.00022915 |   0.0 |  0.00
Neigh   | 0          | 0          | 0          |   0.0 |  0.00
Comm    | 1.0208     | 1.1303     | 1.3712     |  13.5 | 15.05
Output  | 0.097858   | 0.10905    | 0.12304    |   3.0 |  1.45
Modify  | 2.1356     | 2.2064     | 2.2673     |   4.1 | 29.39
Other   |            | 0.1904     |            |       |  2.54

Nlocal:          92.75 ave          98 max          85 min
Histogram: 1 0 0 0 0 0 1 1 0 1
Nghost:           4091 ave        4146 max        4042 min
Histogram: 1 0 1 0 0 0 1 0 0 1
Neighs:        56260.8 ave       59392 max       51728 min
Histogram: 1 0 0 0 0 1 0 1 0 1

Total # of neighbors = 225043
Ave neighs/atom = 606.58491
Ave special neighs/atom = 0
Neighbor list builds = 0
Dangerous builds = 0
System init for write_data ...
##### Equilibration starts.##### 
WARNING: Compute rdf cutoff less than neighbor cutoff - forcing a needless neighbor list build (src/compute_rdf.cpp:179)
Neighbor list info ...
  update: every = 10 steps, delay = 0 steps, check = yes
  max neighbors/atom: 2000, page size: 100000
  master list distance cutoff = 12
  ghost atom cutoff = 12
  binsize = 6, bins = 5 3 4
  3 neighbor lists, perpetual/occasional/extra = 2 1 0
  (1) pair reaxff, perpetual
      attributes: half, newton off, ghost
      pair build: half/bin/newtoff/ghost
      stencil: full/ghost/bin/3d
      bin: standard
  (2) compute rdf, occasional
      attributes: half, newton on, cut 7
      pair build: half/bin/newton/tri
      stencil: half/bin/3d/tri
      bin: standard
  (3) fix qeq/reaxff, perpetual, copy from (1)
      attributes: half, newton off
      pair build: copy
      stencil: none
      bin: none
Setting up Verlet run ...
  Unit style    : real
  Current step  : 0
  Time step     : 0.5
Per MPI rank memory allocation (min/avg/max) = 165.7 | 167.3 | 169.4 Mbytes
   Step          Temp          Press          PotEng         TotEng    
         0   300           -3265.4346     -36313.713     -35982.843    
       100   235.193       -659.2372      -36202.611     -35943.217    
       200   259.7285      -5171.8925     -36169.854     -35883.4      
       300   307.04865     -14455.967     -36172.753     -35834.109    
       400   388.2954       8271.7131     -36297.237     -35868.986    
       500   394.52996     -2167.0694     -36426.558     -35991.431    
       600   338.6296       1440.2162     -36470.498     -36097.023    
       700   322.55134     -7563.2476     -36533.102     -36177.36     
       800   282.22773     -502.6201      -36549.454     -36238.185    
       900   286.52503     -6086.3177     -36590.909     -36274.901    
      1000   282.22743     -3175.6022     -36596.559     -36285.29     
      1100   306.72633     -9115.3702     -36598.713     -36260.424    
      1200   308.60653     -5370.0442     -36572.079     -36231.717    
      1300   315.7993      -2744.5346     -36576.837     -36228.543    
      1400   299.80179      3779.4991     -36604.306     -36273.655    
      1500   308.44705     -9828.2477     -36654.314     -36314.128    
      1600   291.29296      1362.1525     -36676.741     -36355.475    
      1700   292.31301     -6192.0214     -36712.423     -36390.031    
      1800   300.90462      5786.3334     -36763.869     -36432.001    
      1900   293.23982     -1230.8132     -36773.85      -36450.435    
      2000   306.71112      6341.1706     -36789.775     -36451.504    
      2100   295.17261      1990.1783     -36775.382     -36449.836    
      2200   303.85051      2340.2594     -36775.691     -36440.574    
      2300   323.52165      2723.1961     -36796.415     -36439.603    
      2400   316.07932      5504.1313     -36826.638     -36478.034    
      2500   306.66188     -11696.029     -36843.662     -36505.445    
      2600   315.73305      1780.3754     -36887.699     -36539.477    
      2700   344.41534     -1313.6262     -36959.34      -36579.484    
      2800   340.36404     -512.71132     -37014.009     -36638.622    
      2900   309.39454     -5925.8044     -37041.231     -36700        
      3000   270.09703      931.0668      -37040.868     -36742.978    
      3100   293.041        1232.7799     -37087.732     -36764.537    
      3200   306.16923     -7865.5198     -37118.819     -36781.145    
      3300   328.24609      2685.5992     -37173.927     -36811.904    
      3400   324.33691     -6153.4891     -37201.786     -36844.074    
      3500   315.82472     -15673.936     -37219.148     -36870.825    
      3600   298.6228      -9054.7146     -37232.138     -36902.787    
      3700   291.23095      1201.46       -37245.478     -36924.279    
      3800   288.20027     -2069.49       -37246.868     -36929.012    
      3900   299.61204     -3875.3821     -37246.039     -36915.597    
      4000   295.17547      4274.426      -37214.132     -36888.583    
      4100   328.2235       6401.4598     -37233.65      -36871.653    
      4200   326.32984     -1494.459      -37276.049     -36916.139    
      4300   316.60929     -3260.4474     -37292.884     -36943.696    
      4400   323.36192     -5312.6359     -37329.821     -36973.186    
      4500   299.75768      5642.3265     -37321.633     -36991.031    
      4600   284.71757     -3185.3273     -37310.344     -36996.33     
      4700   305.52582     -2393.2888     -37320.136     -36983.172    
      4800   320.41961     -639.90105     -37305.17      -36951.779    
      4900   328.26982      11537.926     -37331.238     -36969.19     
      5000   338.44242      5702.7898     -37373.006     -36999.738    
      5100   293.08134      338.89555     -37356.345     -37033.105    
      5200   300.7636      -8658.1738     -37393.189     -37061.477    
      5300   290.33635      8698.8379     -37404.154     -37083.942    
      5400   303.89451     -1950.4636     -37421.031     -37085.866    
      5500   305.17425     -2193.6562     -37410.664     -37074.088    
      5600   312.4827       1287.672      -37395.702     -37051.065    
      5700   326.53152      7457.3234     -37423.399     -37063.267    
      5800   325.88048      4143.8058     -37474.925     -37115.512    
      5900   322.58808     -1111.1611     -37517.135     -37161.353    
      6000   308.52627      2636.5704     -37535.842     -37195.569    
      6100   292.75184     -13779.464     -37534.697     -37211.821    
      6200   277.67926     -12596.022     -37513.661     -37207.409    
      6300   283.8693      -3204.5862     -37494.687     -37181.608    
      6400   314.95103     -7605.0107     -37508.748     -37161.388    
      6500   303.08755     -4919.6252     -37507.914     -37173.639    
      6600   294.8896      -6267.0651     -37524.645     -37199.412    
      6700   290.08935     -3759.369      -37527.622     -37207.682    
      6800   303.39809      10551.236     -37540.48      -37205.862    
      6900   307.3949      -1667.8344     -37539.427     -37200.401    
      7000   288.03952     -1029.8817     -37538         -37220.321    
      7100   304.73121     -14337.779     -37572.518     -37236.43     
      7200   300.82942      2807.316      -37554.541     -37222.756    
      7300   311.11346     -6287.6144     -37530.013     -37186.886    
      7400   343.45695     -18633.983     -37559.843     -37181.045    
      7500   290.9106       5595.0618     -37530.785     -37209.94     
      7600   302.20417     -12170.55      -37556.328     -37223.027    
      7700   292.48775      4134.7533     -37549.616     -37227.031    
      7800   277.6327      -7334.8672     -37551.795     -37245.594    
      7900   268.08133     -3869.5793     -37566.524     -37270.857    
      8000   285.53406     -13923.359     -37613.813     -37298.898    
      8100   305.50441     -5476.9225     -37637.033     -37300.092    
      8200   296.87558     -1788.7331     -37614.362     -37286.938    
      8300   312.2779      -5682.3328     -37623.861     -37279.449    
      8400   303.66233     -7689.5702     -37623.187     -37288.278    
      8500   302.8667      -6189.4359     -37656.33      -37322.298    
      8600   282.43802     -12220.504     -37645.708     -37334.207    
      8700   286.47755     -6305.351      -37631.652     -37315.696    
      8800   290.09618      3911.6669     -37616.582     -37296.635    
      8900   312.0902       8949.8523     -37619.158     -37274.954    
      9000   297.22761      7316.6664     -37600.554     -37272.742    
      9100   285.3727       7948.2855     -37603.84      -37289.102    
      9200   302.89737     -14915.962     -37651.863     -37317.797    
      9300   291.50892     -4360.933      -37659.957     -37338.452    
      9400   284.0656       2589.7975     -37646.731     -37333.435    
      9500   306.02748      2426.1132     -37623.947     -37286.429    
      9600   311.61109     -2011.3214     -37639.107     -37295.431    
      9700   297.34323     -7940.3531     -37643.342     -37315.402    
      9800   292.83382     -10209.004     -37643.798     -37320.832    
      9900   297.96554     -9235.6116     -37649.204     -37320.578    
     10000   302.3061      -2449.6793     -37625.75      -37292.336    
     10100   315.37716     -13021.649     -37622.686     -37274.857    
     10200   305.42025     -4924.655      -37629.45      -37292.602    
     10300   289.07276     -13230.78      -37638.63      -37319.812    
     10400   308.56447      5962.3806     -37659.957     -37319.642    
     10500   291.43158     -2272.7059     -37641.366     -37319.947    
     10600   300.17929     -6726.4296     -37662.116     -37331.049    
     10700   291.42102      12699.579     -37680.965     -37359.557    
     10800   302.86227      1111.3078     -37709.811     -37375.784    
     10900   268.18388     -1957.819      -37689.932     -37394.152    
     11000   313.58316     -12901.522     -37708.655     -37362.804    
     11100   294.14639     -10666.594     -37664.133     -37339.719    
     11200   299.23689     -20779.879     -37668.231     -37338.202    
     11300   273.3598      -7212.8481     -37659.913     -37358.424    
     11400   294.50821     -12402.204     -37699.088     -37374.275    
     11500   308.94727     -1527.8822     -37708.571     -37367.833    
     11600   308.56781      1403.4805     -37666.784     -37326.465    
     11700   306.74503     -5707.1507     -37650.513     -37312.204    
     11800   304.38384      944.64855     -37665.6       -37329.895    
     11900   287.4182      -55.382685     -37668.209     -37351.216    
     12000   297.99435     -746.24003     -37691.838     -37363.18     
     12100   299.86321     -8821.7596     -37694.348     -37363.629    
     12200   299.35035     -1275.1142     -37690.607     -37360.454    
     12300   292.34194      1679.2466     -37695.086     -37372.662    
     12400   282.41791     -929.10576     -37700.851     -37389.372    
     12500   295.46062     -12670.874     -37703.703     -37377.84     
     12600   297.16703     -16455.302     -37678.955     -37351.21     
     12700   318.88116     -10328.039     -37689.21      -37337.516    
     12800   297.37978      3068.5863     -37666.092     -37338.112    
     12900   291.42846      2868.4664     -37686.955     -37365.539    
     13000   286.65803      9647.5679     -37713.676     -37397.521    
     13100   277.18982     -7488.591      -37699.187     -37393.474    
     13200   298.47998     -2644.1342     -37703.47      -37374.277    
     13300   323.34529     -6742.583      -37721.426     -37364.809    
     13400   289.6095      -9221.8566     -37714.297     -37394.886    
     13500   302.33429     -2722.1697     -37748.764     -37415.319    
     13600   276.99873     -8296.1879     -37719.841     -37414.339    
     13700   317.6767       3666.6065     -37742.052     -37391.686    
     13800   307.65555      3833.6521     -37729.691     -37390.378    
     13900   304.14309     -1365.0023     -37746.893     -37411.453    
     14000   293.01953     -11322.341     -37753.377     -37430.206    
     14100   266.35594     -29374.099     -37723.582     -37429.818    
     14200   305.40186      4346.7302     -37748.08      -37411.252    
     14300   317.53127     -7059.3591     -37745.507     -37395.302    
     14400   292.53681      4287.1434     -37726.921     -37404.283    
     14500   285.15111     -7958.4728     -37752.844     -37438.351    
     14600   305.97206     -2151.9114     -37779.184     -37441.728    
     14700   301.9541       1283.4661     -37771.604     -37438.579    
     14800   313.08354      732.68746     -37774.858     -37429.558    
     14900   295.86764      10119.334     -37727.928     -37401.615    
     15000   318.16718     -5826.4723     -37727.788     -37376.882    
     15100   314.13217     -2369.3569     -37740.802     -37394.345    
     15200   317.057       -6031.3305     -37767.924     -37418.242    
     15300   299.72291     -25005.434     -37764.662     -37434.098    
     15400   301.57014     -2332.9586     -37771.147     -37438.545    
     15500   293.262        2535.7399     -37754.011     -37430.573    
     15600   317.89268     -11449.274     -37741.636     -37391.032    
     15700   331.77893      10336.119     -37748.027     -37382.108    
     15800   301.35412      6316.702      -37736.113     -37403.75     
     15900   303.36775      374.16323     -37753.203     -37418.618    
     16000   306.24694      8000.4537     -37766.555     -37428.795    
     16100   294.93306      1817.2952     -37763.417     -37438.135    
     16200   296.46557     -4898.086      -37759.782     -37432.81     
     16300   311.59988     -11877.376     -37746.032     -37402.369    
     16400   318.55547     -12425.494     -37749.239     -37397.904    
     16500   306.01661     -5359.9481     -37764.594     -37427.088    
     16600   319.85206     -10929.214     -37803.31      -37450.545    
     16700   291.40563      2204.9645     -37778.69      -37457.299    
     16800   313.00047     -2803.7039     -37811.331     -37466.123    
     16900   288.69577     -18774.986     -37804.06      -37485.657    
     17000   269.39486      5494.925      -37810.644     -37513.529    
     17100   298.92163     -5943.2612     -37827.677     -37497.997    
     17200   306.1613      -12720.511     -37804.981     -37467.316    
     17300   307.56854     -7734.8673     -37797.161     -37457.944    
     17400   302.50415     -13451.952     -37784.788     -37451.156    
     17500   297.29497     -12165.515     -37780.443     -37452.557    
     17600   274.30128     -1144.9374     -37768.753     -37466.226    
     17700   280.78247     -2600.2898     -37785.711     -37476.036    
     17800   297.01839      6235.9472     -37798.763     -37471.181    
     17900   292.87685      753.47901     -37765.444     -37442.43     
     18000   318.8214      -15426.46      -37783.402     -37431.774    
     18100   309.45698     -12181.323     -37795.415     -37454.115    
     18200   291.00532     -23683.035     -37806.87      -37485.92     
     18300   302.49505     -12399.834     -37818.484     -37484.863    
     18400   310.96298      4924.2103     -37823.773     -37480.812    
     18500   285.50344     -2015.3246     -37789.386     -37474.504    
     18600   315.1001      -5796.1342     -37803.501     -37455.977    
     18700   320.5823       4039.0242     -37800.575     -37447.005    
     18800   285.59494     -5883.6613     -37797.654     -37482.671    
     18900   289.58907     -5850.4569     -37819.293     -37499.905    
     19000   311.82962     -4154.5047     -37844.285     -37500.368    
     19100   293.51958     -8243.7559     -37818.051     -37494.328    
     19200   313.97661     -16857.113     -37811.198     -37464.913    
     19300   313.72693     -6281.5545     -37806.157     -37460.147    
     19400   297.77442     -14087.104     -37819.19      -37490.775    
     19500   281.2903      -6093.5393     -37827.655     -37517.42     
     19600   300.21924      5767.6538     -37840.303     -37509.191    
     19700   290.79473     -9310.1675     -37815.206     -37494.489    
     19800   304.10497     -20921.364     -37807.393     -37471.996    
     19900   297.85943     -4663.1671     -37797.404     -37468.894    
     20000   309.30997     -1767.4424     -37819.86      -37478.722    
     20100   299.60157     -9456.7347     -37819.087     -37488.657    
     20200   281.89725      1609.0448     -37796.086     -37485.182    
     20300   332.45724     -5655.8125     -37830.642     -37463.975    
     20400   292.78435     -10444.278     -37794.148     -37471.236    
     20500   288.72118     -14758.933     -37811.357     -37492.927    
     20600   292.14419     -17645.178     -37831.373     -37509.167    
     20700   296.98141     -12895.788     -37828.262     -37500.721    
     20800   316.10498     -10678.659     -37811.341     -37462.709    
     20900   306.95554     -10422.206     -37793.989     -37455.448    
     21000   314.16409      1144.7866     -37816.964     -37470.472    
     21100   308.57645      6644.471      -37825.322     -37484.993    
     21200   282.16357     -354.00148     -37812.558     -37501.36     
     21300   295.42989     -7986.9209     -37817.865     -37492.035    
     21400   329.09976     -9093.261      -37816.359     -37453.395    
     21500   309.51146     -7903.6757     -37797.222     -37455.862    
     21600   313.58535     -12461.698     -37820.498     -37474.644    
     21700   294.93754     -11655.511     -37817.66      -37492.373    
     21800   301.30987     -3860.6739     -37830.35      -37498.035    
     21900   302.40229     -6780.2741     -37823.481     -37489.961    
     22000   318.0981      -17307.559     -37804.71      -37453.879    
     22100   315.14361     -8520.8276     -37800.621     -37453.049    
     22200   317.56174     -22912.781     -37831.113     -37480.874    
     22300   281.08196     -14714.237     -37801.031     -37491.026    
     22400   305.01123      3377.4506     -37824.732     -37488.335    
     22500   298.6741       3897.0313     -37808.58      -37479.172    
     22600   292.59981     -14109.608     -37785.204     -37462.496    
     22700   306.19541     -9871.9729     -37787.584     -37449.881    
     22800   305.42357     -4981.1272     -37803.313     -37466.461    
     22900   308.5314      -20489.903     -37838.982     -37498.703    
     23000   279.64463     -10055.444     -37817.271     -37508.851    
     23100   311.42625     -13202.347     -37835.721     -37492.249    
     23200   319.20391     -123.76742     -37825.672     -37473.622    
     23300   308.29498     -7445.6215     -37812.642     -37472.624    
     23400   280.23372     -2496.4605     -37820.875     -37511.805    
     23500   294.00559     -7574.9945     -37852.489     -37528.23     
     23600   283.90681     -15309.371     -37828.742     -37515.621    
     23700   298.28482      2272.5793     -37812.444     -37483.466    
     23800   302.07083     -2535.3072     -37805.823     -37472.669    
     23900   317.60504     -15909.11      -37825.512     -37475.225    
     24000   299.63129     -8159.0561     -37824.615     -37494.152    
     24100   275.15825      18526.635     -37821.063     -37517.592    
     24200   277.5611       14606.107     -37843.16      -37537.038    
     24300   290.77551     -12747.751     -37844.227     -37523.531    
     24400   297.69129     -23595.416     -37817.415     -37489.091    
     24500   294.19971     -11984.191     -37809.343     -37484.87     
     24600   309.80508     -9157.1667     -37838.682     -37496.998    
     24700   293.33351      4382.0431     -37845.28      -37521.763    
     24800   284.76594     -9808.4772     -37850.265     -37536.197    
     24900   292.13455     -11911.159     -37829.9       -37507.705    
     25000   320.4754      -11158.605     -37833.538     -37480.086    
     25100   323.59906     -5502.687      -37843.828     -37486.931    
     25200   310.36492     -20170.654     -37848.025     -37505.724    
     25300   299.18732     -16916.204     -37845.213     -37515.239    
     25400   293.2874      -5815.8747     -37824.61      -37501.143    
     25500   315.54509     -7535.6436     -37815.482     -37467.468    
     25600   303.66788     -10778.115     -37811.482     -37476.567    
     25700   290.63722      248.6793      -37823.227     -37502.683    
     25800   304.3975      -21435.1       -37846.125     -37510.405    
     25900   291.44199     -9853.0691     -37829.498     -37508.067    
     26000   298.38683     -5852.0742     -37810.116     -37481.025    
     26100   320.7894      -23927.024     -37806.73      -37452.932    
     26200   316.35195      1282.0192     -37820.053     -37471.149    
     26300   295.18918      1203.0979     -37819.246     -37493.682    
     26400   291.94437     -2261.6729     -37825.902     -37503.917    
     26500   290.63578     -12102.263     -37831.866     -37511.324    
     26600   269.49974     -6109.1363     -37820.649     -37523.418    
     26700   280.30697     -5550.8406     -37841.777     -37532.626    
     26800   289.92126     -7191.3288     -37829.722     -37509.968    
     26900   313.50961     -5779.6742     -37828.616     -37482.846    
     27000   293.76874     -2198.7746     -37804.341     -37480.344    
     27100   307.64937      1827.1725     -37837.689     -37498.383    
     27200   296.84543     -9206.2859     -37853.407     -37526.016    
     27300   281.60759      1986.0908     -37840.907     -37530.322    
     27400   294.69765     -11473.63      -37848.521     -37523.499    
     27500   307.63384     -21493.678     -37856.684     -37517.394    
     27600   301.18599     -17546.423     -37844.411     -37512.233    
     27700   306.28796     -8416.4402     -37838.945     -37501.14     
     27800   310.64682      6970.8284     -37847.668     -37505.056    
     27900   296.23377     -2529.7821     -37862.065     -37535.348    
     28000   296.33671     -7331.4486     -37876.385     -37549.555    
     28100   287.91828     -4478.1348     -37851.244     -37533.699    
     28200   306.94453     -3619.9513     -37854.343     -37515.814    
     28300   298.63629      4327.4429     -37844.207     -37514.841    
     28400   300.11927     -9699.6129     -37848.571     -37517.57     
     28500   309.52572     -2526.1519     -37866.21      -37524.834    
     28600   299.34887     -4937.4597     -37870.621     -37540.47     
     28700   283.41469     -21269.07      -37868.369     -37555.791    
     28800   298.29347     -1671.0306     -37872.512     -37543.524    
     28900   303.62417     -11191.687     -37843.458     -37508.591    
     29000   315.24754      836.4591      -37849.587     -37501.901    
     29100   290.88595      1039.2131     -37841.345     -37520.527    
     29200   287.23762     -15787.754     -37857.275     -37540.48     
     29300   300.57004     -14269.254     -37865.965     -37534.466    
     29400   314.80537     -444.16004     -37873.805     -37526.606    
     29500   297.44204     -11906.264     -37849.958     -37521.91     
     29600   308.50979     -13325.294     -37854.999     -37514.744    
     29700   308.54173     -10240.135     -37852.181     -37511.89     
     29800   304.71451     -11944.222     -37852.151     -37516.081    
     29900   297.49466     -265.50925     -37853.537     -37525.43     
     30000   295.38352     -2446.2252     -37850.62      -37524.841    
     30100   304.95355     -7282.9383     -37855.658     -37519.325    
     30200   305.38106     -2979.9008     -37855.383     -37518.579    
     30300   295.57312      2915.9505     -37854.045     -37528.058    
     30400   303.36669     -8306.9568     -37881.53      -37546.947    
     30500   273.54915     -14987.031     -37861.908     -37560.211    
     30600   280.19292     -21267.341     -37848.251     -37539.226    
     30700   304.18381     -1160.0242     -37839.24      -37503.756    
     30800   310.10084     -8317.6539     -37835.695     -37493.685    
     30900   309.47206     -4996.7902     -37848.966     -37507.65     
     31000   292.99409      1570.1134     -37857.869     -37534.726    
     31100   299.29612     -1237.1039     -37866.78      -37536.687    
     31200   316.85783     -7738.5634     -37874.83      -37525.368    
     31300   283.74288     -9398.0806     -37837.455     -37524.515    
     31400   295.14594     -1864.9567     -37849.809     -37524.293    
     31500   305.10575     -11769.869     -37865.787     -37529.286    
     31600   301.86747     -7395.7551     -37856.408     -37523.478    
     31700   293.79775     -8428.3987     -37840.441     -37516.411    
     31800   330.91047     -11335.828     -37844.937     -37479.976    
     31900   320.43076      3024.9779     -37838.742     -37485.339    
     32000   300.19315     -8632.9424     -37852.01      -37520.927    
     32100   304.57213     -8457.4272     -37867.553     -37531.64     
     32200   291.04893     -1963.505      -37862.054     -37541.056    
     32300   304.598       -7078.7213     -37869.65      -37533.709    
     32400   312.08389     -2973.2693     -37848.958     -37504.761    
     32500   327.25957     -2481.7025     -37853.392     -37492.458    
     32600   291.823       -9331.942      -37848.194     -37526.343    
     32700   281.98321     -7550.7706     -37859.288     -37548.289    
     32800   292.07744     -274.31221     -37862.016     -37539.884    
     32900   302.72073     -10037.733     -37845.962     -37512.091    
     33000   318.0071      -3589.3389     -37855.884     -37505.155    
     33100   321.37257     -15638.9       -37872.517     -37518.075    
     33200   306.6029      -2628.9498     -37883.388     -37545.235    
     33300   313.29955      3471.1608     -37898.252     -37552.714    
     33400   300.98898      7707.9645     -37891.725     -37559.764    
     33500   288.89233     -13856.021     -37879.952     -37561.333    
     33600   309.79657      4618.2046     -37878.415     -37536.74     
     33700   329.47664     -712.33313     -37890.908     -37527.528    
     33800   307.12626      1533.3567     -37899.134     -37560.405    
     33900   297.17913     -2107.6437     -37900.853     -37573.094    
     34000   296.09658     -8581.6867     -37896.55      -37569.985    
     34100   296.91537     -6852.2128     -37905.184     -37577.716    
     34200   270.27697      3430.3779     -37895.257     -37597.168    
     34300   276.13168     -7814.2347     -37910.985     -37606.439    
     34400   284.06463     -5134.9551     -37903.279     -37589.984    
     34500   290.33729     -5747.4583     -37876.902     -37556.689    
     34600   306.60588     -9198.7232     -37883.752     -37545.597    
     34700   316.03442     -3342.3214     -37900.151     -37551.597    
     34800   304.64932     -1995.6644     -37920.15      -37584.152    
     34900   301.02415     -4841.0268     -37927.402     -37595.402    
     35000   290.99717     -5763.1849     -37911.617     -37590.677    
     35100   311.25442      3849.7966     -37917.719     -37574.437    
     35200   295.92008      3320.1908     -37881.528     -37555.158    
     35300   330.08578     -5665.7321     -37896.065     -37532.013    
     35400   336.39718     -1737.0481     -37870.955     -37499.942    
     35500   326.24059     -9444.2185     -37873.441     -37513.63     
     35600   305.38862     -6150.0019     -37891.209     -37554.396    
     35700   308.68654     -17797.988     -37917.708     -37577.258    
     35800   300.35428      1016.4811     -37922.069     -37590.809    
     35900   299.69568     -26219.793     -37921.157     -37590.622    
     36000   323.1103       7732.6861     -37920.715     -37564.357    
     36100   310.50069      422.68148     -37890.126     -37547.675    
     36200   312.11172     -16787.285     -37892.477     -37548.249    
     36300   295.00266     -18450.975     -37905.545     -37580.187    
     36400   296.24535     -15560.979     -37919.727     -37592.998    
     36500   303.68236     -8324.929      -37915.174     -37580.243    
     36600   309.09981     -2232.9626     -37892.29      -37551.384    
     36700   320.02518     -20570.145     -37897.145     -37544.189    
     36800   297.55503     -6671.7556     -37886.428     -37558.255    
     36900   294.31786      4030.8232     -37892.107     -37567.504    
     37000   289.00196     -9559.412      -37895.981     -37577.241    
     37100   295.57002     -6845.5092     -37888.588     -37562.604    
     37200   309.1797      -1647.3715     -37879.52      -37538.526    
     37300   317.33982     -3939.5144     -37901.9       -37551.906    
     37400   322.28898     -10777.206     -37923.256     -37567.804    
     37500   295.55312      2848.8102     -37908.801     -37582.835    
     37600   302.20773     -13152.878     -37917.445     -37584.141    
     37700   310.63816     -5533.3907     -37898.325     -37555.722    
     37800   322.04668     -2353.0714     -37882.663     -37527.478    
     37900   301.36754      3936.3083     -37875.507     -37543.128    
     38000   313.70296     -710.29331     -37916.313     -37570.33     
     38100   290.36066      2581.7215     -37904.728     -37584.49     
     38200   303.06516      3536.4422     -37922.409     -37588.159    
     38300   299.91661     -10866.465     -37906.309     -37575.531    
     38400   328.00856     -2556.6281     -37904.129     -37542.369    
     38500   298.61821     -31.21595      -37879.414     -37550.068    
     38600   289.22112     -9071.6205     -37894.182     -37575.2      
     38700   291.34897     -7169.7525     -37907.651     -37586.322    
     38800   292.87351      8116.5209     -37903.431     -37580.421    
     38900   297.64157     -12813.376     -37894.463     -37566.194    
     39000   311.0046      -6183.4924     -37898.017     -37555.01     
     39100   294.02149     -5457.5687     -37882.373     -37558.096    
     39200   278.18299     -4364.097      -37913.316     -37606.508    
     39300   293.92307     -8872.4997     -37935.021     -37610.853    
     39400   299.45911     -1535.8165     -37917.946     -37587.673    
     39500   297.86381      331.67125     -37892.434     -37563.92     
     39600   286.2581      -12023.796     -37871.559     -37555.845    
     39700   306.65398     -6408.9399     -37907.05      -37568.842    
     39800   276.57164     -14101.391     -37909.3       -37604.27     
     39900   285.35067     -5996.9169     -37923.075     -37608.362    
     40000   281.46683     -12473.807     -37901.556     -37591.126    
     40100   302.5621      -7954.6284     -37910.309     -37576.613    
     40200   302.24335     -17927.37      -37898.101     -37564.757    
     40300   304.28185      10036.753     -37899.881     -37564.289    
     40400   294.54398      5880.81       -37914.236     -37589.384    
     40500   283.20892     -10019.605     -37921.225     -37608.874    
     40600   281.71886      2820.3219     -37903.079     -37592.371    
     40700   285.00909     -12057.628     -37876.487     -37562.15     
     40800   306.96681     -10233.617     -37888.244     -37549.69     
     40900   317.63159      1777.5607     -37903.654     -37553.339    
     41000   314.80753     -16540.028     -37920.802     -37573.601    
     41100   278.62303     -7046.5944     -37904.735     -37597.442    
     41200   307.85843      1375.321      -37933.598     -37594.062    
     41300   295.38361     -1858.7023     -37892.819     -37567.04     
     41400   317.78951     -7981.8845     -37885.389     -37534.899    
     41500   306.744       -8860.767      -37889.84      -37551.532    
     41600   306.67062     -5351.5998     -37912.187     -37573.96     
     41700   302.12839     -6769.3754     -37919.402     -37586.184    
     41800   297.48442     -20430.766     -37921.963     -37593.867    
     41900   287.29321      391.04732     -37894.886     -37578.03     
     42000   306.60822     -9587.5228     -37885.37      -37547.212    
     42100   318.14104     -13870.903     -37904.017     -37553.14     
     42200   279.76493     -6595.6941     -37886.853     -37578.301    
     42300   293.16247     -14400.121     -37911.324     -37587.995    
     42400   299.07006     -11034.458     -37917.37      -37587.526    
     42500   298.66135     -7632.6537     -37913.038     -37583.644    
     42600   285.49604     -11869.779     -37895.831     -37580.958    
     42700   307.91043     -5142.8853     -37904.558     -37564.963    
     42800   324.09015     -9838.1506     -37884.576     -37527.138    
     42900   304.07904     -8799.7063     -37854.528     -37519.159    
     43000   309.84341     -1334.8935     -37890.287     -37548.561    
     43100   309.65156     -9844.1804     -37903.714     -37562.199    
     43200   292.84443     -16029.991     -37907.486     -37584.508    
     43300   287.1026      -4282.452      -37916.508     -37599.863    
     43400   278.55398     -11679.563     -37911.786     -37604.569    
     43500   279.87039     -12209.918     -37887.523     -37578.854    
     43600   309.76733     -20202.97      -37893.075     -37551.433    
     43700   316.75243     -12078.767     -37914.665     -37565.319    
     43800   296.76235     -6854.8046     -37917.033     -37589.734    
     43900   293.39        -7856.6333     -37922.822     -37599.242    
     44000   304.01233     -15893.062     -37922.368     -37587.072    
     44100   296.08735     -12432.745     -37900.633     -37574.078    
     44200   292.71369     -10747.844     -37888.259     -37565.425    
     44300   336.45513     -4472.353      -37890.011     -37518.935    
     44400   312.458       -5993.6463     -37885.952     -37541.342    
     44500   312.43811     -884.95977     -37922.653     -37578.065    
     44600   302.14967     -12308.118     -37928.477     -37595.236    
     44700   297.63088     -18661.863     -37923.945     -37595.688    
     44800   292.20658     -10674.578     -37904.322     -37582.048    
     44900   315.75004     -15154.157     -37908.61      -37560.369    
     45000   327.62151      4442.7212     -37906.962     -37545.629    
     45100   313.82071      750.37687     -37914.901     -37568.788    
     45200   279.55181     -209.94554     -37907.803     -37599.485    
     45300   304.81504     -10383.78      -37937.335     -37601.154    
     45400   312.4109      -10865.521     -37935.446     -37590.888    
     45500   307.89818     -8228.766      -37902.166     -37562.585    
     45600   327.26051     -9697.4906     -37899.173     -37538.238    
     45700   307.58078      7720.4625     -37891.499     -37552.269    
     45800   299.03569     -5083.8592     -37899.585     -37569.779    
     45900   293.74854     -7899.072      -37903.523     -37579.548    
     46000   292.10013     -9692.0162     -37906.979     -37584.822    
     46100   302.48796      6277.4399     -37918.431     -37584.818    
     46200   306.47298      791.69095     -37899.088     -37561.079    
     46300   316.97398     -8476.6576     -37901.803     -37552.213    
     46400   309.39349     -155.12343     -37913.256     -37572.026    
     46500   296.7689      -3200.8474     -37930.213     -37602.906    
     46600   304.60993      7151.8705     -37941.503     -37605.549    
     46700   298.30989     -7344.8555     -37921.067     -37592.061    
     46800   301.72704     -3867.1405     -37903.47      -37570.696    
     46900   317.04466     -8019.2328     -37922.712     -37573.044    
     47000   306.62748      224.6799      -37925.114     -37586.935    
     47100   303.21272      904.0754      -37922.222     -37587.809    
     47200   311.52303     -12297.572     -37925.644     -37582.065    
     47300   296.26186     -9789.0414     -37902.028     -37575.281    
     47400   304.29236     -5953.7699     -37906.649     -37571.045    
     47500   299.71449      11472.74      -37922.613     -37592.058    
     47600   284.7526      -9319.139      -37925.579     -37611.525    
     47700   284.80908     -2163.8072     -37907.727     -37593.611    
     47800   314.95632     -2756.1433     -37917.213     -37569.848    
     47900   298.52817      8351.9272     -37901.029     -37571.782    
     48000   301.83208      5477.765      -37912.578     -37579.688    
     48100   294.68228     -10859.181     -37922.957     -37597.952    
     48200   274.76275     -6173.9547     -37922.981     -37619.946    
     48300   301.55998     -13622.471     -37932.07      -37599.48     
     48400   333.55923     -2058.77       -37935.311     -37567.429    
     48500   293.8078      -17433.218     -37900.836     -37576.795    
     48600   294.27457      1821.5118     -37913.469     -37588.914    
     48700   285.89206     -1681.0917     -37920.617     -37605.307    
     48800   276.4406       7379.373      -37926.831     -37621.945    
     48900   289.0924      -528.83721     -37926.406     -37607.567    
     49000   306.57758     -4041.177      -37912.412     -37574.287    
     49100   305.54173     -14270.303     -37906.036     -37569.054    
     49200   305.22963     -15760.763     -37909.515     -37572.877    
     49300   277.86635      869.67845     -37910.852     -37604.393    
     49400   296.35903     -4584.1925     -37942.732     -37615.878    
     49500   280.87424     -6379.02       -37912.13      -37602.353    
     49600   298.13084     -4710.2284     -37914.363     -37585.555    
     49700   304.70885     -10204.299     -37920.186     -37584.123    
     49800   296.10299      2667.5419     -37918.559     -37591.987    
     49900   292.47456     -11773.465     -37918.356     -37595.786    
     50000   316.65135     -17133.281     -37924.444     -37575.209    
     50100   294.7187      -10158.265     -37881.743     -37556.698    
     50200   319.92554      8342.1887     -37917.068     -37564.222    
     50300   283.36473     -9640.9287     -37908.394     -37595.871    
     50400   289.00063     -13211.266     -37918.788     -37600.049    
     50500   294.84697     -21214.591     -37921.65      -37596.463    
     50600   308.53434     -5535.7989     -37934.154     -37593.872    
     50700   312.02399      5041.1002     -37928.478     -37584.347    
     50800   326.49095     -7145.8508     -37909.277     -37549.19     
     50900   305.72674     -4877.127      -37869.699     -37532.513    
     51000   326.85431      3022.4272     -37915.319     -37554.831    
     51100   312.11411      8936.6351     -37929.751     -37585.521    
     51200   297.45684     -19154.495     -37937.039     -37608.974    
     51300   289.94983     -4721.6934     -37936.435     -37616.65     
     51400   296.73371     -8057.0445     -37942.195     -37614.927    
     51500   315.08871      3498.3793     -37940.198     -37592.687    
     51600   333.6409      -3187.7902     -37940.798     -37572.825    
     51700   295.12584      6636.0183     -37920.612     -37595.118    
     51800   286.02438     -5343.9356     -37928.605     -37613.149    
     51900   289.77433     -3022.3629     -37932.63      -37613.038    
     52000   295.42284     -1736.2396     -37933.187     -37607.366    
     52100   311.48471     -2085.697      -37927.198     -37583.662    
     52200   319.29737     -9559.0416     -37913.947     -37561.794    
     52300   298.89006     -19922.261     -37924.42      -37594.774    
     52400   294.91401      6568.2283     -37942.66      -37617.399    
     52500   303.3923       6285.052      -37943.445     -37608.834    
     52600   312.05886     -2872.1342     -37932.403     -37588.233    
     52700   307.14725      14804.888     -37917.121     -37578.368    
     52800   289.02463     -10875.677     -37901.062     -37582.297    
     52900   296.22283      1077.9458     -37942.781     -37616.077    
     53000   295.75001      4020.8363     -37959.645     -37633.462    
     53100   294.54314     -10216.363     -37950.601     -37625.75     
     53200   280.82679     -12957.484     -37907.658     -37597.934    
     53300   306.45507     -10702.65      -37916.478     -37578.489    
     53400   298.47245     -8629.5433     -37910.915     -37581.73     
     53500   288.86777     -13032.264     -37919.931     -37601.339    
     53600   296.5708       6543.468      -37942.197     -37615.109    
     53700   287.17837      6968.4868     -37934.886     -37618.157    
     53800   305.57401      11435.493     -37925.152     -37588.134    
     53900   301.89603     -1101.0851     -37899.616     -37566.655    
     54000   322.83722      5959.9937     -37922.421     -37566.364    
     54100   302.09825     -1061.5757     -37934.314     -37601.13     
     54200   294.04728      8276.8297     -37932.23      -37607.925    
     54300   288.42113     -681.14666     -37924.685     -37606.585    
     54400   295.34236     -13771.275     -37921.457     -37595.724    
     54500   314.6321      -11146.718     -37907.862     -37560.854    
     54600   313.81655      6462.6575     -37905.975     -37559.866    
     54700   319.48312     -3422.5829     -37939.047     -37586.689    
     54800   290.66949      1075.0711     -37914.494     -37593.915    
     54900   311.4992       1980.3268     -37936.31      -37592.758    
     55000   298.46182     -15631.123     -37931.74      -37602.567    
     55100   292.46398     -30.867073     -37947.1       -37624.542    
     55200   283.6863      -4079.8118     -37949.546     -37636.668    
     55300   290.74567      8289.8654     -37937.924     -37617.261    
     55400   301.15405     -12422.239     -37917.46      -37585.317    
     55500   313.12088      6571.7595     -37928.087     -37582.746    
     55600   304.86197     -4182.782      -37937.01      -37600.778    
     55700   283.13456     -5524.4447     -37934.556     -37622.287    
     55800   254.96599      9522.2058     -37935.11      -37653.908    
     55900   286.17107      44.009049     -37969.257     -37653.639    
     56000   304.16984     -5129.6925     -37947.835     -37612.366    
     56100   295.53915     -8220.1942     -37926.77      -37600.82     
     56200   308.71404      1725.9554     -37938.447     -37597.966    
     56300   298.64308     -7158.9442     -37949.448     -37620.074    
     56400   289.63727     -17887.877     -37954.226     -37634.785    
     56500   290.51797      638.27877     -37946.008     -37625.596    
     56600   319.92267     -2013.854      -37937.641     -37584.798    
     56700   306.54712      12950.484     -37920.721     -37582.63     
     56800   314.23652      4964.1285     -37948.755     -37602.184    
     56900   303.53846     -7070.0454     -37955.244     -37620.472    
     57000   291.79064      2839.1216     -37943.645     -37621.829    
     57100   288.47084      9306.5721     -37926.519     -37608.365    
     57200   300.06802     -5724.168      -37896.531     -37565.586    
     57300   315.08165     -3379.5863     -37910.359     -37562.856    
     57400   311.35356     -1876.6498     -37934.351     -37590.959    
     57500   307.41124     -9359.3289     -37949.06      -37610.016    
     57600   288.60092     -2984.7813     -37943.3       -37625.002    
     57700   310.83571      8518.3411     -37950.922     -37608.101    
     57800   317.19874      13055.628     -37939.777     -37589.939    
     57900   335.96535      5263.0828     -37933.499     -37562.963    
     58000   323.39798      1399.5175     -37927.248     -37570.572    
     58100   299.14786     -2281.0319     -37937.418     -37607.488    
     58200   284.82387     -11983.386     -37940.088     -37625.956    
     58300   294.99084     -7297.4792     -37950.447     -37625.102    
     58400   303.60982     -1732.4326     -37940.755     -37605.904    
     58500   329.37738     -5771.3995     -37941.455     -37578.185    
     58600   316.1936       2825.1512     -37924.766     -37576.036    
     58700   290.28497     -4696.1108     -37937.284     -37617.129    
     58800   299.20756     -14884.969     -37968.605     -37638.609    
     58900   277.7343      -3468.2867     -37944.229     -37637.916    
     59000   297.65473     -1810.9755     -37940.834     -37612.55     
     59100   297.56732     -3746.6864     -37926.719     -37598.533    
     59200   306.32026      633.0039      -37927.256     -37589.416    
     59300   305.57849      2476.2205     -37939.592     -37602.569    
     59400   296.92807     -4394.6274     -37960.844     -37633.362    
     59500   297.15496      3950.8943     -37972.006     -37644.274    
     59600   293.35314      9673.9071     -37951.873     -37628.334    
     59700   307.37165     -4961.1531     -37935.894     -37596.894    
     59800   293.03999      2343.5596     -37919.005     -37595.812    
     59900   301.76833      8614.8604     -37938.704     -37605.883    
     60000   281.3113       2548.6561     -37934.885     -37624.626    
     60100   281.95505     -7058.7533     -37965.571     -37654.603    
     60200   289.01951     -7305.1696     -37975.556     -37656.796    
     60300   302.16636      5701.9806     -37959.096     -37625.837    
     60400   279.89998     -6727.5081     -37924.928     -37616.226    
     60500   301.17054      4446.312      -37929.965     -37597.804    
     60600   301.05708     -10194.16      -37917.44      -37585.404    
     60700   305.50284     -3879.4134     -37932.007     -37595.068    
     60800   294.97573      1664.0033     -37959.066     -37633.738    
     60900   272.50727      5975.5215     -37941.872     -37641.324    
     61000   291.6375       2621.7966     -37943.544     -37621.897    
     61100   302.36797      7420.7801     -37933.557     -37600.075    
     61200   293.62788     -3717.8374     -37916.944     -37593.102    
     61300   301.75417      4374.2084     -37932.896     -37600.092    
     61400   293.37727      2399.7745     -37939.832     -37616.266    
     61500   274.28947      994.62817     -37935.335     -37632.821    
     61600   280.34505      5173.8051     -37963.843     -37654.651    
     61700   271.26996      4458.5235     -37952.094     -37652.911    
     61800   317.19313      13167.728     -37969.474     -37619.641    
     61900   301.04269      2694.5583     -37937.015     -37604.995    
     62000   301.26795      9229.6911     -37933.263     -37600.995    
     62100   308.17742      10411.593     -37950.205     -37610.316    
     62200   286.78574      7069.911      -37954.347     -37638.051    
     62300   285.89664     -5344.0598     -37968.251     -37652.936    
     62400   279.59943      11049.461     -37945.149     -37636.779    
     62500   324.22749      10826.619     -37958.557     -37600.967    
     62600   285.07719     -5674.8722     -37921.81      -37607.399    
     62700   303.83779     -11866.534     -37952.383     -37617.28     
     62800   301.0875      -8314.6882     -37961.822     -37629.753    
     62900   272.03276     -13341.156     -37946.561     -37646.536    
     63000   294.6639      -9589.2337     -37971.929     -37646.944    
     63100   296.31062     -16962.818     -37937.067     -37610.266    
     63200   308.79803     -1594.4596     -37936.227     -37595.653    
     63300   314.35175     -737.58616     -37945.756     -37599.058    
     63400   287.55737     -11111.804     -37932.604     -37615.457    
     63500   288.99045      5225.6894     -37959.091     -37640.364    
     63600   293.05287      122.52213     -37976.573     -37653.365    
     63700   287.08404      4092.9339     -37938.567     -37621.942    
     63800   306.37867     -8613.5752     -37929.27      -37591.365    
     63900   315.86965     -20092.817     -37938.788     -37590.416    
     64000   296.94177     -12450.593     -37941.826     -37614.329    
     64100   284.54684     -26045.141     -37940.701     -37626.874    
     64200   298.21225     -146.54552     -37962.382     -37633.484    
     64300   295.9653      -1066.5741     -37943.082     -37616.662    
     64400   304.27366      3390.9206     -37923.5       -37587.917    
     64500   315.60079      83.771336     -37934.062     -37585.986    
     64600   299.08058      96.2204       -37947.55      -37617.694    
     64700   287.44673     -3681.012      -37948.393     -37631.368    
     64800   312.05785     -859.67028     -37967.83      -37623.662    
     64900   290.49682      6043.7741     -37933.401     -37613.012    
     65000   306.71335     -4091.8533     -37929.728     -37591.454    
     65100   328.46847     -2335.9222     -37923.713     -37561.445    
     65200   324.24579      2446.5607     -37939.009     -37581.399    
     65300   296.40771     -10945.886     -37927.887     -37600.979    
     65400   312.89203     -2834.2677     -37950.842     -37605.753    
     65500   296.21971     -8911.3603     -37943.063     -37616.362    
     65600   295.89053     -15951.875     -37951.506     -37625.168    
     65700   296.02574     -8862.1799     -37957.544     -37631.057    
     65800   302.10121     -8403.3625     -37963.164     -37629.977    
     65900   307.84216      5333.6937     -37946.698     -37607.179    
     66000   296.18508      8131.5565     -37916.483     -37589.821    
     66100   308.25213     -7665.7677     -37939.754     -37599.783    
     66200   300.49605     -10654.711     -37969.801     -37638.384    
     66300   290.40816     -10010.957     -37957.011     -37636.72     
     66400   321.72268     -6345.3927     -37973.689     -37618.861    
     66500   303.26518     -14817.961     -37933.538     -37599.067    
     66600   312.59491      5665.9916     -37942.069     -37597.308    
     66700   293.69962      1068.1835     -37960.355     -37636.434    
     66800   298.46077     -4093.7287     -37981.605     -37652.432    
     66900   291.10572      2532.063      -37959.161     -37638.101    
     67000   296.31057     -11185.686     -37941.91      -37615.11     
     67100   309.72453     -2491.2812     -37944.069     -37602.474    
     67200   304.69476     -14817.349     -37937.426     -37601.379    
     67300   309.21796     -1703.9989     -37956.586     -37615.549    
     67400   303.28765      6894.0637     -37960.101     -37625.605    
     67500   295.99695      1058.4814     -37957.846     -37631.391    
     67600   308.44887      1746.2849     -37961.315     -37621.127    
     67700   337.98847      5670.8587     -37956.206     -37583.439    
     67800   319.09921     -10166.788     -37928.627     -37576.692    
     67900   303.23993     -13316.632     -37928.063     -37593.619    
     68000   304.05402      3255.9313     -37942.866     -37607.525    
     68100   317.6113      -1436.6385     -37963.953     -37613.659    
     68200   292.13593     -3799.0228     -37942.283     -37620.087    
     68300   278.68257     -241.79371     -37941.557     -37634.198    
     68400   274.72954     -18799.194     -37959.005     -37656.006    
     68500   279.08885     -800.54478     -37971.43      -37663.623    
     68600   290.51024     -5157.4215     -37950.318     -37629.914    
     68700   305.91853     -6560.2888     -37949.793     -37612.396    
     68800   305.59546     -7926.7942     -37949.333     -37612.292    
     68900   292.38207     -1822.3828     -37954.319     -37631.851    
     69000   290.05244     -4384.4996     -37977.096     -37657.197    
     69100   285.8667      -18856.63      -37978.107     -37662.825    
     69200   287.09827     -2147.8372     -37933.032     -37616.391    
     69300   305.97345      15.301844     -37942.647     -37605.189    
     69400   303.06666     -2981.9311     -37955.454     -37621.202    
     69500   285.63747      480.34271     -37959.265     -37644.235    
     69600   278.58873     -160.81228     -37954.712     -37647.457    
     69700   285.45351     -9991.5492     -37938.494     -37623.667    
     69800   334.57631     -4390.13       -37963.642     -37594.638    
     69900   318.3675       5029.8483     -37960.441     -37609.314    
     70000   318.44635     -8764.1403     -37981.975     -37630.761    
     70100   288.19878     -6289.6126     -37967.069     -37649.215    
     70200   297.4823      -8012.7155     -37977.386     -37649.293    
     70300   291.66007     -15197.547     -37956.689     -37635.017    
     70400   313.79706      2694.7748     -37971.219     -37625.133    
     70500   304.04245     -6511.8528     -37966.657     -37631.329    
     70600   310.25064     -3821.8283     -37983.083     -37640.908    
     70700   281.66918      11362.19      -37960.555     -37649.902    
     70800   306.90097     -3463.4565     -37978.279     -37639.798    
     70900   308.02007     -12171.538     -37948.517     -37608.802    
     71000   314.87724      5533.0117     -37953.972     -37606.694    
     71100   290.8529      -14563.876     -37948.824     -37628.042    
     71200   290.03428     -14083.841     -37956.49      -37636.611    
     71300   315.84747     -7847.7895     -37985.583     -37637.235    
     71400   304.08567      1992.8241     -37969.736     -37634.36     
     71500   320.96948      5369.0607     -37967.314     -37613.317    
     71600   315.8806      -1260.1315     -37951.18      -37602.796    
     71700   306.38361     -12935.019     -37969.319     -37631.408    
     71800   272.26132     -9101.2243     -37953.48      -37653.203    
     71900   291.08398      1533.5709     -37960.858     -37639.821    
     72000   305.70313      682.34794     -37965.768     -37628.608    
     72100   295.87955     -17352.518     -37955.797     -37629.472    
     72200   312.65579     -6967.3008     -37977.103     -37632.275    
     72300   305.90452     -11852.61      -38004.386     -37667.004    
     72400   285.62738     -7542.7689     -37998.742     -37683.724    
     72500   281.46606     -6074.9688     -37970.139     -37659.71     
     72600   277.28255      7782.0224     -37942.982     -37637.167    
     72700   301.70102     -8566.6355     -37956.078     -37623.332    
     72800   298.54992     -9841.3416     -37953.72      -37624.449    
     72900   302.68606     -14268.361     -37972.776     -37638.944    
     73000   285.42719      5566.4673     -37984.799     -37670.002    
     73100   282.15278     -3492.6447     -37979.948     -37668.762    
     73200   306.0475       2071.4149     -37981.431     -37643.892    
     73300   295.93324     -696.45193     -37962.8       -37636.415    
     73400   294.36577     -11558.414     -37961.836     -37637.18     
     73500   293.01624     -6916.8216     -37962.54      -37639.373    
     73600   284.05513      2823.496      -37959.468     -37646.184    
     73700   298.45932     -2123.9        -37976.206     -37647.036    
     73800   296.14047      473.87047     -37956.903     -37630.29     
     73900   327.14715     -8448.6055     -37968.098     -37607.288    
     74000   317.97724     -4530.726      -37968.193     -37617.496    
     74100   278.88763     -11494.168     -37953.615     -37646.03     
     74200   290.68288     -9503.5831     -37964.657     -37644.062    
     74300   312.59685     -8554.5557     -37983.187     -37638.424    
     74400   301.97417     -6305.2058     -37974.031     -37640.984    
     74500   289.00491      1819.0608     -37976.945     -37658.201    
     74600   301.45278     -16455.123     -38004.168     -37671.695    
     74700   297.94859     -6360.9242     -37983.023     -37654.416    
     74800   295.86781     -3111.5908     -37953.473     -37627.16     
     74900   300.95324      2147.4071     -37955.705     -37623.784    
     75000   312.65922      772.91392     -37977.281     -37632.45     
     75100   297.63737     -14088.004     -37994.783     -37666.518    
     75200   275.816       -10824.754     -37977.892     -37673.695    
     75300   296.44224     -14375.433     -37982.348     -37655.402    
     75400   285.3282      -4253.2176     -37961.569     -37646.881    
     75500   296.99394      9544.5871     -37961.272     -37633.717    
     75600   304.3481      -9750.7175     -37944.597     -37608.932    
     75700   320.05702     -11733.569     -37937.779     -37584.788    
     75800   312.35927     -7914.4837     -37966.981     -37622.48     
     75900   307.96534      335.68244     -37987.276     -37647.621    
     76000   285.43477     -11738.288     -37967.412     -37652.606    
     76100   302.62541     -1816.3134     -37981.033     -37647.267    
     76200   312.06856      7179.9521     -37965.666     -37621.485    
     76300   312.30318     -5345.9264     -37950.297     -37605.858    
     76400   305.74735     -5223.5718     -37963.989     -37626.78     
     76500   309.17468     -6964.379      -37995.684     -37654.695    
     76600   296.45451      13721.333     -37981.288     -37654.329    
     76700   304.01994      9030.8862     -37977.361     -37642.058    
     76800   297.96017      11820.076     -37957.923     -37629.303    
     76900   321.48604     -10748.316     -37958.063     -37603.497    
     77000   312.3954      -7782.6204     -37954.622     -37610.081    
     77100   302.65647     -4374.2478     -37982.248     -37648.448    
     77200   304.54675     -13943.506     -37990.36      -37654.475    
     77300   292.85582     -1522.3467     -37978.672     -37655.682    
     77400   295.63388     -6308.3162     -37978.627     -37652.573    
     77500   286.38502     -5370.5272     -37940.227     -37624.373    
     77600   309.86684      3066.3251     -37945.012     -37603.26     
     77700   312.32451      15482.85      -37954.077     -37609.614    
     77800   299.60433      11222.224     -37970.609     -37640.176    
     77900   296.18158     -8911.1089     -37979.622     -37652.963    
     78000   301.51213     -12743.857     -37989.875     -37657.338    
     78100   283.60481      2650.847      -37958.952     -37646.165    
     78200   299.89525      12942.017     -37948.024     -37617.269    
     78300   319.97454     -8025.7521     -37962.313     -37609.413    
     78400   305.17379      2709.2953     -37958.243     -37621.667    
     78500   297.33807     -4208.1317     -37957.683     -37629.749    
     78600   289.27087     -9887.6063     -37961.066     -37642.029    
     78700   294.232        2084.9784     -37980.468     -37655.96     
     78800   311.62107      5684.0918     -37999.395     -37655.709    
     78900   334.84375     -2001.1877     -37988.216     -37618.917    
     79000   308.09272     -5183.1053     -37952.852     -37613.057    
     79100   292.35599     -16138.101     -37970.962     -37648.523    
     79200   302.04006     -2249.6454     -37999.127     -37666.008    
     79300   279.72726     -6250.8408     -37981.47      -37672.959    
     79400   307.50163      4394.7602     -38001.059     -37661.916    
     79500   313.08549      705.30211     -37971.749     -37626.447    
     79600   329.37811      464.21306     -37994.6       -37631.329    
     79700   312.06387     -2038.295      -38001.273     -37657.097    
     79800   278.22046      2346.6413     -37973.293     -37666.444    
     79900   302.5227      -1087.51       -37988.223     -37654.571    
     80000   331.01904      9748.5068     -37995.394     -37630.313    
     80100   318.31128     -362.793       -37976.202     -37625.137    
     80200   290.04328     -3805.0164     -37992.357     -37672.468    
     80300   275.02421     -10184.229     -37988.437     -37685.113    
     80400   287.73367     -13027.397     -37994.691     -37677.349    
     80500   305.69916     -6430.6419     -37986.723     -37649.567    
     80600   302.29817      7872.4735     -37974.216     -37640.812    
     80700   311.79202     -68.36029      -37985.975     -37642.1      
     80800   299.65509     -22.676942     -38003.234     -37672.744    
     80900   290.42272      975.97181     -38017.425     -37697.118    
     81000   288.22565      12702.105     -38006.859     -37688.975    
     81100   311.38136      6961.1223     -38004.737     -37661.315    
     81200   288.4573       2898.2118     -37969.93      -37651.791    
     81300   317.06372     -11283.95      -37996.658     -37646.969    
     81400   310.76161     -1448.6651     -37997.152     -37654.413    
     81500   275.59461     -908.29364     -37992.182     -37688.229    
     81600   283.87185     -13378.63      -38005.729     -37692.646    
     81700   285.02093     -13020.693     -37980.52      -37666.17     
     81800   296.80025     -6273.2443     -37977.932     -37650.591    
     81900   306.1546       6616.4409     -37989.191     -37651.533    
     82000   298.1123      -20293.107     -37977.426     -37648.638    
     82100   309.09109     -4936.9325     -37990.053     -37649.157    
     82200   299.6131       13932.213     -38001.469     -37671.026    
     82300   300.29684      1333.6362     -38018.522     -37687.325    
     82400   291.87202     -2466.9048     -37997.503     -37675.597    
     82500   314.33562      3642.9809     -37986.676     -37639.995    
     82600   314.96316     -2769.6169     -37988.657     -37641.285    
     82700   294.1159      -11136.535     -37987.979     -37663.598    
     82800   287.29071     -2298.9586     -37987.997     -37671.144    
     82900   298.4264      -34.111191     -37995.683     -37666.549    
     83000   292.78342      9608.1842     -37985.368     -37662.457    
     83100   296.54819      3133.1847     -37983.834     -37656.771    
     83200   303.43707     -6127.2392     -37995.123     -37660.463    
     83300   284.26544     -10973.463     -38000.18      -37686.663    
     83400   288.74639     -8658.884      -38036.59      -37718.131    
     83500   286.46037     -10175.618     -38023.123     -37707.186    
     83600   292.33124      4867.1783     -38008.749     -37686.337    
     83700   304.35751     -912.58651     -37999.683     -37664.007    
     83800   310.89174     -408.8614      -37994.375     -37651.493    
     83900   312.70722     -7028.6301     -37996.701     -37651.816    
     84000   285.53471     -10640.483     -37984.384     -37669.468    
     84100   275.09607     -19591.503     -37987.778     -37684.375    
     84200   304.45848     -12740.983     -38018.059     -37682.272    
     84300   307.37115     -10805.412     -38022.258     -37683.259    
     84400   298.19524      3500.3765     -38037.093     -37708.214    
     84500   290.78945     -3095.6664     -38050.713     -37730.001    
     84600   295.65327     -3409.3768     -38052.714     -37726.639    
     84700   300.39244     -6720.3577     -38027.566     -37696.263    
     84800   306.82583     -4947.9855     -38012.426     -37674.028    
     84900   315.35345     -6904.4554     -38031.81      -37684.007    
     85000   296.4742      -1425.1442     -38034.181     -37707.2      
     85100   310.04259     -1895.9281     -38060.205     -37718.259    
     85200   281.2498       11166.999     -38036.926     -37726.736    
     85300   295.3001      -7851.0397     -38047.308     -37721.621    
     85400   299.86924     -18688.809     -38017.372     -37686.646    
     85500   313.82912     -15301.389     -38029.463     -37683.341    
     85600   301.93434     -6182.1582     -38039.669     -37706.665    
     85700   282.04916      1651.5793     -38039.135     -37728.063    
     85800   296.86005      1097.8751     -38049.792     -37722.385    
     85900   299.27467     -14980.886     -38045.582     -37715.512    
     86000   298.27125     -2083.7448     -38039.57      -37710.606    
     86100   292.48778      235.29044     -38034.789     -37712.204    
     86200   307.41352      2789.3411     -38062.467     -37723.42     
     86300   268.81746     -13039.995     -38057.411     -37760.932    
     86400   292.1147      -3621.9278     -38074.792     -37752.619    
     86500   292.26985     -11468.937     -38045.924     -37723.58     
     86600   300.11236     -6144.2449     -38042.471     -37711.477    
     86700   313.11219     -9389.882      -38050.734     -37705.403    
     86800   307.13229     -2937.6265     -38046.195     -37707.459    
     86900   289.49043     -9854.1894     -38045.027     -37725.748    
     87000   287.47073     -6951.0136     -38063.03      -37745.979    
     87100   287.73994     -4750.0397     -38070.477     -37753.129    
     87200   302.0376       2216.5199     -38058.484     -37725.367    
     87300   301.99814     -9961.4759     -38033.412     -37700.338    
     87400   298.71795     -2239.3575     -38027.656     -37698.2      
     87500   300.28759     -11782.471     -38030.795     -37699.608    
     87600   305.91677     -17279.609     -38066.869     -37729.473    
     87700   276.91175     -7127.6175     -38050.294     -37744.888    
     87800   287.71076     -1162.4342     -38042.315     -37724.999    
     87900   305.30138     -11361.258     -38043.614     -37706.897    
     88000   310.2525      -10270.218     -38051.763     -37709.585    
     88100   307.90954     -12522.029     -38056.411     -37716.818    
     88200   291.77016     -15115.728     -38040.69      -37718.897    
     88300   310.04266     -11100.98      -38039.07      -37697.124    
     88400   307.86427     -1812.9707     -38025.752     -37686.208    
     88500   309.52219     -3115.9551     -38039.756     -37698.384    
     88600   290.055        13579.624     -38050.134     -37730.232    
     88700   296.23931     -6748.0004     -38058.321     -37731.599    
     88800   291.67349     -3237.639      -38042.018     -37720.332    
     88900   304.53625     -10851.786     -38044.164     -37708.291    
     89000   304.21253     -5160.655      -38042.721     -37707.205    
     89100   310.80106     -7769.4625     -38052.275     -37709.493    
     89200   297.4012       4241.049      -38047.843     -37719.84     
     89300   284.70501     -7433.9711     -38038.081     -37724.08     
     89400   315.95774     -11661.931     -38061.498     -37713.028    
     89500   312.98709     -16409.022     -38053.694     -37708.501    
     89600   303.78047      13204.976     -38053.268     -37718.229    
     89700   278.20206     -5542.3564     -38043.586     -37736.757    
     89800   291.23955     -5965.8492     -38051.563     -37730.355    
     89900   317.58237     -11845.375     -38047.484     -37697.223    
     90000   311.60516     -12974.186     -38030.552     -37686.883    
     90100   306.23133      4290.6375     -38041.979     -37704.237    
     90200   322.13288     -2389.8653     -38071.399     -37716.119    
     90300   282.70126     -11213.351     -38034.02      -37722.229    
     90400   290.8525       11433.946     -38040.192     -37719.411    
     90500   302.2857      -13403.052     -38042.116     -37708.725    
     90600   309.08245     -13661.881     -38014.633     -37673.746    
     90700   326.07805     -10804.57      -38024.916     -37665.285    
     90800   303.53606     -5848.0793     -38025.418     -37690.649    
     90900   310.82549     -11281.884     -38043.28      -37700.47     
     91000   311.91861     -8653.3763     -38060.198     -37716.183    
     91100   291.5096      -367.81179     -38049.919     -37728.413    
     91200   298.70579     -4903.0802     -38050.603     -37721.161    
     91300   299.03031     -4910.8315     -38043.742     -37713.942    
     91400   284.71407     -23674.845     -38027.421     -37713.41     
     91500   309.59826     -10050.813     -38053.404     -37711.948    
     91600   306.34045     -4694.3668     -38051.564     -37713.701    
     91700   292.56148     -5916.9314     -38059.34      -37736.674    
     91800   276.04854      4630.8612     -38051.857     -37747.403    
     91900   298.98771     -2903.5593     -38047.426     -37717.672    
     92000   300.50307     -9971.4079     -38029.514     -37698.089    
     92100   318.83862     -2043.7027     -38050.047     -37698.399    
     92200   287.62791     -5786.0884     -38037.093     -37719.868    
     92300   300.79607     -1756.1726     -38067.205     -37735.457    
     92400   288.1428      -952.51929     -38050.365     -37732.573    
     92500   305.58016     -11771.773     -38030.853     -37693.828    
     92600   314.60167     -13043.905     -38027.214     -37680.239    
     92700   307.11411     -10608.697     -38044.383     -37705.667    
     92800   298.07261      4627.5211     -38052.063     -37723.319    
     92900   292.29804     -1010.0981     -38046.144     -37723.769    
     93000   306.24861     -6211.0898     -38055.146     -37717.385    
     93100   303.29273     -19070.503     -38013.879     -37679.378    
     93200   321.93186     -6788.4172     -38032.625     -37677.567    
     93300   319.58518     -11688.588     -38053.178     -37700.708    
     93400   299.81536     -8719.8262     -38039.884     -37709.218    
     93500   287.58754     -8787.9052     -38032.846     -37715.666    
     93600   287.71552     -9658.1772     -38040.802     -37723.481    
     93700   291.56222     -11486.955     -38056.186     -37734.623    
     93800   303.61499     -3289.3666     -38080.949     -37746.093    
     93900   282.36212     -9226.5242     -38057.006     -37745.589    
     94000   298.67797     -9570.1884     -38042.267     -37712.855    
     94100   324.17166      12336.225     -38054.212     -37696.683    
     94200   291.90866      2868.264      -38035.599     -37713.653    
     94300   294.42424     -10500.307     -38056.341     -37731.621    
     94400   284.63022     -6271.7607     -38047.061     -37733.143    
     94500   320.64147     -3799.3002     -38076.458     -37722.823    
     94600   310.87303     -10989.773     -38068.889     -37726.027    
     94700   305.62487      3209.7728     -38078.019     -37740.945    
     94800   304.92954     -5832.5924     -38098.388     -37762.081    
     94900   302.09629     -13574.611     -38111.43      -37778.248    
     95000   299.42796      4609.9425     -38117.653     -37787.414    
     95100   287.02652     -7562.9771     -38092.708     -37776.147    
     95200   329.87013      5056.9071     -38102.032     -37738.218    
     95300   317.86058     -10313.169     -38092.391     -37741.823    
     95400   320.93002     -10003.776     -38125.839     -37771.885    
     95500   297.66044     -2380.083      -38111.282     -37782.992    
     95600   306.52379     -2185.472      -38114.979     -37776.914    
     95700   286.95828      3586.0434     -38088.493     -37772.007    
     95800   309.43929     -14008.842     -38078.926     -37737.646    
     95900   320.88872     -3909.8736     -38074.934     -37721.026    
     96000   315.96317      8996.681      -38094.595     -37746.12     
     96100   299.95266     -11876.788     -38098.109     -37767.291    
     96200   293.19194     -14746.11      -38106.526     -37783.165    
     96300   295.98757      269.09319     -38122.114     -37795.67     
     96400   295.75704      3449.4204     -38109.802     -37783.611    
     96500   316.1039       1282.7449     -38094.623     -37745.992    
     96600   312.5409      -5121.5158     -38091.253     -37746.552    
     96700   300.48126     -9084.9982     -38099.421     -37768.02     
     96800   306.3224      -2112.6657     -38124.288     -37786.445    
     96900   303.62836     -853.32557     -38119.609     -37784.737    
     97000   298.78223      1841.4512     -38093.25      -37763.724    
     97100   316.00934     -5676.2303     -38076.71      -37728.184    
     97200   309.84187     -14006.464     -38074.025     -37732.301    
     97300   321.01556     -8369.3305     -38103.416     -37749.368    
     97400   295.57948     -5914.3775     -38103.179     -37777.185    
     97500   286.84011      4863.5536     -38098.866     -37782.51     
     97600   294.58428     -2113.3576     -38096.403     -37771.506    
     97700   315.98558      3797.5233     -38093.441     -37744.94     
     97800   318.03759     -9012.922      -38082.361     -37731.597    
     97900   303.20392     -1244.327      -38092.282     -37757.878    
     98000   301.53986      1784.9382     -38120.285     -37787.717    
     98100   289.67262     -2638.4566     -38116.253     -37796.773    
     98200   288.02692     -2828.0703     -38099.801     -37782.136    
     98300   303.36046      10865.546     -38088.474     -37753.898    
     98400   323.89828     -139.69709     -38104.984     -37747.756    
     98500   302.28065     -13427.082     -38095.248     -37761.863    
     98600   306.43514     -2931.216      -38103.105     -37765.138    
     98700   314.52769     -21449.491     -38116.033     -37769.141    
     98800   289.30624     -13764.128     -38116.066     -37796.99     
     98900   281.09881      9914.4237     -38122.652     -37812.628    
     99000   294.75925     -11237.811     -38119.744     -37794.654    
     99100   295.56324     -2814.0402     -38109.326     -37783.35     
     99200   303.40193     -2884.0263     -38111.721     -37777.099    
     99300   293.60344     -7569.267      -38097.036     -37773.221    
     99400   316.60333      1865.166      -38091.094     -37741.912    
     99500   327.63986     -14560.562     -38095.411     -37734.057    
     99600   292.78331     -5958.8545     -38087.4       -37764.489    
     99700   297.94732     -5958.3709     -38110.629     -37782.023    
     99800   283.32111     -1525.7955     -38103.473     -37790.998    
     99900   295.03074     -12869.938     -38106.096     -37780.706    
    100000   314.2594      -3128.1956     -38106.101     -37759.504    
    100100   316.79258     -6098.4527     -38078.264     -37728.874    
    100200   326.31298     -7568.7313     -38070.045     -37710.154    
    100300   300.6831      -9258.044      -38085.433     -37753.809    
    100400   294.31129     -190.54728     -38100.228     -37775.632    
    100500   316.91636      10705.58      -38135.544     -37786.017    
    100600   294.22159      12433.986     -38120.423     -37795.927    
    100700   266.50398     -1887.3332     -38091.003     -37797.076    
    100800   310.74016     -8137.1955     -38104.294     -37761.579    
    100900   301.30334     -17042.555     -38087.586     -37755.278    
    101000   296.82723     -6736.4938     -38099.202     -37771.832    
    101100   308.52218      5897.9449     -38134.464     -37794.195    
    101200   287.98212      9167.4213     -38114.613     -37796.997    
    101300   288.66844     -18647.502     -38106.32      -37787.948    
    101400   284.44899     -6335.6286     -38090.797     -37777.078    
    101500   302.82186     -2400.0206     -38095.187     -37761.204    
    101600   312.43047     -20257.373     -38097.757     -37753.178    
    101700   294.15125     -10199.772     -38098.882     -37774.463    
    101800   286.77496     -9688.4405     -38122.055     -37805.771    
    101900   284.70059     -5453.7894     -38113.227     -37799.231    
    102000   288.4835      -168.97598     -38093.054     -37774.886    
    102100   314.55834     -2887.2411     -38108.486     -37761.56     
    102200   309.97521      7308.2407     -38104.016     -37762.145    
    102300   293.18131     -13990.943     -38095.737     -37772.387    
    102400   280.85355     -5250.7867     -38106.116     -37796.363    
    102500   269.99729     -5162.4255     -38118.46      -37820.68     
    102600   267.84076      2758.7833     -38144.363     -37848.961    
    102700   287.11541      2620.7718     -38138.344     -37821.685    
    102800   277.89997     -7546.3408     -38103.606     -37797.11     
    102900   297.32435     -3540.8649     -38097.888     -37769.969    
    103000   325.4231      -18783.602     -38111.474     -37752.565    
    103100   310.0048      -5867.0962     -38102.516     -37760.612    
    103200   283.68211      10071.999     -38103.922     -37791.049    
    103300   299.76659      3140.5866     -38127.105     -37796.493    
    103400   295.05699     -15824.095     -38113.427     -37788.009    
    103500   299.89135      3964.5162     -38108.762     -37778.012    
    103600   291.97809     -942.35571     -38098.251     -37776.229    
    103700   297.58063     -22786.48      -38094.592     -37766.39     
[...]
    174300   289.6506      -5062.3606     -38166.754     -37847.299    
    174400   307.89189     -4021.2754     -38176.338     -37836.764    
    174500   316.98599      6647.3998     -38184.22      -37834.616    
    174600   283.4135      -7186.9954     -38172.964     -37860.388    
    174700   287.78621     -10673.807     -38193.432     -37876.033    
    174800   309.82262     -2285.7694     -38208.007     -37866.304    
    174900   316.7932       5766.7408     -38186.222     -37836.831    
    175000   305.5249       10661.758     -38170.568     -37833.604    
    175100   298.49926     -38.109433     -38175.82      -37846.605    
    175200   325.84994     -1509.7588     -38213.555     -37854.175    
    175300   312.20751     -9052.4725     -38205.533     -37861.2      
    175400   293.87542     -7819.8714     -38190.692     -37866.577    
    175500   301.26875     -14538.555     -38182.338     -37850.069    
    175600   307.44439     -11904.103     -38160.1       -37821.02     
    175700   328.33961      2237.0064     -38173.925     -37811.8      
    175800   283.96228      11217.673     -38161.007     -37847.825    
    175900   304.76854     -11642.753     -38204.956     -37868.827    
    176000   291.37368     -3428.9356     -38187.411     -37866.055    
    176100   299.5229      -14895.895     -38170.053     -37839.709    
    176200   320.97041      11282.896     -38183.637     -37829.638    
    176300   308.20179      5559.4905     -38182.782     -37842.867    
    176400   302.6911      -18234.506     -38180.985     -37847.147    
    176500   304.75825     -5976.3841     -38185.821     -37849.703    
    176600   320.06538     -8752.0695     -38202.634     -37849.634    
    176700   290.02385     -5037.9817     -38184.224     -37864.357    
    176800   262.78695      4362.7315     -38181.238     -37891.41     
    176900   293.78515     -3874.781      -38198.695     -37874.68     
    177000   298.89036     -5132.4601     -38181.208     -37851.561    
    177100   292.32252     -4018.1034     -38170.161     -37847.759    
    177200   295.29871     -13194.994     -38178.821     -37853.136    
    177300   307.69895      5606.4289     -38199.966     -37860.605    
    177400   282.62341      3247.7808     -38174.434     -37862.728    
    177500   285.18587      5451.0863     -38166.504     -37851.973    
    177600   308.39277     -11079.047     -38182.753     -37842.627    
    177700   314.51061     -14669.321     -38183.429     -37836.555    
    177800   296.28602      4966.313      -38181.778     -37855.004    
    177900   298.23227     -8830.5261     -38199.249     -37870.329    
    178000   312.78685     -485.72806     -38216.826     -37871.853    
    178100   308.85812     -6790.7381     -38194.697     -37854.057    
    178200   309.1876       9607.1317     -38166.34      -37825.337    
    178300   325.76397     -2873.029      -38175.969     -37816.684    
    178400   288.84836      4316.9478     -38159.921     -37841.35     
    178500   307.03778     -453.93617     -38201.61      -37862.978    
    178600   290.04184      3180.0199     -38185.877     -37865.99     
    178700   302.98767     -10675.341     -38189.472     -37855.307    
    178800   296.37881     -3855.19       -38155.58      -37828.704    
    178900   305.4559       7370.4107     -38155.896     -37819.009    
    179000   310.84192     -5836.8609     -38173.526     -37830.698    
    179100   308.06548     -2966.0515     -38179.276     -37839.511    
    179200   300.69096      3480.7553     -38183.073     -37851.441    
    179300   327.27138      14832.632     -38217.559     -37856.611    
    179400   282.4401      -6611.3068     -38176.26      -37864.757    
    179500   286.97685     -15863.823     -38195.784     -37879.277    
    179600   277.30491     -6431.7158     -38188.847     -37883.008    
    179700   301.7211      -4423.939      -38183.489     -37850.721    
    179800   309.4191       12431.383     -38175.147     -37833.888    
    179900   304.81178     -8969.5213     -38181.135     -37844.958    
    180000   294.55425      2452.9589     -38188.228     -37863.364    
    180100   288.06456     -10127.89      -38198.672     -37880.965    
    180200   278.12932     -11209.719     -38206.986     -37900.237    
    180300   278.65644     -3364.3157     -38207.812     -37900.481    
    180400   304.76042     -820.35164     -38200.335     -37864.215    
    180500   304.91688     -9539.7959     -38184.103     -37847.81     
    180600   315.2859      -7875.2364     -38182.612     -37834.883    
    180700   297.73107      6972.8926     -38167.382     -37839.014    
    180800   288.6489      -2504.1963     -38185.017     -37866.666    
    180900   283.49862      3097.9332     -38197.9       -37885.23     
    181000   294.32997      4551.6037     -38199.036     -37874.42     
    181100   293.97682     -7018.7431     -38177.787     -37853.56     
    181200   310.40208     -9865.8901     -38177.858     -37835.516    
    181300   300.5091      -6919.9978     -38166.51      -37835.078    
    181400   301.05803     -4205.4367     -38173.218     -37841.181    
    181500   300.83239      1948.9222     -38191.37      -37859.582    
    181600   288.54698     -3720.6894     -38190.834     -37872.596    
    181700   294.47187     -14202.22      -38196.416     -37871.643    
    181800   309.65346     -5712.3515     -38187.772     -37846.255    
    181900   295.41687     -1101.5934     -38152.233     -37826.418    
    182000   308.44869      1420.2348     -38170.405     -37830.217    
    182100   297.00039     -3228.0839     -38201.686     -37874.125    
    182200   293.93934     -3368.1247     -38205.719     -37881.533    
    182300   287.82345     -8389.0075     -38186.233     -37868.792    
    182400   304.02611      9797.6064     -38179.672     -37844.362    
    182500   304.15788      6739.4598     -38169.734     -37834.279    
    182600   301.70376      6848.1191     -38171.989     -37839.24     
    182700   304.55994     -869.90482     -38185.566     -37849.667    
    182800   297.20933     -3232.7857     -38183.16      -37855.368    
    182900   296.80949     -14921.389     -38181.701     -37854.35     
    183000   307.17369     -5379.0307     -38190.912     -37852.131    
    183100   307.44758      3722.074      -38179.501     -37840.417    
    183200   299.61807     -9236.14       -38158.738     -37828.289    
    183300   291.81806      3536.6692     -38162.39      -37840.544    
    183400   290.69528     -12082.54      -38191.36      -37870.752    
    183500   311.2216       919.18281     -38216.361     -37873.115    
    183600   288.97874      4829.1921     -38180.016     -37861.301    
    183700   316.97467     -22720.088     -38192.054     -37842.463    
    183800   298.26276     -6756.5439     -38167.253     -37838.299    
    183900   289.56219     -7139.4831     -38157.943     -37838.585    
    184000   304.47632      1312.83       -38182.272     -37846.465    
    184100   296.05431      5702.592      -38193.999     -37867.481    
    184200   285.51328     -275.58272     -38197.235     -37882.342    
    184300   285.432       -10852.523     -38204.485     -37889.682    
    184400   279.89184     -14154.162     -38169.437     -37860.745    
    184500   303.58167      650.06529     -38170.139     -37835.319    
    184600   321.35202     -14894.113     -38199.39      -37844.971    
    184700   299.71899     -9834.4546     -38191.521     -37860.961    
    184800   301.41992      9133.9599     -38202.303     -37869.867    
    184900   297.4638      -2805.5801     -38205.774     -37877.701    
    185000   290.86689      3625.2467     -38179.537     -37858.74     
    185100   310.51573     -10724.371     -38177.879     -37835.411    
    185200   288.42072     -4008.4573     -38163.18      -37845.081    
    185300   293.9978      -11040.229     -38189.558     -37865.308    
    185400   272.96366      4030.6598     -38192.462     -37891.41     
    185500   297.94759      13224.372     -38215.47      -37886.864    
    185600   310.25268      9395.0448     -38214.507     -37872.33     
    185700   302.07266     -3969.6421     -38192.767     -37859.611    
    185800   281.41962     -2487.2737     -38152.443     -37842.065    
    185900   303.2093      -5564.7349     -38169.306     -37834.897    
    186000   319.11872      15469.261     -38182.155     -37830.199    
    186100   297.45237      6737.9044     -38186.418     -37858.357    
    186200   294.60271      7339.7806     -38203.081     -37878.164    
    186300   264.53449     -3108.8291     -38161.768     -37870.013    
    186400   309.05084     -3088.9854     -38183.52      -37842.668    
    186500   313.27372      186.45632     -38182.243     -37836.734    
    186600   306.48946     -5731.3131     -38182.281     -37844.254    
    186700   303.92114      13322.007     -38198.933     -37863.739    
    186800   270.103        3262.8481     -38203.482     -37905.585    
    186900   270.60111      2646.6043     -38219.872     -37921.427    
    187000   276.37565     -1462.1765     -38197.599     -37892.784    
    187100   304.27502     -7377.6667     -38198.351     -37862.766    
    187200   291.62144      2649.5844     -38164.922     -37843.293    
    187300   305.31786     -51.55231      -38169.345     -37832.61     
    187400   297.11918      6216.8874     -38174.247     -37846.554    
    187500   292.03893     -4331.6007     -38200.225     -37878.135    
    187600   290.06587     -12101.207     -38204.504     -37884.591    
    187700   285.48296     -868.31261     -38185.156     -37870.297    
    187800   296.8646      -9135.987      -38185.811     -37858.399    
    187900   284.09447     -11392.573     -38162.62      -37849.292    
    188000   308.34174     -9886.4335     -38185.409     -37845.339    
    188100   299.18404      3325.5425     -38183.309     -37853.339    
    188200   274.87967      4568.6977     -38194.113     -37890.948    
    188300   275.58342     -14929.781     -38193.15      -37889.209    
    188400   302.75721     -12894.375     -38196.58      -37862.669    
    188500   312.47434      272.77855     -38194.375     -37849.747    
    188600   296.20549      1144.9092     -38172.303     -37845.618    
    188700   299.81994     -5533.8367     -38170.875     -37840.204    
    188800   301.4878       2662.6404     -38158.446     -37825.935    
    188900   295.96248     -6623.5082     -38153.367     -37826.95     
    189000   293.19285     -5915.714      -38173.616     -37850.253    
    189100   301.04923     -2593.4072     -38206.887     -37874.86     
    189200   304.00512      2629.2577     -38208.387     -37873.1      
    189300   294.32259     -13280.391     -38177.227     -37852.619    
    189400   294.13841     -18868.101     -38158.432     -37834.027    
    189500   296.22768     -3306.7623     -38164.711     -37838.002    
    189600   307.43861      4867.6335     -38193.311     -37854.237    
    189700   294.12956      626.38619     -38200.102     -37875.707    
    189800   282.88359      7873.6403     -38184.984     -37872.991    
    189900   311.75699      1347.9886     -38186.517     -37842.681    
    190000   308.18865     -5989.3685     -38164.384     -37824.483    
    190100   305.48728     -7229.0507     -38168.844     -37831.923    
    190200   292.50446      8862.1102     -38173.061     -37850.458    
    190300   280.59825     -7551.5971     -38176.759     -37867.287    
    190400   299.32996     -11135.366     -38192.764     -37862.633    
    190500   309.00335     -8674.1345     -38161.477     -37820.677    
    190600   314.69062     -5683.4101     -38167.238     -37820.166    
    190700   300.66938      4105.0767     -38175.761     -37844.152    
    190800   289.62238     -14819.552     -38179.718     -37860.293    
    190900   299.84024     -1375.4034     -38196.014     -37865.32     
    191000   299.34431     -7067.7051     -38183.143     -37852.997    
    191100   318.15747      10385.029     -38184.909     -37834.013    
    191200   334.28634     -12528.466     -38170.398     -37801.714    
    191300   330.64136     -15525.732     -38157.771     -37793.107    
    191400   308.92836     -12983.305     -38174.15      -37833.433    
    191500   292.43944     -3566.4671     -38177.241     -37854.709    
    191600   297.92699     -8724.8977     -38197.257     -37868.673    
    191700   295.91735     -4973.9597     -38207.602     -37881.235    
    191800   296.4083       1979.1153     -38195.902     -37868.993    
    191900   307.22379     -1365.3078     -38170.314     -37831.477    
    192000   302.66987     -2884.6504     -38159.639     -37825.825    
    192100   305.86406     -9321.8861     -38183.316     -37845.978    
    192200   296.3281       5880.7496     -38190.515     -37863.694    
    192300   299.25919     -2918.92       -38196.769     -37866.716    
    192400   290.80447     -5962.1633     -38176.089     -37855.361    
    192500   300.2416      -21794.841     -38184.79      -37853.654    
    192600   297.50535     -13415.934     -38178.273     -37850.154    
    192700   307.53894     -2557.8524     -38177.526     -37838.341    
    192800   313.39134      404.229       -38183.235     -37837.595    
    192900   298.14858     -3606.1571     -38195.6       -37866.772    
    193000   296.61516      5301.2427     -38205.238     -37878.101    
    193100   281.31848     -6901.0966     -38172.065     -37861.799    
    193200   300.19402     -9687.8703     -38166.788     -37835.704    
    193300   331.32112     -744.15338     -38195.786     -37830.372    
    193400   304.34944      10555.618     -38170.827     -37835.16     
    193500   306.9087       9061.7011     -38181.621     -37843.132    
    193600   305.7472       5916.2054     -38195.524     -37858.316    
    193700   289.26538     -5180.3045     -38194.732     -37875.701    
    193800   290.91374     -20981.092     -38218.888     -37898.039    
    193900   276.64445     -11745.261     -38213.103     -37907.991    
    194000   296.2669      -4681.6814     -38197.625     -37870.872    
    194100   288.41725     -110.12316     -38167.817     -37849.722    
    194200   303.39734     -1434.4326     -38173.33      -37838.713    
    194300   299.6509      -7723.5633     -38169.561     -37839.076    
    194400   288.37709     -270.32909     -38170.563     -37852.512    
    194500   277.37374     -1889.67       -38184.617     -37878.702    
    194600   288.0143      -1985.4354     -38198.043     -37880.392    
    194700   294.38966     -4395.3262     -38170.693     -37846.01     
    194800   316.50042     -4378.9685     -38181.488     -37832.42     
    194900   292.39313     -11857.005     -38167.967     -37845.486    
    195000   304.06301      3116.8805     -38195.291     -37859.94     
    195100   297.81961      1984.5686     -38196.653     -37868.188    
    195200   300.89893     -8453.0102     -38191.354     -37859.492    
    195300   318.79561     -1239.1942     -38182.908     -37831.309    
    195400   298.48537      1724.3759     -38161.309     -37832.11     
    195500   307.38985      3828.9447     -38188.93      -37849.91     
    195600   273.5717      -7417.3905     -38182.642     -37880.92     
    195700   287.48895      9804.6092     -38193.975     -37876.904    
    195800   297.92141      3405.2073     -38192.198     -37863.621    
    195900   293.58211     -8672.9147     -38177.207     -37853.416    
    196000   291.22557     -3519.2078     -38170.82      -37849.627    
    196100   303.79951      6239.5691     -38185.697     -37850.636    
    196200   291.10493      6475.4918     -38172.589     -37851.529    
    196300   297.95427      2915.8816     -38185.12      -37856.506    
    196400   297.12643     -5343.4996     -38187.887     -37860.186    
    196500   304.67283     -3326.2937     -38198.171     -37862.147    
    196600   303.76974     -15249.242     -38187.348     -37852.32     
    196700   329.18398     -8051.9595     -38191.311     -37828.254    
    196800   300.19882      16490.606     -38159.797     -37828.708    
    196900   289.52882      6984.4971     -38176.681     -37857.36     
    197000   287.63771     -4265.7051     -38194.334     -37877.098    
    197100   301.84963     -13985.964     -38201.791     -37868.881    
    197200   309.29321     -2561.1428     -38190.266     -37849.147    
    197300   289.74302     -12784.21      -38154.023     -37834.465    
    197400   289.00424     -9489.3764     -38154.595     -37835.852    
    197500   295.7809       2546.6679     -38169.253     -37843.037    
    197600   301.56596      4496.1785     -38196.914     -37864.317    
    197700   300.44716     -6107.1525     -38205.516     -37874.153    
    197800   293.97354     -582.15958     -38183.381     -37859.158    
    197900   290.14282     -1530.0558     -38144.632     -37824.633    
    198000   307.04276      6197.3423     -38158.385     -37819.748    
    198100   292.2772      -8218.4366     -38161.654     -37839.302    
    198200   303.39867     -800.01193     -38182.066     -37847.448    
    198300   303.73173     -88.681922     -38189.766     -37854.78     
    198400   274.48954      12963.657     -38163.929     -37861.195    
    198500   301.16257     -9676.1728     -38193.416     -37861.264    
    198600   318.17325     -6349.6001     -38204.348     -37853.434    
    198700   298.79255     -915.38193     -38164.585     -37835.047    
    198800   324.44086      1910.8465     -38175.482     -37817.656    
    198900   298.42486      2113.581      -38170.428     -37841.296    
    199000   301.67799      936.59161     -38193.061     -37860.341    
    199100   292.52545      460.97659     -38184.818     -37862.192    
    199200   292.60723     -3490.9322     -38175.384     -37852.667    
    199300   328.39974     -6247.1407     -38209.424     -37847.232    
    199400   316.21332     -18776.432     -38201.516     -37852.765    
    199500   287.62977      2260.0173     -38195.519     -37878.293    
    199600   281.49698     -7384.0485     -38197.299     -37886.836    
    199700   293.6667      -11303.301     -38184.132     -37860.247    
    199800   329.20771      5773.4287     -38201.959     -37838.876    
    199900   303.24692      4096.2829     -38177.458     -37843.007    
    200000   294.34456      3018.7529     -38178.952     -37854.32     
Loop time of 17602 on 8 procs for 200000 steps with 371 atoms

Performance: 0.491 ns/day, 48.894 hours/ns, 11.362 timesteps/s, 4.215 katom-step/s
84.6% CPU use with 4 MPI tasks x 2 OpenMP threads

MPI task timing breakdown:
Section |  min time  |  avg time  |  max time  |%varavg| %total
---------------------------------------------------------------
Pair    | 10781      | 11019      | 11234      | 203.2 | 62.60
Bond    | 0.60161    | 0.68313    | 0.74188    |   6.2 |  0.00
Neigh   | 115.28     | 117.67     | 119.39     |  14.5 |  0.67
Comm    | 3705.3     | 3923.5     | 4168.3     | 338.8 | 22.29
Output  | 5.7335     | 7.6046     | 10.178     |  69.6 |  0.04
Modify  | 2496.7     | 2505.5     | 2514.4     |  13.4 | 14.23
Other   |            | 27.93      |            |       |  0.16

Nlocal:          92.75 ave         104 max          82 min
Histogram: 1 0 0 1 0 1 0 0 0 1
Nghost:           4092 ave        4133 max        4072 min
Histogram: 2 0 1 0 0 0 0 0 0 1
Neighs:        56246.2 ave       62431 max       50143 min
Histogram: 1 0 0 1 0 0 1 0 0 1

Total # of neighbors = 224985
Ave neighs/atom = 606.42857
Ave special neighs/atom = 0
Neighbor list builds = 2830
Dangerous builds = 0
System init for write_data ...
WARNING: Compute rdf cutoff less than neighbor cutoff - forcing a needless neighbor list build (src/compute_rdf.cpp:179)
Total wall time: 4:53:29
