LAMMPS (2 Aug 2023 - Update 2)
  using 2 OpenMP thread(s) per MPI task
Reading data file ...
  triclinic box = (0 0 0) to (15.6782 14.2194 17.6383) with tilt (-7.0409 -1.0144 0.675)
  2 by 2 by 2 MPI processor grid
  reading atoms ...
  350 atoms
Finding 1-2 1-3 1-4 neighbors ...
  special bond factors lj:    0        0        0       
  special bond factors coul:  0        0        0       
     0 = max # of 1-2 neighbors
     0 = max # of 1-3 neighbors
     0 = max # of 1-4 neighbors
     1 = max # of special neighbors
  special bonds CPU = 0.001 seconds
  read_data CPU = 0.006 seconds
WARNING: Van der Waals parameters for element SI indicate inner wall+shielding, but earlier atoms indicate a different van der Waals method. This may cause division-by-zero errors. Keeping van der Waals setting for earlier atoms. (src/REAXFF/reaxff_ffield.cpp:251)
*****Minimization starts.*****

CITE-CITE-CITE-CITE-CITE-CITE-CITE-CITE-CITE-CITE-CITE-CITE-CITE

Your simulation uses code contributions which should be cited:
- pair reaxff command: doi:10.1016/j.parco.2011.08.005
- fix qeq/reaxff command: doi:10.1016/j.parco.2011.08.005
The log file lists these citations in BibTeX format.

CITE-CITE-CITE-CITE-CITE-CITE-CITE-CITE-CITE-CITE-CITE-CITE-CITE

WARNING: Fix qeq/reaxff group is not charge neutral, net charge = -10.66 (src/REAXFF/fix_qeq_reaxff.cpp:392)
Neighbor list info ...
  update: every = 1 steps, delay = 0 steps, check = yes
  max neighbors/atom: 2000, page size: 100000
  master list distance cutoff = 12
  ghost atom cutoff = 12
  binsize = 6, bins = 4 3 3
  2 neighbor lists, perpetual/occasional/extra = 2 0 0
  (1) pair reaxff, perpetual
      attributes: half, newton off, ghost
      pair build: half/bin/newtoff/ghost
      stencil: full/ghost/bin/3d
      bin: standard
  (2) fix qeq/reaxff, perpetual, copy from (1)
      attributes: half, newton off
      pair build: copy
      stencil: none
      bin: none
Setting up cg style minimization ...
  Unit style    : real
  Current step  : 0
Per MPI rank memory allocation (min/avg/max) = 130.1 | 130.8 | 131.5 Mbytes
   Step          Temp          E_pair         E_mol          TotEng         Press     
         0   0             -30535.512      0             -30535.512      172158.12    
        83   0             -33906.096      0             -33906.096     -8615.5696    
Loop time of 16.2667 on 16 procs for 83 steps with 350 atoms

97.2% CPU use with 8 MPI tasks x 2 OpenMP threads

Minimization stats:
  Stopping criterion = energy tolerance
  Energy initial, next-to-last, final = 
     -30535.5124568099  -33906.0956071233  -33906.0958054956
  Force two-norm initial, final = 4613.082 116.23154
  Force max component initial, final = 555.68565 58.470598
  Final line search alpha, max atom move = 4.5805165e-06 0.00026782554
  Iterations, force evaluations = 83 392

MPI task timing breakdown:
Section |  min time  |  avg time  |  max time  |%varavg| %total
---------------------------------------------------------------
Pair    | 8.478      | 11.05      | 12.862     |  56.3 | 67.93
Bond    | 0.00011247 | 0.00017568 | 0.00027813 |   0.0 |  0.00
Neigh   | 0          | 0          | 0          |   0.0 |  0.00
Comm    | 0.32856    | 2.141      | 4.7119     | 127.8 | 13.16
Output  | 0.0164     | 0.023699   | 0.027133   |   2.0 |  0.15
Modify  | 3.0266     | 3.028      | 3.03       |   0.1 | 18.61
Other   |            | 0.02381    |            |       |  0.15

Nlocal:          43.75 ave          49 max          38 min
Histogram: 2 1 0 1 0 0 0 1 1 2
Nghost:        3161.62 ave        3189 max        3136 min
Histogram: 1 0 2 0 1 1 1 0 1 1
Neighs:        27163.5 ave       30447 max       23708 min
Histogram: 2 1 0 1 0 0 0 2 0 2

Total # of neighbors = 217308
Ave neighs/atom = 620.88
Ave special neighs/atom = 0
Neighbor list builds = 0
Dangerous builds = 0
System init for write_data ...
WARNING: Van der Waals parameters for element SI indicate inner wall+shielding, but earlier atoms indicate a different van der Waals method. This may cause division-by-zero errors. Keeping van der Waals setting for earlier atoms. (src/REAXFF/reaxff_ffield.cpp:251)
WARNING: New thermo_style command, previous thermo_modify settings will be lost (src/output.cpp:903)
Neighbor list info ...
  update: every = 10 steps, delay = 0 steps, check = no
  max neighbors/atom: 2000, page size: 100000
  master list distance cutoff = 12
  ghost atom cutoff = 12
  binsize = 6, bins = 4 3 3
  2 neighbor lists, perpetual/occasional/extra = 2 0 0
  (1) pair reaxff, perpetual
      attributes: half, newton off, ghost
      pair build: half/bin/newtoff/ghost
      stencil: full/ghost/bin/3d
      bin: standard
  (2) fix qeq/reaxff, perpetual, copy from (1)
      attributes: half, newton off
      pair build: copy
      stencil: none
      bin: none
Setting up Verlet run ...
  Unit style    : real
  Current step  : 0
  Time step     : 0.5
Per MPI rank memory allocation (min/avg/max) = 124 | 124.6 | 125.3 Mbytes
   Step          Temp          PotEng         Press         Density         Volume    
         0   300           -33906.096     -4987.3841      1.6516858      3932.1873    
       100   215.31252     -33780.171     -3686.8256      1.6516858      3932.1873    
       200   257.21922     -33765.941      459.44075      1.6516858      3932.1873    
       300   327.5619      -33790.907      2056.5125      1.6516858      3932.1873    
       400   338.34051     -33806.435      12191.803      1.6516858      3932.1873    
       500   350.90689     -33892.391      5272.0924      1.6516858      3932.1873    
       600   311.06354     -33914.517     -905.30903      1.6516858      3932.1873    
       700   307.33525     -33964.187      4492.3014      1.6516858      3932.1873    
       800   329.94883     -34041.717      2510.7678      1.6516858      3932.1873    
       900   312.7092      -34067.512     -4841.8555      1.6516858      3932.1873    
      1000   321.92429     -34119.611     -1043.0142      1.6516858      3932.1873    
      1100   303.38157     -34149.798     -4764.9514      1.6516858      3932.1873    
      1200   299.76094     -34176.473     -7522.1579      1.6516858      3932.1873    
      1300   290.69976     -34189.724      243.53703      1.6516858      3932.1873    
      1400   276.73211     -34205.501      5926.1337      1.6516858      3932.1873    
      1500   282.85874     -34258.575     -705.96041      1.6516858      3932.1873    
      1600   285.05935     -34303.367      688.72836      1.6516858      3932.1873    
      1700   260.38882     -34318.787     -5626.1602      1.6516858      3932.1873    
      1800   307.19591     -34399.482     -1314.8449      1.6516858      3932.1873    
      1900   427.59513     -34577.773      5213.1648      1.6516858      3932.1873    
      2000   299.63126     -34502.656     -1899.7002      1.6516858      3932.1873    
      2100   391.98463     -34663.911      13573.253      1.6516858      3932.1873    
      2200   352.80638     -34686.862      13932.803      1.6516858      3932.1873    
      2300   294.92458     -34696.903     -5180.4181      1.6516858      3932.1873    
      2400   338.64543     -34788.078      4893.9343      1.6516858      3932.1873    
      2500   325.0652      -34807.096      3675.9518      1.6516858      3932.1873    
      2600   260.99479     -34766.524      3567.0281      1.6516858      3932.1873    
      2700   309.53257     -34827.029      12429.841      1.6516858      3932.1873    
      2800   326.95618     -34825.087      25595.708      1.6516858      3932.1873    
      2900   290.51115     -34770.128      5060.4322      1.6516858      3932.1873    
      3000   319.71024     -34831.44       5033.4386      1.6516858      3932.1873    
      3100   310.30133     -34868.156     -2853.9105      1.6516858      3932.1873    
      3200   340.29521     -34953.665     -1736.904       1.6516858      3932.1873    
      3300   290.71453     -34945.498      10725.322      1.6516858      3932.1873    
      3400   320.99036     -35002.157     -5076.2336      1.6516858      3932.1873    
      3500   292.54723     -34973.811      12544.54       1.6516858      3932.1873    
      3600   279.50435     -34931.07      -2569.5366      1.6516858      3932.1873    
      3700   332.76301     -34984.513      11501.802      1.6516858      3932.1873    
      3800   314.76954     -34999.794      3999.0935      1.6516858      3932.1873    
      3900   339.72724     -35073.561      7364.5037      1.6516858      3932.1873    
      4000   376.0589      -35207.246     -12431.275      1.6516858      3932.1873    
      4100   330.9312      -35243.679      2090.0614      1.6516858      3932.1873    
      4200   277.00701     -35252.897      7665.2725      1.6516858      3932.1873    
      4300   307.08532     -35324.589      4489.3539      1.6516858      3932.1873    
      4400   302.75751     -35324.002     -1421.627       1.6516858      3932.1873    
      4500   265.10782     -35277.294      3056.5204      1.6516858      3932.1873    
      4600   316.65198     -35319.749     -5166.9626      1.6516858      3932.1873    
      4700   272.06914     -35255.496      723.91286      1.6516858      3932.1873    
      4800   300.44158     -35269.26      -5106.7594      1.6516858      3932.1873    
      4900   281.11859     -35256.986      3192.2245      1.6516858      3932.1873    
      5000   281.80113     -35271.377     -13409.376      1.6516858      3932.1873    
Loop time of 201.885 on 16 procs for 5000 steps with 350 atoms

Performance: 1.070 ns/day, 22.432 hours/ns, 24.767 timesteps/s, 8.668 katom-step/s
99.4% CPU use with 8 MPI tasks x 2 OpenMP threads

MPI task timing breakdown:
Section |  min time  |  avg time  |  max time  |%varavg| %total
---------------------------------------------------------------
Pair    | 109.57     | 148.82     | 163.34     | 182.7 | 73.71
Bond    | 0.0013109  | 0.0015143  | 0.0016648  |   0.3 |  0.00
Neigh   | 11.381     | 15.061     | 16.867     |  54.3 |  7.46
Comm    | 3.5946     | 18.099     | 57.378     | 524.0 |  8.96
Output  | 0.019043   | 0.0209     | 0.02286    |   1.0 |  0.01
Modify  | 17.933     | 19.777     | 23.496     |  47.6 |  9.80
Other   |            | 0.109      |            |       |  0.05

Nlocal:          43.75 ave          49 max          39 min
Histogram: 1 0 0 2 1 0 3 0 0 1
Nghost:        3120.12 ave        3160 max        3099 min
Histogram: 3 0 1 1 1 0 1 0 0 1
Neighs:        27185.6 ave       30343 max       24299 min
Histogram: 1 0 1 2 0 2 1 0 0 1

Total # of neighbors = 217485
Ave neighs/atom = 621.38571
Ave special neighs/atom = 0
Neighbor list builds = 500
Dangerous builds not checked
System init for write_data ...
System init for write_restart ...
  using 2 OpenMP thread(s) per MPI task
Reading restart file ...
  restart file = 2 Aug 2023, LAMMPS = 2 Aug 2023
  restoring atom style full from restart
  triclinic box = (0 0 0) to (15.6782 14.2194 17.6383) with tilt (-7.0409 -1.0144 0.675)
  2 by 2 by 2 MPI processor grid
  pair style reaxff stores no restart info
  350 atoms
Finding 1-2 1-3 1-4 neighbors ...
  special bond factors lj:    0        0        0       
  special bond factors coul:  0        0        0       
     0 = max # of 1-2 neighbors
     0 = max # of 1-3 neighbors
     0 = max # of 1-4 neighbors
     1 = max # of special neighbors
  special bonds CPU = 0.000 seconds
  read_restart CPU = 0.003 seconds
*****Positive-deform 1 starts.*****
WARNING: Van der Waals parameters for element SI indicate inner wall+shielding, but earlier atoms indicate a different van der Waals method. This may cause division-by-zero errors. Keeping van der Waals setting for earlier atoms. (src/REAXFF/reaxff_ffield.cpp:251)
Resetting global fix info from restart file:
  fix style: nvt, fix ID: fnvt
All restart file global fix info was re-assigned
Unused restart file peratom fix info:
  fix style: STORE/ATOM, fix ID: msd1_COMPUTE_STORE
Neighbor list info ...
  update: every = 10 steps, delay = 0 steps, check = no
  max neighbors/atom: 2000, page size: 100000
  master list distance cutoff = 12
  ghost atom cutoff = 12
  binsize = 6, bins = 4 3 3
  2 neighbor lists, perpetual/occasional/extra = 2 0 0
  (1) pair reaxff, perpetual
      attributes: half, newton off, ghost
      pair build: half/bin/newtoff/ghost
      stencil: full/ghost/bin/3d
      bin: standard
  (2) fix qeq/reaxff, perpetual, copy from (1)
      attributes: half, newton off
      pair build: copy
      stencil: none
      bin: none
Setting up Verlet run ...
  Unit style    : real
  Current step  : 0
  Time step     : 0.5
Per MPI rank memory allocation (min/avg/max) = 127 | 127.8 | 128.9 Mbytes
   Step          Temp          PotEng         Press          Volume           Lx             Ly             Lz      
         0   281.80113     -35271.377     -13409.586      3932.1873      15.6782        14.2194        17.6383      
       100   312.22534     -35308.99       356.2534       4010.831       15.991764      14.2194        17.6383      
       200   426.79953     -35179.788     -4164.2661      4089.4748      16.305328      14.2194        17.6383      
       300   466.51019     -35094.822      338.27731      4168.1185      16.618892      14.2194        17.6383      
       400   476.67378     -35113.123      100.88292      4246.7623      16.932456      14.2194        17.6383      
       500   466.7329      -35059.542      4216.2244      4325.406       17.24602       14.2194        17.6383      
       600   459.77265     -35083.555     -10020.804      4404.0498      17.559584      14.2194        17.6383      
       700   477.18027     -35156.755     -4107.194       4482.6935      17.873148      14.2194        17.6383      
       800   462.68787     -35162.245     -11734.506      4561.3373      18.186712      14.2194        17.6383      
       900   463.75537     -35142.105     -12581.153      4639.981       18.500276      14.2194        17.6383      
      1000   431.26598     -35088.171     -16156.343      4718.6248      18.81384       14.2194        17.6383      
      1100   385.17351     -35069.769     -7177.373       4797.2685      19.127404      14.2194        17.6383      
      1200   369.76405     -35068.737     -10860.776      4875.9123      19.440968      14.2194        17.6383      
      1300   386.52668     -35029.967     -14129.756      4954.556       19.754532      14.2194        17.6383      
      1400   406.86864     -35107.796     -24618.326      5033.1997      20.068096      14.2194        17.6383      
      1500   390.44786     -35124.929     -13739.071      5111.8435      20.38166       14.2194        17.6383      
      1600   350.69529     -35071.339     -11882.489      5190.4872      20.695224      14.2194        17.6383      
      1700   311.01894     -34973.035     -12780.837      5269.131       21.008788      14.2194        17.6383      
      1800   386.44193     -35012.734     -12669.951      5347.7747      21.322352      14.2194        17.6383      
      1900   386.2974      -35015.658     -16240.921      5426.4185      21.635916      14.2194        17.6383      
      2000   346.60119     -34966.31      -19571.248      5505.0622      21.94948       14.2194        17.6383      
      2100   349.15757     -34972.035     -16294.417      5583.706       22.263044      14.2194        17.6383      
      2200   335.61025     -34940.151     -19204.604      5662.3497      22.576608      14.2194        17.6383      
      2300   307.32631     -34894.119     -15235.085      5740.9935      22.890172      14.2194        17.6383      
      2400   340.88721     -34912.898     -23299.041      5819.6372      23.203736      14.2194        17.6383      
      2500   353.35309     -34935.104     -15921.662      5898.281       23.5173        14.2194        17.6383      
      2600   288.63762     -34919.227     -17365.132      5976.9247      23.830864      14.2194        17.6383      
      2700   322.72827     -34944.945     -16630.943      6055.5684      24.144428      14.2194        17.6383      
      2800   334.23369     -34979.359     -8747.6859      6134.2122      24.457992      14.2194        17.6383      
      2900   338.95893     -35027.071     -11361.041      6212.8559      24.771556      14.2194        17.6383      
      3000   321.60912     -35099.926      5707.9938      6291.4997      25.08512       14.2194        17.6383      
      3100   309.25385     -35120.889      4063.38        6370.1434      25.398684      14.2194        17.6383      
      3200   316.90886     -35150.979     -5468.7497      6448.7872      25.712248      14.2194        17.6383      
      3300   355.66955     -35225.783     -5032.4469      6527.4309      26.025812      14.2194        17.6383      
      3400   307.87362     -35219.189     -5761.0335      6606.0747      26.339376      14.2194        17.6383      
      3500   311.77057     -35262.275     -1271.1183      6684.7184      26.65294       14.2194        17.6383      
      3600   266.80207     -35232.017     -1880.8995      6763.3622      26.966504      14.2194        17.6383      
      3700   270.012       -35227.494     -7477.4096      6842.0059      27.280068      14.2194        17.6383      
      3800   309.67345     -35274.611     -2702.6884      6920.6497      27.593632      14.2194        17.6383      
      3900   303.30506     -35272.935     -4371.3138      6999.2934      27.907196      14.2194        17.6383      
      4000   274.37658     -35252.04      -6348.6277      7077.9371      28.22076       14.2194        17.6383      
      4100   303.97662     -35303.034     -5153.9542      7156.5809      28.534324      14.2194        17.6383      
      4200   304.97956     -35300.566     -8465.577       7235.2246      28.847888      14.2194        17.6383      
      4300   318.25421     -35341.154     -6131.8035      7313.8684      29.161452      14.2194        17.6383      
      4400   285.62067     -35393.887     -8927.8302      7392.5121      29.475016      14.2194        17.6383      
      4500   282.91515     -35422.718     -6734.0492      7471.1559      29.78858       14.2194        17.6383      
      4600   270.02374     -35432.127     -6633.2079      7549.7996      30.102144      14.2194        17.6383      
      4700   287.2539      -35423.542     -1122.742       7628.4434      30.415708      14.2194        17.6383      
      4800   293.42473     -35407.896     -9680.0757      7707.0871      30.729272      14.2194        17.6383      
      4900   292.63676     -35393.642      1579.1292      7785.7309      31.042836      14.2194        17.6383      
      5000   297.04164     -35416.047     -5593.0116      7864.3746      31.3564        14.2194        17.6383      
Loop time of 145.868 on 16 procs for 5000 steps with 350 atoms

Performance: 1.481 ns/day, 16.208 hours/ns, 34.277 timesteps/s, 11.997 katom-step/s
99.3% CPU use with 8 MPI tasks x 2 OpenMP threads

MPI task timing breakdown:
Section |  min time  |  avg time  |  max time  |%varavg| %total
---------------------------------------------------------------
Pair    | 74.418     | 103.99     | 116.73     | 162.5 | 71.29
Bond    | 0.0012998  | 0.0014933  | 0.0018962  |   0.5 |  0.00
Neigh   | 6.2626     | 8.3504     | 9.7271     |  41.9 |  5.72
Comm    | 3.1157     | 15.863     | 45.45      | 416.3 | 10.87
Output  | 0.016055   | 0.018288   | 0.019609   |   0.8 |  0.01
Modify  | 16.148     | 17.55      | 19.634     |  29.0 | 12.03
Other   |            | 0.09726    |            |       |  0.07

Nlocal:          43.75 ave          62 max          25 min
Histogram: 1 1 0 1 2 0 0 1 0 2
Nghost:        2184.62 ave        2382 max        2013 min
Histogram: 4 0 0 0 0 0 0 1 1 2
Neighs:        14029.1 ave       20091 max        8304 min
Histogram: 1 1 0 2 1 0 1 0 0 2

Total # of neighbors = 112233
Ave neighs/atom = 320.66571
Ave special neighs/atom = 0
Neighbor list builds = 500
Dangerous builds not checked
  using 2 OpenMP thread(s) per MPI task
Reading restart file ...
  restart file = 2 Aug 2023, LAMMPS = 2 Aug 2023
  restoring atom style full from restart
  triclinic box = (0 0 0) to (15.6782 14.2194 17.6383) with tilt (-7.0409 -1.0144 0.675)
  2 by 2 by 2 MPI processor grid
  pair style reaxff stores no restart info
  350 atoms
Finding 1-2 1-3 1-4 neighbors ...
  special bond factors lj:    0        0        0       
  special bond factors coul:  0        0        0       
     0 = max # of 1-2 neighbors
     0 = max # of 1-3 neighbors
     0 = max # of 1-4 neighbors
     1 = max # of special neighbors
  special bonds CPU = 0.000 seconds
  read_restart CPU = 0.003 seconds
*****Positive-deform 2 starts.*****
WARNING: Van der Waals parameters for element SI indicate inner wall+shielding, but earlier atoms indicate a different van der Waals method. This may cause division-by-zero errors. Keeping van der Waals setting for earlier atoms. (src/REAXFF/reaxff_ffield.cpp:251)
Resetting global fix info from restart file:
  fix style: nvt, fix ID: fnvt
All restart file global fix info was re-assigned
Unused restart file peratom fix info:
  fix style: STORE/ATOM, fix ID: msd1_COMPUTE_STORE
Neighbor list info ...
  update: every = 10 steps, delay = 0 steps, check = no
  max neighbors/atom: 2000, page size: 100000
  master list distance cutoff = 12
  ghost atom cutoff = 12
  binsize = 6, bins = 4 3 3
  2 neighbor lists, perpetual/occasional/extra = 2 0 0
  (1) pair reaxff, perpetual
      attributes: half, newton off, ghost
      pair build: half/bin/newtoff/ghost
      stencil: full/ghost/bin/3d
      bin: standard
  (2) fix qeq/reaxff, perpetual, copy from (1)
      attributes: half, newton off
      pair build: copy
      stencil: none
      bin: none
Setting up Verlet run ...
  Unit style    : real
  Current step  : 0
  Time step     : 0.5
Per MPI rank memory allocation (min/avg/max) = 127 | 127.8 | 128.9 Mbytes
   Step          Temp          PotEng         Press          Volume           Lx             Ly             Lz      
         0   281.80113     -35271.377     -13409.586      3932.1873      15.6782        14.2194        17.6383      
       100   311.13609     -35303.784      689.18951      4010.831       15.6782        14.503788      17.6383      
       200   341.34345     -35219.495     -11892.472      4089.4748      15.6782        14.788176      17.6383      
       300   365.22057     -35140.171     -14183.86       4168.1185      15.6782        15.072564      17.6383      
       400   401.15419     -35107.773     -9582.9402      4246.7623      15.6782        15.356952      17.6383      
       500   366.16713     -35093.179      2156.75        4325.406       15.6782        15.64134       17.6383      
       600   383.90634     -35121.166     -6595.0196      4404.0498      15.6782        15.925728      17.6383      
       700   374.01238     -35096.534     -5991.5122      4482.6935      15.6782        16.210116      17.6383      
       800   343.78539     -35083.31      -2597.6754      4561.3373      15.6782        16.494504      17.6383      
       900   400.94861     -35111.339     -2721.2175      4639.981       15.6782        16.778892      17.6383      
      1000   359.47182     -35027.146     -159.27528      4718.6248      15.6782        17.06328       17.6383      
      1100   351.4527      -34960.489      741.32808      4797.2685      15.6782        17.347668      17.6383      
      1200   369.48954     -34998.479     -15488.634      4875.9123      15.6782        17.632056      17.6383      
      1300   384.67033     -35006.109     -12276.746      4954.556       15.6782        17.916444      17.6383      
      1400   330.83406     -35014.495     -11773.22       5033.1997      15.6782        18.200832      17.6383      
      1500   326.6639      -35024.913     -16867.101      5111.8435      15.6782        18.48522       17.6383      
      1600   312.33102     -34971.351     -3680.2056      5190.4872      15.6782        18.769608      17.6383      
      1700   355.3256      -34985.486     -3601.6053      5269.131       15.6782        19.053996      17.6383      
      1800   323.06971     -34939.029     -12573.689      5347.7747      15.6782        19.338384      17.6383      
      1900   398.67689     -34952.241     -1917.1847      5426.4185      15.6782        19.622772      17.6383      
      2000   355.70822     -34902.49      -6700.7553      5505.0622      15.6782        19.90716       17.6383      
      2100   439.18472     -35036.208      255.11803      5583.706       15.6782        20.191548      17.6383      
      2200   340.66248     -34932.842      2145.6528      5662.3497      15.6782        20.475936      17.6383      
      2300   314.38496     -34899.836     -4357.3701      5740.9935      15.6782        20.760324      17.6383      
      2400   320.99149     -34901.983     -3714.4622      5819.6372      15.6782        21.044712      17.6383      
      2500   324.66951     -34923.7       -2127.1537      5898.281       15.6782        21.3291        17.6383      
      2600   354.44078     -34983.313     -10400.342      5976.9247      15.6782        21.613488      17.6383      
      2700   346.63338     -34944.835     -5319.449       6055.5684      15.6782        21.897876      17.6383      
      2800   348.26535     -34922.053     -3229.2413      6134.2122      15.6782        22.182264      17.6383      
      2900   370.18714     -34927.351     -11230.031      6212.8559      15.6782        22.466652      17.6383      
      3000   316.09295     -34860.854     -8237.5741      6291.4997      15.6782        22.75104       17.6383      
      3100   418.43332     -35017.911     -11507.066      6370.1434      15.6782        23.035428      17.6383      
      3200   365.92142     -34950.855     -11732.576      6448.7872      15.6782        23.319816      17.6383      
      3300   336.13203     -34963.834     -10746.7        6527.4309      15.6782        23.604204      17.6383      
      3400   317.38836     -34990.422     -12852.123      6606.0747      15.6782        23.888592      17.6383      
      3500   388.4486      -35022.023     -5422.2076      6684.7184      15.6782        24.17298       17.6383      
      3600   335.70577     -35020.592      3574.8065      6763.3622      15.6782        24.457368      17.6383      
      3700   290.44359     -35040.445     -3837.3688      6842.0059      15.6782        24.741756      17.6383      
      3800   349.07117     -35105.729     -8914.0713      6920.6497      15.6782        25.026144      17.6383      
      3900   321.05516     -35101.226     -3296.0777      6999.2934      15.6782        25.310532      17.6383      
      4000   294.03757     -35094.751     -3731.7303      7077.9371      15.6782        25.59492       17.6383      
      4100   284.41504     -35073.051     -7401.3795      7156.5809      15.6782        25.879308      17.6383      
      4200   346.65352     -35080.96      -9788.5589      7235.2246      15.6782        26.163696      17.6383      
      4300   373.27065     -35089.388     -2799.9794      7313.8684      15.6782        26.448084      17.6383      
      4400   264.29829     -35021.701     -1231.039       7392.5121      15.6782        26.732472      17.6383      
      4500   273.62911     -35036.937     -4299.2514      7471.1559      15.6782        27.01686       17.6383      
      4600   352.04288     -35083.999     -6065.1856      7549.7996      15.6782        27.301248      17.6383      
      4700   359.83049     -35080.485     -5912.3122      7628.4434      15.6782        27.585636      17.6383      
      4800   394.10439     -35113.232     -1992.1025      7707.0871      15.6782        27.870024      17.6383      
      4900   385.84403     -35178.508     -3221.1237      7785.7309      15.6782        28.154412      17.6383      
      5000   337.9649      -35227.642     -1160.4002      7864.3746      15.6782        28.4388        17.6383      
Loop time of 134.911 on 16 procs for 5000 steps with 350 atoms

Performance: 1.601 ns/day, 14.990 hours/ns, 37.062 timesteps/s, 12.972 katom-step/s
99.5% CPU use with 8 MPI tasks x 2 OpenMP threads

MPI task timing breakdown:
Section |  min time  |  avg time  |  max time  |%varavg| %total
---------------------------------------------------------------
Pair    | 67.476     | 91.5       | 105.95     | 170.1 | 67.82
Bond    | 0.0011948  | 0.001424   | 0.0017361  |   0.5 |  0.00
Neigh   | 6.074      | 7.9297     | 9.4016     |  43.4 |  5.88
Comm    | 3.3833     | 17.836     | 41.861     | 385.1 | 13.22
Output  | 0.015669   | 0.017831   | 0.019118   |   0.8 |  0.01
Modify  | 16.066     | 17.536     | 19.393     |  29.5 | 13.00
Other   |            | 0.08906    |            |       |  0.07

Nlocal:          43.75 ave          74 max           7 min
Histogram: 1 0 1 2 0 0 0 1 2 1
Nghost:        1729.25 ave        2025 max        1422 min
Histogram: 3 1 0 0 0 0 0 0 0 4
Neighs:        14682.1 ave       26103 max        1869 min
Histogram: 1 1 2 0 0 0 0 0 3 1

Total # of neighbors = 117457
Ave neighs/atom = 335.59143
Ave special neighs/atom = 0
Neighbor list builds = 500
Dangerous builds not checked
  using 2 OpenMP thread(s) per MPI task
Reading restart file ...
  restart file = 2 Aug 2023, LAMMPS = 2 Aug 2023
  restoring atom style full from restart
  triclinic box = (0 0 0) to (15.6782 14.2194 17.6383) with tilt (-7.0409 -1.0144 0.675)
  2 by 2 by 2 MPI processor grid
  pair style reaxff stores no restart info
  350 atoms
Finding 1-2 1-3 1-4 neighbors ...
  special bond factors lj:    0        0        0       
  special bond factors coul:  0        0        0       
     0 = max # of 1-2 neighbors
     0 = max # of 1-3 neighbors
     0 = max # of 1-4 neighbors
     1 = max # of special neighbors
  special bonds CPU = 0.000 seconds
  read_restart CPU = 0.003 seconds
*****Positive-deform 3 starts.*****
WARNING: Van der Waals parameters for element SI indicate inner wall+shielding, but earlier atoms indicate a different van der Waals method. This may cause division-by-zero errors. Keeping van der Waals setting for earlier atoms. (src/REAXFF/reaxff_ffield.cpp:251)
Resetting global fix info from restart file:
  fix style: nvt, fix ID: fnvt
All restart file global fix info was re-assigned
Unused restart file peratom fix info:
  fix style: STORE/ATOM, fix ID: msd1_COMPUTE_STORE
Neighbor list info ...
  update: every = 10 steps, delay = 0 steps, check = no
  max neighbors/atom: 2000, page size: 100000
  master list distance cutoff = 12
  ghost atom cutoff = 12
  binsize = 6, bins = 4 3 3
  2 neighbor lists, perpetual/occasional/extra = 2 0 0
  (1) pair reaxff, perpetual
      attributes: half, newton off, ghost
      pair build: half/bin/newtoff/ghost
      stencil: full/ghost/bin/3d
      bin: standard
  (2) fix qeq/reaxff, perpetual, copy from (1)
      attributes: half, newton off
      pair build: copy
      stencil: none
      bin: none
Setting up Verlet run ...
  Unit style    : real
  Current step  : 0
  Time step     : 0.5
Per MPI rank memory allocation (min/avg/max) = 127 | 127.8 | 128.9 Mbytes
   Step          Temp          PotEng         Press          Volume           Lx             Ly             Lz      
         0   281.80113     -35271.377     -13409.586      3932.1873      15.6782        14.2194        17.6383      
       100   310.21348     -35305.25       886.49823      4010.831       15.6782        14.2194        17.991066    
       200   354.33274     -35180.711     -17265.623      4089.4748      15.6782        14.2194        18.343832    
       300   463.75977     -35169.628     -13020.171      4168.1185      15.6782        14.2194        18.696598    
       400   375.52938     -35111.398      3177.83        4246.7623      15.6782        14.2194        19.049364    
       500   384.84662     -35190.822     -514.97532      4325.406       15.6782        14.2194        19.40213     
       600   401.09741     -35255.653      4242.5968      4404.0498      15.6782        14.2194        19.754896    
       700   351.62507     -35263.75       9853.6563      4482.6935      15.6782        14.2194        20.107662    
       800   372.45244     -35307.924     -3179.5932      4561.3373      15.6782        14.2194        20.460428    
       900   364.27331     -35339.541     -14239.358      4639.981       15.6782        14.2194        20.813194    
      1000   285.79775     -35309.459     -5151.2864      4718.6248      15.6782        14.2194        21.16596     
      1100   304.84645     -35335.081     -10822.646      4797.2685      15.6782        14.2194        21.518726    
      1200   294.72353     -35313.151     -11293.248      4875.9123      15.6782        14.2194        21.871492    
      1300   259.0331      -35247.613     -15895.053      4954.556       15.6782        14.2194        22.224258    
      1400   311.14768     -35257.132     -13526.891      5033.1997      15.6782        14.2194        22.577024    
      1500   284.89373     -35212.43      -8868.7365      5111.8435      15.6782        14.2194        22.92979     
      1600   293.22712     -35209.229     -12733.911      5190.4872      15.6782        14.2194        23.282556    
      1700   272.55381     -35196.466     -18029.392      5269.131       15.6782        14.2194        23.635322    
      1800   313.78249     -35240.083     -22360.626      5347.7747      15.6782        14.2194        23.988088    
      1900   294.97955     -35221.091     -13237.232      5426.4185      15.6782        14.2194        24.340854    
      2000   301.72772     -35231.493     -13087.951      5505.0622      15.6782        14.2194        24.69362     
      2100   329.59155     -35231.704     -9608.2298      5583.706       15.6782        14.2194        25.046386    
      2200   376.59438     -35288.877     -20002.931      5662.3497      15.6782        14.2194        25.399152    
      2300   292.13417     -35204.98      -19909.163      5740.9935      15.6782        14.2194        25.751918    
      2400   337.95229     -35266.085     -10481.197      5819.6372      15.6782        14.2194        26.104684    
      2500   332.05378     -35314.717     -830.53246      5898.281       15.6782        14.2194        26.45745     
      2600   313.56033     -35344.562      3929.4936      5976.9247      15.6782        14.2194        26.810216    
      2700   276.35486     -35335.224     -7302.9262      6055.5684      15.6782        14.2194        27.162982    
      2800   277.6417      -35304.929     -9206.7785      6134.2122      15.6782        14.2194        27.515748    
      2900   325.94057     -35288.975     -3321.0034      6212.8559      15.6782        14.2194        27.868514    
      3000   312.06662     -35278.958     -846.70834      6291.4997      15.6782        14.2194        28.22128     
      3100   370.9988      -35360.028     -2325.8331      6370.1434      15.6782        14.2194        28.574046    
      3200   339.81649     -35389.336      4374.8971      6448.7872      15.6782        14.2194        28.926812    
      3300   330.99797     -35449.452     -3088.0237      6527.4309      15.6782        14.2194        29.279578    
      3400   322.15343     -35487.39      -4337.3801      6606.0747      15.6782        14.2194        29.632344    
      3500   331.0546      -35490.021     -3643.6083      6684.7184      15.6782        14.2194        29.98511     
      3600   316.67017     -35454.389     -3706.8841      6763.3622      15.6782        14.2194        30.337876    
      3700   320.2023      -35456.3        4596.993       6842.0059      15.6782        14.2194        30.690642    
      3800   306.88746     -35435.759     -5869.0226      6920.6497      15.6782        14.2194        31.043408    
      3900   328.32499     -35470.814     -8381.2439      6999.2934      15.6782        14.2194        31.396174    
      4000   306.18625     -35476.205     -2999.6803      7077.9371      15.6782        14.2194        31.74894     
      4100   340.25711     -35482.876     -898.32172      7156.5809      15.6782        14.2194        32.101706    
      4200   283.62223     -35472.33      -7220.9165      7235.2246      15.6782        14.2194        32.454472    
      4300   288.83285     -35486.32      -1144.236       7313.8684      15.6782        14.2194        32.807238    
      4400   318.71527     -35503.74      -180.77004      7392.5121      15.6782        14.2194        33.160004    
      4500   304.18937     -35453.559      635.93045      7471.1559      15.6782        14.2194        33.51277     
      4600   326.12377     -35487.345      10885.875      7549.7996      15.6782        14.2194        33.865536    
      4700   385.76364     -35559.499     -10240.257      7628.4434      15.6782        14.2194        34.218302    
      4800   426.48523     -35591.586     -3285.8455      7707.0871      15.6782        14.2194        34.571068    
      4900   325.86416     -35530.875     -8489.3756      7785.7309      15.6782        14.2194        34.923834    
      5000   324.21421     -35554.716      686.19801      7864.3746      15.6782        14.2194        35.2766      
Loop time of 149.89 on 16 procs for 5000 steps with 350 atoms

Performance: 1.441 ns/day, 16.654 hours/ns, 33.358 timesteps/s, 11.675 katom-step/s
99.5% CPU use with 8 MPI tasks x 2 OpenMP threads

MPI task timing breakdown:
Section |  min time  |  avg time  |  max time  |%varavg| %total
---------------------------------------------------------------
Pair    | 79.297     | 108.14     | 119.38     | 116.1 | 72.15
Bond    | 0.0013064  | 0.0015148  | 0.0019908  |   0.5 |  0.00
Neigh   | 6.4631     | 8.4319     | 9.3972     |  32.4 |  5.63
Comm    | 2.8431     | 14.14      | 42.941     | 321.2 |  9.43
Output  | 0.018418   | 0.020575   | 0.022028   |   0.8 |  0.01
Modify  | 18.138     | 19.063     | 21.073     |  21.4 | 12.72
Other   |            | 0.0921     |            |       |  0.06

Nlocal:          43.75 ave          88 max           2 min
Histogram: 3 0 1 0 0 0 0 2 0 2
Nghost:        1960.38 ave        2296 max        1640 min
Histogram: 4 0 0 0 0 0 0 0 1 3
Neighs:        17479.4 ave       36834 max         608 min
Histogram: 3 1 0 0 0 0 0 1 1 2

Total # of neighbors = 139835
Ave neighs/atom = 399.52857
Ave special neighs/atom = 0
Neighbor list builds = 500
Dangerous builds not checked
  using 2 OpenMP thread(s) per MPI task
Reading restart file ...
  restart file = 2 Aug 2023, LAMMPS = 2 Aug 2023
  restoring atom style full from restart
  triclinic box = (0 0 0) to (15.6782 14.2194 17.6383) with tilt (-7.0409 -1.0144 0.675)
  2 by 2 by 2 MPI processor grid
  pair style reaxff stores no restart info
  350 atoms
Finding 1-2 1-3 1-4 neighbors ...
  special bond factors lj:    0        0        0       
  special bond factors coul:  0        0        0       
     0 = max # of 1-2 neighbors
     0 = max # of 1-3 neighbors
     0 = max # of 1-4 neighbors
     1 = max # of special neighbors
  special bonds CPU = 0.000 seconds
  read_restart CPU = 0.003 seconds
*****Positive-deform 4 starts.*****
WARNING: Van der Waals parameters for element SI indicate inner wall+shielding, but earlier atoms indicate a different van der Waals method. This may cause division-by-zero errors. Keeping van der Waals setting for earlier atoms. (src/REAXFF/reaxff_ffield.cpp:251)
Resetting global fix info from restart file:
  fix style: nvt, fix ID: fnvt
All restart file global fix info was re-assigned
Unused restart file peratom fix info:
  fix style: STORE/ATOM, fix ID: msd1_COMPUTE_STORE
Neighbor list info ...
  update: every = 10 steps, delay = 0 steps, check = no
  max neighbors/atom: 2000, page size: 100000
  master list distance cutoff = 12
  ghost atom cutoff = 12
  binsize = 6, bins = 4 3 3
  2 neighbor lists, perpetual/occasional/extra = 2 0 0
  (1) pair reaxff, perpetual
      attributes: half, newton off, ghost
      pair build: half/bin/newtoff/ghost
      stencil: full/ghost/bin/3d
      bin: standard
  (2) fix qeq/reaxff, perpetual, copy from (1)
      attributes: half, newton off
      pair build: copy
      stencil: none
      bin: none
Setting up Verlet run ...
  Unit style    : real
  Current step  : 0
  Time step     : 0.5
Per MPI rank memory allocation (min/avg/max) = 127 | 127.8 | 128.9 Mbytes
   Step          Temp          PotEng         Press          Volume           Lx             Ly             Lz      
         0   281.80113     -35271.377     -13409.586      3932.1873      15.6782        14.2194        17.6383      
       100   311.12613     -35305.232      755.27944      3932.1873      15.6782        14.2194        17.6383      
       200   386.65615     -35227.779      2349.0146      3932.1873      15.6782        14.2194        17.6383      
       300   364.19588     -35237.203     -8236.5163      3932.1873      15.6782        14.2194        17.6383      
       400   363.67238     -35232.39      -4462.4336      3932.1873      15.6782        14.2194        17.6383      
       500   357.57115     -35285.566     -4309.4057      3932.1873      15.6782        14.2194        17.6383      
       600   324.00494     -35258.028      7409.7646      3932.1873      15.6782        14.2194        17.6383      
       700   330.73497     -35280.328      5379.6472      3932.1873      15.6782        14.2194        17.6383      
       800   336.40754     -35230.215      6766.6138      3932.1873      15.6782        14.2194        17.6383      
       900   318.48042     -35232.694      2499.1463      3932.1873      15.6782        14.2194        17.6383      
      1000   307.27269     -35244.415      10418.83       3932.1873      15.6782        14.2194        17.6383      
      1100   307.62354     -35237.44       16469.893      3932.1873      15.6782        14.2194        17.6383      
      1200   359.81207     -35264.684      16153.291      3932.1873      15.6782        14.2194        17.6383      
      1300   285.75158     -35208.471      9785.8678      3932.1873      15.6782        14.2194        17.6383      
      1400   302.84719     -35238.594      4860.7521      3932.1873      15.6782        14.2194        17.6383      
      1500   247.2054      -35190.629     -6288.6679      3932.1873      15.6782        14.2194        17.6383      
      1600   312.09879     -35220.709     -740.18698      3932.1873      15.6782        14.2194        17.6383      
      1700   301.791       -35189.294     -1288.1553      3932.1873      15.6782        14.2194        17.6383      
      1800   331.34594     -35211.571      4599.8388      3932.1873      15.6782        14.2194        17.6383      
      1900   346.62387     -35224.033      8784.1133      3932.1873      15.6782        14.2194        17.6383      
      2000   287.43666     -35147.366      7939.3074      3932.1873      15.6782        14.2194        17.6383      
      2100   292.04472     -35183.84       23534.429      3932.1873      15.6782        14.2194        17.6383      
      2200   328.39613     -35258.814      10374.207      3932.1873      15.6782        14.2194        17.6383      
      2300   303.74605     -35185.111     -405.30418      3932.1873      15.6782        14.2194        17.6383      
      2400   306.62168     -35182.32       24438.219      3932.1873      15.6782        14.2194        17.6383      
      2500   366.00535     -35247.7       -3642.1189      3932.1873      15.6782        14.2194        17.6383      
      2600   337.16885     -35242.976      20104.515      3932.1873      15.6782        14.2194        17.6383      
      2700   347.57498     -35295.794      13096.464      3932.1873      15.6782        14.2194        17.6383      
      2800   346.51458     -35314.153      8607.4252      3932.1873      15.6782        14.2194        17.6383      
      2900   400.95589     -35360.482      6996.0136      3932.1873      15.6782        14.2194        17.6383      
      3000   346.3668      -35304.452      13059.719      3932.1873      15.6782        14.2194        17.6383      
      3100   347.22042     -35323.225      9899.333       3932.1873      15.6782        14.2194        17.6383      
      3200   356.66225     -35393.154     -1112.2732      3932.1873      15.6782        14.2194        17.6383      
      3300   350.60418     -35398.793      15321.887      3932.1873      15.6782        14.2194        17.6383      
      3400   313.89192     -35336.873      17396.86       3932.1873      15.6782        14.2194        17.6383      
      3500   347.72877     -35372.123      10648.856      3932.1873      15.6782        14.2194        17.6383      
      3600   327.1635      -35401.605      45.326598      3932.1873      15.6782        14.2194        17.6383      
      3700   290.43476     -35385.467      7522.0498      3932.1873      15.6782        14.2194        17.6383      
      3800   327.10806     -35390.344      10161.298      3932.1873      15.6782        14.2194        17.6383      
      3900   370.5926      -35400.065      2854.0198      3932.1873      15.6782        14.2194        17.6383      
      4000   308.06678     -35429.046      4213.2497      3932.1873      15.6782        14.2194        17.6383      
      4100   310.87346     -35453.706      13537.822      3932.1873      15.6782        14.2194        17.6383      
      4200   304.11531     -35433.716      8690.2026      3932.1873      15.6782        14.2194        17.6383      
      4300   361.64147     -35418.598     -599.47831      3932.1873      15.6782        14.2194        17.6383      
      4400   352.14231     -35513.663      1521.1905      3932.1873      15.6782        14.2194        17.6383      
      4500   371.51401     -35550.517     -8076.3718      3932.1873      15.6782        14.2194        17.6383      
      4600   317.20653     -35428.478      1406.4779      3932.1873      15.6782        14.2194        17.6383      
      4700   329.20758     -35431.745      7339.6045      3932.1873      15.6782        14.2194        17.6383      
      4800   276.47399     -35436.04      -3806.1324      3932.1873      15.6782        14.2194        17.6383      
      4900   359.53895     -35440.817      18265.687      3932.1873      15.6782        14.2194        17.6383      
      5000   369.74671     -35447.656      4659.716       3932.1873      15.6782        14.2194        17.6383      
Loop time of 228.178 on 16 procs for 5000 steps with 350 atoms

Performance: 0.947 ns/day, 25.353 hours/ns, 21.913 timesteps/s, 7.669 katom-step/s
99.4% CPU use with 8 MPI tasks x 2 OpenMP threads

MPI task timing breakdown:
Section |  min time  |  avg time  |  max time  |%varavg| %total
---------------------------------------------------------------
Pair    | 130.64     | 169.85     | 185.48     | 164.3 | 74.44
Bond    | 0.0013228  | 0.0016429  | 0.0021509  |   0.6 |  0.00
Neigh   | 12.797     | 16.61      | 18.393     |  50.2 |  7.28
Comm    | 5.0719     | 20.705     | 59.931     | 470.4 |  9.07
Output  | 0.014076   | 0.015882   | 0.017117   |   0.8 |  0.01
Modify  | 19.074     | 20.874     | 24.685     |  44.9 |  9.15
Other   |            | 0.1175     |            |       |  0.05

Nlocal:          43.75 ave          50 max          40 min
Histogram: 3 0 0 1 0 1 2 0 0 1
Nghost:        4129.25 ave        4163 max        4102 min
Histogram: 2 0 0 2 0 2 0 0 1 1
Neighs:        27245.8 ave       30836 max       25008 min
Histogram: 3 0 0 1 0 2 1 0 0 1

Total # of neighbors = 217966
Ave neighs/atom = 622.76
Ave special neighs/atom = 0
Neighbor list builds = 500
Dangerous builds not checked
  using 2 OpenMP thread(s) per MPI task
Reading restart file ...
  restart file = 2 Aug 2023, LAMMPS = 2 Aug 2023
  restoring atom style full from restart
  triclinic box = (0 0 0) to (15.6782 14.2194 17.6383) with tilt (-7.0409 -1.0144 0.675)
  2 by 2 by 2 MPI processor grid
  pair style reaxff stores no restart info
  350 atoms
Finding 1-2 1-3 1-4 neighbors ...
  special bond factors lj:    0        0        0       
  special bond factors coul:  0        0        0       
     0 = max # of 1-2 neighbors
     0 = max # of 1-3 neighbors
     0 = max # of 1-4 neighbors
     1 = max # of special neighbors
  special bonds CPU = 0.000 seconds
  read_restart CPU = 0.002 seconds
*****Positive-deform 5 starts.*****
WARNING: Van der Waals parameters for element SI indicate inner wall+shielding, but earlier atoms indicate a different van der Waals method. This may cause division-by-zero errors. Keeping van der Waals setting for earlier atoms. (src/REAXFF/reaxff_ffield.cpp:251)
Resetting global fix info from restart file:
  fix style: nvt, fix ID: fnvt
All restart file global fix info was re-assigned
Unused restart file peratom fix info:
  fix style: STORE/ATOM, fix ID: msd1_COMPUTE_STORE
Neighbor list info ...
  update: every = 10 steps, delay = 0 steps, check = no
  max neighbors/atom: 2000, page size: 100000
  master list distance cutoff = 12
  ghost atom cutoff = 12
  binsize = 6, bins = 4 3 3
  2 neighbor lists, perpetual/occasional/extra = 2 0 0
  (1) pair reaxff, perpetual
      attributes: half, newton off, ghost
      pair build: half/bin/newtoff/ghost
      stencil: full/ghost/bin/3d
      bin: standard
  (2) fix qeq/reaxff, perpetual, copy from (1)
      attributes: half, newton off
      pair build: copy
      stencil: none
      bin: none
Setting up Verlet run ...
  Unit style    : real
  Current step  : 0
  Time step     : 0.5
Per MPI rank memory allocation (min/avg/max) = 127 | 127.8 | 128.9 Mbytes
   Step          Temp          PotEng         Press          Volume           Lx             Ly             Lz      
         0   281.80113     -35271.377     -13409.586      3932.1873      15.6782        14.2194        17.6383      
       100   310.73944     -35305.028      495.47896      3932.1873      15.6782        14.2194        17.6383      
       200   365.75769     -35246.189     -6062.4323      3932.1873      15.6782        14.2194        17.6383      
       300   362.65294     -35205.818     -19349.025      3932.1873      15.6782        14.2194        17.6383      
       400   350.9818      -35234.808     -1493.5831      3932.1873      15.6782        14.2194        17.6383      
       500   380.89992     -35160.619     -14278.301      3932.1873      15.6782        14.2194        17.6383      
       600   402.18043     -35172.887     -777.61334      3932.1873      15.6782        14.2194        17.6383      
       700   326.76497     -35148.351     -10271.601      3932.1873      15.6782        14.2194        17.6383      
       800   412.5714      -35295.847      294.2266       3932.1873      15.6782        14.2194        17.6383      
       900   321.35003     -35242.765     -3721.2878      3932.1873      15.6782        14.2194        17.6383      
      1000   394.24056     -35324.926      4852.5556      3932.1873      15.6782        14.2194        17.6383      
      1100   358.55474     -35352.816      9655.8053      3932.1873      15.6782        14.2194        17.6383      
      1200   279.90136     -35382.639      4770.8002      3932.1873      15.6782        14.2194        17.6383      
      1300   337.44135     -35411.905     -16296.458      3932.1873      15.6782        14.2194        17.6383      
      1400   243.22506     -35348.9       -7961.1622      3932.1873      15.6782        14.2194        17.6383      
      1500   336.23803     -35430.512      8048.0248      3932.1873      15.6782        14.2194        17.6383      
      1600   301.59902     -35459.443      4740.3434      3932.1873      15.6782        14.2194        17.6383      
      1700   277.84783     -35445.372     -3930.1957      3932.1873      15.6782        14.2194        17.6383      
      1800   317.68907     -35469.693     -6090.2784      3932.1873      15.6782        14.2194        17.6383      
      1900   312.4643      -35444.28      -11471.509      3932.1873      15.6782        14.2194        17.6383      
      2000   283.66347     -35442.987     -9767.4043      3932.1873      15.6782        14.2194        17.6383      
      2100   294.22482     -35440.339     -3795.4542      3932.1873      15.6782        14.2194        17.6383      
      2200   328.29377     -35473.543     -334.22214      3932.1873      15.6782        14.2194        17.6383      
      2300   294.11283     -35498.119      9405.7515      3932.1873      15.6782        14.2194        17.6383      
      2400   296.16297     -35486.153     -214.53981      3932.1873      15.6782        14.2194        17.6383      
      2500   325.30452     -35507.386      2970.3459      3932.1873      15.6782        14.2194        17.6383      
      2600   307.62298     -35461.998      1237.6301      3932.1873      15.6782        14.2194        17.6383      
      2700   321.89068     -35491.877      15254.384      3932.1873      15.6782        14.2194        17.6383      
      2800   297.77866     -35494.428      2919.99        3932.1873      15.6782        14.2194        17.6383      
      2900   304.30812     -35508.246      8740.0932      3932.1873      15.6782        14.2194        17.6383      
      3000   348.04766     -35581.492      3717.7781      3932.1873      15.6782        14.2194        17.6383      
      3100   346.57542     -35590.555      8088.1302      3932.1873      15.6782        14.2194        17.6383      
      3200   290.48561     -35570.129      11471.027      3932.1873      15.6782        14.2194        17.6383      
      3300   333.9333      -35616.585      16231.382      3932.1873      15.6782        14.2194        17.6383      
      3400   317.63428     -35604.185      13087.674      3932.1873      15.6782        14.2194        17.6383      
      3500   285.22235     -35546.315      913.63229      3932.1873      15.6782        14.2194        17.6383      
      3600   305.15232     -35585.94       5116.0923      3932.1873      15.6782        14.2194        17.6383      
      3700   326.59091     -35597.495      13492.009      3932.1873      15.6782        14.2194        17.6383      
      3800   329.74313     -35605.497      4876.7712      3932.1873      15.6782        14.2194        17.6383      
      3900   302.96609     -35559.384      4712.4134      3932.1873      15.6782        14.2194        17.6383      
      4000   375.28605     -35633.916      9863.3213      3932.1873      15.6782        14.2194        17.6383      
      4100   352.55518     -35643.057      10823.68       3932.1873      15.6782        14.2194        17.6383      
      4200   322.14329     -35653.871      10383.38       3932.1873      15.6782        14.2194        17.6383      
      4300   325.99761     -35667.161      11329.326      3932.1873      15.6782        14.2194        17.6383      
      4400   328.16409     -35664.206      5615.7816      3932.1873      15.6782        14.2194        17.6383      
      4500   294.46066     -35635.302      12241.602      3932.1873      15.6782        14.2194        17.6383      
      4600   289.61441     -35624.703      9119.7302      3932.1873      15.6782        14.2194        17.6383      
      4700   318.09385     -35627.416      21542.398      3932.1873      15.6782        14.2194        17.6383      
      4800   306.84055     -35661.503      8365.5726      3932.1873      15.6782        14.2194        17.6383      
      4900   346.38655     -35588.506      1865.7458      3932.1873      15.6782        14.2194        17.6383      
      5000   320.39155     -35565.98      -7069.8923      3932.1873      15.6782        14.2194        17.6383      
Loop time of 212.776 on 16 procs for 5000 steps with 350 atoms

Performance: 1.015 ns/day, 23.642 hours/ns, 23.499 timesteps/s, 8.225 katom-step/s
99.4% CPU use with 8 MPI tasks x 2 OpenMP threads

MPI task timing breakdown:
Section |  min time  |  avg time  |  max time  |%varavg| %total
---------------------------------------------------------------
Pair    | 119.5      | 153.02     | 175.73     | 207.0 | 71.91
Bond    | 0.0013473  | 0.0016125  | 0.0019865  |   0.5 |  0.00
Neigh   | 11.025     | 14.014     | 15.839     |  59.9 |  6.59
Comm    | 2.8608     | 25.548     | 59.048     | 506.4 | 12.01
Output  | 0.014142   | 0.01592    | 0.017103   |   0.8 |  0.01
Modify  | 18.228     | 20.071     | 23.077     |  50.5 |  9.43
Other   |            | 0.109      |            |       |  0.05

Nlocal:          43.75 ave          49 max          39 min
Histogram: 2 1 1 0 0 0 1 0 0 3
Nghost:        3589.88 ave        3633 max        3544 min
Histogram: 2 0 0 0 1 3 0 0 0 2
Neighs:        27211.8 ave       30550 max       24314 min
Histogram: 2 2 0 0 0 1 0 0 1 2

Total # of neighbors = 217694
Ave neighs/atom = 621.98286
Ave special neighs/atom = 0
Neighbor list builds = 500
Dangerous builds not checked
  using 2 OpenMP thread(s) per MPI task
Reading restart file ...
  restart file = 2 Aug 2023, LAMMPS = 2 Aug 2023
  restoring atom style full from restart
  triclinic box = (0 0 0) to (15.6782 14.2194 17.6383) with tilt (-7.0409 -1.0144 0.675)
  2 by 2 by 2 MPI processor grid
  pair style reaxff stores no restart info
  350 atoms
Finding 1-2 1-3 1-4 neighbors ...
  special bond factors lj:    0        0        0       
  special bond factors coul:  0        0        0       
     0 = max # of 1-2 neighbors
     0 = max # of 1-3 neighbors
     0 = max # of 1-4 neighbors
     1 = max # of special neighbors
  special bonds CPU = 0.000 seconds
  read_restart CPU = 0.003 seconds
*****Positive-deform 6 starts.*****
WARNING: Van der Waals parameters for element SI indicate inner wall+shielding, but earlier atoms indicate a different van der Waals method. This may cause division-by-zero errors. Keeping van der Waals setting for earlier atoms. (src/REAXFF/reaxff_ffield.cpp:251)
Resetting global fix info from restart file:
  fix style: nvt, fix ID: fnvt
All restart file global fix info was re-assigned
Unused restart file peratom fix info:
  fix style: STORE/ATOM, fix ID: msd1_COMPUTE_STORE
Neighbor list info ...
  update: every = 10 steps, delay = 0 steps, check = no
  max neighbors/atom: 2000, page size: 100000
  master list distance cutoff = 12
  ghost atom cutoff = 12
  binsize = 6, bins = 4 3 3
  2 neighbor lists, perpetual/occasional/extra = 2 0 0
  (1) pair reaxff, perpetual
      attributes: half, newton off, ghost
      pair build: half/bin/newtoff/ghost
      stencil: full/ghost/bin/3d
      bin: standard
  (2) fix qeq/reaxff, perpetual, copy from (1)
      attributes: half, newton off
      pair build: copy
      stencil: none
      bin: none
Setting up Verlet run ...
  Unit style    : real
  Current step  : 0
  Time step     : 0.5
Per MPI rank memory allocation (min/avg/max) = 127 | 127.8 | 128.9 Mbytes
   Step          Temp          PotEng         Press          Volume           Lx             Ly             Lz      
         0   281.80113     -35271.377     -13409.586      3932.1873      15.6782        14.2194        17.6383      
       100   310.78411     -35304.719      731.40303      3932.1873      15.6782        14.2194        17.6383      
       200   338.11489     -35243.095     -527.11208      3932.1873      15.6782        14.2194        17.6383      
       300   347.28949     -35203.438     -7081.8705      3932.1873      15.6782        14.2194        17.6383      
       400   342.25243     -35206.293     -7647.7114      3932.1873      15.6782        14.2194        17.6383      
       500   442.72222     -35275.513     -7408.0287      3932.1873      15.6782        14.2194        17.6383      
       600   414.57831     -35209.034     -10270.726      3932.1873      15.6782        14.2194        17.6383      
       700   394.37327     -35266.621      692.22349      3932.1873      15.6782        14.2194        17.6383      
       800   289.54964     -35145.162     -1722.1452      3932.1873      15.6782        14.2194        17.6383      
       900   356.63028     -35228.289     -3862.4782      3932.1873      15.6782        14.2194        17.6383      
      1000   356.47961     -35209.049     -954.95654      3932.1873      15.6782        14.2194        17.6383      
      1100   306.9652      -35186.338      12272.985      3932.1873      15.6782        14.2194        17.6383      
      1200   326.14598     -35207.79      -9150.9089      3932.1873      15.6782        14.2194        17.6383      
      1300   305.82787     -35209.463     -8646.7628      3932.1873      15.6782        14.2194        17.6383      
      1400   315.76945     -35226.924     -5359.1472      3932.1873      15.6782        14.2194        17.6383      
      1500   325.33654     -35228.556     -16880.235      3932.1873      15.6782        14.2194        17.6383      
      1600   292.41172     -35203.232      35.896559      3932.1873      15.6782        14.2194        17.6383      
      1700   352.98076     -35201.959      1930.679       3932.1873      15.6782        14.2194        17.6383      
      1800   347.70312     -35177.23       1589.0998      3932.1873      15.6782        14.2194        17.6383      
      1900   344.18258     -35147.804     -10850.03       3932.1873      15.6782        14.2194        17.6383      
      2000   308.87537     -35132.558     -1651.123       3932.1873      15.6782        14.2194        17.6383      
      2100   313.58106     -35088.115      9530.3338      3932.1873      15.6782        14.2194        17.6383      
      2200   304.54507     -35052.248     -17685.4        3932.1873      15.6782        14.2194        17.6383      
      2300   299.02235     -35028.675     -1242.0718      3932.1873      15.6782        14.2194        17.6383      
      2400   348.54117     -35057.629     -9008.7879      3932.1873      15.6782        14.2194        17.6383      
      2500   303.55226     -35021.884      3303.2168      3932.1873      15.6782        14.2194        17.6383      
      2600   359.031       -35077.684      8507.7554      3932.1873      15.6782        14.2194        17.6383      
      2700   323.28777     -35050.991      5217.9266      3932.1873      15.6782        14.2194        17.6383      
      2800   389.09716     -35083.014      4326.9907      3932.1873      15.6782        14.2194        17.6383      
      2900   359.38735     -35043.22      -4033.6024      3932.1873      15.6782        14.2194        17.6383      
      3000   360.79611     -34990.46       4327.6788      3932.1873      15.6782        14.2194        17.6383      
      3100   375.35415     -35076.957     -7696.3159      3932.1873      15.6782        14.2194        17.6383      
      3200   404.85895     -35127.187      19164.132      3932.1873      15.6782        14.2194        17.6383      
      3300   433.87278     -35155.071      11095.583      3932.1873      15.6782        14.2194        17.6383      
      3400   342.99663     -35139.868     -1194.5708      3932.1873      15.6782        14.2194        17.6383      
      3500   406.91227     -35233.454     -4710.2295      3932.1873      15.6782        14.2194        17.6383      
      3600   419.47333     -35219.855     -2504.2095      3932.1873      15.6782        14.2194        17.6383      
      3700   376.5772      -35257.312     -1713.1735      3932.1873      15.6782        14.2194        17.6383      
      3800   375.31439     -35230.173     -10583.603      3932.1873      15.6782        14.2194        17.6383      
      3900   388.14713     -35288.302     -19062.563      3932.1873      15.6782        14.2194        17.6383      
      4000   377.06028     -35280.606      1197.461       3932.1873      15.6782        14.2194        17.6383      
      4100   362.92155     -35244.433      5691.6542      3932.1873      15.6782        14.2194        17.6383      
      4200   342.27589     -35186.051      2067.5622      3932.1873      15.6782        14.2194        17.6383      
      4300   312.33767     -35202.236      7552.362       3932.1873      15.6782        14.2194        17.6383      
      4400   335.71573     -35180.009      8211.682       3932.1873      15.6782        14.2194        17.6383      
      4500   404.12152     -35210.187      18229.073      3932.1873      15.6782        14.2194        17.6383      
      4600   365.0943      -35197.444      1246.1053      3932.1873      15.6782        14.2194        17.6383      
      4700   302.13954     -35198.717     -4440.3631      3932.1873      15.6782        14.2194        17.6383      
      4800   288.12719     -35233.404      7258.792       3932.1873      15.6782        14.2194        17.6383      
      4900   306.39469     -35248.06       5487.3407      3932.1873      15.6782        14.2194        17.6383      
      5000   362.85927     -35268.408     -2566.1664      3932.1873      15.6782        14.2194        17.6383      
Loop time of 191.804 on 16 procs for 5000 steps with 350 atoms

Performance: 1.126 ns/day, 21.312 hours/ns, 26.068 timesteps/s, 9.124 katom-step/s
99.5% CPU use with 8 MPI tasks x 2 OpenMP threads

MPI task timing breakdown:
Section |  min time  |  avg time  |  max time  |%varavg| %total
---------------------------------------------------------------
Pair    | 110.11     | 127.54     | 155.4      | 154.2 | 66.49
Bond    | 0.0012301  | 0.0014346  | 0.0018572  |   0.5 |  0.00
Neigh   | 10.352     | 11.953     | 14.802     |  49.2 |  6.23
Comm    | 4.1111     | 31.962     | 49.385     | 308.0 | 16.66
Output  | 0.013806   | 0.015384   | 0.016392   |   0.7 |  0.01
Modify  | 17.375     | 20.239     | 21.858     |  38.0 | 10.55
Other   |            | 0.09594    |            |       |  0.05

Nlocal:          43.75 ave          48 max          35 min
Histogram: 1 0 0 0 0 1 3 0 1 2
Nghost:        3409.25 ave        3448 max        3369 min
Histogram: 1 1 1 0 0 2 0 1 1 1
Neighs:        27178.5 ave       29668 max       21914 min
Histogram: 1 0 0 0 0 1 1 2 1 2

Total # of neighbors = 217428
Ave neighs/atom = 621.22286
Ave special neighs/atom = 0
Neighbor list builds = 500
Dangerous builds not checked
Total wall time: 0:21:22
