ITEM: TIMESTEP
0
ITEM: NUMBER OF ATOMS
350
ITEM: BOX BOUNDS xy xz yz pp pp pp
-8.0552999999999990e+00 1.5678200000000000e+01 -7.0408999999999997e+00
0.0000000000000000e+00 1.4894400000000001e+01 -1.0144000000000000e+00
0.0000000000000000e+00 1.7638300000000001e+01 6.7500000000000004e-01
ITEM: ATOMS id type q x y z element
25 4 0.598316 2.44018 1.82459 7.60094 Si
9 4 1.13989 0.569896 1.26846 4.9583 Si
140 2 0.0276568 4.28765 1.06727 1.7919 H
342 2 0.0413573 -2.36118 4.64993 5.63498 H
23 4 1.0069 3.31681 2.05439 3.9139 Si
26 4 1.19217 5.64401 1.25685 5.78956 Si
30 4 1.13111 4.23081 4.48247 2.28178 Si
35 4 1.07143 4.11135 6.17133 5.7868 Si
32 4 1.04994 2.81714 6.86759 1.03223 Si
33 4 1.05387 4.84422 3.65396 7.48939 Si
141 2 0.0656339 2.60722 1.58675 1.35734 H
70 1 -0.130859 3.24334 1.00401 2.01006 C
74 1 -0.0778334 0.143395 5.07864 4.97694 C
97 2 0.279241 -1.92277 6.60938 3.46339 H
108 2 -0.000326619 4.43806 3.44717 0.900282 H
302 2 0.0815743 1.09461 2.72484 2.35505 H
132 2 0.134929 -3.20075 6.06016 6.46774 H
107 2 0.261683 -0.428292 2.72062 6.85741 H
150 2 0.0902467 -0.107591 4.89118 6.01769 H
151 2 0.109773 0.902223 4.41403 4.58165 H
152 2 0.0375363 -0.715319 5.22178 4.35004 H
117 2 0.279505 6.65679 0.933707 3.42202 H
31 4 0.901404 1.33943 6.99845 4.80538 Si
212 3 -0.741518 -0.903145 1.99246 6.37937 O
310 2 0.275757 0.733011 6.91732 2.25988 H
213 3 -0.773176 -0.255394 6.22984 7.77139 O
224 3 -0.740185 1.83466 2.32771 4.65369 O
314 3 -0.696731 -2.90249 6.47039 3.09916 O
226 3 -0.772012 4.26319 1.11103 4.90748 O
207 3 -0.750274 -0.20715 1.18199 3.53925 O
230 3 -0.740417 4.05767 3.48079 3.51748 O
232 3 -0.7733 3.04599 5.42215 1.79365 O
233 3 -0.668086 3.75795 2.6433 8.15276 O
234 3 -0.796634 5.80477 2.65411 6.57172 O
243 3 -0.726852 -0.789926 5.6423 0.29469 O
237 3 -0.724946 2.83309 6.4742 4.77361 O
238 3 -0.735557 4.00653 4.89197 6.79728 O
303 2 0.0386109 -0.520509 3.59592 2.35104 H
104 2 0.0641757 1.01395 2.6304 8.23126 H
299 4 0.861654 -0.349577 2.09547 0.348178 Si
300 1 -0.0757685 0.361018 3.32468 1.82693 C
301 2 0.122529 0.822296 4.08522 1.21203 H
309 2 0.3483 -2.40648 7.00593 1.02413 H
6 4 1.0319 1.23564 2.13066 16.3556 Si
10 4 0.693037 -0.310031 3.29937 14.1143 Si
129 2 0.136766 -0.792947 4.3143 11.8699 H
296 2 0.0860302 3.66748 1.74493 10.5206 H
16 4 1.04383 -1.2086 6.02058 14.6449 Si
17 4 0.830527 -1.44678 7.20689 11.933 Si
297 2 0.0874752 2.93055 2.43541 12.0026 H
28 4 0.653895 3.43004 4.10015 15.9404 Si
305 3 -0.717928 -0.122076 1.97992 17.3182 O
36 4 0.809946 4.40505 4.79757 13.2849 Si
37 4 1.05495 -0.842417 7.37966 17.1747 Si
66 1 -0.0536685 -0.116592 3.48784 12.0788 C
210 3 -0.663769 -2.11369 3.75426 16.9703 O
72 1 -0.111011 6.22381 1.59967 10.4394 C
145 2 0.0464516 5.67853 0.771449 10.8133 H
98 2 0.323458 2.47073 5.81506 12.1195 H
130 2 0.0720189 -0.435522 2.52912 11.7281 H
106 2 0.0557009 2.6676 5.61855 15.7406 H
338 2 0.291422 -1.69942 7.39842 9.68751 H
128 2 0.0782333 0.922069 3.6968 11.9297 H
292 1 -0.063848 2.8335 1.72438 11.2028 C
211 3 -0.756186 -0.261596 3.82298 8.99637 O
347 2 0.0272146 3.58942 7.26451 16.6299 H
245 3 -0.700038 2.92388 6.09555 12.974 O
144 2 0.0532674 5.72366 2.12369 9.63463 H
344 2 0.0814756 3.06652 1.18492 14.2603 H
209 3 -0.685616 0.784478 2.24678 14.7681 O
160 2 0.106554 1.92738 7.36099 14.5841 H
12 4 0.602292 -2.76479 5.22568 17.2092 Si
214 3 -0.660563 -0.18416 4.73736 14.8011 O
215 3 -0.654583 -2.1215 6.62003 10.187 O
216 3 -0.729346 -1.85938 6.12412 13.1403 O
228 3 -0.705716 2.34096 3.25935 16.7807 O
242 3 -0.749145 0.76852 7.22404 17.4298 O
239 3 -0.647621 3.97709 3.72046 14.4529 O
295 2 0.0750466 1.85825 1.75558 10.7372 H
241 3 -0.781598 -1.05179 7.35276 15.5853 O
8 4 0.674471 -1.80151 3.39781 9.17171 Si
240 3 -0.669437 4.95198 3.94804 12.0017 O
235 3 -0.769579 1.2501 5.94134 10.1143 O
13 4 1.11525 0.400943 5.31141 8.93586 Si
345 2 0.0965969 4.65179 1.03325 13.4244 H
293 1 -0.0855668 3.75976 0.547885 13.7725 C
143 2 0.0568037 5.25886 3.38118 17.6112 H
34 4 0.952281 1.19357 7.50257 10.7111 Si
18 4 0.616988 -5.3442 11.233 3.08105 Si
19 4 1.17213 -2.80124 9.12453 7.626 Si
20 4 1.14448 -4.41831 10.905 5.8503 Si
24 4 0.991315 0.265076 13.989 7.8187 Si
39 4 0.879763 1.72355 9.09466 2.89283 Si
315 3 -0.679013 -2.74885 7.78785 0.600354 O
279 3 -0.697465 0.475935 12.0407 5.25904 O
75 1 -0.116991 0.582919 10.5894 2.13298 C
227 3 -0.771401 -0.927612 14.1587 6.67756 O
105 2 0.123687 -3.03457 13.4195 4.39202 H
318 3 -0.862081 -7.02441 13.6576 7.92607 O
111 2 0.299716 -0.814278 10.6383 7.18583 H
7 4 1.24277 -5.81821 13.3048 6.90499 Si
154 2 0.0645535 1.01678 11.5232 2.47082 H
155 2 0.0395486 -0.396624 10.3726 2.52453 H
246 3 -0.685319 0.355996 7.52941 3.08865 O
153 2 0.0246029 0.699042 10.4212 1.05565 H
218 3 -0.747957 -1.67015 8.04055 7.06796 O
219 3 -0.748956 -4.22399 11.3686 4.30865 O
220 3 -0.762255 -3.80569 9.48114 6.4088 O
221 3 -0.861036 -5.28347 11.7612 6.83261 O
112 2 0.125219 -2.73499 12.9446 5.28741 H
139 2 0.0220593 -4.11309 14.1992 2.28633 H
247 3 -0.763664 2.5419 8.2756 1.72414 O
249 3 -0.716226 -1.68292 10.9388 7.54568 O
349 2 0.0762107 -5.85386 13.7934 2.44678 H
252 3 -0.803504 1.51637 10.7278 7.55267 O
15 4 1.16826 -0.0585481 7.81156 7.37533 Si
86 1 -0.0989574 -6.45203 12.898 2.3988 C
306 4 0.200057 -3.17387 8.68871 2.51073 Si
307 4 -0.0267406 -3.65788 10.5831 1.63336 Si
308 1 -0.0311141 -1.84351 9.25437 4.08149 C
277 3 -0.738306 2.54625 9.70585 4.1046 O
311 2 0.0863985 -1.90973 10.3384 4.222 H
312 2 0.108591 -0.90592 8.8564 3.77055 H
313 2 0.134005 -2.33158 8.65154 4.84552 H
337 2 0.3427 0.0615862 12.9808 5.32499 H
208 3 -0.83589 -6.01751 14.0215 5.51764 O
335 2 0.319813 -3.76413 7.67439 0.532624 H
231 3 -0.748411 0.895761 7.93766 6.08255 O
42 4 1.02264 1.57515 11.8854 6.4549 Si
317 2 0.143551 -2.91859 12.361 8.02652 H
103 2 0.119311 -3.6412 12.1426 8.64718 H
158 2 0.0722116 3.45724 7.58565 7.86693 H
225 3 -0.665956 -4.31311 14.4088 8.12866 O
21 4 0.252454 -1.40191 11.748 14.6648 Si
22 4 0.960833 -2.0446 12.317 11.7828 Si
290 3 -0.670674 -5.70239 11.0783 11.4962 O
68 1 -0.101785 -2.54805 11.0978 16.2593 C
69 1 -0.0656095 -2.69737 8.86702 12.4585 C
77 1 -0.0667754 1.49329 8.30689 14.8866 C
101 2 0.0686795 0.173567 10.9255 14.7816 H
102 2 0.0507268 -1.15936 13.4642 14.9204 H
244 3 -0.67958 3.21369 8.05287 10.5226 O
319 3 -0.712533 -6.77301 14.0525 10.6724 O
113 2 0.133736 0.36049 9.61953 11.7537 H
114 2 0.156708 0.84022 10.4296 11.7185 H
133 2 0.066052 -3.28621 10.5983 15.6504 H
134 2 0.0221638 -2.83691 12.0037 16.7816 H
135 2 0.0462229 -2.01943 10.4287 16.8917 H
136 2 0.095725 -2.83027 9.47598 11.5876 H
137 2 0.0806985 -2.06132 9.27534 13.2296 H
138 2 0.0876013 -3.60877 8.39278 12.7964 H
159 2 0.0768673 1.55738 8.55898 15.9457 H
339 2 0.0120942 -5.74267 10.6409 14.2133 H
161 2 0.0987938 0.567044 8.52409 14.3988 H
250 3 -0.726097 -0.0977804 13.2247 9.21406 O
217 3 -0.813685 -3.57666 8.62449 9.04468 O
222 3 -0.659457 -2.2018 11.6355 13.2089 O
223 3 -0.664811 -3.42074 13.0737 11.1833 O
248 3 -0.777559 0.46151 8.74203 9.26504 O
251 3 -0.722522 -1.12935 11.3649 10.8247 O
336 2 0.276635 -4.92787 14.3847 8.96382 H
294 2 0.302496 -4.66544 11.2099 11.5949 H
255 3 -0.835784 1.74729 11.0264 13.5849 O
321 2 0.0256345 -5.06339 13.9861 17.4466 H
320 1 -0.138666 -4.64575 14.4272 16.5555 C
206 2 0.0731299 -7.06081 14.4844 14.0079 H
341 2 0.0234388 -4.84239 13.8849 15.64 H
322 2 0.0290258 -3.63928 14.795 16.6891 H
298 2 0.0375992 -3.12686 13.8327 14.292 H
291 4 0.271049 -4.19034 14.2112 12.0448 Si
41 4 0.736549 -0.833275 11.7005 9.2515 Si
65 4 0.376173 -6.33677 13.1166 11.9457 Si
100 2 0.1432 -2.48227 14.2764 9.7468 H
40 4 1.00588 1.29512 10.1718 9.04145 Si
236 3 -0.737345 0.141792 7.66783 11.9634 O
1 4 0.796089 13.9842 0.881793 2.88886 Si
2 1 -0.119618 12.6222 2.33295 3.53425 C
3 2 0.0449032 12.2841 1.78149 4.3921 H
4 2 0.0367282 13.2407 3.20494 3.69858 H
265 3 -0.740944 10.8504 6.23497 8.53692 O
11 4 0.816349 11.5541 5.89421 4.04424 Si
46 4 0.602786 7.90179 2.64944 4.33465 Si
49 4 1.24391 9.13518 4.71612 2.54092 Si
50 4 1.09252 6.26027 6.27592 3.6009 Si
99 2 0.226174 12.9989 1.63317 0.722569 H
52 4 0.676695 9.35564 5.90083 8.09765 Si
54 4 0.81275 8.90903 6.81709 5.2214 Si
131 2 0.0511554 11.6053 4.49709 6.11034 H
78 1 -0.10204 9.32376 2.82665 5.81154 C
340 2 0.0510886 11.8396 2.44479 2.82289 H
163 2 0.0943377 9.65105 3.87294 5.74151 H
115 2 0.120406 6.66152 3.69436 4.83222 H
51 4 0.595493 8.90044 6.78493 0.431216 Si
343 2 0.0246278 12.0504 3.39937 0.807301 H
327 2 0.0397231 5.3501 6.86341 0.602261 H
348 2 0.0330099 10.076 2.09167 5.55815 H
67 1 -0.0800563 12.4025 5.17016 5.84531 C
304 3 -0.661256 13.7505 0.913943 0.871667 O
162 2 0.0303324 8.86104 2.63905 6.77226 H
95 2 0.279745 14.7754 1.20575 7.03906 H
325 2 0.11896 12.3747 4.9722 1.5712 H
260 3 -0.694617 8.47805 3.28121 2.88922 O
261 3 -0.771474 10.5781 4.85379 3.21845 O
262 3 -0.783762 5.59448 5.32689 2.48416 O
263 3 -0.770785 5.58123 6.13174 5.06406 O
264 3 -0.70957 8.96606 5.19801 0.975237 O
94 2 0.0132548 12.7975 3.83701 7.89983 H
269 3 -0.694263 9.04293 5.82537 6.50072 O
268 3 -0.762893 7.83879 6.00741 3.68123 O
173 2 0.0238276 6.5027 5.38069 8.36202 H
120 2 0.000823007 8.97707 4.40625 8.79869 H
323 1 -0.0971102 12.1739 4.43457 0.630655 C
346 2 0.047846 5.99095 4.4798 0.0711948 H
257 3 -0.707201 7.23935 1.10469 4.23041 O
80 1 -0.135917 10.657 1.93664 9.44693 C
27 4 1.03374 7.98804 1.21803 13.6508 Si
29 4 0.611857 6.23995 2.96607 12.0292 Si
274 3 -0.771872 9.57341 5.87539 13.335 O
47 4 0.627162 9.90324 3.09861 14.8257 Si
48 4 0.64677 11.5992 2.78855 11.0584 Si
55 4 1.04854 10.8346 4.86871 12.9318 Si
73 1 -0.0704157 7.84754 4.16135 11.4995 C
79 1 -0.103245 8.36615 4.15164 15.7064 C
71 1 -0.114354 5.11597 4.3007 17.0587 C
81 1 -0.0914779 11.9682 1.18326 12.3665 C
330 2 0.0514605 8.4791 6.78253 15.774 H
174 2 0.00579318 6.95621 3.7763 9.14134 H
109 2 0.0113107 5.69641 5.76701 13.8736 H
116 2 0.00878635 10.5338 2.30922 16.2399 H
175 2 0.0713296 5.53588 4.69502 9.78891 H
82 1 -0.137186 6.20625 4.51632 8.95485 C
121 2 -0.00558211 5.96099 7.28265 9.25421 H
147 2 0.12087 8.37816 4.2751 12.4184 H
148 2 0.0873515 7.34221 5.05169 11.2076 H
149 2 0.0451816 8.32213 3.57677 10.7163 H
164 2 0.0696321 7.80081 4.66369 14.9396 H
165 2 0.0478599 8.94621 4.79019 16.3535 H
166 2 0.0379948 7.86014 3.34353 16.2091 H
56 4 1.22728 9.38989 7.4454 11.7972 Si
266 3 -0.719621 5.69545 7.39446 11.9849 O
169 2 0.027954 9.92514 1.3488 9.98941 H
334 2 0.271497 9.91254 6.50846 14.0458 H
170 2 0.0275808 12.7683 0.574976 11.9866 H
172 2 0.0732715 12.2154 1.75218 13.2451 H
271 3 -0.684445 10.5744 3.91848 11.6414 O
229 3 -0.716464 6.71047 2.16723 13.4131 O
258 3 -0.715292 9.41517 1.94787 13.7759 O
259 3 -0.649248 13.1333 3.28588 10.6468 O
142 2 0.0440189 5.86223 4.43825 16.2876 H
270 3 -0.705299 11.1517 3.96526 14.1956 O
273 3 -0.80031 8.06465 7.21536 10.7438 O
272 3 -0.866378 10.7329 7.3398 11.0239 O
146 2 0.0250886 7.25949 1.39874 10.2288 H
168 2 0.0371474 10.264 2.73939 8.86719 H
96 2 0.0107439 12.1427 5.88557 15.7781 H
171 2 0.110303 11.0265 0.674308 12.4469 H
167 2 0.00853928 11.4175 1.38037 8.91108 H
14 4 1.29318 11.5465 7.25228 9.6199 Si
329 1 -0.108356 7.94554 7.65055 16.0815 C
119 2 0.0328962 8.21256 6.94788 8.86545 H
324 2 0.0462187 10.4316 5.56999 17.6197 H
333 2 0.0392667 13.8321 2.54511 14.3569 H
332 2 0.0362801 6.91868 7.68017 15.7507 H
45 4 1.01372 5.18959 12.6611 2.87607 Si
57 4 0.783779 10.1274 8.25059 2.71641 Si
58 4 0.995994 3.54987 10.8856 4.55032 Si
59 4 0.614114 6.77342 11.3406 0.769035 Si
62 4 0.633617 5.99655 11.1199 6.34647 Si
156 2 0.123399 3.57466 8.68758 6.41885 H
83 1 -0.107244 5.75423 8.30452 2.98486 C
84 1 -0.104159 7.69 8.36487 5.85203 C
181 2 0.0366226 7.6792 8.94173 4.94299 H
87 1 -0.0849707 7.66311 11.6208 5.21903 C
88 1 -0.112301 5.39628 13.084 6.82949 C
350 2 0.0571542 6.18799 13.4237 7.48381 H
276 3 -0.685397 9.62622 9.79745 2.98022 O
123 2 0.0443961 7.52242 12.8664 0.552153 H
286 3 -0.708548 6.64192 10.2323 7.65577 O
125 2 0.0459202 8.01133 10.4774 1.63851 H
253 3 -0.791263 1.58898 13.3057 7.2443 O
185 2 0.10243 8.44473 12.9341 3.14731 H
176 2 0.0861295 5.61429 8.77071 3.94773 H
177 2 0.0837893 4.86074 8.30356 2.37839 H
178 2 0.0367219 6.6135 8.65957 2.46123 H
179 2 0.0558715 8.21344 8.83242 6.65361 H
180 2 0.0681765 6.78735 7.82553 6.08566 H
118 2 0.00230469 7.30518 7.43004 0.661033 H
182 2 0.0512435 9.37009 9.05493 8.10507 H
157 2 0.0690825 5.0783 8.15102 7.26282 H
187 2 0.0539186 7.49345 11.1798 4.25106 H
188 2 0.0672539 8.4431 11.1381 5.76369 H
189 2 0.0925951 7.64067 12.6968 5.29366 H
190 2 0.0373004 4.43579 12.9522 7.31992 H
191 2 0.059462 5.35836 13.6123 5.88779 H
275 3 -0.684177 10.0195 7.76318 1.16793 O
122 2 0.11048 2.03954 14.0551 4.40143 H
278 3 -0.770034 3.85077 12.3126 3.75329 O
5 3 -0.748889 6.37712 13.6928 3.42072 O
280 3 -0.709584 5.50445 11.529 1.7416 O
285 3 -0.709976 4.91064 10.4179 5.3872 O
76 1 -0.0808597 4.0516 7.92449 7.02091 C
267 3 -0.661914 10.3616 7.36083 4.70123 O
124 2 0.0912491 2.48339 14.2554 3.9431 H
198 2 0.0658608 3.16237 11.0912 0.102971 H
186 2 0.0123011 8.9663 12.6043 1.40214 H
43 4 0.999215 2.80282 9.84228 14.0385 Si
44 4 1.12715 1.6263 12.5569 13.1366 Si
53 4 0.991636 6.62334 7.94409 10.6923 Si
288 3 -0.703616 3.68128 10.2551 15.3766 O
60 4 1.01465 7.30113 10.4631 9.10038 Si
61 4 0.680439 2.63605 12.3673 10.5109 Si
63 4 0.590945 9.17945 10.2498 12.7141 Si
64 4 0.628958 4.15306 11.6525 16.0864 Si
289 3 -0.628566 5.51457 11.3299 16.9643 O
89 1 -0.0988764 7.26644 10.7594 12.9201 C
90 1 -0.112927 4.78638 13.1032 14.6948 C
326 1 -0.113397 3.62136 7.87651 17.5145 C
92 1 -0.0700946 4.67594 12.407 10.1374 C
126 2 0.055397 2.09585 13.4831 9.29783 H
283 3 -0.770559 2.09205 10.8908 10.2366 O
91 1 -0.109366 2.5204 12.55 17.0977 C
110 2 0.325849 3.19963 9.0672 10.448 H
192 2 0.103944 6.77864 9.86234 12.6339 H
193 2 0.0636818 7.03106 11.5576 12.2535 H
194 2 0.025215 7.18564 10.9572 13.967 H
195 2 0.0458541 5.67852 13.5052 15.1818 H
196 2 0.0476041 3.98681 13.8086 14.5946 H
197 2 0.0499942 4.94176 12.5035 13.8206 H
127 2 0.164686 5.30645 9.77009 14.1806 H
184 2 0.106702 9.90169 10.6396 8.93532 H
201 2 0.0760447 4.74386 11.8794 9.21604 H
202 2 0.105038 5.08583 11.8567 10.9905 H
203 2 0.0246727 4.92243 13.4389 10.0493 H
316 4 1.07126 8.17395 13.3452 9.41672 Si
205 2 0.0299367 7.23535 13.556 13.222 H
287 3 -0.732487 9.31664 8.64851 12.8958 O
254 3 -0.743937 3.81754 9.10789 13.0089 O
199 2 0.034191 1.85084 12.7713 16.2826 H
256 3 -0.822246 0.865357 13.7863 13.788 O
204 2 0.0169944 8.43044 12.6948 14.2809 H
328 2 0.0909079 3.61939 8.94267 17.3334 H
281 3 -0.731501 6.57336 9.56868 10.2851 O
282 3 -0.782326 7.25483 12.0409 9.57248 O
284 3 -0.755947 2.55771 13.1219 11.9557 O
200 2 0.0469083 2.94192 13.3991 17.6221 H
38 4 0.962753 4.08697 7.65 12.2876 Si
331 2 0.0615287 8.47292 8.58756 15.9452 H
183 2 0.083982 9.42306 9.25564 9.94562 H
93 1 -0.124086 8.25034 13.5299 13.61 C
85 1 -0.070171 9.3704 9.71935 8.97028 C
ITEM: TIMESTEP
100
ITEM: NUMBER OF ATOMS
350
ITEM: BOX BOUNDS xy xz yz pp pp pp
-7.7709119999999983e+00 1.5678200000000000e+01 -7.0408999999999997e+00
0.0000000000000000e+00 1.4894400000000001e+01 -7.3001199999999855e-01
0.0000000000000000e+00 1.7638300000000001e+01 6.7500000000000004e-01
ITEM: ATOMS id type q x y z element
25 4 0.676655 2.70196 1.69498 7.55919 Si
9 4 1.19967 0.516667 1.31571 4.88802 Si
140 2 0.0340332 4.29502 1.18757 1.66397 H
342 2 0.0362944 -2.34451 4.58231 5.15244 H
23 4 1.03428 3.38206 2.05153 3.99706 Si
26 4 1.14608 5.76048 1.19071 5.72984 Si
30 4 1.03966 4.11476 4.52854 2.34283 Si
35 4 1.03078 4.01556 6.26021 5.87487 Si
32 4 1.01792 2.82549 6.89598 0.940608 Si
33 4 0.96291 4.93924 3.65889 7.38795 Si
141 2 0.068596 2.46157 1.08893 1.68535 H
70 1 -0.128959 3.39469 0.880654 2.21829 C
74 1 -0.0638377 0.412995 4.95663 5.08923 C
97 2 0.260339 -1.9825 6.46685 3.39559 H
108 2 -0.000669532 3.99551 3.63409 0.846367 H
302 2 0.0957966 1.24084 2.79614 2.40264 H
143 2 0.0504252 5.84223 3.00226 0.432215 H
107 2 0.25869 -0.439445 2.70423 6.90199 H
150 2 0.0616395 -0.430728 5.32374 5.65216 H
151 2 0.110818 1.06454 4.31763 5.67367 H
152 2 0.0580002 0.279943 4.64211 4.0498 H
117 2 0.278278 6.75462 1.08639 3.23835 H
31 4 0.901259 1.30153 6.95875 4.83891 Si
212 3 -0.730277 -0.898787 2.0834 6.23339 O
310 2 0.275804 0.829357 6.69921 2.45094 H
213 3 -0.846092 -0.0388104 6.26265 7.84151 O
224 3 -0.767542 1.837 2.21412 4.63993 O
314 3 -0.678281 -2.97806 6.47502 2.97174 O
226 3 -0.786396 4.35698 1.11002 4.97811 O
207 3 -0.75485 -0.205583 1.46647 3.44165 O
230 3 -0.746553 4.02 3.48659 3.55221 O
232 3 -0.716444 2.93204 5.64375 2.06076 O
233 3 -0.694113 3.93037 2.57301 8.11044 O
234 3 -0.747005 5.99067 2.73149 6.41786 O
243 3 -0.723125 -0.742033 5.55271 0.268321 O
237 3 -0.696439 2.81669 6.41338 4.78737 O
238 3 -0.696822 3.9112 4.85659 6.73525 O
303 2 0.0558718 -0.396396 3.56542 2.43192 H
104 2 0.0183518 1.22095 2.60288 7.52488 H
299 4 0.842893 -0.170262 2.10473 0.393579 Si
300 1 -0.0636863 0.510496 3.36435 1.87252 C
301 2 0.107425 0.91977 4.21447 1.414 H
132 2 0.0811866 -3.08604 5.7704 6.23554 H
6 4 1.05326 1.26745 2.03941 16.3903 Si
10 4 0.692132 -0.332505 3.26553 14.2418 Si
129 2 0.134844 -0.656764 4.0337 11.8436 H
296 2 0.0968315 3.45673 1.57226 10.189 H
16 4 1.07497 -1.10976 6.07571 14.6182 Si
17 4 0.891968 -1.34263 7.24204 11.9077 Si
297 2 0.0843043 3.01125 2.38688 11.7527 H
28 4 0.65095 3.50405 4.13048 16.0009 Si
305 3 -0.72793 0.0665892 1.88252 17.4934 O
36 4 0.839517 4.39727 4.79265 13.277 Si
37 4 1.02808 -0.855338 7.34672 17.2106 Si
66 1 -0.0598543 -0.000315606 3.28173 12.2333 C
210 3 -0.648772 -2.02741 3.59221 16.8924 O
72 1 -0.0989332 6.1117 1.56035 10.4245 C
145 2 0.0668933 5.91071 0.61591 10.9156 H
98 2 0.328557 2.44736 5.63216 12.1861 H
130 2 0.0630257 -0.205493 2.31109 11.8142 H
106 2 0.036117 2.79039 5.68821 16.0307 H
338 2 0.257287 -1.50396 7.02576 9.61174 H
128 2 0.0783048 1.04734 3.56051 12.2282 H
292 1 -0.0626097 2.76312 1.63919 11.0039 C
211 3 -0.720404 -0.286633 3.86716 9.07791 O
96 2 0.0173882 -3.43491 5.73762 15.6366 H
245 3 -0.702916 2.94234 6.06258 12.9543 O
144 2 0.0785762 5.32026 1.93734 9.82508 H
344 2 0.0929873 3.03167 1.35276 14.2655 H
209 3 -0.706007 0.708211 2.1159 14.8652 O
160 2 0.106898 1.55859 7.56366 14.1605 H
12 4 0.562609 -2.67002 5.12099 17.0772 Si
214 3 -0.682248 -0.20399 4.75514 14.8655 O
215 3 -0.675795 -2.05239 6.4594 10.3019 O
216 3 -0.752566 -1.68159 6.26678 13.1559 O
228 3 -0.702825 2.43461 3.1653 16.7309 O
242 3 -0.77124 0.757883 7.16687 17.4381 O
239 3 -0.650148 3.85957 3.807 14.4531 O
295 2 0.0772504 1.73495 1.65871 10.6992 H
241 3 -0.765667 -1.18402 7.43014 15.6066 O
8 4 0.651837 -1.93969 3.68584 9.13242 Si
240 3 -0.665805 4.94438 3.90092 12.0271 O
235 3 -0.761556 1.22184 5.9389 10.2431 O
13 4 1.10792 0.532022 5.28852 8.96789 Si
345 2 0.0903399 4.67523 0.741524 13.8395 H
18 4 0.575196 -5.3083 11.2578 3.12073 Si
19 4 1.28451 -2.90395 9.10731 7.66738 Si
20 4 1.12304 -4.68305 10.8591 5.96418 Si
24 4 1.02075 0.30035 13.9226 7.81595 Si
39 4 0.914296 1.87257 9.03806 2.83898 Si
315 3 -0.662216 -2.70784 7.99819 0.744059 O
279 3 -0.721444 0.494244 11.79 5.3005 O
75 1 -0.116889 0.839808 10.551 1.93763 C
227 3 -0.778875 -0.917509 14.1687 6.76508 O
105 2 0.127737 -3.06214 13.1951 5.97624 H
158 2 0.0754917 3.1192 7.62354 8.02623 H
111 2 0.312205 -0.864318 10.486 7.30966 H
7 4 1.18868 -5.98669 13.3027 6.90721 Si
154 2 0.0625291 1.30207 11.3457 2.52491 H
155 2 0.0410921 -0.198116 10.4003 2.19577 H
246 3 -0.680315 0.448238 7.53345 3.09785 O
153 2 0.0252323 1.03442 10.6168 0.885543 H
218 3 -0.83643 -1.55742 8.32074 7.17418 O
219 3 -0.729858 -4.33021 11.428 4.46162 O
220 3 -0.802718 -3.88052 9.55485 6.45385 O
221 3 -0.8681 -5.58333 11.7389 6.91712 O
112 2 0.122085 -2.7882 12.9927 5.07108 H
139 2 0.0346632 -3.49265 14.1128 2.57842 H
247 3 -0.753114 2.72224 8.32038 1.6769 O
249 3 -0.714351 -1.71564 10.87 7.67746 O
349 2 0.109385 -6.12771 13.6077 3.27381 H
252 3 -0.777181 1.46861 10.606 7.44863 O
15 4 1.27043 -0.0642449 7.81552 7.45834 Si
86 1 -0.0906972 -6.2287 13.0013 2.37701 C
306 4 0.256426 -3.40039 8.67071 2.66645 Si
307 4 -0.0143888 -3.60962 10.7574 1.49255 Si
308 1 -0.0370561 -1.98673 9.46864 4.00114 C
277 3 -0.747011 2.7253 9.75952 3.99463 O
311 2 0.0762408 -2.11806 10.5352 3.84002 H
312 2 0.101893 -1.02056 9.04 3.63698 H
313 2 0.136022 -2.27946 9.05378 4.96054 H
337 2 0.340639 -0.324606 12.1695 5.60167 H
208 3 -0.825953 -6.12267 14.0551 5.47333 O
225 3 -0.71031 -4.46255 14.3462 8.16027 O
231 3 -0.766543 0.8681 7.81932 6.12617 O
42 4 1.00729 1.61342 11.8283 6.41219 Si
317 2 0.106458 -3.6212 11.7361 8.42848 H
103 2 0.0989222 -3.85224 11.3317 8.65823 H
156 2 0.140495 3.0223 8.61128 6.46439 H
186 2 0.035951 -5.51929 13.2424 1.6172 H
335 2 0.291178 -3.54866 7.5762 0.321246 H
309 2 0.33566 -2.29145 7.17731 1.01343 H
21 4 0.258759 -1.53002 11.7723 14.877 Si
22 4 0.944017 -2.20439 12.1906 11.9959 Si
290 3 -0.660226 -5.65614 10.995 11.6078 O
68 1 -0.0890831 -2.46548 10.7877 16.4436 C
69 1 -0.0633254 -2.44869 9.11137 11.9497 C
77 1 -0.0855555 1.3217 8.45479 14.7075 C
101 2 0.0647937 -0.00805151 11.0386 14.5498 H
102 2 0.040401 -1.06182 13.3853 15.3349 H
244 3 -0.691773 3.28377 8.14958 10.3482 O
319 3 -0.733137 -6.70645 13.9295 10.6356 O
113 2 0.133929 0.482866 9.90864 11.5835 H
114 2 0.14836 0.825415 10.318 12.0168 H
133 2 0.0795411 -3.24137 10.1871 15.9821 H
134 2 0.0306996 -2.80327 11.588 17.0828 H
135 2 0.0373914 -1.63614 10.2109 16.8738 H
136 2 0.109312 -2.46315 9.33064 10.884 H
137 2 0.0860313 -1.82357 9.7396 12.5569 H
138 2 0.0893291 -3.41367 8.88195 12.356 H
159 2 0.0754497 1.47553 8.36814 15.7562 H
93 1 -0.125177 -7.12582 13.7387 13.6261 C
161 2 0.0749757 0.367712 8.86231 14.4158 H
250 3 -0.781476 -0.164714 13.0818 9.10673 O
217 3 -0.836867 -3.71462 8.61221 8.93553 O
222 3 -0.663848 -2.46361 11.6984 13.4996 O
223 3 -0.649807 -3.49553 12.9221 11.3049 O
248 3 -0.776398 0.399434 8.87372 9.31389 O
251 3 -0.732145 -1.35571 11.2423 10.8587 O
336 2 0.284632 -5.15632 14.2615 8.94611 H
294 2 0.299725 -4.64625 11.0954 11.8889 H
34 4 0.92748 1.27563 7.56781 10.6592 Si
321 2 0.0319387 -5.10373 13.8785 17.5787 H
320 1 -0.1363 -4.88379 14.2502 16.5842 C
206 2 0.0846245 -6.55131 14.6471 13.7879 H
341 2 0.0289712 -5.35855 13.6932 15.7856 H
322 2 0.0200214 -3.83161 14.4401 16.4217 H
298 2 0.0424565 -3.58008 13.79 14.4538 H
291 4 0.273583 -4.13172 14.1837 12.0603 Si
41 4 0.844135 -0.915317 11.7225 9.35286 Si
65 4 0.429152 -6.26267 13.0972 11.9022 Si
100 2 0.168541 -2.51612 13.8793 8.90175 H
40 4 0.942944 1.21621 10.241 9.03547 Si
236 3 -0.735029 0.258216 7.71023 11.9089 O
293 1 -0.0856046 -3.4113 14.7144 13.9612 C
204 2 0.0118494 -6.89902 12.9191 14.2952 H
339 2 0.00689684 -5.71899 10.7474 14.2088 H
1 4 0.762379 13.9848 0.968216 2.90947 Si
2 1 -0.107532 12.5107 2.33415 3.61524 C
3 2 0.0580016 12.6746 2.39648 4.67607 H
4 2 0.0580531 12.6867 3.20962 3.02058 H
265 3 -0.747882 10.925 6.29312 8.51696 O
11 4 0.797952 11.5263 5.94323 3.94439 Si
46 4 0.610385 7.86577 2.66268 4.26373 Si
49 4 1.09112 9.14229 4.69243 2.53739 Si
50 4 1.06331 6.20169 6.22094 3.64726 Si
99 2 0.235246 13.2141 1.43185 0.479297 H
52 4 0.63849 9.38747 6.02547 8.06518 Si
54 4 0.827055 8.86345 6.68967 5.23514 Si
131 2 0.047469 11.7023 4.18556 5.86012 H
78 1 -0.0883472 9.15628 2.86491 5.91748 C
340 2 0.0470638 11.602 1.81327 3.35974 H
163 2 0.0720925 9.95906 3.49205 5.56933 H
115 2 0.118943 6.41708 3.51027 4.50089 H
51 4 0.684005 8.87455 6.80579 0.476112 Si
343 2 0.0307429 12.1459 3.29648 0.713424 H
327 2 0.0558545 5.41878 6.33173 0.515171 H
348 2 0.0366247 9.4511 1.86093 6.22889 H
67 1 -0.0949854 12.4107 4.94444 5.57427 C
304 3 -0.652609 13.9837 0.833816 0.907716 O
162 2 0.0821617 8.51589 3.37736 6.63206 H
257 3 -0.689177 7.28491 1.09315 4.10591 O
325 2 0.118412 12.4732 4.95413 1.29886 H
260 3 -0.657369 8.51662 3.13701 2.84107 O
261 3 -0.704354 10.7239 4.747 3.14538 O
262 3 -0.760406 5.54524 5.34622 2.43041 O
263 3 -0.748778 5.49924 6.31932 5.11967 O
264 3 -0.712029 9.03034 5.32873 0.986785 O
94 2 0.0440527 12.8639 4.80018 8.13087 H
269 3 -0.687819 8.98147 5.67622 6.48533 O
268 3 -0.757618 7.79325 5.92184 3.74771 O
173 2 0.0282773 6.69303 5.40094 8.29197 H
119 2 0.00850508 8.41953 7.34435 8.52319 H
323 1 -0.0916884 12.2307 4.36356 0.439301 C
168 2 0.0306335 10.6909 2.72566 8.5617 H
95 2 0.269064 14.624 1.26063 6.96714 H
80 1 -0.136063 10.6139 1.93664 9.31221 C
27 4 1.01729 7.84577 1.09924 13.6787 Si
29 4 0.610891 6.303 2.96416 11.9844 Si
274 3 -0.773035 9.67177 5.97358 13.3401 O
47 4 0.637277 9.96463 2.94215 14.6651 Si
48 4 0.677216 11.5833 2.75086 10.9541 Si
55 4 1.03919 10.8041 4.88267 12.8496 Si
73 1 -0.0865564 7.84181 4.2356 11.4313 C
79 1 -0.112867 8.58085 4.01719 15.6489 C
71 1 -0.115727 5.21452 4.04705 17.1397 C
81 1 -0.0938573 11.9041 1.32313 12.4721 C
330 2 0.0541029 9.03633 7.21158 15.8597 H
174 2 0.00768655 6.76716 3.81754 9.18997 H
109 2 0.00244018 5.69685 5.71631 13.8941 H
116 2 0.000543589 10.738 2.03905 15.9351 H
175 2 0.0620208 5.39372 4.99406 9.55088 H
82 1 -0.13321 6.14563 4.64658 8.84487 C
121 2 -0.00424354 5.93441 7.21101 9.40208 H
147 2 0.0949225 8.27778 4.40424 12.4085 H
148 2 0.0627424 7.38495 5.12872 10.9982 H
149 2 0.0577155 8.44702 3.64766 10.7723 H
164 2 0.0625999 7.83679 4.0658 14.8762 H
165 2 0.0550838 9.0735 4.96258 15.8109 H
166 2 0.0376994 8.2639 3.50921 16.5591 H
56 4 1.23619 9.42835 7.48544 11.7461 Si
266 3 -0.772591 5.54238 7.51085 11.9832 O
169 2 0.0357042 9.60703 1.77787 9.66375 H
334 2 0.281442 10.0347 6.66629 14.0262 H
170 2 0.0174736 12.8748 0.967899 12.1768 H
172 2 0.0913592 11.9008 1.88566 13.3791 H
271 3 -0.689241 10.6441 3.91932 11.5523 O
229 3 -0.708791 6.66051 2.14379 13.3805 O
258 3 -0.719929 9.32292 1.78784 13.6962 O
259 3 -0.645112 12.9947 3.40662 10.5541 O
142 2 0.0506735 5.77946 3.32668 16.5613 H
270 3 -0.711397 11.1318 3.88272 14.1083 O
273 3 -0.83122 8.06337 7.49315 10.7713 O
272 3 -0.828261 10.86 7.28529 11.0274 O
146 2 0.0144047 7.05311 1.65751 9.92259 H
346 2 0.0385584 5.5885 5.05366 17.193 H
326 1 -0.121138 3.81458 7.72934 17.6109 C
171 2 0.0874391 11.1292 0.570335 12.3857 H
167 2 0.00865136 11.1666 1.03506 9.102 H
14 4 1.25633 11.6885 7.12834 9.62738 Si
329 1 -0.112005 8.05211 7.61057 16.0771 C
332 2 0.0311353 7.27056 6.94158 15.7424 H
324 2 0.0527389 10.3995 5.46088 17.4944 H
347 2 0.0270832 3.57346 7.50552 16.5916 H
333 2 0.0474412 13.7288 2.69633 14.4796 H
120 2 0.0039261 8.72112 4.64783 8.85963 H
45 4 1.0721 5.31116 12.6998 2.81356 Si
57 4 0.759178 9.9199 8.22761 2.76049 Si
58 4 1.06782 3.60707 10.9751 4.52288 Si
59 4 0.604646 6.99143 11.5109 0.703169 Si
62 4 0.622373 5.87593 11.1848 6.38546 Si
328 2 0.0699737 5.01528 8.08275 0.197573 H
83 1 -0.094491 5.92888 8.27398 2.94538 C
84 1 -0.114803 7.76114 8.5125 5.59099 C
181 2 0.0422956 7.9356 9.05004 4.67969 H
87 1 -0.0910232 7.50146 11.652 5.14058 C
88 1 -0.114751 5.1138 13.0714 6.97507 C
350 2 0.0439888 5.86928 13.4744 7.63241 H
276 3 -0.672138 9.54865 9.84038 2.86013 O
123 2 0.0563106 7.49407 13.0297 0.09201 H
286 3 -0.663673 6.12486 10.2787 7.74201 O
125 2 0.0659852 8.16352 10.5515 1.4991 H
253 3 -0.781867 1.6618 13.3203 7.10721 O
185 2 0.0538177 8.43419 12.8181 2.06197 H
176 2 0.0871215 5.7131 8.78586 3.88043 H
177 2 0.0870966 5.06954 8.12092 2.30976 H
178 2 0.0375463 6.89388 8.5153 2.49735 H
179 2 0.027695 8.33967 8.86253 6.44004 H
180 2 0.0793724 6.73911 8.27479 5.82185 H
118 2 -0.00869308 7.24758 7.37402 0.677522 H
182 2 0.0399557 8.9698 9.4984 7.61317 H
157 2 0.095904 4.62262 8.34779 7.3124 H
187 2 0.0571083 7.22968 11.2149 4.19616 H
188 2 0.0514131 8.35136 11.157 5.58485 H
189 2 0.106713 7.60154 12.7204 5.15985 H
190 2 0.0442338 4.15306 12.8274 7.39123 H
191 2 0.0511496 5.04536 13.5783 6.02698 H
275 3 -0.680125 9.9023 7.7689 1.19769 O
122 2 0.103869 2.30174 14.0905 4.00605 H
278 3 -0.821859 4.04413 12.3169 3.74185 O
5 3 -0.744123 6.46685 13.6636 3.43063 O
280 3 -0.721795 5.68861 11.6683 1.65146 O
285 3 -0.70863 4.76211 10.419 5.50841 O
76 1 -0.0653539 3.61788 7.9991 7.13733 C
267 3 -0.688147 10.258 7.33941 4.69636 O
124 2 0.1045 2.21187 13.7805 4.52524 H
198 2 0.0876721 3.56321 10.9972 0.424337 H
318 3 -0.842914 8.42531 13.7449 7.86577 O
85 1 -0.0661326 9.12118 9.67733 8.67873 C
43 4 1.10264 2.8211 9.90593 14.0249 Si
44 4 1.1054 1.89101 12.7029 13.2123 Si
53 4 1.12126 6.546 8.02303 10.8085 Si
288 3 -0.75139 3.657 10.2683 15.3165 O
60 4 0.964549 7.14367 10.4731 9.13151 Si
61 4 0.66013 2.78803 12.3219 10.5259 Si
63 4 0.627034 9.18111 10.2311 12.7568 Si
64 4 0.661839 4.22606 11.5738 16.1139 Si
289 3 -0.636123 5.55091 11.3062 17.0314 O
89 1 -0.093876 7.21194 10.7738 12.8191 C
90 1 -0.13526 4.52658 13.1552 14.7625 C
183 2 0.0896051 9.32803 8.74751 9.16539 H
92 1 -0.0871334 4.82247 12.3303 10.177 C
126 2 0.0400554 2.52972 13.3359 9.10935 H
283 3 -0.733561 2.07513 10.8842 10.3109 O
91 1 -0.107172 2.72625 12.4007 17.2847 C
110 2 0.330769 3.24433 9.16684 10.3914 H
192 2 0.107864 6.64517 9.85697 12.7615 H
193 2 0.0942565 7.16661 11.3531 11.912 H
194 2 0.0200078 7.09115 11.3257 13.7357 H
195 2 0.0345151 5.51945 13.516 14.9736 H
196 2 0.0177834 3.74264 13.8561 15.0214 H
197 2 0.0323599 4.40365 12.7097 13.7757 H
127 2 0.139755 5.30582 9.16353 15.2358 H
331 2 0.0471491 7.91547 8.64842 15.8358 H
201 2 0.0912217 4.94471 11.6463 9.35607 H
202 2 0.0873172 5.31545 11.9993 11.0472 H
203 2 0.0116184 5.00566 13.3536 9.87395 H
316 4 1.08957 8.11702 13.3527 9.40023 Si
205 2 0.0277346 7.49788 13.8624 13.4746 H
287 3 -0.738044 9.37952 8.64573 12.8436 O
254 3 -0.76381 3.73625 9.13734 12.9734 O
199 2 0.0218448 1.87142 12.5426 16.6388 H
256 3 -0.798917 0.719191 13.6875 13.7774 O
255 3 -0.849482 1.91195 11.1539 13.544 O
184 2 0.119585 9.82292 10.4549 8.9942 H
281 3 -0.753251 6.48231 9.54212 10.324 O
282 3 -0.798751 7.39539 11.9929 9.68938 O
284 3 -0.738409 2.40691 13.275 11.8017 O
38 4 1.00248 3.95261 7.71245 12.2109 Si
200 2 0.0420993 3.22296 13.3021 17.6237 H
ITEM: TIMESTEP
200
ITEM: NUMBER OF ATOMS
350
ITEM: BOX BOUNDS xy xz yz pp pp pp
-7.4865239999999984e+00 1.5678200000000000e+01 -7.0408999999999997e+00