ITEM: TIMESTEP
0
ITEM: NUMBER OF ATOMS
386
ITEM: BOX BOUNDS xy xz yz pp pp pp
-7.8071286998062384e+00 1.6886916502045430e+01 -7.4860088590297336e+00
-6.6499790659694413e-01 1.3356446172144953e+01 -1.5640333873135098e-01
-1.9405318175273933e-01 1.7510153181752699e+01 -8.9755173445182768e-01
ITEM: ATOMS id type x y z
110 2 -2.81575 6.13466 4.12349
15 2 -2.52093 5.01154 8.1452
13 2 -1.87693 4.90455 5.54772
3 2 -1.833 4.55124 3.12353
6 1 -1.52058 3.8464 3.99471
97 2 -0.67156 4.58104 7.85968
129 2 2.30085 4.41008 3.95984
130 2 1.66903 5.4321 2.51688
131 2 0.274815 4.65346 3.75713
200 1 1.51476 5.10656 3.63265
327 1 0.933485 3.11664 0.798959
324 2 -0.770495 3.05732 1.23693
325 2 1.36269 4.19719 1.02566
5 2 -0.257688 3.98861 5.48298
261 3 -0.818436 1.69464 6.96853
21 3 0.506289 1.78226 3.59966
326 2 1.61592 2.26469 1.17985
10 4 0.590917 2.34948 7.12079
16 1 0.589678 4.04616 6.33604
330 2 2.33484 0.899487 7.05307
332 2 2.87902 2.24053 5.8301
331 1 2.0079 1.45406 6.07298
17 4 1.64474 1.00032 4.33585
14 2 1.71438 3.86789 5.89862
1 4 -0.987307 2.44388 3.05498
235 3 3.80671 5.08695 0.945213
11 2 0.559245 5.02335 6.90885
128 2 3.14095 2.90941 2.41948
199 1 4.31454 2.9584 2.57984
22 3 2.97705 0.485453 3.65687
126 2 4.64926 3.34731 3.59298
357 2 5.88829 0.445331 1.81995
233 3 6.0531 3.61796 0.45718
121 2 7.3857 0.443112 6.6419
127 2 4.96605 2.13318 2.14394
363 2 7.70606 0.602115 -0.0336673
239 3 4.3942 5.27147 6.85521
37 4 6.53971 1.84227 5.52246
40 4 5.03359 4.3988 1.56882
43 4 5.22172 4.16396 7.56383
231 3 5.63805 0.966675 4.58327
237 3 5.79725 3.03973 6.38503
42 4 3.13436 6.57228 0.192877
364 2 5.84033 1.22133 0.0970931
84 2 -2.54673 5.71193 13.8306
223 3 -2.14158 3.36234 14.9687
86 2 6.49214 -0.1388 16.057
232 3 7.04848 0.179282 12.1407
108 2 -1.68834 4.04663 9.49702
115 2 -2.59725 5.67487 11.8586
166 2 -1.63911 2.90099 10.2551
211 1 3.94399 -0.412782 15.8191
109 2 -1.2593 5.69909 9.29398
133 2 1.08873 2.37377 8.83229
2 2 3.37849 0.498895 15.6591
323 1 2.43956 2.38163 15.7653
8 2 3.21867 2.1942 16.5242
322 2 2.61548 1.91791 14.7578
85 2 -0.0869067 4.2574 13.354
320 2 2.2009 3.61564 15.6833
321 2 1.85739 3.26651 13.993
7 4 0.8387 2.14751 16.7848
9 3 -0.510364 1.67565 16.1719
26 4 -1.37812 4.66844 14.5955
241 3 -0.699793 5.5333 15.8271
242 3 1.67817 5.68975 17.0015
337 2 2.25815 4.78577 12.8588
338 2 1.66426 3.19536 12.1494
339 2 1.43398 5.2783 14.4414
340 1 1.62423 3.86068 13.0287
124 2 2.37181 1.15747 8.98732
198 1 2.04889 2.0237 10.461
334 2 2.09248 0.976012 13.2889
89 2 1.48407 1.38031 11.3523
91 2 2.3132 4.57722 9.06357
134 2 1.38005 4.63014 11.1784
36 4 3.97188 2.05571 9.6742
87 2 1.69123 3.12782 10.3737
99 2 0.0204813 1.90266 10.3986
345 2 -0.0715672 0.198031 9.90734
201 1 1.24687 5.12734 10.1816
336 1 0.599387 0.255878 12.7852
333 2 0.601007 -0.128442 11.627
102 2 -3.55123 5.69165 16.8522
125 2 3.64968 2.41995 11.4057
135 2 3.48434 3.38664 13.6425
192 1 -1.53014 4.83449 8.69954
119 2 4.43545 -0.0386506 8.86546
132 2 0.235743 4.99275 9.73614
335 2 -0.409165 0.415667 13.3158
213 1 -1.2017 1.8042 10.4698
136 2 4.5362 3.53392 15.2606
159 2 4.82048 -0.118687 16.401
365 1 6.68239 0.271804 17.1312
120 2 5.59399 0.0568163 10.4364
137 2 4.94598 2.05385 14.0922
362 2 5.94314 2.47602 15.5182
196 1 5.28511 0.535615 9.45837
202 1 4.64068 3.13892 14.1644
123 2 6.47356 1.86978 10.2086
157 2 3.07289 5.89965 14.7653
366 2 6.11653 0.800427 8.73809
156 2 2.92568 6.11536 12.829
236 3 4.26611 3.35808 8.72489
344 1 -2.85062 8.14059 0.112045
34 4 -2.87427 13.09 3.71262
90 2 -1.98153 11.617 2.12978
193 1 -3.84523 9.29989 7.88561
225 3 -2.08682 7.27987 6.9267
117 2 -2.56449 11.416 4.40051
203 1 -2.7207 7.8149 4.11427
111 2 -3.82658 9.23529 6.74239
139 2 -3.45462 8.19811 3.27269
140 2 -3.12215 8.28337 5.10486
343 2 -2.65817 7.71033 1.18347
25 4 -1.52095 6.64384 5.56037
318 2 -3.88859 11.7853 0.248524
351 2 -5.4676 10.9137 0.782335
141 2 -2.30071 10.1612 4.947
346 2 -6.96235 12.2453 8.43174
112 2 -3.17798 10.2334 8.19668
145 2 0.346909 11.9732 8.52786
146 2 -0.712265 10.9154 7.02779
341 2 -3.38931 9.4043 0.191731
83 2 -1.59755 8.21726 3.90476
28 4 -2.66147 7.98991 8.31954
352 1 -4.94927 11.4861 -0.0841192
205 1 -0.4917 11.1377 8.30087
118 2 -3.18125 12.7111 1.05857
238 3 2.89275 6.75961 5.18065
143 2 -0.844323 9.60344 5.84982
142 2 -0.904051 11.9973 5.73512
234 3 0.0332087 6.74315 5.06868
41 4 1.50824 6.81058 4.35497
204 1 -1.17224 10.3589 5.15445
49 4 2.44816 8.74956 2.14545
50 4 0.414994 11.3831 4.41353
138 2 -0.216205 9.84457 3.66943
144 2 0.681751 9.64393 7.75568
245 3 1.45866 8.06067 3.11005
246 3 3.27165 7.7486 1.31813
247 3 0.409505 12.6593 3.34057
248 3 1.87906 9.94899 1.23118
253 3 1.82174 11.1344 5.14976
19 2 -5.69824 10.3334 3.15087
113 2 -4.84694 9.20051 8.44118
45 4 4.34958 6.69942 6.02001
195 1 -2.41643 12.7465 1.97303
329 2 -6.34885 12.9309 5.53345
377 2 -4.06706 7.11577 1.32584
350 2 -5.59024 13.2445 0.333515
51 4 2.0592 11.2491 0.264883
342 2 -2.07115 7.23957 17.2036
259 3 1.86227 8.44953 12.6318
47 4 0.771262 6.19883 15.7771
194 1 -2.50273 6.35013 12.7848
349 2 -5.10245 9.90422 16.4631
160 2 -4.15576 11.9225 16.5083
23 4 -5.9712 12.3097 13.8005
150 2 -3.46057 10.8869 9.82631
250 3 2.39039 7.64881 8.77286
368 2 -3.29548 11.7266 11.5043
348 1 -6.8206 12.4395 9.60606
207 1 -3.35146 10.7098 11.0004
30 4 -3.33544 7.99347 13.5631
32 4 -4.93935 9.99813 11.722
151 2 -2.47126 10.0241 11.2668
224 3 -3.68969 6.60519 9.51715
226 3 -3.87764 7.63272 15.0141
227 3 -6.35782 11.9443 15.2905
229 3 -4.55551 8.38996 12.4847
230 3 -5.40328 11.113 12.8872
256 3 -2.25609 9.2106 13.5908
27 4 -4.36506 7.137 16.4067
94 2 -3.21211 10.7356 15.6914
82 2 -3.67658 7.29554 10.6353
56 4 -1.90127 10.2923 14.6489
31 4 -6.64962 11.5227 16.7784
228 3 -6.011 9.91425 10.4874
369 2 0.907686 11.1355 15.6458
161 2 -3.25583 12.2885 14.8156
147 2 -1.48823 11.37 8.85451
92 2 0.698414 9.31383 15.9311
252 3 -1.373 8.5922 9.28101
38 4 0.130618 12.2419 13.2619
370 2 -0.986991 9.49472 15.828
347 2 -5.71408 12.5381 9.89294
210 1 0.688154 10.3599 16.4878
12 2 1.10091 6.74271 11.0303
114 2 -1.47661 6.9688 12.6403
44 4 2.54576 6.47623 9.8382
209 1 3.27056 6.58795 13.8015
53 4 -0.105439 9.60038 9.30219
55 4 2.29151 8.18801 14.0942
57 4 1.75501 10.0508 11.7916
255 3 0.781167 7.74395 15.2227
257 3 -1.11196 11.6408 14.1349
258 3 0.815222 9.93155 10.4539
260 3 1.21393 11.1045 12.8202
380 2 4.14073 6.27094 15.5657
158 2 -0.22234 10.5724 17.1831
243 3 3.92331 6.3871 10.6279
88 2 8.75625 2.21042 6.81618
170 2 8.17224 4.51604 3.75032
171 2 7.7076 4.90188 5.52894
197 1 8.42266 1.53261 5.98154
215 1 8.01558 5.29337 4.56928
361 1 9.98305 1.69191 3.2016
272 3 6.62046 4.68948 8.22377
122 2 7.96833 2.52582 4.55925
367 2 9.32619 0.923161 5.58003
355 2 8.57431 2.10621 2.18651
267 3 6.14999 5.34835 2.64682
358 2 9.46723 1.6672 4.32459
310 2 9.74289 3.49017 2.31529
214 1 12.9883 3.34263 8.33752
312 2 9.15309 5.34887 2.53494
313 1 9.65888 4.53851 1.83446
95 2 8.86301 0.727954 7.75714
311 2 9.14142 4.50121 0.829218
33 4 8.85515 0.254206 2.34227
172 2 8.85251 6.01669 4.67669
379 1 12.2569 6.56254 2.17564
360 2 10.7139 0.198718 2.9527
274 3 10.9796 5.02982 7.28038
378 2 12.9038 6.12016 3.00767
359 2 10.6755 2.5875 3.08169
67 4 11.2234 3.36011 7.69841
101 2 11.262 5.68774 4.86652
4 2 14.6486 3.31255 4.59395
59 4 15.1666 0.460184 6.48944
61 4 12.0479 1.26504 5.50522
96 2 11.8281 1.48619 3.7662
263 3 13.5986 0.930475 5.8513
271 3 11.3008 2.34907 6.34845
308 4 12.8101 2.57789 0.260356
309 4 11.4679 5.0379 1.25147
314 3 12.8684 1.24854 1.11576
315 3 12.4203 3.81388 1.58878
386 3 14.8836 1.39072 2.85091
58 4 13.8716 0.294807 2.0933
169 2 13.5265 2.94223 7.44801
65 4 6.72882 6.39097 3.75725
354 2 10.6093 -0.135783 7.50494
168 2 13.3972 4.40384 8.60014
353 2 10.876 0.0229747 4.92201
24 4 12.2971 5.59217 10.6393
270 3 10.429 2.71079 8.94567
265 3 8.49219 2.09629 16.761
35 4 6.86752 2.10933 16.9624
244 3 5.52756 5.02601 12.3031
39 4 7.41721 1.6037 11.6501
46 4 6.16536 3.99724 13.317
60 4 9.98257 1.61068 9.98748
63 4 10.1055 1.63085 16.1036
68 4 7.46806 5.6405 9.21948
72 4 9.35786 5.44823 11.499
240 3 6.87304 2.64996 12.7239
262 3 8.97628 1.64477 11.1729
277 3 6.9641 4.69037 14.4443
278 3 8.92122 5.57785 16.0167
280 3 8.1719 4.8236 10.3792
281 3 10.0407 4.34488 12.5486
275 3 10.3549 2.40475 14.6666
212 1 9.93894 -0.174934 15.6509
98 2 8.36482 0.0432074 14.484
206 1 9.10126 0.315195 8.89787
371 2 14.1986 1.26907 11.4367
374 2 11.4444 0.770381 13.7557
116 2 12.8612 5.50201 12.3205
373 1 12.1751 0.0338332 13.1237
317 2 12.8019 3.99926 10.2266
279 3 10.7153 5.86119 10.6679
70 4 10.9836 3.51147 13.5604
384 2 14.0377 0.301363 8.8686
165 2 15.41 0.990936 9.5956
266 3 11.6256 0.752701 10.5083
264 3 11.43 1.5711 16.9415
167 2 13.1315 2.66476 9.25159
174 2 11.5009 5.72755 14.0554
216 1 11.8539 4.71413 14.6035
175 2 13.0079 4.5045 14.4309
64 4 12.4635 1.32633 11.7382
173 2 11.5581 4.73055 15.735
276 3 12.2491 2.64917 12.4914
305 4 14.8728 1.91083 15.8305
306 3 14.0189 2.04589 17.24
307 3 14.2702 0.683475 14.9078
381 2 5.04715 5.08134 16.9277
316 3 11.1304 4.67309 17.4103
148 2 8.10902 0.129053 9.42271
375 2 15.6141 1.41815 11.5066
71 4 7.50685 5.84995 15.3867
162 2 10.1121 -0.295503 14.5213
164 2 10.895 -0.494287 16.2829
18 2 10.0932 10.7257 1.90922
356 1 3.81411 12.637 6.62961
69 4 10.8179 6.57764 6.90175
52 4 3.63586 8.85844 8.1182
54 4 3.23142 10.9271 6.02396
249 3 1.54687 12.729 0.799508
254 3 2.93723 10.1298 7.36094
105 2 3.72046 9.4198 3.10605
285 3 4.5497 10.6011 4.8887
182 2 6.51522 9.43989 7.99599
251 3 4.45803 8.0015 7.01582
20 1 10.6048 9.85389 2.45475
178 2 4.73564 10.0429 1.56136
93 2 4.87002 12.2877 6.95495
180 2 12.2297 7.60139 6.73891
176 2 5.3316 8.79222 2.85486
177 2 6.6012 9.77735 1.74874
217 1 5.52339 9.79488 2.30364
268 3 5.6926 6.85547 4.86064
295 3 8.444 12.5219 5.68826
73 4 8.80801 8.42292 1.89317
74 4 5.63729 11.0624 3.81098
75 4 7.91106 11.3475 0.275672
76 4 8.65386 9.1564 7.19068
78 4 8.58728 11.1173 4.91914
104 2 9.51359 8.86063 3.54583
107 2 9.62825 11.2461 3.57838
183 2 6.70411 7.83788 6.87609
282 3 7.67445 7.78769 2.86919
283 3 9.59201 7.30487 1.01243
284 3 5.38467 12.4943 3.06776
287 3 8.11551 9.86548 0.983626
288 3 7.19162 12.3842 1.2038
289 3 9.50394 7.30697 7.20319
293 3 7.07691 10.7482 4.45247
294 3 9.23264 10.0558 5.86675
219 1 6.8663 8.98412 6.97468
184 2 6.44666 9.52514 6.03015
185 2 6.90821 11.7872 7.81169
100 2 12.4525 7.26381 4.75006
181 2 10.5604 7.5887 4.72647
179 2 8.67022 6.46049 8.26165
376 2 11.3869 7.17703 2.55505
218 1 11.4091 6.87756 5.11787
290 3 8.88824 9.9253 8.62829
220 1 7.28807 12.7946 8.20285
328 2 11.1815 9.20429 1.71248
186 2 10.407 8.04568 15.2777
149 2 2.25954 12.5333 8.88574
221 1 10.18 8.46842 14.2765
62 4 6.05781 12.5363 14.1931
382 1 4.44267 6.09001 16.6744
300 3 3.34115 10.3496 17.2226
187 2 9.92685 9.56896 14.3352
292 3 3.25855 10.3634 11.278
298 3 3.33838 9.18843 14.7818
188 2 11.1139 8.34264 13.5471
106 2 4.51689 12.2839 10.0662
80 4 4.3007 10.1086 15.7188
77 4 4.54476 10.6604 10.4888
291 3 4.58529 9.65603 9.17922
269 3 11.0166 7.34751 16.8618
319 2 6.7729 10.4047 16.6587
66 4 9.97661 6.11702 17.1749
103 2 6.44962 6.0462 16.6776
383 2 4.98136 7.01123 17.123
154 2 4.46752 8.17299 12.1191
286 3 9.11709 10.9964 17.4403
372 2 4.18082 12.3325 12.5461
153 2 5.60541 7.37183 13.4135
299 3 5.09787 11.3521 15.1203
297 3 8.90755 6.70507 12.4453
152 2 6.34973 8.28518 11.8194
48 4 5.36506 6.2353 11.1728
29 4 9.64004 10.6372 10.0534
79 4 8.60371 7.86927 13.4724
81 4 7.29943 10.6348 12.0861
189 2 5.17732 7.93457 15.4984
190 2 6.14318 8.603 17.0589
191 2 6.48184 9.26566 15.3227
208 1 5.50108 7.73061 12.3419
222 1 5.71442 8.82204 16.0295
296 3 7.56636 7.25603 14.6355
301 3 8.50874 11.0705 11.1045
302 3 5.92927 10.4654 11.2265
303 3 7.89069 9.22387 12.8362
304 3 7.07135 11.7153 13.2703
273 3 6.57756 6.69122 9.94926
155 2 4.36853 6.88466 13.7659
385 2 8.37501 12.6526 8.67783
163 2 1.49242 12.4223 15.9685
ITEM: TIMESTEP
100
ITEM: NUMBER OF ATOMS
386
ITEM: BOX BOUNDS xy xz yz pp pp pp
-7.8071286998062384e+00 1.6886916502045430e+01 -7.4860088590297336e+00
-6.6499790659694413e-01 1.3356446172144953e+01 -1.5640333873135098e-01
-1.9405318175273933e-01 1.7510153181752699e+01 -8.9755173445182768e-01
ITEM: ATOMS id type x y z
110 2 -2.96144 6.0784 4.33764
15 2 -2.48815 5.27626 8.19321
13 2 -1.93584 4.86772 5.62767
3 2 -1.74238 4.68198 3.24436
6 1 -1.57316 3.87246 4.02497
97 2 -0.745009 4.69487 7.64908
129 2 2.33919 4.63455 3.87211
130 2 1.41257 5.45782 2.35637
131 2 0.246993 4.71444 3.76552
200 1 1.3965 5.19461 3.48513
327 1 0.861132 3.31385 0.882277
324 2 -0.859198 3.19159 1.23998
325 2 1.19574 4.45452 0.79311
5 2 -0.297227 3.96152 5.36907
261 3 -0.702259 1.78582 6.89214
21 3 0.359491 1.74254 3.53839
326 2 1.5342 2.6117 1.54058
10 4 0.692824 2.37781 7.13959
16 1 0.699806 4.04395 6.38465
330 2 2.43916 0.891591 6.95593
332 2 2.89213 2.37081 5.619
331 1 2.12862 1.42304 6.02028
17 4 1.67681 0.93681 4.32981
14 2 1.74613 3.92474 5.85325
1 4 -1.03103 2.45268 3.00445
235 3 3.55004 5.12754 1.09704
11 2 0.661777 4.99874 6.96872
128 2 3.44202 3.04221 2.62043
199 1 4.49324 3.12752 2.88247
22 3 2.99557 0.365573 3.62375
126 2 4.73655 3.41954 4.00567
357 2 5.91625 0.494306 1.78314
233 3 6.10644 3.77219 0.360004
121 2 7.1287 0.789546 6.76556
127 2 5.12425 2.28202 2.39292
366 2 5.94327 0.83297 8.55121
239 3 4.26871 5.19127 6.85196
37 4 6.45583 1.99522 5.52815
40 4 5.16633 4.50118 1.79123
43 4 5.30694 4.13998 7.46913
231 3 5.55857 0.9761 4.48823
237 3 5.86997 3.16722 6.34725
42 4 3.2253 6.50954 0.343325
364 2 5.98069 0.930074 0.103885
192 1 -1.49244 5.02207 8.60628
350 2 2.03555 0.270947 0.176501
236 3 4.54387 3.22596 8.65137
84 2 -2.71805 5.5347 13.6564
223 3 -2.28305 3.22758 14.9011
86 2 6.5343 0.0870216 16.0041
232 3 7.09076 0.00701335 12.0941
108 2 -1.59073 4.17329 9.43472
115 2 -2.31217 5.78168 11.8388
166 2 -1.42957 2.97337 10.1393
375 2 -1.22734 1.57589 11.3935
109 2 -1.07331 5.96763 9.09555
133 2 1.09732 2.48121 8.84627
2 2 3.39695 0.459718 15.7884
323 1 2.40954 2.23369 15.8647
8 2 3.43249 1.9968 16.5243
322 2 2.23126 1.54288 15.0278
85 2 -0.0983636 4.16151 13.4444
320 2 2.12794 3.3782 15.7482
321 2 1.77704 3.06306 13.9385
7 4 0.891103 1.85412 16.9773
9 3 -0.578595 1.71365 16.2492
26 4 -1.48251 4.59991 14.5546
241 3 -0.891184 5.59812 15.7915
242 3 1.67977 5.67815 17.0086
337 2 2.36503 4.66231 13.2115
338 2 1.88771 3.23042 12.0977
339 2 1.34741 5.03421 14.5832
340 1 1.64894 3.79613 13.082
124 2 2.30501 1.2172 9.01058
198 1 2.14245 2.04227 10.4558
334 2 1.7399 1.00139 13.2491
89 2 1.49354 1.41187 11.2728
91 2 2.16218 4.58592 9.28854
134 2 1.36661 4.66108 11.2926
36 4 4.01513 2.06589 9.57368
87 2 1.71895 3.18029 10.3685
99 2 0.125403 1.88764 10.1846
345 2 -0.0167663 0.266055 9.75129
201 1 1.27812 5.14316 10.1556
336 1 0.4469 0.217133 12.5995
333 2 0.457341 -0.0918425 11.419
102 2 -3.72145 5.73561 17.351
125 2 3.66005 2.57029 11.3327
135 2 3.53179 3.41841 13.7044
381 2 5.07269 4.65269 16.7614
119 2 4.32653 -0.150556 9.02723
132 2 0.181314 5.07389 9.63323
335 2 -0.561023 0.385928 13.1776
213 1 -1.04968 1.88912 10.3446
136 2 4.67405 3.6554 15.2238
159 2 4.92729 -0.425916 16.2706
365 1 6.68983 0.294192 17.1537
120 2 5.65295 0.115438 10.298
137 2 4.94481 2.05426 14.0768
362 2 5.87167 2.43621 15.4991
196 1 5.15567 0.534788 9.34629
202 1 4.6596 3.20701 14.1281
123 2 6.64302 1.57924 10.1286
157 2 3.14229 5.81109 14.5112
148 2 8.00585 0.113179 9.34399
382 1 4.52305 5.6974 16.8098
344 1 -2.67392 8.0686 0.150192
34 4 -2.89066 12.9878 3.63992
90 2 -1.84908 11.7201 2.03869
193 1 -3.62425 9.4106 7.82757
225 3 -2.11508 7.25975 7.01558
117 2 -2.59558 11.3858 4.38
203 1 -2.75156 7.8302 4.12672
111 2 -4.11315 9.30693 6.81571
139 2 -3.3668 8.11265 3.23576
140 2 -3.12996 8.33795 5.06561
343 2 -2.47094 7.95184 1.20107
25 4 -1.6136 6.61099 5.61813
318 2 -4.09035 11.966 0.492005
351 2 -5.69113 10.8769 0.923026
141 2 -2.19885 9.90319 4.91485
346 2 -7.01637 12.1916 8.36458
112 2 -2.91934 10.3108 8.00934
145 2 0.301388 11.8565 8.27593
146 2 -0.82301 10.8503 6.91593
341 2 -3.23227 9.57129 -0.015161
83 2 -1.72052 8.1454 3.907
28 4 -2.58153 8.00964 8.41147
352 1 -5.09493 11.4923 0.0744173
205 1 -0.566613 11.1132 8.10233
118 2 -3.18369 12.8789 1.09261
238 3 2.85232 6.81381 5.25
143 2 -0.61312 9.528 5.7749
142 2 -0.95069 12.0119 5.61162
234 3 -0.130557 6.82664 5.20794
41 4 1.50476 6.85336 4.28674
204 1 -1.16417 10.2619 5.05564
49 4 2.48523 8.84331 2.13102
50 4 0.37373 11.4999 4.48649
138 2 -0.311454 9.88492 3.5997
144 2 0.638246 9.54813 7.73319
245 3 1.63039 7.9289 3.13353
246 3 3.41774 7.88931 1.26272
247 3 0.607239 12.6387 3.35573
248 3 1.72827 9.89834 1.20945
253 3 1.70882 11.1535 5.23405
19 2 -5.65274 10.2252 3.2045
377 2 -3.96323 7.11817 1.36077
45 4 4.375 6.70748 6.0233
195 1 -2.38557 12.7775 1.91321
329 2 -6.43583 13.0175 5.644
113 2 -4.45973 9.38609 8.61487
342 2 -1.78326 7.12144 17.3583
259 3 1.68559 8.49324 12.588
47 4 0.657183 6.03902 15.8444
194 1 -2.31421 6.28111 12.8186
349 2 -4.98899 9.86166 16.8211
160 2 -4.11194 11.7731 16.576
23 4 -6.15935 12.2676 13.693
150 2 -3.60173 10.8487 9.81852
250 3 2.39797 7.65309 8.67641
368 2 -3.18199 11.7362 11.4024
348 1 -6.82658 12.4367 9.52754
207 1 -3.45325 10.7649 10.9253
30 4 -3.3631 7.88407 13.4175
32 4 -4.96956 10.0535 11.7599
151 2 -2.59735 10.0265 11.1255
224 3 -3.85039 6.76408 9.60254
226 3 -3.92572 7.44561 14.9861
227 3 -6.43145 11.9941 15.2914
229 3 -4.69682 8.26506 12.4102
230 3 -5.43722 11.1842 12.7868
256 3 -2.3805 9.1581 13.536
27 4 -4.30924 7.27728 16.519
94 2 -3.06561 10.577 15.7883
82 2 -3.96645 7.54922 10.5852
56 4 -1.8342 10.1278 14.6819
31 4 -6.61651 11.4858 16.82
211 1 -3.57581 12.5078 15.8534
369 2 1.02594 11.0726 15.8274
161 2 -3.48752 12.0561 14.8108
147 2 -1.51438 11.3929 8.80579
92 2 0.950802 9.11041 15.9231
252 3 -1.28615 8.46349 9.32711
38 4 0.0182778 12.2401 13.354
370 2 -0.741176 9.20456 15.6389
347 2 -5.73725 12.4963 9.81254
210 1 0.789063 10.1506 16.4686
12 2 1.12738 6.83024 11.1466
114 2 -1.30734 6.88355 13.0477
44 4 2.42545 6.68581 9.95983
209 1 3.56817 6.53444 13.8092
53 4 -0.182822 9.62462 9.20775
55 4 2.35491 7.99246 13.9922
57 4 1.78212 9.99553 11.8462
255 3 0.932216 7.49399 15.2477
257 3 -1.19186 11.4468 14.178
258 3 0.770987 9.90074 10.4841
260 3 1.22523 11.2278 12.8848
380 2 4.17453 6.11452 15.6913
158 2 -0.182741 10.2286 16.9584
243 3 3.8266 6.49243 10.5829
156 2 3.17254 6.24537 12.7002
88 2 9.08753 2.0041 6.65922
170 2 8.08857 4.50773 4.2464
171 2 7.88678 5.69248 5.76449
197 1 8.4758 1.55173 5.89988
215 1 8.19299 5.58658 4.66051
361 1 10.1433 1.75423 3.07047
272 3 6.60469 4.8947 8.09424
122 2 8.04961 2.71383 4.73043
367 2 8.97853 0.673582 5.52908
355 2 8.63593 1.90917 1.92934
267 3 5.8951 5.47324 2.70563
358 2 9.48222 1.76028 4.19574
310 2 9.80442 3.59549 2.37074
214 1 13.116 3.26347 8.44199
312 2 9.32448 5.53557 2.53669
313 1 9.69079 4.72103 1.89478
95 2 8.8592 0.730342 7.70979
311 2 9.09695 4.61816 0.957173
33 4 9.03774 0.196252 2.27214
172 2 9.15751 6.13874 4.32491
379 1 12.2498 6.58893 2.1378
360 2 10.7753 0.584079 3.06382
274 3 11.0557 4.90507 7.33782
378 2 12.7328 6.1677 3.0298
359 2 10.8537 2.63576 2.96819
67 4 11.3473 3.42206 7.81084
101 2 11.0771 5.63019 4.71767
4 2 14.4445 3.41776 4.44975
59 4 15.0654 0.577277 6.5464
61 4 11.9947 1.28102 5.65136
96 2 11.89 1.48687 3.95567
263 3 13.5721 1.01596 6.13741
271 3 11.3747 2.48164 6.3661
308 4 12.8633 2.73599 0.325074
309 4 11.5347 5.0864 1.23736
314 3 12.8473 1.23743 1.00657
315 3 12.5894 3.87455 1.48284
386 3 14.9128 1.32215 2.77813
58 4 13.8373 0.301086 2.06215
169 2 13.721 2.83319 7.5482
65 4 6.75124 6.44534 3.78369
69 4 10.7796 6.37675 6.84989
354 2 10.3315 -0.139344 7.32808
363 2 7.92121 1.06762 -0.125716
24 4 12.287 5.63896 10.6706
270 3 10.2709 2.76897 8.89861
265 3 8.39266 2.37206 16.7014
35 4 6.8305 2.17434 16.9245
244 3 5.5862 5.01328 12.0528
39 4 7.50568 1.48367 11.6307
46 4 6.18105 3.90684 13.2644
60 4 9.9969 1.41902 9.93514
63 4 9.89026 1.87024 16.0993
68 4 7.47513 5.65865 9.19774
72 4 9.41767 5.39062 11.5239
240 3 6.83315 2.5607 12.5838
262 3 9.06538 1.62048 11.2869
277 3 6.85549 4.67418 14.5979
278 3 9.0313 5.54377 16.1245
280 3 8.30278 4.9306 10.27
281 3 9.81128 4.30296 12.6667
275 3 10.2858 2.59225 14.6634
212 1 9.77416 0.0128601 15.6288
98 2 8.08982 0.179066 14.5876
206 1 9.01126 0.267762 8.84796
371 2 14.2976 1.3553 11.191
374 2 11.8309 0.844887 13.9815
116 2 12.9877 5.55721 12.2746
373 1 12.2588 0.17331 13.1541
317 2 12.651 3.99637 10.2329
279 3 10.7993 5.84942 10.6781
70 4 10.8754 3.47054 13.469
384 2 13.9617 0.280418 8.86711
165 2 15.5164 1.125 9.61731
266 3 11.7457 0.708558 10.4227
264 3 11.2379 1.84931 17.0035
167 2 13.0706 2.4357 9.28887
174 2 11.3912 5.79574 14.0243
216 1 11.764 4.80224 14.4621
175 2 12.8211 4.56704 14.109
64 4 12.5783 1.27107 11.7099
173 2 11.6131 4.73133 15.5975
276 3 12.1328 2.62231 12.2445
305 4 14.8758 1.8989 15.8312
306 3 14.0445 2.19972 17.2343
307 3 14.1702 0.483207 15.1915
164 2 10.7394 -0.333308 16.0941
316 3 11.2 4.79911 17.4278
162 2 9.84777 0.250153 14.4399
71 4 7.59065 5.80572 15.4951
168 2 13.569 4.31254 8.68575
18 2 10.0469 10.6767 2.00312
356 1 3.60053 12.6147 6.54785
328 2 11.0976 9.14783 1.71815
52 4 3.63358 8.81931 8.01147
54 4 3.13679 10.8609 5.9294
249 3 1.99777 12.4809 0.936013
254 3 2.8446 9.92305 7.13201
105 2 3.63477 9.72451 3.05611
285 3 4.4806 10.6164 5.00912
182 2 6.57717 9.04407 7.97215
251 3 4.69502 7.90341 7.08332
20 1 10.62 9.84541 2.49698
178 2 4.74636 10.2019 1.57647
93 2 4.63792 12.3685 6.96981
180 2 12.2554 7.34137 6.74583
176 2 5.26571 8.89052 2.79312
177 2 6.53878 9.82364 1.7988
217 1 5.51083 9.87465 2.36107
268 3 5.69331 6.73612 4.97914
295 3 8.23357 12.594 5.55856
73 4 8.69123 8.48265 1.87113
74 4 5.70053 11.0345 3.85011
75 4 7.79762 11.419 0.210809
76 4 8.78564 9.10488 7.26411
78 4 8.57834 11.182 4.94104
104 2 9.57592 8.87088 3.40687
107 2 9.90871 11.1724 3.9071
183 2 7.10072 7.4558 6.99908
282 3 7.63212 7.67817 2.81245
283 3 9.36588 7.38724 0.916093
284 3 5.42497 12.5813 3.29417
287 3 7.98443 9.8399 0.890558
288 3 7.13894 12.4379 1.13056
289 3 9.56395 7.23031 7.25033
293 3 7.29803 10.6005 4.26106
294 3 9.09665 10.0802 5.96191
219 1 7.02407 8.65753 6.98529
184 2 6.51921 9.09789 6.05856
185 2 6.87754 11.8984 7.86761
100 2 12.4473 7.1949 4.74269
181 2 10.5006 7.5446 4.75256
179 2 8.665 6.58334 8.3424
376 2 11.375 7.27471 2.4029
218 1 11.3462 6.84708 5.09129
51 4 2.27682 11.1484 0.161553
220 1 7.29035 12.9137 8.2434
290 3 8.99597 9.8486 8.61487
353 2 3.311 13.0573 4.91511
186 2 10.4255 8.1036 15.264
149 2 2.16479 12.43 8.83641
221 1 10.1373 8.60454 14.2744
62 4 6.08326 12.4252 14.259
163 2 1.42511 12.4732 15.9646
300 3 3.67932 10.2445 17.24
187 2 9.8581 9.69379 14.4332
292 3 3.242 10.3425 11.3636
298 3 3.24896 9.16996 14.6837
188 2 11.0917 8.47822 13.4825
106 2 4.34131 12.2559 10.0504
80 4 4.28504 9.99731 15.6804
77 4 4.50972 10.6183 10.4983
291 3 4.51636 9.67715 9.12302
269 3 11.1674 7.45676 16.7952
319 2 6.64978 10.5051 16.4806
66 4 10.0007 6.11836 17.2934
228 3 10.8639 9.89812 10.5954
383 2 5.14275 6.57186 17.396
154 2 4.36394 8.48386 12.2729
286 3 9.04496 10.969 17.3477
372 2 4.05422 12.4985 12.6733
153 2 5.65114 7.54153 13.3384
299 3 5.19283 11.2567 14.9781
297 3 9.06572 6.85511 12.398
152 2 6.21909 8.45156 11.7825
48 4 5.36432 6.35453 11.1424
29 4 9.5769 10.6594 10.0232
79 4 8.58044 7.91404 13.5324
81 4 7.31311 10.7392 12.1362
189 2 5.2971 7.8456 15.635
190 2 6.33369 8.60467 16.9569
191 2 6.56777 9.24395 15.29
208 1 5.35885 7.91227 12.2957
222 1 5.81933 8.7986 15.9987
296 3 7.6731 7.24571 14.8377
301 3 8.39223 11.0964 10.962
302 3 5.85575 10.5435 11.2985
303 3 7.90899 9.34821 12.9238
304 3 7.13664 11.954 13.1221
273 3 6.53812 6.65435 9.99251
155 2 4.69781 6.6144 13.8421
385 2 8.42313 12.7082 8.77728
103 2 6.50976 5.94614 16.8292
ITEM: TIMESTEP
200
ITEM: NUMBER OF ATOMS
386
ITEM: BOX BOUNDS xy xz yz pp pp pp
-7.8071286998062384e+00 1.6886916502045430e+01 -7.4860088590297336e+00
-6.6499790659694413e-01 1.3356446172144953e+01 -1.5640333873135098e-01
-1.9405318175273933e-01 1.7510153181752699e+01 -8.9755173445182768e-01
ITEM: ATOMS id type x y z
110 2 -2.75692 6.04319 4.24666
15 2 -2.35717 5.01144 8.3536
13 2 -1.67162 4.75235 5.63604
3 2 -1.42124 4.59818 3.26987
6 1 -1.41777 3.78073 4.05881
97 2 -0.620222 4.5184 7.93377
129 2 2.33346 4.8134 3.79635
130 2 1.5104 5.73369 2.27863
131 2 0.266801 4.74346 3.6331
200 1 1.39583 5.34928 3.34075
327 1 1.12789 3.36191 0.87958
324 2 -0.521623 3.28384 1.39024
325 2 1.49425 4.44162 0.91058
5 2 -0.0926645 4.02219 5.40091
261 3 -0.714811 1.7151 6.84411
21 3 0.442591 1.78136 3.69343
326 2 1.79614 2.55104 1.39622
10 4 0.795349 2.51183 7.18404
16 1 0.800489 4.21081 6.47117
330 2 2.55612 1.11349 7.22056
332 2 2.80683 2.45543 5.44797
331 1 2.02595 1.43469 6.21543
17 4 1.71251 0.989322 4.38507
14 2 1.93441 4.09242 6.02743
1 4 -0.926239 2.36753 3.01224
235 3 3.71466 5.12182 1.23847
11 2 0.661568 5.16141 7.07816
128 2 3.5285 2.97877 2.933
199 1 4.67169 3.17363 2.98114
22 3 2.84367 0.138013 3.60397
126 2 4.97598 3.65721 4.00012
357 2 6.31453 0.18892 1.88742
233 3 6.09426 3.69036 0.311678
121 2 7.07451 0.589377 6.52742
127 2 5.41836 2.31951 2.66926
366 2 6.01302 0.634455 8.58985
239 3 4.28845 5.22274 6.80787
37 4 6.32947 1.94308 5.38774
40 4 5.20658 4.41817 1.76141
43 4 5.40821 4.23552 7.39256
231 3 5.36833 0.876042 4.55257
237 3 5.89216 3.17777 6.18368
42 4 3.27505 6.53936 0.333267
364 2 5.95746 0.833962 0.0154304
350 2 1.90547 0.349982 0.218126
236 3 4.65519 3.1519 8.62255
363 2 7.79345 0.803755 -0.0356012
118 2 4.50774 0.351995 1.4338
329 2 1.03458 -0.0133294 5.80841
84 2 -2.63443 5.44551 13.6696
223 3 -2.20852 3.11754 14.9521
86 2 6.72467 -0.0123193 16.0281
232 3 6.89266 -0.0458629 12.0782
108 2 -1.59756 3.73307 9.35855
115 2 -2.14067 6.04923 11.6684
166 2 -1.66923 2.9377 10.4742
157 2 2.94818 5.50112 14.465
109 2 -0.978836 5.62441 9.45004
133 2 1.18909 2.38107 8.91058
2 2 3.31778 0.355381 15.8512
323 1 2.2359 2.08945 15.834
8 2 3.03455 1.96942 16.5214
322 2 2.23117 1.4165 14.9119
85 2 -0.0166933 4.19237 13.2313
320 2 2.02558 3.22183 15.6356
321 2 1.90712 3.07154 13.9636
7 4 0.74677 1.87615 16.993
9 3 -0.810293 1.48997 16.4104
26 4 -1.4007 4.42754 14.4958
241 3 -0.893759 5.24763 15.764
242 3 1.50219 5.57604 17.1847
337 2 2.26426 4.65337 13.1015
338 2 1.89496 3.06765 12.0679
339 2 1.38516 4.60751 14.706
340 1 1.67588 3.68211 12.9935
124 2 2.44256 1.12015 8.99481
198 1 2.34553 1.9548 10.4254
334 2 2.00729 0.801582 13.2813
89 2 1.70462 1.44305 11.2487
91 2 2.3728 4.70151 9.28552
134 2 1.56024 4.57226 11.1565
36 4 4.13726 1.9639 9.52104
87 2 1.97618 3.15788 10.3059
99 2 -0.0872783 1.91241 10.3122
345 2 -0.0511758 0.288052 9.80282
201 1 1.48533 5.11257 10.0965
336 1 0.568861 0.312336 12.5888
333 2 0.601985 -0.0500632 11.3598
102 2 -3.76095 5.70865 17.2779
125 2 3.80805 2.23679 11.3689
135 2 3.62733 3.52029 13.6758
47 4 0.738535 5.75133 15.8023
192 1 -1.40949 4.75167 8.79177
132 2 0.463612 4.97819 9.59043
335 2 -0.455924 0.469009 13.0794
213 1 -1.22406 1.80934 10.4476
136 2 4.78737 3.74782 15.2733
159 2 4.91399 -0.319833 16.3784
365 1 6.73134 0.239256 17.1606
120 2 5.88638 -0.0845857 10.3989
137 2 4.97677 2.11404 14.1332
362 2 6.04367 2.40366 15.4322
196 1 5.32592 0.425179 9.44847
202 1 4.7277 3.26209 14.1773
123 2 6.80702 1.70685 10.0314
381 2 5.04701 4.7919 16.9793
148 2 8.06207 -0.00389963 9.35516
344 1 -2.75419 8.15547 0.147463
34 4 -3.02454 13.1041 3.66847
90 2 -2.32851 11.758 1.86511
193 1 -3.71757 9.38878 7.78504
225 3 -2.24793 7.13855 6.98636
117 2 -2.60165 11.4683 4.31142
203 1 -2.6592 7.83615 4.27745
111 2 -3.69805 9.58682 6.70488
139 2 -3.47979 8.04833 3.54311
140 2 -2.85343 8.46645 5.20697
343 2 -2.41066 7.873 1.21819
25 4 -1.55135 6.54917 5.59077
318 2 -4.10531 12.0314 0.598239
351 2 -5.70893 10.9627 0.969504
141 2 -2.20442 10.1715 5.09699
346 2 -6.89822 12.2929 8.34206
112 2 -3.23864 10.2934 8.31844
145 2 0.193719 11.8746 8.26568
146 2 -0.723658 10.7408 7.03177
113 2 -4.72959 9.02393 8.30347
83 2 -1.61479 8.13238 3.8436
28 4 -2.63151 8.03632 8.32808
352 1 -5.1371 11.6476 0.197759
205 1 -0.473847 10.9832 8.2041
341 2 -2.98646 9.52566 0.140081
238 3 2.87196 6.80492 5.20921
143 2 -0.513197 9.84626 5.76467
142 2 -0.817519 12.1343 5.58069
234 3 -0.0452732 6.93897 5.16077
41 4 1.45198 6.92577 4.36313
204 1 -1.09223 10.4864 5.06562
49 4 2.43368 8.81274 2.09126
50 4 0.473214 11.5727 4.29348
138 2 -0.496217 10.1557 3.48662
144 2 0.919474 9.55791 8.01597
245 3 1.42988 8.13014 3.13571
246 3 3.41468 7.78457 1.26328
247 3 0.612888 12.6576 3.18524
248 3 1.8698 9.88657 1.06813
253 3 1.85678 11.1232 5.05628
19 2 -5.86044 10.3795 3.13538
377 2 -3.85515 7.21809 1.5809
45 4 4.286 6.73346 6.01196
195 1 -2.20702 12.8903 2.0144
243 3 3.8704 6.57555 10.5881
259 3 1.74874 8.48738 12.734
147 2 -1.57611 11.1632 8.75021
194 1 -2.18825 6.39668 12.7701
349 2 -5.12517 9.99864 16.7298
160 2 -4.13105 11.7561 16.5762
23 4 -6.17414 12.2022 13.6144
150 2 -3.81927 11.1258 9.90442
250 3 2.13385 7.81882 8.7668
368 2 -2.99765 11.3663 11.5383
348 1 -6.85543 12.5094 9.46027
207 1 -3.42892 10.5897 10.7953
30 4 -3.27536 7.86372 13.4868
32 4 -4.94921 9.96795 11.6992
151 2 -2.70289 9.77141 10.5541
224 3 -3.75731 6.72668 9.56773
226 3 -3.88969 7.4764 15.0357
227 3 -6.58355 11.9727 15.2683
229 3 -4.59754 8.30258 12.4586
230 3 -5.44629 11.0253 12.8051
256 3 -2.262 9.07528 13.5064
27 4 -4.35741 7.33853 16.5397
94 2 -3.11231 10.5922 15.6355
82 2 -3.89493 7.47073 10.7054
56 4 -1.87761 10.1216 14.5433
31 4 -6.70151 11.5201 16.8056
211 1 -3.57108 12.502 15.9204
369 2 1.28043 10.809 15.5921
161 2 -3.42562 12.0727 14.8734
158 2 0.0312224 10.4231 16.9761
92 2 0.887804 8.94983 16.06
252 3 -1.44934 8.66815 9.21868
38 4 0.0970487 12.2014 13.2647
370 2 -0.875848 9.5031 15.7884
347 2 -5.77272 12.3344 9.89793
210 1 0.943426 10.0905 16.397
12 2 1.07077 6.67872 11.152
114 2 -1.16648 6.82371 13.0972
44 4 2.39564 6.82989 10.0565
209 1 3.26191 6.34682 13.7643
53 4 -0.106528 9.54186 9.37252
55 4 2.23571 7.94465 14.161
57 4 1.76978 10.0022 11.9157
255 3 0.979738 7.27268 15.2142
257 3 -1.05428 11.3204 13.9339