ITEM: TIMESTEP
0
ITEM: NUMBER OF ATOMS
386
ITEM: BOX BOUNDS xy xz yz pp pp pp
-7.6507253610748878e+00 1.6907555226949132e+01 -7.4860088590297336e+00
-6.7397342394146242e-01 1.3487685095587853e+01 2.0638724903703012e-02
-1.9405318175273933e-01 1.7510153181752699e+01 -9.0652725179634597e-01
ITEM: ATOMS id type x y z
110 2 -2.77257 6.19368 4.12349
15 2 -2.43754 5.05933 8.1452
13 2 -1.81951 4.95127 5.54772
3 2 -1.79983 4.59443 3.12353
6 1 -1.4787 3.88254 3.99471
97 2 -0.591023 4.62452 7.85968
129 2 2.34239 4.45185 3.95984
130 2 1.69614 5.4841 2.51688
131 2 0.314327 4.69767 3.75713
200 1 1.55303 5.1553 3.63265
327 1 0.943415 3.14548 0.798959
324 2 -0.756185 3.08557 1.23693
325 2 1.37489 4.23683 1.02566
5 2 -0.200918 4.02617 5.48298
261 3 -0.74681 1.70926 6.96853
21 3 0.544226 1.79776 3.59966
326 2 1.62966 2.28501 1.17985
10 4 0.664066 2.37064 7.12079
16 1 0.654978 4.0843 6.33604
330 2 2.40731 0.906156 7.05307
332 2 2.93926 2.26061 5.8301
331 1 2.07057 1.46627 6.07298
17 4 1.69004 1.008 4.33585
14 2 1.77531 3.90424 5.89862
1 4 -0.954817 2.46599 3.05498
235 3 3.8181 5.13549 0.945213
11 2 0.630274 5.07126 6.90885
128 2 3.16708 2.93618 2.41948
199 1 4.34228 2.98565 2.57984
22 3 3.01556 0.487982 3.65687
126 2 4.68713 3.37846 3.59298
357 2 5.90843 0.447459 1.81995
233 3 6.05961 3.65181 0.45718
121 2 7.45406 0.445217 6.6419
127 2 4.98943 2.15218 2.14394
363 2 7.70767 0.605811 -0.0336673
239 3 4.4647 5.32186 6.85521
37 4 6.59688 1.85837 5.52246
40 4 5.05122 4.44046 1.56882
43 4 5.2993 4.20328 7.56383
231 3 5.68582 0.974016 4.58327
237 3 5.86305 3.06781 6.38503
42 4 3.13823 6.63568 0.192877
364 2 5.84324 1.23122 0.0970931
84 2 -2.40649 5.76672 13.8306
223 3 -1.98996 3.39364 14.9687
86 2 6.65465 -0.142514 16.057
232 3 7.17183 0.17875 12.1407
108 2 -1.59143 4.08477 9.49702
115 2 -2.47673 5.72929 11.8586
166 2 -1.53462 2.92768 10.2551
211 1 4.10412 -0.419236 15.8191
109 2 -1.16442 5.75375 9.29398
133 2 1.17899 2.39518 8.83229
2 2 3.53703 0.501559 15.6591
323 1 2.59915 2.40312 15.7653
8 2 3.38585 2.21382 16.5242
322 2 2.76499 1.93476 14.7578
85 2 0.0485741 4.29764 13.354
320 2 2.35967 3.64947 15.6833
321 2 1.99926 3.29685 13.993
7 4 1.00849 2.16666 16.7848
9 3 -0.346705 1.69009 16.1719
26 4 -1.23022 4.7128 14.5955
241 3 -0.539581 5.58631 15.8271
242 3 1.85013 5.74433 17.0015
337 2 2.38868 4.8313 12.8588
338 2 1.78769 3.22499 12.1494
339 2 1.58033 5.32875 14.4414
340 1 1.75646 3.89696 13.0287
124 2 2.46362 1.16672 8.98732
198 1 2.15544 2.04161 10.461
334 2 2.22731 0.983446 13.2889
89 2 1.59953 1.39179 11.3523
91 2 2.40577 4.62067 9.06357
134 2 1.49377 4.67411 11.1784
36 4 4.07056 2.07394 9.6742
87 2 1.79691 3.15677 10.3737
99 2 0.126408 1.91936 10.3986
345 2 0.0294467 0.197686 9.90734
201 1 1.35062 5.17629 10.1816
336 1 0.72918 0.256111 12.7852
333 2 0.719217 -0.132052 11.627
102 2 -3.38076 5.74625 16.8522
125 2 3.76568 2.44182 11.4057
135 2 3.6227 3.41818 13.6425
192 1 -1.44121 4.88051 8.69954
119 2 4.52604 -0.0413627 8.86546
132 2 0.335045 5.04035 9.73614
335 2 -0.274066 0.417498 13.3158
213 1 -1.09506 1.81992 10.4698
136 2 4.69075 3.56693 15.2606
159 2 4.98643 -0.122199 16.401
365 1 6.85564 0.272196 17.1312
120 2 5.7003 0.055059 10.4364
137 2 5.08885 2.07207 14.0922
362 2 6.10026 2.49845 15.5182
196 1 5.38164 0.538645 9.45837
202 1 4.78426 3.16798 14.1644
123 2 6.57759 1.88615 10.2086
157 2 3.22248 5.95632 14.7653
366 2 6.20586 0.806106 8.73809
156 2 3.05591 6.17419 12.829
236 3 4.3553 3.38934 8.72489
344 1 -2.84756 8.21967 0.112045
34 4 -2.8352 13.2185 3.71262
90 2 -1.95829 11.7308 2.12978
193 1 -3.76443 9.39056 7.88561
225 3 -2.01562 7.35034 6.9267
117 2 -2.51854 11.5278 4.40051
203 1 -2.67762 7.89073 4.11427
111 2 -3.75722 9.32531 6.74239
139 2 -3.41995 8.27776 3.27269
140 2 -3.06916 8.36388 5.10486
343 2 -2.6444 7.78511 1.18347
25 4 -1.46341 6.70795 5.56037
318 2 -3.88417 11.9008 0.248524
351 2 -5.45784 11.0205 0.782335
141 2 -2.2493 10.2605 4.947
346 2 -6.8761 12.3654 8.43174
112 2 -3.09407 10.3334 8.19668
145 2 0.434128 12.0906 8.52786
146 2 -0.640047 11.0222 7.02779
341 2 -3.38545 9.49602 0.191731
83 2 -1.55656 8.29711 3.90476
28 4 -2.57633 8.06748 8.31954
352 1 -4.94818 11.5987 -0.0841192
205 1 -0.406751 11.2467 8.30087
118 2 -3.16872 12.8359 1.05857
238 3 2.9465 6.82488 5.18065
143 2 -0.783884 9.69715 5.84982
142 2 -0.844759 12.115 5.73512
234 3 0.085836 6.80826 5.06868
41 4 1.55373 6.87636 4.35497
204 1 -1.11876 10.4602 5.15445
49 4 2.47156 8.83473 2.14545
50 4 0.46107 11.4946 4.41353
138 2 -0.177571 9.94069 3.66943
144 2 0.761249 9.73804 7.75568
245 3 1.4917 8.13895 3.11005
246 3 3.28677 7.82376 1.31813
247 3 0.444852 12.7835 3.34057
248 3 1.89331 10.0462 1.23118
253 3 1.87518 11.2435 5.14976
19 2 -5.66479 10.4344 3.15087
113 2 -4.76059 9.29019 8.44118
45 4 4.41172 6.76409 6.02001
195 1 -2.39476 12.8716 1.97303
329 2 -6.29158 13.0579 5.53345
377 2 -4.05186 7.18461 1.32584
350 2 -5.58496 13.3746 0.333515
51 4 2.06379 11.3593 0.264883
342 2 -1.89718 7.30964 17.2036
259 3 1.99052 8.5317 12.6318
47 4 0.930973 6.25849 15.7771
194 1 -2.37294 6.41131 12.7848
349 2 -4.93587 10.0009 16.4631
160 2 -3.98874 12.0394 16.5083
23 4 -5.83126 12.4305 13.8005
150 2 -3.36037 10.9934 9.82631
250 3 2.48006 7.72298 8.77286
368 2 -3.17849 11.8416 11.5043
348 1 -6.7226 12.5616 9.60606
207 1 -3.23952 10.8145 11.0004
30 4 -3.19787 8.07108 13.5631
32 4 -4.82019 10.0958 11.722
151 2 -2.35665 10.122 11.2668
224 3 -3.59257 6.66892 9.51715
226 3 -3.72556 7.70672 15.0141
227 3 -6.20298 12.0614 15.2905
229 3 -4.42873 8.47153 12.4847
230 3 -5.27246 11.2218 12.8872
256 3 -2.11824 9.30038 13.5908
27 4 -4.19905 7.20604 16.4067
94 2 -3.05325 10.8406 15.6914
82 2 -3.56829 7.36617 10.6353
56 4 -1.75284 10.3929 14.6489
31 4 -6.4799 11.6356 16.7784
228 3 -5.90418 10.0111 10.4874
369 2 1.06608 11.2446 15.6458
161 2 -3.10573 12.4091 14.8156
147 2 -1.39774 11.4814 8.85451
92 2 0.859665 9.40464 15.9311
252 3 -1.27825 8.67579 9.28101
38 4 0.265177 12.362 13.2619
370 2 -0.826771 9.58734 15.828
347 2 -5.61321 12.6611 9.89294
210 1 0.854973 10.4612 16.4878
12 2 1.21315 6.80781 11.0303
114 2 -1.34827 7.03616 12.6403
44 4 2.64608 6.53866 9.8382
209 1 3.41052 6.6515 13.8015
53 4 -0.0104767 9.69406 9.30219
55 4 2.43439 8.26756 14.0942
57 4 1.87486 10.149 11.7916
255 3 0.935334 7.81907 15.2227
257 3 -0.968671 11.7549 14.1349
258 3 0.921702 10.0285 10.4539
260 3 1.34407 11.2132 12.8202
380 2 4.29833 6.33133 15.5657
158 2 -0.0485691 10.6758 17.1831
243 3 4.03153 6.44865 10.6279
88 2 8.82635 2.2302 6.81618
170 2 8.21168 4.55887 3.75032
171 2 7.76483 4.94857 5.52894
197 1 8.48442 1.54561 5.98154
215 1 8.06322 5.34398 4.56928
361 1 10.017 1.70651 3.2016
272 3 6.70464 4.73405 8.22377
122 2 8.01586 2.54875 4.55925
367 2 9.38393 0.930067 5.58003
355 2 8.59812 2.12495 2.18651
267 3 6.1784 5.39951 2.64682
358 2 9.51242 1.68154 4.32459
310 2 9.76799 3.52274 2.31529
214 1 13.0736 3.37373 8.33752
312 2 9.18038 5.40003 2.53494
313 1 9.67917 4.58157 1.83446
95 2 8.94252 0.732908 7.75714
311 2 9.15165 4.54389 0.829218
33 4 8.88051 0.254422 2.34227
172 2 8.90122 6.07454 4.67669
379 1 12.2806 6.62584 2.17564
360 2 10.7453 0.198379 2.9527
274 3 11.0544 5.07779 7.28038
378 2 12.9358 6.17903 3.00767
359 2 10.7082 2.61105 3.08169
67 4 11.3023 3.39139 7.69841
101 2 11.3126 5.74229 4.86652
4 2 14.6965 3.34335 4.59395
59 4 15.2335 0.462461 6.48944
61 4 12.1048 1.27536 5.50522
96 2 11.8677 1.49873 3.7662
263 3 13.6591 0.937454 5.8513
271 3 11.3663 2.37023 6.34845
308 4 12.8146 2.60134 0.260356
309 4 11.4824 5.08595 1.25147
314 3 12.8815 1.2587 1.11576
315 3 12.4381 3.84969 1.58878
386 3 14.9141 1.4023 2.85091
58 4 13.8945 0.29543 2.0933
169 2 13.6029 2.96933 7.44801
65 4 6.76834 6.45255 3.75725
354 2 10.6863 -0.139466 7.50494
168 2 13.4852 4.44555 8.60014
353 2 10.9272 0.0208789 4.92201
24 4 12.4054 5.64577 10.6393
270 3 10.5204 2.73557 8.94567
265 3 8.66174 2.11492 16.761
35 4 7.03909 2.1281 16.9624
244 3 5.65253 5.07394 12.3031
39 4 7.53565 1.61741 11.6501
46 4 6.30047 4.03489 13.317
60 4 10.0844 1.62446 9.98748
63 4 10.2685 1.64483 16.1036
68 4 7.56219 5.69458 9.21948
72 4 9.47479 5.50039 11.499
240 3 7.00222 2.67414 12.7239
262 3 9.08995 1.6589 11.1729
277 3 7.11049 4.73495 14.4443
278 3 9.08333 5.6313 16.0167
280 3 8.27764 4.86951 10.3792
281 3 10.1682 4.38601 12.5486
275 3 10.5035 2.42647 14.6666
212 1 10.0974 -0.179009 15.6509
98 2 8.5116 0.0413139 14.484
206 1 9.19218 0.316022 8.89787
371 2 14.3149 1.27943 11.4367
374 2 11.5839 0.77576 13.7557
116 2 12.9863 5.5547 12.3205
373 1 12.3082 0.031846 13.1237
317 2 12.9061 4.03693 10.2266
279 3 10.8239 5.91748 10.6679
70 4 11.1211 3.54426 13.5604
384 2 14.1284 0.302051 8.8686
165 2 15.5079 0.99852 9.5956
266 3 11.7326 0.757902 10.5083
264 3 11.6013 1.58449 16.9415
167 2 13.226 2.68909 9.25159
174 2 11.6433 5.7825 14.0554
216 1 12.0018 4.75894 14.6035
175 2 13.1541 4.54722 14.4309
64 4 12.5828 1.33727 11.7382
173 2 11.7173 4.77553 15.735
276 3 12.376 2.67333 12.4914
305 4 15.033 1.92761 15.8305
306 3 14.1932 2.06402 17.24
307 3 14.4212 0.687985 14.9078
381 2 5.21837 5.12982 16.9277
316 3 11.3064 4.7175 17.4103
148 2 8.20519 0.128018 9.42271
375 2 15.7311 1.43 11.5066
71 4 7.66266 5.90612 15.3867
162 2 10.2593 -0.300784 14.5213
164 2 11.0598 -0.501555 16.2829
18 2 10.1142 10.8306 1.90922
356 1 3.88234 12.761 6.62961
69 4 10.8888 6.64109 6.90175
52 4 3.71898 8.94469 8.1182
54 4 3.2936 11.034 6.02396
249 3 1.5568 12.8539 0.799508
254 3 3.01278 10.2288 7.36094
105 2 3.75346 9.51167 3.10605
285 3 4.60053 10.7048 4.8887
182 2 6.59712 9.53197 7.99599
251 3 4.53012 8.07919 7.01582
20 1 10.6313 9.9501 2.45475
178 2 4.75319 10.141 1.56136
93 2 4.94151 12.4082 6.95495
180 2 12.299 7.67508 6.73891
176 2 5.36209 8.87782 2.85486
177 2 6.62062 9.8728 1.74874
217 1 5.54837 9.89051 2.30364
268 3 5.74315 6.9217 4.86064
295 3 8.50282 12.6448 5.68826
73 4 8.82888 8.50483 1.89317
74 4 5.67734 11.1707 3.81098
75 4 7.91576 11.4587 0.275672
76 4 8.7277 9.24563 7.19068
78 4 8.63841 11.2262 4.91914
104 2 9.55098 8.94691 3.54583
107 2 9.66597 11.3562 3.57838
183 2 6.77482 7.91393 6.87609
282 3 7.70509 7.86324 2.86919
283 3 9.60408 7.3756 1.01243
284 3 5.41729 12.6169 3.06776
287 3 8.12729 9.96181 0.983626
288 3 7.2056 12.5057 1.2038
289 3 9.57791 7.37771 7.20319
293 3 7.12337 10.8534 4.45247
294 3 9.29325 10.154 5.86675
219 1 6.93799 9.07163 6.97468
184 2 6.5089 9.61807 6.03015
185 2 6.98827 11.9027 7.81169
100 2 12.5019 7.33412 4.75006
181 2 10.6096 7.66226 4.72647
179 2 8.75477 6.52277 8.26165
376 2 11.4143 7.24648 2.55505
218 1 11.4622 6.94401 5.11787
290 3 8.97647 10.0222 8.62829
220 1 7.37204 12.9202 8.20285
328 2 11.2005 9.29401 1.71248
186 2 10.5617 8.12381 15.2777
149 2 2.35034 12.6563 8.88574
221 1 10.3247 8.55078 14.2765
62 4 6.20168 12.6593 14.1931
382 1 4.61136 6.14859 16.6744
300 3 3.51531 10.4508 17.2226
187 2 10.0721 9.66232 14.3352
292 3 3.37327 10.4647 11.278
298 3 3.48814 9.27798 14.7818
188 2 11.2513 8.42374 13.5471
106 2 4.6195 12.4044 10.0662
80 4 4.45983 10.2073 15.7188
77 4 4.65159 10.7647 10.4888
291 3 4.67902 9.75027 9.17922
269 3 11.1872 7.41866 16.8618
319 2 6.94143 10.5064 16.6587
66 4 10.1503 6.17586 17.1749
103 2 6.61833 6.10433 16.6776
383 2 5.15453 7.07901 17.123
154 2 4.59065 8.2524 12.1191
286 3 9.29343 11.104 17.4403
372 2 4.30822 12.4535 12.5461
153 2 5.74149 7.44322 13.4135
299 3 5.25101 11.4633 15.1203
297 3 9.03394 6.7698 12.4453
152 2 6.46986 8.36571 11.8194
48 4 5.47873 6.29533 11.1728
29 4 9.74252 10.7413 10.0534
79 4 8.74037 7.94564 13.4724
81 4 7.42223 10.7389 12.0861
189 2 5.33425 8.01159 15.4984
190 2 6.31571 8.68671 17.0589
191 2 6.63701 9.35599 15.3227
208 1 5.62644 7.80559 12.3419
222 1 5.87666 8.90794 16.0295
296 3 7.71466 7.32627 14.6355
301 3 8.62172 11.1789 11.1045
302 3 6.04348 10.5678 11.2265
303 3 8.02099 9.31379 12.8362
304 3 7.20599 11.8301 13.2703
273 3 6.67899 6.75581 9.94926
155 2 4.50813 6.95118 13.7659
385 2 8.46372 12.7768 8.67783
163 2 1.65405 12.5442 15.9685
ITEM: TIMESTEP
100
ITEM: NUMBER OF ATOMS
386
ITEM: BOX BOUNDS xy xz yz pp pp pp
-7.6507253610748878e+00 1.6907555226949132e+01 -7.4860088590297336e+00
-6.7397342394146242e-01 1.3487685095587853e+01 2.0638724903703012e-02
-1.9405318175273933e-01 1.7510153181752699e+01 -9.0652725179634597e-01
ITEM: ATOMS id type x y z
110 2 -2.89822 6.16854 4.40768
15 2 -2.43011 5.27646 8.23622
13 2 -1.8653 4.90857 5.60553
3 2 -1.70121 4.68023 3.22772
6 1 -1.5254 3.88332 4.03085
97 2 -0.662289 4.70826 7.677
129 2 2.38888 4.71614 3.88119
130 2 1.44169 5.4868 2.33883
131 2 0.272853 4.76357 3.76203
200 1 1.41639 5.25771 3.46995
327 1 0.88069 3.33607 0.861326
324 2 -0.824835 3.24665 1.26465
325 2 1.23079 4.4726 0.769971
5 2 -0.22745 3.99402 5.40768
261 3 -0.626531 1.76863 6.89596
21 3 0.386933 1.75619 3.53855
326 2 1.54604 2.60941 1.514
10 4 0.756968 2.38601 7.13801
16 1 0.750659 4.05912 6.38823
330 2 2.55718 0.917214 6.93172
332 2 2.93138 2.40899 5.54234
331 1 2.17106 1.44562 6.0169
17 4 1.7171 0.951566 4.32337
14 2 1.78875 3.93859 5.84684
1 4 -0.99403 2.45918 3.02385
235 3 3.55175 5.22373 1.09678
11 2 0.733176 4.99389 7.00175
128 2 3.42522 3.18481 2.57218
199 1 4.51051 3.16788 2.89316
22 3 3.03901 0.384256 3.63938
126 2 4.77724 3.50694 4.00019
357 2 6.11567 0.44402 1.93237
233 3 6.08622 3.79706 0.344495
121 2 7.19707 0.835326 6.77869
127 2 5.12724 2.33341 2.40365
366 2 6.04024 0.852333 8.58247
239 3 4.35574 5.25936 6.87974
37 4 6.51989 2.0173 5.53707
40 4 5.17619 4.55287 1.79229
43 4 5.40357 4.18977 7.47442
231 3 5.60013 0.997002 4.4968
237 3 5.93954 3.22448 6.34423
42 4 3.2319 6.57345 0.341748
364 2 5.97632 0.873623 0.0563337
363 2 7.89011 1.04282 -0.072486
329 2 1.06702 -0.0434686 5.65357
236 3 4.64412 3.26566 8.63855
84 2 -2.53245 5.56501 13.6749
223 3 -2.11044 3.27258 14.9309
86 2 6.78876 0.0798449 16.0136
232 3 7.2251 0.0254096 12.1083
108 2 -1.41335 4.23374 9.52375
115 2 -2.19922 5.8797 11.8416
166 2 -1.31913 2.98349 10.1175
382 1 4.69015 5.76694 16.7902
109 2 -0.98111 6.03389 9.07328
133 2 1.17479 2.50362 8.85498
2 2 3.54606 0.443185 15.818
323 1 2.56088 2.21811 15.8333
8 2 3.61795 1.97955 16.3939
322 2 2.36799 1.58571 14.9631
85 2 0.0547175 4.23256 13.4573
320 2 2.27711 3.38322 15.769
321 2 1.92371 3.08911 13.9417
7 4 1.04543 1.86882 16.961
9 3 -0.432836 1.74272 16.252
26 4 -1.30961 4.6564 14.5733
241 3 -0.733001 5.64694 15.8123
242 3 1.84249 5.7183 16.9727
337 2 2.55354 4.651 13.1969
338 2 2.02706 3.24929 12.1416
339 2 1.50205 5.1793 14.4682
340 1 1.81356 3.82188 13.0967
124 2 2.40542 1.27543 9.02384
198 1 2.23494 2.0822 10.4476
334 2 1.94643 0.985187 13.2281
89 2 1.61869 1.43093 11.2824
91 2 2.30971 4.6847 9.27524
134 2 1.5023 4.69399 11.3195
36 4 4.10573 2.10534 9.56166
87 2 1.80107 3.22692 10.3688
99 2 0.232204 1.84531 10.1665
345 2 0.0779418 0.242372 9.74793
201 1 1.38022 5.21859 10.2074
336 1 0.604652 0.235243 12.5904
333 2 0.579366 -0.0966209 11.4152
102 2 -3.55239 5.79225 17.265
125 2 3.73028 2.64158 11.3398
135 2 3.67446 3.46416 13.7374
381 2 5.20035 4.72914 16.7517
119 2 4.38909 -0.0792219 9.00713
132 2 0.313472 5.12072 9.68036
335 2 -0.379113 0.437078 13.1948
213 1 -0.938036 1.87775 10.3273
136 2 4.86537 3.71413 15.2491
159 2 5.11356 -0.440054 16.2543
365 1 6.89 0.313293 17.1821
120 2 5.70153 0.139953 10.3077
137 2 5.11093 2.1177 14.0885
362 2 6.06671 2.47975 15.492
196 1 5.24308 0.5665 9.35024
202 1 4.82617 3.2611 14.1539
123 2 6.76021 1.57478 10.136
157 2 3.27238 5.91136 14.5352
148 2 8.10076 0.160323 9.42392
375 2 -1.10799 1.57758 11.3766
192 1 -1.39018 5.06272 8.66191
344 1 -2.6948 8.19063 0.136571
34 4 -2.84262 13.1442 3.65621
90 2 -1.92035 11.8292 1.93932
193 1 -3.53265 9.46827 7.83651
225 3 -2.03727 7.2942 7.02446
117 2 -2.53952 11.5655 4.42927
203 1 -2.67555 7.89084 4.11509
111 2 -4.00328 9.34794 6.83708
139 2 -3.29493 8.1506 3.22367
140 2 -3.00658 8.43591 5.05732
343 2 -2.51505 7.98509 1.18363
25 4 -1.55672 6.67072 5.60805
318 2 -3.86095 11.6112 0.425609
351 2 -5.63166 11.0402 0.916473
141 2 -2.15244 10.0583 4.96439
346 2 -6.96839 12.3051 8.36196
112 2 -2.89113 10.3922 8.00232
145 2 0.403468 11.9561 8.3013
146 2 -0.773243 10.9677 6.93119
341 2 -3.21776 9.59451 0.0145402
83 2 -1.61596 8.17569 3.84639
28 4 -2.45577 8.08786 8.43338
352 1 -5.0281 11.5745 0.106475
205 1 -0.488837 11.2362 8.15964
118 2 -3.0813 13.2388 1.12099
238 3 2.90662 6.85878 5.26041
143 2 -0.567645 9.67244 5.75717
142 2 -0.917077 12.1208 5.63341
234 3 -0.0712713 6.88875 5.19975
41 4 1.55366 6.90245 4.29325
204 1 -1.12153 10.4064 5.07665
49 4 2.52568 8.93599 2.12016
50 4 0.42899 11.6283 4.49602
138 2 -0.267424 10.0527 3.59825
144 2 0.69447 9.67295 7.72497
245 3 1.67755 8.0238 3.12865
246 3 3.41032 7.96456 1.23367
247 3 0.680955 12.7628 3.37447
248 3 1.75908 10.0143 1.22468
253 3 1.7552 11.252 5.2424
19 2 -5.61796 10.2919 3.18696
377 2 -3.99641 7.17645 1.34215
45 4 4.44094 6.77269 6.04593
195 1 -2.30695 12.9678 1.92899
350 2 -5.46115 13.4301 0.167137
113 2 -4.37129 9.41966 8.63234
342 2 -1.6669 7.19627 17.3344
259 3 1.80512 8.5802 12.6073
47 4 0.832452 6.10205 15.8175
194 1 -2.19635 6.36486 12.8325
349 2 -5.09972 9.92065 16.7448
160 2 -3.95677 11.8851 16.6235
23 4 -6.01239 12.3862 13.6839
150 2 -3.5127 10.9339 9.8181
250 3 2.51124 7.73648 8.70163
368 2 -3.04948 11.8202 11.4266
348 1 -6.74946 12.5508 9.5182
207 1 -3.33611 10.8464 10.9314
30 4 -3.22289 7.98249 13.4315
32 4 -4.858 10.1478 11.7612
151 2 -2.49374 10.0836 11.1142
224 3 -3.75445 6.85752 9.61149
226 3 -3.77427 7.53534 14.9727
227 3 -6.27532 12.1491 15.2746
229 3 -4.57778 8.36462 12.4142
230 3 -5.32375 11.2804 12.7838
256 3 -2.24133 9.25421 13.543
27 4 -4.17211 7.32944 16.4795
94 2 -2.91623 10.6948 15.7896
82 2 -3.86159 7.6795 10.5438
56 4 -1.69873 10.2373 14.6786
31 4 -6.46964 11.5948 16.7904
211 1 -3.41334 12.6519 15.8721
369 2 1.19256 11.1129 15.8165
161 2 -3.35703 12.194 14.7987
147 2 -1.35812 11.5651 8.79801
92 2 1.07308 9.1698 15.9292
252 3 -1.1805 8.56237 9.30582
38 4 0.159579 12.3524 13.3513
370 2 -0.599848 9.32423 15.62
347 2 -5.66678 12.5992 9.76098
210 1 0.955949 10.2363 16.4668
12 2 1.24924 6.89035 11.1787
114 2 -1.1833 6.93877 13.0552
44 4 2.55575 6.74504 9.96815
209 1 3.68781 6.62315 13.8231
53 4 -0.105885 9.71735 9.22403
55 4 2.48921 8.10993 14.0043
57 4 1.89396 10.0726 11.8401
255 3 1.07782 7.5704 15.2606
257 3 -1.07945 11.5438 14.1438
258 3 0.85737 9.96737 10.4883
260 3 1.3491 11.3294 12.867
380 2 4.31753 6.19419 15.6742
158 2 -0.0136746 10.3612 16.938
243 3 3.9531 6.56082 10.5973
156 2 3.31764 6.34913 12.7168
88 2 9.18584 1.96727 6.61387
170 2 8.0829 4.56491 4.23913
171 2 7.94694 5.7863 5.76909
197 1 8.52252 1.5483 5.87552
215 1 8.22053 5.64974 4.65393
361 1 10.1346 1.73478 3.05093
272 3 6.68555 4.93643 8.09674
122 2 8.12281 2.71393 4.7398
367 2 8.96768 0.668312 5.46906
355 2 8.66819 1.94604 1.98974
267 3 5.9184 5.52148 2.69014
358 2 9.5469 1.79426 4.14158
310 2 9.85271 3.57915 2.37996
214 1 13.2005 3.31617 8.40725
312 2 9.34096 5.52448 2.55893
313 1 9.69411 4.73087 1.8879
95 2 8.88855 0.697955 7.67997
311 2 9.1118 4.65096 0.958171
33 4 9.08306 0.193444 2.2845
172 2 9.14806 6.21755 4.25329
379 1 12.2899 6.63982 2.13191
360 2 10.9101 0.275946 3.06725
274 3 11.1152 4.93171 7.33865
378 2 12.7974 6.13997 2.92219
359 2 10.8569 2.55192 2.93629
67 4 11.4227 3.4537 7.81278
101 2 11.2054 5.65896 4.76065
4 2 14.4854 3.42216 4.45917
59 4 15.1316 0.569965 6.54063
61 4 12.0425 1.28116 5.67003
96 2 11.836 1.47495 3.93364
263 3 13.6433 1.01683 6.13199
271 3 11.4447 2.49658 6.38021
308 4 12.8745 2.75069 0.326066
309 4 11.5512 5.12882 1.22296
314 3 12.8727 1.24762 1.03572
315 3 12.6091 3.90021 1.44357
386 3 14.955 1.32986 2.77286
58 4 13.8754 0.313806 2.06276
169 2 13.8026 2.82995 7.53644
65 4 6.78188 6.50373 3.77319
353 2 10.8762 0.0692317 4.88437
69 4 10.8452 6.44291 6.85811
354 2 10.4389 -0.10409 7.35829
168 2 13.5998 4.37747 8.60866
24 4 12.4025 5.71294 10.6717
270 3 10.3746 2.77311 8.89497
265 3 8.56497 2.37836 16.6935
35 4 6.98554 2.18768 16.9237
244 3 5.69814 5.06304 12.0801
39 4 7.62227 1.49976 11.6523
46 4 6.32906 3.95943 13.2606
60 4 10.0919 1.41806 9.93854
63 4 10.0459 1.87677 16.1031
68 4 7.57925 5.70531 9.19067
72 4 9.5326 5.44067 11.5222
240 3 6.94933 2.59838 12.5861
262 3 9.17829 1.61893 11.29
277 3 7.02857 4.72336 14.5778
278 3 9.18571 5.59938 16.1275
280 3 8.43369 5.00035 10.2852
281 3 9.92846 4.34463 12.67
275 3 10.449 2.6286 14.6764
212 1 9.95604 0.0127421 15.6168
98 2 8.24569 0.108569 14.5803
206 1 9.09777 0.28299 8.83173
371 2 14.3385 1.35164 11.1631
374 2 11.9795 0.849362 13.9813
116 2 13.1051 5.65455 12.2462
373 1 12.384 0.195214 13.1615
317 2 12.8129 4.10069 10.1819
279 3 10.9092 5.8955 10.6695
70 4 11.0051 3.49654 13.4653
384 2 14.0344 0.202584 8.88701
165 2 15.5951 1.10377 9.6227
266 3 11.843 0.689429 10.4305
264 3 11.3993 1.83782 17.0058
167 2 13.1402 2.57615 9.31283
174 2 11.5201 5.8393 13.9684
216 1 11.9175 4.82583 14.4285
175 2 12.9827 4.55436 14.0349
64 4 12.6849 1.27744 11.705
173 2 11.7761 4.75235 15.5819
276 3 12.2296 2.62452 12.2244
305 4 15.0405 1.93677 15.8291
306 3 14.221 2.20878 17.2168
307 3 14.3262 0.497661 15.1687
164 2 10.9559 -0.377021 16.0254
316 3 11.365 4.83911 17.4185
162 2 10.0426 0.269678 14.4627
71 4 7.76077 5.85334 15.4901
103 2 6.66403 5.97812 16.834
18 2 10.0645 10.769 2.03514
356 1 3.66669 12.7457 6.52132
51 4 2.27619 11.2386 0.169308
52 4 3.71795 8.91819 8.01121
54 4 3.2272 10.9507 5.93863
249 3 1.96313 12.6062 0.923545
254 3 2.9219 10.0104 7.12065
105 2 3.68117 9.79125 3.05819
285 3 4.5111 10.7391 5.01309
182 2 6.65919 9.0785 7.99569
251 3 4.77402 7.98452 7.09387
20 1 10.631 9.93362 2.49377
178 2 4.79298 10.2965 1.5799
93 2 4.69037 12.4884 6.94757
180 2 12.3199 7.36524 6.73087
176 2 5.30006 9.02383 2.81814
177 2 6.58416 9.93429 1.80028
217 1 5.55488 9.99537 2.364
268 3 5.75086 6.80054 4.98618
295 3 8.29199 12.7185 5.57343
73 4 8.70491 8.5757 1.86442
74 4 5.74763 11.1661 3.83847
75 4 7.79081 11.5205 0.221646
76 4 8.85598 9.19841 7.2755
78 4 8.61962 11.2882 4.94308
104 2 9.60589 8.93178 3.38353
107 2 9.94417 11.2512 3.93288
183 2 7.17784 7.52856 6.9732
282 3 7.65836 7.75512 2.80281
283 3 9.37822 7.4749 0.901683
284 3 5.47353 12.7101 3.299
287 3 8.0142 9.94461 0.897872
288 3 7.14459 12.5592 1.13051
289 3 9.64635 7.31638 7.26282
293 3 7.33717 10.7363 4.25866
294 3 9.12872 10.1759 5.96912
219 1 7.11166 8.71956 6.99611
184 2 6.58579 9.17755 6.07656
185 2 6.97677 11.983 7.82764
100 2 12.5007 7.24435 4.74217
181 2 10.5184 7.56532 4.7943
179 2 8.69385 6.63186 8.33929
376 2 11.4287 7.28898 2.47466
218 1 11.4131 6.89682 5.09698
328 2 11.0777 9.24133 1.69235
220 1 7.3837 13.0303 8.23533
290 3 9.10864 9.94485 8.60982
186 2 10.5802 8.17539 15.2806
149 2 2.25554 12.5847 8.86865
221 1 10.2519 8.66173 14.274
62 4 6.23507 12.5496 14.2453
228 3 10.9759 10.0051 10.6023
300 3 3.84209 10.3513 17.224
187 2 9.97775 9.73512 14.4014
292 3 3.34681 10.4235 11.3583
298 3 3.39651 9.26669 14.6847
188 2 11.2067 8.52876 13.4521
106 2 4.44374 12.3276 10.0153
80 4 4.4325 10.1111 15.6719
77 4 4.61619 10.7098 10.4959
291 3 4.59971 9.79291 9.10719
269 3 11.3239 7.50809 16.7885
319 2 6.78891 10.5722 16.5273
66 4 10.178 6.17527 17.2831
163 2 1.60709 12.5126 15.9516
383 2 5.29912 6.65295 17.3856
154 2 4.55316 8.58984 12.2525
286 3 9.2033 11.0604 17.3429
372 2 4.19246 12.6077 12.7319
153 2 5.75335 7.66183 13.3533
299 3 5.33127 11.3633 14.9754
297 3 9.19899 6.90982 12.3915
152 2 6.36906 8.48608 11.7757
48 4 5.49295 6.40799 11.1485
29 4 9.68434 10.7679 10.0245
79 4 8.71219 7.94572 13.5414
81 4 7.42232 10.8353 12.1325
189 2 5.4378 7.98577 15.6175
190 2 6.43349 8.66697 16.9922
191 2 6.74604 9.37672 15.3202
208 1 5.48366 8.00122 12.2927
222 1 5.96256 8.87892 16.0211
296 3 7.82497 7.31014 14.8266
301 3 8.49783 11.1775 10.9624
302 3 5.95048 10.6176 11.29
303 3 8.00617 9.44263 12.9178
304 3 7.25947 12.0531 13.1087
273 3 6.64305 6.69094 9.99843
155 2 4.86653 6.7117 13.86
385 2 8.49809 12.8408 8.74966
ITEM: TIMESTEP
200
ITEM: NUMBER OF ATOMS
386
ITEM: BOX BOUNDS xy xz yz pp pp pp
-7.6507253610748878e+00 1.6907555226949132e+01 -7.4860088590297336e+00
-6.7397342394146242e-01 1.3487685095587853e+01 2.0638724903703012e-02
-1.9405318175273933e-01 1.7510153181752699e+01 -9.0652725179634597e-01
ITEM: ATOMS id type x y z
110 2 -2.63543 6.12846 4.2099
15 2 -2.29848 5.10092 8.43137
13 2 -1.60478 4.76924 5.65776
3 2 -1.44934 4.56609 3.22815
6 1 -1.36223 3.79671 4.0634
97 2 -0.56103 4.55075 7.91174
129 2 2.27639 4.86445 3.74055
130 2 1.53344 5.83096 2.25417
131 2 0.265626 4.82495 3.5982
200 1 1.40292 5.42815 3.31895
327 1 1.16367 3.33032 0.857036
324 2 -0.49176 3.39042 1.49584
325 2 1.56829 4.40261 0.841743
5 2 -0.0123488 4.05749 5.40152
261 3 -0.651787 1.70525 6.84505
21 3 0.497852 1.80601 3.70635
326 2 1.78568 2.46999 1.37907
10 4 0.816965 2.52586 7.1775
16 1 0.805066 4.23916 6.47047
330 2 2.57645 1.1007 7.18895
332 2 2.86251 2.47493 5.5144
331 1 2.08674 1.47553 6.18592
17 4 1.75858 1.00803 4.39531
14 2 1.98957 4.12528 6.07807
1 4 -0.884055 2.38334 3.00894
235 3 3.7422 5.21659 1.24061
11 2 0.631745 5.2303 7.02337
128 2 3.54637 3.20198 2.89952
199 1 4.66564 3.26703 2.99897
22 3 2.87649 0.177194 3.59288
126 2 5.01869 3.73831 3.98504
357 2 6.38958 0.28532 2.03392
233 3 6.1023 3.75294 0.3223
121 2 7.04282 0.673185 6.59059
127 2 5.38768 2.38331 2.52748
366 2 6.03047 0.596423 8.54558
239 3 4.39667 5.30533 6.86465
37 4 6.38346 2.02765 5.404
40 4 5.18072 4.50149 1.74138
43 4 5.52031 4.29468 7.40849
231 3 5.41907 0.949997 4.57049
237 3 5.955 3.29995 6.16367
42 4 3.27307 6.62399 0.324926
364 2 6.03716 0.768219 0.0631754
118 2 4.6802 0.358425 1.29467
236 3 4.7699 3.20109 8.59583
34 4 4.54062 0.037231 3.69532
25 4 -1.47525 6.56146 5.6003
329 2 1.08802 -0.0212401 5.7763
84 2 -2.44866 5.48656 13.7105
223 3 -2.07902 3.16985 14.9733
86 2 7.04386 -0.150227 16.131
232 3 7.0046 -0.00110469 12.0996
108 2 -1.4413 3.73981 9.43321
148 2 8.13326 -0.0174612 9.36633
166 2 -1.51975 2.91419 10.5269
47 4 0.863993 5.8745 15.8101
109 2 -0.88217 5.60426 9.50044
133 2 1.25444 2.46912 8.92951
2 2 3.34609 0.299403 15.807
323 1 2.38499 2.12042 15.8331
8 2 3.24127 2.01194 16.4695
322 2 2.25008 1.37424 14.9668
85 2 0.11322 4.14922 13.2867
320 2 2.08931 3.24469 15.5705
321 2 2.10246 3.09104 13.9436
7 4 0.919105 1.83134 16.9871
9 3 -0.65424 1.55015 16.3915
26 4 -1.25713 4.48554 14.5143
241 3 -0.737957 5.30932 15.7807
242 3 1.71209 5.64071 17.1759
337 2 2.52784 4.63298 12.9513
338 2 1.96468 3.09378 12.0753
339 2 1.58641 4.79333 14.6354
340 1 1.82792 3.72381 12.9822
124 2 2.46107 1.17973 8.96432
198 1 2.39376 2.02104 10.3889
334 2 2.14677 0.835102 13.2276
89 2 1.72153 1.39508 11.309
91 2 2.46271 4.73305 9.26499
134 2 1.73903 4.65582 11.2161
36 4 4.23511 2.02447 9.51013
87 2 2.10144 3.26106 10.2724
99 2 0.0850736 1.92807 10.3147
345 2 0.0809104 0.265219 9.75321
201 1 1.61688 5.19514 10.1185
336 1 0.628567 0.302855 12.5761
333 2 0.667759 -0.0841597 11.3342
102 2 -3.63085 5.91011 17.3595
125 2 3.88901 2.3075 11.2922
135 2 3.78484 3.56881 13.6782
192 1 -1.32981 4.7372 8.8669
119 2 4.49801 -0.243867 9.19127
132 2 0.526807 5.05096 9.6557
335 2 -0.401022 0.44356 13.0798
213 1 -1.06342 1.78626 10.4565
136 2 4.92436 3.76417 15.2901
159 2 5.06447 -0.258803 16.3955
365 1 6.90629 0.284263 17.1655
120 2 5.98196 0.129222 10.538
137 2 5.12053 2.16187 14.1168
362 2 6.17634 2.38135 15.4195
196 1 5.37222 0.491569 9.48403
202 1 4.88355 3.29398 14.1886
123 2 6.82989 1.66952 10.059
157 2 3.23243 5.46789 14.5479
381 2 5.1687 4.83756 16.9472
156 2 2.91183 6.08006 12.7452
344 1 -2.74076 8.19521 0.137548
113 2 -4.61874 9.08438 8.34107
90 2 -2.1664 11.9326 1.90346
193 1 -3.58328 9.42326 7.7714
225 3 -2.16847 7.18962 6.95721
117 2 -2.57776 11.6212 4.33579
203 1 -2.58581 7.90568 4.28671
111 2 -3.66266 9.65973 6.66156
139 2 -3.46014 8.07518 3.6062
140 2 -2.79355 8.49062 5.2477
343 2 -2.52522 8.01165 1.27509
195 1 -2.12312 13.1184 2.07402
318 2 -4.00475 11.7164 0.553168
351 2 -5.64699 11.0304 1.06105
141 2 -2.22195 10.3925 5.15867
346 2 -6.83466 12.3715 8.26854
112 2 -3.04569 10.3445 8.27484
145 2 0.277135 12.0387 8.36611
146 2 -0.667689 10.911 7.06585
341 2 -3.239 9.6515 0.149638
83 2 -1.55142 8.22639 3.81589
28 4 -2.55063 8.09638 8.31893
352 1 -5.03182 11.7006 0.268374
205 1 -0.412814 11.1336 8.25348
350 2 -5.65618 13.4307 0.2226
238 3 2.91679 6.83171 5.2202
143 2 -0.569426 9.97509 5.85343
142 2 -0.763699 12.254 5.64378
234 3 0.0258528 6.98795 5.17792
41 4 1.52241 6.97668 4.36844
204 1 -1.10251 10.6147 5.13022
49 4 2.47641 8.90756 2.07103
50 4 0.501876 11.6957 4.35217
138 2 -0.489493 10.2563 3.57202
144 2 0.951368 9.71091 8.02834
245 3 1.52407 8.20145 3.14075
246 3 3.43612 7.89769 1.22559
247 3 0.638375 12.7632 3.2397
248 3 1.85862 9.982 1.07819
253 3 1.91299 11.2539 5.09217
19 2 -5.82348 10.3952 3.08971
377 2 -3.8681 7.22401 1.51387
45 4 4.35274 6.78801 6.03059
342 2 -1.77341 7.25556 17.2363
259 3 1.87848 8.58228 12.755
228 3 -6.00772 10.0534 10.5752
194 1 -2.01466 6.5234 12.7669
349 2 -5.07564 10.2084 16.8218
160 2 -3.96577 11.8469 16.5556
23 4 -6.04253 12.3518 13.6036
150 2 -3.70832 11.2089 9.91752
250 3 2.28095 7.90834 8.79546
368 2 -2.90412 11.4473 11.5469
348 1 -6.76708 12.5944 9.41763
207 1 -3.31184 10.6741 10.8024
30 4 -3.14039 7.96892 13.4831
32 4 -4.84493 10.0486 11.6995
151 2 -2.59966 9.85266 10.5867
224 3 -3.65746 6.80018 9.57185
226 3 -3.74098 7.52306 14.9858
227 3 -6.38075 12.2078 15.2321
229 3 -4.47258 8.38728 12.4378
230 3 -5.35871 11.1432 12.8127
256 3 -2.1501 9.18815 13.519
27 4 -4.23534 7.47159 16.5106
94 2 -3.00563 10.6989 15.6134
82 2 -3.80999 7.63167 10.7231
56 4 -1.74527 10.2168 14.5409
31 4 -6.49792 11.5168 16.6906
211 1 -3.44822 12.6154 15.912
369 2 1.43702 10.8774 15.5633
161 2 -3.20763 12.2036 14.8769
147 2 -1.46906 11.2901 8.83566
92 2 0.986624 9.05066 16.0963
252 3 -1.31254 8.74479 9.19882
38 4 0.235722 12.3212 13.27
370 2 -0.685518 9.61726 15.7492
347 2 -5.65956 12.4021 9.8385
210 1 1.05559 10.1954 16.4451
12 2 1.18196 6.81147 11.1385
114 2 -0.976188 6.90572 13.0059
44 4 2.52529 6.88551 10.081
209 1 3.26807 6.39224 13.8397
53 4 -0.0152523 9.64126 9.40095
55 4 2.39693 8.03927 14.165
57 4 1.86717 10.0754 11.9039
255 3 1.06561 7.39653 15.3308
257 3 -0.918712 11.4386 13.9543