ITEM: TIMESTEP
0
ITEM: NUMBER OF ATOMS
350
ITEM: BOX BOUNDS xy xz yz pp pp pp
-6.6437909999999993e+00 1.5085818000000002e+01 -6.2000729999999997e+00
-6.4200000000000002e-01 1.4502800000000001e+01 -4.4371800000000000e-01
0.0000000000000000e+00 1.7008500000000002e+01 -6.4200000000000002e-01
ITEM: ATOMS id type x y z
7 4 -0.858258 2.57643 3.53103
180 3 3.36179 0.364842 3.31548
14 4 0.00821635 4.96588 1.8811
17 4 -0.643539 6.08822 6.41842
26 4 4.56782 1.43259 3.50131
318 2 0.797959 0.936741 0.121661
33 4 1.6975 5.99197 4.28636
9 4 2.75261 -0.269371 7.26265
36 4 4.53687 5.65276 5.45878
57 1 1.38424 0.856422 6.60227
62 1 4.5837 3.14643 2.50079
77 2 0.728156 2.58898 3.92147
201 3 4.12287 6.83926 6.63898
79 2 -0.530688 4.9055 7.66473
82 2 5.04399 1.58433 1.73915
181 3 3.48329 0.588184 8.43716
104 2 1.71669 0.893652 5.50814
105 2 1.46909 1.85557 7.14463
117 2 3.58927 3.10413 3.84539
118 2 3.95984 3.83504 1.7786
119 2 5.52113 3.66626 2.87749
164 3 -1.33858 3.83636 2.6436
165 3 0.894796 4.09886 0.705157
166 3 -0.765673 6.20963 1.18219
167 3 -2.03964 6.03785 5.61685
182 3 5.80746 1.14793 4.49814
320 2 -1.07442 2.98277 7.38939
189 3 0.991119 5.34299 3.0678
190 3 0.7536 5.91362 5.55134
191 3 5.37201 2.37223 8.09758
194 3 3.28401 5.50055 4.44735
195 3 4.73582 4.321 6.36451
334 2 1.00638 0.544246 1.93267
316 2 1.94147 1.99681 1.33433
315 1 1.7348 1.49409 0.318285
103 2 0.437645 0.328286 6.7877
271 2 5.04561 5.08124 1.22827
269 2 6.17363 2.92323 1.41687
8 4 0.748129 2.50356 16.4514
324 2 0.561218 -0.399603 14.8176
13 4 0.842151 1.65326 11.1931
18 4 -0.410756 3.94219 12.7541
19 4 -1.39307 6.22633 10.9298
28 4 4.31774 1.78086 9.09569
31 4 3.44673 1.95611 14.6464
35 4 1.46179 6.00094 9.96904
11 4 2.57234 -0.372228 12.9509
63 1 3.11791 3.32481 9.3541
64 1 3.84313 2.81882 13.024
67 1 2.29774 5.67476 14.5696
83 2 1.57158 2.16038 9.72625
319 1 -0.89596 3.11119 8.54395
85 2 0.643255 4.70307 13.9142
121 2 2.27526 3.32307 8.60281
110 2 -2.46204 5.76754 8.8194
120 2 2.74222 3.21737 10.4175
200 3 2.34475 6.50325 8.77738
122 2 3.79402 4.20384 9.25867
123 2 2.92798 3.42578 12.8221
124 2 4.19563 2.25644 12.1435
125 2 4.72969 3.47658 13.4569
132 2 2.13965 4.58878 14.8039
133 2 3.39734 5.87482 14.5013
134 2 1.75287 5.93618 13.5134
161 3 -0.588766 2.18144 15.621
162 3 -0.418087 0.771253 10.5392
163 3 1.8268 0.663093 11.9518
168 3 -1.55027 3.08271 13.4087
169 3 0.484004 2.96663 11.8756
170 3 -1.15028 5.19231 12.0163
84 2 1.50264 4.31126 9.79443
184 3 3.14095 0.429679 14.2478
185 3 4.68831 2.26934 15.7912
186 3 1.92082 2.88933 15.4529
187 3 4.91292 1.49226 10.552
135 2 4.54238 4.8752 11.6068
193 3 -0.084366 6.41436 9.89887
198 3 2.15017 6.27248 11.3146
322 2 -1.53481 4.02886 9.02431
321 2 0.136638 3.12282 8.85167
272 2 4.43602 5.22328 16.4408
197 3 0.283338 6.62929 16.1206
336 2 -2.32733 6.47505 15.9498
317 2 2.16972 0.413999 16.9032
1 4 -3.99329 13.9873 2.51752
2 1 -4.63894 12.7036 3.72599
3 2 -4.44893 12.8039 4.83312
114 2 -3.82816 9.60263 5.72248
6 3 -3.40775 13.3172 1.19016
111 2 -2.44949 9.14586 3.38185
20 4 -1.51325 9.88449 1.40681
22 4 -1.27637 9.04356 7.36997
80 2 -3.00114 8.87188 7.83159
39 4 -0.231208 11.6322 3.84406
40 4 3.12258 7.44692 7.67671
42 4 1.73199 10.8821 6.23929
60 1 -2.71842 8.71183 2.37891
61 1 -2.87804 9.84848 6.44894
69 1 0.815084 13.1507 3.19697
70 1 -1.67159 12.4653 4.87113
87 2 1.85694 7.6925 3.98675
88 2 1.8828 8.18025 6.60519
100 2 0.731145 10.3525 7.59164
78 2 -2.45097 14.0129 5.80778
71 1 2.77692 9.52188 7.69764
287 2 2.45529 8.22357 2.21558
115 2 -1.54615 9.92922 5.65886
116 2 -3.06253 10.8526 6.83548
138 2 0.648056 13.1897 2.10659
89 2 3.01006 9.64231 5.84473
140 2 0.451748 14.1077 3.68963
141 2 -1.44759 11.9245 5.86001
142 2 -2.75551 12.5397 4.56124
143 2 -1.1057 13.5136 4.9405
171 3 -0.597757 8.84402 0.622211
172 3 -2.56145 10.8893 0.368826
173 3 -0.770425 7.55521 7.16262
174 3 -4.03583 12.8356 7.83197
4 2 -4.25591 11.7693 3.21867
199 3 -0.819134 10.6965 2.64459
202 3 -0.535535 10.3094 8.38902
203 3 0.47357 13.1057 8.30622
205 3 0.681318 10.8522 4.92237
337 2 -2.83105 8.43007 5.04851
278 1 1.99377 9.12733 2.66533
285 2 1.14505 9.54578 2.05519
286 2 1.81105 9.1123 3.79793
113 2 -3.77591 9.04978 2.06586
16 4 -0.557298 7.32315 0.0107579
112 2 -2.39478 7.64369 2.23491
99 2 -3.33359 8.0318 0.599813
146 2 2.10019 9.8214 8.46683
45 4 2.02841 11.387 11.6625
23 4 -4.46678 11.9323 9.01321
24 4 -2.98229 9.00631 11.8771
25 4 -2.34592 11.8774 11.1935
30 4 0.971076 13.7633 13.2939
37 4 1.69045 7.14596 15.6851
41 4 0.115574 11.8891 9.30929
43 4 2.65998 9.22113 13.6267
44 4 -0.499513 11.9804 15.6135
210 3 -0.185 13.2209 14.2951
72 1 -3.75962 8.62832 13.5123
73 1 -0.80723 10.2978 14.8588
213 3 1.82193 9.94362 12.3167
339 2 -4.95695 13.1978 13.4177
211 3 -1.75462 12.3774 16.5414
147 2 -3.58514 7.48071 14.0482
38 4 3.61176 7.07403 11.7324
149 2 -3.33019 9.36584 14.1809
150 2 0.0932766 9.62305 14.8158
151 2 -1.26991 10.4956 13.7955
152 2 -1.53931 9.85685 15.6011
175 3 -2.2028 7.66641 11.4433
176 3 -4.17809 11.8103 15.7028
177 3 -3.50998 11.5893 10.1829
178 3 -2.05237 10.4501 12.1263
179 3 -2.73202 13.0601 12.2837
209 3 0.850694 11.9417 16.481
196 3 2.90305 7.06767 16.7377
212 3 1.46932 11.3873 10.163
204 3 -0.973048 12.3627 10.2468
207 3 1.64747 8.59221 14.6852
21 4 -3.21952 11.7751 16.9584
81 2 -4.34992 9.26381 10.7325
15 4 11.7275 6.77708 5.25616
46 4 9.53116 2.4145 3.28341
49 4 11.8065 1.79797 5.17194
50 4 10.7779 5.10108 2.85726
51 4 7.31402 6.33406 4.65106
228 3 10.4825 6.86546 6.27101
53 4 10.4446 3.42124 7.51404
54 4 9.25515 6.18202 6.94969
346 2 9.57756 0.549166 0.565217
91 2 9.43467 1.77347 1.67518
94 2 12.172 4.09394 2.66058
95 2 8.21861 5.16806 3.8052
34 4 5.89879 3.51855 7.12071
347 2 7.66424 0.578955 0.901534
297 3 12.1804 1.63115 0.599284
129 2 6.54659 5.76261 8.09908
192 3 7.03044 3.02614 6.10756
215 3 8.46716 1.80754 4.22487
219 3 13.4558 2.54755 4.95575
220 3 10.9314 1.95551 3.8316
221 3 12.084 0.242625 5.59843
222 3 9.29973 4.13866 3.21448
223 3 11.1718 6.28416 3.81237
224 3 5.85558 5.98595 4.49699
225 3 10.5363 5.70487 1.4101
268 1 5.58555 5.34009 0.207389
227 3 11.1331 2.65351 6.3628
226 3 9.65318 2.39059 8.42665
229 3 7.82044 6.3643 6.22003
230 3 9.65959 4.73879 7.21112
216 3 12.8595 0.526778 8.15138
294 4 12.7579 0.581799 1.68701
183 3 7.63621 0.353958 6.34338
296 3 13.9845 1.15289 2.70185
29 4 7.31257 1.60166 5.3259
280 2 5.38314 7.05115 1.19052
279 1 8.69667 0.0255431 1.11093
270 2 6.64422 5.8296 0.314849
52 4 10.2909 7.1427 0.873449
333 2 11.2348 -0.0957184 2.60283
340 2 12.5068 4.10516 0.0359674
10 4 13.4918 1.54659 9.33756
310 2 11.2415 6.53065 15.1238
32 4 6.62407 1.4041 11.1004
48 4 9.23201 1.10026 9.30825
58 1 12.0809 2.22318 10.5559
65 1 7.08928 3.20231 11.4156
68 1 4.97184 5.7965 12.2406
93 2 10.5021 1.07476 10.4537
188 3 6.83135 0.590781 12.5199
106 2 11.9149 1.20751 11.1346
107 2 11.1626 2.70056 10.1039
108 2 12.622 2.97537 11.2131
126 2 8.15638 3.3566 11.7325
127 2 6.37073 3.56101 12.2259
128 2 6.85244 3.74114 10.3184
342 2 11.3732 5.88861 10.2756
136 2 4.82463 5.61119 13.3405
12 4 13.4307 1.81861 14.4478
109 2 12.2299 4.17956 10.0672
96 2 9.33165 6.48066 16.2505
130 2 7.57749 4.28268 8.75628
218 3 7.84759 1.22609 10.1082
243 1 8.04924 6.07114 11.0851
131 2 5.85113 4.56583 9.43483
248 2 7.84039 6.52068 14.8476
256 2 7.49545 5.55115 10.1812
257 2 7.93277 5.42504 12.0214
258 2 9.23251 6.17741 10.6976
298 4 11.2691 2.06562 16.5263
299 4 8.60253 2.9629 15.5838
300 4 9.86256 5.00964 13.6389
301 1 10.1153 3.67984 12.207
302 1 11.579 5.57108 14.5894
303 2 8.45806 1.85152 14.3246
304 2 8.95428 6.30093 12.8087
305 2 9.54177 2.74478 12.467
306 2 11.2491 3.69803 12.3311
307 2 9.73754 4.28816 11.2978
349 2 7.86758 0.562585 15.2132
309 2 11.9182 4.74017 15.2811
137 2 6.17951 5.93546 11.8293
311 3 11.9397 1.58675 15.0294
312 3 9.81116 2.46371 16.5006
313 3 7.15672 3.00105 16.182
314 3 8.92038 4.42491 14.6812
328 1 8.53616 -0.0939242 14.5435
329 2 9.2126 0.410952 13.7876
335 2 13.7334 0.248703 13.8503
267 4 5.75759 2.95951 16.8
66 1 6.53513 4.7173 8.60031
59 1 12.2709 5.38415 9.82382
308 2 12.0694 5.66484 13.5693
97 2 11.6776 4.05299 8.53662
156 2 10.8995 9.12656 3.69041
144 2 3.76062 10.0813 7.90597
55 4 8.44327 8.7436 3.13003
332 2 5.54251 12.3322 1.71216
74 1 7.48296 10.5234 2.81817
75 1 9.82702 9.28722 4.31213
206 3 2.38479 12.2342 6.59541
92 2 4.67512 13.6335 7.58059
47 4 6.1577 14.0261 7.02171
139 2 1.89966 12.944 3.43829
153 2 6.84069 10.7138 1.89491
154 2 8.21551 11.3597 2.94865
155 2 6.76314 10.4242 3.66141
345 2 9.68059 11.1198 0.426286
157 2 9.60051 8.60688 5.21391
158 2 9.48969 10.3797 4.46759
275 4 2.59237 12.8036 0.327662
27 4 1.71964 13.7428 7.50965
232 3 9.30349 8.07134 1.69739
330 1 6.12358 13.1885 2.01243
273 4 4.75054 8.36104 0.286205
274 4 3.52338 10.336 2.22248
250 2 9.02223 9.01219 8.36689
276 4 4.70954 11.6776 4.74794
277 4 7.17667 11.3895 6.09933
331 2 6.7758 12.9752 2.99359
295 2 7.07937 13.393 0.688696
281 2 5.41968 13.0048 3.83309
282 2 3.63573 12.7004 5.52404
283 2 7.93551 11.4468 4.49582
284 2 7.92848 10.0686 6.85864
98 2 9.16148 7.02396 8.45121
289 3 4.53455 9.50991 1.32098
231 3 7.63691 7.60428 3.83483
291 3 4.00492 10.7682 3.6836
292 3 5.61847 10.9255 5.84501
293 3 7.18123 12.7855 6.8294
290 3 2.87593 11.7229 1.45673
338 2 9.91761 10.4333 8.46921
288 2 2.63186 14.3167 2.21257
217 3 2.95856 14.1482 8.40731
5 2 9.31681 12.8951 3.41304
344 2 8.19834 13.2255 13.6824
56 4 4.50368 11.385 15.1951
76 1 5.46956 12.5568 14.1376
86 2 4.32031 7.84251 10.3658
90 2 3.77522 11.5545 11.3527
101 2 5.67324 10.5524 16.0939
254 2 6.22577 8.12263 8.68981
252 2 9.63024 9.76593 9.96509
159 2 5.31137 12.0457 13.1385
160 2 6.60706 12.6961 14.4737
214 3 1.67638 12.6254 12.5221
233 3 3.7055 10.4799 14.2081
234 3 3.54597 12.2568 16.1626
235 4 9.33335 11.4084 15.1394
236 4 6.21391 8.19958 14.8476
237 4 7.85755 8.00486 10.741
238 4 7.65772 10.1653 12.9858
239 4 6.64337 12.5169 10.971
240 1 7.8248 7.44338 15.4731
241 1 9.48342 8.77653 9.36112
242 1 6.19418 8.07221 9.80122
244 1 5.0436 12.0122 10.0541
246 2 6.58853 12.1643 9.14575
247 2 8.67223 8.16503 15.2128
326 2 7.59722 11.1728 16.8756
251 2 10.481 8.16557 9.21816
343 2 7.76007 13.434 15.4694
253 2 5.96548 6.92088 10.2192
323 1 8.61026 13.2916 14.7263
255 2 5.73191 8.95112 10.3238
259 2 4.29014 12.2526 9.37633
260 2 4.89466 13.0289 11.5008
261 2 5.05645 10.9148 10.3974
262 3 5.28848 8.07913 16.1036
263 3 6.60845 9.70507 14.2321
264 3 7.92849 8.84828 12.0725
265 3 9.14249 10.658 13.7782
266 3 7.19993 11.4208 11.9641
245 2 5.64005 7.14286 13.5345
350 2 4.85007 13.4676 14.37
341 2 7.63366 13.9115 10.8159
348 2 2.77801 13.4583 15.1353
145 2 4.04842 8.56363 8.76679
148 2 10.2336 8.87958 13.3122
249 2 7.66873 7.2197 16.6379
327 2 8.14852 9.48249 16.1578
325 1 8.46829 10.5588 16.582
208 3 3.64646 8.04428 12.9448
102 2 9.15085 12.4288 9.55357
ITEM: TIMESTEP
100
ITEM: NUMBER OF ATOMS
350
ITEM: BOX BOUNDS xy xz yz pp pp pp
-6.6437909999999993e+00 1.5085818000000002e+01 -6.2000729999999997e+00
-6.4200000000000002e-01 1.4502800000000001e+01 -4.4371800000000000e-01
0.0000000000000000e+00 1.7008500000000002e+01 -6.4200000000000002e-01
ITEM: ATOMS id type x y z
7 4 -0.762744 2.6767 3.54109
180 3 3.05165 0.526176 3.41098
14 4 0.157685 4.95223 1.74836
17 4 -0.683695 6.1475 6.4348
26 4 4.50782 1.45727 3.65352
318 2 0.914161 0.688173 0.236724
33 4 1.53116 6.06305 4.26291
319 1 -1.00459 3.18434 8.42088
36 4 4.45014 5.56789 5.43603
57 1 1.30001 0.722216 6.73767
62 1 4.74592 3.01804 2.55326
77 2 0.872965 2.95407 3.94507
201 3 4.13172 6.81362 6.47748
79 2 -0.507005 4.96376 7.7118
82 2 4.53415 1.89571 1.56729
181 3 3.45848 0.650254 8.44677
104 2 1.52312 0.704915 5.62558
105 2 1.35984 1.75238 7.19499
117 2 3.85887 3.00242 4.2715
118 2 4.17089 3.87349 2.14184
119 2 5.86384 3.24678 2.74217
164 3 -1.23226 3.78339 2.41608
165 3 1.09837 4.08905 0.721525
166 3 -0.538727 6.25542 1.13311
167 3 -2.09174 5.82221 5.72909
182 3 5.86141 1.0223 4.34767
320 2 -1.09129 3.20421 7.23869
189 3 1.08049 5.24463 3.0028
190 3 0.528349 6.01651 5.46283
191 3 5.49061 2.24326 8.15481
194 3 3.01398 5.41492 4.67921
195 3 4.61038 4.124 6.42312
334 2 0.850302 0.677069 1.91225
316 2 2.01783 1.79844 1.30506
315 1 1.83586 1.36315 0.308784
103 2 0.388215 0.138449 7.00305
269 2 6.20392 2.70012 1.21665
121 2 2.45863 3.01966 8.47267
272 2 4.63394 5.67891 0.0780557
8 4 0.735838 2.39521 16.4579
324 2 0.374712 -0.354997 14.9882
13 4 0.848248 1.62484 11.1083
18 4 -0.449495 3.85614 12.8298
19 4 -1.41961 6.22258 10.8256
28 4 4.49256 1.65282 9.17481
31 4 3.36834 1.9707 14.6747
35 4 1.42755 5.88875 9.96007
11 4 2.50746 -0.338909 12.9558
63 1 3.27504 3.20866 9.24908
64 1 3.79642 3.07145 13.197
67 1 2.30004 5.48793 14.4187
83 2 1.71024 2.06312 9.63821
336 2 -2.12975 6.19289 15.9676
85 2 0.526924 4.5291 14.0392
308 2 -2.63026 6.4627 14.0328
110 2 -2.50615 5.52497 8.81874
120 2 2.98303 3.13216 10.3769
200 3 2.16891 6.54276 8.74591
122 2 3.9393 4.12335 8.98458
123 2 2.82821 3.53237 12.936
124 2 4.20689 2.43142 12.3063
125 2 4.53475 3.76757 13.5624
132 2 2.01297 4.47078 15.0538
133 2 3.4354 5.70521 14.4035
134 2 1.82046 5.53725 13.3163
161 3 -0.644514 2.01753 15.8251
162 3 -0.389491 0.72481 10.5797
163 3 1.83293 0.621283 11.9749
168 3 -1.66754 3.11419 13.52
169 3 0.431427 2.89742 11.8963
170 3 -1.05694 5.10414 11.9159
84 2 1.56977 4.20417 9.78142
184 3 3.13511 0.467155 14.169
185 3 4.59746 2.29051 15.7123
186 3 1.79901 2.77539 15.3964
187 3 5.07837 1.42713 10.6362
135 2 4.52161 4.90198 11.5634
193 3 -0.142463 6.32074 9.84331
198 3 2.22866 6.31921 11.2238
322 2 -1.59592 3.95898 8.98824
321 2 0.125841 3.08671 8.77924
317 2 2.33723 0.261897 16.8055
197 3 0.436472 6.50782 16.1948
1 4 -4.12494 14.0786 2.55792
2 1 -4.62947 12.7318 3.73653
3 2 -4.3757 12.6697 4.78914
114 2 -3.79726 9.65761 5.72075
6 3 -3.59333 13.2734 1.27779
111 2 -2.31924 9.05718 3.38606
20 4 -1.65061 10.0002 1.32398
22 4 -1.39361 9.1309 7.43423
80 2 -3.08692 8.80533 8.04775
39 4 -0.311394 11.6568 3.77536
40 4 2.93902 7.40399 7.59811
42 4 1.86569 10.9702 6.10715
60 1 -2.66324 8.67694 2.34703
61 1 -2.84645 9.81928 6.4848
69 1 0.477503 13.1508 2.94332
70 1 -1.65385 12.4094 4.91805
87 2 1.57756 7.6975 3.82538
88 2 1.68583 8.15739 6.45763
100 2 0.65946 10.5863 7.47676
78 2 -2.41965 13.849 6.02514
71 1 2.3593 9.44575 7.6244
287 2 2.5143 8.20092 2.24715
115 2 -1.54887 9.79976 5.52077
116 2 -3.03297 10.769 7.08639
138 2 0.152924 13.2445 1.86388
21 4 -2.84492 12.3655 0.0395521
140 2 0.141731 14.1189 3.60265
141 2 -1.80782 11.8367 5.85192
142 2 -2.70395 12.7422 4.44452
143 2 -1.01622 13.3823 5.05309
171 3 -0.864264 8.8221 0.487261
172 3 -2.73009 10.8453 0.480881
173 3 -0.802919 7.6914 7.06234
174 3 -4.07802 12.7375 7.86484
4 2 -4.35364 11.8113 3.28604
199 3 -0.983709 10.8464 2.59446
202 3 -0.386255 10.4628 8.46724
203 3 0.502561 13.1261 8.22885
205 3 0.792277 10.8654 4.76023
337 2 -2.7135 8.43711 5.09505
278 1 1.83276 9.12426 2.51018
285 2 1.06657 9.40489 1.76006
286 2 1.57254 9.2323 3.59597
139 2 1.59217 12.802 3.08494
9 4 -3.48307 14.1744 7.38373
112 2 -2.36956 7.55918 2.06599
113 2 -3.76579 8.92552 2.13081
45 4 2.03016 11.3676 11.5643
23 4 -4.60205 11.909 9.01314
24 4 -2.86208 9.00847 11.7835
25 4 -2.29898 11.9931 11.1733
30 4 0.957552 13.7229 13.4433
37 4 1.80581 6.946 15.5649
41 4 0.160089 12.0338 9.33894
43 4 2.54132 9.22763 13.6343
44 4 -0.53788 12.1044 15.6049
210 3 -0.289503 13.1723 14.4316
72 1 -3.92642 8.50935 13.2349
73 1 -0.824557 10.417 14.724
213 3 1.69367 9.96917 12.2644
339 2 -5.03288 13.3607 13.6274
211 3 -1.82398 12.4203 16.5754
214 3 1.548 12.5856 12.5143
38 4 3.56712 7.0376 11.6905
149 2 -3.64748 9.32785 13.9451
150 2 0.17377 9.80257 14.7463
151 2 -1.29589 10.4667 13.7001
152 2 -1.6021 9.97001 15.4465
175 3 -2.05089 7.62333 11.272
176 3 -4.19179 11.7665 15.7244
177 3 -3.49539 11.6713 10.0977
178 3 -2.09195 10.3432 12.0707
179 3 -2.77209 13.1357 12.1521
209 3 0.86096 11.9254 16.569
196 3 2.84003 7.15011 16.7003
212 3 1.68444 11.5431 9.99705
204 3 -0.836561 12.4457 10.4673
207 3 1.52726 8.54361 14.6341
147 2 -3.65948 7.48598 13.6617
81 2 -4.3144 9.37365 10.8553
208 3 3.49917 8.09808 12.8146
16 4 -0.911188 6.71841 16.9783
146 2 1.58122 9.51015 8.54053
15 4 11.8023 6.8255 5.26348
46 4 9.58123 2.48359 3.43004
49 4 11.9638 1.90362 5.18288
50 4 10.8656 5.22392 2.76323
51 4 7.33113 6.33842 4.81065
228 3 10.6292 6.9368 6.4074
53 4 10.3079 3.43236 7.48697
54 4 9.33823 6.27066 7.01392
346 2 9.44092 0.480111 0.507563
91 2 9.31269 1.77806 1.83908
94 2 12.3297 4.37398 2.51407
95 2 8.31355 5.14459 4.09659
34 4 5.93656 3.4926 7.11192
347 2 7.52579 0.360385 1.07959
297 3 12.0275 1.71822 0.761997
129 2 6.67296 5.66087 7.87285
192 3 7.0761 3.00065 6.0714
215 3 8.35919 1.81327 4.18767
219 3 13.4081 2.64435 4.94551
220 3 11.0156 1.93148 3.8212
221 3 12.2141 0.21388 5.72685
222 3 9.57061 4.17314 3.46517
223 3 11.1959 6.3608 3.83517
224 3 5.84577 5.82599 4.66944
225 3 10.4948 5.81114 1.37047
268 1 5.6863 5.22052 0.137233
227 3 11.1421 2.66402 6.37898
226 3 9.57786 2.38329 8.47061
229 3 7.95363 6.63224 6.25272
230 3 9.5412 4.72184 7.20944
216 3 12.9917 0.577169 8.19886
294 4 12.8995 0.665797 1.75512
183 3 7.62164 0.394231 6.43347
296 3 14.0489 1.21101 2.66056
29 4 7.34633 1.53043 5.36659
280 2 5.42615 7.01905 0.9793
279 1 8.66588 -0.0320122 1.19396
271 2 6.06546 5.08428 1.27282
52 4 10.1332 7.2073 0.739273
288 2 9.03404 -0.066989 2.23873
97 2 11.4734 4.18335 8.47298
10 4 13.5477 1.59373 9.34396
310 2 11.4949 5.89173 15.5714
32 4 6.76943 1.52292 11.2108
48 4 9.31928 1.05763 9.30786
58 1 12.1861 2.13489 10.6718
65 1 7.16433 3.35788 11.4879
68 1 4.95098 5.77397 12.1146
93 2 10.6096 0.918939 10.4126
270 2 6.04279 5.16604 16.4738
106 2 11.9539 1.18072 11.2399
107 2 11.263 2.61161 10.097
108 2 12.6568 2.93025 11.4015
126 2 8.28191 3.44569 11.8376
127 2 6.41405 3.62177 12.2886
128 2 6.98304 3.89114 10.3876
342 2 11.3517 5.93631 10.2125
136 2 4.91154 5.58129 13.2445
12 4 13.454 1.81375 14.5633
109 2 12.248 4.12781 10.2034
96 2 9.23738 6.2411 16.0876
130 2 7.66986 4.24359 8.76366
218 3 8.01843 1.22835 10.2092
243 1 8.02537 6.07066 11.1476
131 2 5.83387 4.83894 9.40442
248 2 7.77846 6.37463 14.9976
256 2 7.49578 5.54682 10.1942
257 2 7.86878 5.53523 12.0743
258 2 9.19892 6.23973 10.8936
298 4 11.3121 2.14559 16.6227
299 4 8.68625 2.91784 15.3699
300 4 10.011 5.13312 13.5677
301 1 10.2169 3.73585 12.2695
302 1 11.7444 5.6461 14.5104
303 2 8.57636 1.74091 14.0917
304 2 9.24714 6.40874 12.7273
305 2 9.8183 2.69437 12.5182
306 2 11.4215 3.75852 12.3968
307 2 9.85982 4.11315 11.2591
349 2 8.05826 0.55365 15.2874
309 2 12.1494 4.55246 14.3105
137 2 6.06242 5.93943 11.7476
311 3 11.8462 1.62663 15.2275
312 3 9.84647 2.5633 16.3827
313 3 7.25598 2.97557 16.0086
314 3 9.0781 4.41826 14.5733
328 1 8.57281 -0.168914 14.592
329 2 9.35494 0.328987 13.9442
335 2 14.0951 0.460381 13.7689
267 4 5.7894 2.86395 16.6687
66 1 6.65579 4.72916 8.54421
59 1 12.2697 5.31596 9.88915
188 3 6.7798 0.553487 12.607
340 2 12.0693 3.65131 17.0079
156 2 10.9427 9.22626 3.5431
144 2 3.21725 10.0651 7.91235
55 4 8.50203 8.79925 3.10402
332 2 5.78055 12.2506 1.62422
74 1 7.4921 10.5599 2.80858
75 1 9.88702 9.47823 4.18368
206 3 2.46452 12.3497 6.36176
92 2 4.87626 13.5433 7.6097
47 4 6.30019 14.0891 7.06795
5 2 9.25996 13.0955 3.59681
153 2 7.13927 10.2485 1.80818
154 2 7.94009 11.5878 2.59649
155 2 6.6066 10.5365 3.5001
345 2 9.64466 11.0439 0.392898
157 2 9.77487 8.73859 5.12791
158 2 9.60171 10.582 4.31997
275 4 2.66326 12.7543 0.364443
27 4 1.7812 13.7527 7.43595
232 3 9.07258 8.06512 1.45913
330 1 6.38039 13.1836 2.00346
273 4 4.65663 8.32085 0.2293
274 4 3.38753 10.3322 2.25614
250 2 8.95596 8.87321 8.41285
276 4 4.78281 11.7644 4.68314
277 4 7.03505 11.2702 6.16926
331 2 7.26992 12.8894 2.66094
295 2 7.30403 13.578 0.671723
281 2 5.74836 12.9154 3.77825
282 2 3.70008 12.9212 5.23808
283 2 7.88343 11.199 4.61188
284 2 7.84279 10.0991 7.20372
89 2 3.20356 9.77235 5.93978
289 3 4.55145 9.45482 1.35288
231 3 7.68976 7.7174 3.94743
291 3 3.94831 10.786 3.70717
292 3 5.4999 11.063 5.87847
293 3 7.22775 12.6903 6.95881
290 3 2.85178 11.6814 1.5536
217 3 3.19431 14.1426 8.39988
338 2 9.99689 10.3831 8.48494
99 2 11.567 8.11067 0.624087
333 2 5.33614 14.3001 2.78464
344 2 8.09451 13.3089 13.7258
56 4 4.46131 11.363 15.3548
76 1 5.32351 12.5873 14.2543
86 2 4.45316 7.66018 10.254
90 2 3.74966 11.5248 11.463
101 2 5.64405 10.5111 16.2747
254 2 6.18051 8.74767 8.69377
252 2 9.54438 9.79534 9.9743
159 2 5.09183 12.0597 13.2766
160 2 6.51645 12.8327 14.5209
102 2 9.10585 12.5844 9.63981
233 3 3.47259 10.3361 14.4269
234 3 3.66175 12.3557 16.3082
235 4 9.32229 11.4361 15.1768
236 4 6.1827 8.1004 14.7097
237 4 7.80115 7.9726 10.7431
238 4 7.73533 10.0875 13.0304
239 4 6.72282 12.3923 11.0837
240 1 7.88122 7.49592 15.397
241 1 9.47778 8.77419 9.4543
242 1 6.23659 8.27933 9.69723
244 1 5.12175 11.9077 10.0299
246 2 6.51451 11.8552 9.21256
247 2 8.69988 8.0535 14.8256
326 2 7.56516 11.4377 16.6223
251 2 10.437 8.25176 9.4578
343 2 7.6555 13.4706 15.6179
253 2 5.97528 7.11451 9.69828
323 1 8.46033 13.3506 14.8222
255 2 5.73603 8.89579 10.567
259 2 4.22847 12.1541 9.24949
260 2 5.03464 13.0156 11.3084
261 2 4.91436 10.8607 10.4371
262 3 5.21793 7.92765 15.9421
263 3 6.6409 9.5771 14.2761
264 3 7.94697 8.71368 12.117
265 3 9.14166 10.5883 13.8279
266 3 7.10467 11.246 12.1126
245 2 5.70674 7.10645 13.3512
350 2 4.70371 13.5519 14.3494
341 2 7.67199 13.8075 11.08
348 2 2.87243 13.5118 15.2594
145 2 3.68999 8.55745 8.69696
148 2 10.1264 8.56505 12.8123
249 2 8.02934 7.58992 16.5158
327 2 8.0915 9.42548 16.1666
325 1 8.46231 10.4983 16.5243
98 2 9.15603 6.97477 8.61096
ITEM: TIMESTEP
200
ITEM: NUMBER OF ATOMS
350
ITEM: BOX BOUNDS xy xz yz pp pp pp
-6.6437909999999993e+00 1.5085818000000002e+01 -6.2000729999999997e+00
-6.4200000000000002e-01 1.4502800000000001e+01 -4.4371800000000000e-01
0.0000000000000000e+00 1.7008500000000002e+01 -6.4200000000000002e-01
ITEM: ATOMS id type x y z
7 4 -0.763589 2.78239 3.43281
180 3 3.22848 0.439056 3.40196
14 4 0.185398 5.09374 1.77571
17 4 -0.663892 6.13358 6.47408
26 4 4.44173 1.50062 3.73907
318 2 0.976441 0.709674 0.122037
33 4 1.58205 6.07679 4.28047
319 1 -0.884032 3.21799 8.43461
36 4 4.36446 5.5593 5.62708
57 1 1.175 0.604915 6.75515
62 1 4.8338 3.00964 2.50652
77 2 0.913352 2.9296 3.85316
201 3 4.12058 6.76059 6.67851
79 2 -0.40722 5.07584 7.80168
82 2 5.0923 1.64748 1.78892
272 2 4.75792 5.59677 0.0907948
104 2 1.37536 0.644727 5.61805
105 2 1.05298 1.5968 7.21816
117 2 3.90729 3.14362 4.12649
118 2 4.28934 3.7549 1.85206
119 2 5.80448 3.41552 2.90949
164 3 -1.28486 3.9888 2.46598
165 3 0.951706 4.11853 0.640224
166 3 -0.516664 6.36006 1.25908
167 3 -2.09728 5.75008 5.8888
182 3 5.67097 1.07212 4.61941
320 2 -0.948497 3.22007 7.34286
189 3 1.11238 5.28157 3.01635
190 3 0.55333 6.11185 5.50642
191 3 5.48611 2.07613 8.11252
194 3 3.07679 5.41111 4.69491
195 3 4.58623 4.09511 6.50158
334 2 1.15759 0.630457 1.84049
316 2 2.11799 1.8608 1.20449
315 1 1.90613 1.38965 0.201307
103 2 0.235816 -0.0869683 7.0296
269 2 6.28152 2.72576 1.16435
200 3 2.13105 6.37856 8.46905
8 4 0.765286 2.39719 16.4094
181 3 3.50904 0.579463 8.56519
13 4 0.899064 1.57384 11.0922
18 4 -0.39283 3.859 12.8428
19 4 -1.35987 6.08608 10.8501
28 4 4.45342 1.70442 9.2022
31 4 3.46157 2.02569 14.5082
35 4 1.47163 5.8559 9.81686
11 4 2.45118 -0.359055 12.9824
63 1 3.40244 3.35558 9.4764
64 1 3.98293 2.87207 12.9746
67 1 2.38612 5.55106 14.4784
83 2 1.75835 2.26772 9.81801
336 2 -2.40484 6.30059 16.0807
85 2 0.579168 4.68821 13.9117
308 2 -2.58273 6.02886 13.4636
110 2 -2.28266 5.61245 8.73966
120 2 2.96247 3.31611 10.5055
121 2 2.62921 3.17772 8.63615
122 2 4.01722 4.31684 9.31938
123 2 3.01381 3.46222 12.716
124 2 4.39841 2.2514 12.0686
125 2 4.78794 3.55422 13.4122
132 2 2.15884 4.4533 14.8468
133 2 3.53246 5.73719 14.5
134 2 1.91135 5.80999 13.4952
161 3 -0.673179 1.86695 15.8897
162 3 -0.289397 0.672717 10.4537
163 3 1.90937 0.711877 11.8911
168 3 -1.38746 2.97935 13.6906
169 3 0.36663 2.88188 11.8714
170 3 -1.14407 5.00754 12.0743
84 2 1.6067 4.17598 9.78979
184 3 3.1664 0.481007 14.1321
185 3 4.54507 2.33962 15.7373
186 3 1.83312 2.80601 15.2811
187 3 5.12713 1.47037 10.6527
135 2 4.62618 4.9812 11.4065
193 3 -0.112768 6.11324 9.81538
198 3 2.32951 6.3611 11.0045
322 2 -1.50477 4.11542 8.93131
321 2 0.18864 3.10635 8.85515
317 2 2.33632 0.386893 16.6279
197 3 0.259266 6.42965 16.024
1 4 -4.01202 13.9693 2.65849
2 1 -4.7763 12.8055 3.89355
3 2 -4.51201 12.8191 5.00993
114 2 -3.69682 9.74298 5.57741
6 3 -3.42261 13.1004 1.43599
111 2 -2.40387 9.03412 3.27552
20 4 -1.65837 9.84324 1.22035
22 4 -1.28348 9.18699 7.32575
80 2 -3.06572 9.27786 7.83947
39 4 -0.332133 11.6563 3.67405
40 4 2.83038 7.41684 7.5537
42 4 1.70247 11.0796 5.99034
60 1 -2.82694 8.62483 2.30116
61 1 -2.84706 9.96236 6.334
69 1 0.328825 13.2996 2.92975
70 1 -1.79898 12.4293 4.79282
87 2 1.78942 7.6842 3.84375
88 2 1.68481 8.33683 6.52367
100 2 0.612114 10.8423 7.38164
78 2 -2.4986 13.8501 5.99752
71 1 2.53041 9.64975 7.60034
287 2 2.18221 7.98649 2.11352
115 2 -1.35825 9.8583 5.63247
116 2 -2.94218 11.0036 6.54788
138 2 -0.0447241 13.3966 1.87328
21 4 -2.82257 12.3208 0.0691923
140 2 0.071789 14.2648 3.56259
141 2 -1.67428 11.7984 5.75284
142 2 -2.88664 12.5484 4.44611
143 2 -1.18286 13.3909 4.86827
171 3 -0.589232 8.86197 0.374918
172 3 -2.6874 10.741 0.448706
173 3 -0.848222 7.6436 7.22343
174 3 -4.13072 12.7802 7.78642
4 2 -4.7891 11.8249 3.24014
199 3 -0.882977 10.7469 2.46652
202 3 -0.441629 10.6335 8.33877
203 3 0.586835 13.1847 8.21835
205 3 0.745912 11.088 4.70163
337 2 -2.53624 8.31613 5.28675
278 1 1.94 9.00727 2.39287
285 2 1.08505 9.4415 1.80057
286 2 1.90647 9.30123 3.49886
139 2 1.43548 12.9475 3.02844
9 4 -3.53981 14.1464 7.35737
112 2 -2.73789 7.52241 2.28657
146 2 1.58485 9.69284 8.09259
89 2 2.81741 9.59152 5.82439
113 2 -3.83821 9.02912 2.03149
208 3 3.43778 7.89082 12.9671
23 4 -4.55973 11.93 9.07494
24 4 -2.76384 9.0949 11.7362
25 4 -2.26053 11.9973 11.225
30 4 0.8816 13.8602 13.4775
37 4 1.72381 7.01748 15.5512
41 4 0.21294 12.1231 9.33324
43 4 2.52549 9.2327 13.5622
44 4 -0.535805 12.0128 15.6967
210 3 -0.179148 13.0709 14.4513
72 1 -3.99702 8.67448 13.1138
73 1 -0.947417 10.3242 14.8944
213 3 1.91319 10.1565 12.3173
339 2 -5.11368 13.4394 13.6381
211 3 -1.83537 12.3088 16.6109
324 2 -5.82757 13.8908 15.0635
38 4 3.56197 7.13576 11.6427
149 2 -3.71505 9.4182 13.9138
150 2 -0.0755212 9.60836 14.8396
151 2 -1.4176 10.5438 13.8575
152 2 -1.74001 9.94056 15.5717
175 3 -2.05463 7.68306 11.3983
176 3 -4.32165 11.9508 15.8025
177 3 -3.42352 11.5704 10.0882
178 3 -1.92484 10.4302 12.0223
179 3 -2.8963 12.9984 12.2458
209 3 0.708506 12.1086 16.7086
196 3 2.86008 7.20662 16.645
212 3 1.57196 11.5783 10.1394
204 3 -0.913781 12.4378 10.3209
207 3 1.33472 8.52198 14.5229
16 4 -1.01579 6.67805 16.9838
81 2 -4.22539 9.4402 10.779
310 2 -3.52901 6.82197 14.8172
15 4 11.8271 6.74853 5.34694
46 4 9.65247 2.42274 3.48688
49 4 11.9019 1.92259 5.3105
50 4 10.8334 5.16801 2.81523
51 4 7.36269 6.42768 4.8114
228 3 10.5987 6.85038 6.42209
53 4 10.3685 3.41627 7.58855
54 4 9.31041 6.19442 7.00731
346 2 9.91956 0.358891 0.642193
91 2 9.65661 1.90068 1.83823
94 2 12.2193 4.13928 2.69647
95 2 8.31572 5.15613 4.11277
34 4 5.92571 3.38627 7.13615
347 2 8.16804 0.739256 1.09107
297 3 11.965 1.55499 0.770216
129 2 6.81275 5.56072 7.78392
192 3 6.99931 2.95152 6.00393
215 3 8.46637 1.71245 4.1954
219 3 13.504 2.69026 4.81783
220 3 11.0578 1.85924 3.9034
221 3 12.2597 0.374929 5.81075
222 3 9.56761 4.21197 3.4158
223 3 11.2983 6.31889 3.88309
224 3 5.91476 5.89928 4.82278
225 3 10.3931 5.77515 1.39513
268 1 5.83572 5.2502 0.198441
227 3 11.1152 2.76981 6.44883
226 3 9.5488 2.33138 8.40049
229 3 7.92888 6.74495 6.26491
230 3 9.46592 4.65866 7.28085
216 3 13.0457 0.633116 8.25351
294 4 12.8075 0.679856 1.72183
183 3 7.67004 0.35509 6.28248
296 3 14.2524 1.4347 2.64042
29 4 7.28147 1.47522 5.27451
280 2 5.23448 6.90952 1.06208
279 1 8.97432 0.0672936 1.28774
271 2 6.21949 5.09243 1.27721
340 2 12.5766 4.0456 0.216301
52 4 10.0944 7.18996 0.882196
97 2 11.7297 4.06393 8.44708
10 4 13.5813 1.5962 9.27225
66 1 6.70554 4.67609 8.50762
32 4 6.8148 1.41764 11.2884
48 4 9.27336 0.978969 9.22794
58 1 12.1896 2.19084 10.5614
65 1 7.28572 3.27248 11.3343
68 1 4.9983 5.88372 11.9682
93 2 10.6836 0.872234 10.1639
270 2 6.09454 5.12089 16.4021
106 2 11.8896 1.22364 11.2331
107 2 11.3283 2.5551 9.96776
108 2 12.732 3.01981 11.1901
126 2 8.48604 3.44891 11.6506
127 2 6.66118 3.6355 12.1817
128 2 7.05509 3.79354 10.3131
342 2 11.3833 5.99594 10.0762
136 2 4.78825 5.66757 13.0909
12 4 13.4454 1.78878 14.663
109 2 12.1868 4.15068 10.131
96 2 9.1646 6.24247 16.3223
130 2 7.69919 4.2421 8.79467
218 3 7.96966 0.965 10.3127
243 1 8.1022 6.1141 11.1248
131 2 6.07797 4.84334 9.34284
248 2 7.72992 6.40645 14.7868
256 2 7.58747 5.4678 10.1297
257 2 7.75649 5.68268 12.1619
258 2 9.30652 6.16837 10.9442
298 4 11.1975 2.06993 16.6821
299 4 8.6822 2.92752 15.4015
300 4 10.0678 5.08945 13.5262
301 1 10.4111 3.93457 12.1187
302 1 11.7981 5.85771 14.3173
303 2 8.64759 1.65352 14.2787
304 2 9.30159 6.45208 12.7266
305 2 10.0654 2.86233 12.2548
306 2 11.6478 4.08589 12.2213
307 2 9.9683 4.4455 11.2438
349 2 8.07088 0.372344 15.3398
188 3 6.95246 0.815207 12.7851
137 2 6.18838 6.05821 11.7504
311 3 11.762 1.59586 15.2499
312 3 9.61422 2.54146 16.5378
313 3 7.24581 2.99404 15.9164
314 3 9.05332 4.35136 14.6061
328 1 8.63672 -0.297068 14.6311
329 2 9.46459 0.229394 14.0347
335 2 13.6518 0.276406 13.8697
267 4 5.82156 2.87715 16.6344
309 2 12.1044 5.05546 15.0482
59 1 12.3024 5.36705 9.82269
288 2 2.94491 14.3247 2.41757
144 2 3.23595 10.4396 8.05238
55 4 8.39117 8.7811 3.10232
332 2 5.6982 12.4675 1.59775
74 1 7.26347 10.406 3.02499
75 1 9.84629 9.24406 4.32969
206 3 2.50584 12.319 6.26955
92 2 4.75012 13.6243 7.60227
47 4 6.26968 14.0755 7.07035
5 2 9.19202 13.373 3.73466
153 2 6.95406 10.1208 1.94134
154 2 7.53632 11.5421 3.20577
155 2 6.41665 10.1283 3.79035
345 2 9.6246 10.7595 0.603421
157 2 9.62048 8.63648 5.31232