ITEM: TIMESTEP
0
ITEM: NUMBER OF ATOMS
350
ITEM: BOX BOUNDS xy xz yz pp pp pp
-6.8559279999999996e+00 1.5238200000000001e+01 -6.4077279999999996e+00
-6.4200000000000002e-01 1.4502800000000001e+01 -4.4819999999999999e-01
0.0000000000000000e+00 1.7008500000000002e+01 -6.4200000000000002e-01
ITEM: ATOMS id type x y z
7 4 -0.894024 2.57643 3.53103
180 3 3.39085 0.364842 3.31548
14 4 -0.0420695 4.96588 1.8811
17 4 -0.713345 6.08822 6.41842
26 4 4.59831 1.43259 3.50131
318 2 0.796606 0.936741 0.121661
33 4 1.65311 5.99197 4.28636
9 4 2.78036 -0.269371 7.26265
36 4 4.52411 5.65276 5.45878
57 1 1.38716 0.856422 6.60227
62 1 4.59759 3.14643 2.50079
77 2 0.708141 2.58898 3.92147
201 3 4.09362 6.83926 6.63898
79 2 -0.587996 4.9055 7.66473
82 2 5.07844 1.58433 1.73915
181 3 3.50941 0.588184 8.43716
104 2 1.72302 0.893652 5.50814
105 2 1.46268 1.85557 7.14463
117 2 3.59303 3.10413 3.84539
118 2 3.96082 3.83504 1.7786
119 2 5.53915 3.66626 2.87749
164 3 -1.39146 3.83636 2.6436
165 3 0.86258 4.09886 0.705157
166 3 -0.83595 6.20963 1.18219
167 3 -2.12274 6.03785 5.61685
182 3 5.85295 1.14793 4.49814
320 2 -1.11789 2.98277 7.38939
189 3 0.946542 5.34299 3.0678
190 3 0.69998 5.91362 5.55134
191 3 5.3995 2.37223 8.09758
194 3 3.26049 5.50055 4.44735
195 3 4.73804 4.321 6.36451
334 2 1.01037 0.544246 1.93267
316 2 1.94061 1.99681 1.33433
315 1 1.73726 1.49409 0.318285
103 2 0.436221 0.328286 6.7877
271 2 5.0453 5.08124 1.22827
269 2 6.20623 2.92323 1.41687
8 4 0.724441 2.50356 16.4514
324 2 0.56529 -0.399603 14.8176
13 4 0.8299 1.65326 11.1931
18 4 -0.459141 3.94219 12.7541
19 4 -1.47353 6.22633 10.9298
28 4 4.34011 1.78086 9.09569
31 4 3.45645 1.95611 14.6464
35 4 1.41278 6.00094 9.96904
11 4 2.59715 -0.372228 12.9509
63 1 3.11262 3.32481 9.3541
64 1 3.84884 2.81882 13.024
67 1 2.2587 5.67476 14.5696
83 2 1.56218 2.16038 9.72625
319 1 -0.939347 3.11119 8.54395
85 2 0.597469 4.70307 13.9142
121 2 2.26176 3.32307 8.60281
110 2 -2.54791 5.76754 8.8194
120 2 2.73382 3.21737 10.4175
200 3 2.30009 6.50325 8.77738
122 2 3.78681 4.20384 9.25867
123 2 2.91845 3.42578 12.8221
124 2 4.21086 2.25644 12.1435
125 2 4.73762 3.47658 13.4569
132 2 2.10979 4.58878 14.8039
133 2 3.36744 5.87482 14.5013
134 2 1.70611 5.93618 13.5134
161 3 -0.622424 2.18144 15.621
162 3 -0.434 0.771253 10.5392
163 3 1.83411 0.663093 11.9518
168 3 -1.60181 3.08271 13.4087
169 3 0.454744 2.96663 11.8756
170 3 -1.21835 5.19231 12.0163
84 2 1.47101 4.31126 9.79443
184 3 3.163 0.429679 14.2478
185 3 4.70701 2.26934 15.7912
186 3 1.90549 2.88933 15.4529
187 3 4.94364 1.49226 10.552
135 2 4.53513 4.8752 11.6068
193 3 -0.153098 6.41436 9.89887
198 3 2.1049 6.27248 11.3146
322 2 -1.594 4.02886 9.02431
321 2 0.103449 3.12282 8.85167
272 2 4.42239 5.22328 16.4408
197 3 0.213823 6.62929 16.1206
336 2 -2.42161 6.47505 15.9498
317 2 2.18112 0.413999 16.9032
1 4 -4.17445 13.9873 2.51752
2 1 -4.81424 12.7036 3.72599
3 2 -4.62374 12.8039 4.83312
114 2 -3.96502 9.60263 5.72248
6 3 -3.57579 13.3172 1.19016
111 2 -2.56697 9.14586 3.38185
20 4 -1.62791 9.88449 1.40681
22 4 -1.38248 9.04356 7.36997
80 2 -3.12313 8.87188 7.83159
39 4 -0.351317 11.6322 3.84406
40 4 3.07676 7.44692 7.67671
42 4 1.63831 10.8821 6.23929
60 1 -2.8339 8.71183 2.37891
61 1 -3.00803 9.84848 6.44894
69 1 0.690603 13.1507 3.19697
70 1 -1.81496 12.4653 4.87113
87 2 1.79727 7.6925 3.98675
88 2 1.81752 8.18025 6.60519
100 2 0.632139 10.3525 7.59164
78 2 -2.61805 14.0129 5.80778
71 1 2.70684 9.52188 7.69764
287 2 2.39702 8.22357 2.21558
115 2 -1.6632 9.92922 5.65886
116 2 -3.20457 10.8526 6.83548
138 2 0.521909 13.1897 2.10659
89 2 2.94184 9.64231 5.84473
140 2 0.313842 14.1077 3.68963
141 2 -1.58367 11.9245 5.86001
142 2 -2.91046 12.5397 4.56124
143 2 -1.25388 13.5136 4.9405
171 3 -0.69247 8.84402 0.622211
172 3 -2.69636 10.8893 0.368826
173 3 -0.856463 7.55521 7.16262
174 3 -4.20791 12.8356 7.83197
4 2 -4.41781 11.7693 3.21867
199 3 -0.93537 10.6965 2.64459
202 3 -0.647205 10.3094 8.38902
203 3 0.344161 13.1057 8.30622
205 3 0.57782 10.8522 4.92237
337 2 -2.94585 8.43007 5.04851
278 1 1.92163 9.12733 2.66533
285 2 1.06038 9.54578 2.05519
286 2 1.73679 9.1123 3.79793
113 2 -3.90533 9.04978 2.06586
16 4 -0.636163 7.32315 0.0107579
112 2 -2.49625 7.64369 2.23491
99 2 -3.4478 8.0318 0.599813
146 2 2.01999 9.8214 8.46683
45 4 1.93063 11.387 11.6625
23 4 -4.63462 11.9323 9.01321
24 4 -3.10696 9.00631 11.8771
25 4 -2.49262 11.8774 11.1935
30 4 0.838234 13.7633 13.2939
37 4 1.63014 7.14596 15.6851
41 4 -0.00566335 11.8891 9.30929
43 4 2.5895 9.22113 13.6267
44 4 -0.630256 11.9804 15.6135
210 3 -0.324474 13.2209 14.2951
72 1 -3.88898 8.62832 13.5123
73 1 -0.92397 10.2978 14.8588
213 3 1.73625 9.94362 12.3167
339 2 -5.14406 13.1978 13.4177
211 3 -1.90236 12.3774 16.5414
147 2 -3.70146 7.48071 14.0482
38 4 3.57308 7.07403 11.7324
149 2 -3.46284 9.36584 14.1809
150 2 -0.0076041 9.62305 14.8158
151 2 -1.3929 10.4956 13.7955
152 2 -1.65931 9.85685 15.6011
175 3 -2.30603 7.66641 11.4433
176 3 -4.34432 11.8103 15.7028
177 3 -3.66517 11.5893 10.1829
178 3 -2.18218 10.4501 12.1263
179 3 -2.89486 13.0601 12.2837
209 3 0.733649 11.9417 16.481
196 3 2.85538 7.06767 16.7377
212 3 1.36645 11.3873 10.163
204 3 -1.11037 12.3627 10.2468
207 3 1.57265 8.59221 14.6852
21 4 -3.37619 11.7751 16.9584
81 2 -4.49055 9.26381 10.7325
15 4 11.7762 6.77708 5.25616
46 4 9.60205 2.4145 3.28341
49 4 11.9058 1.79797 5.17194
50 4 10.8347 5.10108 2.85726
51 4 7.32281 6.33406 4.65106
228 3 10.5174 6.86546 6.27101
53 4 10.513 3.42124 7.51404
54 4 9.28419 6.18202 6.94969
346 2 9.6686 0.549166 0.565217
91 2 9.5116 1.77347 1.67518
94 2 12.253 4.09394 2.66058
95 2 8.24851 5.16806 3.8052
34 4 5.9205 3.51855 7.12071
347 2 7.73553 0.578955 0.901534
297 3 12.2869 1.63115 0.599284
129 2 6.55204 5.76261 8.09908
192 3 7.06889 3.02614 6.10756
215 3 8.53301 1.80754 4.22487
219 3 13.5644 2.54755 4.95575
220 3 11.0208 1.95551 3.8316
221 3 12.2015 0.242625 5.59843
222 3 9.35106 4.13866 3.21448
223 3 11.2204 6.28416 3.81237
224 3 5.85317 5.98595 4.49699
225 3 10.5852 5.70487 1.4101
268 1 5.5885 5.34009 0.207389
227 3 11.2167 2.65351 6.3628
226 3 9.7236 2.39059 8.42665
229 3 7.83344 6.3643 6.22003
230 3 9.70705 4.73879 7.21112
216 3 12.9811 0.526778 8.15138
294 4 12.8803 0.581799 1.68701
183 3 7.70741 0.353958 6.34338
296 3 14.1132 1.15289 2.70185
29 4 7.36841 1.60166 5.3259
280 2 5.36656 7.05115 1.19052
279 1 8.78384 0.0255431 1.11093
270 2 6.65292 5.8296 0.314849
52 4 10.3231 7.1427 0.873449
333 2 11.3482 -0.0957184 2.60283
340 2 12.5921 4.10516 0.0359674
10 4 13.6091 1.54659 9.33756
310 2 11.284 6.53065 15.1238
32 4 6.67275 1.4041 11.1004
48 4 9.31075 1.10026 9.30825
58 1 12.1768 2.22318 10.5559
65 1 7.12456 3.20231 11.4156
68 1 4.95947 5.7965 12.2406
93 2 10.5935 1.07476 10.4537
188 3 6.88972 0.590781 12.5199
106 2 12.019 1.20751 11.1346
107 2 11.2445 2.70056 10.1039
108 2 12.7155 2.97537 11.2131
126 2 8.20077 3.3566 11.7325
127 2 6.39486 3.56101 12.2259
128 2 6.88035 3.74114 10.3184
342 2 11.4253 5.88861 10.2756
136 2 4.81221 5.61119 13.3405
12 4 13.5427 1.81861 14.4478
109 2 12.3079 4.17956 10.0672
96 2 9.35497 6.48066 16.2505
130 2 7.6079 4.28268 8.75628
218 3 7.91078 1.22609 10.1082
243 1 8.06565 6.07114 11.0851
131 2 5.86101 4.56583 9.43483
248 2 7.84877 6.52068 14.8476
256 2 7.51181 5.55115 10.1812
257 2 7.95411 5.42504 12.0214
258 2 9.25996 6.17741 10.6976
298 4 11.356 2.06562 16.5263
299 4 8.65391 2.9629 15.5838
300 4 9.90694 5.00964 13.6389
301 1 10.1761 3.67984 12.207
302 1 11.6347 5.57108 14.5894
303 2 8.51957 1.85152 14.3246
304 2 8.97689 6.30093 12.8087
305 2 9.606 2.74478 12.467
306 2 11.3211 3.69803 12.3311
307 2 9.78875 4.28816 11.2978
349 2 7.93568 0.562585 15.2132
309 2 11.9855 4.74017 15.2811
137 2 6.17811 5.93546 11.8293
311 3 12.0388 1.58675 15.0294
312 3 9.87939 2.46371 16.5006
313 3 7.19289 3.00105 16.182
314 3 8.96069 4.42491 14.6812
328 1 8.61783 -0.0939242 14.5435
329 2 9.29634 0.410952 13.7876
335 2 13.8644 0.248703 13.8503
267 4 5.77981 2.95951 16.8
66 1 6.55072 4.7173 8.60031
59 1 12.3373 5.38415 9.82382
308 2 12.1296 5.66484 13.5693
97 2 11.7518 4.05299 8.53662
156 2 10.9169 9.12656 3.69041
144 2 3.69481 10.0813 7.90597
55 4 8.43994 8.7436 3.13003
332 2 5.47453 12.3322 1.71216
74 1 7.45225 10.5234 2.81817
75 1 9.83178 9.28722 4.31213
206 3 2.28405 12.2342 6.59541
92 2 4.58314 13.6335 7.58059
47 4 6.07698 14.0261 7.02171
139 2 1.78812 12.944 3.43829
153 2 6.80194 10.7138 1.89491
154 2 8.18379 11.3597 2.94865
155 2 6.72583 10.4242 3.66141
345 2 9.66702 11.1198 0.426286
157 2 9.60944 8.60688 5.21391
158 2 9.48006 10.3797 4.46759
275 4 2.49039 12.8036 0.327662
27 4 1.59675 13.7428 7.50965
232 3 9.31611 8.07134 1.69739
330 1 6.05279 13.1885 2.01243
273 4 4.71481 8.36104 0.286205
274 4 3.45477 10.336 2.22248
250 2 9.02008 9.01219 8.36689
276 4 4.63854 11.6776 4.74794
277 4 7.13296 11.3895 6.09933
331 2 6.71336 12.9752 2.99359
295 2 7.01669 13.393 0.688696
281 2 5.34293 13.0048 3.83309
282 2 3.54337 12.7004 5.52404
283 2 7.8995 11.4468 4.49582
284 2 7.90529 10.0686 6.85864
98 2 9.18059 7.02396 8.45121
289 3 4.48475 9.50991 1.32098
231 3 7.63656 7.60428 3.83483
291 3 3.9363 10.7682 3.6836
292 3 5.56376 10.9255 5.84501
293 3 7.12334 12.7855 6.8294
290 3 2.7872 11.7229 1.45673
338 2 9.91026 10.4333 8.46921
288 2 2.51444 14.3167 2.21257
217 3 2.84379 14.1482 8.40731
5 2 9.28068 12.8951 3.41304
344 2 8.14373 13.2255 13.6824
56 4 4.42959 11.385 15.1951
76 1 5.39391 12.5568 14.1376
86 2 4.28161 7.84251 10.3658
90 2 3.69352 11.5545 11.3527
101 2 5.61895 10.5524 16.0939
254 2 6.20415 8.12263 8.68981
252 2 9.6261 9.76593 9.96509
159 2 5.2396 12.0457 13.1385
160 2 6.54137 12.6961 14.4737
214 3 1.56234 12.6254 12.5221
233 3 3.63277 10.4799 14.2081
234 3 3.45312 12.2568 16.1626
235 4 9.30782 11.4084 15.1394
236 4 6.18908 8.19958 14.8476
237 4 7.85282 8.00486 10.741
238 4 7.62852 10.1653 12.9858
239 4 6.58116 12.5169 10.971
240 1 7.82356 7.44338 15.4731
241 1 9.48792 8.77653 9.36112
242 1 6.17233 8.07221 9.80122
244 1 4.97063 12.0122 10.0541
246 2 6.52999 12.1643 9.14575
247 2 8.67243 8.16503 15.2128
326 2 7.55586 11.1728 16.8756
251 2 10.5018 8.16557 9.21816
343 2 7.69827 13.434 15.4694
253 2 5.95267 6.92088 10.2192
323 1 8.55876 13.2916 14.7263
255 2 5.6964 8.95112 10.3238
259 2 4.20741 12.2526 9.37633
260 2 4.80947 13.0289 11.5008
261 2 4.99446 10.9148 10.3974
262 3 5.25503 8.07913 16.1036
263 3 6.57277 9.70507 14.2321
264 3 7.91553 8.84828 12.0725
265 3 9.12306 10.658 13.7782
266 3 7.15394 11.4208 11.9641
245 2 5.62048 7.14286 13.5345
350 2 4.75896 13.4676 14.37
341 2 7.56757 13.9115 10.8159
348 2 2.66577 13.4583 15.1353
145 2 4.00037 8.56363 8.76679
148 2 10.2432 8.87958 13.3122
249 2 7.66772 7.2197 16.6379
327 2 8.1299 9.48249 16.1578
325 1 8.44198 10.5588 16.582
208 3 3.59796 8.04428 12.9448
102 2 9.11539 12.4288 9.55357
ITEM: TIMESTEP
100
ITEM: NUMBER OF ATOMS
350
ITEM: BOX BOUNDS xy xz yz pp pp pp
-6.8559279999999996e+00 1.5238200000000001e+01 -6.4077279999999996e+00
-6.4200000000000002e-01 1.4502800000000001e+01 -4.4819999999999999e-01
0.0000000000000000e+00 1.7008500000000002e+01 -6.4200000000000002e-01
ITEM: ATOMS id type x y z
7 4 -0.846113 2.70172 3.53314
180 3 3.10013 0.530653 3.39968
14 4 0.119003 4.95823 1.77237
17 4 -0.761357 6.15836 6.41064
26 4 4.56752 1.45773 3.66388
318 2 0.857394 0.716941 0.241279
33 4 1.48789 6.05426 4.27543
319 1 -1.04789 3.16167 8.41163
36 4 4.42867 5.5667 5.44745
57 1 1.33107 0.711858 6.73979
62 1 4.77708 3.01754 2.55388
77 2 0.767836 3.01661 3.92757
201 3 4.10275 6.80101 6.49307
79 2 -0.547469 4.98822 7.69794
82 2 4.58014 1.88539 1.58122
181 3 3.49168 0.659822 8.44621
104 2 1.57219 0.696346 5.63054
105 2 1.41679 1.74226 7.22526
117 2 3.93144 3.03688 4.26444
118 2 4.25969 3.8667 2.1171
119 2 5.88554 3.24896 2.76412
164 3 -1.3115 3.81047 2.42133
165 3 1.05007 4.08733 0.714055
166 3 -0.562013 6.25244 1.13708
167 3 -2.17747 5.81742 5.72196
182 3 5.92089 1.02367 4.32848
320 2 -1.16659 3.16464 7.26712
189 3 1.05641 5.22801 3.00492
190 3 0.450884 6.05111 5.4226
191 3 5.49172 2.27126 8.14392
194 3 2.97749 5.39434 4.71117
195 3 4.63617 4.13503 6.40375
334 2 0.848712 0.621475 1.92576
316 2 1.94955 1.82739 1.35711
315 1 1.78876 1.37208 0.335388
103 2 0.430317 0.103336 7.0173
269 2 6.24663 2.72053 1.21632
272 2 4.65264 5.69573 0.05907
8 4 0.7108 2.40891 16.462
324 2 0.385835 -0.342201 14.9027
13 4 0.816835 1.62146 11.1114
18 4 -0.503224 3.83653 12.8258
19 4 -1.45447 6.21154 10.8397
28 4 4.51174 1.66272 9.18301
31 4 3.36941 1.9796 14.6787
35 4 1.40167 5.8886 9.95231
11 4 2.52923 -0.334256 12.935
63 1 3.26978 3.20764 9.26397
64 1 3.78911 3.08643 13.2071
67 1 2.22849 5.49237 14.4231
83 2 1.65832 2.15789 9.64596
121 2 2.40933 3.00831 8.55688
85 2 0.452602 4.51637 14.0478
308 2 -2.79421 6.53917 14.0581
110 2 -2.60244 5.49926 8.81214
120 2 3.05905 3.11832 10.3748
200 3 2.12394 6.57033 8.74246
122 2 3.87217 4.13407 8.95842
123 2 2.83028 3.56556 12.9801
124 2 4.17268 2.44788 12.3013
125 2 4.54352 3.74988 13.5859
132 2 1.96917 4.47346 15.0426
133 2 3.37926 5.70038 14.3754
134 2 1.72842 5.55855 13.3196
161 3 -0.669938 2.02464 15.83
162 3 -0.41447 0.71861 10.5798
163 3 1.81431 0.620806 11.9786
168 3 -1.72036 3.08869 13.5097
169 3 0.396103 2.88572 11.9071
170 3 -1.10147 5.08344 11.9068
84 2 1.57536 4.1805 9.78102
184 3 3.16334 0.475967 14.1457
185 3 4.60866 2.308 15.6913
186 3 1.77379 2.76347 15.4095
187 3 5.12658 1.42577 10.6357
135 2 4.49676 4.90138 11.5936
193 3 -0.174817 6.29876 9.86066
198 3 2.20072 6.32303 11.2149
322 2 -1.65748 3.95788 8.97279
321 2 0.0678684 3.06877 8.74167
317 2 2.28684 0.253406 16.8862
197 3 0.379531 6.54023 16.2216
336 2 -2.14211 6.10524 15.9152
1 4 -4.27519 14.0689 2.54901
2 1 -4.76495 12.7245 3.71926
3 2 -4.54395 12.6822 4.76053
114 2 -3.92839 9.61663 5.77915
6 3 -3.73182 13.2748 1.27153
111 2 -2.49012 9.08659 3.34595
20 4 -1.77544 10.0016 1.31067
22 4 -1.50207 9.13047 7.4219
80 2 -3.13179 8.75479 8.05433
39 4 -0.4282 11.6438 3.77664
40 4 2.8897 7.40151 7.57981
42 4 1.7536 10.9784 6.0915
60 1 -2.80419 8.69058 2.32715
61 1 -2.97788 9.81114 6.46653
69 1 0.387667 13.1497 2.96169
70 1 -1.76794 12.4162 4.91601
87 2 1.57684 7.69474 3.82924
88 2 1.65382 8.14355 6.43463
100 2 0.530604 10.5951 7.46331
78 2 -2.5742 13.7724 6.07916
71 1 2.28777 9.42647 7.6136
287 2 2.42397 8.2017 2.25806
115 2 -1.64077 9.86062 5.53865
116 2 -3.15027 10.7213 7.11168
138 2 -0.0343109 13.2014 1.89984
113 2 -3.92237 8.99665 2.10703
140 2 0.035584 14.1169 3.6147
141 2 -1.90002 11.8261 5.85933
142 2 -2.832 12.7139 4.46162
143 2 -1.15577 13.3931 5.04466
171 3 -0.984926 8.78912 0.487886
172 3 -2.81517 10.8464 0.479431
173 3 -0.890228 7.70536 7.05544
174 3 -4.24856 12.7294 7.87005
4 2 -4.49622 11.7961 3.26692
199 3 -1.10058 10.8337 2.59823
202 3 -0.500641 10.4609 8.47358
203 3 0.382958 13.1133 8.24913
205 3 0.656801 10.873 4.76536
337 2 -2.80516 8.4547 5.05976
278 1 1.74186 9.13072 2.50242
285 2 0.957527 9.39048 1.75276
286 2 1.53954 9.32046 3.60155
139 2 1.52908 12.9398 2.98581
21 4 -2.98622 12.3544 0.0405136
112 2 -2.56188 7.56346 2.08295
9 4 -3.64655 14.1671 7.38091
45 4 1.9173 11.3759 11.5689
23 4 -4.74475 11.9096 9.04311
24 4 -2.97598 9.0001 11.7739
25 4 -2.44519 12.0158 11.1731
30 4 0.819367 13.7102 13.442
37 4 1.7324 6.95958 15.5545
41 4 0.0249628 12.0258 9.34922
43 4 2.46811 9.22482 13.6245
44 4 -0.657506 12.0918 15.6137
210 3 -0.415859 13.1512 14.4361
72 1 -4.03598 8.50586 13.2291
73 1 -0.899074 10.3985 14.7032
213 3 1.62254 9.9644 12.2631
339 2 -5.20936 13.3396 13.6212
211 3 -1.96786 12.4097 16.5557
214 3 1.41408 12.5795 12.5182
38 4 3.52719 7.0414 11.6815
149 2 -3.79287 9.33209 13.9367
150 2 0.0959993 9.78688 14.692
151 2 -1.42905 10.4805 13.6767
152 2 -1.6476 9.92378 15.4409
175 3 -2.12089 7.61567 11.2794
176 3 -4.37584 11.7578 15.7213
177 3 -3.62039 11.668 10.0828
178 3 -2.24433 10.3474 12.0715
179 3 -2.96459 13.1698 12.117
209 3 0.723017 11.938 16.5932
196 3 2.79526 7.18047 16.6621
212 3 1.5457 11.5331 10.0047
204 3 -0.968404 12.4338 10.4675
207 3 1.44667 8.54264 14.6219
208 3 3.43417 8.09857 12.8052
81 2 -4.43038 9.31449 10.8366
147 2 -3.80307 7.46841 13.6983
16 4 -0.989861 6.70784 16.9832
146 2 1.51814 9.46584 8.53201
15 4 11.8568 6.82342 5.24522
46 4 9.64341 2.49737 3.45116
49 4 12.039 1.91426 5.18956
50 4 10.919 5.21889 2.76225
51 4 7.34048 6.31627 4.81897
228 3 10.6801 6.92827 6.39918
53 4 10.3809 3.44067 7.48904
54 4 9.3796 6.25516 7.00336
346 2 9.55334 0.492084 0.504828
91 2 9.33399 1.82094 1.86072
94 2 12.3924 4.37976 2.46154
95 2 8.27285 5.09541 4.0879
34 4 5.9523 3.49874 7.10546
347 2 7.6593 0.367965 1.13106
297 3 12.1236 1.70561 0.770038
129 2 6.68447 5.67564 7.87148
192 3 7.09987 3.00887 6.06949
215 3 8.42198 1.84367 4.22128
219 3 13.4808 2.66841 4.92754
220 3 11.0897 1.93688 3.83957
221 3 12.3188 0.217349 5.72248
222 3 9.6629 4.17322 3.48526
223 3 11.2663 6.34832 3.83196
224 3 5.84493 5.83045 4.70186
225 3 10.5361 5.81438 1.37861
268 1 5.73545 5.2418 0.126927
227 3 11.2249 2.67013 6.38103
226 3 9.65389 2.38045 8.46119
229 3 7.98985 6.60143 6.23923
230 3 9.58046 4.70361 7.16574
216 3 13.1211 0.578716 8.1959
294 4 13.0124 0.678242 1.74091
183 3 7.6746 0.398504 6.44086
296 3 14.1582 1.2407 2.63249
29 4 7.38701 1.53658 5.36944
280 2 5.3605 6.99889 0.983509
279 1 8.78729 -0.0317619 1.20121
271 2 6.13743 5.18313 1.20028
52 4 10.1529 7.20952 0.752742
340 2 12.5546 4.31623 0.0281317
10 4 13.6655 1.59585 9.35684
310 2 11.5066 5.86104 15.568
32 4 6.82576 1.52045 11.1923
48 4 9.38433 1.07299 9.31015
58 1 12.2847 2.12932 10.6673
65 1 7.20248 3.34195 11.4797
68 1 4.91014 5.79793 12.1132
93 2 10.6924 0.948187 10.3953
270 2 6.08189 5.17363 16.4247
106 2 11.9995 1.15772 11.182
107 2 11.4116 2.61315 10.0723
108 2 12.7087 2.89004 11.442
126 2 8.31107 3.44851 11.832
127 2 6.45655 3.59327 12.2769
128 2 7.01105 3.87224 10.3649
342 2 11.4924 5.94007 10.2998
136 2 4.87376 5.61651 13.2383
12 4 13.5543 1.80751 14.5849
109 2 12.3618 4.12274 10.201
96 2 9.22559 6.25036 16.1177
130 2 7.70052 4.24262 8.73648
218 3 8.06644 1.24914 10.2068
243 1 8.01203 6.05886 11.1591
131 2 5.85947 4.80653 9.41053
248 2 7.71468 6.36559 14.9729
256 2 7.49354 5.52946 10.2173
257 2 7.83272 5.51604 12.0925
258 2 9.2359 6.23771 10.9024
298 4 11.3956 2.16431 16.6244
299 4 8.74173 2.91179 15.3657
300 4 10.053 5.13003 13.5744
301 1 10.2661 3.73368 12.2764
302 1 11.7719 5.667 14.5084
303 2 8.5852 1.74494 14.0704
304 2 9.25159 6.3729 12.7002
305 2 9.83207 2.7098 12.5208
306 2 11.4684 3.73691 12.4472
307 2 9.95093 4.1413 11.2681
349 2 8.15484 0.554211 15.3019
309 2 12.2229 4.59889 14.2297
137 2 6.05786 5.9089 11.7827
311 3 11.957 1.65835 15.2272
312 3 9.92151 2.53367 16.3684
313 3 7.30303 2.97057 16.0264
314 3 9.13919 4.40088 14.5972
328 1 8.65297 -0.160935 14.5759
329 2 9.4196 0.356977 13.9227
335 2 14.1961 0.469093 13.7949
267 4 5.83767 2.87146 16.6585
66 1 6.6783 4.7309 8.53774
59 1 12.3654 5.30115 9.89088
188 3 6.85041 0.52876 12.5911
97 2 11.4538 4.20652 8.5428
156 2 10.955 9.17496 3.55674
144 2 3.1423 10.0809 7.88776
55 4 8.52697 8.79105 3.13473
332 2 5.68671 12.2841 1.62842
74 1 7.5142 10.5384 2.80217
75 1 9.92081 9.44075 4.20628
206 3 2.35306 12.3564 6.35818
92 2 4.83158 13.4927 7.6173
47 4 6.23018 14.1043 7.0661
5 2 9.25361 13.0642 3.5803
153 2 7.21414 10.2262 1.80527
154 2 7.8222 11.609 2.63846
155 2 6.62061 10.4579 3.54502
345 2 9.62158 11.0382 0.37925
157 2 9.78601 8.71813 5.17187
158 2 9.52655 10.5641 4.24034
275 4 2.5559 12.7619 0.358372
27 4 1.66037 13.7538 7.45323
232 3 9.09782 8.05917 1.49688
330 1 6.3064 13.2061 2.00569
273 4 4.6004 8.31408 0.222323
274 4 3.30614 10.3332 2.24848
250 2 8.98138 8.87208 8.4256
276 4 4.70349 11.7579 4.68226
277 4 6.97914 11.2844 6.17262
331 2 7.18051 12.8265 2.60841
295 2 7.17534 13.6411 0.672623
281 2 5.66878 12.8986 3.82491
282 2 3.5488 12.8775 5.28614
283 2 7.84458 11.1497 4.63066
284 2 7.78428 10.1564 7.24275
99 2 11.6095 8.12926 0.621908
289 3 4.47697 9.43787 1.34587
231 3 7.71713 7.70022 3.95767
291 3 3.87826 10.7839 3.69394
292 3 5.43335 11.0544 5.86713
293 3 7.16601 12.7264 6.92601
290 3 2.77659 11.6732 1.5315
217 3 3.00285 14.1527 8.39974
288 2 2.78175 14.3978 2.23867
89 2 3.06773 9.79273 5.87379
333 2 5.2442 14.296 2.81685
338 2 9.98586 10.3775 8.48485
344 2 8.03095 13.2662 13.7022
56 4 4.36439 11.3597 15.3594
76 1 5.27568 12.5661 14.2726
86 2 4.43607 7.66026 10.2417
90 2 3.65808 11.5949 11.4951
101 2 5.53243 10.5361 16.3392
254 2 6.15659 8.73448 8.6932
252 2 9.55764 9.74544 10.0039
159 2 5.05488 12.0209 13.283
160 2 6.49569 12.8164 14.5309
102 2 9.14107 12.5885 9.70756
233 3 3.40243 10.3413 14.4153
234 3 3.54051 12.3592 16.2885
235 4 9.31452 11.4267 15.1738
236 4 6.16167 8.09826 14.7244
237 4 7.78255 7.97023 10.7511
238 4 7.69902 10.0867 13.0428
239 4 6.66515 12.3857 11.0868
240 1 7.85521 7.49469 15.4073
241 1 9.48938 8.74708 9.4634
242 1 6.21103 8.29192 9.70559
244 1 5.04808 11.9277 10.0671
246 2 6.43723 11.857 9.20244
247 2 8.71615 8.0379 14.9279
326 2 7.54372 11.3804 16.6133
251 2 10.4162 8.15017 9.47797
343 2 7.67119 13.4882 15.618
253 2 5.94028 7.10827 9.71643
323 1 8.433 13.3484 14.7935
255 2 5.68963 8.91697 10.5427
259 2 4.14797 12.1766 9.28969
260 2 4.92901 13.0657 11.3624
261 2 4.81188 10.8927 10.4881
262 3 5.18474 7.92175 15.9605
263 3 6.61817 9.56352 14.2889
264 3 7.92583 8.72408 12.1186
265 3 9.11083 10.5964 13.8251
266 3 7.06093 11.2561 12.1318
245 2 5.68504 7.11089 13.3633
350 2 4.64691 13.5438 14.3685
341 2 7.61083 13.8196 11.0836
348 2 2.75695 13.5005 15.2308
325 1 8.43648 10.4899 16.5063
148 2 10.1418 8.56245 12.7196
249 2 7.9278 7.5356 16.5395
327 2 8.0939 9.4117 16.1635
145 2 3.62157 8.58978 8.69134
98 2 9.19881 6.94317 8.61697
ITEM: TIMESTEP
200
ITEM: NUMBER OF ATOMS
350
ITEM: BOX BOUNDS xy xz yz pp pp pp
-6.8559279999999996e+00 1.5238200000000001e+01 -6.4077279999999996e+00
-6.4200000000000002e-01 1.4502800000000001e+01 -4.4819999999999999e-01
0.0000000000000000e+00 1.7008500000000002e+01 -6.4200000000000002e-01
ITEM: ATOMS id type x y z
7 4 -0.851382 2.82696 3.41252
180 3 3.31962 0.428943 3.37951
14 4 0.140722 5.09756 1.78238
17 4 -0.741443 6.15483 6.45332
26 4 4.53044 1.50144 3.70832
318 2 0.820017 0.719957 0.18798
33 4 1.55055 6.05141 4.26612
319 1 -0.9204 3.21943 8.44083
36 4 4.32964 5.57373 5.65504
57 1 1.23891 0.57653 6.71554
62 1 4.94209 3.01237 2.48717
77 2 0.821486 2.93866 3.86195
201 3 4.08827 6.78987 6.69517
79 2 -0.494666 5.01468 7.7449
82 2 5.13677 1.67386 1.74867
269 2 6.3389 2.73647 1.13686
104 2 1.31587 0.682014 5.5544
105 2 1.19185 1.52545 7.2412
117 2 3.93813 3.16674 4.14169
118 2 4.36637 3.78793 1.83792
103 2 0.342931 -0.0866807 7.02986
164 3 -1.36815 4.03707 2.4685
165 3 0.893384 4.13431 0.596663
166 3 -0.552082 6.38711 1.29727
167 3 -2.17876 5.75813 5.86937
182 3 5.75129 1.0841 4.61394
320 2 -1.0173 3.19371 7.32141
189 3 1.09801 5.22583 3.03354
190 3 0.48569 6.10821 5.50097
191 3 5.5036 2.0912 8.11794
194 3 3.01541 5.45845 4.7644
195 3 4.59111 4.10396 6.52726
334 2 1.13886 0.533987 1.9219
316 2 1.96727 1.87757 1.30819
315 1 1.78622 1.38929 0.287776
119 2 5.94039 3.4046 2.92509
200 3 2.08529 6.39122 8.45274
8 4 0.720112 2.40226 16.4203
181 3 3.56373 0.533869 8.57729
13 4 0.870051 1.5749 11.0956
18 4 -0.467907 3.84799 12.8834
19 4 -1.35964 6.07306 10.8614
28 4 4.47561 1.69099 9.20343
31 4 3.46797 2.04525 14.5443
35 4 1.45066 5.84699 9.80738
11 4 2.47965 -0.336644 12.9648
63 1 3.41473 3.33948 9.44898
64 1 3.95221 2.94165 12.9721
67 1 2.30665 5.56011 14.4506
83 2 1.77562 2.29239 9.86999
336 2 -2.42777 6.18433 16.0367
85 2 0.500704 4.6451 13.9617
308 2 -2.75006 6.55727 13.7024
110 2 -2.29732 5.68939 8.7464
120 2 2.96938 3.39445 10.5033
121 2 2.64859 3.1028 8.63725
122 2 4.045 4.26651 9.25823
123 2 2.97998 3.51057 12.784
124 2 4.32041 2.328 12.1378
125 2 4.74985 3.65908 13.35
132 2 2.12233 4.48345 14.8587
133 2 3.43337 5.73906 14.4085
134 2 1.83008 5.74865 13.4614
161 3 -0.687403 1.89839 15.8524
162 3 -0.311575 0.677857 10.4214
163 3 1.9065 0.720718 11.8568
168 3 -1.50446 2.97588 13.699
169 3 0.278975 2.84352 11.926
170 3 -1.16076 5.02303 12.1
84 2 1.6368 4.1501 9.74935
184 3 3.19095 0.520619 14.0884
185 3 4.56108 2.36368 15.7527
186 3 1.84173 2.77399 15.3299
187 3 5.27389 1.46833 10.6243
135 2 4.69417 4.97682 11.371
193 3 -0.134866 6.09392 9.83024
198 3 2.33067 6.34756 10.986
322 2 -1.59938 4.10322 8.95229
321 2 0.162072 3.15453 8.87781
317 2 2.22739 0.334715 16.7781
197 3 0.191643 6.46776 16.0426
272 2 4.34608 4.92351 16.8365
1 4 -4.12301 13.9271 2.64952
2 1 -4.88133 12.7566 3.86986
3 2 -4.58663 12.7746 5.01374
114 2 -3.79753 9.7058 5.65382
6 3 -3.52358 13.1084 1.40846
111 2 -2.47179 8.88667 3.31692
20 4 -1.79175 9.84702 1.21502
22 4 -1.38745 9.18374 7.33865
80 2 -3.25234 9.08513 7.86451
39 4 -0.44757 11.6501 3.64455
40 4 2.78733 7.41444 7.52655
42 4 1.57892 11.0869 5.95538
60 1 -2.96444 8.64079 2.30111
61 1 -2.92744 9.92262 6.38094
69 1 0.215357 13.2809 2.9265
70 1 -1.90743 12.4117 4.82685
87 2 1.79214 7.69464 3.79138
88 2 1.63348 8.30758 6.48714
100 2 0.468131 10.8932 7.34375
78 2 -2.60321 13.8994 5.95307
71 1 2.43713 9.67359 7.58771
287 2 2.08493 8.05261 1.9947
115 2 -1.36879 9.9335 5.62519
116 2 -3.08233 10.9881 6.69066
138 2 -0.153428 13.366 1.87759
146 2 1.45886 9.5728 7.99687
140 2 -0.000149426 14.2025 3.58617
141 2 -1.79561 11.7894 5.75938
142 2 -3.00007 12.5558 4.49475
143 2 -1.28407 13.3973 4.94903
171 3 -0.746923 8.84971 0.367526
172 3 -2.79613 10.7484 0.426432
173 3 -0.94422 7.63512 7.20302
174 3 -4.31093 12.7552 7.8108
4 2 -4.93547 11.7173 3.31895
199 3 -1.00135 10.7077 2.43362
202 3 -0.536156 10.6316 8.3279
203 3 0.472756 13.1593 8.22202
205 3 0.658325 11.0915 4.69596
337 2 -2.68338 8.31173 5.23369
278 1 1.8214 9.05502 2.34603
285 2 0.971395 9.55318 1.75794
286 2 1.79932 9.30837 3.46146
139 2 1.3595 12.9289 2.97984
21 4 -2.95166 12.2989 0.0350005
112 2 -3.01262 7.52554 2.21394
9 4 -3.68241 14.1249 7.36741
89 2 2.72695 9.64612 5.81206
5 2 -6.0029 13.2937 3.7026
113 2 -3.89165 9.21296 2.11964
16 4 -0.615435 7.32137 0.00693317
147 2 -3.87462 7.56561 13.4209
23 4 -4.70741 11.905 9.10205
24 4 -2.81498 9.08044 11.7469
25 4 -2.39828 11.9904 11.2202
30 4 0.74346 13.8401 13.4754
37 4 1.67277 7.03845 15.5203
41 4 0.0794625 12.1214 9.34713
43 4 2.46008 9.23675 13.5394
44 4 -0.671073 12.0045 15.6803
210 3 -0.309049 13.069 14.4494
72 1 -4.08488 8.63108 13.0763
73 1 -1.05146 10.2965 14.9147
213 3 1.84569 10.1435 12.3006
339 2 -5.2791 13.4443 13.6645
211 3 -1.96211 12.3117 16.5494
214 3 1.42169 12.7698 12.4559
38 4 3.54149 7.12345 11.6481
149 2 -3.776 9.47346 13.8363
150 2 -0.193333 9.55486 14.8127
151 2 -1.55201 10.5096 13.8553
152 2 -1.85389 9.91243 15.5915
175 3 -2.09695 7.68048 11.4437
176 3 -4.52636 11.9264 15.7952
177 3 -3.5388 11.5107 10.083
178 3 -2.0391 10.4608 12.0253
179 3 -3.07565 13.0357 12.2301
209 3 0.583766 12.1163 16.7016
196 3 2.82031 7.21043 16.5789
212 3 1.46614 11.5729 10.1372
204 3 -1.04177 12.4275 10.3246
207 3 1.24525 8.50999 14.496
208 3 3.39329 7.89681 12.9585
81 2 -4.17149 9.38203 10.5969
324 2 -6.03252 13.8507 15.0748
15 4 11.8815 6.74072 5.3266
46 4 9.69181 2.44392 3.51261
49 4 11.9762 1.94041 5.31804
50 4 10.8902 5.17959 2.80986
51 4 7.35966 6.39903 4.83391
228 3 10.6443 6.82026 6.41333
53 4 10.4325 3.42742 7.59843
54 4 9.34598 6.19559 7.0217
346 2 10.0298 0.426759 0.625544
91 2 9.66712 1.93797 1.86042
94 2 12.3015 4.17773 2.67011
95 2 8.3315 5.17327 4.13373
34 4 5.93692 3.41151 7.15416
347 2 8.23355 0.658723 1.16025
297 3 12.0419 1.59519 0.788123
129 2 6.76391 5.62073 7.84007
192 3 7.01038 2.94967 6.03662
215 3 8.51483 1.74877 4.24144
219 3 13.5536 2.71067 4.77989
220 3 11.1023 1.85485 3.91649
221 3 12.3415 0.402313 5.83825
222 3 9.62487 4.21148 3.41628
223 3 11.364 6.33157 3.87027
224 3 5.90657 5.88063 4.84744
225 3 10.4449 5.76223 1.39106
268 1 5.89658 5.28088 0.136685
227 3 11.198 2.77352 6.4633
226 3 9.59277 2.36519 8.41615
229 3 7.95819 6.71069 6.2736
230 3 9.51638 4.65497 7.27831
216 3 13.1499 0.639018 8.25163
294 4 12.9066 0.714668 1.70663
183 3 7.73537 0.360712 6.29233
296 3 14.3277 1.49097 2.61604
29 4 7.31867 1.49352 5.28872
280 2 5.12496 6.85508 1.01498
279 1 9.1124 0.0515762 1.30412
271 2 6.14957 5.45548 1.258
340 2 12.5722 4.09738 0.183973
52 4 10.1164 7.19585 0.887164
217 3 9.51536 -0.302855 8.39489
10 4 13.6958 1.60348 9.27263
310 2 11.1661 6.31327 15.1336
32 4 6.82232 1.42352 11.2692
48 4 9.33624 0.97964 9.21439
58 1 12.285 2.16478 10.5303
65 1 7.29727 3.28932 11.3402
68 1 4.99998 5.91413 11.9767
93 2 10.7568 0.902866 10.1494
270 2 6.21299 5.11378 16.3677
106 2 12.0101 1.15142 11.1515
107 2 11.4262 2.52425 9.90585
108 2 12.8088 2.97838 11.1942
126 2 8.47919 3.45073 11.6645
127 2 6.62018 3.63387 12.2033
128 2 7.07114 3.81625 10.3396
342 2 11.532 6.04148 10.2021
136 2 4.82688 5.63723 13.0541
12 4 13.544 1.78926 14.6823
109 2 12.3578 4.16309 10.133
96 2 9.118 6.23774 16.3235
130 2 7.73077 4.27533 8.72329
218 3 8.05894 0.988554 10.312
243 1 8.10028 6.12646 11.1587
131 2 6.11305 4.84945 9.38422
248 2 7.70144 6.41824 14.7666
256 2 7.64635 5.51364 10.1975
257 2 7.73416 5.64312 12.1664
258 2 9.27423 6.23954 10.9828
298 4 11.2338 2.09405 16.6882
299 4 8.72267 2.91137 15.393
300 4 10.0865 5.10384 13.5508
301 1 10.4422 3.90886 12.0885
302 1 11.8894 5.7975 14.2523
303 2 8.71855 1.6311 14.2261
304 2 9.37646 6.46233 12.7041
305 2 10.1553 2.81971 12.1871
306 2 11.6176 4.08068 12.1688
307 2 10.0191 4.35077 11.1773
349 2 8.18303 0.353398 15.3338
309 2 12.3384 4.80026 14.533
137 2 6.17757 6.09739 11.8169
311 3 11.8528 1.5905 15.3052
312 3 9.65563 2.49963 16.55
313 3 7.29518 2.9661 15.9052
314 3 9.10894 4.3312 14.6551
328 1 8.71509 -0.308055 14.5999
329 2 9.54731 0.235645 14.0105
335 2 13.727 0.227368 13.9128
267 4 5.87788 2.88807 16.6094
97 2 11.717 4.13653 8.52216
59 1 12.4208 5.39757 9.84316
188 3 6.97769 0.792521 12.7947
66 1 6.71674 4.69417 8.50907
288 2 2.93552 14.2264 2.42519
144 2 2.98407 10.494 8.12229
55 4 8.40245 8.72987 3.10623
332 2 5.60571 12.4632 1.60652
74 1 7.38633 10.4066 3.00102
75 1 9.84664 9.20082 4.34804
206 3 2.38973 12.328 6.24661
92 2 4.58992 13.7733 7.56969
47 4 6.12939 14.0773 7.08035
99 2 11.539 7.97813 0.576858