ITEM: TIMESTEP
0
ITEM: NUMBER OF ATOMS
350
ITEM: BOX BOUNDS xy xz yz pp pp pp
-6.7108999999999996e+00 1.5238200000000001e+01 -6.2626999999999997e+00
-6.4200000000000002e-01 1.4502800000000001e+01 -4.4819999999999999e-01
0.0000000000000000e+00 1.6838415000000001e+01 -6.4200000000000002e-01
ITEM: ATOMS id type x y z
7 4 -0.866927 2.57643 3.49572
180 3 3.39575 0.364842 3.28232
14 4 0.00829935 4.96588 1.86229
17 4 -0.65004 6.08822 6.35424
26 4 4.61396 1.43259 3.4663
318 2 0.80602 0.936741 0.120444
33 4 1.71464 5.99197 4.2435
9 4 2.78041 -0.269371 7.19003
36 4 4.5827 5.65276 5.4042
57 1 1.39822 0.856422 6.53625
62 1 4.63 3.14643 2.47579
77 2 0.735511 2.58898 3.88226
201 3 4.16451 6.83926 6.57259
79 2 -0.536048 4.9055 7.58808
82 2 5.09494 1.58433 1.72176
181 3 3.51848 0.588184 8.35279
104 2 1.73403 0.893652 5.45306
105 2 1.48393 1.85557 7.07319
117 2 3.62552 3.10413 3.80694
118 2 3.99984 3.83504 1.76081
119 2 5.5769 3.66626 2.84872
164 3 -1.3521 3.83636 2.61716
165 3 0.903834 4.09886 0.698105
166 3 -0.773407 6.20963 1.17037
167 3 -2.06024 6.03785 5.56068
182 3 5.86612 1.14793 4.45315
320 2 -1.08528 2.98277 7.3155
189 3 1.00113 5.34299 3.03712
190 3 0.761212 5.91362 5.49583
191 3 5.42628 2.37223 8.01661
194 3 3.31718 5.50055 4.40287
195 3 4.78366 4.321 6.30086
334 2 1.01655 0.544246 1.91334
316 2 1.96108 1.99681 1.32098
315 1 1.75232 1.49409 0.315102
103 2 0.442066 0.328286 6.71982
271 2 5.09658 5.08124 1.21598
269 2 6.23599 2.92323 1.4027
8 4 0.755686 2.50356 16.2869
324 2 0.566887 -0.399603 14.6695
13 4 0.850657 1.65326 11.0812
18 4 -0.414905 3.94219 12.6265
19 4 -1.40714 6.22633 10.8205
28 4 4.36135 1.78086 9.00473
31 4 3.48154 1.95611 14.4999
35 4 1.47655 6.00094 9.86935
11 4 2.59832 -0.372228 12.8214
63 1 3.1494 3.32481 9.26056
64 1 3.88195 2.81882 12.8937
67 1 2.32095 5.67476 14.4239
83 2 1.58745 2.16038 9.62898
319 1 -0.90501 3.11119 8.45851
85 2 0.649752 4.70307 13.775
121 2 2.29824 3.32307 8.51679
110 2 -2.48691 5.76754 8.7312
120 2 2.76992 3.21737 10.3133
200 3 2.36844 6.50325 8.68961
122 2 3.83234 4.20384 9.16608
123 2 2.95755 3.42578 12.6939
124 2 4.23801 2.25644 12.0221
125 2 4.77747 3.47658 13.3224
132 2 2.16127 4.58878 14.6558
133 2 3.43166 5.87482 14.3563
134 2 1.77057 5.93618 13.3782
161 3 -0.594713 2.18144 15.4648
162 3 -0.42231 0.771253 10.4339
163 3 1.84525 0.663093 11.8323
168 3 -1.56593 3.08271 13.2746
169 3 0.488893 2.96663 11.7568
170 3 -1.1619 5.19231 11.8961
84 2 1.51782 4.31126 9.69648
184 3 3.17268 0.429679 14.1053
185 3 4.73566 2.26934 15.6333
186 3 1.94022 2.88933 15.2983
187 3 4.96255 1.49226 10.4465
135 2 4.58826 4.8752 11.4907
193 3 -0.0852182 6.41436 9.79988
198 3 2.17189 6.27248 11.2015
322 2 -1.55031 4.02886 8.93407
321 2 0.138019 3.12282 8.76316
272 2 4.48083 5.22328 16.2764
197 3 0.2862 6.62929 15.9594
336 2 -2.35084 6.47505 15.7903
317 2 2.19164 0.413999 16.7342
1 4 -4.03362 13.9873 2.49234
2 1 -4.68579 12.7036 3.68873
3 2 -4.49387 12.8039 4.78479
114 2 -3.86683 9.60263 5.66526
6 3 -3.44217 13.3172 1.17826
111 2 -2.47423 9.14586 3.34803
20 4 -1.52853 9.88449 1.39275
22 4 -1.28926 9.04356 7.29627
80 2 -3.03145 8.87188 7.75327
39 4 -0.233544 11.6322 3.80562
40 4 3.15413 7.44692 7.59995
42 4 1.74948 10.8821 6.17689
60 1 -2.74588 8.71183 2.35512
61 1 -2.90711 9.84848 6.38445
69 1 0.823317 13.1507 3.165
70 1 -1.68847 12.4653 4.82242
87 2 1.8757 7.6925 3.94688
88 2 1.90182 8.18025 6.53914
100 2 0.73853 10.3525 7.51573
78 2 -2.47573 14.0129 5.7497
71 1 2.80497 9.52188 7.62067
287 2 2.48009 8.22357 2.19343
115 2 -1.56177 9.92922 5.60227
116 2 -3.09346 10.8526 6.76712
138 2 0.654602 13.1897 2.08552
89 2 3.04046 9.64231 5.78628
140 2 0.456311 14.1077 3.65273
141 2 -1.46221 11.9245 5.80141
142 2 -2.78334 12.5397 4.51563
143 2 -1.11687 13.5136 4.8911
171 3 -0.603795 8.84402 0.615989
172 3 -2.58733 10.8893 0.365138
173 3 -0.778207 7.55521 7.09099
174 3 -4.0766 12.8356 7.75365
4 2 -4.2989 11.7693 3.18648
199 3 -0.827408 10.6965 2.61815
202 3 -0.540945 10.3094 8.30513
203 3 0.478354 13.1057 8.22316
205 3 0.6882 10.8522 4.87314
337 2 -2.85965 8.43007 4.99803
278 1 2.01391 9.12733 2.63868
285 2 1.15662 9.54578 2.03464
286 2 1.82934 9.1123 3.75995
113 2 -3.81405 9.04978 2.0452
16 4 -0.562928 7.32315 0.0106504
112 2 -2.41897 7.64369 2.21256
99 2 -3.36726 8.0318 0.593815
146 2 2.1214 9.8214 8.38216
45 4 2.0489 11.387 11.5458
23 4 -4.5119 11.9323 8.92308
24 4 -3.01241 9.00631 11.7583
25 4 -2.36962 11.8774 11.0816
30 4 0.980885 13.7633 13.161
37 4 1.70752 7.14596 15.5282
41 4 0.116742 11.8891 9.2162
43 4 2.68685 9.22113 13.4904
44 4 -0.504559 11.9804 15.4574
210 3 -0.186869 13.2209 14.1521
72 1 -3.7976 8.62832 13.3772
73 1 -0.815384 10.2978 14.7103
213 3 1.84033 9.94362 12.1936
339 2 -5.00702 13.1978 13.2836
211 3 -1.77234 12.3774 16.376
147 2 -3.62135 7.48071 13.9078
38 4 3.64824 7.07403 11.615
149 2 -3.36383 9.36584 14.0391
150 2 0.0942188 9.62305 14.6676
151 2 -1.28274 10.4956 13.6575
152 2 -1.55485 9.85685 15.4451
175 3 -2.22505 7.66641 11.3288
176 3 -4.22029 11.8103 15.5458
177 3 -3.54544 11.5893 10.081
178 3 -2.07311 10.4501 12.005
179 3 -2.75962 13.0601 12.1608
209 3 0.859287 11.9417 16.3162
196 3 2.93238 7.06767 16.5703
212 3 1.48416 11.3873 10.0614
204 3 -0.982876 12.3627 10.1443
207 3 1.66411 8.59221 14.5384
21 4 -3.25204 11.7751 16.7888
81 2 -4.39386 9.26381 10.6252
15 4 11.846 6.77708 5.20359
46 4 9.62743 2.4145 3.25057
49 4 11.9257 1.79797 5.12022
50 4 10.8868 5.10108 2.82868
51 4 7.3879 6.33406 4.60455
228 3 10.5884 6.86546 6.2083
53 4 10.5501 3.42124 7.4389
54 4 9.34863 6.18202 6.88019
346 2 9.6743 0.549166 0.559564
91 2 9.52997 1.77347 1.65843
94 2 12.2949 4.09394 2.63397
95 2 8.30163 5.16806 3.76715
34 4 5.95837 3.51855 7.0495
347 2 7.74166 0.578955 0.892519
297 3 12.3034 1.63115 0.593291
129 2 6.61272 5.76261 8.01809
192 3 7.10145 3.02614 6.04648
215 3 8.55268 1.80754 4.18262
219 3 13.5917 2.54755 4.90619
220 3 11.0418 1.95551 3.79328
221 3 12.206 0.242625 5.54244
222 3 9.39366 4.13866 3.18234
223 3 11.2847 6.28416 3.77424
224 3 5.91472 5.98595 4.45202
225 3 10.6427 5.70487 1.396
268 1 5.64197 5.34009 0.205315
227 3 11.2456 2.65351 6.29918
226 3 9.75069 2.39059 8.34239
229 3 7.89943 6.3643 6.15783
230 3 9.75716 4.73879 7.13901
216 3 12.9894 0.526778 8.06987
294 4 12.8867 0.581799 1.67014
183 3 7.71334 0.353958 6.27994
296 3 14.1257 1.15289 2.67483
29 4 7.38644 1.60166 5.27264
280 2 5.43752 7.05115 1.17861
279 1 8.78451 0.0255431 1.09982
270 2 6.71133 5.8296 0.311701
52 4 10.3948 7.1427 0.864715
333 2 11.3483 -0.0957184 2.5768
340 2 12.6331 4.10516 0.0356078
10 4 13.6281 1.54659 9.24418
310 2 11.355 6.53065 14.9726
32 4 6.69098 1.4041 10.9894
48 4 9.32526 1.10026 9.21517
58 1 12.203 2.22318 10.4504
65 1 7.16089 3.20231 11.3014
68 1 5.02206 5.7965 12.1181
93 2 10.6082 1.07476 10.3492
188 3 6.90035 0.590781 12.3947
106 2 12.0353 1.20751 11.0232
107 2 11.2753 2.70056 10.0028
108 2 12.7495 2.97537 11.1009
126 2 8.23876 3.3566 11.6151
127 2 6.43508 3.56101 12.1036
128 2 6.92165 3.74114 10.2152
342 2 11.4881 5.88861 10.1728
136 2 4.87336 5.61119 13.2071
12 4 13.5663 1.81861 14.3033
109 2 12.3535 4.17956 9.96651
96 2 9.42591 6.48066 16.088
130 2 7.65403 4.28268 8.66872
218 3 7.92686 1.22609 10.0071
243 1 8.13055 6.07114 10.9742
131 2 5.91023 4.56583 9.34048
248 2 7.91958 6.52068 14.6991
256 2 7.57116 5.55115 10.0794
257 2 8.0129 5.42504 11.9012
258 2 9.32577 6.17741 10.5906
298 4 11.3829 2.06562 16.361
299 4 8.68942 2.9629 15.428
300 4 9.96218 5.00964 13.5025
301 1 10.2175 3.67984 12.0849
302 1 11.6959 5.57108 14.4435
303 2 8.54349 1.85152 14.1814
304 2 9.04473 6.30093 12.6806
305 2 9.63815 2.74478 12.3423
306 2 11.3627 3.69803 12.2078
307 2 9.83589 4.28816 11.1848
349 2 7.94705 0.562585 15.061
309 2 12.0386 4.74017 15.1283
137 2 6.24193 5.93546 11.711
311 3 12.0603 1.58675 14.8791
312 3 9.91026 2.46371 16.3356
313 3 7.22901 3.00105 16.0201
314 3 9.01049 4.42491 14.5344
328 1 8.62238 -0.0939242 14.398
329 2 9.30566 0.410952 13.6497
335 2 13.8721 0.248703 13.7118
267 4 5.81575 2.95951 16.632
66 1 6.60114 4.7173 8.51431
59 1 12.3949 5.38415 9.72558
308 2 12.1914 5.66484 13.4336
97 2 11.7956 4.05299 8.45125
156 2 11.0096 9.12656 3.65351
144 2 3.79861 10.0813 7.82691
55 4 8.52856 8.7436 3.09873
332 2 5.5985 12.3322 1.69504
74 1 7.55855 10.5234 2.78999
75 1 9.92628 9.28722 4.26901
206 3 2.40888 12.2342 6.52946
92 2 4.72234 13.6335 7.50478
47 4 6.2199 14.0261 6.95149
139 2 1.91885 12.944 3.40391
153 2 6.90979 10.7138 1.87596
154 2 8.2985 11.3597 2.91917
155 2 6.83145 10.4242 3.62479
345 2 9.77838 11.1198 0.422023
157 2 9.69748 8.60688 5.16177
158 2 9.58554 10.3797 4.42292
275 4 2.61855 12.8036 0.324385
27 4 1.73701 13.7428 7.43456
232 3 9.39747 8.07134 1.68042
330 1 6.18544 13.1885 1.99231
273 4 4.79853 8.36104 0.283343
274 4 3.55897 10.336 2.20026
250 2 9.11336 9.01219 8.28322
276 4 4.75711 11.6776 4.70047
277 4 7.24916 11.3895 6.03834
331 2 6.84424 12.9752 2.96365
295 2 7.15088 13.393 0.681809
281 2 5.47442 13.0048 3.79476
282 2 3.67246 12.7004 5.4688
283 2 8.01567 11.4468 4.45086
284 2 8.00856 10.0686 6.79005
98 2 9.25402 7.02396 8.3667
289 3 4.58035 9.50991 1.30777
231 3 7.71405 7.60428 3.79648
291 3 4.04538 10.7682 3.64676
292 3 5.67522 10.9255 5.78656
293 3 7.25377 12.7855 6.76111
290 3 2.90498 11.7229 1.44217
338 2 10.0178 10.4333 8.38452
288 2 2.65844 14.3167 2.19045
217 3 2.98845 14.1482 8.32324
5 2 9.41092 12.8951 3.37891
344 2 8.28115 13.2255 13.5455
56 4 4.54917 11.385 15.0432
76 1 5.52481 12.5568 13.9962
86 2 4.36395 7.84251 10.2621
90 2 3.81335 11.5545 11.2391
101 2 5.73054 10.5524 15.933
254 2 6.28866 8.12263 8.60291
252 2 9.72752 9.76593 9.86544
159 2 5.36502 12.0457 13.0071
160 2 6.6738 12.6961 14.3289
214 3 1.69332 12.6254 12.3969
233 3 3.74293 10.4799 14.066
234 3 3.58179 12.2568 16.001
235 4 9.42762 11.4084 14.988
236 4 6.27668 8.19958 14.6991
237 4 7.93692 8.00486 10.6336
238 4 7.73507 10.1653 12.856
239 4 6.71047 12.5169 10.8613
240 1 7.90384 7.44338 15.3184
241 1 9.57922 8.77653 9.26751
242 1 6.25675 8.07221 9.70321
244 1 5.09455 12.0122 9.95355
246 2 6.65508 12.1643 9.05429
247 2 8.75982 8.16503 15.0607
326 2 7.67396 11.1728 16.7069
251 2 10.5869 8.16557 9.12597
343 2 7.83845 13.434 15.3147
253 2 6.02574 6.92088 10.117
323 1 8.69723 13.2916 14.579
255 2 5.78981 8.95112 10.2206
259 2 4.33347 12.2526 9.28256
260 2 4.9441 13.0289 11.3858
261 2 5.10753 10.9148 10.2934
262 3 5.3419 8.07913 15.9425
263 3 6.6752 9.70507 14.0898
264 3 8.00857 8.84828 11.9518
265 3 9.23484 10.658 13.6404
266 3 7.27266 11.4208 11.8445
245 2 5.69702 7.14286 13.3991
350 2 4.89906 13.4676 14.2263
341 2 7.71077 13.9115 10.7078
348 2 2.80607 13.4583 14.984
145 2 4.08931 8.56363 8.67912
148 2 10.337 8.87958 13.1791
249 2 7.74619 7.2197 16.4715
327 2 8.23083 9.48249 15.9963
325 1 8.55383 10.5588 16.4161
208 3 3.68329 8.04428 12.8153
102 2 9.24328 12.4288 9.45803
ITEM: TIMESTEP
100
ITEM: NUMBER OF ATOMS
350
ITEM: BOX BOUNDS xy xz yz pp pp pp
-6.7108999999999996e+00 1.5238200000000001e+01 -6.2626999999999997e+00
-6.4200000000000002e-01 1.4502800000000001e+01 -4.4819999999999999e-01
0.0000000000000000e+00 1.6838415000000001e+01 -6.4200000000000002e-01
ITEM: ATOMS id type x y z
7 4 -0.78772 2.68695 3.51625
180 3 3.10472 0.528752 3.40151
14 4 0.152082 4.95934 1.73834
17 4 -0.695021 6.15473 6.3778
26 4 4.56216 1.45176 3.61938
318 2 0.925148 0.676714 0.243752
33 4 1.54971 6.06278 4.23138
319 1 -1.02545 3.18244 8.3093
36 4 4.50319 5.5652 5.3642
57 1 1.31863 0.74025 6.67014
62 1 4.78177 3.03747 2.54392
77 2 0.835431 2.96928 3.94052
201 3 4.18576 6.80516 6.41576
79 2 -0.522622 4.94793 7.65274
82 2 4.57854 1.92987 1.544
181 3 3.50907 0.643958 8.34584
104 2 1.55388 0.725042 5.55776
105 2 1.38568 1.76528 7.14434
117 2 3.88974 2.97315 4.25202
118 2 4.20287 3.89841 2.13344
119 2 5.90373 3.27937 2.74025
164 3 -1.25513 3.79373 2.39259
165 3 1.09562 4.09346 0.709885
166 3 -0.536442 6.25597 1.11979
167 3 -2.10948 5.82123 5.6795
182 3 5.92737 1.03014 4.28129
320 2 -1.14801 3.18108 7.14619
189 3 1.09114 5.23161 2.98321
190 3 0.5389 6.02757 5.41712
191 3 5.52812 2.25102 8.07861
194 3 3.05842 5.4176 4.6257
195 3 4.66863 4.1226 6.3316
334 2 0.867407 0.660212 1.91282
316 2 1.9985 1.81153 1.33797
315 1 1.84025 1.36227 0.320951
103 2 0.410596 0.157946 6.93086
269 2 6.26025 2.72169 1.21856
272 2 4.70263 5.68002 0.057961
121 2 2.48955 3.00022 8.36813
8 4 0.739507 2.38885 16.2921
324 2 0.33281 -0.318331 14.7638
13 4 0.857102 1.62362 10.9863
18 4 -0.453215 3.85575 12.7062
19 4 -1.4092 6.22565 10.7211
28 4 4.53053 1.6534 9.10436
31 4 3.41303 1.98108 14.5217
35 4 1.44515 5.88021 9.85972
11 4 2.53463 -0.328461 12.8327
63 1 3.28944 3.18684 9.15975
64 1 3.84297 3.03869 13.0259
67 1 2.28999 5.48044 14.2588
83 2 1.71029 2.06587 9.49301
317 2 2.34626 0.254551 16.6667
85 2 0.537709 4.50977 13.904
308 2 -2.71449 6.46231 13.8463
110 2 -2.56901 5.50525 8.69416
120 2 2.98924 3.10754 10.2755
200 3 2.18194 6.5509 8.65691
122 2 3.93927 4.10544 8.90303
123 2 2.86178 3.50263 12.7772
124 2 4.25768 2.39841 12.1403
125 2 4.57552 3.75933 13.3654
132 2 2.02137 4.453 14.9003
133 2 3.40773 5.71287 14.1847
134 2 1.76137 5.53714 13.1829
161 3 -0.643964 1.99445 15.6682
162 3 -0.38483 0.720988 10.4794
163 3 1.85095 0.622363 11.8434
168 3 -1.6757 3.11382 13.3769
169 3 0.438395 2.89891 11.7721
170 3 -1.04711 5.11601 11.8082
84 2 1.59594 4.18222 9.69037
184 3 3.17735 0.474923 14.0357
185 3 4.65257 2.31245 15.5464
186 3 1.81968 2.75621 15.235
187 3 5.06843 1.46426 10.5815
135 2 4.58382 4.87811 11.4738
193 3 -0.132849 6.31388 9.73987
198 3 2.27047 6.32055 11.111
322 2 -1.61822 3.95599 8.8728
321 2 0.114542 3.0586 8.66005
336 2 -2.06263 6.16612 15.7207
197 3 0.4602 6.51684 16.0519
1 4 -4.14443 14.0741 2.55378
2 1 -4.63986 12.72 3.72794
3 2 -4.41048 12.5993 4.77905
114 2 -3.85856 9.64912 5.72012
6 3 -3.6118 13.276 1.26848
111 2 -2.38857 9.09871 3.36451
20 4 -1.67597 9.98756 1.298
22 4 -1.39808 9.14867 7.35382
80 2 -3.07094 8.81192 8.00316
39 4 -0.318358 11.6635 3.73177
40 4 2.97071 7.40189 7.5163
42 4 1.88975 10.9669 6.0346
60 1 -2.72421 8.69647 2.329
61 1 -2.88985 9.82552 6.42753
69 1 0.447851 13.1449 2.89218
70 1 -1.64702 12.4143 4.91381
87 2 1.60302 7.70366 3.786
88 2 1.74724 8.18573 6.34286
100 2 0.671104 10.5771 7.39014
78 2 -2.45945 13.895 5.90188
71 1 2.39466 9.44366 7.55481
287 2 2.51696 8.21148 2.21987
115 2 -1.59406 9.81561 5.45502
116 2 -3.06997 10.7752 7.03191
138 2 0.123754 13.2425 1.8031
9 4 -3.52619 14.1789 7.29042
140 2 0.134955 14.1188 3.53938
141 2 -1.76231 11.8229 5.85019
142 2 -2.69587 12.74 4.47496
143 2 -1.01039 13.3707 5.03581
171 3 -0.887138 8.81563 0.463833
172 3 -2.74214 10.8493 0.446838
173 3 -0.817347 7.70213 6.98413
174 3 -4.12745 12.7387 7.76838
4 2 -4.38198 11.8144 3.22295
199 3 -1.0042 10.8383 2.55887
202 3 -0.388131 10.4709 8.39147
203 3 0.500264 13.1379 8.14621
205 3 0.775114 10.8683 4.70848
337 2 -2.75499 8.43918 5.06491
278 1 1.84547 9.13441 2.47974
285 2 1.08861 9.41979 1.7123
286 2 1.58302 9.2597 3.56751
139 2 1.53236 12.7292 3.05783
21 4 -2.8668 12.3623 0.0313277
112 2 -2.38184 7.59734 2.03997
113 2 -3.84474 8.91649 2.11031
45 4 2.04847 11.372 11.4339
23 4 -4.63341 11.9089 8.92973
24 4 -2.88881 8.99972 11.6618
25 4 -2.32234 12.0005 11.0589
30 4 0.965873 13.7226 13.3184
37 4 1.82716 6.94077 15.4082
41 4 0.154534 12.0385 9.24198
43 4 2.58072 9.22457 13.4918
44 4 -0.538073 12.0991 15.4672
210 3 -0.296611 13.1709 14.2927
72 1 -3.95567 8.51456 13.1091
73 1 -0.810773 10.4012 14.5913
213 3 1.7417 9.96495 12.1361
339 2 -5.06021 13.3646 13.5362
211 3 -1.83828 12.413 16.411
214 3 1.56196 12.5823 12.3901
38 4 3.59852 7.02238 11.5642
149 2 -3.68519 9.31557 13.8218
150 2 0.193512 9.8115 14.5972
151 2 -1.31821 10.4526 13.5629
152 2 -1.54641 9.93746 15.3261
175 3 -2.06113 7.62132 11.1573
176 3 -4.25144 11.7673 15.5445
177 3 -3.50666 11.6586 9.98066
178 3 -2.12335 10.3313 11.9454
179 3 -2.81845 13.1369 12.033
209 3 0.856015 11.9428 16.4245
196 3 2.87722 7.14613 16.5299
212 3 1.68218 11.5381 9.88713
204 3 -0.843758 12.4441 10.3624
207 3 1.55727 8.55433 14.494
147 2 -3.70905 7.44211 13.5287
81 2 -4.37469 9.36802 10.7389
208 3 3.53591 8.08516 12.6757
16 4 -0.917742 6.71913 16.7999
146 2 1.55559 9.45592 8.4363
15 4 11.9218 6.8182 5.21636
46 4 9.67293 2.49468 3.38621
49 4 12.0683 1.90328 5.12457
50 4 10.9742 5.2136 2.72162
51 4 7.41045 6.33224 4.75565
228 3 10.7479 6.92549 6.35709
53 4 10.4124 3.43235 7.41062
54 4 9.43716 6.26334 6.94649
346 2 9.55813 0.473378 0.520585
91 2 9.38161 1.79931 1.80294
94 2 12.4367 4.34855 2.44076
95 2 8.38583 5.12805 4.04309
34 4 5.98744 3.49198 7.03999
347 2 7.65817 0.43344 1.07868
297 3 12.1324 1.73433 0.749598
129 2 6.68399 5.69059 7.80623
192 3 7.13288 3.00012 5.99752
215 3 8.44959 1.81442 4.133
219 3 13.5178 2.64795 4.90458
220 3 11.1249 1.94536 3.75462
221 3 12.3265 0.196301 5.65804
222 3 9.66951 4.19411 3.43938
223 3 11.3251 6.34412 3.79523
224 3 5.90287 5.82503 4.60608
225 3 10.6071 5.80505 1.32873
268 1 5.77699 5.23173 0.139516
227 3 11.2513 2.66262 6.31114
226 3 9.67039 2.37704 8.38876
229 3 8.04038 6.61905 6.18097
230 3 9.63564 4.70796 7.11201
216 3 13.1308 0.582556 8.13119
294 4 13.0287 0.677837 1.71639
183 3 7.70132 0.396259 6.3663
296 3 14.19 1.20388 2.62308
29 4 7.41949 1.53394 5.29917
280 2 5.45253 7.01191 1.00584
279 1 8.76224 -0.0308204 1.18706
271 2 6.17528 5.13815 1.2626
52 4 10.2513 7.2229 0.729965
340 2 12.566 4.32696 0.0371127
10 4 13.6818 1.59467 9.26202
310 2 11.6103 5.86288 15.4162
32 4 6.85237 1.53815 11.1067
48 4 9.40289 1.05926 9.23833
58 1 12.3179 2.14306 10.5697
65 1 7.24331 3.35266 11.3845
68 1 5.00544 5.77974 11.9807
93 2 10.726 0.951819 10.3064
188 3 6.85681 0.562474 12.4765
106 2 12.043 1.18834 11.11
107 2 11.4155 2.64505 10.0304
108 2 12.7853 2.89971 11.319
126 2 8.36017 3.44302 11.7279
127 2 6.50977 3.60694 12.1937
128 2 7.04128 3.8894 10.2777
342 2 11.5191 5.97004 10.1683
136 2 4.95184 5.63615 13.1191
12 4 13.5782 1.80121 14.4242
109 2 12.391 4.14175 10.1027
96 2 9.35225 6.28855 15.8909
130 2 7.6958 4.25651 8.66549
218 3 8.08969 1.24033 10.1047
243 1 8.08973 6.07064 11.0363
131 2 5.84909 4.79082 9.32877
248 2 7.82771 6.37224 14.8683
256 2 7.53561 5.54652 10.1243
257 2 7.93918 5.54758 11.9752
258 2 9.25004 6.22979 10.7512
298 4 11.4115 2.16108 16.4563
299 4 8.76724 2.91899 15.2173
300 4 10.1068 5.13537 13.4363
301 1 10.3106 3.72795 12.1403
302 1 11.8448 5.62857 14.3538
303 2 8.62739 1.75419 13.9269
304 2 9.35202 6.40207 12.5793
305 2 9.90676 2.70254 12.3921
306 2 11.5202 3.73754 12.2903
307 2 9.9906 4.11511 11.133
349 2 8.15183 0.542025 15.1446
309 2 12.2581 4.55432 14.1477
137 2 6.12214 5.90963 11.6268
311 3 11.9817 1.66047 15.0709
312 3 9.9309 2.52433 16.2169
313 3 7.33515 2.96203 15.8672
314 3 9.17325 4.41938 14.4551
328 1 8.66041 -0.157886 14.4425
329 2 9.43587 0.352094 13.794
335 2 14.2037 0.452482 13.6121
267 4 5.86478 2.86163 16.5037
66 1 6.68278 4.74661 8.46037
59 1 12.4115 5.32369 9.7923
270 2 6.12673 5.16338 16.2714
97 2 11.4995 4.18716 8.45296
156 2 11.0344 9.23375 3.51994
144 2 3.19545 10.0914 7.91078
55 4 8.60914 8.77794 3.06836
332 2 5.82823 12.2237 1.59324
74 1 7.5787 10.533 2.75192
75 1 9.96645 9.48865 4.16332
206 3 2.47327 12.3528 6.29444
92 2 4.94337 13.542 7.55574
47 4 6.36699 14.0901 6.99247
5 2 9.3958 13.0805 3.61063
153 2 7.38806 10.2549 1.7508
154 2 8.01721 11.5946 2.64645
155 2 6.59601 10.455 3.3325
345 2 9.7885 11.0208 0.38446
157 2 9.86168 8.70942 5.08542
158 2 9.77066 10.5657 4.39589
275 4 2.68404 12.7566 0.364424
27 4 1.79894 13.7535 7.36052
232 3 9.19588 8.06981 1.47753
330 1 6.43074 13.1613 1.96083
273 4 4.69268 8.30531 0.233006
274 4 3.41008 10.3346 2.243
250 2 9.08608 8.90102 8.30407
276 4 4.83872 11.7573 4.65866
277 4 7.11142 11.2579 6.11541
331 2 7.28665 12.861 2.66383
295 2 7.27944 13.5935 0.679236
281 2 5.80336 12.8884 3.76103
282 2 3.78863 12.9175 5.2483
283 2 7.96313 11.1697 4.55792
284 2 7.92448 10.1066 7.15915
217 3 3.21304 14.1458 8.33402
289 3 4.58003 9.45023 1.34311
231 3 7.76696 7.71304 3.8967
291 3 3.97367 10.7859 3.70292
292 3 5.57357 11.0558 5.83799
293 3 7.3028 12.6963 6.88625
290 3 2.87677 11.6849 1.53667
333 2 5.36769 14.2838 2.76376
338 2 10.1074 10.3841 8.38578
89 2 3.21494 9.7551 5.86003
99 2 11.6992 8.11754 0.62104
288 2 2.86062 14.4166 2.2484
344 2 8.14811 13.2607 13.5724
56 4 4.50584 11.3623 15.2214
76 1 5.38364 12.5781 14.1214
86 2 4.53889 7.58944 10.1252
90 2 3.79339 11.5475 11.3495
101 2 5.6893 10.5293 16.1667
254 2 6.22264 8.76182 8.58989
252 2 9.65288 9.76482 9.90347
159 2 5.17018 12.025 13.1118
160 2 6.61149 12.8295 14.3865
102 2 9.24483 12.5817 9.5896
233 3 3.50943 10.3291 14.2773
234 3 3.68916 12.3603 16.1456
235 4 9.42774 11.4191 15.0295
236 4 6.24781 8.1049 14.5602
237 4 7.86928 7.98178 10.6329
238 4 7.80702 10.0947 12.9028
239 4 6.78835 12.3943 10.9581
240 1 7.9368 7.49715 15.2533
241 1 9.57776 8.76508 9.35639
242 1 6.29635 8.28549 9.58794
244 1 5.1728 11.9215 9.93115
246 2 6.61371 11.8529 9.07497
247 2 8.79034 8.03689 14.7615
326 2 7.69882 11.41 16.5012
251 2 10.5225 8.21388 9.34794
343 2 7.78904 13.5141 15.4752
253 2 6.04121 7.11362 9.56122
323 1 8.54097 13.3557 14.6682
255 2 5.76963 8.89584 10.4759
259 2 4.28931 12.1617 9.14835
260 2 5.07599 13.0186 11.1791
261 2 4.95153 10.8896 10.3514
262 3 5.27038 7.90716 15.7884
263 3 6.70065 9.58957 14.1604
264 3 8.01601 8.72048 12.007
265 3 9.21248 10.5983 13.6859
266 3 7.18578 11.2584 11.9914
245 2 5.78544 7.11717 13.1892
350 2 4.7541 13.5521 14.203
341 2 7.73878 13.822 10.9458
348 2 2.91194 13.5093 15.0953
145 2 3.75375 8.56174 8.5822
148 2 10.2068 8.58977 12.6362
249 2 7.97078 7.61188 16.3946
327 2 8.18721 9.44364 16.0075
325 1 8.57048 10.4906 16.3707
98 2 9.28257 6.93953 8.56029
ITEM: TIMESTEP
200
ITEM: NUMBER OF ATOMS
350
ITEM: BOX BOUNDS xy xz yz pp pp pp
-6.7108999999999996e+00 1.5238200000000001e+01 -6.2626999999999997e+00
-6.4200000000000002e-01 1.4502800000000001e+01 -4.4819999999999999e-01
0.0000000000000000e+00 1.6838415000000001e+01 -6.4200000000000002e-01
ITEM: ATOMS id type x y z
7 4 -0.795677 2.7962 3.40031
180 3 3.30757 0.41027 3.40751
14 4 0.169052 5.09137 1.75156
17 4 -0.666876 6.14688 6.43261
26 4 4.50516 1.49198 3.69093
318 2 0.937041 0.747453 0.19416
33 4 1.59195 6.06493 4.24057
319 1 -0.921453 3.21626 8.31178
36 4 4.42378 5.55818 5.55624
57 1 1.17852 0.659058 6.72861
62 1 4.83972 3.06351 2.47513
77 2 0.860402 2.92714 3.81127
201 3 4.20746 6.77725 6.62529
79 2 -0.433483 5.09363 7.71709
82 2 5.03994 1.70436 1.68571
272 2 4.8665 5.64389 0.0387631
104 2 1.4651 0.656794 5.57905
105 2 1.07485 1.664 7.16475
117 2 3.94587 3.21038 4.08647
118 2 4.43617 3.8497 1.76128
119 2 5.861 3.38819 2.86173
164 3 -1.32571 4.00892 2.44871
165 3 0.901372 4.10959 0.601953
166 3 -0.542772 6.35949 1.27432
167 3 -2.10534 5.75698 5.8409
182 3 5.75828 1.07017 4.54862
320 2 -0.985345 3.22304 7.19658
189 3 1.11287 5.25372 2.99755
190 3 0.55396 6.10665 5.46657
191 3 5.55986 2.09693 8.09035
194 3 3.10238 5.45617 4.65719
195 3 4.63226 4.07086 6.40528
334 2 1.19303 0.583984 1.89417
316 2 2.08767 1.90017 1.28194
315 1 1.8835 1.40121 0.284346
103 2 0.208821 -0.00793069 6.97484
269 2 6.3053 2.67077 1.13918
200 3 2.16384 6.37086 8.35159
8 4 0.7716 2.37956 16.2359
181 3 3.5475 0.575109 8.46535
13 4 0.900894 1.56993 10.9794
18 4 -0.391596 3.84692 12.7303
19 4 -1.32451 6.09152 10.7417
28 4 4.45362 1.71307 9.10599
31 4 3.50221 2.02142 14.3849
35 4 1.49316 5.84101 9.68953
11 4 2.47396 -0.366095 12.8512
63 1 3.38027 3.37034 9.31436
64 1 3.99748 2.95899 12.8282
67 1 2.39354 5.524 14.3109
83 2 1.73129 2.28384 9.69368
317 2 2.30324 0.35699 16.6052
85 2 0.601091 4.71658 13.7709
308 2 -2.68203 6.17057 13.2736
110 2 -2.249 5.63664 8.62099
120 2 2.92853 3.36524 10.3218
121 2 2.63127 3.12265 8.47746
122 2 3.98955 4.30245 9.13607
123 2 3.00824 3.49072 12.6265
124 2 4.41839 2.35802 11.9153
125 2 4.81445 3.68034 13.3273
132 2 2.16713 4.41767 14.6575
133 2 3.53975 5.70211 14.2987
134 2 1.8682 5.77394 13.3245
161 3 -0.645227 1.83518 15.6906
162 3 -0.290193 0.681237 10.3432
163 3 1.90145 0.711935 11.7808
168 3 -1.4177 2.95695 13.5302
169 3 0.381281 2.88042 11.7604
170 3 -1.10746 5.02457 11.9933
84 2 1.59208 4.14148 9.64723
184 3 3.23999 0.452126 13.9882
185 3 4.59871 2.37863 15.5601
186 3 1.86602 2.77923 15.1339
187 3 5.10495 1.43652 10.5388
135 2 4.72634 4.99666 11.2394
193 3 -0.0726543 6.13277 9.73062
198 3 2.37877 6.31088 10.8888
322 2 -1.55558 4.06771 8.8112
321 2 0.16322 3.13412 8.73947
336 2 -2.39791 6.27578 15.8726
197 3 0.278292 6.46686 15.8948
1 4 -3.99739 13.9229 2.69122
2 1 -4.76239 12.7661 3.92694
3 2 -4.45718 12.7803 5.05182
114 2 -3.75871 9.68459 5.56438
6 3 -3.4304 13.0826 1.43597
111 2 -2.42492 9.11063 3.23765
20 4 -1.7066 9.83936 1.20335
22 4 -1.28671 9.19413 7.28058
80 2 -3.08146 9.17852 7.83704
39 4 -0.344965 11.6456 3.62551
40 4 2.87502 7.38134 7.43924
42 4 1.71097 11.1132 5.90856
60 1 -2.90614 8.64854 2.24152
61 1 -2.8656 9.95707 6.31871
69 1 0.255971 13.2885 2.89015
70 1 -1.77225 12.4141 4.81758
87 2 1.824 7.72054 3.81138
88 2 1.75495 8.26342 6.39567
100 2 0.567896 10.8458 7.29195
78 2 -2.54446 13.8924 5.88795
71 1 2.49688 9.67616 7.51623
287 2 2.20063 8.00904 2.06451
115 2 -1.37651 9.87915 5.60364
116 2 -2.95272 11.04 6.59261
138 2 -0.121272 13.3917 1.82749
9 4 -3.59564 14.1654 7.25031
140 2 0.0362233 14.2478 3.49994
141 2 -1.61819 11.7876 5.78695
142 2 -2.86192 12.5216 4.48245
143 2 -1.13617 13.3829 4.85031
171 3 -0.661935 8.85804 0.367575
172 3 -2.72538 10.7312 0.407668
173 3 -0.857909 7.6409 7.15468
174 3 -4.18252 12.801 7.67987
4 2 -4.72575 11.8141 3.27752
199 3 -0.93212 10.7455 2.4345
202 3 -0.457501 10.6667 8.24861
203 3 0.601681 13.2038 8.1313
205 3 0.777106 11.0844 4.62646
337 2 -2.60577 8.33344 5.25278
278 1 1.94165 9.01856 2.34204
285 2 1.10262 9.46205 1.73231
286 2 1.88508 9.33548 3.45738
139 2 1.38992 12.9281 3.00444
21 4 -2.84766 12.318 0.0540116
112 2 -2.68031 7.56306 2.1953
146 2 1.49348 9.34144 7.73294
5 2 -5.85693 13.2981 3.76229
89 2 2.9692 9.57592 5.88822
324 2 -5.93448 13.8825 14.9461
23 4 -4.57644 11.9166 8.96804
24 4 -2.76008 9.08131 11.6298
25 4 -2.28444 11.9958 11.1212
30 4 0.895924 13.8604 13.3336
37 4 1.77885 7.01556 15.3847
41 4 0.215161 12.153 9.2602
43 4 2.58132 9.23492 13.4187
44 4 -0.539731 12.0208 15.5357
210 3 -0.166349 13.0857 14.3043
72 1 -3.97504 8.67758 13.0261
73 1 -0.907147 10.316 14.7594
213 3 1.98571 10.1546 12.1914
339 2 -5.15701 13.4591 13.5523
211 3 -1.85213 12.3041 16.426
147 2 -3.78531 7.58415 13.3279
38 4 3.61486 7.11228 11.5148
149 2 -3.69694 9.46288 13.7926
150 2 -0.0299842 9.58893 14.6947
151 2 -1.40874 10.5206 13.6963
152 2 -1.70124 9.94463 15.4373
175 3 -2.04162 7.65801 11.2855
176 3 -4.41971 11.9804 15.6151
177 3 -3.41643 11.5535 9.95584
178 3 -1.95436 10.4442 11.9088
179 3 -2.98198 12.9757 12.1206
209 3 0.714653 12.1123 16.5465
196 3 2.92175 7.14215 16.4649
212 3 1.58771 11.6057 10.0179
204 3 -0.908624 12.4519 10.2447
207 3 1.3894 8.51869 14.3765
16 4 -1.01585 6.6823 16.8232
81 2 -4.22331 9.42554 10.6575
208 3 3.48598 7.88993 12.8269
15 4 11.9494 6.73857 5.30065
46 4 9.74346 2.43671 3.41254
49 4 12.0101 1.90981 5.24618
50 4 10.9473 5.16331 2.77068
51 4 7.44757 6.41681 4.74855
228 3 10.7096 6.80389 6.34315
53 4 10.4465 3.40392 7.51785
54 4 9.39841 6.18675 6.93931
346 2 10.0606 0.326478 0.706524
91 2 9.7166 1.89066 1.82073
94 2 12.3456 4.13684 2.65243
95 2 8.40611 5.18616 4.01261
34 4 5.97151 3.38439 7.07487
347 2 8.24936 0.692616 1.00058
297 3 12.0927 1.5745 0.764829
129 2 6.80203 5.59222 7.72933
192 3 7.05798 2.93553 5.97045
215 3 8.54668 1.75418 4.13185
219 3 13.6008 2.67821 4.78034
220 3 11.1436 1.86536 3.855
221 3 12.3388 0.35935 5.73242
222 3 9.67792 4.21635 3.34015
223 3 11.4403 6.32177 3.84367
224 3 5.96413 5.88309 4.78481
225 3 10.5427 5.76638 1.35108
268 1 5.9482 5.27538 0.234078
227 3 11.2198 2.74516 6.39223
226 3 9.60624 2.32234 8.32244
229 3 8.01328 6.74952 6.19801
230 3 9.53106 4.64231 7.19103
216 3 13.1706 0.634272 8.15923
294 4 12.9478 0.683198 1.69966
183 3 7.77007 0.361455 6.1954
296 3 14.3625 1.45919 2.57028
29 4 7.37601 1.48884 5.22253
280 2 5.27028 6.9086 1.10873
279 1 9.07631 0.0709755 1.31053
271 2 6.2718 5.30296 1.35307
340 2 12.6124 4.07658 0.213417
52 4 10.2468 7.20904 0.837694
97 2 11.7251 4.13885 8.38781
66 1 6.74019 4.69956 8.41536
10 4 13.7205 1.60718 9.1769
310 2 11.403 6.60515 14.7659
32 4 6.91148 1.44659 11.2094
48 4 9.35079 0.959877 9.14138
58 1 12.305 2.15928 10.439
65 1 7.35661 3.27265 11.2341
68 1 5.06982 5.90386 11.8474
93 2 10.731 0.989591 10.1598
188 3 7.04655 0.841343 12.6937
106 2 11.9481 1.18639 11.0732
107 2 11.4785 2.60947 9.82928
108 2 12.8548 2.91688 11.1415
126 2 8.5392 3.44848 11.5407
127 2 6.73168 3.62609 12.0742
128 2 7.10286 3.81225 10.2512
342 2 11.5523 6.02915 10.0412
136 2 4.88153 5.64508 12.9742
12 4 13.5694 1.78312 14.5211
109 2 12.3926 4.15902 10.022
96 2 9.34468 6.30181 16.0636
130 2 7.76796 4.24998 8.63776
218 3 8.01678 0.962658 10.2105
243 1 8.1649 6.14125 11.02
131 2 6.10166 4.84507 9.28804
248 2 7.80907 6.44753 14.6512
256 2 7.68382 5.50704 10.0048
257 2 7.80298 5.64017 12.0368
258 2 9.35984 6.22879 10.8111
298 4 11.281 2.08265 16.5136
299 4 8.75499 2.91508 15.2492
300 4 10.1514 5.11341 13.4266
301 1 10.5003 3.90097 11.967
302 1 11.9226 5.77071 14.107
303 2 8.73323 1.65663 14.0842
304 2 9.40095 6.43659 12.5712
305 2 10.1976 2.8193 12.0768
306 2 11.6415 4.03902 12.0508
307 2 10.1089 4.31374 11.0267
349 2 8.2136 0.360803 15.2038
309 2 12.3229 4.97292 14.7998
137 2 6.25492 6.10008 11.6713
311 3 11.8728 1.64968 15.129
312 3 9.67767 2.48311 16.3886
313 3 7.32731 2.98742 15.7745
314 3 9.15352 4.33974 14.4987
328 1 8.72663 -0.305123 14.4646
329 2 9.58213 0.201399 13.8965
335 2 13.6949 0.206089 13.7743
267 4 5.88494 2.90174 16.4572
270 2 6.23839 5.22625 16.3819
59 1 12.467 5.37794 9.74489
250 2 9.40769 8.77918 8.23738
144 2 2.81889 10.6849 8.05598
55 4 8.47593 8.8053 3.09274
332 2 5.74704 12.4188 1.53676
74 1 7.29876 10.4398 2.96078
75 1 9.89241 9.28607 4.31197
206 3 2.53726 12.3495 6.21166
92 2 4.78871 13.6296 7.503
47 4 6.3002 14.0585 6.99354
99 2 11.7726 7.92656 0.500223
153 2 7.06946 10.196 1.88421
154 2 7.66293 11.5324 3.22376
155 2 6.38046 10.2226 3.57091
345 2 10.0088 10.815 0.403281