ITEM: TIMESTEP
0
ITEM: NUMBER OF ATOMS
350
ITEM: BOX BOUNDS xy xz yz pp pp pp
-6.7108999999999996e+00 1.5238200000000001e+01 -6.2626999999999997e+00
-6.4200000000000002e-01 1.4502800000000001e+01 -4.4819999999999999e-01
0.0000000000000000e+00 1.6838415000000001e+01 -6.4200000000000002e-01
ITEM: ATOMS id type x y z
7 4 -0.701209 2.37227 3.60913
316 2 2.88387 1.1787 0.142716
14 4 0.305334 4.73306 2.03529
321 2 -0.240161 2.5963 8.073
26 4 4.29097 1.4889 3.12552
34 4 5.35363 3.73202 6.83453
33 4 1.27197 6.48091 4.06356
318 2 1.30454 0.676875 1.18066
36 4 4.25624 5.91637 5.09811
57 1 1.19842 0.154652 6.06757
62 1 2.95046 2.54219 3.87599
77 2 0.952532 2.65918 4.00271
195 3 3.98244 4.47152 5.75578
79 2 -0.23102 6.29518 8.3004
82 2 4.57954 2.16567 1.52018
180 3 3.66298 0.00735983 2.87098
103 2 0.747939 1.15702 6.28051
315 1 1.67858 1.0541 0.190326
117 2 2.39268 1.60948 4.36217
118 2 2.32491 3.09013 3.07347
119 2 3.41617 3.33513 4.65849
164 3 -1.15717 3.52882 2.65784
165 3 1.19995 3.71149 1.13777
166 3 -0.14616 6.05761 1.16266
167 3 -2.22736 6.37787 6.50145
182 3 5.66046 1.55625 4.05835
200 3 2.49937 6.79786 8.2512
189 3 0.907699 5.15407 3.39205
190 3 0.429419 6.93811 5.64287
191 3 4.86808 2.69845 7.94864
194 3 2.84033 6.45909 4.25696
105 2 1.82567 0.156431 5.0964
185 3 5.21722 2.80056 0.200123
9 4 2.58836 -0.212003 7.23282
8 4 0.919716 2.26857 16.6043
11 4 3.02187 -0.0344182 13.3671
13 4 0.905707 1.57823 11.7439
18 4 -0.773989 3.87567 12.8851
19 4 -1.33407 6.24693 10.7257
28 4 4.09358 1.90439 9.06729
31 4 3.8322 2.32744 15.2404
35 4 1.88611 5.98783 9.46184
322 2 -0.333401 3.18048 9.87727
63 1 3.27209 3.29283 10.2813
64 1 4.55887 3.68592 14.236
67 1 1.58627 5.76527 13.766
83 2 1.77788 2.07078 10.3618
198 3 2.77543 6.38203 10.7113
85 2 0.0176616 4.61478 14.1999
317 2 0.8548 -0.161476 16.1208
336 2 -2.25431 6.32553 16.1524
120 2 3.9385 2.97687 11.166
121 2 2.32705 3.76911 10.7226
122 2 3.8569 4.15186 9.56704
123 2 4.47979 3.2437 13.1747
125 2 3.8292 4.56637 14.4075
324 2 0.478607 0.183376 14.4064
132 2 1.72131 4.8137 14.3869
133 2 2.45606 6.00807 13.0617
134 2 0.587226 6.008 13.2958
161 3 -0.364889 2.17082 15.6061
162 3 -0.309125 0.814841 11.1106
163 3 1.93335 0.767586 12.5504
59 1 -2.67636 5.48526 9.72271
169 3 0.504588 2.95749 12.3946
170 3 -1.10466 5.16089 11.8606
84 2 2.12582 4.36629 9.08816
184 3 3.81885 1.14178 14.1326
110 2 -2.13915 5.09933 8.76442
186 3 2.37368 2.60128 15.7288
187 3 5.1297 1.34729 10.1554
319 1 -0.896875 2.68653 9.02773
193 3 0.328564 6.01703 9.67558
272 2 4.8378 4.6567 16.6386
181 3 2.8451 1.07511 8.4389
1 4 -3.57321 13.3502 2.31528
2 1 -4.6138 12.1533 3.54261
3 2 -3.43017 11.5415 3.50596
5 2 -5.06338 12.3373 4.56693
6 3 -3.53281 13.0097 0.846997
111 2 -3.04358 8.15157 1.06496
20 4 -1.64258 10.0243 1.38762
22 4 -1.98222 9.73254 7.72026
138 2 0.0977197 14.295 3.43839
39 4 -0.502664 11.7145 4.04991
40 4 2.96512 7.71994 7.03535
42 4 1.88316 11.175 5.70231
60 1 -3.34131 9.16388 1.45167
61 1 -3.46503 10.2028 6.5087
69 1 0.434294 13.2995 2.99686
70 1 -1.75088 12.5965 5.13136
87 2 0.976816 7.79369 2.99069
88 2 1.63144 8.02777 6.0582
100 2 1.89589 10.1554 7.07465
287 2 2.68598 8.73378 4.28365
112 2 -3.88349 9.74181 0.586795
104 2 -5.87185 13.8371 6.09486
115 2 -2.74184 10.281 5.59178
116 2 -3.72165 11.2903 6.88527
78 2 -2.12305 13.959 6.51697
139 2 0.0853998 13.141 1.96147
140 2 1.5258 13.0362 3.20723
141 2 -1.29661 12.2568 6.15081
142 2 -2.86436 12.5498 5.13721
143 2 -1.42707 13.7003 4.78678
171 3 -0.547583 8.65793 1.03063
172 3 -1.8588 11.0457 0.157059
173 3 -1.11002 8.58305 7.19128
174 3 -4.12796 12.9599 7.92017
337 2 -3.38769 8.50764 5.4463
199 3 -1.20919 10.718 2.77774
202 3 -1.19848 10.9588 8.24595
203 3 0.237806 13.1781 7.90296
205 3 0.523048 11.0562 4.98329
334 2 -5.23719 13.7625 2.66145
278 1 2.39489 9.11397 3.28028
285 2 2.51114 8.23303 2.4842
286 2 1.41094 9.57308 3.24227
290 3 2.24234 11.1698 1.41338
17 4 -0.868854 7.0667 6.85128
16 4 -0.373865 7.31379 0.238451
114 2 -4.35143 9.60808 6.411
80 2 -3.18482 9.13085 8.84334
23 4 -4.71103 12.4624 9.28692
24 4 -2.78213 9.17647 11.6189
25 4 -2.40807 12.4569 11.2777
197 3 0.34687 6.94048 16.0204
37 4 1.61299 7.23891 15.0931
41 4 -0.373807 12.1327 8.9564
43 4 2.58587 9.4602 13.184
44 4 -0.283366 12.5445 15.1919
45 4 1.87201 11.3352 10.9533
72 1 -3.37708 8.93582 13.3714
73 1 -0.516968 10.7811 14.4127
213 3 1.53884 10.0753 11.8961
339 2 -4.17299 13.6424 14.5789
21 4 -3.04998 11.7707 16.412
147 2 -2.62084 8.12559 13.6879
38 4 3.76273 7.55067 11.0637
149 2 -3.21966 10.0229 13.8293
150 2 -0.405444 10.075 15.2931
151 2 0.294178 10.5562 13.5795
152 2 -1.57895 10.7667 13.9896
175 3 -1.87346 7.88263 11.3073
176 3 -4.13421 11.4921 15.2681
177 3 -3.81169 12.5342 10.5844
178 3 -2.28442 10.6313 11.6423
179 3 -2.36961 13.346 12.6412
196 3 2.98301 6.96778 15.9155
81 2 -4.12351 9.16288 10.3516
323 1 -6.10572 13.6098 14.3657
204 3 -1.25642 12.889 10.1626
207 3 1.65493 8.66453 14.3023
209 3 0.564482 12.557 16.5251
210 3 0.457717 13.3233 14.0207
211 3 -1.79575 12.7707 15.7078
212 3 0.977853 11.4085 9.63958
208 3 3.4059 8.35569 12.3512
146 2 2.74175 9.36802 8.70791
344 2 -6.26979 13.3213 13.2635
15 4 11.6418 6.82847 5.72841
46 4 9.77563 2.28568 3.71761
49 4 12.2125 1.85678 5.579
50 4 11.1463 5.02589 3.17721
51 4 7.16958 6.07323 4.26067
52 4 9.74389 6.48408 0.959851
53 4 10.5908 3.32502 7.68782
54 4 8.94597 5.76416 6.76086
66 1 5.92162 5.04325 8.04788
91 2 9.73545 1.47059 2.18103
94 2 12.665 4.31741 2.80848
95 2 8.09856 4.98214 3.3471
29 4 7.05527 1.72028 5.11957
280 2 5.30401 6.95125 0.801763
268 1 6.43081 5.44929 0.17284
129 2 5.99302 6.0188 7.46689
192 3 6.57245 3.10308 5.9409
215 3 8.42617 1.93491 4.31321
219 3 13.637 2.26967 4.89502
220 3 10.9696 1.5503 4.39392
221 3 12.6154 0.436273 6.38024
222 3 10.1801 3.73737 3.34986
223 3 11.3882 5.98751 4.38842
224 3 5.59863 5.67252 4.16851
225 3 10.8192 5.61569 1.71452
98 2 8.26353 6.36169 8.25605
227 3 11.7995 2.91458 6.74767
228 3 10.2054 6.71199 6.54513
229 3 7.80136 5.97273 5.6933
230 3 9.48067 4.27097 7.10128
271 2 6.45464 5.76913 1.20008
294 4 13.8733 0.293057 1.4591
347 2 8.242 0.364361 1.28248
296 3 14.5982 1.05065 2.63367
297 3 12.4316 0.805713 0.958667
130 2 6.91462 4.6744 8.39146
340 2 12.7954 3.48835 1.00296
267 4 6.55984 3.51115 0.561901
96 2 8.36166 5.51277 0.644803
269 2 6.77802 3.486 2.22056
183 3 7.17986 0.512844 6.09667
217 3 8.82605 -0.245323 8.25256
298 4 12.063 2.21482 0.142098
312 3 10.5162 2.40247 0.0840126
295 2 15.0977 0.276012 0.189389
10 4 13.8674 1.02374 9.757
335 2 14.033 0.359119 13.6335
32 4 6.62262 1.64282 10.8472
48 4 9.0204 1.06925 9.04189
58 1 11.933 0.63582 10.548
65 1 6.69539 3.40432 11.5919
68 1 5.5995 6.76786 11.3205
93 2 10.0063 0.550841 10.3819
128 2 5.57398 3.67275 11.351
313 3 7.47837 2.45538 16.7298
107 2 11.706 1.69002 9.9548
108 2 11.5379 0.672848 11.6363
126 2 7.42804 4.03248 11.0529
127 2 6.95036 3.28204 12.714
109 2 12.1652 4.70894 10.4611
106 2 11.5651 -0.287157 10.0264
131 2 5.12376 5.11518 8.88037
135 2 6.62714 6.63791 10.9036
188 3 7.33759 0.600208 12.1139
247 2 8.89985 6.55625 14.4551
270 2 6.79258 5.37032 16.2849
218 3 7.77542 1.71933 9.6907
243 1 8.61197 6.52064 10.1889
245 2 6.57858 6.13082 14.0979
248 2 8.33044 5.40008 15.7117
256 2 7.68488 5.90983 9.93028
257 2 8.86 6.51229 11.2889
258 2 9.56808 6.24333 9.65288
124 2 5.64096 3.91635 14.5801
299 4 8.80154 1.94267 15.9743
300 4 9.43081 3.98561 13.5808
301 1 9.92905 3.28097 11.9102
302 1 11.0518 4.91952 14.101
303 2 8.48938 0.435273 15.2984
304 2 8.21266 5.23604 13.4713
305 2 11.0564 3.16014 12.1546
306 2 9.69361 3.84653 11.0084
307 2 9.30144 2.27043 12.1618
308 2 10.958 5.78019 13.3705
309 2 11.904 4.22967 13.8197
310 2 11.1049 5.26189 15.1168
311 3 12.3646 1.43345 15.5398
99 2 9.6594 6.28994 16.2269
342 2 11.9116 6.52744 9.52585
314 3 9.15823 2.94828 14.7695
240 1 8.04711 6.31052 15.0881
329 2 9.78927 0.752881 13.8524
328 1 9.47917 -0.357826 13.8136
97 2 11.2411 4.23769 8.97325
12 4 13.6393 1.73518 14.5675
216 3 14.25 -0.305771 8.46793
136 2 5.11838 5.71289 11.5149
320 2 13.2535 3.0566 8.7968
168 3 13.306 3.03246 13.5618
226 3 9.99444 2.08237 8.43433
279 1 2.74515 14.1946 1.66239
47 4 7.00575 13.7353 7.2785
55 4 8.52059 8.4527 2.86029
332 2 7.85169 12.4948 1.37946
74 1 7.75089 10.2355 2.42496
75 1 9.98018 8.99345 4.00971
327 2 9.65703 11.1901 0.151918
71 1 3.58331 9.33412 7.89585
288 2 2.62943 13.8342 2.68552
144 2 3.64229 10.3399 7.36201
153 2 6.74506 10.5536 2.97942
154 2 7.51531 9.94824 1.37063
155 2 8.57566 11.0894 2.50348
4 2 9.87339 11.6548 2.84699
157 2 9.62341 8.74476 5.04295
158 2 10.1005 10.1635 3.91121
92 2 5.68188 12.9626 8.19909
231 3 7.39339 7.49876 3.67228
232 3 9.18664 7.79209 1.5109
331 2 7.30453 12.82 3.21031
293 3 7.78893 12.5908 6.33345
274 4 3.34864 10.3425 1.99747
275 4 2.34384 12.7642 0.361447
276 4 4.83903 12.3234 3.89016
277 4 7.10183 11.4147 5.58201
333 2 6.04977 12.7725 1.78623
206 3 2.23731 12.672 5.86341
281 2 5.67098 13.7062 3.21134
282 2 3.62708 13.0946 4.81287
283 2 8.06889 10.7614 4.2992
284 2 6.95623 9.99261 6.46473
252 2 10.6687 9.36313 7.91163
289 3 4.11173 9.21849 0.998829
330 1 7.12071 13.0563 2.09527
291 3 4.25168 11.3588 2.81862
292 3 5.70894 11.6614 4.99241
156 2 10.9147 8.36842 3.76172
346 2 3.77427 14.3618 1.22682
254 2 6.85597 8.35349 8.03058
27 4 1.41321 13.7957 7.05748
201 3 4.28613 7.24448 6.29685
113 2 11.193 9.09983 2.40628
89 2 3.0247 10.3316 4.71107
145 2 4.76456 9.10373 8.34591
250 2 8.61934 9.76322 8.54343
56 4 4.1917 11.0965 15.2695
76 1 5.74873 12.0662 14.9305
341 2 6.64736 14.02 11.7905
90 2 3.45041 10.982 10.3281
101 2 5.64921 10.4777 16.044
349 2 3.20686 13.7105 14.8485
345 2 8.15859 12.0795 16.6596
159 2 5.47208 13.1446 15.1454
160 2 5.8753 11.7566 13.7892
86 2 3.81898 8.67767 9.72814
233 3 3.59633 10.5452 13.9417
234 3 3.23107 11.9168 16.2269
273 4 4.14433 7.55534 16.7342
236 4 6.64321 7.86959 14.8782
237 4 8.43206 8.52808 9.87824
238 4 7.82795 9.9225 12.6072
239 4 6.27127 12.3901 11.1813
148 2 10.7614 8.68034 13.1531
241 1 10.1635 8.84088 8.84364
242 1 6.62262 8.78433 9.08085
244 1 5.08052 11.8961 9.70188
246 2 6.88757 12.449 9.52736
251 2 10.0465 7.717 8.64912
249 2 8.04114 7.8998 16.0293
343 2 8.20004 13.3526 15.1354
137 2 5.70307 7.36385 12.3362
253 2 6.14179 7.98099 9.88239
235 4 9.48358 11.5287 14.6962
255 2 6.26685 9.8708 9.1805
259 2 4.36462 12.3372 9.06665
260 2 4.39646 12.4762 11.2359
261 2 5.27752 10.7777 9.54559
262 3 5.30297 7.89109 15.7736
263 3 6.9576 8.89545 13.5845
264 3 8.43192 9.01491 11.4083
265 3 8.97519 10.6863 13.4973
266 3 6.93894 11.1737 11.9776
102 2 8.99218 13.2168 9.4975
325 1 8.50043 10.988 16.2829
326 2 7.64256 10.3401 16.1706
350 2 6.82834 11.7914 15.4293
214 3 1.95066 12.6513 11.8328
30 4 1.54835 13.7913 12.8804
348 2 3.92395 13.55 13.182
338 2 10.1232 10.8071 9.10987
ITEM: TIMESTEP
100
ITEM: NUMBER OF ATOMS
350
ITEM: BOX BOUNDS xy xz yz pp pp pp
-6.7108999999999996e+00 1.5238200000000001e+01 -6.2626999999999997e+00
-6.4200000000000002e-01 1.4502800000000001e+01 -4.4819999999999999e-01
0.0000000000000000e+00 1.6838415000000001e+01 -6.4200000000000002e-01
ITEM: ATOMS id type x y z
7 4 -0.605612 2.50607 3.59108
296 3 -0.548337 1.01941 2.88514
14 4 0.337788 4.81732 1.95416
321 2 -0.775021 2.66582 7.84123
26 4 4.27512 1.40973 3.09414
34 4 5.32139 3.74611 6.93928
33 4 1.37455 6.42249 4.12854
318 2 1.46564 0.717714 1.05569
36 4 4.19229 5.95202 5.14522
57 1 1.32248 0.21632 6.05541
62 1 3.03488 2.51992 3.94499
77 2 1.06032 2.88022 3.96532
195 3 4.04534 4.52796 5.82704
79 2 0.0715983 6.71066 8.19449
82 2 4.66653 1.99816 1.50858
180 3 3.67926 -0.106936 3.0143
103 2 0.883885 1.15505 6.53826
315 1 1.77206 1.06949 0.0664845
117 2 2.34584 1.79601 4.52021
118 2 2.60551 2.9858 3.01025
119 2 3.35261 3.32057 4.66818
164 3 -1.15879 3.60259 2.43467
165 3 1.33147 3.82612 1.03492
166 3 -0.0997602 6.14301 1.13269
167 3 -2.18651 6.38988 6.59746
182 3 5.53295 1.59749 4.05396
200 3 2.38611 6.83466 8.28574
189 3 0.915623 5.10449 3.38879
190 3 0.282845 6.83999 5.43491
191 3 4.65175 2.72813 8.01489
194 3 2.90305 6.45976 4.27256
105 2 1.69101 0.378456 4.99831
185 3 5.2431 2.77275 0.147403
9 4 2.67923 -0.145687 7.29571
295 2 -0.0796279 0.445787 0.36926
272 2 5.3026 5.15447 0.105615
316 2 2.92851 1.07841 0.0145187
8 4 0.902124 2.28501 16.4634
11 4 2.99264 -0.00513123 13.3973
13 4 0.872718 1.62526 11.6205
18 4 -0.601594 3.92807 13.0006
19 4 -1.3417 6.29879 10.8466
28 4 4.09523 1.82386 9.19998
31 4 3.80478 2.20029 15.3036
35 4 1.94824 5.82091 9.47159
322 2 -0.33955 3.20847 9.61971
63 1 3.21594 3.16899 10.4867
64 1 4.44559 3.791 14.5497
67 1 1.96065 5.8561 13.6879
83 2 1.65846 2.1388 10.0937
198 3 2.88152 6.12836 10.6909
85 2 0.356168 4.77035 14.2094
317 2 0.848766 -0.150279 15.9637
336 2 -2.29151 6.34593 16.1734
120 2 3.81977 2.61815 11.4122
121 2 2.34278 3.74129 10.9537
122 2 3.86743 3.95876 9.99517
123 2 4.38244 3.64388 13.4897
125 2 3.7755 4.65119 14.9704
324 2 0.493166 0.0808518 14.3182
132 2 2.09767 4.8041 14.0349
133 2 2.80886 6.22261 12.973
134 2 0.916027 6.01664 13.2005
161 3 -0.371953 2.12968 15.585
162 3 -0.418748 0.734176 11.1758
163 3 1.95067 0.838988 12.5932
59 1 -2.76002 5.69752 9.76452
169 3 0.463128 2.97577 12.3171
170 3 -1.15902 5.09743 11.9672
84 2 2.18541 4.17373 9.11554
184 3 4.0848 0.959524 14.2702
110 2 -2.23467 5.43434 8.79107
186 3 2.21563 2.74054 15.5757
187 3 5.1851 1.11628 10.0503
319 1 -1.06339 2.64169 8.93717
193 3 0.287277 6.14943 9.69207
181 3 2.84191 0.960663 8.46644
128 2 5.38566 3.59395 11.2291
168 3 -1.89743 3.08519 13.6133
1 4 -3.56003 13.3443 2.33262
2 1 -4.69362 12.1013 3.69686
3 2 -3.48081 11.6649 3.31654
5 2 -4.87561 12.0552 4.77191
6 3 -3.49093 13.0501 0.698254
111 2 -3.45414 8.24302 0.925288
20 4 -1.81691 9.96825 1.35186
22 4 -1.97693 9.71981 7.66299
138 2 0.0145991 14.2061 3.37344
39 4 -0.650424 11.6924 3.95901
40 4 2.98455 7.72218 7.23167
42 4 1.9679 11.1677 5.63448
60 1 -3.55296 9.31559 1.36953
61 1 -3.40843 10.1955 6.44586
69 1 0.251015 13.1311 3.017
70 1 -1.85581 12.5635 5.19519
87 2 1.31491 7.70785 2.95175
88 2 1.78374 8.37856 6.28983
100 2 2.0609 10.1357 6.98703
287 2 2.54579 8.81214 4.46114
112 2 -4.0821 10.0287 0.684768
104 2 -5.6876 13.8732 6.09786
115 2 -2.72921 10.288 5.48342
116 2 -3.73226 11.2091 6.85933
78 2 -2.21823 14.216 6.15052
139 2 -0.151947 12.9618 2.01845
140 2 1.32375 12.9934 3.00381
141 2 -1.59341 12.087 6.17303
142 2 -2.96979 12.4034 4.70919
143 2 -1.33367 13.5981 4.9466
171 3 -0.828648 8.69571 1.09386
172 3 -1.82171 11.0849 0.154543
173 3 -1.03156 8.72347 6.86956
174 3 -3.95004 12.9389 7.97327
337 2 -3.20923 8.47459 5.45764
199 3 -1.53535 10.8345 3.05079
202 3 -1.29516 11.0535 8.32565
203 3 0.143625 13.1784 7.6729
205 3 0.680109 10.9622 4.72624
334 2 -5.20996 13.7135 2.91823
278 1 2.65598 9.11797 3.36396
285 2 3.02997 8.16336 2.81006
286 2 1.54292 9.50114 2.9481
290 3 2.03925 11.4311 1.39287
17 4 -0.728675 7.19932 6.68957
16 4 -0.397381 7.35371 0.209522
201 3 4.17798 7.22943 6.45852
113 2 -4.08426 9.23065 2.41254
114 2 -4.32155 9.48581 6.22849
80 2 -2.99752 8.91997 8.88519
23 4 -4.72244 12.4972 9.28346
24 4 -2.69617 9.27449 11.5862
25 4 -2.44678 12.3692 11.2557
197 3 0.319712 6.85236 15.9654
37 4 1.64197 7.15062 15.1344
41 4 -0.336124 12.1739 9.00737
43 4 2.62452 9.4377 13.1786
44 4 -0.36284 12.4686 15.2725
45 4 1.88612 11.2705 10.9798
72 1 -3.44437 8.91737 13.2509
73 1 -0.238623 10.6984 14.6468
213 3 1.46498 10.1561 12.1774
339 2 -4.17117 13.5655 14.546
21 4 -3.05315 11.7839 16.3107
147 2 -2.84434 7.99501 13.6467
38 4 3.76184 7.4883 10.9194
149 2 -3.51816 9.86113 13.896
150 2 0.424637 10.2595 15.481
151 2 0.160644 10.603 13.6313
152 2 -1.30467 10.29 14.7047
175 3 -1.88749 7.70962 11.3079
176 3 -4.07159 11.2944 15.0811
177 3 -3.92586 12.4188 10.5934
178 3 -2.03708 10.6432 11.7405
179 3 -2.56871 13.4243 12.4967
196 3 3.03475 6.75913 15.9598
81 2 -4.11234 9.46555 10.4099
323 1 -6.0808 13.4731 14.2831
204 3 -1.14763 12.8342 10.2675
207 3 1.61304 8.60085 14.3681
209 3 0.628901 12.4729 16.5518
210 3 0.46721 13.2703 14.0264
211 3 -2.04886 12.813 15.7325
212 3 1.0145 11.4103 9.62415
146 2 2.8875 9.6221 8.7513
102 2 -6.18674 13.4046 9.43619
208 3 3.4436 8.35201 12.1988
15 4 11.7518 6.7856 5.73202
46 4 9.8385 2.34479 3.77498
49 4 12.2051 1.74472 5.6014
50 4 11.1789 5.0006 3.21599
51 4 7.10203 6.07332 4.16317
52 4 9.71218 6.42768 1.052
53 4 10.5566 3.39458 7.58415
54 4 9.02426 5.78481 6.61487
66 1 6.00685 5.14007 8.01947
91 2 9.68442 1.52142 2.28401
94 2 12.7328 4.26559 2.96392
95 2 7.45471 4.83147 3.08534
29 4 6.90626 1.84294 5.14432
280 2 5.56378 6.95563 0.878478
268 1 6.52425 5.33174 0.367085
129 2 6.31667 5.936 7.252
192 3 6.52353 2.9735 6.15492
215 3 8.42568 2.10482 4.29424
219 3 13.6819 2.37216 4.82123
220 3 10.9643 1.55728 4.51804
221 3 12.5701 0.358911 6.43435
222 3 10.0783 3.9415 3.50525
223 3 11.4872 6.02029 4.37384
224 3 5.51213 6.03452 4.24285
225 3 10.9286 5.81226 1.70515
98 2 8.17411 6.29277 8.0399
227 3 11.7129 2.85513 6.67267
228 3 10.3056 6.78053 6.65577
229 3 7.90802 5.92995 5.53607
230 3 9.47456 4.295 6.85767
271 2 6.70585 5.65628 1.46011
294 4 13.9486 0.365841 1.61335
347 2 8.69466 0.583047 1.16824
298 4 11.9139 2.21662 0.10894
297 3 12.5981 1.01402 1.01261
217 3 8.81666 -0.198647 8.04227
340 2 12.2274 3.71648 0.807626
267 4 6.59277 3.40847 0.698158
96 2 8.41951 5.3572 0.953412
269 2 6.74197 3.15621 2.42959
183 3 7.23937 0.513708 5.9708
10 4 13.8754 1.03062 9.80438
335 2 13.9907 0.323981 13.9743
32 4 6.72506 1.58501 10.8479
48 4 9.11984 0.988337 9.04138
58 1 11.9023 0.842751 10.6
65 1 6.37343 3.29637 11.6853
68 1 5.47349 6.72034 11.3677
93 2 9.92189 0.393404 10.4433
312 3 9.92919 1.57306 16.7554
313 3 7.44933 2.29471 16.7204
107 2 11.7487 1.84124 10.0173
108 2 11.5649 0.961561 11.6225
126 2 7.16617 3.98989 11.3917
127 2 6.27901 3.09982 12.8058
109 2 12.0523 4.8149 10.4122
106 2 11.5067 0.00574338 9.96596
131 2 5.21701 5.5194 8.73745
135 2 6.59891 6.59664 10.9022
188 3 7.30596 0.604837 11.9885
226 3 9.91554 2.22853 8.44238
270 2 6.84228 5.33675 16.3266
218 3 7.86914 1.79479 9.56989
243 1 8.40206 6.42212 10.0152
245 2 6.60208 6.12188 13.9586
248 2 8.10207 5.25694 15.4989
256 2 7.4763 5.99712 9.54218
257 2 8.42597 6.32502 11.1285
258 2 9.26881 5.97461 9.44656
124 2 5.52643 3.82744 14.9471
299 4 8.64405 1.90987 15.7974
300 4 9.47226 4.04302 13.483
301 1 9.68289 3.02347 11.9012
302 1 11.0539 5.10934 13.9354
303 2 8.30517 0.414106 14.9976
304 2 8.2758 5.31549 13.2884
305 2 10.8756 3.05247 11.8933
306 2 9.20152 3.58079 11.0263
307 2 9.18786 2.04149 12.0627
308 2 10.925 6.02382 13.3002
309 2 11.9645 4.53077 13.6285
310 2 11.0252 5.34825 15.0194
311 3 12.1378 1.50478 15.4856
99 2 9.51451 6.02926 16.2259
342 2 11.7612 6.61021 9.74773
314 3 9.08895 3.00892 14.661
240 1 7.98704 6.2492 14.9927
329 2 9.71172 0.800236 13.6319
328 1 9.40801 -0.321005 13.5377
97 2 11.4955 4.32791 8.70365
12 4 13.5327 1.86645 14.6796
130 2 6.85888 4.64456 8.55505
136 2 4.96878 5.68598 11.6522
320 2 13.0926 3.09651 9.1317
247 2 8.98686 6.61376 14.3989
279 1 2.83379 14.2358 1.7152
47 4 6.9377 13.6807 7.19869
55 4 8.56601 8.46714 2.94605
332 2 8.23892 12.637 1.59333
74 1 7.60676 10.2058 2.45523
75 1 10.0557 8.96184 4.09032
327 2 9.97148 11.2977 0.239236
71 1 3.67566 9.43804 7.87329
288 2 2.32217 14.0592 2.75627
144 2 3.70735 10.1701 7.00962
153 2 6.72424 10.3538 3.0626
154 2 7.3639 9.95954 1.3637
155 2 8.45995 10.9962 2.54331
4 2 9.68271 11.5522 3.10875
157 2 9.64889 8.64348 5.11315
158 2 10.2978 10.1098 4.05735
92 2 5.68314 12.7882 8.13876
231 3 7.58763 7.45774 3.59643
232 3 9.17121 7.75625 1.64857
331 2 7.68738 13.0527 3.33097
293 3 7.78908 12.6501 6.23504
274 4 3.44146 10.3148 1.99335
275 4 2.41236 12.7197 0.534578
276 4 4.85261 12.2813 3.96383
277 4 7.10862 11.3309 5.61527
333 2 6.30741 12.662 2.02349
206 3 2.5009 12.5969 5.99697
281 2 5.73228 13.6201 3.29105
282 2 3.592 13.0404 4.81134
283 2 8.102 10.8896 4.26161
284 2 7.18046 10.0153 6.68957
252 2 10.8075 9.46092 8.00611
289 3 4.12653 9.3128 0.863654
330 1 7.34583 13.1255 2.26568
291 3 4.37126 11.3101 2.85378
292 3 5.65417 11.5758 5.06755
156 2 10.9297 8.30205 3.83852
89 2 3.21638 10.3738 4.82739
254 2 6.61785 8.44173 8.12676
27 4 1.45357 13.7525 6.95516
250 2 8.71992 9.58309 8.26065
145 2 4.8131 9.23849 8.31833
346 2 3.90424 14.0314 1.77004
344 2 8.67332 13.2176 13.2919
56 4 4.15936 11.2046 15.1793
76 1 5.86217 12.0816 15.1772
341 2 6.37752 14.0182 11.824
90 2 3.44637 10.8846 10.2718
101 2 5.58112 10.3283 15.8556
349 2 3.12814 13.6973 14.591
345 2 8.18624 11.8477 16.7333
159 2 5.38868 13.1026 15.7007
160 2 5.93531 12.3872 14.0658
86 2 4.10994 8.60706 9.66193
233 3 3.57644 10.5229 13.8635
234 3 3.23533 11.7736 16.357
273 4 4.26936 7.55666 16.7558
236 4 6.56291 7.8523 14.8403
237 4 8.46127 8.50908 9.80264
238 4 7.81494 10.0364 12.6514
239 4 6.07803 12.4029 11.1941
148 2 10.6793 8.6239 12.709
241 1 10.2861 9.01435 8.93163
242 1 6.62291 8.82122 9.13796
244 1 4.983 11.8737 9.65345
246 2 6.77046 12.3717 9.51332
251 2 10.2684 7.75061 8.77386
249 2 7.9693 7.7625 15.9882
343 2 8.41003 13.2082 15.249
137 2 5.56943 7.40432 12.2687
253 2 6.1286 7.98131 9.99478
235 4 9.58122 11.3724 14.7317
255 2 6.24041 9.90637 9.26445
259 2 4.36466 12.2305 8.67492
260 2 4.18094 12.3372 11.1596
261 2 5.12633 10.731 9.59751
262 3 5.38191 8.04706 15.791
263 3 7.02917 9.03703 13.7083
264 3 8.47196 9.25465 11.2576
265 3 9.04461 10.5677 13.5057
266 3 6.79197 11.2139 12.0832
338 2 9.85436 10.9496 8.89628
325 1 8.63682 10.9079 16.3695
326 2 7.8976 10.0742 16.2694
350 2 6.94508 11.7364 15.6149
214 3 1.94708 12.648 11.7128
30 4 1.46837 13.7634 12.7189
348 2 3.82814 13.6689 12.7619
216 3 7.86079 14.1792 8.45269
ITEM: TIMESTEP
200
ITEM: NUMBER OF ATOMS
350
ITEM: BOX BOUNDS xy xz yz pp pp pp
-6.7108999999999996e+00 1.5238200000000001e+01 -6.2626999999999997e+00
-6.4200000000000002e-01 1.4502800000000001e+01 -4.4819999999999999e-01
0.0000000000000000e+00 1.6838415000000001e+01 -6.4200000000000002e-01
ITEM: ATOMS id type x y z
7 4 -0.712119 2.59272 3.56876
296 3 -0.528377 1.21436 2.77386
14 4 0.321228 4.78081 1.84097
321 2 -1.38751 2.69278 8.00424
26 4 4.2763 1.46724 3.18853
34 4 5.43964 3.76403 7.03235
33 4 1.22569 6.4277 4.15179
318 2 1.21394 0.78232 1.20257
36 4 4.14059 5.90556 5.25445
57 1 1.37046 0.341746 6.12969
62 1 2.8715 2.39004 4.09944
77 2 0.936454 2.94236 4.16464
195 3 4.13191 4.36468 5.86196
79 2 -0.0502552 6.33661 8.04382
82 2 4.59461 2.12121 1.63754
272 2 5.31588 5.29697 0.0732969
103 2 1.33162 1.47915 6.31741
315 1 1.69283 1.05432 0.157112
117 2 2.282 1.60732 4.81778
118 2 2.30454 2.66074 3.11814
119 2 3.53218 3.16842 4.62653
164 3 -1.14418 3.63595 2.34589
165 3 1.39443 3.847 0.976614
166 3 -0.225731 6.10829 1.1112
167 3 -2.13898 6.28643 6.48452
182 3 5.67507 1.52084 3.97573
200 3 2.28635 6.83155 8.29471
189 3 0.829466 5.16751 3.26414
190 3 0.411138 6.62846 5.48117
191 3 4.65314 3.00738 8.17797
194 3 2.68607 6.36427 4.60572
105 2 1.57943 0.150182 5.03816
185 3 5.16285 2.72409 0.147222
9 4 2.67062 -0.186332 7.43334
316 2 2.86629 1.04868 0.211362
180 3 3.60127 0.022976 2.931
183 3 7.01747 0.360586 5.93543
104 2 0.453659 -0.167758 6.48995
295 2 -0.160239 0.482655 0.23682
8 4 0.923491 2.26459 16.4688
11 4 3.01921 0.0432502 13.2515
13 4 0.893223 1.70058 11.6709
18 4 -0.641411 4.07499 12.9695
19 4 -1.30017 6.25845 10.8515
28 4 3.97934 2.00244 9.22453
31 4 3.87321 2.33513 15.2342
35 4 1.80049 5.83163 9.50265
322 2 -0.117325 2.9203 9.33785
63 1 3.02794 3.30317 10.5027
64 1 4.65246 3.85335 14.441
67 1 2.03089 5.77774 13.7912
83 2 1.48741 2.16299 10.105
198 3 2.62226 6.08537 10.8766
85 2 0.234576 5.00393 14.113
317 2 0.836331 -0.229798 16.0449
336 2 -2.23453 6.23437 15.9764
120 2 3.43996 2.72396 11.3965
121 2 2.10385 3.77926 10.8893
122 2 3.80619 4.16857 10.225
123 2 4.41434 3.83296 13.3564
125 2 4.16552 4.74037 15.0052
324 2 0.645644 0.0461118 14.2939
132 2 1.96261 4.73331 14.2392
133 2 2.97482 5.93724 13.1909
134 2 1.10505 6.06524 13.1476
161 3 -0.484339 2.07345 15.9504
162 3 -0.383033 0.834024 11.2429
163 3 1.95979 0.881643 12.4092
59 1 -2.79159 5.75497 9.82207
169 3 0.391407 3.03798 12.3744
170 3 -1.15642 5.14515 11.9325
84 2 2.05009 4.18283 9.04578
184 3 3.89571 1.22298 14.1497
110 2 -2.20599 5.55483 8.8229
186 3 2.23051 2.62623 15.5938
187 3 5.09986 1.26033 10.1055
319 1 -1.25383 2.70362 9.08091
193 3 0.212303 6.1184 9.61663
181 3 2.80762 1.03531 8.45811
128 2 5.18316 3.45615 11.5842
168 3 -1.72264 3.20766 13.7135
1 4 -3.6292 13.3355 2.27459
2 1 -4.6245 12.3524 3.62177
3 2 -3.42021 11.4597 3.07234
5 2 -4.38885 12.6035 4.68851
6 3 -3.71843 12.9999 0.732824
111 2 -3.33405 8.16376 1.01532
20 4 -1.79017 9.94779 1.25089
22 4 -1.87313 9.63426 7.42485
138 2 -0.100563 14.0453 3.16856
39 4 -0.63791 11.6289 3.98014
40 4 3.06613 7.64778 7.24333
42 4 1.96753 11.2133 5.65957
60 1 -3.51537 9.23985 1.26572
61 1 -3.45698 10.1797 6.39954
69 1 0.251832 13.0013 2.89868
70 1 -1.87252 12.4737 5.23044
87 2 1.00226 7.87582 3.21435
88 2 2.04467 8.56937 6.2948
100 2 2.10967 10.2516 7.13474
287 2 2.33953 9.09228 4.45259
112 2 -4.09746 9.78094 0.436717
113 2 -4.12489 9.34184 2.31238
115 2 -2.81398 10.4161 5.52049
116 2 -3.72646 11.1138 7.03416
78 2 -2.26531 14.0922 6.29466
139 2 -0.223139 12.542 1.93209
140 2 1.43393 12.8679 3.04635
141 2 -1.54266 12.1226 6.317
142 2 -3.00393 12.3839 4.97577
143 2 -1.36967 13.5451 4.86224
171 3 -0.949045 8.66222 0.9061
172 3 -1.81357 11.134 0.146064
173 3 -0.881479 8.57623 6.66621
174 3 -4.0683 12.8343 7.94843
337 2 -3.17139 8.50622 5.42072
199 3 -1.3388 10.6699 2.93307
202 3 -1.12959 10.8005 8.17351
203 3 0.201652 13.0708 7.84542
205 3 0.515701 11.0868 5.04802
334 2 -5.28794 13.8905 2.75094
278 1 2.4384 9.23638 3.36348
285 2 2.78985 8.21049 2.83406
286 2 1.3903 9.68147 2.90045
290 3 2.37649 11.2523 1.37644
17 4 -0.55662 7.06454 6.58058
16 4 -0.519519 7.29517 0.122297
80 2 -2.9774 8.8197 8.51737
23 4 -4.76963 12.2804 9.21095
24 4 -2.67109 9.2227 11.5822
25 4 -2.43798 12.3078 11.276
197 3 0.300011 6.95486 15.9861
37 4 1.79656 7.12749 15.1714
41 4 -0.29693 11.9514 8.93671
43 4 2.55407 9.41981 13.2197
44 4 -0.347495 12.4167 15.1803
45 4 1.82525 11.248 10.9823
72 1 -3.76313 8.84726 13.0283
73 1 -0.246275 10.5813 14.8006
213 3 1.28648 10.285 12.1815
339 2 -4.15499 13.6747 14.3532
21 4 -3.05547 11.7357 16.3149
147 2 -3.37454 7.78597 13.3065
38 4 3.7301 7.39192 11.0853
149 2 -3.73315 9.63348 13.7967
150 2 0.409897 10.2129 15.6932
151 2 0.340804 10.4671 13.81
152 2 -1.2687 10.0677 14.8048
175 3 -1.71086 8.08991 11.17
176 3 -3.94135 11.1979 15.1139
177 3 -3.90178 12.2867 10.5019
178 3 -2.21104 10.7201 11.7972
179 3 -2.40346 13.4832 12.4585
196 3 3.05807 6.74711 16.1797
81 2 -4.0876 9.34832 10.2529
323 1 -6.12917 13.5364 14.2805
204 3 -1.3617 12.6201 10.0917
207 3 1.97889 8.6239 14.4911
209 3 0.768583 12.7994 16.5989
210 3 0.426262 13.0949 13.8163
211 3 -1.87942 12.7104 15.717
212 3 0.98313 11.1483 9.6433
146 2 2.86597 9.68268 8.8459
208 3 3.21854 8.33137 12.175
15 4 11.8484 6.76972 5.6327
46 4 9.79895 2.42044 3.78111
49 4 12.2593 1.86168 5.49231
50 4 11.217 5.0121 3.10512
51 4 7.15594 6.17457 4.24755
52 4 9.68453 6.43707 0.992394
53 4 10.6954 3.38941 7.53032
54 4 9.16967 5.86559 6.63279
66 1 6.31042 5.14432 8.02593
91 2 9.55666 1.6316 2.33982
94 2 12.726 4.25887 2.79833
95 2 7.7463 5.05758 3.15464
29 4 6.9603 1.76029 5.17452
280 2 5.60772 7.13336 1.0037
268 1 6.3781 5.3362 0.429666
129 2 6.35523 5.98505 7.25293
192 3 6.51454 2.88437 6.21281
215 3 8.32254 2.29676 4.48188
219 3 13.5392 2.46549 4.86063
220 3 10.9917 1.64275 4.43568
221 3 12.5588 0.331309 6.45419
222 3 10.3206 3.84115 3.43483
223 3 11.5513 6.03722 4.24575
224 3 5.57689 5.9237 4.3504
225 3 10.8855 5.79011 1.65904
98 2 8.44215 6.47634 8.0922
227 3 11.8958 3.04324 6.60037
228 3 10.4544 6.80219 6.52949
229 3 8.05857 6.06176 5.4976
230 3 9.49676 4.38287 6.93941
271 2 6.50573 5.43009 1.65504
294 4 13.9419 0.44618 1.56065
347 2 8.63699 0.579415 1.32076
130 2 7.39755 4.69215 8.22663
297 3 12.5848 1.05234 1.07735
217 3 8.62889 0.0129847 8.04212
340 2 12.2322 3.74218 0.648368
267 4 6.58385 3.36199 0.615069
96 2 8.22996 5.47715 1.03798
269 2 6.83166 3.16929 2.2415
226 3 10.0118 2.16689 8.25256
312 3 10.3003 2.00415 0.0317067
298 4 11.8738 2.22028 0.0110102
10 4 13.8708 1.01914 9.82039
335 2 14.1549 0.583942 13.84
32 4 6.52708 1.49195 10.855
48 4 9.04642 1.15109 8.99234
58 1 11.8742 0.651214 10.4531
65 1 6.30932 3.27816 11.6378
68 1 5.51202 6.73454 11.4968
93 2 9.91172 0.312269 10.2157
320 2 13.2966 3.50201 9.51782
313 3 7.41093 2.43389 16.6142
107 2 11.7089 1.78116 10.3968
108 2 11.2861 0.219375 11.389
126 2 6.93321 4.04412 11.1005
127 2 6.69967 3.12525 12.6939
109 2 12.0996 4.82346 10.3814
106 2 11.4693 0.118704 9.51491
131 2 5.81688 5.49557 8.99197
135 2 6.5121 6.66452 10.8859
188 3 7.02379 0.594375 12.0477
247 2 8.82335 6.3478 14.5303
270 2 6.57217 5.23897 16.4691
218 3 7.80954 1.86202 9.70869
243 1 8.32812 6.44621 10.0612
245 2 6.56404 6.13796 14.0281
248 2 7.94666 5.09285 15.5045
256 2 7.44598 5.99013 9.41676
257 2 8.30105 6.21022 11.2188
258 2 9.32643 6.16026 9.66085
124 2 5.83479 3.6904 14.707
299 4 8.69353 1.93763 15.8842
300 4 9.38113 3.94748 13.4276
301 1 9.62514 3.03484 11.7966
302 1 11.0384 4.91196 13.7264
303 2 8.15601 0.484088 15.1145
304 2 8.23328 5.29505 13.3795
305 2 10.6364 3.09964 11.362
306 2 8.90484 3.57445 11.16
307 2 9.35064 1.97347 11.9423
308 2 10.9161 5.56216 12.8224
309 2 11.9178 4.20562 13.6418
310 2 11.0982 5.51265 14.6343
311 3 12.1859 1.54262 15.43
99 2 9.59227 6.04144 16.1581
342 2 11.8524 6.75405 9.91407
314 3 9.08822 2.94929 14.6629
240 1 7.9081 6.11953 15.1112
329 2 9.36278 0.928942 13.7045
328 1 9.26658 -0.19486 13.6214
97 2 11.4013 4.45706 8.69895
12 4 13.6279 1.92183 14.7948
136 2 5.15125 5.73044 11.8574
279 1 2.94783 14.2127 1.72746
47 4 6.89248 13.6478 7.33371
55 4 8.58325 8.51896 2.86293
332 2 8.21029 12.7291 1.58366
74 1 7.86411 10.2689 2.50674
75 1 10.0534 9.18814 4.05347
114 2 10.7939 9.50172 6.11049
71 1 3.63273 9.37331 8.04144
288 2 2.64462 13.9543 2.77137
144 2 3.68185 10.0809 7.11655
153 2 6.80618 10.4394 2.98253
154 2 7.8208 10.2134 1.39297
155 2 8.63227 11.1214 2.84289
4 2 9.58402 11.8959 3.50106